FOO
138240
    1MOL0     O    1   1.875   7.386   5.227  0.3095  0.0643  1.4615
    1MOL0     C    2   1.784   7.318   5.190 -1.1968 -0.2153 -0.2434
    1MOL0     O    3   1.796   7.191   5.144  0.6066  0.7304  0.0133
    1MOL0     C    4   1.908   7.127   5.173 -0.7440  0.3057  0.3957
    1MOL0     C    5   1.906   7.043   5.282 -0.8206  0.9932 -0.6867
    1MOL0     C    6   2.022   6.973   5.319 -0.0798  0.5381 -0.1236
    1MOL0     C    7   2.142   7.004   5.255  0.3830  0.0772 -0.0202
    1MOL0     O    8   2.260   6.953   5.304 -0.0311 -0.3794 -0.4971
    1MOL0     C    9   2.370   6.918   5.216 -0.0001  0.2528 -0.2114
    1MOL0     C   10   2.486   6.877   5.308  0.2274  0.3255 -0.7539
    1MOL0     C   11   2.631   6.888   5.264  1.0880 -0.5065  0.3772
    1MOL0     C   12   2.658   6.813   5.136  0.1142  1.1211 -0.0465
    1MOL0     C   13   2.809   6.793   5.107  0.3247  0.2297  0.1683
    1MOL0     C   14   2.856   6.921   5.045 -0.0353 -0.2664 -0.0347
    1MOL0     C   15   2.999   6.919   5.003 -0.4081 -0.1709  0.4114
    1MOL0     C   16   3.044   7.033   4.904 -0.0819  0.1591 -0.2389
    1MOL0     N   17   3.177   7.007   4.849 -0.8899  0.1935  0.1599
    1MOL0     C   18   3.304   7.003   4.911  0.1610 -1.1058  0.1635
    1MOL0     C   19   3.390   6.962   4.813  0.4922 -0.6857  0.6754
    1MOL0     C   20   3.540   6.932   4.834  0.8820  0.3837 -0.8536
    1MOL0     C   21   3.571   6.785   4.795  0.3307 -0.0634 -0.8493
    1MOL0     C   22   3.692   6.742   4.866 -0.4873  0.3976 -0.1854
    1MOL0     C   23   3.719   6.597   4.808 -0.1202  0.7472 -0.0697
    1MOL0     O   24   3.800   6.525   4.903  0.2425  0.3149 -0.3119
    1MOL0     C   25   3.937   6.523   4.900 -0.1529  0.0491 -0.5925
    1MOL0     C   26   4.004   6.440   4.999  0.8492  0.3166  1.0690
    1MOL0     C   27   4.144   6.426   5.004  0.4003 -0.3858  0.2106
    1MOL0     C   28   4.224   6.497   4.913  0.9785  0.0842 -0.3663
    1MOL0     C   29   4.366   6.490   4.914  0.4703 -0.6286 -0.7809
    1MOL0     O   30   4.420   6.542   4.804 -0.9208  0.5054  0.3289
    1MOL0     C   31   4.556   6.542   4.788  0.7402  0.3540 -0.2355
    1MOL0     C   32   4.621   6.452   4.701  0.2073  0.1188 -0.5244
    1MOL0     C   33   4.760   6.463   4.701 -0.2986  0.1380 -0.1490
    1MOL0     C   34   4.842   6.552   4.768  0.2409  1.0245 -0.6766
    1MOL0     O   35   4.977   6.557   4.745 -0.7709 -0.0261 -0.1934
    1MOL0     C   36   5.062   6.637   4.831  0.6257  0.3671  0.6966
    1MOL0     C   37   5.206   6.601   4.801 -0.2518  0.6118 -0.1078
    1MOL0     C   38   5.259   6.676   4.675 -0.5501 -0.4845  0.2001
    1MOL0     C   39   5.405   6.615   4.639 -0.4557  0.1708 -0.3734
    1MOL0     C   40   5.472   6.703   4.529  0.4440 -0.9793 -0.7499
    1MOL0     C   41   5.606   6.663   4.478 -0.4612 -0.0528  0.8048
    1MOL0     C   42   5.713   6.720   4.562 -0.0955  0.3118 -0.8886
    1MOL0     C   43   5.855   6.702   4.512 -0.2681  0.6584  0.4840
    1MOL0    Cl   44   5.925   6.552   4.565  0.1546  0.0057  0.0799
    1MOL0     C   45   4.769   6.642   4.848 -0.3623  0.8758  0.0371
    1MOL0     C   46   4.633   6.640   4.853  0.4785  0.9453  0.1460
    1MOL0     O   47   4.423   6.441   5.016  0.3908  0.1278  0.6698
    1MOL0     C   48   4.157   6.570   4.819  0.4619 -0.4799 -0.7649
    1MOL0     C   49   4.024   6.577   4.799 -0.4383  0.2965 -0.1279
    1MOL0     N   50   3.318   6.948   4.695 -0.9710 -0.5781  0.8119
    1MOL0     N   51   3.194   6.972   4.721 -0.3749  0.0721  0.4003
    1MOL0     C   52   2.146   7.092   5.147 -0.8395 -0.1912 -0.7934
    1MOL0     C   53   2.030   7.158   5.111  0.1198  0.5534 -0.1512
    1MOL0     C   54   1.645   7.374   5.178  0.7580 -0.3532  0.7504
    1MOL0     C   55   1.534   7.282   5.186 -0.5750  0.2574  0.3733
    1MOL0     C   56   1.406   7.330   5.215 -0.2641 -0.6690 -0.6357
    1MOL0     C   57   1.380   7.469   5.248  0.0418  0.2515  0.3262
    1MOL0     O   58   1.263   7.523   5.297  0.1208 -0.0551 -0.0188
    1MOL0     C   59   1.161   7.431   5.354 -0.2552 -0.4331 -0.8200
    1MOL0     C   60   1.218   7.350   5.477 -0.8021  0.1884 -0.8303
    1MOL0     C   61   1.112   7.263   5.538 -0.7447 -0.3690 -0.4950
    1MOL0     C   62   1.151   7.197   5.660  0.7747 -0.0156 -0.3637
    1MOL0     C   63   1.190   7.294   5.765 -0.6064  0.4443 -0.1112
    1MOL0     C   64   1.223   7.383   5.840 -0.2023 -0.0433 -0.0835
    1MOL0     C   65   1.494   7.552   5.234 -0.2500 -0.4163  0.1285
    1MOL0     C   66   1.622   7.512   5.200 -0.0454  0.3804 -0.9047
    1MOL0     C   67   1.717   7.623   5.166  0.5028 -0.1487  0.5706
    1MOL0     H   68   1.816   7.031   5.342  0.0588 -1.4663  0.2812
    1MOL0     H   69   2.027   6.908   5.406 -1.4379  0.5800 -0.0006
    1MOL0     H   70   2.333   6.833   5.158 -1.7145  1.1702 -0.5662
    1MOL0     H   71   2.396   6.999   5.148  0.6487  1.8721  1.8646
    1MOL0     H   72   2.469   6.777   5.347  0.0740  0.9872  0.9845
    1MOL0     H   73   2.471   6.934   5.400 -1.9458 -4.2053  2.0264
    1MOL0     H   74   2.679   6.837   5.348 -0.8543 -4.0553 -0.4511
    1MOL0     H   75   2.675   6.988   5.258  1.2238 -0.5873 -0.0650
    1MOL0     H   76   2.614   6.713   5.150 -0.7176  1.8792  4.1092
    1MOL0     H   77   2.615   6.847   5.041 -0.3437 -3.6219 -1.8304
    1MOL0     H   78   2.866   6.760   5.195  0.5631 -0.1784 -0.1375
    1MOL0     H   79   2.814   6.705   5.042 -3.4669 -0.5386  0.6817
    1MOL0     H   80   2.785   6.948   4.966  1.4421 -1.8075 -1.9743
    1MOL0     H   81   2.842   6.997   5.124 -2.2433 -0.7931  0.1407
    1MOL0     H   82   3.009   6.819   4.961 -0.2156 -0.3210  0.8110
    1MOL0     H   83   3.057   6.933   5.095 -1.4363 -1.6369  1.3073
    1MOL0     H   84   2.966   7.025   4.827  2.1665  0.3787 -2.7058
    1MOL0     H   85   3.035   7.132   4.949 -1.3890 -0.5278  1.0824
    1MOL0     H   86   3.339   7.027   5.011  1.5363  1.8883 -0.9193
    1MOL0     H   87   3.586   7.014   4.779  0.2708  0.3213 -1.4634
    1MOL0     H   88   3.549   6.947   4.942 -1.6207  0.8239 -0.6447
    1MOL0     H   89   3.480   6.725   4.807  0.9896 -0.7859  0.7557
    1MOL0     H   90   3.594   6.779   4.688  0.4154  0.0181 -0.8354
    1MOL0     H   91   3.674   6.735   4.974 -1.5663  1.1386 -0.3137
    1MOL0     H   92   3.788   6.794   4.855 -1.9920  4.0913  2.2910
    1MOL0     H   93   3.764   6.603   4.708  2.2112  0.0387  0.8770
    1MOL0     H   94   3.632   6.532   4.794  1.2512 -1.1896  0.0610
    1MOL0     H   95   3.940   6.391   5.071  1.4181 -2.9071 -0.4475
    1MOL0     H   96   4.199   6.370   5.080 -0.6143 -1.0488  0.4837
    1MOL0     H   97   4.566   6.378   4.643  2.2435 -1.3827 -0.6329
    1MOL0     H   98   4.813   6.400   4.630  0.3363  2.3551 -1.7635
    1MOL0     H   99   5.032   6.741   4.812  1.3000  0.4534  0.1140
    1MOL0     H  100   5.029   6.609   4.932 -1.3347 -0.5937 -0.1449
    1MOL0     H  101   5.277   6.615   4.883  2.8454  0.4255 -2.5663
    1MOL0     H  102   5.226   6.494   4.790  4.0484  1.0692  1.0830
    1MOL0     H  103   5.192   6.674   4.588  0.5465 -0.1635 -0.6781
    1MOL0     H  104   5.271   6.780   4.705 -0.7007 -0.8098  1.4274
    1MOL0     H  105   5.382   6.516   4.601 -0.9256 -1.0668  2.8144
    1MOL0     H  106   5.465   6.611   4.731  0.8744  2.4711 -1.0385
    1MOL0     H  107   5.468   6.808   4.560  0.6060 -0.9767 -0.7361
    1MOL0     H  108   5.405   6.709   4.442 -1.2052 -0.5009  0.5046
    1MOL0     H  109   5.613   6.555   4.462  1.4797  0.1982 -0.3771
    1MOL0     H  110   5.607   6.707   4.378 -0.6532 -0.7501  0.4954
    1MOL0     H  111   5.721   6.677   4.662  0.1318 -3.0031 -2.2113
    1MOL0     H  112   5.690   6.826   4.573 -0.7280  0.0184  0.9609
    1MOL0     H  113   5.861   6.703   4.403  1.4997  1.6661  0.5569
    1MOL0     H  114   5.899   6.797   4.543 -1.7810  2.1229 -1.5658
    1MOL0     H  115   4.815   6.714   4.915 -2.1899  2.3404 -0.1872
    1MOL0     H  116   4.573   6.706   4.914 -1.2839 -1.1999  0.8781
    1MOL0     H  117   4.211   6.636   4.751 -2.0534  2.9541  0.2851
    1MOL0     H  118   3.994   6.652   4.726 -1.6783 -0.0063  0.0460
    1MOL0     H  119   2.238   7.134   5.109 -1.2176  0.4898 -0.9722
    1MOL0     H  120   2.032   7.233   5.033 -5.2499  0.1969 -1.0464
    1MOL0     H  121   1.545   7.175   5.172  1.4606  0.3331  1.0587
    1MOL0     H  122   1.327   7.258   5.236 -0.1884 -0.2972  0.9966
    1MOL0     H  123   1.129   7.357   5.280 -1.3009  0.4837 -1.3166
    1MOL0     H  124   1.067   7.478   5.383 -0.1089 -0.9831  0.6067
    1MOL0     H  125   1.241   7.430   5.549  1.7809 -2.8070  2.0336
    1MOL0     H  126   1.312   7.296   5.466 -0.1357 -0.1412  4.1083
    1MOL0     H  127   1.079   7.187   5.467  0.3266  0.5424 -2.0266
    1MOL0     H  128   1.026   7.331   5.543  0.7308  1.9049 -3.2300
    1MOL0     H  129   1.064   7.140   5.696 -0.6304  3.6521  2.6968
    1MOL0     H  130   1.236   7.135   5.630 -0.0245 -1.4465  0.1988
    1MOL0     H  131   1.231   7.462   5.912 -0.3432 -1.6022  1.7471
    1MOL0     H  132   1.472   7.658   5.245 -2.0576 -0.5662 -1.4042
    1MOL0     H  133   1.684   7.727   5.173  1.7335  0.2358  0.9304
    1MOL0     H  134   1.796   7.622   5.241 -0.3104  2.3014  1.5565
    1MOL0     H  135   1.750   7.602   5.064 -1.5965 -2.7930  0.3100
    2MOL0     O  136   2.020  10.540   0.444  0.0986 -0.1840 -0.2010
    2MOL0     C  137   2.060  10.525   0.563  1.1095 -0.3837 -0.0273
    2MOL0     O  138   1.981  10.470   0.666 -0.6040 -0.1719  0.1930
    2MOL0     C  139   1.848  10.464   0.651  0.4480 -0.3053 -0.3307
    2MOL0     C  140   1.769  10.543   0.733  0.3097  0.4726 -0.3527
    2MOL0     C  141   1.629  10.523   0.733  0.2083 -0.0184 -0.4136
    2MOL0     C  142   1.571  10.438   0.642  0.1899 -0.5964 -0.7466
    2MOL0     O  143   1.434  10.410   0.638 -0.1651 -0.3913  0.8134
    2MOL0     C  144   1.341  10.477   0.720 -0.8298 -0.2900 -0.5011
    2MOL0     C  145   1.201  10.406   0.707 -0.7185  0.1442 -0.1344
    2MOL0     C  146   1.119  10.427   0.586  0.2307 -0.9790  0.3977
    2MOL0     C  147   1.138  10.312   0.477 -0.5645  0.1538 -0.8958
    2MOL0     C  148   1.069  10.316   0.335  0.7493 -0.0451  0.2302
    2MOL0     C  149   1.117  10.435   0.263 -0.4015 -0.9933  1.3751
    2MOL0     C  150   1.055  10.446   0.114 -0.4896 -0.2875  0.5908
    2MOL0     C  151   1.113  10.354   0.006 -0.0498 -0.3558 -1.0443
    2MOL0     N  152   1.076  10.410  -0.120  0.0739  0.1754 -0.6004
    2MOL0     C  153   0.961  10.391  -0.178  0.6650 -0.2652  1.5183
    2MOL0     C  154   0.966  10.449  -0.306 -0.1820  0.1948 -0.2399
    2MOL0     C  155   0.872  10.467  -0.415  0.1636 -0.1787 -0.2131
    2MOL0     C  156   0.742  10.508  -0.351 -0.5930  0.5037  0.0379
    2MOL0     C  157   0.763  10.644  -0.273 -0.2556 -0.2138  0.9003
    2MOL0     C  158   0.632  10.679  -0.197  0.7139 -0.3573 -0.2816
    2MOL0     O  159   0.614  10.596  -0.082 -0.0739 -0.3751  0.5168
    2MOL0     C  160   0.643  10.630   0.050 -0.3383 -0.0002  0.8030
    2MOL0     C  161   0.631  10.528   0.144 -0.3545 -0.0518 -1.3180
    2MOL0     C  162   0.656  10.558   0.274  0.1405  0.4195 -1.0349
    2MOL0     C  163   0.699  10.681   0.318  0.6273  0.3570  0.2433
    2MOL0     C  164   0.711  10.713   0.453 -0.0537 -0.0957  1.3631
    2MOL0     O  165   0.646  10.627   0.544 -0.7852 -0.6187  0.4039
    2MOL0     C  166   0.661  10.661   0.675  0.2474 -0.3864 -0.8228
    2MOL0     C  167   0.778  10.670   0.744 -0.1159  0.0196 -0.1191
    2MOL0     C  168   0.780  10.665   0.882  0.1596  0.2445  0.3112
    2MOL0     C  169   0.658  10.661   0.958 -0.5687 -0.0473  0.1387
    2MOL0     O  170   0.639  10.666   1.100  0.1509 -0.3335  0.8217
    2MOL0     C  171   0.758  10.685   1.190  0.1286 -0.7480  0.1002
    2MOL0     C  172   0.707  10.711   1.332 -0.1805  0.5270  0.1920
    2MOL0     C  173   0.576  10.783   1.347 -0.3250  1.0495  0.5025
    2MOL0     C  174   0.523  10.790   1.494 -1.4280  0.4188 -0.6377
    2MOL0     C  175   0.394  10.858   1.499  0.2319  0.0421 -0.9613
    2MOL0     C  176   0.365  10.888   1.644 -0.0065  0.2228 -0.0191
    2MOL0     C  177   0.217  10.928   1.659  0.3083 -0.2879 -0.0389
    2MOL0     C  178   0.106  10.814   1.641 -0.2107 -0.5183 -0.6699
    2MOL0    Cl  179   0.126  10.698   1.775 -0.3136 -0.4410 -0.2380
    2MOL0     C  180   0.539  10.657   0.884 -0.6289 -0.1072  0.2749
    2MOL0     C  181   0.541  10.659   0.740 -0.2023  1.0677 -0.8140
    2MOL0     O  182   0.798  10.797   0.484 -0.2157  0.1559 -0.6225
    2MOL0     C  183   0.708  10.784   0.218  0.7949  0.3805 -0.3385
    2MOL0     C  184   0.689  10.759   0.086  0.0724  0.1949 -0.1045
    2MOL0     N  185   1.093  10.509  -0.313 -0.2562 -0.0441  0.3492
    2MOL0     N  186   1.157  10.473  -0.204 -0.2992 -1.0171 -0.8481
    2MOL0     C  187   1.648  10.365   0.543 -0.2034  0.2983 -0.3856
    2MOL0     C  188   1.788  10.381   0.553 -0.0875 -0.4370  0.8646
    2MOL0     C  189   2.200  10.565   0.589  0.1190  0.2731  0.0130
    2MOL0     C  190   2.252  10.533   0.719 -0.0656 -0.7429  0.8448
    2MOL0     C  191   2.385  10.558   0.751 -0.5245 -0.1030 -0.4093
    2MOL0     C  192   2.476  10.608   0.663 -0.3090  0.5038 -0.0556
    2MOL0     O  193   2.608  10.607   0.695  0.0805 -0.6786  0.8236
    2MOL0     C  194   2.654  10.595   0.832  0.3848  0.9384  0.9688
    2MOL0     C  195   2.788  10.655   0.847  0.5890 -0.4358  1.3221
    2MOL0     C  196   2.899  10.602   0.761  0.7105  0.5354  0.1219
    2MOL0     C  197   3.041  10.640   0.817 -0.1083  0.4882 -0.5059
    2MOL0     C  198   3.143  10.596   0.715  0.4718  0.6703  0.4260
    2MOL0     C  199   3.212  10.558   0.629 -0.7799 -0.1452  0.2662
    2MOL0     C  200   2.425  10.650   0.547  0.4865  0.3908  1.1391
    2MOL0     C  201   2.295  10.622   0.499 -0.0326  0.2357 -0.4301
    2MOL0     C  202   2.261  10.685   0.365 -0.5295 -0.6678  1.4888
    2MOL0     H  203   1.818  10.613   0.800  0.8945  0.5731 -0.8789
    2MOL0     H  204   1.568  10.592   0.790  2.6160 -0.5109  3.0422
    2MOL0     H  205   1.366  10.471   0.826 -1.7719 -2.3905 -0.3572
    2MOL0     H  206   1.332  10.583   0.694 -0.0989 -0.5069 -1.7254
    2MOL0     H  207   1.136  10.427   0.793 -0.4746 -1.4516  0.4830
    2MOL0     H  208   1.215  10.298   0.717  4.4548  0.4143 -1.4548
    2MOL0     H  209   1.162  10.511   0.530  3.5907 -3.2502 -0.7612
    2MOL0     H  210   1.019  10.460   0.615  0.0644  0.9821 -2.0399
    2MOL0     H  211   1.245  10.295   0.462 -0.5171 -2.4077  1.4321
    2MOL0     H  212   1.106  10.217   0.522 -1.0602  1.2996  1.2846
    2MOL0     H  213   1.093  10.222   0.285 -1.0727 -1.5170  1.9694
    2MOL0     H  214   0.961  10.323   0.351  0.6247 -0.9792 -0.1577
    2MOL0     H  215   1.083  10.527   0.313  0.6680  1.5437 -2.1222
    2MOL0     H  216   1.225  10.452   0.260 -0.4873 -0.4229 -1.1503
    2MOL0     H  217   1.078  10.545   0.073 -4.5171 -0.2981 -2.3072
    2MOL0     H  218   0.946  10.436   0.112 -0.4605 -0.6285  0.6500
    2MOL0     H  219   1.219  10.355   0.030 -0.0137 -1.2717 -1.1476
    2MOL0     H  220   1.082  10.253   0.032 -0.4305  0.0154  0.0433
    2MOL0     H  221   0.883  10.316  -0.165 -1.8882  1.1064 -3.3380
    2MOL0     H  222   0.911  10.542  -0.484  0.9149  0.3298  0.7378
    2MOL0     H  223   0.850  10.373  -0.466 -1.6234  0.3964 -0.5873
    2MOL0     H  224   0.670  10.526  -0.431 -2.0987  2.6152  1.7435
    2MOL0     H  225   0.708  10.417  -0.302  0.0879 -0.7040 -1.6454
    2MOL0     H  226   0.793  10.729  -0.334 -1.4399  0.0108  0.6085
    2MOL0     H  227   0.840  10.642  -0.196  1.1816  1.2877 -0.4209
    2MOL0     H  228   0.547  10.673  -0.266 -1.3399  0.1710  2.0827
    2MOL0     H  229   0.637  10.786  -0.174 -2.3403 -0.7200  2.8046
    2MOL0     H  230   0.576  10.437   0.122 -1.6318  0.4265 -0.2650
    2MOL0     H  231   0.639  10.472   0.337 -2.9049  0.0649 -2.1650
    2MOL0     H  232   0.870  10.676   0.686 -0.4468  0.5581 -0.5985
    2MOL0     H  233   0.872  10.675   0.939  0.3789  3.9579 -0.3934
    2MOL0     H  234   0.835  10.608   1.188  0.9765  0.0730  0.0572
    2MOL0     H  235   0.806  10.777   1.156  0.6353 -1.2009 -0.4241
    2MOL0     H  236   0.698  10.614   1.382 -3.1395  0.4141 -0.3834
    2MOL0     H  237   0.777  10.774   1.388 -3.0055  5.3137 -1.1118
    2MOL0     H  238   0.594  10.882   1.303  1.0669 -0.3721 -2.4178
    2MOL0     H  239   0.501  10.732   1.285  0.9967 -1.6379  0.9839
    2MOL0     H  240   0.602  10.835   1.557  0.8428 -3.2037 -0.6095
    2MOL0     H  241   0.505  10.688   1.529 -2.6757  0.1785 -1.9350
    2MOL0     H  242   0.323  10.784   1.461 -1.7714 -0.1253  2.6413
    2MOL0     H  243   0.388  10.955   1.449 -0.4129  0.8629  0.6204
    2MOL0     H  244   0.373  10.803   1.713  0.1178  0.9884  0.9304
    2MOL0     H  245   0.438  10.962   1.678  1.6919 -1.9344  1.3156
    2MOL0     H  246   0.195  11.014   1.596 -0.6196 -1.4935 -1.4150
    2MOL0     H  247   0.208  10.964   1.762 -3.3338  0.3646 -0.4610
    2MOL0     H  248   0.007  10.859   1.649 -1.0667 -2.1370 -1.6691
    2MOL0     H  249   0.121  10.767   1.544 -0.4319 -0.4335 -0.7454
    2MOL0     H  250   0.442  10.639   0.929 -0.1076 -1.8360  0.8106
    2MOL0     H  251   0.445  10.655   0.691 -0.0145  2.1462 -1.3083
    2MOL0     H  252   0.738  10.885   0.246  0.2968  0.2572  0.6879
    2MOL0     H  253   0.696  10.842   0.017 -2.7357  0.1743 -0.5514
    2MOL0     H  254   1.610  10.302   0.462 -0.2905  0.0525 -0.1565
    2MOL0     H  255   1.844  10.333   0.473 -1.4531  0.6637 -0.8095
    2MOL0     H  256   2.178  10.495   0.790  1.1724 -0.8155  2.1458
    2MOL0     H  257   2.418  10.537   0.853  0.4638  5.9851  0.8921
    2MOL0     H  258   2.660  10.489   0.859  0.7889  0.6668 -0.1412
    2MOL0     H  259   2.584  10.637   0.905  0.1936  0.3936  1.1103
    2MOL0     H  260   2.824  10.657   0.950  1.0387  0.1549  1.1618
    2MOL0     H  261   2.776  10.762   0.825 -1.4468 -0.0344  3.8683
    2MOL0     H  262   2.891  10.652   0.663  0.1161  0.8482  0.3271
    2MOL0     H  263   2.892  10.493   0.757 -2.2021  0.5848  1.4231
    2MOL0     H  264   3.052  10.746   0.842  0.5958  0.4321 -0.5417
    2MOL0     H  265   3.049  10.571   0.901  0.7344  0.0268 -0.9497
    2MOL0     H  266   3.273  10.515   0.552  0.4956  0.5882  0.8406
    2MOL0     H  267   2.491  10.695   0.473 -0.6481  1.0552  0.4941
    2MOL0     H  268   2.326  10.772   0.356  1.0578 -1.8353  1.3128
    2MOL0     H  269   2.296  10.617   0.287 -1.1968 -0.5250  1.0505
    2MOL0     H  270   2.154  10.704   0.351 -0.0265 -0.1514 -3.9998
    3MOL0     O  271   9.527   5.983   1.298 -0.1825 -0.4040 -0.0747
    3MOL0     C  272   9.427   5.961   1.361  0.2572  0.0629 -0.5748
    3MOL0     O  273   9.414   6.007   1.489 -0.0927 -0.7100  0.0640
    3MOL0     C  274   9.529   6.045   1.563 -0.6207 -0.1995  1.4118
    3MOL0     C  275   9.539   6.164   1.638  0.7874 -0.1531  0.0909
    3MOL0     C  276   9.644   6.188   1.721 -0.1229  0.5195 -0.3430
    3MOL0     C  277   9.744   6.091   1.745  1.0751  0.1199  0.4938
    3MOL0     O  278   9.840   6.124   1.831 -0.1342 -0.1099  0.3587
    3MOL0     C  279   9.874   6.016   1.919  0.0049 -0.4950 -0.3559
    3MOL0     C  280   9.940   6.058   2.043  0.4677  0.0729 -0.1644
    3MOL0     C  281  10.093   6.075   2.008  0.7227 -0.4887 -1.9611
    3MOL0     C  282  10.161   6.067   2.150 -0.0012 -0.2837  0.2994
    3MOL0     C  283  10.310   6.118   2.142 -0.7394  0.4630  0.0002
    3MOL0     C  284  10.380   6.121   2.269 -0.5912  1.0461 -0.9508
    3MOL0     C  285  10.424   5.978   2.311 -0.3254 -0.2925 -0.0429
    3MOL0     C  286  10.574   5.948   2.282 -0.2253 -0.5900  0.9082
    3MOL0     N  287  10.665   5.975   2.401 -0.0167 -1.2708  0.6525
    3MOL0     C  288  10.759   5.891   2.442  0.5132  0.1002 -0.5788
    3MOL0     C  289  10.825   5.948   2.537 -0.2521 -0.4665 -0.2614
    3MOL0     C  290  10.913   5.873   2.637 -0.5040  0.3813  0.7023
    3MOL0     C  291  11.046   5.857   2.567  0.2597  0.6957  0.3813
    3MOL0     C  292  11.143   5.754   2.634 -0.8045 -0.2522 -0.4901
    3MOL0     C  293  11.238   5.677   2.535 -0.5012  0.3352  0.0652
    3MOL0     O  294  11.328   5.769   2.472 -0.6007 -0.2690  0.2049
    3MOL0     C  295  11.444   5.712   2.409  1.1627 -0.2031 -0.5610
    3MOL0     C  296  11.424   5.626   2.296 -0.0730 -0.1349 -0.4661
    3MOL0     C  297  11.543   5.567   2.244 -0.6654 -0.3495  0.5795
    3MOL0     C  298  11.670   5.585   2.296  0.0781 -0.2588 -1.2673
    3MOL0     C  299  11.795   5.523   2.242 -0.8182 -0.3289  1.2755
    3MOL0     O  300  11.906   5.541   2.311 -0.1094 -0.6915 -0.1217
    3MOL0     C  301  12.021   5.519   2.243 -0.7092  1.3347 -0.3747
    3MOL0     C  302  12.054   5.388   2.203 -0.5101 -0.5206 -0.0766
    3MOL0     C  303  12.180   5.356   2.157 -1.2524  0.0875  0.2604
    3MOL0     C  304  12.271   5.453   2.135 -0.0807  0.3179  0.1657
    3MOL0     O  305  12.392   5.432   2.077 -0.2365 -0.5271  0.6376
    3MOL0     C  306  12.407   5.312   1.995 -0.1459 -0.6188 -0.3947
    3MOL0     C  307  12.553   5.317   1.952 -0.0398  0.0278  0.0239
    3MOL0     C  308  12.591   5.189   1.885 -0.2239  1.1178  0.7214
    3MOL0     C  309  12.741   5.178   1.866  0.2587  0.3665 -0.3025
    3MOL0     C  310  12.760   5.034   1.823 -0.2635 -0.3946  0.4772
    3MOL0     C  311  12.900   5.023   1.773  0.1715  0.6387 -0.4278
    3MOL0     C  312  12.921   4.876   1.734  0.6147  0.4240  0.8036
    3MOL0     C  313  12.964   4.796   1.862 -0.1697 -0.0367 -1.0117
    3MOL0    Cl  314  13.009   4.630   1.818  0.0161 -0.4086  0.4795
    3MOL0     C  315  12.244   5.578   2.180  0.3883 -0.5591  0.2245
    3MOL0     C  316  12.116   5.614   2.229 -0.9841 -0.2288 -1.4690
    3MOL0     O  317  11.786   5.467   2.129 -0.0999 -0.8861 -0.5272
    3MOL0     C  318  11.687   5.671   2.403  0.7543 -0.5047  0.9536
    3MOL0     C  319  11.571   5.730   2.462 -0.4009 -0.8016  0.6518
    3MOL0     N  320  10.767   6.069   2.565  0.3759  0.3868  1.1395
    3MOL0     N  321  10.670   6.085   2.480 -0.8139 -0.1807  0.1605
    3MOL0     C  322   9.736   5.968   1.667  0.0961 -0.3068 -0.2824
    3MOL0     C  323   9.626   5.946   1.585  0.4328  0.7072  0.3394
    3MOL0     C  324   9.304   5.916   1.287 -1.0370  0.6187 -0.5259
    3MOL0     C  325   9.181   5.927   1.350 -0.0869 -0.5778 -0.3745
    3MOL0     C  326   9.060   5.891   1.288 -0.8109 -0.3546 -0.7532
    3MOL0     C  327   9.058   5.832   1.164  0.3275  0.5485  0.8189
    3MOL0     O  328   8.945   5.801   1.092 -0.7281  0.0957 -0.1190
    3MOL0     C  329   8.822   5.812   1.169  0.3698 -0.3261  1.0015
    3MOL0     C  330   8.715   5.751   1.082  0.4033  0.6635  0.3694
    3MOL0     C  331   8.755   5.623   1.019 -0.0993  0.2622  0.2042
    3MOL0     C  332   8.694   5.506   1.094  0.0771 -0.3910  0.0183
    3MOL0     C  333   8.772   5.375   1.067  0.7154 -0.4477 -0.1907
    3MOL0     C  334   8.825   5.266   1.053  0.5758 -0.1679  0.4335
    3MOL0     C  335   9.184   5.801   1.109 -0.2494  0.0993 -0.4923
    3MOL0     C  336   9.311   5.845   1.162  0.2486 -0.2205  0.3026
    3MOL0     C  337   9.431   5.797   1.085  0.1765  0.3206  0.8414
    3MOL0     H  338   9.459   6.237   1.637  0.5561 -0.3940 -1.4046
    3MOL0     H  339   9.637   6.285   1.769 -1.4245  0.6510 -0.7727
    3MOL0     H  340   9.777   5.974   1.948  0.3278 -0.0775  1.4407
    3MOL0     H  341   9.926   5.944   1.856  0.8768 -0.4022  0.2381
    3MOL0     H  342   9.919   5.997   2.132  0.3355  3.1756  2.1175
    3MOL0     H  343   9.896   6.155   2.068  1.5837  0.2370  1.3318
    3MOL0     H  344  10.106   6.174   1.964 -1.7549  0.5775 -0.4347
    3MOL0     H  345  10.129   5.995   1.942 -0.6400 -3.5595  0.7383
    3MOL0     H  346  10.103   6.128   2.220 -0.8017 -0.4610 -0.2123
    3MOL0     H  347  10.157   5.966   2.192 -1.2654 -0.2371  0.3280
    3MOL0     H  348  10.365   6.061   2.066 -1.8794 -0.1138 -0.4251
    3MOL0     H  349  10.302   6.222   2.110  0.3710  1.5279  2.8255
    3MOL0     H  350  10.471   6.182   2.269 -0.1327  0.3793  0.1591
    3MOL0     H  351  10.307   6.152   2.344 -1.6688 -2.4702 -0.3863
    3MOL0     H  352  10.357   5.905   2.264 -4.0336  2.1958  0.9643
    3MOL0     H  353  10.400   5.970   2.417 -1.0415  3.0892  0.1549
    3MOL0     H  354  10.583   5.843   2.253 -0.6109 -0.5187  0.5278
    3MOL0     H  355  10.606   6.008   2.197 -0.0163 -0.1920  1.2646
    3MOL0     H  356  10.782   5.790   2.410 -1.4594 -1.3025  2.0803
    3MOL0     H  357  10.924   5.928   2.731  1.5318  0.4256  0.4906
    3MOL0     H  358  10.865   5.777   2.660  0.9763 -0.1110  1.9344
    3MOL0     H  359  11.032   5.823   2.464  0.9034  0.4112  0.3802
    3MOL0     H  360  11.094   5.955   2.567 -0.2894  1.0247 -2.2608
    3MOL0     H  361  11.085   5.683   2.693  0.1288  0.8109  1.8213
    3MOL0     H  362  11.203   5.803   2.711 -0.0333 -0.0437 -1.2099
    3MOL0     H  363  11.177   5.625   2.461  0.9469 -1.1933 -0.1046
    3MOL0     H  364  11.301   5.601   2.582  0.2318  1.3512  0.7816
    3MOL0     H  365  11.326   5.614   2.253  1.0362 -2.3389 -2.6336
    3MOL0     H  366  11.546   5.503   2.157  4.8829 -1.1272  0.9647
    3MOL0     H  367  11.974   5.316   2.214 -0.0412 -0.7679  2.4094
    3MOL0     H  368  12.200   5.255   2.125 -3.0569 -1.1607  2.7258
    3MOL0     H  369  12.393   5.222   2.056  2.1792 -1.3477 -0.8253
    3MOL0     H  370  12.344   5.304   1.907  1.5919 -0.5831 -1.7011
    3MOL0     H  371  12.575   5.406   1.892 -1.7870  1.1331  0.9587
    3MOL0     H  372  12.610   5.320   2.045  1.7555 -5.7489 -0.4693
    3MOL0     H  373  12.551   5.109   1.949 -0.7749  1.6267  1.0263
    3MOL0     H  374  12.549   5.179   1.784 -1.1015 -1.6255  1.2562
    3MOL0     H  375  12.796   5.197   1.959  0.0722  6.2539 -0.9792
    3MOL0     H  376  12.776   5.250   1.792 -0.2493 -0.7182 -1.6264
    3MOL0     H  377  12.693   5.014   1.740 -0.2048  0.6926  0.1658
    3MOL0     H  378  12.740   4.974   1.913  1.2174 -1.3941  0.1881
    3MOL0     H  379  12.928   5.081   1.684 -0.5252  0.5569 -0.7092
    3MOL0     H  380  12.978   5.047   1.846  0.8834 -2.0961 -0.1906
    3MOL0     H  381  13.001   4.876   1.660  0.6775 -1.1197  0.8415
    3MOL0     H  382  12.836   4.819   1.696  1.5490 -1.3063  1.2045
    3MOL0     H  383  13.049   4.848   1.908 -1.8714  0.4455  1.8043
    3MOL0     H  384  12.885   4.794   1.937 -0.1740  2.6818 -0.8459
    3MOL0     H  385  12.310   5.663   2.161  0.1442 -0.3370  0.3681
    3MOL0     H  386  12.076   5.707   2.267  0.3244  0.8936 -2.7665
    3MOL0     H  387  11.787   5.676   2.446  1.3795  1.0585 -0.5795
    3MOL0     H  388  11.572   5.810   2.535  0.4258 -1.0651  0.9418
    3MOL0     H  389   9.810   5.890   1.681 -3.5484 -3.7591  1.7093
    3MOL0     H  390   9.621   5.859   1.520  0.6309 -1.8413  3.4532
    3MOL0     H  391   9.180   5.970   1.450 -1.7740 -3.0813  0.7692
    3MOL0     H  392   8.969   5.922   1.339 -1.9364  2.7799 -4.2380
    3MOL0     H  393   8.799   5.919   1.172  0.9557 -0.1242 -0.6063
    3MOL0     H  394   8.830   5.762   1.266  0.4988 -2.5624 -0.1138
    3MOL0     H  395   8.698   5.817   0.997  1.4250  1.4435  0.7438
    3MOL0     H  396   8.621   5.741   1.136 -0.1751 -0.0758 -0.7423
    3MOL0     H  397   8.863   5.605   1.012 -0.0235 -0.0604  1.9258
    3MOL0     H  398   8.710   5.631   0.919  2.3964  2.6870 -0.8703
    3MOL0     H  399   8.700   5.523   1.202 -3.9682  0.0228  0.3304
    3MOL0     H  400   8.585   5.508   1.077 -0.6221  4.8708  3.0600
    3MOL0     H  401   8.883   5.182   1.021  0.8599  0.9278 -2.1928
    3MOL0     H  402   9.164   5.743   1.020 -2.7107  0.8588 -0.5009
    3MOL0     H  403   9.499   5.749   1.157  2.5863  2.0526 -0.1095
    3MOL0     H  404   9.407   5.741   0.995  1.9145  0.8275  0.0087
    3MOL0     H  405   9.481   5.885   1.043 -0.2722  1.2663  2.2300
    4MOL0     O  406  10.850   0.229   9.184  0.8892 -0.1516  0.1946
    4MOL0     C  407  10.818   0.200   9.064 -0.4838  0.3135 -0.8122
    4MOL0     O  408  10.900   0.181   8.959 -0.6802  0.7338 -0.2191
    4MOL0     C  409  11.026   0.131   8.981  0.3152  0.5146 -0.5643
    4MOL0     C  410  11.128   0.180   8.900  0.9331  0.8895  0.4523
    4MOL0     C  411  11.260   0.159   8.938  0.0133  0.2120 -0.3888
    4MOL0     C  412  11.288   0.071   9.050  0.8028  0.0557  0.2670
    4MOL0     O  413  11.415   0.032   9.078 -0.2982 -0.6526  0.5872
    4MOL0     C  414  11.473  -0.077   9.010  0.4366  0.1659  0.0398
    4MOL0     C  415  11.625  -0.090   9.043  0.8035 -0.0793  0.3705
    4MOL0     C  416  11.684  -0.217   8.971 -0.5365 -0.0406 -0.8024
    4MOL0     C  417  11.836  -0.236   9.000 -0.0232  0.0773  0.4830
    4MOL0     C  418  11.913  -0.335   8.907  0.1344 -0.1141  0.3166
    4MOL0     C  419  12.043  -0.380   8.966  0.2902 -0.3690 -0.0617
    4MOL0     C  420  12.153  -0.276   8.988 -0.2319  0.0063 -0.5245
    4MOL0     C  421  12.236  -0.312   9.116  0.5033 -0.3411 -0.2156
    4MOL0     N  422  12.157  -0.273   9.229  0.3049 -0.1308 -0.6881
    4MOL0     C  423  12.153  -0.157   9.303  0.3229 -0.4694 -0.2404
    4MOL0     C  424  12.103  -0.192   9.426 -0.4722  0.4609  0.3790
    4MOL0     C  425  12.086  -0.108   9.549  0.5726 -1.0884 -0.1830
    4MOL0     C  426  12.212  -0.088   9.644 -0.0625  1.4623  0.4086
    4MOL0     C  427  12.167  -0.021   9.768 -0.0334  0.1388 -0.4693
    4MOL0     C  428  12.281   0.009   9.882  0.7809 -0.8821  0.1514
    4MOL0     O  429  12.321  -0.116   9.936 -0.4938  0.3223  0.8376
    4MOL0     C  430  12.452  -0.137   9.983 -0.5812 -1.1896 -0.1038
    4MOL0     C  431  12.485  -0.267  10.027 -0.5823 -0.2984 -0.2434
    4MOL0     C  432  12.612  -0.292  10.086  0.5794 -0.3691 -0.3427
    4MOL0     C  433  12.703  -0.191  10.112  0.9955 -1.2917 -0.7929
    4MOL0     C  434  12.821  -0.217  10.181 -0.0808  0.5821  0.0005
    4MOL0     O  435  12.856  -0.358  10.198  0.1970 -0.8465 -0.3589
    4MOL0     C  436  12.942  -0.405  10.296  0.2488  0.9557  0.3008
    4MOL0     C  437  12.922  -0.532  10.339  0.6356 -0.7135  0.6227
    4MOL0     C  438  13.013  -0.593  10.432  0.2921  0.3222 -0.3910
    4MOL0     C  439  13.126  -0.529  10.479 -0.3896  0.0602 -0.0610
    4MOL0     O  440  13.211  -0.585  10.571 -0.0172 -0.6164 -0.2010
    4MOL0     C  441  13.158  -0.582  10.693  0.4934 -0.1838 -1.0066
    4MOL0     C  442  13.267  -0.608  10.798 -0.0358  0.0304 -0.3839
    4MOL0     C  443  13.353  -0.728  10.767  0.3696  0.3765 -0.0443
    4MOL0     C  444  13.467  -0.751  10.869 -0.4308 -0.2986 -0.0264
    4MOL0     C  445  13.564  -0.859  10.821  0.3158  0.3018  0.8832
    4MOL0     C  446  13.682  -0.884  10.916  0.0749 -0.6917 -0.5068
    4MOL0     C  447  13.772  -0.999  10.891  0.3956  0.2296 -1.0997
    4MOL0     C  448  13.872  -1.018  10.996  0.3354 -0.0345  0.4392
    4MOL0    Cl  449  14.028  -0.971  10.943  0.4708 -0.3156 -0.1734
    4MOL0     C  450  13.147  -0.397  10.438  1.0842  0.6163 -0.3950
    4MOL0     C  451  13.055  -0.336  10.354  1.3104  0.2681 -0.2578
    4MOL0     O  452  12.897  -0.124  10.212 -0.0276 -1.4840 -0.3667
    4MOL0     C  453  12.669  -0.057  10.077  0.4910 -0.4930 -0.3319
    4MOL0     C  454  12.543  -0.030  10.009 -0.3285  0.5783 -0.9615
    4MOL0     N  455  12.078  -0.329   9.419 -0.2645 -0.7098 -0.4659
    4MOL0     N  456  12.100  -0.369   9.299  0.0724  0.5414 -0.5608
    4MOL0     C  457  11.184   0.023   9.132 -0.8834 -0.3724  0.2965
    4MOL0     C  458  11.053   0.052   9.096 -0.3411  0.2604 -0.5144
    4MOL0     C  459  10.673   0.195   9.030  0.1543 -0.9648 -0.1770
    4MOL0     C  460  10.599   0.315   9.036 -1.0867  0.3583  0.4020
    4MOL0     C  461  10.473   0.318   8.970 -0.6139 -0.0352 -0.4523
    4MOL0     C  462  10.421   0.215   8.894  0.2450 -0.5947 -0.2716
    4MOL0     O  463  10.303   0.217   8.821 -0.0562 -1.1666  0.6351
    4MOL0     C  464  10.215   0.337   8.809 -0.2821  0.3650 -0.3231
    4MOL0     C  465  10.260   0.446   8.714  0.0873  0.8132 -0.2882
    4MOL0     C  466  10.183   0.576   8.733 -0.3756 -0.3929  0.1967
    4MOL0     C  467  10.235   0.675   8.625 -0.2341 -0.5340 -0.0955
    4MOL0     C  468  10.178   0.807   8.630  1.0552  0.1514 -0.9110
    4MOL0     C  469  10.140   0.926   8.646  0.1816  1.1414  0.0409
    4MOL0     C  470  10.500   0.102   8.890  1.3322 -0.7617  0.3318
    4MOL0     C  471  10.619   0.085   8.958 -0.0487 -0.5749 -0.4298
    4MOL0     C  472  10.692  -0.036   8.922 -0.4758 -0.4923 -0.5455
    4MOL0     H  473  11.107   0.246   8.816 -1.6254  1.7847  1.6993
    4MOL0     H  474  11.342   0.216   8.895 -0.4743  2.5018  1.4934
    4MOL0     H  475  11.429  -0.171   9.045 -0.4797  1.1349  1.6117
    4MOL0     H  476  11.465  -0.056   8.903 -1.0323  1.2163  0.3291
    4MOL0     H  477  11.636  -0.093   9.152 -1.2063  1.1075  0.6736
    4MOL0     H  478  11.676  -0.004   9.000 -0.6708  0.3461 -0.6404
    4MOL0     H  479  11.671  -0.211   8.863  1.2607  0.4156 -1.0245
    4MOL0     H  480  11.626  -0.304   9.003 -0.0222 -0.3878 -0.7975
    4MOL0     H  481  11.888  -0.140   8.988 -1.0476  0.5424 -0.5303
    4MOL0     H  482  11.846  -0.265   9.105  0.1194 -0.4864  0.3123
    4MOL0     H  483  11.861  -0.427   8.882  3.3180 -0.8738 -5.2026
    4MOL0     H  484  11.939  -0.289   8.811  3.1414  0.7895  1.4431
    4MOL0     H  485  12.025  -0.433   9.060 -0.9768  1.6315  0.9029
    4MOL0     H  486  12.076  -0.444   8.884 -0.4156  1.5238 -1.9084
    4MOL0     H  487  12.121  -0.172   9.000 -6.0134 -1.4764  0.0784
    4MOL0     H  488  12.223  -0.267   8.905 -1.6063  3.8270 -1.5219
    4MOL0     H  489  12.257  -0.419   9.113 -3.5268 -1.3714  1.7730
    4MOL0     H  490  12.332  -0.259   9.121  0.5580 -0.1645 -2.3053
    4MOL0     H  491  12.183  -0.055   9.279 -1.7115  0.0760 -0.7115
    4MOL0     H  492  12.054  -0.010   9.513  2.2838  0.6308  2.5934
    4MOL0     H  493  11.999  -0.141   9.607 -0.3699  0.1418 -0.8215
    4MOL0     H  494  12.267  -0.177   9.676 -2.0844 -0.0580 -0.1846
    4MOL0     H  495  12.273  -0.023   9.580 -2.3582  2.8092 -0.5129
    4MOL0     H  496  12.086  -0.080   9.813 -1.1135  0.7084 -1.6192
    4MOL0     H  497  12.125   0.078   9.749  0.3785  0.6893  1.2809
    4MOL0     H  498  12.247   0.066   9.970  2.6613 -1.5576  1.3849
    4MOL0     H  499  12.365   0.060   9.833  0.0890 -0.4067 -0.5532
    4MOL0     H  500  12.434  -0.361  10.007  0.1999 -1.2708  1.9642
    4MOL0     H  501  12.624  -0.396  10.114 -2.1881 -0.5342  0.4338
    4MOL0     H  502  12.846  -0.592  10.289 -1.7039  2.1867  0.4157
    4MOL0     H  503  12.992  -0.696  10.458  0.8408  0.6650  1.4828
    4MOL0     H  504  13.111  -0.486  10.719  2.6664  0.7950 -0.4323
    4MOL0     H  505  13.085  -0.662  10.705  0.4024  0.2705  3.2992
    4MOL0     H  506  13.331  -0.520  10.793 -0.5990  0.4068 -1.3674
    4MOL0     H  507  13.215  -0.606  10.895 -4.2203  3.4482 -2.3378
    4MOL0     H  508  13.293  -0.819  10.767  0.6959  0.1613  0.2710
    4MOL0     H  509  13.396  -0.722  10.666 -0.3739 -2.2190 -0.5897
    4MOL0     H  510  13.421  -0.780  10.964 -0.2632  0.1968  0.2095
    4MOL0     H  511  13.527  -0.660  10.885 -0.2839 -0.1460 -1.3271
    4MOL0     H  512  13.610  -0.835  10.725  2.3901  0.7526  1.9407
    4MOL0     H  513  13.496  -0.944  10.812 -1.6236  1.9945 -3.1731
    4MOL0     H  514  13.740  -0.792  10.902  1.4789 -0.9013  3.0500
    4MOL0     H  515  13.639  -0.875  11.016  2.5149 -0.0356  0.5515
    4MOL0     H  516  13.822  -0.984  10.794 -0.1965 -2.8313 -2.0064
    4MOL0     H  517  13.705  -1.086  10.883 -1.2754  1.5900 -2.6731
    4MOL0     H  518  13.847  -0.964  11.088  0.9978 -0.6589  1.0022
    4MOL0     H  519  13.857  -1.124  11.019 -1.4781  0.6702  2.9239
    4MOL0     H  520  13.231  -0.347  10.484  0.2342  1.3493  0.4198
    4MOL0     H  521  13.074  -0.231  10.334  0.3283  0.5552  0.2611
    4MOL0     H  522  12.726   0.032  10.101 -0.8490  0.1136  0.7616
    4MOL0     H  523  12.522   0.074   9.987 -0.1937  0.9292  0.4609
    4MOL0     H  524  11.189  -0.032   9.226 -0.2874  1.6290  1.5116
    4MOL0     H  525  10.980   0.008   9.163 -1.4963 -1.2943 -2.6594
    4MOL0     H  526  10.628   0.402   9.094  1.0143 -1.4058  2.1974
    4MOL0     H  527  10.419   0.411   8.983  0.2480  0.3057  0.8415
    4MOL0     H  528  10.215   0.388   8.906  0.7339  0.6180 -0.4411
    4MOL0     H  529  10.114   0.303   8.785  0.1373 -0.6854 -0.6366
    4MOL0     H  530  10.235   0.401   8.617 -0.9744 -1.0994  0.8147
    4MOL0     H  531  10.365   0.459   8.741  0.0564  0.2732  0.0967
    4MOL0     H  532  10.202   0.594   8.839  0.9915 -2.2921  0.3295
    4MOL0     H  533  10.075   0.571   8.718 -0.2102  0.2106 -1.4064
    4MOL0     H  534  10.342   0.683   8.646 -0.8323 -1.7652  4.4991
    4MOL0     H  535  10.212   0.628   8.529 -2.6810 -0.4537  0.3880
    4MOL0     H  536  10.131   1.028   8.678  1.6695  1.2533  0.1956
    4MOL0     H  537  10.470   0.026   8.819  2.4592 -0.7658 -0.1665
    4MOL0     H  538  10.758  -0.019   8.837 -2.4353  0.0615 -2.0405
    4MOL0     H  539  10.758  -0.069   9.002 -1.0981 -1.2626 -0.3300
    4MOL0     H  540  10.630  -0.117   8.883  0.7198 -0.7575 -1.9988
    5MOL0     O  541   3.983  10.840   4.411  0.6668  0.0390  0.1478
    5MOL0     C  542   3.942  10.957   4.390 -0.3199  0.1004  0.2873
    5MOL0     O  543   3.952  11.020   4.275 -0.3416  0.1893  0.3039
    5MOL0     C  544   4.042  10.955   4.189  0.7470 -0.6096 -0.7538
    5MOL0     C  545   4.176  10.974   4.217 -0.2544 -0.1891  1.0467
    5MOL0     C  546   4.273  10.918   4.128  0.4776 -0.2664  0.4885
    5MOL0     C  547   4.229  10.851   4.020 -0.5915 -0.2178  0.1969
    5MOL0     O  548   4.316  10.802   3.933  0.4819 -0.2027  1.2217
    5MOL0     C  549   4.410  10.893   3.874  0.2968  0.1265 -0.8005
    5MOL0     C  550   4.471  10.822   3.754 -0.8621 -0.4895 -0.0576
    5MOL0     C  551   4.623  10.793   3.785  0.2885  0.0797  0.2308
    5MOL0     C  552   4.633  10.677   3.892 -0.2432  0.7355  0.6354
    5MOL0     C  553   4.779  10.630   3.903  0.1406 -0.2322  0.3171
    5MOL0     C  554   4.798  10.513   4.015 -0.7286 -0.4988  0.3681
    5MOL0     C  555   4.948  10.494   4.060 -0.3815 -0.6477 -0.8700
    5MOL0     C  556   4.983  10.618   4.151 -0.3208 -0.1742  0.2167
    5MOL0     N  557   5.132  10.613   4.190  0.3971  1.0091 -0.0814
    5MOL0     C  558   5.180  10.707   4.275 -0.1059  0.2682  0.4941
    5MOL0     C  559   5.322  10.681   4.276 -0.3426 -0.6538 -0.2913
    5MOL0     C  560   5.438  10.770   4.334 -0.3994 -0.4858 -0.1920
    5MOL0     C  561   5.380  10.872   4.432 -0.4189 -0.5558 -0.7640
    5MOL0     C  562   5.468  10.998   4.457 -0.3921  0.3598  0.2158
    5MOL0     C  563   5.450  11.107   4.346 -0.1487  0.6741  0.5521
    5MOL0     O  564   5.314  11.161   4.334  0.0507  0.6214 -0.1550
    5MOL0     C  565   5.283  11.287   4.279  0.5073  0.3032 -0.0114
    5MOL0     C  566   5.377  11.395   4.248  1.4001  0.3609 -0.2304
    5MOL0     C  567   5.330  11.516   4.197  0.7676 -0.2318  0.3290
    5MOL0     C  568   5.197  11.532   4.178  0.4693  0.5325 -0.1956
    5MOL0     C  569   5.140  11.663   4.117  0.5184 -0.4747 -0.3624
    5MOL0     O  570   5.005  11.667   4.108 -0.2681 -0.3218 -0.1612
    5MOL0     C  571   4.947  11.785   4.078  0.0200  0.3058 -0.5572
    5MOL0     C  572   4.819  11.777   4.018  0.1974 -1.0838 -0.8696
    5MOL0     C  573   4.741  11.893   4.014 -1.0003 -0.3961 -0.7511
    5MOL0     C  574   4.785  12.015   4.075 -0.2479 -0.5186 -0.4373
    5MOL0     O  575   4.718  12.133   4.078  0.2074 -0.3569 -0.3914
    5MOL0     C  576   4.586  12.122   4.144 -1.0848  0.3181  1.6202
    5MOL0     C  577   4.480  12.187   4.060 -0.0900  0.0102  0.1503
    5MOL0     C  578   4.339  12.166   4.126  0.5329  0.9622  0.4571
    5MOL0     C  579   4.332  12.237   4.256  0.0912 -0.2921  0.8595
    5MOL0     C  580   4.185  12.223   4.291  0.2140 -0.3890 -0.1340
    5MOL0     C  581   4.166  12.281   4.431  0.9295  0.0626  0.1405
    5MOL0     C  582   4.018  12.280   4.475 -0.1183 -0.1641  0.2026
    5MOL0     C  583   3.958  12.152   4.539 -0.0626 -0.6330  0.2561
    5MOL0    Cl  584   3.779  12.163   4.513 -0.0688  0.6991 -0.3883
    5MOL0     C  585   4.914  12.021   4.132 -0.3453  1.0634 -1.0953
    5MOL0     C  586   4.993  11.901   4.140  0.8697  0.2642  0.6642
    5MOL0     O  587   5.221  11.756   4.093  0.5749  0.5386  0.8310
    5MOL0     C  588   5.107  11.437   4.229  0.1618 -0.6530 -0.4677
    5MOL0     C  589   5.151  11.318   4.276 -0.0054  0.3295 -0.9337
    5MOL0     N  590   5.344  10.566   4.202  0.0157 -0.4142  1.0455
    5MOL0     N  591   5.228  10.527   4.147 -0.0117 -0.4891 -0.0798
    5MOL0     C  592   4.100  10.836   3.991 -0.3155  0.3700 -0.6367
    5MOL0     C  593   4.000  10.889   4.071 -0.4130 -0.4629 -0.6605
    5MOL0     C  594   3.866  11.041   4.493  0.2088 -0.0197  0.0419
    5MOL0     C  595   3.854  10.987   4.622 -0.2679 -0.7394  0.3611
    5MOL0     C  596   3.798  11.061   4.723  0.6302  0.8805 -0.3551
    5MOL0     C  597   3.749  11.184   4.701  0.3305  0.1060  1.0997
    5MOL0     O  598   3.689  11.253   4.807 -0.2735  0.0806  0.1442
    5MOL0     C  599   3.724  11.391   4.833 -0.0387  0.5688 -0.1960
    5MOL0     C  600   3.645  11.440   4.963  0.3580  0.2813  0.1376
    5MOL0     C  601   3.656  11.350   5.075  1.1014 -0.0273 -0.0983
    5MOL0     C  602   3.601  11.403   5.204  0.0154 -1.3663 -0.0887
    5MOL0     C  603   3.476  11.484   5.203  0.3430  0.2203 -0.2682
    5MOL0     C  604   3.364  11.539   5.197 -0.2571  0.2729  0.2432
    5MOL0     C  605   3.765  11.244   4.575  0.8358  0.1199 -0.3057
    5MOL0     C  606   3.813  11.175   4.464  0.3148 -0.0397 -0.7793
    5MOL0     C  607   3.810  11.244   4.333  0.1464  0.3724 -0.1293
    5MOL0     H  608   4.203  11.023   4.310 -0.6832  0.2670  0.9377
    5MOL0     H  609   4.379  10.924   4.152  0.3598  1.4206  0.6816
    5MOL0     H  610   4.353  10.978   3.834  1.6003  1.4976  0.1539
    5MOL0     H  611   4.481  10.934   3.946 -0.6246  1.3259 -0.5368
    5MOL0     H  612   4.459  10.889   3.669  1.3601 -1.5787 -1.3028
    5MOL0     H  613   4.422  10.732   3.716 -0.3431 -0.5301 -0.6529
    5MOL0     H  614   4.680  10.882   3.812  1.3131  0.0600 -1.6535
    5MOL0     H  615   4.669  10.763   3.690 -0.1397  2.7954 -0.9302
    5MOL0     H  616   4.601  10.707   3.992 -0.7146  1.7865  0.1780
    5MOL0     H  617   4.569  10.598   3.852 -1.8962  1.3106  2.0474
    5MOL0     H  618   4.827  10.611   3.806  1.7991  4.4084 -0.0184
    5MOL0     H  619   4.833  10.719   3.937 -1.1109  0.1869  1.2689
    5MOL0     H  620   4.737  10.527   4.105 -2.1531  2.2549 -0.9175
    5MOL0     H  621   4.749  10.425   3.972 -2.2345  0.9914 -1.0940
    5MOL0     H  622   5.019  10.494   3.977  0.1616  2.4195 -0.5089
    5MOL0     H  623   4.958  10.403   4.120  0.2052 -1.4579 -2.1545
    5MOL0     H  624   4.962  10.710   4.096 -1.3225 -1.3756 -1.5336
    5MOL0     H  625   4.916  10.625   4.237 -0.1530  0.8941  0.2699
    5MOL0     H  626   5.126  10.791   4.318 -0.4298  0.0977  0.4295
    5MOL0     H  627   5.511  10.706   4.386  0.5130  2.1012  1.9321
    5MOL0     H  628   5.494  10.816   4.252  1.3414 -0.5914  0.8744
    5MOL0     H  629   5.283  10.918   4.411  0.1659  1.5587  0.8655
    5MOL0     H  630   5.365  10.821   4.528  2.0182 -1.5429 -0.8464
    5MOL0     H  631   5.574  10.971   4.466 -0.9404 -1.7839  0.9172
    5MOL0     H  632   5.441  11.046   4.551 -1.4738  4.1921 -1.8480
    5MOL0     H  633   5.492  11.068   4.253  1.8360  3.0054  0.3886
    5MOL0     H  634   5.506  11.196   4.376 -2.0513  2.1940 -0.1954
    5MOL0     H  635   5.484  11.376   4.258  0.8138 -3.1722  0.4678
    5MOL0     H  636   5.404  11.589   4.167 -0.5666 -0.2813 -3.6233
    5MOL0     H  637   4.784  11.680   3.983  0.2789 -1.8337  0.9749
    5MOL0     H  638   4.641  11.893   3.973 -0.9343 -1.7870 -0.9361
    5MOL0     H  639   4.563  12.016   4.155  1.1765 -0.2103  1.7449
    5MOL0     H  640   4.596  12.171   4.241  2.0030 -0.3372  1.7523
    5MOL0     H  641   4.497  12.294   4.051  1.2889  0.0176  2.2682
    5MOL0     H  642   4.492  12.143   3.960  2.9811 -0.9148  0.8340
    5MOL0     H  643   4.265  12.216   4.063 -0.5422 -0.4805  0.5131
    5MOL0     H  644   4.314  12.060   4.119  0.2962  1.1416 -2.6946
    5MOL0     H  645   4.356  12.342   4.237  3.5238 -1.5321 -3.0760
    5MOL0     H  646   4.407  12.201   4.327  1.6739  1.1798  0.0062
    5MOL0     H  647   4.158  12.116   4.290 -1.0576 -0.1343  1.4556
    5MOL0     H  648   4.119  12.281   4.226 -1.1571 -0.5839  1.0200
    5MOL0     H  649   4.225  12.226   4.505 -1.4160  0.6821  2.6813
    5MOL0     H  650   4.202  12.383   4.443  0.0459  0.2986  0.9782
    5MOL0     H  651   3.954  12.311   4.392 -0.1446 -1.4946 -0.2938
    5MOL0     H  652   4.004  12.353   4.555  0.6922 -1.0449  1.1715
    5MOL0     H  653   4.010  12.062   4.503  3.4211  1.5760 -0.7038
    5MOL0     H  654   3.986  12.151   4.645  3.0532  1.2107 -0.4415
    5MOL0     H  655   4.950  12.108   4.185 -0.9999  1.3608 -1.1267
    5MOL0     H  656   5.086  11.903   4.195  0.0828  0.1705  2.0249
    5MOL0     H  657   4.999  11.446   4.224  0.0678 -1.3992  0.0510
    5MOL0     H  658   5.090  11.234   4.306  0.6694 -0.2806 -1.2123
    5MOL0     H  659   4.078  10.789   3.896  0.3071  0.9920 -1.0996
    5MOL0     H  660   3.895  10.878   4.047  0.1909 -1.2155 -3.2930
    5MOL0     H  661   3.903  10.896   4.656  1.1424 -1.4545 -3.1481
    5MOL0     H  662   3.798  11.017   4.822  1.3544 -0.4168 -0.8993
    5MOL0     H  663   3.699  11.453   4.747  0.0849 -0.4815 -1.0068
    5MOL0     H  664   3.830  11.407   4.854  0.1822 -0.7539 -0.2233
    5MOL0     H  665   3.543  11.449   4.923 -0.1893  0.4621  1.5299
    5MOL0     H  666   3.673  11.544   4.979  1.7617  0.0034 -0.3589
    5MOL0     H  667   3.758  11.319   5.099  0.2363 -2.3283  0.8479
    5MOL0     H  668   3.618  11.249   5.057  0.4491  0.5828 -2.4257
    5MOL0     H  669   3.599  11.327   5.283  0.4436 -2.1386 -0.7984
    5MOL0     H  670   3.682  11.470   5.235  0.5812 -2.3617  0.6579
    5MOL0     H  671   3.270  11.588   5.185 -0.7049 -0.2999  1.2457
    5MOL0     H  672   3.706  11.334   4.561 -1.6797 -1.6314 -1.9482
    5MOL0     H  673   3.760  11.342   4.341 -0.1710  0.1543  0.6414
    5MOL0     H  674   3.914  11.259   4.304  0.5850  1.8911  1.9542
    5MOL0     H  675   3.758  11.187   4.257  0.1977  0.1690 -0.0112
    6MOL0     O  676   0.916   6.916   0.095 -0.3373 -0.5012 -0.0297
    6MOL0     C  677   0.938   6.916  -0.028  0.1029  0.0889  0.0775
    6MOL0     O  678   1.065   6.897  -0.086  0.1908 -0.0994  0.4758
    6MOL0     C  679   1.180   6.878  -0.020  0.2683  0.8255  0.2941
    6MOL0     C  680   1.281   6.822  -0.095  1.3161  0.4419 -0.7767
    6MOL0     C  681   1.416   6.824  -0.040  0.4773 -0.8332  0.9854
    6MOL0     C  682   1.435   6.866   0.098 -0.5359 -0.2008  0.1661
    6MOL0     O  683   1.561   6.843   0.144 -0.9547 -0.0251 -0.4646
    6MOL0     C  684   1.600   6.869   0.275  0.5322 -0.2351 -0.6106
    6MOL0     C  685   1.742   6.815   0.301  0.3768 -0.3502  0.6431
    6MOL0     C  686   1.848   6.901   0.223 -0.4185 -0.1343 -0.6223
    6MOL0     C  687   1.991   6.880   0.276 -0.4835 -0.1108  0.3102
    6MOL0     C  688   2.096   6.929   0.180  0.5329 -0.1880  0.9375
    6MOL0     C  689   2.099   7.085   0.179 -0.5256 -0.3530  1.1097
    6MOL0     C  690   2.218   7.131   0.107 -0.1231  0.3774 -0.1742
    6MOL0     C  691   2.352   7.107   0.182  0.2405  0.1461  0.5688
    6MOL0     N  692   2.467   7.143   0.091  0.0641 -0.1035 -0.2273
    6MOL0     C  693   2.597   7.111   0.119  0.2034 -0.1601 -0.3484
    6MOL0     C  694   2.679   7.203   0.066 -0.1226 -0.5217 -0.5977
    6MOL0     C  695   2.826   7.201   0.054 -0.6925  0.1471 -0.3669
    6MOL0     C  696   2.906   7.154   0.177  0.2333  0.4888 -0.3324
    6MOL0     C  697   3.033   7.067   0.160 -0.5360 -0.2162  0.4192
    6MOL0     C  698   3.140   7.136   0.078  0.5337  0.6403  0.6660
    6MOL0     O  699   3.097   7.143  -0.070 -0.0723 -0.5284 -0.5084
    6MOL0     C  700   3.199   7.168  -0.159  0.8760  1.0334 -0.3290
    6MOL0     C  701   3.162   7.197  -0.288  0.1138  0.0067  0.4935
    6MOL0     C  702   3.257   7.220  -0.390  0.1485  0.3788  0.0419
    6MOL0     C  703   3.392   7.219  -0.360  0.1042 -1.2192  0.1310
    6MOL0     C  704   3.489   7.236  -0.471  0.0121  0.5630  0.5297
    6MOL0     O  705   3.439   7.279  -0.598 -0.0445  0.3742 -0.5196
    6MOL0     C  706   3.503   7.312  -0.709 -0.9490  0.0007  1.1917
    6MOL0     C  707   3.431   7.335  -0.828 -0.2497  0.2253 -0.0148
    6MOL0     C  708   3.506   7.378  -0.938 -0.2202  1.0695  0.0402
    6MOL0     C  709   3.647   7.390  -0.941  0.1546  0.7105  0.2009
    6MOL0     O  710   3.706   7.432  -1.063 -1.1339 -0.0228  0.4251
    6MOL0     C  711   3.851   7.432  -1.074  0.0743 -0.0299  0.2618
    6MOL0     C  712   3.900   7.512  -1.196  0.3538  0.0395 -0.3070
    6MOL0     C  713   4.053   7.546  -1.195 -0.3390 -0.2847  0.3443
    6MOL0     C  714   4.084   7.669  -1.282  0.3050 -0.1923  0.8220
    6MOL0     C  715   4.225   7.727  -1.284 -1.5216 -0.6125 -1.7789
    6MOL0     C  716   4.257   7.811  -1.163  0.9580  0.0359  0.6249
    6MOL0     C  717   4.394   7.865  -1.184  0.3308 -0.0250  0.2705
    6MOL0     C  718   4.438   7.955  -1.071 -0.2456 -0.2458 -0.8402
    6MOL0    Cl  719   4.568   8.078  -1.135  0.0851 -0.3389 -0.0056
    6MOL0     C  720   3.717   7.356  -0.830 -0.1994  0.4957 -0.0365
    6MOL0     C  721   3.646   7.323  -0.718 -0.7074  0.4926 -0.1053
    6MOL0     O  722   3.610   7.207  -0.449  0.0075  0.2554 -0.2106
    6MOL0     C  723   3.428   7.198  -0.228  0.1745 -0.5591 -0.3019
    6MOL0     C  724   3.334   7.176  -0.128 -0.3339  0.1023 -0.3721
    6MOL0     N  725   2.596   7.305   0.021 -0.4810  0.4666 -0.3991
    6MOL0     N  726   2.474   7.266   0.033 -0.3871  0.3698  0.2145
    6MOL0     C  727   1.331   6.918   0.175  0.6112  0.2268  0.5022
    6MOL0     C  728   1.205   6.918   0.111  0.0526 -0.3037  0.9404
    6MOL0     C  729   0.827   6.912  -0.123 -0.1991 -0.3456 -0.6421
    6MOL0     C  730   0.856   6.871  -0.255  0.5702  0.1005 -0.0587
    6MOL0     C  731   0.757   6.858  -0.353 -0.4452  0.4578 -0.1745
    6MOL0     C  732   0.625   6.896  -0.323  0.5282  0.5147 -0.5833
    6MOL0     O  733   0.520   6.911  -0.411  0.2519  0.1494  0.1782
    6MOL0     C  734   0.539   6.873  -0.553 -0.5156 -0.2346 -0.7907
    6MOL0     C  735   0.418   6.896  -0.643 -0.8636 -0.3397 -0.0707
    6MOL0     C  736   0.310   6.794  -0.614 -0.0158 -0.0575  0.1473
    6MOL0     C  737   0.175   6.821  -0.685  0.6454 -0.9719  0.1031
    6MOL0     C  738   0.066   6.764  -0.605  0.5922  0.0598  0.8051
    6MOL0     C  739  -0.028   6.720  -0.545 -0.0047  0.8869 -0.5720
    6MOL0     C  740   0.597   6.934  -0.193 -0.1241 -1.1272 -0.0212
    6MOL0     C  741   0.695   6.950  -0.091  0.0240 -0.4904  0.6095
    6MOL0     C  742   0.656   6.995   0.040 -0.3318 -0.6856 -0.1762
    6MOL0     H  743   1.260   6.772  -0.189 -2.4193  0.1220  0.0535
    6MOL0     H  744   1.500   6.789  -0.099  0.6483 -1.6684  1.7015
    6MOL0     H  745   1.601   6.977   0.295  0.5822  0.0980 -2.2873
    6MOL0     H  746   1.528   6.825   0.345  0.5297 -0.0380 -0.4880
    6MOL0     H  747   1.745   6.713   0.260 -1.0691  0.2902 -1.1698
    6MOL0     H  748   1.761   6.808   0.408 -1.1100  1.3555  1.0535
    6MOL0     H  749   1.820   7.005   0.243 -2.6260 -0.8038  0.1270
    6MOL0     H  750   1.832   6.890   0.116 -0.3167 -1.1519 -0.5387
    6MOL0     H  751   1.995   6.944   0.365 -2.0703  1.3959 -0.6394
    6MOL0     H  752   2.002   6.772   0.284 -3.9109 -0.7392 -1.6604
    6MOL0     H  753   2.198   6.893   0.200  1.0376  1.0664  0.6816
    6MOL0     H  754   2.070   6.897   0.079  1.6122  3.0028 -0.4621
    6MOL0     H  755   2.013   7.125   0.125 -0.8034  1.8911  3.0908
    6MOL0     H  756   2.089   7.137   0.274 -1.4724  1.1244  0.2295
    6MOL0     H  757   2.224   7.239   0.090  1.6942  0.0645 -2.0016
    6MOL0     H  758   2.218   7.082   0.009 -0.7880  1.1881 -0.5863
    6MOL0     H  759   2.361   7.164   0.275  4.9943 -0.8712  1.0042
    6MOL0     H  760   2.362   7.001   0.207  1.0863 -0.3225 -1.5325
    6MOL0     H  761   2.628   7.011   0.149  0.3738  0.2804  1.0186
    6MOL0     H  762   2.858   7.162  -0.043  0.3243  2.2922 -0.9609
    6MOL0     H  763   2.851   7.307   0.047 -2.0960  0.6634  1.6455
    6MOL0     H  764   2.938   7.248   0.224 -2.3768  0.6841  1.2020
    6MOL0     H  765   2.846   7.095   0.247  0.5281  2.5364  1.7820
    6MOL0     H  766   3.001   6.974   0.113 -0.9178 -0.7884  1.7516
    6MOL0     H  767   3.090   7.049   0.252  1.5649 -3.1707 -1.2951
    6MOL0     H  768   3.233   7.079   0.091  0.1532  0.0305  0.7522
    6MOL0     H  769   3.151   7.238   0.114 -0.8687  0.9071  0.3662
    6MOL0     H  770   3.059   7.210  -0.321  0.3702 -0.0193 -0.3569
    6MOL0     H  771   3.226   7.233  -0.493 -0.0540 -2.7359 -0.3808
    6MOL0     H  772   3.323   7.343  -0.824 -0.2383  2.4405  5.6747
    6MOL0     H  773   3.457   7.423  -1.023  2.6465  6.0663  0.6746
    6MOL0     H  774   3.902   7.475  -0.987  0.6216  0.1561 -0.1453
    6MOL0     H  775   3.888   7.329  -1.077 -1.8635 -0.7484 -0.7132
    6MOL0     H  776   3.864   7.460  -1.285 -0.9226  0.6211 -0.1600
    6MOL0     H  777   3.841   7.603  -1.178 -0.7097 -0.0016 -3.1557
    6MOL0     H  778   4.091   7.562  -1.094 -2.7242 -1.5236  1.5205
    6MOL0     H  779   4.096   7.449  -1.223 -1.4197 -0.7708  0.3085
    6MOL0     H  780   4.025   7.754  -1.247 -0.2145 -0.2750  0.1527
    6MOL0     H  781   4.057   7.654  -1.387  2.3171 -0.4749  0.2923
    6MOL0     H  782   4.235   7.802  -1.363 -0.5791  1.7130  0.4006
    6MOL0     H  783   4.292   7.641  -1.297 -1.0383 -0.5602  0.1562
    6MOL0     H  784   4.181   7.890  -1.167  0.5406 -0.3588  0.6370
    6MOL0     H  785   4.251   7.766  -1.064  1.9008  0.9714  1.1145
    6MOL0     H  786   4.396   7.921  -1.278  2.3490  1.5545  1.1786
    6MOL0     H  787   4.465   7.785  -1.208 -0.9159 -0.6436 -1.5605
    6MOL0     H  788   4.358   8.021  -1.040 -0.6225 -0.1019 -2.0739
    6MOL0     H  789   4.474   7.901  -0.983 -3.0016 -2.2087 -0.8003
    6MOL0     H  790   3.825   7.356  -0.824 -0.1116  2.8310 -0.8367
    6MOL0     H  791   3.711   7.295  -0.635  0.2656  1.4595 -0.5173
    6MOL0     H  792   3.533   7.201  -0.202  0.3359 -0.8851 -0.9114
    6MOL0     H  793   3.375   7.166  -0.029 -0.8887  1.3624  0.0035
    6MOL0     H  794   1.354   6.952   0.276  2.7664  0.6776 -0.0829
    6MOL0     H  795   1.126   6.956   0.175 -0.1195 -2.6202  2.1821
    6MOL0     H  796   0.945   6.822  -0.292 -1.5576 -1.8875 -2.9218
    6MOL0     H  797   0.783   6.826  -0.453  2.7251 -2.8230  1.4604
    6MOL0     H  798   0.564   6.766  -0.551  3.1490  0.4755  1.5126
    6MOL0     H  799   0.621   6.924  -0.603  1.3895 -2.0799  0.2685
    6MOL0     H  800   0.457   6.867  -0.741  3.0840 -0.1408  1.2826
    6MOL0     H  801   0.374   6.996  -0.645 -1.8618 -0.6837  2.1660
    6MOL0     H  802   0.300   6.783  -0.505  1.1487  0.2818  0.3024
    6MOL0     H  803   0.355   6.702  -0.653  1.0222  1.0341 -1.3126
    6MOL0     H  804   0.158   6.929  -0.694  2.3256 -0.7003 -0.1616
    6MOL0     H  805   0.180   6.782  -0.787  0.5938  0.1967 -0.3695
    6MOL0     H  806  -0.112   6.673  -0.498 -1.3795  0.8050 -2.9344
    6MOL0     H  807   0.493   6.957  -0.176 -0.6449 -3.7686  0.8870
    6MOL0     H  808   0.647   6.901   0.094  1.4514 -0.8829 -0.1586
    6MOL0     H  809   0.737   7.055   0.083 -0.2993 -0.3289 -0.7259
    6MOL0     H  810   0.555   7.037   0.050 -1.0192 -1.5139 -2.8530
    7MOL0     O  811   3.891   7.748   5.645  1.2067  0.1922 -0.3641
    7MOL0     C  812   3.828   7.696   5.551  0.3703 -0.4000  0.3557
    7MOL0     O  813   3.888   7.609   5.474  0.5173 -0.6590 -0.3779
    7MOL0     C  814   4.018   7.607   5.458 -0.2375  0.6673  0.2921
    7MOL0     C  815   4.100   7.561   5.561 -0.5734  0.0098  0.0995
    7MOL0     C  816   4.235   7.566   5.558 -0.4129  0.2458 -0.5187
    7MOL0     C  817   4.296   7.605   5.440  0.6260  0.0508  0.7904
    7MOL0     O  818   4.427   7.600   5.451  0.3345  0.0849 -0.1995
    7MOL0     C  819   4.520   7.673   5.372  0.5736  0.0970  0.4210
    7MOL0     C  820   4.646   7.652   5.441  0.1610 -0.5063 -0.1961
    7MOL0     C  821   4.703   7.507   5.444 -0.0280  1.2380  0.2127
    7MOL0     C  822   4.747   7.474   5.300  0.1520 -0.9668  0.4017
    7MOL0     C  823   4.788   7.332   5.292 -0.4400  0.0525 -0.7907
    7MOL0     C  824   4.807   7.275   5.150  0.3842  0.3858 -1.1128
    7MOL0     C  825   4.837   7.129   5.161 -0.2434  0.5090  0.1839
    7MOL0     C  826   4.831   7.067   5.025 -0.1082  0.1408  0.3269
    7MOL0     N  827   4.925   7.119   4.933 -0.5386 -1.0179 -0.2194
    7MOL0     C  828   4.924   7.230   4.854  0.2778  0.4004 -0.5439
    7MOL0     C  829   5.048   7.251   4.812 -0.1095 -0.0915 -0.0748
    7MOL0     C  830   5.096   7.358   4.711  0.9184  0.0854 -1.0660
    7MOL0     C  831   5.212   7.448   4.763  0.4940  0.1805  0.0319
    7MOL0     C  832   5.358   7.401   4.753 -0.0606 -0.1362  0.6861
    7MOL0     C  833   5.452   7.483   4.845  0.6436 -0.2661  0.5713
    7MOL0     O  834   5.441   7.616   4.800 -0.1973 -0.1445  0.1929
    7MOL0     C  835   5.545   7.699   4.817  0.1767  0.4205 -0.1968
    7MOL0     C  836   5.632   7.691   4.931  0.5561 -0.5244  0.5034
    7MOL0     C  837   5.748   7.763   4.939 -0.4877 -0.5646  0.4900
    7MOL0     C  838   5.775   7.863   4.849 -0.9938  0.4221  0.4601
    7MOL0     C  839   5.902   7.940   4.867  0.3401 -0.2089 -0.0867
    7MOL0     O  840   6.005   7.909   4.949 -0.4144  0.2761 -0.6993
    7MOL0     C  841   6.114   7.991   4.962  1.1024 -0.6478  0.0591
    7MOL0     C  842   6.243   7.931   4.951 -0.2883  0.5102 -0.9660
    7MOL0     C  843   6.358   8.011   4.977 -0.2152  0.1240  0.4752
    7MOL0     C  844   6.350   8.153   4.996  0.1947 -0.3435  0.1365
    7MOL0     O  845   6.460   8.224   5.034  0.1806 -0.7687 -0.4127
    7MOL0     C  846   6.441   8.356   5.089  0.5634  0.1374  0.2860
    7MOL0     C  847   6.566   8.415   5.140 -0.3281  0.4148  0.5305
    7MOL0     C  848   6.629   8.525   5.051  0.3751 -0.0556 -0.8928
    7MOL0     C  849   6.709   8.469   4.934 -0.0136 -0.2851 -0.0390
    7MOL0     C  850   6.849   8.441   4.990 -0.2368  0.0779  0.5640
    7MOL0     C  851   6.902   8.364   4.874 -0.3425  0.1362  0.0815
    7MOL0     C  852   7.033   8.304   4.915  0.0245  0.7291  0.1500
    7MOL0     C  853   7.126   8.260   4.784  0.3743  0.1055 -0.5691
    7MOL0    Cl  854   7.216   8.108   4.818 -0.4692 -0.2901  0.2394
    7MOL0     C  855   6.215   8.203   5.007  0.2302 -0.0913 -0.2396
    7MOL0     C  856   6.101   8.125   4.988 -0.1263 -0.5432  0.6305
    7MOL0     O  857   5.904   8.040   4.791 -0.1052 -0.1042 -0.2138
    7MOL0     C  858   5.689   7.882   4.737  0.2470 -0.3782 -1.4128
    7MOL0     C  859   5.574   7.798   4.725 -0.1757 -0.9779 -0.0061
    7MOL0     N  860   5.128   7.150   4.861 -1.2483 -0.1398 -0.7195
    7MOL0     N  861   5.048   7.076   4.930 -0.8090  0.5270 -0.8534
    7MOL0     C  862   4.216   7.642   5.324  0.2306 -0.7795  0.2676
    7MOL0     C  863   4.077   7.648   5.334 -0.3298 -0.3932  0.4542
    7MOL0     C  864   3.688   7.710   5.538 -0.3859 -0.4643 -0.6757
    7MOL0     C  865   3.613   7.769   5.643 -0.5177 -0.7069 -0.2900
    7MOL0     C  866   3.474   7.790   5.636 -0.2841  0.1014 -0.1238
    7MOL0     C  867   3.412   7.751   5.525 -0.7541 -0.0780  0.4063
    7MOL0     O  868   3.279   7.759   5.523  0.4759 -1.1545 -0.5483
    7MOL0     C  869   3.219   7.891   5.563  0.6637  0.1496 -0.8010
    7MOL0     C  870   3.077   7.876   5.536  0.6483  0.1015 -0.5099
    7MOL0     C  871   2.990   7.985   5.604  0.0866  0.1493  0.6367
    7MOL0     C  872   2.854   8.002   5.532  0.4686  0.6708 -0.2931
    7MOL0     C  873   2.765   7.881   5.541 -0.0236  0.8501  0.1240
    7MOL0     C  874   2.677   7.797   5.550 -0.4436  0.6473 -0.8360
    7MOL0     C  875   3.481   7.700   5.417 -0.0788  0.2469  0.5424
    7MOL0     C  876   3.621   7.691   5.416 -0.4937 -0.1727  1.3399
    7MOL0     C  877   3.678   7.664   5.279  0.1550  0.6558 -0.3323
    7MOL0     H  878   4.064   7.535   5.660  2.2275  3.6694  2.3404
    7MOL0     H  879   4.296   7.558   5.647 -0.2371  0.2849 -0.6351
    7MOL0     H  880   4.527   7.647   5.266  0.5693 -2.5736  1.0170
    7MOL0     H  881   4.499   7.780   5.383 -0.9444 -0.4152  3.6635
    7MOL0     H  882   4.640   7.677   5.547  0.7307 -4.4594  0.9481
    7MOL0     H  883   4.718   7.719   5.393  1.0433 -2.2783 -1.4999
    7MOL0     H  884   4.627   7.433   5.470  0.0539  0.6778 -1.0393
    7MOL0     H  885   4.789   7.498   5.512 -1.6642  1.3446  2.3934
    7MOL0     H  886   4.660   7.484   5.234  0.2223  1.7732  0.5902
    7MOL0     H  887   4.818   7.552   5.270  1.9444 -2.3251  0.8960
    7MOL0     H  888   4.887   7.327   5.339 -0.3033  0.8283 -0.9808
    7MOL0     H  889   4.718   7.273   5.352 -0.3852 -1.4140 -2.1009
    7MOL0     H  890   4.716   7.284   5.090 -0.5231 -0.9316  0.0124
    7MOL0     H  891   4.882   7.337   5.100  1.5325  0.3635  0.4982
    7MOL0     H  892   4.761   7.072   5.217 -1.2224 -0.0200 -1.5989
    7MOL0     H  893   4.936   7.114   5.203 -1.1861 -2.3583  1.6467
    7MOL0     H  894   4.831   6.957   5.028  0.4154  0.1402  0.4485
    7MOL0     H  895   4.737   7.093   4.976  0.1157  1.9001  0.7782
    7MOL0     H  896   4.837   7.294   4.841 -0.3767 -0.7674 -2.2309
    7MOL0     H  897   5.118   7.305   4.618 -0.3434  1.6101 -2.3001
    7MOL0     H  898   5.004   7.413   4.693  0.7592 -0.2080 -1.1537
    7MOL0     H  899   5.201   7.542   4.709 -1.0356 -1.5257 -2.8309
    7MOL0     H  900   5.210   7.470   4.871  2.4375 -1.1705  0.4021
    7MOL0     H  901   5.387   7.402   4.647 -2.0745 -2.7283 -0.0114
    7MOL0     H  902   5.369   7.300   4.792 -1.5310 -0.9196 -0.7678
    7MOL0     H  903   5.553   7.444   4.861 -0.5167 -3.4857  0.7287
    7MOL0     H  904   5.419   7.475   4.948  1.9461  0.6654  1.0936
    7MOL0     H  905   5.603   7.622   5.010 -3.8400  2.3684  1.7915
    7MOL0     H  906   5.820   7.737   5.016 -0.5583  0.8843  1.0743
    7MOL0     H  907   6.253   7.823   4.951 -2.3314  0.2552  0.6601
    7MOL0     H  908   6.456   7.963   4.978  0.4359  1.3181 -1.3913
    7MOL0     H  909   6.405   8.413   5.004 -2.0638 -1.5473  0.1550
    7MOL0     H  910   6.369   8.366   5.171 -0.1435  1.1327 -0.4323
    7MOL0     H  911   6.549   8.464   5.236  1.7342  3.2864 -0.4168
    7MOL0     H  912   6.631   8.328   5.157 -3.3031 -2.4488 -1.4421
    7MOL0     H  913   6.545   8.585   5.016  0.0596  0.1873  0.2429
    7MOL0     H  914   6.692   8.598   5.104 -1.0131 -1.0811  2.4123
    7MOL0     H  915   6.732   8.552   4.867  1.2752 -0.2336  0.4328
    7MOL0     H  916   6.658   8.383   4.888  1.3856 -0.6164 -1.0632
    7MOL0     H  917   6.856   8.378   5.079  0.9639  2.5407  2.3395
    7MOL0     H  918   6.919   8.524   5.005 -0.4283  1.2118 -3.4938
    7MOL0     H  919   6.835   8.279   4.861  0.3795 -0.9548  2.7019
    7MOL0     H  920   6.913   8.425   4.784  1.2105  0.4154  0.4297
    7MOL0     H  921   7.006   8.212   4.968  0.5573  0.0541 -0.7217
    7MOL0     H  922   7.092   8.355   4.991  1.6234  0.5843 -0.9624
    7MOL0     H  923   7.052   8.233   4.708 -1.6110 -0.3175  1.4059
    7MOL0     H  924   7.192   8.340   4.748  0.3006  2.0163  3.0653
    7MOL0     H  925   6.199   8.306   5.034  0.2293 -0.2857  0.5306
    7MOL0     H  926   6.008   8.182   4.984 -0.0677 -0.2444  2.4828
    7MOL0     H  927   5.715   7.961   4.668 -1.9940  0.0765 -1.7952
    7MOL0     H  928   5.507   7.816   4.641  0.1258 -0.2351 -0.0861
    7MOL0     H  929   4.272   7.668   5.235  1.0940 -1.3841  0.6159
    7MOL0     H  930   4.007   7.675   5.256 -0.2766 -0.0372  0.5303
    7MOL0     H  931   3.661   7.779   5.740 -0.4187 -0.9200 -0.3157
    7MOL0     H  932   3.418   7.831   5.719 -0.2762  1.8788 -0.9447
    7MOL0     H  933   3.254   7.970   5.496 -1.6108  0.4132 -1.7748
    7MOL0     H  934   3.242   7.922   5.665  1.0213 -0.4459 -0.6981
    7MOL0     H  935   3.047   7.781   5.581 -0.2880  0.7600  0.3072
    7MOL0     H  936   3.047   7.879   5.431 -1.1647 -3.2033 -0.2114
    7MOL0     H  937   3.040   8.081   5.591 -0.1652  0.4685  1.9207
    7MOL0     H  938   2.978   7.947   5.706 -0.5643  1.3042  1.0067
    7MOL0     H  939   2.812   8.086   5.588 -1.1679 -0.9810  1.0381
    7MOL0     H  940   2.863   8.031   5.427 -2.1710  0.1505 -0.7261
    7MOL0     H  941   2.611   7.713   5.561 -1.3294  1.3447 -0.7137
    7MOL0     H  942   3.417   7.681   5.332  0.5921  0.8522 -0.1081
    7MOL0     H  943   3.698   7.557   5.268 -2.4524  0.1470 -0.7268
    7MOL0     H  944   3.600   7.681   5.204 -0.9531  0.5471  0.7673
    7MOL0     H  945   3.770   7.721   5.260 -0.7112  1.8152 -1.1803
    8MOL0     O  946   8.260   4.111   1.073 -0.6837 -0.0414  0.2830
    8MOL0     C  947   8.294   3.998   1.026  0.4383  0.0845  0.0827
    8MOL0     O  948   8.412   3.971   0.966 -0.7647 -0.0676 -0.3311
    8MOL0     C  949   8.494   4.079   0.944 -0.0807  0.3164 -0.3106
    8MOL0     C  950   8.468   4.169   0.836 -0.2014 -0.2915  0.0182
    8MOL0     C  951   8.563   4.268   0.815  0.7909 -0.3352 -0.0234
    8MOL0     C  952   8.684   4.277   0.894 -0.4252 -0.1249 -0.2333
    8MOL0     O  953   8.773   4.384   0.886 -0.5883 -0.0235 -0.0051
    8MOL0     C  954   8.730   4.492   0.801  0.3771 -0.8358 -0.0088
    8MOL0     C  955   8.840   4.595   0.803  0.2341 -0.2462  0.2601
    8MOL0     C  956   8.970   4.535   0.755  0.4517  0.6699  0.1648
    8MOL0     C  957   9.084   4.638   0.719 -0.9474 -0.1560 -0.9966
    8MOL0     C  958   9.192   4.575   0.626 -0.4255  0.0934 -0.5503
    8MOL0     C  959   9.260   4.451   0.685  0.8049 -0.0279  1.0172
    8MOL0     C  960   9.362   4.390   0.584 -0.3849  0.0069  0.0642
    8MOL0     C  961   9.418   4.252   0.626 -0.0365  0.6075  0.2230
    8MOL0     N  962   9.488   4.198   0.510 -0.0780 -0.1925  0.2102
    8MOL0     C  963   9.598   4.254   0.439  0.2798  0.1952 -0.5592
    8MOL0     C  964   9.616   4.171   0.331 -0.2552 -0.3409 -1.0513
    8MOL0     C  965   9.731   4.171   0.231 -0.2407  0.4690 -0.1740
    8MOL0     C  966   9.808   4.036   0.207  0.5555  0.1084  0.1858
    8MOL0     C  967   9.927   4.044   0.113  0.4428 -0.2253 -0.5529
    8MOL0     C  968  10.026   4.162   0.144  0.1992  0.3566  0.1746
    8MOL0     O  969  10.062   4.149   0.283 -0.8880  0.5217 -0.0560
    8MOL0     C  970  10.079   4.267   0.356 -0.1724 -0.4293 -1.0188
    8MOL0     C  971  10.123   4.391   0.300  0.4685 -1.4001 -0.7513
    8MOL0     C  972  10.143   4.504   0.379 -0.4690 -0.4950  0.0509
    8MOL0     C  973  10.104   4.506   0.511  0.0149  0.7809  0.3226
    8MOL0     C  974  10.116   4.628   0.593 -1.0568  0.0690 -0.7527
    8MOL0     O  975  10.078   4.625   0.724  0.1407  0.2359 -0.1221
    8MOL0     C  976  10.091   4.733   0.809  0.1663 -0.1717  0.4324
    8MOL0     C  977   9.973   4.792   0.847  0.0930  0.1048 -0.6613
    8MOL0     C  978   9.986   4.906   0.939 -0.0005  0.2447  1.0085
    8MOL0     C  979  10.117   4.962   0.973 -0.6243 -0.7127  0.4953
    8MOL0     O  980  10.129   5.076   1.048  0.0444  1.0440 -0.1369
    8MOL0     C  981  10.216   5.092   1.154 -0.8316 -0.0866 -0.3425
    8MOL0     C  982  10.176   5.223   1.217  0.8015  0.7173 -0.6545
    8MOL0     C  983  10.209   5.345   1.135  0.2175 -0.3189  0.9824
    8MOL0     C  984  10.117   5.463   1.164 -0.5559 -0.7597  0.2065
    8MOL0     C  985  10.115   5.555   1.046  0.3566 -0.8606 -0.7295
    8MOL0     C  986  10.012   5.664   1.058  0.1346 -0.7373  0.8230
    8MOL0     C  987   9.931   5.691   0.936  0.2356  0.1072 -0.4228
    8MOL0     C  988   9.784   5.730   0.970  0.0129  0.1174 -0.2919
    8MOL0    Cl  989   9.688   5.725   0.816  0.3801  0.1461  0.0472
    8MOL0     C  990  10.228   4.883   0.941 -0.3736 -0.1923  0.4072
    8MOL0     C  991  10.218   4.779   0.843  0.4853 -0.8737 -0.7017
    8MOL0     O  992  10.156   4.732   0.534 -0.1724 -0.3445  0.8018
    8MOL0     C  993  10.063   4.387   0.570  0.0791 -0.6024  0.1738
    8MOL0     C  994  10.048   4.270   0.493 -0.1955  0.0093 -0.0034
    8MOL0     N  995   9.524   4.076   0.340 -0.4684  0.2441  0.5160
    8MOL0     N  996   9.445   4.089   0.443 -1.0011 -0.2760 -0.0525
    8MOL0     C  997   8.711   4.186   0.996  0.4498  0.1606  0.8152
    8MOL0     C  998   8.617   4.087   1.018  0.5924  0.9669 -0.2352
    8MOL0     C  999   8.214   3.876   1.078 -0.2464 -0.9479 -0.1861
    8MOL0     C 1000   8.285   3.757   1.117 -0.4827 -0.2111  0.2674
    8MOL0     C 1001   8.219   3.662   1.191 -0.5756  0.0036 -0.5375
    8MOL0     C 1002   8.086   3.667   1.219  0.3493  0.5453 -0.8007
    8MOL0     O 1003   8.029   3.542   1.257 -0.6489  0.1718 -0.4956
    8MOL0     C 1004   7.894   3.545   1.306  0.2066  0.5051  0.2489
    8MOL0     C 1005   7.849   3.405   1.342 -0.6307  0.0151  0.9123
    8MOL0     C 1006   7.716   3.428   1.422 -0.3308 -0.3290 -0.6453
    8MOL0     C 1007   7.631   3.314   1.442  0.0553  0.4532  0.1758
    8MOL0     C 1008   7.699   3.185   1.476 -0.4843  0.1422  0.1481
    8MOL0     C 1009   7.749   3.084   1.521 -0.4285  0.7207 -0.8535
    8MOL0     C 1010   8.013   3.769   1.169  0.7312 -1.1064 -1.4255
    8MOL0     C 1011   8.069   3.873   1.099 -0.3739 -0.2914 -0.8315
    8MOL0     C 1012   7.966   3.953   1.026 -0.6336  0.3468  0.7676
    8MOL0     H 1013   8.385   4.149   0.769  0.5436 -0.8449 -0.7636
    8MOL0     H 1014   8.536   4.327   0.727 -0.3480 -1.2415 -0.3057
    8MOL0     H 1015   8.724   4.459   0.697  0.4542 -3.1071  0.6533
    8MOL0     H 1016   8.637   4.536   0.837  1.2239  1.0400 -0.0288
    8MOL0     H 1017   8.830   4.637   0.904  0.4009 -0.5026  0.3858
    8MOL0     H 1018   8.814   4.681   0.741  0.8848  0.6835  1.2347
    8MOL0     H 1019   8.943   4.469   0.673 -2.2123 -0.8941  2.1252
    8MOL0     H 1020   9.011   4.456   0.819  1.5096  0.4338 -0.7752
    8MOL0     H 1021   9.041   4.733   0.686 -1.2611  1.7543  4.0328
    8MOL0     H 1022   9.123   4.674   0.814 -1.0220 -3.4865  0.4045
    8MOL0     H 1023   9.149   4.559   0.527 -0.9148  2.0706 -0.7074
    8MOL0     H 1024   9.275   4.645   0.620 -0.3044  0.4118  2.8402
    8MOL0     H 1025   9.294   4.477   0.785 -1.4008 -1.5836  2.2626
    8MOL0     H 1026   9.186   4.371   0.682  1.2707 -0.4871 -2.0480
    8MOL0     H 1027   9.449   4.457   0.581  0.5798 -1.2495 -1.6394
    8MOL0     H 1028   9.331   4.400   0.480  3.0312  2.8138 -0.8908
    8MOL0     H 1029   9.477   4.266   0.717  0.6912 -1.6623  0.1526
    8MOL0     H 1030   9.336   4.183   0.647  0.4219  0.5399  1.9080
    8MOL0     H 1031   9.654   4.342   0.467 -0.4636  0.5672 -0.2071
    8MOL0     H 1032   9.694   4.195   0.131 -1.1526 -0.1458  0.0084
    8MOL0     H 1033   9.802   4.253   0.249 -1.5863  1.2938  1.7719
    8MOL0     H 1034   9.837   4.007   0.309 -5.0471  1.7565  2.6450
    8MOL0     H 1035   9.737   3.960   0.174  0.6365 -0.5743  1.5001
    8MOL0     H 1036   9.897   4.041   0.008 -0.9454 -3.5300 -0.1864
    8MOL0     H 1037   9.975   3.946   0.118  1.1445 -0.0020 -2.3564
    8MOL0     H 1038   9.975   4.254   0.117 -0.5613 -0.0274  0.2766
    8MOL0     H 1039  10.117   4.154   0.083 -0.3029  0.6222 -0.6275
    8MOL0     H 1040  10.152   4.394   0.196 -0.3978 -0.1707 -0.9687
    8MOL0     H 1041  10.188   4.590   0.331 -0.6451 -0.5215 -0.1618
    8MOL0     H 1042   9.879   4.741   0.829 -2.2383  2.8816  2.3742
    8MOL0     H 1043   9.890   4.950   0.964  1.7226  3.8741  1.9439
    8MOL0     H 1044  10.212   5.011   1.228  1.8277  0.3589  0.3672
    8MOL0     H 1045  10.321   5.101   1.125 -0.1504 -0.3197  1.8596
    8MOL0     H 1046  10.067   5.220   1.232  0.3629 -0.8308 -3.3746
    8MOL0     H 1047  10.225   5.245   1.312  0.9942 -1.3702 -0.2192
    8MOL0     H 1048  10.315   5.368   1.146  0.1056  0.6411  0.2344
    8MOL0     H 1049  10.216   5.322   1.028  0.7728  1.9199  0.4784
    8MOL0     H 1050  10.151   5.502   1.260  0.6881  0.4710 -0.6752
    8MOL0     H 1051  10.012   5.436   1.171 -0.9283  0.7307  0.7570
    8MOL0     H 1052  10.094   5.494   0.958 -0.3473  1.0476 -1.9557
    8MOL0     H 1053  10.210   5.605   1.025 -0.6744  1.0620 -1.0770
    8MOL0     H 1054   9.942   5.641   1.139 -0.5794 -3.0353 -0.3629
    8MOL0     H 1055  10.058   5.760   1.084 -2.0362  0.0534  2.0975
    8MOL0     H 1056   9.921   5.602   0.875 -3.4693  3.5575 -5.7762
    8MOL0     H 1057   9.988   5.764   0.878  2.3927  0.5874  2.1157
    8MOL0     H 1058   9.739   5.667   1.048 -0.1707  3.6652  2.7735
    8MOL0     H 1059   9.786   5.831   1.013  0.7144  0.1343 -0.3538
    8MOL0     H 1060  10.331   4.911   0.956 -1.0745  1.4288  2.8081
    8MOL0     H 1061  10.309   4.737   0.801  0.2278 -1.4600 -0.6820
    8MOL0     H 1062  10.037   4.392   0.676  2.5978 -1.6763  0.9142
    8MOL0     H 1063  10.028   4.188   0.561  2.7170  0.2154  1.2744
    8MOL0     H 1064   8.806   4.204   1.044  2.1629 -2.2332 -1.4174
    8MOL0     H 1065   8.632   4.006   1.089 -1.0622  0.6921 -0.1659
    8MOL0     H 1066   8.392   3.754   1.099 -0.3650 -0.1986  0.9627
    8MOL0     H 1067   8.284   3.580   1.221  0.3459  0.3036 -1.6730
    8MOL0     H 1068   7.827   3.589   1.231  0.4675  3.3572  1.5450
    8MOL0     H 1069   7.886   3.604   1.398  1.0241 -0.5922  1.0465
    8MOL0     H 1070   7.932   3.355   1.394 -0.1643  1.1596  1.3016
    8MOL0     H 1071   7.819   3.345   1.255 -2.9179 -1.5391  2.6332
    8MOL0     H 1072   7.661   3.504   1.367  1.5669  0.5291 -1.4634
    8MOL0     H 1073   7.741   3.463   1.523 -0.2199 -2.9043  0.2990
    8MOL0     H 1074   7.556   3.336   1.518  1.4392 -0.7537  1.9564
    8MOL0     H 1075   7.578   3.294   1.349  0.5539 -2.6421  0.4563
    8MOL0     H 1076   7.803   2.999   1.558 -2.1914  0.1721  0.5761
    8MOL0     H 1077   7.905   3.759   1.172  0.8593 -2.4637 -0.9035
    8MOL0     H 1078   8.004   4.026   0.954 -2.4328 -0.2692 -0.9231
    8MOL0     H 1079   7.894   3.891   0.972  0.7132 -0.7805  0.2069
    8MOL0     H 1080   7.914   4.001   1.109  1.2786  0.9692  1.6424
    9MOL0     O 1081   9.957   7.607   8.384 -0.3152  1.3414 -0.2599
    9MOL0     C 1082   9.843   7.563   8.408  0.4156 -0.2120 -0.5950
    9MOL0     O 1083   9.808   7.491   8.516  0.2865 -0.1806 -0.4184
    9MOL0     C 1084   9.894   7.423   8.597 -0.2201 -0.2052 -0.1018
    9MOL0     C 1085   9.841   7.367   8.716  0.0251 -0.9273 -0.1023
    9MOL0     C 1086   9.922   7.310   8.808 -0.0922  0.0441 -0.6712
    9MOL0     C 1087  10.055   7.297   8.791  0.1627  0.1440 -1.1607
    9MOL0     O 1088  10.141   7.230   8.877 -0.7728  0.1193 -0.2067
    9MOL0     C 1089  10.092   7.164   8.992  0.5464  0.1367 -0.7345
    9MOL0     C 1090  10.189   7.121   9.095  0.0794 -0.0664 -0.8644
    9MOL0     C 1091  10.290   7.014   9.030  0.2464  0.3278 -0.7393
    9MOL0     C 1092  10.365   6.941   9.148 -1.0346 -0.0843 -0.7008
    9MOL0     C 1093  10.457   6.843   9.081  0.5445  0.3577 -0.7231
    9MOL0     C 1094  10.548   6.766   9.179  0.3762  0.2598 -0.3080
    9MOL0     C 1095  10.655   6.679   9.120  0.0542  0.0423  0.4135
    9MOL0     C 1096  10.591   6.551   9.050  0.7245 -0.2609  1.0085
    9MOL0     N 1097  10.694   6.490   8.967 -0.3940  0.7177 -0.4997
    9MOL0     C 1098  10.756   6.552   8.855  1.4038  0.5086  1.0346
    9MOL0     C 1099  10.859   6.469   8.832 -0.8211 -0.8834 -0.2246
    9MOL0     C 1100  10.962   6.491   8.719  0.8117  0.1973 -0.0040
    9MOL0     C 1101  11.005   6.346   8.670  0.9371  0.2844  0.4648
    9MOL0     C 1102  10.891   6.244   8.628 -0.1323  0.0176 -0.7040
    9MOL0     C 1103  10.962   6.131   8.558 -0.2109  0.2721 -0.5379
    9MOL0     O 1104  10.989   6.046   8.668  0.4414 -0.2636 -0.2386
    9MOL0     C 1105  11.095   5.968   8.682 -0.2029  0.9153 -0.5009
    9MOL0     C 1106  11.136   5.910   8.802  0.1857 -0.3107 -0.1541
    9MOL0     C 1107  11.244   5.811   8.811 -0.2749 -0.5901 -0.0979
    9MOL0     C 1108  11.304   5.771   8.696 -0.6110  0.1454 -0.5786
    9MOL0     C 1109  11.417   5.670   8.690  1.1709  0.3335 -0.2818
    9MOL0     O 1110  11.401   5.577   8.788 -0.1441  0.2829 -0.1075
    9MOL0     C 1111  11.473   5.462   8.776 -0.3959  0.2834 -1.3632
    9MOL0     C 1112  11.415   5.333   8.796  0.0656 -0.0477  0.4232
    9MOL0     C 1113  11.487   5.215   8.803 -0.3931  0.5111  0.0290
    9MOL0     C 1114  11.624   5.214   8.781  0.2126  0.2161  0.6082
    9MOL0     O 1115  11.697   5.095   8.773  0.3187  0.7293 -0.3913
    9MOL0     C 1116  11.642   4.975   8.829  0.4483 -0.1721 -0.3942
    9MOL0     C 1117  11.704   4.848   8.767 -0.5413 -0.0786  0.0809
    9MOL0     C 1118  11.682   4.720   8.856  0.0099 -1.2038  0.5079
    9MOL0     C 1119  11.699   4.718   9.011 -0.1756  0.0258  0.2730
    9MOL0     C 1120  11.634   4.599   9.070 -0.7729 -0.6388 -0.5900
    9MOL0     C 1121  11.489   4.621   9.085  0.1995  0.3323 -1.0593
    9MOL0     C 1122  11.427   4.496   9.141 -0.2440 -0.1841 -0.4692
    9MOL0     C 1123  11.283   4.484   9.094 -0.0950  1.9171  1.5567
    9MOL0    Cl 1124  11.217   4.337   9.171 -0.1193 -0.3571 -0.0072
    9MOL0     C 1125  11.685   5.339   8.748  0.5589  0.5096 -0.2100
    9MOL0     C 1126  11.610   5.457   8.747  0.0457 -0.4308  0.1374
    9MOL0     O 1127  11.482   5.655   8.586  0.1290 -0.3711  0.3778
    9MOL0     C 1128  11.267   5.827   8.576  0.0670  0.7127 -0.9053
    9MOL0     C 1129  11.161   5.915   8.576  0.3978  0.2467  0.5266
    9MOL0     N 1130  10.865   6.366   8.920  0.4769 -0.5923  0.6772
    9MOL0     N 1131  10.773   6.378   9.007  0.0796 -0.1056  0.3158
    9MOL0     C 1132  10.115   7.343   8.668 -0.8950 -0.5329  0.3285
    9MOL0     C 1133  10.032   7.410   8.577  0.0565  0.0104  0.4399
    9MOL0     C 1134   9.730   7.591   8.310 -0.1782 -0.5036  0.4594
    9MOL0     C 1135   9.631   7.499   8.314  0.3257  0.2116 -0.7446
    9MOL0     C 1136   9.518   7.505   8.229  0.1315  0.6547  0.9699
    9MOL0     C 1137   9.509   7.614   8.139  0.7026  0.6567 -0.3120
    9MOL0     O 1138   9.406   7.625   8.050 -0.6740 -0.5211  0.5036
    9MOL0     C 1139   9.396   7.518   7.955  0.4038  0.1480  0.2748
    9MOL0     C 1140   9.522   7.510   7.868  0.1599 -0.8101 -0.2020
    9MOL0     C 1141   9.469   7.477   7.731  0.3905 -0.2782  0.1523
    9MOL0     C 1142   9.580   7.404   7.651  0.0806  0.1687  0.5073
    9MOL0     C 1143   9.504   7.357   7.528  0.3784 -0.6354  1.0072
    9MOL0     C 1144   9.445   7.310   7.432 -1.2667  0.3593 -0.9425
    9MOL0     C 1145   9.616   7.705   8.129  0.1178 -0.1493  0.1693
    9MOL0     C 1146   9.731   7.696   8.210 -0.4939  0.9826 -0.8902
    9MOL0     C 1147   9.848   7.792   8.172 -0.5082 -0.6919 -0.1732
    9MOL0     H 1148   9.733   7.372   8.727 -0.3791 -1.0242 -3.0499
    9MOL0     H 1149   9.875   7.293   8.904 -0.8316  1.5670 -0.7384
    9MOL0     H 1150  10.037   7.238   9.052  2.2384  0.5968  0.3173
    9MOL0     H 1151  10.028   7.082   8.958 -0.1555  1.4628 -2.7444
    9MOL0     H 1152  10.151   7.090   9.193  3.7205 -1.2383  0.3811
    9MOL0     H 1153  10.252   7.209   9.113 -3.6370  2.5718  0.3302
    9MOL0     H 1154  10.359   7.066   8.963 -0.7505  3.3105  0.3591
    9MOL0     H 1155  10.229   6.943   8.974  1.7182 -2.6334  1.1287
    9MOL0     H 1156  10.430   7.018   9.189  0.3814 -0.6493 -1.8237
    9MOL0     H 1157  10.304   6.904   9.231  0.0889  1.1588  0.7434
    9MOL0     H 1158  10.399   6.764   9.032  1.5619 -0.5902 -0.4432
    9MOL0     H 1159  10.531   6.883   9.011  1.0714 -1.0100 -0.9841
    9MOL0     H 1160  10.594   6.837   9.249 -0.4761 -1.6056  2.3085
    9MOL0     H 1161  10.486   6.697   9.236 -4.3050  2.9523 -1.6313
    9MOL0     H 1162  10.726   6.650   9.198 -0.6523  0.1030  1.0954
    9MOL0     H 1163  10.715   6.732   9.045  0.9609 -1.4032  0.0940
    9MOL0     H 1164  10.560   6.476   9.123  1.1276 -0.6514  0.7830
    9MOL0     H 1165  10.501   6.569   8.990  2.0457  0.3919 -0.8722
    9MOL0     H 1166  10.720   6.638   8.801  0.3678  0.1828  1.1906
    9MOL0     H 1167  10.930   6.553   8.635  1.7442  2.4746  1.2101
    9MOL0     H 1168  11.051   6.533   8.766 -0.0941  0.6580  1.3891
    9MOL0     H 1169  11.065   6.363   8.580  2.3991 -1.9376  0.9413
    9MOL0     H 1170  11.076   6.298   8.737  1.8738  0.8485 -0.1045
    9MOL0     H 1171  10.827   6.302   8.561 -1.2759 -1.9622 -1.4212
    9MOL0     H 1172  10.828   6.202   8.707  0.0835  0.0397 -0.5202
    9MOL0     H 1173  11.049   6.174   8.508 -1.7439  1.3314 -2.4176
    9MOL0     H 1174  10.906   6.068   8.487 -1.4739  1.0685 -0.2909
    9MOL0     H 1175  11.081   5.931   8.893  0.0502 -1.5056  0.0530
    9MOL0     H 1176  11.276   5.760   8.900 -3.9438 -1.2077  1.0439
    9MOL0     H 1177  11.307   5.324   8.805  0.1702 -1.5955  0.4869
    9MOL0     H 1178  11.430   5.123   8.811 -1.2597  1.2043  2.8162
    9MOL0     H 1179  11.661   4.972   8.937  1.6361  0.3989 -0.5696
    9MOL0     H 1180  11.535   4.955   8.819  0.3608 -0.1280  0.3524
    9MOL0     H 1181  11.658   4.828   8.670 -2.8165  2.3931  0.5442
    9MOL0     H 1182  11.809   4.874   8.751  0.0914 -0.7339  2.6998
    9MOL0     H 1183  11.577   4.697   8.835  0.4920 -3.8247  0.5774
    9MOL0     H 1184  11.740   4.632   8.826  0.2130 -0.5831 -1.0192
    9MOL0     H 1185  11.658   4.805   9.062 -1.7257 -0.8935  0.6403
    9MOL0     H 1186  11.808   4.720   9.025  0.0696 -1.3279 -1.1026
    9MOL0     H 1187  11.671   4.580   9.171 -0.6890  1.3896 -0.1928
    9MOL0     H 1188  11.654   4.515   9.002  1.3216  1.5018 -2.8386
    9MOL0     H 1189  11.463   4.690   9.166 -2.1991 -2.9411  1.2562
    9MOL0     H 1190  11.447   4.658   8.991  1.9242  0.4188 -1.8213
    9MOL0     H 1191  11.420   4.504   9.250 -1.7762  1.3035 -0.6428
    9MOL0     H 1192  11.488   4.408   9.121 -2.8692 -2.6936  1.5519
    9MOL0     H 1193  11.236   4.577   9.129  0.6204  3.8939 -2.1976
    9MOL0     H 1194  11.282   4.492   8.985  1.2020  2.0966  1.5533
    9MOL0     H 1195  11.784   5.346   8.703 -0.9363  1.3872 -3.7009
    9MOL0     H 1196  11.665   5.551   8.750 -0.5098 -0.0815  3.0431
    9MOL0     H 1197  11.298   5.801   8.476  1.4079  2.5572 -1.0195
    9MOL0     H 1198  11.125   5.932   8.474 -0.4979 -1.7179  0.4593
    9MOL0     H 1199  10.223   7.335   8.664 -0.9071 -0.8775  0.5947
    9MOL0     H 1200  10.077   7.449   8.486 -0.7997 -2.1529 -0.9826
    9MOL0     H 1201   9.638   7.412   8.378  1.4689  0.2757 -0.7530
    9MOL0     H 1202   9.435   7.435   8.229  2.8915 -3.0149  2.4058
    9MOL0     H 1203   9.308   7.553   7.901 -1.3432 -1.2797  2.0374
    9MOL0     H 1204   9.385   7.420   8.002 -0.0354 -0.4236 -0.9752
    9MOL0     H 1205   9.575   7.425   7.913 -0.9174 -0.3543  2.0648
    9MOL0     H 1206   9.570   7.608   7.864 -1.1503 -0.1754 -0.6859
    9MOL0     H 1207   9.447   7.571   7.681  0.7917 -1.0912 -1.6146
    9MOL0     H 1208   9.379   7.416   7.742  1.3833 -1.5252  1.9921
    9MOL0     H 1209   9.662   7.466   7.615  1.2990 -0.4967  2.0151
    9MOL0     H 1210   9.619   7.317   7.706 -2.1430 -2.7673 -2.1434
    9MOL0     H 1211   9.388   7.271   7.350 -0.0120 -1.3485 -1.0622
    9MOL0     H 1212   9.604   7.777   8.048 -3.8056 -1.4937 -0.6397
    9MOL0     H 1213   9.890   7.838   8.262 -1.2203  0.7481 -0.5448
    9MOL0     H 1214   9.932   7.739   8.128  3.7580  4.3895  0.8608
    9MOL0     H 1215   9.815   7.869   8.102  3.8735 -0.9700 -2.8887
   10MOL0     O 1216   0.092   8.661   4.109 -0.6165  0.1724  0.3882
   10MOL0     C 1217   0.017   8.584   4.163 -0.8488  0.2857 -0.2467
   10MOL0     O 1218  -0.003   8.581   4.300 -0.1399  0.2691 -0.1211
   10MOL0     C 1219   0.098   8.626   4.386  0.0613 -0.3592  0.7388
   10MOL0     C 1220   0.239   8.641   4.363  0.8253 -0.1733  0.1798
   10MOL0     C 1221   0.319   8.668   4.476 -0.6309  0.8147  0.0976
   10MOL0     C 1222   0.266   8.688   4.609 -0.2662  0.8879  0.0202
   10MOL0     O 1223   0.337   8.733   4.718 -0.5220  0.1884 -0.0475
   10MOL0     C 1224   0.462   8.670   4.746  0.5388  0.2220 -1.3750
   10MOL0     C 1225   0.580   8.737   4.693 -0.7693 -1.0134 -0.3511
   10MOL0     C 1226   0.718   8.673   4.729  0.4869  0.1292  0.5473
   10MOL0     C 1227   0.836   8.766   4.713  0.6288  0.7100 -0.0764
   10MOL0     C 1228   0.947   8.696   4.788 -0.4938 -0.4007  0.1348
   10MOL0     C 1229   1.069   8.785   4.776  0.9557  0.4299  0.5384
   10MOL0     C 1230   1.197   8.727   4.836 -0.4122 -0.9565 -0.5381
   10MOL0     C 1231   1.297   8.851   4.834  1.0936 -0.0829 -0.1656
   10MOL0     N 1232   1.408   8.827   4.926 -0.4970  1.0547  0.6400
   10MOL0     C 1233   1.495   8.725   4.919  0.1239  0.1281  0.3227
   10MOL0     C 1234   1.552   8.711   5.041 -0.2361  0.1893  0.7087
   10MOL0     C 1235   1.635   8.600   5.080 -0.2166  0.7017 -0.0510
   10MOL0     C 1236   1.778   8.654   5.049 -0.2402  0.2339 -0.1258
   10MOL0     C 1237   1.885   8.574   5.113  0.1534  0.8252 -0.0216
   10MOL0     C 1238   2.021   8.597   5.048  0.0873  0.2236 -0.5589
   10MOL0     O 1239   2.121   8.512   5.110  0.3704 -0.1431 -1.0106
   10MOL0     C 1240   2.255   8.565   5.125  0.2034 -0.3905 -0.5926
   10MOL0     C 1241   2.312   8.676   5.058  0.1926  0.4823  0.6854
   10MOL0     C 1242   2.448   8.705   5.060 -1.2365 -0.2099 -0.9006
   10MOL0     C 1243   2.539   8.646   5.147  1.1110 -0.2558 -0.6913
   10MOL0     C 1244   2.686   8.684   5.160  0.0605 -0.2651 -0.1410
   10MOL0     O 1245   2.771   8.611   5.241  0.5043 -0.7521  0.1771
   10MOL0     C 1246   2.905   8.628   5.221 -0.0631  1.0295  0.6658
   10MOL0     C 1247   2.988   8.600   5.337  0.7142  0.1638 -0.1053
   10MOL0     C 1248   3.123   8.608   5.329 -0.6273 -0.0684 -0.3114
   10MOL0     C 1249   3.194   8.637   5.205 -0.9250  1.0142 -1.4343
   10MOL0     O 1250   3.331   8.654   5.196 -0.2821 -0.3249 -0.2507
   10MOL0     C 1251   3.407   8.654   5.315 -0.2805 -0.1837  0.3094
   10MOL0     C 1252   3.538   8.717   5.287 -0.8283 -0.2056  0.5385
   10MOL0     C 1253   3.631   8.626   5.212  0.4774  0.8171 -0.3429
   10MOL0     C 1254   3.767   8.692   5.182 -1.1002 -0.3236  0.8623
   10MOL0     C 1255   3.851   8.745   5.303  0.3906  0.0680  0.5880
   10MOL0     C 1256   3.900   8.635   5.396  0.9691  0.0985 -1.6820
   10MOL0     C 1257   3.933   8.682   5.540 -0.4873  0.3089  0.7686
   10MOL0     C 1258   4.052   8.771   5.544 -0.5090 -1.2854  0.4130
   10MOL0    Cl 1259   4.191   8.685   5.479 -0.0434 -0.6776 -0.1676
   10MOL0     C 1260   3.119   8.645   5.089 -0.2119  0.7132  0.0399
   10MOL0     C 1261   2.976   8.639   5.100  0.6175 -0.2322  1.0500
   10MOL0     O 1262   2.722   8.778   5.084 -0.3256  0.1706  0.3685
   10MOL0     C 1263   2.479   8.545   5.220 -1.1661  0.5207  0.5735
   10MOL0     C 1264   2.347   8.498   5.209  0.1073 -0.3326  1.1962
   10MOL0     N 1265   1.521   8.825   5.110  0.1765  0.1199 -0.5643
   10MOL0     N 1266   1.435   8.893   5.042 -0.3950  0.6903  0.1582
   10MOL0     C 1267   0.133   8.675   4.625  0.0271  0.3879 -0.7069
   10MOL0     C 1268   0.047   8.641   4.517  0.0397 -0.5593 -0.0167
   10MOL0     C 1269  -0.072   8.487   4.093  0.0842  0.4606  0.4563
   10MOL0     C 1270  -0.142   8.386   4.169 -0.0237  0.0291 -1.0324
   10MOL0     C 1271  -0.232   8.299   4.115  0.1425  0.8344  0.4568
   10MOL0     C 1272  -0.248   8.291   3.979  0.6039  0.0534  0.0639
   10MOL0     O 1273  -0.311   8.189   3.913 -0.1797 -1.5641 -0.1571
   10MOL0     C 1274  -0.406   8.104   3.982  0.3373  0.4096  0.2447
   10MOL0     C 1275  -0.449   7.993   3.889  0.0311 -0.3318 -0.8768
   10MOL0     C 1276  -0.509   8.042   3.759  0.6580 -0.0958  0.4177
   10MOL0     C 1277  -0.588   7.928   3.682  0.0248  0.1332  0.4021
   10MOL0     C 1278  -0.659   7.992   3.570  0.4060 -0.3551  0.9749
   10MOL0     C 1279  -0.735   8.039   3.482 -0.6903 -0.1847 -0.5732
   10MOL0     C 1280  -0.174   8.385   3.900 -0.9517 -0.1738  0.0229
   10MOL0     C 1281  -0.090   8.484   3.951  0.1338 -0.1016  0.7799
   10MOL0     C 1282  -0.012   8.561   3.843 -0.8829 -0.3946 -0.4802
   10MOL0     H 1283   0.278   8.628   4.263 -0.3293 -1.7243 -0.1170
   10MOL0     H 1284   0.425   8.685   4.459 -0.5703 -2.4089 -4.3636
   10MOL0     H 1285   0.460   8.665   4.855  1.5861  2.5432 -1.1964
   10MOL0     H 1286   0.459   8.566   4.714  0.9541 -0.0555 -0.5252
   10MOL0     H 1287   0.578   8.838   4.734 -1.7482 -1.5485  1.0208
   10MOL0     H 1288   0.570   8.745   4.585  0.2530  0.9770 -0.3459
   10MOL0     H 1289   0.719   8.593   4.654 -1.2596  0.5360  0.0433
   10MOL0     H 1290   0.708   8.628   4.828  0.2326 -1.1321 -0.0340
   10MOL0     H 1291   0.864   8.792   4.611  1.2657 -0.3141 -0.1819
   10MOL0     H 1292   0.818   8.856   4.773 -0.3783  0.4605  0.0170
   10MOL0     H 1293   0.924   8.678   4.894  0.4790  0.6194  0.5354
   10MOL0     H 1294   0.962   8.594   4.750 -1.0619 -0.1731 -0.7085
   10MOL0     H 1295   1.093   8.803   4.671 -0.6690 -0.3001  0.0154
   10MOL0     H 1296   1.038   8.882   4.818 -0.6832 -0.9840  2.8197
   10MOL0     H 1297   1.236   8.641   4.782 -0.2282 -0.8341 -0.6002
   10MOL0     H 1298   1.179   8.708   4.943  0.3858  0.6723 -0.0768
   10MOL0     H 1299   1.330   8.890   4.737  1.6696 -0.6266 -0.1947
   10MOL0     H 1300   1.243   8.932   4.883 -2.3716 -1.9623 -0.5234
   10MOL0     H 1301   1.506   8.654   4.838  0.1139 -1.0630  1.3371
   10MOL0     H 1302   1.618   8.578   5.186  2.0136 -1.0526  0.0078
   10MOL0     H 1303   1.627   8.508   5.020  3.3392  0.2319 -0.0305
   10MOL0     H 1304   1.785   8.643   4.940 -1.7009  0.3069 -0.2532
   10MOL0     H 1305   1.785   8.757   5.085 -1.5705  0.7143 -1.1013
   10MOL0     H 1306   1.864   8.467   5.111 -1.9540  1.1794 -2.5204
   10MOL0     H 1307   1.894   8.608   5.216 -0.3138 -1.3895  0.8075
   10MOL0     H 1308   2.044   8.704   5.051 -2.7018  0.8990  0.6042
   10MOL0     H 1309   2.018   8.572   4.942 -2.0977 -2.3328 -0.0037
   10MOL0     H 1310   2.246   8.727   4.989 -1.0557  0.7100  1.9900
   10MOL0     H 1311   2.476   8.785   4.993 -1.6654  0.0812 -0.7388
   10MOL0     H 1312   2.943   8.586   5.435 -0.6324  0.7461 -0.6217
   10MOL0     H 1313   3.184   8.595   5.417  0.9883  2.6829 -0.8989
   10MOL0     H 1314   3.357   8.714   5.392  3.8681  1.6242  1.8993
   10MOL0     H 1315   3.420   8.548   5.339 -0.6545 -1.2176 -3.4112
   10MOL0     H 1316   3.522   8.808   5.229  1.6494 -0.9151 -1.4236
   10MOL0     H 1317   3.586   8.739   5.383 -0.8383  0.2242  0.4474
   10MOL0     H 1318   3.637   8.528   5.259 -1.3186  1.1305  0.6102
   10MOL0     H 1319   3.574   8.624   5.119 -0.3888  1.9721  0.1364
   10MOL0     H 1320   3.751   8.771   5.108  1.4448 -2.6314 -2.4748
   10MOL0     H 1321   3.821   8.603   5.148 -1.9284 -1.2630  1.9291
   10MOL0     H 1322   3.802   8.827   5.357 -2.0585 -0.8583 -0.0900
   10MOL0     H 1323   3.945   8.783   5.262  0.2098 -0.3188 -0.2073
   10MOL0     H 1324   3.816   8.570   5.424  1.1544  0.7415  0.6007
   10MOL0     H 1325   3.977   8.580   5.342  1.1759  1.3029 -2.6490
   10MOL0     H 1326   3.961   8.590   5.593  0.9359  0.3079  0.0589
   10MOL0     H 1327   3.855   8.725   5.604 -0.9901 -1.3628  1.3103
   10MOL0     H 1328   4.048   8.854   5.472  4.3683 -1.8439 -0.8513
   10MOL0     H 1329   4.067   8.802   5.648 -2.0241  0.2775  0.2142
   10MOL0     H 1330   3.165   8.662   4.993  1.6154  1.3397  0.9862
   10MOL0     H 1331   2.919   8.650   5.008  0.3544 -0.9642  1.1258
   10MOL0     H 1332   2.545   8.495   5.290 -0.3581  0.5993 -0.1194
   10MOL0     H 1333   2.319   8.407   5.260  2.0402  0.5355  4.0376
   10MOL0     H 1334   0.094   8.698   4.723  3.2817  0.8189  0.6213
   10MOL0     H 1335  -0.059   8.630   4.537 -0.3391  0.4641 -1.2905
   10MOL0     H 1336  -0.124   8.376   4.275 -1.9871  0.8240 -0.5784
   10MOL0     H 1337  -0.273   8.225   4.183  3.0553 -0.8699  0.5350
   10MOL0     H 1338  -0.491   8.167   4.010  0.2277  0.8223 -0.9462
   10MOL0     H 1339  -0.365   8.064   4.075 -2.5883  0.9153  1.8571
   10MOL0     H 1340  -0.524   7.926   3.933 -1.1508  1.1854 -0.4897
   10MOL0     H 1341  -0.361   7.933   3.862 -1.8055 -2.0811 -3.6458
   10MOL0     H 1342  -0.431   8.082   3.694 -2.7653  1.5905 -2.9744
   10MOL0     H 1343  -0.576   8.125   3.783 -0.2170 -0.9417  0.9758
   10MOL0     H 1344  -0.514   7.855   3.647 -0.6482 -0.6836  0.6667
   10MOL0     H 1345  -0.656   7.869   3.743  0.5873  1.0900  1.9994
   10MOL0     H 1346  -0.778   8.070   3.389  2.5986  2.2180 -1.4966
   10MOL0     H 1347  -0.184   8.377   3.792  0.2164  0.3689 -0.1375
   10MOL0     H 1348  -0.035   8.668   3.847 -0.9262 -0.4316  0.4054
   10MOL0     H 1349   0.094   8.535   3.840 -0.9242 -0.6098 -0.1503
   10MOL0     H 1350  -0.035   8.529   3.741  1.3875 -1.1373 -0.8042
   11MOL0     O 1351   3.965   9.178   1.619 -0.7649 -0.0679  0.2187
   11MOL0     C 1352   3.918   9.281   1.660  0.1441 -0.4430 -0.0875
   11MOL0     O 1353   3.990   9.367   1.735  0.3392  0.5684  0.3753
   11MOL0     C 1354   4.131   9.352   1.757  0.8342  0.0783  0.0659
   11MOL0     C 1355   4.171   9.367   1.883  0.7162 -0.5410  0.3598
   11MOL0     C 1356   4.296   9.376   1.936  0.4050  0.9503 -0.3831
   11MOL0     C 1357   4.395   9.352   1.846  0.4258  0.9923  0.0232
   11MOL0     O 1358   4.525   9.340   1.869  0.2419 -0.1323  0.1897
   11MOL0     C 1359   4.573   9.352   2.000  0.0226 -0.7354 -0.8182
   11MOL0     C 1360   4.722   9.323   1.997 -1.1364  0.1439 -0.8121
   11MOL0     C 1361   4.796   9.385   2.122 -0.1744 -0.0278 -0.5733
   11MOL0     C 1362   4.930   9.313   2.157  0.4704  0.3762 -0.0421
   11MOL0     C 1363   4.996   9.389   2.269  0.2202 -0.0589  0.1037
   11MOL0     C 1364   5.137   9.351   2.315  0.9156 -0.0801  0.4094
   11MOL0     C 1365   5.149   9.346   2.473 -0.3894  0.1223 -0.2161
   11MOL0     C 1366   5.137   9.491   2.534 -0.2429 -1.1656 -0.6257
   11MOL0     N 1367   5.087   9.495   2.667  1.0402 -0.2897 -0.0734
   11MOL0     C 1368   4.949   9.470   2.699 -0.2478 -0.0327 -0.4388
   11MOL0     C 1369   4.935   9.502   2.833 -0.0989  0.0862  0.6346
   11MOL0     C 1370   4.812   9.495   2.916 -0.0341  0.2531  0.1072
   11MOL0     C 1371   4.727   9.367   2.900 -0.5834  0.0705  0.3366
   11MOL0     C 1372   4.588   9.382   2.961 -0.0390  0.0954  0.5457
   11MOL0     C 1373   4.500   9.455   2.858  0.0024 -1.0012 -0.3711
   11MOL0     O 1374   4.479   9.393   2.732  0.9809  1.1786  0.0403
   11MOL0     C 1375   4.380   9.299   2.716  0.5676 -0.2093 -0.3492
   11MOL0     C 1376   4.348   9.271   2.588 -0.0009 -0.1110 -0.2443
   11MOL0     C 1377   4.247   9.174   2.557  0.2794 -0.0871 -0.6925
   11MOL0     C 1378   4.162   9.115   2.658 -0.1049  0.1075  0.9703
   11MOL0     C 1379   4.053   9.019   2.618 -1.4437 -0.3124 -0.2836
   11MOL0     O 1380   4.047   8.999   2.479  0.8777  0.0210 -0.3642
   11MOL0     C 1381   3.931   8.950   2.424  0.1118 -1.0768  0.5594
   11MOL0     C 1382   3.944   8.881   2.304  0.6559  0.0556  0.4742
   11MOL0     C 1383   3.829   8.853   2.239  0.3540  0.1760 -0.7154
   11MOL0     C 1384   3.697   8.894   2.275  0.5057  0.2800 -0.0184
   11MOL0     O 1385   3.598   8.851   2.190  0.2754  0.5175  0.3884
   11MOL0     C 1386   3.467   8.882   2.234  0.1411 -0.1134 -0.5144
   11MOL0     C 1387   3.375   8.801   2.141  0.2251 -0.2281 -0.3247
   11MOL0     C 1388   3.237   8.841   2.174  0.4740 -0.9112 -0.5810
   11MOL0     C 1389   3.131   8.790   2.075 -0.2634 -0.0864 -0.4124
   11MOL0     C 1390   2.986   8.840   2.107  0.3594 -0.9154  0.7273
   11MOL0     C 1391   2.910   8.785   1.982 -0.1808 -0.1060 -0.3491
   11MOL0     C 1392   2.760   8.815   1.999 -0.2461  0.8853  0.5232
   11MOL0     C 1393   2.675   8.759   1.886 -0.4099  0.6386  0.6276
   11MOL0    Cl 1394   2.716   8.819   1.716  0.2767 -0.6173 -0.1193
   11MOL0     C 1395   3.686   8.973   2.394  0.2896  0.6041 -0.1871
   11MOL0     C 1396   3.802   8.994   2.469  0.7637 -0.7432  0.4363
   11MOL0     O 1397   3.988   8.956   2.705  0.4215 -0.2486 -0.1550
   11MOL0     C 1398   4.203   9.137   2.792 -0.3826 -0.0280  0.0750
   11MOL0     C 1399   4.312   9.226   2.818 -0.9323 -1.0376  0.4641
   11MOL0     N 1400   5.066   9.539   2.882 -1.0161  0.2532  0.0795
   11MOL0     N 1401   5.146   9.529   2.785 -0.5196 -0.8776 -0.3529
   11MOL0     C 1402   4.371   9.335   1.708  0.4713  0.5715  0.3048
   11MOL0     C 1403   4.231   9.335   1.668 -0.8824 -1.1495 -0.1791
   11MOL0     C 1404   3.762   9.281   1.638  0.4773  0.5139 -0.8038
   11MOL0     C 1405   3.708   9.203   1.534  0.6845 -0.4713  0.1861
   11MOL0     C 1406   3.571   9.211   1.501  0.0621  1.5827 -0.1738
   11MOL0     C 1407   3.484   9.294   1.578 -0.3833  0.2064 -0.0098
   11MOL0     O 1408   3.357   9.320   1.535  0.4778  0.5713 -0.2918
   11MOL0     C 1409   3.299   9.237   1.434 -0.4413  0.6867  0.1835
   11MOL0     C 1410   3.152   9.274   1.423  0.5575  0.8217 -0.0080
   11MOL0     C 1411   3.077   9.200   1.307  0.3386  0.4294 -0.9261
   11MOL0     C 1412   3.092   9.269   1.174 -0.1622 -0.3165 -0.0696
   11MOL0     C 1413   3.007   9.197   1.079 -0.6449  0.3862  0.4864
   11MOL0     C 1414   2.959   9.130   0.987  0.7294 -0.6002 -0.0672
   11MOL0     C 1415   3.539   9.373   1.675 -0.9174  0.4109 -0.6815
   11MOL0     C 1416   3.679   9.372   1.711  0.1187  0.3179 -0.4959
   11MOL0     C 1417   3.724   9.463   1.821 -0.2183 -0.4919  0.0309
   11MOL0     H 1418   4.099   9.384   1.962 -2.4018  0.0381 -2.3667
   11MOL0     H 1419   4.306   9.389   2.044 -0.2071 -1.6966  0.0554
   11MOL0     H 1420   4.550   9.448   2.047 -0.2751 -0.2126 -1.9819
   11MOL0     H 1421   4.523   9.273   2.057  0.3376 -1.5564 -1.6489
   11MOL0     H 1422   4.762   9.373   1.908  3.3971 -0.6420  0.5436
   11MOL0     H 1423   4.747   9.217   1.989  2.6537  0.8025  0.2247
   11MOL0     H 1424   4.728   9.375   2.207 -0.2599 -1.7815 -0.8060
   11MOL0     H 1425   4.805   9.490   2.095 -2.6870 -0.1814 -2.3488
   11MOL0     H 1426   4.901   9.212   2.189 -1.0893  0.0885 -2.2172
   11MOL0     H 1427   4.999   9.308   2.073 -2.0583 -0.5955 -2.1920
   11MOL0     H 1428   5.009   9.495   2.244 -1.5279  0.3650  0.7876
   11MOL0     H 1429   4.930   9.381   2.356  0.0226 -2.1366 -0.1857
   11MOL0     H 1430   5.162   9.252   2.275 -0.5697 -0.6470  0.7874
   11MOL0     H 1431   5.205   9.427   2.276  1.4996 -0.2659  1.0566
   11MOL0     H 1432   5.252   9.308   2.473 -0.9735 -1.5685 -1.1995
   11MOL0     H 1433   5.085   9.266   2.511  0.0485 -1.2431 -2.1813
   11MOL0     H 1434   5.235   9.539   2.540 -0.2607 -1.3309  2.5832
   11MOL0     H 1435   5.073   9.550   2.469 -2.5070 -3.2530 -0.4405
   11MOL0     H 1436   4.869   9.440   2.631  1.8151 -2.2577 -2.0510
   11MOL0     H 1437   4.838   9.509   3.021 -1.6045 -1.1353  0.7106
   11MOL0     H 1438   4.751   9.581   2.888 -0.5833  0.2369  1.2330
   11MOL0     H 1439   4.704   9.346   2.795  3.8695 -1.7316 -0.5427
   11MOL0     H 1440   4.773   9.271   2.925 -0.0745 -0.6177 -2.8712
   11MOL0     H 1441   4.597   9.446   3.049 -1.4468  2.9844 -1.2789
   11MOL0     H 1442   4.548   9.281   2.975 -0.9624  0.0052 -2.1452
   11MOL0     H 1443   4.563   9.544   2.845  1.0021 -1.1684  2.4916
   11MOL0     H 1444   4.404   9.473   2.908  1.1478  2.7221  0.8561
   11MOL0     H 1445   4.404   9.320   2.509  2.3220  1.0414  1.9412
   11MOL0     H 1446   4.237   9.144   2.453  3.1618 -0.2986 -0.9785
   11MOL0     H 1447   4.042   8.850   2.269  0.7431 -0.1586  0.9044
   11MOL0     H 1448   3.832   8.793   2.148  1.4046  0.8620 -1.1619
   11MOL0     H 1449   3.446   8.844   2.335  0.9902 -1.8727 -0.9489
   11MOL0     H 1450   3.445   8.988   2.226  1.9952  0.5990  2.2534
   11MOL0     H 1451   3.392   8.827   2.037  0.0971  0.0239 -0.2833
   11MOL0     H 1452   3.388   8.693   2.148 -1.0555 -0.6001 -2.5875
   11MOL0     H 1453   3.201   8.802   2.270 -2.4297  0.5037 -1.0050
   11MOL0     H 1454   3.231   8.948   2.193  0.1115 -1.2803  1.6526
   11MOL0     H 1455   3.131   8.681   2.082 -3.7214 -0.1180  1.2104
   11MOL0     H 1456   3.148   8.816   1.970 -0.4946  2.6367  0.1519
   11MOL0     H 1457   2.980   8.949   2.106  0.5953 -0.8803 -1.0938
   11MOL0     H 1458   2.960   8.802   2.206  1.4000 -1.7308  0.7110
   11MOL0     H 1459   2.957   8.813   1.887  1.3150 -1.0442  0.0834
   11MOL0     H 1460   2.927   8.678   1.987  0.2861 -0.0301 -0.2866
   11MOL0     H 1461   2.749   8.923   2.013  2.2531  1.4200 -0.9960
   11MOL0     H 1462   2.723   8.764   2.088 -5.0294  0.1724 -1.5556
   11MOL0     H 1463   2.684   8.651   1.878  0.5549  0.5208  2.6423
   11MOL0     H 1464   2.573   8.790   1.908  0.1440  2.4162  0.9113
   11MOL0     H 1465   3.589   9.014   2.420  1.1563  4.7890 -2.5909
   11MOL0     H 1466   3.798   9.063   2.553 -1.1856 -0.6388  0.3114
   11MOL0     H 1467   4.143   9.094   2.871 -1.4330  0.6659 -0.3196
   11MOL0     H 1468   4.338   9.222   2.923  4.8356 -4.2455 -0.6847
   11MOL0     H 1469   4.450   9.323   1.635  1.4116  1.7892  1.0789
   11MOL0     H 1470   4.214   9.343   1.561 -0.0962  0.7925 -0.1960
   11MOL0     H 1471   3.772   9.143   1.470  0.3235 -0.7651  0.0970
   11MOL0     H 1472   3.542   9.156   1.412 -1.3292  2.7106 -0.4486
   11MOL0     H 1473   3.310   9.128   1.446 -0.6154  0.7741  1.2653
   11MOL0     H 1474   3.341   9.271   1.339 -0.7015 -0.3670 -0.3278
   11MOL0     H 1475   3.140   9.381   1.405  2.1142  1.0741  0.3495
   11MOL0     H 1476   3.106   9.234   1.514 -1.2228 -4.6099 -2.8195
   11MOL0     H 1477   2.971   9.192   1.330  0.0650  0.9879 -1.9674
   11MOL0     H 1478   3.127   9.103   1.296  0.1223 -0.0325  1.5082
   11MOL0     H 1479   3.047   9.369   1.180  1.1237  0.2639  0.3398
   11MOL0     H 1480   3.189   9.284   1.126 -1.0882  0.9998 -1.6422
   11MOL0     H 1481   2.904   9.077   0.912  0.7132  0.1656 -0.6007
   11MOL0     H 1482   3.479   9.453   1.716 -0.2828  0.5851 -0.0634
   11MOL0     H 1483   3.818   9.514   1.795 -1.9570  1.8754 -2.1521
   11MOL0     H 1484   3.660   9.551   1.835 -0.6026 -0.9816  1.5342
   11MOL0     H 1485   3.746   9.418   1.918 -2.0674  0.9433  1.1855
   12MOL0     O 1486   8.452   0.515   3.956 -0.4115 -0.3355 -0.1656
   12MOL0     C 1487   8.446   0.602   3.867  0.5583  0.7130 -0.3011
   12MOL0     O 1488   8.330   0.639   3.800 -0.4966  0.9941 -0.8040
   12MOL0     C 1489   8.230   0.541   3.797 -0.1220 -0.1646 -0.4496
   12MOL0     C 1490   8.153   0.522   3.907  1.0635  0.1053 -0.8290
   12MOL0     C 1491   8.043   0.429   3.918 -0.3684 -0.1045  0.2435
   12MOL0     C 1492   8.019   0.355   3.804  1.0787 -0.0698  0.5625
   12MOL0     O 1493   7.917   0.257   3.812  0.3132 -0.1115 -0.3869
   12MOL0     C 1494   7.868   0.196   3.689  0.0520  0.6077 -0.6899
   12MOL0     C 1495   7.752   0.097   3.713  0.1500  0.6833 -0.3525
   12MOL0     C 1496   7.646   0.117   3.822 -0.6711  0.7511  0.1075
   12MOL0     C 1497   7.519   0.043   3.783 -0.1153 -0.6968 -0.3496
   12MOL0     C 1498   7.409   0.036   3.889  0.2185  0.3456  1.1684
   12MOL0     C 1499   7.268   0.034   3.825 -0.1102  0.0054 -0.1372
   12MOL0     C 1500   7.221   0.177   3.759  0.3849  0.6470  0.4006
   12MOL0     C 1501   7.076   0.170   3.706  0.0418  0.8253  0.3100
   12MOL0     N 1502   7.065   0.080   3.593 -0.7771  0.0609  0.4721
   12MOL0     C 1503   6.969  -0.014   3.576 -0.2152  0.3137  0.6526
   12MOL0     C 1504   6.988  -0.053   3.445 -0.2886 -0.2406 -0.3263
   12MOL0     C 1505   6.891  -0.142   3.359 -0.5493 -0.0222  0.9162
   12MOL0     C 1506   6.965  -0.270   3.333 -0.1217  0.3676 -0.2733
   12MOL0     C 1507   6.897  -0.360   3.229  0.0151  0.5592 -0.6120
   12MOL0     C 1508   6.994  -0.468   3.190 -0.2338 -0.3206  0.6402
   12MOL0     O 1509   7.093  -0.413   3.093 -1.0441  1.0523  0.3424
   12MOL0     C 1510   7.201  -0.504   3.069  1.3997  0.4609  0.9508
   12MOL0     C 1511   7.226  -0.633   3.111 -0.3086 -0.0927  0.0249
   12MOL0     C 1512   7.345  -0.692   3.091  0.7548  0.4499 -0.2770
   12MOL0     C 1513   7.451  -0.630   3.019  0.4641 -0.9425 -0.2415
   12MOL0     C 1514   7.562  -0.710   2.975  0.3868 -0.3430  0.7452
   12MOL0     O 1515   7.674  -0.641   2.937  0.5012  0.4724 -0.0881
   12MOL0     C 1516   7.795  -0.712   2.928  0.2297  0.3504 -0.2455
   12MOL0     C 1517   7.856  -0.773   3.036 -0.1428  0.3550  0.5305
   12MOL0     C 1518   7.977  -0.829   3.028 -0.2720 -0.1796  0.2597
   12MOL0     C 1519   8.048  -0.822   2.910 -0.4950 -0.7995  0.4457
   12MOL0     O 1520   8.179  -0.876   2.920 -0.3982 -0.4187  0.1122
   12MOL0     C 1521   8.217  -0.959   2.817  0.3403  1.0585 -0.0697
   12MOL0     C 1522   8.337  -1.046   2.883 -0.6919  0.1606  0.1960
   12MOL0     C 1523   8.285  -1.149   2.980  0.1495 -0.0186 -0.4277
   12MOL0     C 1524   8.367  -1.131   3.108 -0.8459  0.4553 -0.0947
   12MOL0     C 1525   8.517  -1.172   3.111  0.2685 -0.2095 -0.1764
   12MOL0     C 1526   8.576  -1.148   3.254 -0.0743 -0.7413 -0.9630
   12MOL0     C 1527   8.720  -1.194   3.269  0.8340  0.1016 -0.0357
   12MOL0     C 1528   8.759  -1.167   3.415  0.1886  0.0644  0.2000
   12MOL0    Cl 1529   8.927  -1.239   3.415 -0.0939  0.0276 -0.4356
   12MOL0     C 1530   7.987  -0.770   2.792  0.6049  0.4780  0.0534
   12MOL0     C 1531   7.859  -0.709   2.806 -0.3413  0.0361 -0.3239
   12MOL0     O 1532   7.562  -0.831   3.004 -1.0100 -0.5881  0.5129
   12MOL0     C 1533   7.427  -0.495   2.980 -0.1511  0.2046 -0.4476
   12MOL0     C 1534   7.304  -0.439   2.996 -0.4718 -0.7400 -0.7044
   12MOL0     N 1535   7.106   0.000   3.396  0.2431 -0.5379  0.6083
   12MOL0     N 1536   7.151   0.081   3.491 -1.0953  0.0602 -0.2219
   12MOL0     C 1537   8.097   0.371   3.689 -0.4287 -0.8091  0.2061
   12MOL0     C 1538   8.195   0.470   3.679  0.2021 -0.0291  0.7108
   12MOL0     C 1539   8.566   0.690   3.841  0.8969  1.1458  0.5653
   12MOL0     C 1540   8.547   0.823   3.805  0.7203 -0.5166  0.1164
   12MOL0     C 1541   8.646   0.914   3.780  0.6094 -0.0223  0.8050
   12MOL0     C 1542   8.780   0.867   3.782 -0.3984  0.4194  0.4838
   12MOL0     O 1543   8.895   0.938   3.754 -0.5566 -0.2397 -0.0545
   12MOL0     C 1544   8.885   1.073   3.707  0.7728 -0.5402 -0.5570
   12MOL0     C 1545   9.022   1.150   3.673 -0.5425  0.8333 -0.8205
   12MOL0     C 1546   9.076   1.088   3.541 -0.0684  0.8101  0.0415
   12MOL0     C 1547   9.173   1.187   3.481 -0.1403  0.1080  0.5319
   12MOL0     C 1548   9.231   1.134   3.349  0.1322 -0.3299  0.2508
   12MOL0     C 1549   9.270   1.069   3.249  0.8776  0.3890  0.0152
   12MOL0     C 1550   8.800   0.733   3.806 -0.1644  0.8988 -0.1891
   12MOL0     C 1551   8.699   0.641   3.843 -0.1635  0.1997  0.3754
   12MOL0     C 1552   8.741   0.500   3.872  0.3935  0.9884 -0.1651
   12MOL0     H 1553   8.149   0.573   4.003  0.7730  0.0100 -0.7888
   12MOL0     H 1554   7.971   0.423   3.998 -0.3175 -2.5330  0.1910
   12MOL0     H 1555   7.835   0.285   3.635 -2.1142  1.5871  1.9917
   12MOL0     H 1556   7.947   0.148   3.630  1.1242  0.1423  1.0390
   12MOL0     H 1557   7.796  -0.001   3.736 -1.4573 -0.1353 -0.6706
   12MOL0     H 1558   7.701   0.090   3.617  3.1191  2.5083 -2.2279
   12MOL0     H 1559   7.625   0.223   3.837  1.1530  1.2521 -0.5876
   12MOL0     H 1560   7.667   0.066   3.916 -1.2156 -2.4483 -1.3565
   12MOL0     H 1561   7.472   0.088   3.695 -1.9634  1.9107  1.8096
   12MOL0     H 1562   7.535  -0.063   3.760 -1.6550 -1.2095  0.7867
   12MOL0     H 1563   7.433  -0.034   3.969  0.7013 -2.0186 -0.9035
   12MOL0     H 1564   7.408   0.128   3.947  1.9924 -1.1338  3.7266
   12MOL0     H 1565   7.268  -0.037   3.742 -1.3225  0.4306 -0.5218
   12MOL0     H 1566   7.210   0.009   3.913 -0.2171  2.4802  0.5551
   12MOL0     H 1567   7.278   0.205   3.670 -1.1464  0.9668 -0.5181
   12MOL0     H 1568   7.232   0.256   3.834 -0.7464  2.0598 -0.8590
   12MOL0     H 1569   7.011   0.143   3.789 -0.0239 -1.9453 -0.5421
   12MOL0     H 1570   7.053   0.265   3.655 -1.4313 -0.7352 -2.1641
   12MOL0     H 1571   6.892  -0.034   3.650 -0.2069 -4.7888 -0.3441
   12MOL0     H 1572   6.797  -0.157   3.413  0.3688  2.7104  3.6074
   12MOL0     H 1573   6.875  -0.087   3.266  5.6273 -0.4480 -0.8850
   12MOL0     H 1574   7.066  -0.250   3.296  1.1515 -0.9583  2.2335
   12MOL0     H 1575   6.979  -0.329   3.424  1.1291 -0.2597 -0.8442
   12MOL0     H 1576   6.855  -0.299   3.148  2.1102  4.4622  0.9819
   12MOL0     H 1577   6.810  -0.400   3.282  1.2023 -1.3521 -0.0066
   12MOL0     H 1578   6.938  -0.551   3.145  0.6288 -0.6161  0.0897
   12MOL0     H 1579   7.041  -0.505   3.282  3.2780 -2.9191 -1.9133
   12MOL0     H 1580   7.151  -0.689   3.165 -0.2833 -2.4159 -2.1520
   12MOL0     H 1581   7.354  -0.790   3.136  2.3621  0.0245 -1.4030
   12MOL0     H 1582   7.797  -0.770   3.127 -0.5965  1.8007  0.2161
   12MOL0     H 1583   8.035  -0.865   3.112  1.3521  1.3998 -0.1393
   12MOL0     H 1584   8.138  -1.031   2.795  0.3258  1.9280 -3.3242
   12MOL0     H 1585   8.249  -0.893   2.736 -0.8858  0.5229 -1.0392
   12MOL0     H 1586   8.387  -1.102   2.804 -0.8363  0.0744  0.1654
   12MOL0     H 1587   8.415  -0.974   2.912  0.8616 -0.5666 -1.9442
   12MOL0     H 1588   8.185  -1.121   3.012 -0.8400 -2.9416 -0.7703
   12MOL0     H 1589   8.284  -1.247   2.932 -0.3198  0.3860 -1.2569
   12MOL0     H 1590   8.312  -1.180   3.189  1.9314 -1.5719  0.7181
   12MOL0     H 1591   8.371  -1.026   3.135 -0.0144 -0.4833  4.0782
   12MOL0     H 1592   8.588  -1.112   3.054  1.9390  0.5610  2.5105
   12MOL0     H 1593   8.518  -1.279   3.089 -2.6538 -0.2213 -0.6443
   12MOL0     H 1594   8.563  -1.042   3.276  1.8286 -0.4158 -1.2301
   12MOL0     H 1595   8.510  -1.195   3.327  0.4856 -1.3288 -0.8279
   12MOL0     H 1596   8.786  -1.147   3.196 -0.4588  0.7897 -0.7973
   12MOL0     H 1597   8.722  -1.299   3.240  0.7106 -0.3493  1.5073
   12MOL0     H 1598   8.777  -1.062   3.438  0.7313  0.6457 -2.4847
   12MOL0     H 1599   8.692  -1.213   3.488  1.1608 -2.8070 -0.5457
   12MOL0     H 1600   8.026  -0.762   2.691  2.0239 -0.7532  0.4634
   12MOL0     H 1601   7.813  -0.663   2.719  3.0821  3.1456 -0.7372
   12MOL0     H 1602   7.506  -0.433   2.940  0.2003  0.6130  0.8404
   12MOL0     H 1603   7.296  -0.334   2.971  2.0625  0.1364  1.6473
   12MOL0     H 1604   8.067   0.315   3.601  0.8327  0.6665 -1.2387
   12MOL0     H 1605   8.247   0.494   3.587  0.7202  3.7638  1.8365
   12MOL0     H 1606   8.445   0.858   3.813  0.9249  0.0461  0.3390
   12MOL0     H 1607   8.615   1.014   3.753  0.6719 -0.3345 -0.5410
   12MOL0     H 1608   8.840   1.131   3.789  2.2057 -0.3603  0.1380
   12MOL0     H 1609   8.827   1.079   3.615 -0.7926 -0.4542  0.3923
   12MOL0     H 1610   9.107   1.142   3.741  2.2274 -1.9205 -4.1789
   12MOL0     H 1611   9.014   1.258   3.656  3.9563  1.3116 -1.2573
   12MOL0     H 1612   8.999   1.072   3.465  0.5621  0.0868 -0.4586
   12MOL0     H 1613   9.130   0.995   3.558 -0.8801  0.3637  0.2635
   12MOL0     H 1614   9.119   1.277   3.452 -2.6060 -1.5767 -0.4609
   12MOL0     H 1615   9.254   1.198   3.554  1.1643  0.5043 -0.9432
   12MOL0     H 1616   9.295   1.011   3.163  2.1488  0.3537  0.3821
   12MOL0     H 1617   8.907   0.713   3.803 -0.0568  1.2952  0.7419
   12MOL0     H 1618   8.736   0.476   3.979 -2.4334 -0.9726 -0.6124
   12MOL0     H 1619   8.660   0.433   3.840 -1.5633  2.0221  2.2605
   12MOL0     H 1620   8.838   0.478   3.828  0.5906  2.9901 -0.8141
   13MOL0     O 1621   5.707   9.165   4.065  0.5854  0.2250  0.4839
   13MOL0     C 1622   5.712   9.045   4.038 -0.5166 -0.2937 -0.1928
   13MOL0     O 1623   5.827   8.978   4.012 -0.4581 -0.0797 -0.0967
   13MOL0     C 1624   5.942   9.053   3.989  0.1960 -0.0004  0.3882
   13MOL0     C 1625   5.952   9.118   3.867 -0.5099 -0.0250 -0.1136
   13MOL0     C 1626   6.074   9.185   3.843  0.5962 -0.7330 -0.1773
   13MOL0     C 1627   6.181   9.187   3.932 -0.3914 -0.6234  0.4087
   13MOL0     O 1628   6.298   9.239   3.894  0.2376  0.5299  0.4245
   13MOL0     C 1629   6.308   9.380   3.917  0.0149  0.1196  0.4297
   13MOL0     C 1630   6.454   9.413   3.903 -0.1104  0.1754 -0.0297
   13MOL0     C 1631   6.538   9.358   4.018  0.2592 -0.1905  1.2325
   13MOL0     C 1632   6.610   9.229   3.984  0.1821 -0.0939  1.4680
   13MOL0     C 1633   6.756   9.238   3.947  0.3272 -0.1823  0.4612
   13MOL0     C 1634   6.797   9.329   3.827  0.4025  0.1480 -1.3004
   13MOL0     C 1635   6.941   9.356   3.837 -0.7116 -1.0726 -0.2752
   13MOL0     C 1636   7.001   9.394   3.715 -0.6002  0.2973 -1.1713
   13MOL0     N 1637   7.149   9.418   3.740  0.1541  0.4739  0.2746
   13MOL0     C 1638   7.252   9.330   3.714  0.2029  0.1729  1.3382
   13MOL0     C 1639   7.361   9.396   3.752  0.2214 -0.4947 -0.1983
   13MOL0     C 1640   7.494   9.325   3.751 -0.3347  0.3262 -1.0712
   13MOL0     C 1641   7.614   9.418   3.797  1.2293  0.5155  0.0612
   13MOL0     C 1642   7.737   9.344   3.835 -0.0792  0.3318  0.3809
   13MOL0     C 1643   7.855   9.440   3.847  0.0034  0.0300 -0.3758
   13MOL0     O 1644   7.889   9.493   3.725  0.3435 -0.6786  0.7639
   13MOL0     C 1645   8.008   9.550   3.694 -0.1761  1.3684  0.0626
   13MOL0     C 1646   8.115   9.553   3.773  0.5296 -0.6889  0.2409
   13MOL0     C 1647   8.227   9.623   3.739 -0.7609 -0.1144  0.3476
   13MOL0     C 1648   8.226   9.691   3.610 -0.9070  0.5236 -0.9043
   13MOL0     C 1649   8.338   9.789   3.587  0.2478 -0.5490  0.0785
   13MOL0     O 1650   8.455   9.765   3.651 -0.1514  0.1179 -0.0607
   13MOL0     C 1651   8.582   9.800   3.614  0.0671 -1.1646 -0.0494
   13MOL0     C 1652   8.679   9.724   3.678  0.3506  0.5931 -0.1795
   13MOL0     C 1653   8.806   9.729   3.637 -0.5192 -0.2163 -0.5690
   13MOL0     C 1654   8.849   9.830   3.543  0.0863 -0.3730 -0.2108
   13MOL0     O 1655   8.978   9.817   3.512 -0.5995 -0.5055 -0.2479
   13MOL0     C 1656   9.011   9.814   3.375 -0.0039 -0.2459  0.6964
   13MOL0     C 1657   9.069   9.675   3.332 -0.7063  0.1111 -0.6610
   13MOL0     C 1658   8.978   9.556   3.347  0.2049 -0.2159 -0.5240
   13MOL0     C 1659   8.945   9.491   3.208  0.7861 -0.6036 -0.0040
   13MOL0     C 1660   8.862   9.370   3.215 -0.4564  0.2339 -0.0351
   13MOL0     C 1661   8.929   9.243   3.287  0.1702 -0.0175  0.7306
   13MOL0     C 1662   8.821   9.130   3.286 -0.6226 -0.3938  0.5639
   13MOL0     C 1663   8.883   8.997   3.333  0.0896  0.2378  0.8617
   13MOL0    Cl 1664   8.907   8.887   3.188  0.5042 -0.0297 -0.2853
   13MOL0     C 1665   8.754   9.911   3.488 -0.3985  0.1251  0.2179
   13MOL0     C 1666   8.619   9.895   3.523  0.2176 -0.4563  0.2168
   13MOL0     O 1667   8.321   9.865   3.489 -0.0055  0.4725 -0.7200
   13MOL0     C 1668   8.132   9.661   3.517  0.5782 -0.3314 -0.8755
   13MOL0     C 1669   8.017   9.600   3.562 -1.0163 -0.8238  0.2111
   13MOL0     N 1670   7.330   9.532   3.788  0.2717  0.1251  0.1847
   13MOL0     N 1671   7.198   9.531   3.794  0.2279  0.8461 -0.0137
   13MOL0     C 1672   6.170   9.113   4.050 -0.0468  0.4169 -0.2907
   13MOL0     C 1673   6.047   9.040   4.083 -0.5318  0.0356  0.7512
   13MOL0     C 1674   5.586   8.958   4.021  0.3720  0.5981 -0.8511
   13MOL0     C 1675   5.578   8.832   4.084  0.9429 -0.3066 -0.1070
   13MOL0     C 1676   5.462   8.765   4.111  0.5080 -0.2451 -0.3526
   13MOL0     C 1677   5.344   8.815   4.064 -0.1679 -0.7235  0.1363
   13MOL0     O 1678   5.221   8.763   4.077 -0.1051  0.3916  0.0482
   13MOL0     C 1679   5.199   8.630   4.043  0.4445  0.5057 -0.0482
   13MOL0     C 1680   5.050   8.598   4.035  0.2823  0.3729 -0.3797
   13MOL0     C 1681   4.983   8.658   3.912  0.2882 -0.8814 -0.4313
   13MOL0     C 1682   4.846   8.598   3.893  0.5379  0.2364 -0.0406
   13MOL0     C 1683   4.785   8.670   3.776  0.7613 -0.7365 -0.2935
   13MOL0     C 1684   4.747   8.730   3.679  0.3566  0.6109 -0.3483
   13MOL0     C 1685   5.340   8.940   4.006 -0.6072 -0.9839 -0.1055
   13MOL0     C 1686   5.460   9.014   3.982 -0.1079 -0.0627 -0.2331
   13MOL0     C 1687   5.444   9.156   3.937  0.5197 -0.5376  1.5366
   13MOL0     H 1688   5.873   9.102   3.795  1.4429 -2.4053 -1.9158
   13MOL0     H 1689   6.075   9.233   3.745 -1.9917  1.0778  0.5514
   13MOL0     H 1690   6.246   9.425   3.839  1.6052  0.1425 -0.8724
   13MOL0     H 1691   6.274   9.416   4.015  0.1335 -0.1244  0.5646
   13MOL0     H 1692   6.468   9.522   3.907 -1.2853  0.4273 -1.7784
   13MOL0     H 1693   6.490   9.374   3.807 -3.5457 -0.9201 -1.0070
   13MOL0     H 1694   6.468   9.342   4.101 -1.1295  2.5459  0.7113
   13MOL0     H 1695   6.607   9.437   4.048  0.0970 -0.2173  1.6851
   13MOL0     H 1696   6.600   9.179   4.081 -0.5123 -0.2670  1.3117
   13MOL0     H 1697   6.558   9.176   3.903  1.5327 -0.4331  0.7872
   13MOL0     H 1698   6.800   9.286   4.035 -2.4340  0.1346  1.7661
   13MOL0     H 1699   6.800   9.140   3.926  2.4503  1.0176 -1.1912
   13MOL0     H 1700   6.764   9.290   3.730  0.6426 -0.3597 -1.1837
   13MOL0     H 1701   6.742   9.423   3.836 -0.4930 -0.4777  0.1613
   13MOL0     H 1702   7.002   9.274   3.878  0.4830  0.3757  0.9325
   13MOL0     H 1703   6.945   9.445   3.899 -2.1321 -0.2060 -1.3716
   13MOL0     H 1704   7.007   9.306   3.651  0.9643  1.0218 -2.0904
   13MOL0     H 1705   6.961   9.480   3.661 -0.1907  1.1585 -0.1503
   13MOL0     H 1706   7.242   9.232   3.669 -0.0762 -0.1448  2.0788
   13MOL0     H 1707   7.479   9.240   3.819  1.5271  0.9315  0.1492
   13MOL0     H 1708   7.504   9.275   3.654  0.3112 -2.5200  0.3407
   13MOL0     H 1709   7.629   9.491   3.717 -0.9521 -0.4392 -1.3354
   13MOL0     H 1710   7.574   9.461   3.889 -0.4406 -0.6694 -0.0685
   13MOL0     H 1711   7.773   9.272   3.762  1.8336  2.8704 -1.3516
   13MOL0     H 1712   7.734   9.290   3.931  0.5523 -1.8525 -0.7671
   13MOL0     H 1713   7.940   9.391   3.895 -1.4798 -2.0220  0.3077
   13MOL0     H 1714   7.824   9.522   3.913  1.3184 -1.0759  1.7189
   13MOL0     H 1715   8.119   9.519   3.876  3.0038  3.4899  1.7822
   13MOL0     H 1716   8.310   9.632   3.808  0.3633  0.4343 -1.0235
   13MOL0     H 1717   8.651   9.645   3.747  0.2903 -0.5141 -1.4363
   13MOL0     H 1718   8.876   9.655   3.675 -2.4309 -0.5449  2.6739
   13MOL0     H 1719   8.927   9.833   3.307  2.0914  1.9009 -1.4974
   13MOL0     H 1720   9.082   9.895   3.356 -0.6798 -0.0082 -1.0278
   13MOL0     H 1721   9.117   9.676   3.234  1.7649  4.8087  0.2853
   13MOL0     H 1722   9.151   9.653   3.402 -1.6753 -0.7962  0.2300
   13MOL0     H 1723   9.030   9.481   3.406 -0.2446 -1.9435 -2.2120
   13MOL0     H 1724   8.889   9.586   3.403  1.3726 -0.7079  1.6771
   13MOL0     H 1725   9.038   9.468   3.155  0.9258  1.9742 -1.0277
   13MOL0     H 1726   8.893   9.570   3.154 -2.0832 -0.8779  2.1114
   13MOL0     H 1727   8.860   9.332   3.112  1.4676  0.5844 -0.2372
   13MOL0     H 1728   8.760   9.390   3.250 -0.3867  2.5217 -0.9407
   13MOL0     H 1729   9.016   9.216   3.227 -0.3840  0.8109 -0.5002
   13MOL0     H 1730   8.959   9.269   3.389 -1.1480  2.2154  0.6334
   13MOL0     H 1731   8.777   9.131   3.185 -2.0181  3.0580  1.0733
   13MOL0     H 1732   8.736   9.158   3.348 -1.7642 -1.5262 -0.4207
   13MOL0     H 1733   8.977   9.017   3.384  1.1375  1.9406 -1.5235
   13MOL0     H 1734   8.819   8.953   3.410  1.0670 -0.5967  1.2132
   13MOL0     H 1735   8.775   9.987   3.413  2.8506  0.1143  0.9728
   13MOL0     H 1736   8.547   9.951   3.464 -1.0651 -3.2464 -1.0491
   13MOL0     H 1737   8.142   9.694   3.414 -0.8106 -0.6606 -1.1323
   13MOL0     H 1738   7.935   9.599   3.491 -1.0416 -0.2382  0.2208
   13MOL0     H 1739   6.257   9.117   4.114 -0.6524  2.3848  0.4835
   13MOL0     H 1740   6.038   8.977   4.171 -0.0566 -0.6984  0.2821
   13MOL0     H 1741   5.660   8.796   4.145  0.8770 -0.2081  0.0423
   13MOL0     H 1742   5.482   8.682   4.178  1.8355 -0.4978 -1.0252
   13MOL0     H 1743   5.245   8.579   4.128  1.5544  1.2826 -0.1571
   13MOL0     H 1744   5.243   8.599   3.948 -1.1470 -1.6956 -0.1540
   13MOL0     H 1745   5.010   8.646   4.125  1.1155 -0.6851  0.5892
   13MOL0     H 1746   5.045   8.489   4.034 -0.5960  0.3704  1.2246
   13MOL0     H 1747   5.048   8.637   3.827  2.4875 -1.4724  1.2849
   13MOL0     H 1748   4.978   8.762   3.944 -1.9566 -0.1138 -2.9919
   13MOL0     H 1749   4.860   8.493   3.868  0.8967 -0.6765  3.3964
   13MOL0     H 1750   4.782   8.610   3.982  1.6631 -1.0731  0.9925
   13MOL0     H 1751   4.735   8.786   3.588 -1.0055 -0.9513 -1.1747
   13MOL0     H 1752   5.241   8.983   3.992 -0.6413 -0.9752  0.1541
   13MOL0     H 1753   5.476   9.228   4.012  2.6404  0.0245  0.2038
   13MOL0     H 1754   5.500   9.185   3.847 -1.1321 -0.1598  0.5920
   13MOL0     H 1755   5.338   9.178   3.923  1.1864  2.0785 -0.0325
   14MOL0     O 1756   7.906   7.649   1.308  0.7858 -0.1736 -0.0256
   14MOL0     C 1757   7.930   7.529   1.281 -0.5623 -0.3423 -0.8231
   14MOL0     O 1758   7.854   7.428   1.312  0.2658 -1.0003  0.4174
   14MOL0     C 1759   7.725   7.460   1.359  0.6949 -0.2000  1.0621
   14MOL0     C 1760   7.632   7.550   1.298 -0.5549  0.3935 -0.6549
   14MOL0     C 1761   7.502   7.583   1.348  0.4984  0.0919  0.0810
   14MOL0     C 1762   7.457   7.514   1.460 -0.2440  0.2287  0.1020
   14MOL0     O 1763   7.330   7.532   1.518 -0.2612 -0.9606  0.0187
   14MOL0     C 1764   7.223   7.588   1.440  0.4337 -0.3165 -0.6100
   14MOL0     C 1765   7.095   7.556   1.525  0.3106  0.0580  0.5367
   14MOL0     C 1766   6.971   7.599   1.440 -0.4622  0.1245  0.5380
   14MOL0     C 1767   6.959   7.521   1.306 -0.3161 -1.2511  0.0465
   14MOL0     C 1768   6.821   7.497   1.266  0.2490  0.3632  0.7916
   14MOL0     C 1769   6.753   7.632   1.232  1.4101 -0.3326 -0.4346
   14MOL0     C 1770   6.631   7.617   1.138  0.9282 -0.0713  0.6081
   14MOL0     C 1771   6.668   7.588   0.989 -0.7497 -0.4678 -0.2840
   14MOL0     N 1772   6.557   7.639   0.900  0.0665  0.2202 -0.0157
   14MOL0     C 1773   6.580   7.691   0.776 -0.6670  1.0659 -0.1825
   14MOL0     C 1774   6.460   7.704   0.721  0.0563  0.6406 -0.0427
   14MOL0     C 1775   6.435   7.754   0.582 -0.0474 -0.2264  0.1608
   14MOL0     C 1776   6.417   7.900   0.595  0.1368  0.0280 -0.4765
   14MOL0     C 1777   6.431   7.968   0.459  0.7521 -0.1608 -0.3509
   14MOL0     C 1778   6.577   7.986   0.404  0.2461  0.0364 -0.5219
   14MOL0     O 1779   6.649   8.059   0.506  0.8908  0.9341  0.2189
   14MOL0     C 1780   6.762   8.123   0.476 -0.4499  0.8840  0.6738
   14MOL0     C 1781   6.838   8.149   0.587  0.0574 -0.1273  0.3090
   14MOL0     C 1782   6.961   8.202   0.582  0.4274 -0.1634  0.3282
   14MOL0     C 1783   7.017   8.231   0.454  0.2692  0.4712  0.4446
   14MOL0     C 1784   7.155   8.286   0.447  0.4922  0.5236  0.5286
   14MOL0     O 1785   7.199   8.319   0.320  0.1673  0.7077 -0.6129
   14MOL0     C 1786   7.321   8.383   0.314 -0.1595 -0.0970  0.0874
   14MOL0     C 1787   7.438   8.302   0.286  0.3888 -0.4420  0.0456
   14MOL0     C 1788   7.567   8.361   0.304 -0.3302 -0.3526  1.0391
   14MOL0     C 1789   7.577   8.499   0.325  1.2719 -0.5063 -0.5085
   14MOL0     O 1790   7.695   8.571   0.336  0.9083 -0.3317  0.2296
   14MOL0     C 1791   7.801   8.496   0.403  0.6539 -0.2372  0.6407
   14MOL0     C 1792   7.924   8.573   0.401 -0.6133  0.3892 -0.1324
   14MOL0     C 1793   8.027   8.536   0.508  0.8866 -0.0256 -0.3809
   14MOL0     C 1794   8.160   8.607   0.508  0.0779 -0.5045 -0.4068
   14MOL0     C 1795   8.256   8.561   0.621  0.4555 -0.4920  0.8250
   14MOL0     C 1796   8.316   8.430   0.600 -0.1302 -0.0515 -0.7149
   14MOL0     C 1797   8.402   8.379   0.721  1.0164  0.6125 -0.1265
   14MOL0     C 1798   8.501   8.478   0.777  0.5312  0.0839  0.1923
   14MOL0    Cl 1799   8.592   8.417   0.924  0.3147  0.2045 -0.0052
   14MOL0     C 1800   7.461   8.572   0.337  0.9272 -0.5761 -0.2152
   14MOL0     C 1801   7.331   8.518   0.336  0.1568 -1.2146  0.1086
   14MOL0     O 1802   7.217   8.301   0.548  0.2830 -0.4854  0.4191
   14MOL0     C 1803   6.941   8.205   0.335 -1.6028 -0.2998 -0.6174
   14MOL0     C 1804   6.816   8.144   0.344  0.6354 -0.1321 -1.4088
   14MOL0     N 1805   6.358   7.665   0.808  0.0656 -0.2439  0.4101
   14MOL0     N 1806   6.420   7.624   0.912 -0.1532  0.0603  0.0466
   14MOL0     C 1807   7.542   7.418   1.517  0.3163 -0.2590  0.7072
   14MOL0     C 1808   7.681   7.398   1.475  0.6399 -0.2384  0.1565
   14MOL0     C 1809   8.060   7.495   1.224  0.4364 -0.1101  0.4407
   14MOL0     C 1810   8.074   7.368   1.169 -0.6020 -0.1019  0.0912
   14MOL0     C 1811   8.189   7.325   1.117 -0.2700  0.5831 -0.1892
   14MOL0     C 1812   8.299   7.412   1.102  0.1837  0.3767 -0.0738
   14MOL0     O 1813   8.424   7.380   1.058 -0.0735 -0.0425 -0.6228
   14MOL0     C 1814   8.440   7.263   0.980  0.5853  0.4099 -0.2279
   14MOL0     C 1815   8.578   7.257   0.923 -1.0479 -0.3698  0.0603
   14MOL0     C 1816   8.670   7.199   1.032  1.4147 -0.5964 -0.1306
   14MOL0     C 1817   8.809   7.170   0.967  1.2050  1.1173  0.1727
   14MOL0     C 1818   8.920   7.161   1.067 -1.0237 -0.5338 -0.4755
   14MOL0     C 1819   9.010   7.144   1.153 -0.0829  0.2713  1.4590
   14MOL0     C 1820   8.286   7.539   1.146  0.1359  0.6344 -1.2550
   14MOL0     C 1821   8.167   7.586   1.207 -0.1931 -0.2428  0.3858
   14MOL0     C 1822   8.178   7.726   1.264  0.1902  0.0247 -0.1001
   14MOL0     H 1823   7.660   7.607   1.210 -0.2430 -0.0109 -0.8217
   14MOL0     H 1824   7.442   7.655   1.293 -0.7123 -0.4782  0.6211
   14MOL0     H 1825   7.233   7.692   1.408 -0.5868 -0.7441 -2.4527
   14MOL0     H 1826   7.225   7.542   1.341 -0.3423  1.2073 -1.3765
   14MOL0     H 1827   7.098   7.617   1.616  1.5661  1.2336 -0.2486
   14MOL0     H 1828   7.089   7.449   1.544 -1.2231  0.1333  0.6301
   14MOL0     H 1829   6.986   7.705   1.418  3.1227 -0.3718  0.0770
   14MOL0     H 1830   6.876   7.593   1.494 -1.8815  1.7525 -1.6023
   14MOL0     H 1831   7.013   7.583   1.233 -0.7265 -0.3674  0.4741
   14MOL0     H 1832   7.007   7.423   1.314 -2.2710 -2.2119  0.5580
   14MOL0     H 1833   6.813   7.431   1.180  0.3242  1.1017  0.2072
   14MOL0     H 1834   6.776   7.440   1.348 -1.4260  0.9399  0.3144
   14MOL0     H 1835   6.710   7.678   1.321  1.3374 -0.9653 -0.1433
   14MOL0     H 1836   6.826   7.704   1.194  0.9053 -1.4338 -3.8459
   14MOL0     H 1837   6.572   7.709   1.143  1.4995  0.4153 -0.9454
   14MOL0     H 1838   6.561   7.538   1.169 -3.1496  1.5651 -3.2216
   14MOL0     H 1839   6.755   7.649   0.962 -2.6788  1.4888 -2.4744
   14MOL0     H 1840   6.693   7.482   0.973  2.8626  0.4071 -1.5160
   14MOL0     H 1841   6.677   7.703   0.728 -0.3356 -0.9703 -0.1045
   14MOL0     H 1842   6.515   7.719   0.517  1.4549  0.2435  1.6979
   14MOL0     H 1843   6.347   7.710   0.533  0.2055  0.9486 -1.4297
   14MOL0     H 1844   6.322   7.930   0.639  1.2687  1.0364  1.4362
   14MOL0     H 1845   6.502   7.930   0.657  1.7867 -2.1581 -1.5223
   14MOL0     H 1846   6.393   8.070   0.469  0.8931  0.1798 -2.7703
   14MOL0     H 1847   6.365   7.908   0.396  0.9685 -0.5395 -0.2184
   14MOL0     H 1848   6.580   8.046   0.313  1.4982  1.1070  0.1850
   14MOL0     H 1849   6.623   7.888   0.385 -2.2141 -0.8702 -2.1841
   14MOL0     H 1850   6.782   8.148   0.680 -1.8718  0.2930 -0.7905
   14MOL0     H 1851   7.011   8.223   0.675 -0.1274 -0.4856  0.7084
   14MOL0     H 1852   7.431   8.195   0.267 -1.8272  0.1749 -3.4782
   14MOL0     H 1853   7.654   8.297   0.291 -0.5044 -0.9241  2.4433
   14MOL0     H 1854   7.786   8.491   0.511  1.4954  0.5740  0.8091
   14MOL0     H 1855   7.815   8.396   0.361  0.3087  0.3354 -0.9236
   14MOL0     H 1856   7.973   8.562   0.304 -0.3688  1.1317 -0.0988
   14MOL0     H 1857   7.886   8.674   0.415 -0.7523  0.5082 -1.2999
   14MOL0     H 1858   7.994   8.548   0.612  2.0908 -2.4367  0.3540
   14MOL0     H 1859   8.043   8.428   0.496  2.7840  0.1105  0.6309
   14MOL0     H 1860   8.139   8.714   0.515  0.6717 -0.3691 -0.7127
   14MOL0     H 1861   8.205   8.587   0.411  0.8740 -1.5328  0.1487
   14MOL0     H 1862   8.206   8.550   0.717  0.1750 -2.0546  0.5250
   14MOL0     H 1863   8.334   8.638   0.627 -3.6901  4.2483  0.6306
   14MOL0     H 1864   8.243   8.355   0.569  1.8585 -2.7780  0.7523
   14MOL0     H 1865   8.387   8.437   0.516  0.0127  0.9373 -0.5208
   14MOL0     H 1866   8.463   8.291   0.698  0.2316  0.1589 -0.5121
   14MOL0     H 1867   8.338   8.345   0.803  1.9552 -3.5095 -0.8552
   14MOL0     H 1868   8.574   8.496   0.698  1.0218 -5.1228 -0.9148
   14MOL0     H 1869   8.448   8.568   0.810 -2.7128 -1.6658  0.1928
   14MOL0     H 1870   7.467   8.680   0.341 -0.8048 -0.4579 -0.0725
   14MOL0     H 1871   7.240   8.572   0.358  1.1566  0.1914  0.8988
   14MOL0     H 1872   6.986   8.208   0.237 -0.4961 -1.4582 -0.1629
   14MOL0     H 1873   6.766   8.112   0.253 -2.6043 -0.3119  0.3004
   14MOL0     H 1874   7.498   7.372   1.605 -0.1489  1.6727  1.5277
   14MOL0     H 1875   7.740   7.341   1.546 -0.5586  0.3542  1.6915
   14MOL0     H 1876   7.997   7.292   1.168 -1.1262  0.4215 -0.1749
   14MOL0     H 1877   8.201   7.222   1.086  1.3608  0.5757  0.3764
   14MOL0     H 1878   8.366   7.250   0.900  0.3259 -2.4980  0.3860
   14MOL0     H 1879   8.430   7.179   1.048 -1.4932  1.8057  1.2932
   14MOL0     H 1880   8.611   7.357   0.891 -3.3809  0.6829  0.7308
   14MOL0     H 1881   8.581   7.192   0.835 -2.0962  1.1615 -1.1515
   14MOL0     H 1882   8.637   7.106   1.080  3.7120 -1.8878 -0.8494
   14MOL0     H 1883   8.682   7.267   1.116 -1.2017 -0.6183  0.3391
   14MOL0     H 1884   8.806   7.072   0.919 -1.2256  1.9549 -1.5621
   14MOL0     H 1885   8.830   7.244   0.890 -0.8059  1.5222 -0.0458
   14MOL0     H 1886   9.086   7.119   1.224  0.8389 -2.1221 -0.2431
   14MOL0     H 1887   8.372   7.605   1.140  1.4312 -0.3372  3.1410
   14MOL0     H 1888   8.154   7.730   1.370  0.5898 -0.3212  0.0082
   14MOL0     H 1889   8.280   7.761   1.243  1.0885 -2.0725  0.4957
   14MOL0     H 1890   8.107   7.784   1.204 -1.1968 -0.6642  0.8251
   15MOL0     O 1891   5.661   1.499   7.542  0.6725 -0.6444 -0.1956
   15MOL0     C 1892   5.667   1.590   7.621  0.5106  0.1258 -1.0417
   15MOL0     O 1893   5.587   1.702   7.624  1.0894  0.4724 -0.2005
   15MOL0     C 1894   5.518   1.738   7.512  0.4272  0.1321  0.8163
   15MOL0     C 1895   5.406   1.652   7.471  0.6164 -0.6380  0.5344
   15MOL0     C 1896   5.327   1.687   7.362 -0.0750 -0.1266  0.3113
   15MOL0     C 1897   5.352   1.799   7.286  0.9785 -0.2300  0.2636
   15MOL0     O 1898   5.276   1.804   7.167 -0.0582 -0.9887 -0.0647
   15MOL0     C 1899   5.277   1.932   7.100 -1.0415 -0.0333  0.5713
   15MOL0     C 1900   5.181   1.940   6.990  0.1214 -0.7577 -0.4777
   15MOL0     C 1901   5.231   1.903   6.860  0.7190  0.4490  0.6109
   15MOL0     C 1902   5.104   1.902   6.766  0.2192  0.2204  0.5539
   15MOL0     C 1903   5.035   1.762   6.761 -1.5140  0.0694 -0.7813
   15MOL0     C 1904   4.897   1.762   6.718 -0.0678 -0.3614  0.3864
   15MOL0     C 1905   4.853   1.620   6.677 -0.4812  0.5431  0.2236
   15MOL0     C 1906   4.702   1.585   6.645  0.3623 -0.3637  0.5539
   15MOL0     N 1907   4.647   1.449   6.611  0.0723  0.1126 -0.5289
   15MOL0     C 1908   4.524   1.427   6.546 -1.2990  0.0655  0.4616
   15MOL0     C 1909   4.479   1.307   6.582  0.2051  0.8754 -0.6807
   15MOL0     C 1910   4.349   1.245   6.546 -0.9030 -1.8771  0.0486
   15MOL0     C 1911   4.242   1.285   6.643  0.0013 -0.2196 -0.5116
   15MOL0     C 1912   4.105   1.252   6.575 -0.6165  0.5340 -0.3455
   15MOL0     C 1913   3.991   1.226   6.688 -0.3383  0.2141 -0.8535
   15MOL0     O 1914   3.875   1.160   6.632  0.9863 -0.0464 -0.0789
   15MOL0     C 1915   3.756   1.148   6.696  0.7907 -0.1684  0.8369
   15MOL0     C 1916   3.749   1.128   6.838  1.0355 -0.2481  0.0808
   15MOL0     C 1917   3.628   1.127   6.912  0.2357 -0.5524 -0.1656
   15MOL0     C 1918   3.504   1.146   6.846  0.4379 -0.1910 -0.3469
   15MOL0     C 1919   3.368   1.146   6.915 -1.0899 -0.7402 -0.5952
   15MOL0     O 1920   3.269   1.159   6.824  0.0653 -0.5141 -0.1962
   15MOL0     C 1921   3.144   1.109   6.860 -0.6949  0.3215  0.2528
   15MOL0     C 1922   3.092   1.019   6.771  0.3512  0.4717  0.4011
   15MOL0     C 1923   2.964   0.974   6.780  1.0750 -0.3377 -0.3793
   15MOL0     C 1924   2.876   1.021   6.889  0.1223  0.1673  0.4261
   15MOL0     O 1925   2.748   0.966   6.887  0.5719  0.2893 -0.3790
   15MOL0     C 1926   2.658   1.006   6.984 -1.1344  0.3326  0.0190
   15MOL0     C 1927   2.542   0.920   6.957 -0.7768 -0.2223 -0.1183
   15MOL0     C 1928   2.420   0.979   7.037  1.3043 -0.4351  0.2397
   15MOL0     C 1929   2.400   0.925   7.181 -0.9768 -0.9091  0.2218
   15MOL0     C 1930   2.301   1.007   7.263 -0.6041  0.1686 -0.7144
   15MOL0     C 1931   2.326   0.995   7.420  0.2382 -0.4101 -0.0582
   15MOL0     C 1932   2.380   0.863   7.483  0.3041  0.0328  0.3548
   15MOL0     C 1933   2.392   0.878   7.635 -0.3991  0.1002 -1.1777
   15MOL0    Cl 1934   2.382   0.728   7.729 -0.0647 -0.9157  0.0380
   15MOL0     C 1935   2.931   1.108   6.983 -0.0948 -0.0926  0.5030
   15MOL0     C 1936   3.065   1.145   6.972  0.3781 -0.4310 -0.3834
   15MOL0     O 1937   3.362   1.124   7.038  0.2095 -0.6559  0.7404
   15MOL0     C 1938   3.512   1.155   6.705  0.5040 -0.2620  0.1040
   15MOL0     C 1939   3.632   1.155   6.635 -0.5197  0.2058  0.4894
   15MOL0     N 1940   4.563   1.257   6.683 -0.7272 -0.2702  0.0962
   15MOL0     N 1941   4.662   1.336   6.688  0.1208 -0.4706 -0.1521
   15MOL0     C 1942   5.456   1.881   7.326  0.1743 -1.1083 -0.0184
   15MOL0     C 1943   5.538   1.855   7.434 -0.2607  0.7935 -0.1267
   15MOL0     C 1944   5.776   1.591   7.738 -0.1780 -0.2802 -0.7632
   15MOL0     C 1945   5.749   1.661   7.858  0.1762 -0.4245  0.1225
   15MOL0     C 1946   5.845   1.678   7.961 -0.0062  0.1433 -0.3669
   15MOL0     C 1947   5.972   1.632   7.942 -0.2881 -0.7515  0.5846
   15MOL0     O 1948   6.054   1.657   8.045 -0.4714 -0.3065 -0.3168
   15MOL0     C 1949   6.194   1.669   8.024 -0.2392 -0.2293 -0.6635
   15MOL0     C 1950   6.223   1.786   7.935  0.0281  0.1453  0.1468
   15MOL0     C 1951   6.380   1.804   7.929 -0.4576 -0.0922 -0.1017
   15MOL0     C 1952   6.444   1.867   8.049  0.8241  0.5301 -0.8088
   15MOL0     C 1953   6.586   1.879   8.029  0.5960 -0.1604 -0.9106
   15MOL0     C 1954   6.702   1.895   8.011  0.8594  0.3129  0.6665
   15MOL0     C 1955   6.001   1.560   7.829  0.7256  0.1991  0.5792
   15MOL0     C 1956   5.905   1.535   7.727  0.1154 -0.2990 -0.4998
   15MOL0     C 1957   5.951   1.455   7.607  0.7721 -0.6022  0.0583
   15MOL0     H 1958   5.382   1.561   7.524 -1.0148 -0.2781  0.4535
   15MOL0     H 1959   5.256   1.611   7.328  3.0313 -3.0992 -0.0916
   15MOL0     H 1960   5.263   2.005   7.180  1.0939 -0.9396  1.8584
   15MOL0     H 1961   5.381   1.943   7.070 -1.7116  5.2838 -0.8460
   15MOL0     H 1962   5.143   2.043   6.980  0.8637 -0.3271  0.9035
   15MOL0     H 1963   5.100   1.873   7.019  2.5471 -3.7001 -0.0725
   15MOL0     H 1964   5.288   1.809   6.862 -0.5341 -0.3645 -0.2312
   15MOL0     H 1965   5.302   1.980   6.828  1.5801  0.4331  2.3652
   15MOL0     H 1966   5.028   1.976   6.796  0.3676  0.1338  1.1542
   15MOL0     H 1967   5.128   1.925   6.662  0.0292  0.6583  0.6041
   15MOL0     H 1968   5.094   1.699   6.694  3.2762  1.5913  1.5352
   15MOL0     H 1969   5.036   1.712   6.859 -0.5948 -0.0525 -0.8488
   15MOL0     H 1970   4.832   1.806   6.794  1.2164  2.4378  0.0081
   15MOL0     H 1971   4.895   1.824   6.628 -3.0727 -0.9182 -0.0362
   15MOL0     H 1972   4.886   1.549   6.753 -0.9617  2.5692  2.4646
   15MOL0     H 1973   4.904   1.612   6.581  4.6826 -4.6800  2.7861
   15MOL0     H 1974   4.654   1.616   6.738  1.0741  1.5232  0.3374
   15MOL0     H 1975   4.671   1.650   6.563  2.2279 -0.7765 -0.5510
   15MOL0     H 1976   4.483   1.497   6.473  1.3980  0.7279 -0.5380
   15MOL0     H 1977   4.312   1.267   6.446 -0.4512 -0.4488  0.1756
   15MOL0     H 1978   4.361   1.137   6.557  1.6583 -1.6425  0.1953
   15MOL0     H 1979   4.270   1.225   6.730  2.3854  0.0640 -1.0164
   15MOL0     H 1980   4.247   1.390   6.675 -2.4412 -0.1058 -0.3106
   15MOL0     H 1981   4.117   1.160   6.517 -2.6906  0.1682 -0.2814
   15MOL0     H 1982   4.067   1.333   6.512 -2.2379 -2.8842 -4.2531
   15MOL0     H 1983   3.959   1.314   6.745  0.3822 -2.2981  4.0188
   15MOL0     H 1984   4.033   1.154   6.759  0.2318 -1.3838 -2.7184
   15MOL0     H 1985   3.838   1.121   6.899  0.1543 -0.9445  1.3311
   15MOL0     H 1986   3.627   1.128   7.020 -1.2544  0.1942 -0.1758
   15MOL0     H 1987   3.154   0.994   6.686  0.2008  1.2495  0.0498
   15MOL0     H 1988   2.924   0.902   6.710 -2.8320 -1.5455  2.6919
   15MOL0     H 1989   2.703   0.983   7.081 -0.5675 -1.8867 -0.7022
   15MOL0     H 1990   2.637   1.113   6.982 -0.1266  0.5149 -1.6793
   15MOL0     H 1991   2.522   0.910   6.850  0.5910  0.5746 -0.4782
   15MOL0     H 1992   2.560   0.814   6.979  2.5656 -0.2614 -2.2536
   15MOL0     H 1993   2.428   1.088   7.029  0.6714 -0.3401  0.7833
   15MOL0     H 1994   2.330   0.951   6.982  3.0699  0.4412 -3.3663
   15MOL0     H 1995   2.499   0.942   7.224 -1.1640  0.7435  0.0890
   15MOL0     H 1996   2.384   0.817   7.184 -1.2111 -0.8540  1.2777
   15MOL0     H 1997   2.200   0.971   7.240  0.6301 -2.6258 -2.0943
   15MOL0     H 1998   2.306   1.113   7.237 -4.1989  0.4976 -0.6416
   15MOL0     H 1999   2.407   1.066   7.444  2.3632 -1.6125 -3.0930
   15MOL0     H 2000   2.236   1.022   7.477  1.2998  1.2887  0.9409
   15MOL0     H 2001   2.485   0.853   7.455  0.1243  0.6634 -0.5784
   15MOL0     H 2002   2.322   0.774   7.455 -0.1514 -0.1200  1.6830
   15MOL0     H 2003   2.487   0.924   7.664  0.2557 -2.1538  0.5570
   15MOL0     H 2004   2.305   0.933   7.674 -0.4160  1.3686 -2.9129
   15MOL0     H 2005   2.877   1.155   7.064 -3.3622  3.1502 -3.1603
   15MOL0     H 2006   3.106   1.206   7.052 -0.3480 -0.0538 -0.2965
   15MOL0     H 2007   3.435   1.146   6.628  1.2716 -4.0273 -0.4186
   15MOL0     H 2008   3.630   1.160   6.527  0.7476 -1.3185  0.3576
   15MOL0     H 2009   5.491   1.967   7.269 -0.9224 -0.3705  0.3664
   15MOL0     H 2010   5.618   1.926   7.456  0.8435 -0.4540  0.0328
   15MOL0     H 2011   5.649   1.701   7.870 -0.3549 -2.3112  2.9848
   15MOL0     H 2012   5.818   1.736   8.049 -0.0918 -1.0977  0.4527
   15MOL0     H 2013   6.244   1.584   7.977  2.0258  2.0992 -2.8538
   15MOL0     H 2014   6.244   1.676   8.121 -0.8542 -0.9352 -0.2802
   15MOL0     H 2015   6.177   1.878   7.973  1.4385  0.1863  1.9236
   15MOL0     H 2016   6.183   1.762   7.836  3.6654 -0.2404 -1.3850
   15MOL0     H 2017   6.410   1.862   7.841  2.5198 -1.9037 -0.3854
   15MOL0     H 2018   6.423   1.706   7.911 -2.6123 -1.7147  2.7492
   15MOL0     H 2019   6.407   1.970   8.061 -0.5902 -0.0997  0.5910
   15MOL0     H 2020   6.423   1.810   8.140 -0.4699 -0.1707 -1.5193
   15MOL0     H 2021   6.808   1.899   7.998  0.5589  2.4872 -2.1723
   15MOL0     H 2022   6.104   1.527   7.819  0.4813  0.2380 -4.0644
   15MOL0     H 2023   5.952   1.527   7.525 -0.8190 -1.5505 -0.8480
   15MOL0     H 2024   6.053   1.418   7.622  1.3062  1.2128  1.1157
   15MOL0     H 2025   5.880   1.379   7.573  0.6483 -0.2670 -0.4422
   16MOL0     O 2026   9.294   2.961   5.319  0.1849  1.0946  0.2142
   16MOL0     C 2027   9.250   3.075   5.281 -0.1412  1.2965  0.6410
   16MOL0     O 2028   9.270   3.194   5.336 -0.0858  0.0292 -0.2005
   16MOL0     C 2029   9.295   3.197   5.473 -0.5476  0.0554  0.3344
   16MOL0     C 2030   9.201   3.158   5.577 -0.7249  0.2897  0.4318
   16MOL0     C 2031   9.225   3.156   5.714  0.1058 -1.2262 -0.4772
   16MOL0     C 2032   9.351   3.201   5.756  0.3329 -1.1627 -0.0327
   16MOL0     O 2033   9.391   3.222   5.890  0.0799  0.6349  0.0388
   16MOL0     C 2034   9.302   3.276   5.985  0.2690  0.6923  0.3555
   16MOL0     C 2035   9.378   3.336   6.107 -1.1113 -0.0311  1.0232
   16MOL0     C 2036   9.490   3.427   6.066  0.5189 -0.6898 -0.3741
   16MOL0     C 2037   9.569   3.481   6.183 -0.3526 -0.4225 -0.0761
   16MOL0     C 2038   9.678   3.572   6.115 -0.5655  0.1993  0.0135
   16MOL0     C 2039   9.801   3.612   6.205 -0.1633 -0.8393  0.3603
   16MOL0     C 2040   9.928   3.643   6.118  0.0658  0.9990 -0.1972
   16MOL0     C 2041   9.911   3.769   6.032 -0.3983  0.5313  0.8119
   16MOL0     N 2042   9.890   3.888   6.110  0.9672 -0.1741  0.2815
   16MOL0     C 2043   9.991   3.954   6.174  0.9432 -0.8329 -0.2295
   16MOL0     C 2044   9.932   4.071   6.220 -0.2084  0.2999  1.0432
   16MOL0     C 2045  10.004   4.178   6.293 -0.5491  0.2034 -0.0903
   16MOL0     C 2046  10.021   4.293   6.204  0.4358 -0.4903 -0.1186
   16MOL0     C 2047  10.027   4.430   6.289 -1.0094 -0.1867  0.8595
   16MOL0     C 2048  10.028   4.549   6.188  0.5279 -0.0768  0.3123
   16MOL0     O 2049  10.053   4.670   6.269 -0.4247 -0.0337  0.4969
   16MOL0     C 2050  10.122   4.777   6.213 -0.2031 -0.4673  0.6681
   16MOL0     C 2051  10.119   4.813   6.074 -0.7909  1.4269  0.6328
   16MOL0     C 2052  10.185   4.929   6.033 -0.5360 -0.0796  1.0098
   16MOL0     C 2053  10.255   5.011   6.121  0.0879  0.7379  0.3179
   16MOL0     C 2054  10.344   5.115   6.082 -0.3809 -0.2933 -0.3505
   16MOL0     O 2055  10.360   5.131   5.945 -0.1230 -0.1721  0.6629
   16MOL0     C 2056  10.447   5.224   5.895  0.3995  1.0405  0.1535
   16MOL0     C 2057  10.584   5.194   5.906 -1.2611 -0.0485  0.0252
   16MOL0     C 2058  10.678   5.280   5.845 -1.2678 -0.1030 -0.3644
   16MOL0     C 2059  10.632   5.405   5.786  0.0246  0.6416  0.1329
   16MOL0     O 2060  10.721   5.495   5.743  0.4871 -0.8498 -0.6151
   16MOL0     C 2061  10.817   5.539   5.843  0.1027  0.1441 -0.1206
   16MOL0     C 2062  10.957   5.510   5.795 -0.5259 -0.3232  0.3502
   16MOL0     C 2063  11.058   5.578   5.881  0.6373  0.0579  0.1105
   16MOL0     C 2064  11.187   5.516   5.837  0.1144  0.5862  0.2818
   16MOL0     C 2065  11.312   5.553   5.916 -0.5629  0.2891  0.2512
   16MOL0     C 2066  11.446   5.506   5.858  0.2529  0.7265 -0.5492
   16MOL0     C 2067  11.468   5.349   5.872  0.3531  0.3205 -0.2529
   16MOL0     C 2068  11.607   5.294   5.837 -0.1555 -0.2044  0.4030
   16MOL0    Cl 2069  11.614   5.116   5.862 -0.4224  0.1328  0.2890
   16MOL0     C 2070  10.499   5.419   5.758  0.4931  0.9935 -0.0016
   16MOL0     C 2071  10.403   5.335   5.812  0.0388 -0.2713 -1.0513
   16MOL0     O 2072  10.395   5.198   6.159  1.0652  0.3720 -0.1097
   16MOL0     C 2073  10.232   4.986   6.259  0.7086 -0.6578  0.2227
   16MOL0     C 2074  10.167   4.876   6.300  0.7882  0.5845 -0.6240
   16MOL0     N 2075   9.797   4.055   6.194 -0.1589 -0.1470 -0.3064
   16MOL0     N 2076   9.769   3.949   6.132  0.5184 -0.2075  0.0307
   16MOL0     C 2077   9.446   3.228   5.657 -0.0552 -0.2333  0.0033
   16MOL0     C 2078   9.419   3.228   5.517  0.7606  0.1390  0.0780
   16MOL0     C 2079   9.179   3.078   5.153  0.6819  1.3389  0.5332
   16MOL0     C 2080   9.232   3.142   5.042  0.2964 -0.2522 -0.2078
   16MOL0     C 2081   9.172   3.133   4.916 -0.8978  0.0769  0.1958
   16MOL0     C 2082   9.059   3.057   4.892 -0.0246  0.0190 -0.2989
   16MOL0     O 2083   8.994   3.039   4.770  0.6120  0.5951  0.1517
   16MOL0     C 2084   9.046   3.102   4.647 -0.1606  0.9937 -0.2660
   16MOL0     C 2085   8.986   3.241   4.639 -0.7092 -0.6153  0.4188
   16MOL0     C 2086   8.834   3.253   4.617  0.1946  0.0968 -0.6330
   16MOL0     C 2087   8.754   3.230   4.736  0.0451 -0.3604  0.5445
   16MOL0     C 2088   8.610   3.221   4.719  0.0236  0.1398  1.5465
   16MOL0     C 2089   8.495   3.246   4.686 -0.0110  0.1302 -0.5493
   16MOL0     C 2090   8.997   3.000   5.002  0.5078  0.2840  0.0172
   16MOL0     C 2091   9.055   3.008   5.133 -1.0030  0.6291  0.2546
   16MOL0     C 2092   8.973   2.955   5.240 -0.0055 -0.2377 -0.3796
   16MOL0     H 2093   9.102   3.137   5.540  0.2170  0.1691 -2.2599
   16MOL0     H 2094   9.150   3.121   5.784  2.6834 -0.7657  2.7328
   16MOL0     H 2095   9.234   3.344   5.934  0.9230  0.6034 -0.6524
   16MOL0     H 2096   9.229   3.198   6.012 -1.7896  2.4409  0.1055
   16MOL0     H 2097   9.422   3.249   6.155 -1.3305 -1.0210 -0.4832
   16MOL0     H 2098   9.311   3.391   6.174 -1.8784  0.0159  0.2358
   16MOL0     H 2099   9.442   3.497   5.997  0.0434 -2.1489 -1.5835
   16MOL0     H 2100   9.559   3.371   6.002  1.4004  1.3582 -1.3261
   16MOL0     H 2101   9.497   3.529   6.251  0.1251 -0.7610  0.6893
   16MOL0     H 2102   9.620   3.404   6.242  0.2614  1.3736  1.8609
   16MOL0     H 2103   9.720   3.519   6.028  1.3581 -1.5559  1.9118
   16MOL0     H 2104   9.629   3.663   6.078  0.4966  2.0419  2.8041
   16MOL0     H 2105   9.779   3.702   6.263  0.4701 -0.9179  0.7361
   16MOL0     H 2106   9.832   3.539   6.280  0.0906  3.4568  4.9648
   16MOL0     H 2107   9.962   3.556   6.062 -0.8945 -1.0820  2.2517
   16MOL0     H 2108  10.016   3.648   6.183 -0.2429 -0.3024  0.3555
   16MOL0     H 2109   9.990   3.783   5.958 -1.1653 -2.3132 -0.6731
   16MOL0     H 2110   9.832   3.746   5.960  0.3815 -1.2896  0.4697
   16MOL0     H 2111  10.095   3.926   6.191  1.9366  2.6765  0.2191
   16MOL0     H 2112   9.933   4.203   6.372  0.4754  0.6510  0.7137
   16MOL0     H 2113  10.090   4.133   6.343 -3.1738 -1.8452  2.9608
   16MOL0     H 2114  10.114   4.283   6.148  2.2527 -2.9262  3.0404
   16MOL0     H 2115   9.931   4.307   6.142 -0.2153 -3.4634 -0.0205
   16MOL0     H 2116  10.121   4.430   6.345 -0.8469 -0.3806  0.5852
   16MOL0     H 2117   9.943   4.444   6.358 -0.5503 -2.5245  2.0195
   16MOL0     H 2118   9.937   4.559   6.128  0.7315 -0.4822 -0.0654
   16MOL0     H 2119  10.110   4.529   6.119  0.8580  1.4467  0.2242
   16MOL0     H 2120  10.070   4.753   5.997  0.8466 -0.2587  0.8360
   16MOL0     H 2121  10.174   4.942   5.926  3.0861  1.2211  0.6467
   16MOL0     H 2122  10.627   5.106   5.954  1.1734  0.7041 -0.6275
   16MOL0     H 2123  10.783   5.267   5.868 -1.3134  0.2966  0.0868
   16MOL0     H 2124  10.810   5.647   5.861 -1.9797  0.3068 -1.5259
   16MOL0     H 2125  10.792   5.485   5.935  1.5636 -0.3736  0.0022
   16MOL0     H 2126  10.963   5.401   5.789 -0.7604 -0.2611 -1.9001
   16MOL0     H 2127  10.969   5.557   5.698 -0.7787 -1.1846 -0.1117
   16MOL0     H 2128  11.058   5.687   5.872 -3.7229  0.0723 -2.9180
   16MOL0     H 2129  11.045   5.547   5.985  2.6618 -3.2209 -0.4760
   16MOL0     H 2130  11.197   5.550   5.734 -2.0036  1.4738  0.3055
   16MOL0     H 2131  11.190   5.407   5.846  2.1184  0.4076 -1.8972
   16MOL0     H 2132  11.308   5.518   6.019 -1.5183  1.0347  0.4846
   16MOL0     H 2133  11.307   5.662   5.925 -4.7212  0.2357  0.5465
   16MOL0     H 2134  11.447   5.519   5.749  0.7514 -0.0267 -0.6354
   16MOL0     H 2135  11.523   5.556   5.917 -1.5385  0.5577  2.1187
   16MOL0     H 2136  11.401   5.303   5.799 -0.1537 -0.5351  0.7218
   16MOL0     H 2137  11.433   5.309   5.968 -1.7415  0.5943 -0.8392
   16MOL0     H 2138  11.613   5.307   5.729  2.2277 -2.8358  0.0859
   16MOL0     H 2139  11.691   5.347   5.884 -0.2241 -0.5766  0.9541
   16MOL0     H 2140  10.471   5.506   5.699 -0.8685  1.5460  1.3807
   16MOL0     H 2141  10.298   5.358   5.793  0.4144  0.5071 -2.3262
   16MOL0     H 2142  10.270   5.057   6.332  0.0075  1.9375 -1.7755
   16MOL0     H 2143  10.150   4.864   6.407  2.0457  0.3629 -0.4375
   16MOL0     H 2144   9.546   3.249   5.694 -1.3562  0.0112  3.7906
   16MOL0     H 2145   9.497   3.252   5.446  0.6239  0.3660  0.0052
   16MOL0     H 2146   9.321   3.205   5.048  1.6944 -2.2548  1.6520
   16MOL0     H 2147   9.221   3.196   4.843 -1.0124  0.2752  0.2888
   16MOL0     H 2148   9.009   3.052   4.557  0.3100 -1.2232  0.7046
   16MOL0     H 2149   9.154   3.097   4.638 -0.1977 -0.0346 -0.2289
   16MOL0     H 2150   9.025   3.287   4.548  0.7835  0.8551  1.7406
   16MOL0     H 2151   9.023   3.309   4.716 -1.7564  0.9114 -0.3686
   16MOL0     H 2152   8.800   3.181   4.541  0.3432 -0.2227 -0.3989
   16MOL0     H 2153   8.805   3.348   4.571 -4.0175 -1.2917 -1.3467
   16MOL0     H 2154   8.767   3.140   4.797 -2.0636 -2.0656 -1.3367
   16MOL0     H 2155   8.773   3.314   4.804 -0.1530  0.1849 -0.0654
   16MOL0     H 2156   8.398   3.259   4.643 -0.3196 -0.7435 -0.1553
   16MOL0     H 2157   8.902   2.947   4.998  0.9702 -1.1957  4.1828
   16MOL0     H 2158   9.012   2.858   5.274 -2.1224 -1.2492 -0.6515
   16MOL0     H 2159   8.971   3.020   5.327 -1.4040 -1.1112  0.2748
   16MOL0     H 2160   8.869   2.940   5.209 -0.2386  0.7946 -0.1362
   17MOL0     O 2161   0.108   0.468   8.708 -0.1758 -0.0628  0.0760
   17MOL0     C 2162   0.143   0.523   8.601  0.2863  0.0137  1.1307
   17MOL0     O 2163   0.266   0.575   8.582  0.0731 -0.1127  0.1404
   17MOL0     C 2164   0.343   0.580   8.692  0.0295 -0.0666  0.0369
   17MOL0     C 2165   0.309   0.666   8.799 -0.9422 -0.0163  1.1522
   17MOL0     C 2166   0.409   0.674   8.898  0.2566 -0.1505 -0.2763
   17MOL0     C 2167   0.541   0.613   8.894 -1.2073  0.4428  0.0899
   17MOL0     O 2168   0.645   0.633   8.991  0.0776  0.3602 -0.0454
   17MOL0     C 2169   0.645   0.758   9.070  0.0750 -0.2711 -0.4830
   17MOL0     C 2170   0.777   0.754   9.141  0.4068 -0.4764 -0.1121
   17MOL0     C 2171   0.896   0.802   9.053  0.2735  0.4810 -0.1587
   17MOL0     C 2172   1.014   0.808   9.142 -0.4214 -0.7868  0.2917
   17MOL0     C 2173   1.134   0.870   9.065 -0.2321  0.3613  0.7840
   17MOL0     C 2174   1.260   0.880   9.155 -0.1445 -0.2221  1.0539
   17MOL0     C 2175   1.370   0.961   9.068  0.2087  0.7227  0.9499
   17MOL0     C 2176   1.515   0.944   9.116 -1.1071  0.5721 -0.3756
   17MOL0     N 2177   1.533   0.979   9.254 -0.1870  0.8868  0.3326
   17MOL0     C 2178   1.562   0.887   9.350  0.0467 -0.7740  0.4173
   17MOL0     C 2179   1.563   0.957   9.462  0.3299  0.3313  0.0114
   17MOL0     C 2180   1.565   0.902   9.606 -0.3593 -0.1226  0.2736
   17MOL0     C 2181   1.669   0.959   9.702  0.5249  0.1907 -0.3016
   17MOL0     C 2182   1.810   0.933   9.657  1.0258 -0.7050  0.7873
   17MOL0     C 2183   1.916   0.988   9.757 -0.1434 -0.8072 -0.0750
   17MOL0     O 2184   2.042   0.929   9.726 -0.0701 -0.0136  0.5575
   17MOL0     C 2185   2.146   0.994   9.793 -0.4522  0.0838  1.0349
   17MOL0     C 2186   2.162   1.130   9.818  0.1602 -0.8831  0.1271
   17MOL0     C 2187   2.289   1.177   9.869  0.2554 -0.4906  0.3535
   17MOL0     C 2188   2.384   1.090   9.919 -0.4226  1.0064  0.5087
   17MOL0     C 2189   2.512   1.129   9.985  0.6185  0.5016  0.6854
   17MOL0     O 2190   2.627   1.050   9.971  0.3094 -0.6867 -0.6652
   17MOL0     C 2191   2.735   1.087  10.047  0.6881  0.1192 -0.2382
   17MOL0     C 2192   2.732   1.071  10.188  0.1559 -0.3526  0.4386
   17MOL0     C 2193   2.840   1.097  10.265 -0.6718 -1.2650 -0.1062
   17MOL0     C 2194   2.964   1.135  10.192  0.3211 -0.0581 -0.5552
   17MOL0     O 2195   3.069   1.154  10.281  0.4717  0.1750 -0.4663
   17MOL0     C 2196   3.179   1.244  10.241  0.2065  0.1276 -0.2197
   17MOL0     C 2197   3.287   1.247  10.355  0.3994 -0.9855  0.0450
   17MOL0     C 2198   3.392   1.146  10.326  0.5266 -0.0028 -0.4533
   17MOL0     C 2199   3.455   1.096  10.461  0.7173  0.0113 -0.6245
   17MOL0     C 2200   3.564   1.197  10.503  0.1502  0.3767  0.5936
   17MOL0     C 2201   3.639   1.132  10.624  0.6105  0.5593  0.1761
   17MOL0     C 2202   3.761   1.226  10.645  0.7110 -0.9892  0.1264
   17MOL0     C 2203   3.882   1.192  10.734  0.1864 -0.3454  1.5528
   17MOL0    Cl 2204   3.825   1.132  10.887 -0.1221  0.5661 -0.3471
   17MOL0     C 2205   2.956   1.153  10.049 -0.7024 -0.0969  0.1844
   17MOL0     C 2206   2.843   1.119   9.979 -0.8419  0.0821  0.6199
   17MOL0     O 2207   2.493   1.222  10.060  0.6145  0.1539  0.0272
   17MOL0     C 2208   2.370   0.950   9.900  0.1174  1.0241  0.7405
   17MOL0     C 2209   2.257   0.902   9.824  0.8428  0.6383  0.1005
   17MOL0     N 2210   1.544   1.094   9.435  0.2014 -0.0386  0.1393
   17MOL0     N 2211   1.527   1.097   9.306 -0.2089 -0.4921  0.1275
   17MOL0     C 2212   0.559   0.526   8.792 -0.3228 -0.5432  1.4489
   17MOL0     C 2213   0.466   0.508   8.689  0.8338 -0.2484 -0.6710
   17MOL0     C 2214   0.039   0.538   8.494 -0.8029 -0.2163 -1.0540
   17MOL0     C 2215   0.053   0.641   8.404 -0.3121 -0.1357 -0.7090
   17MOL0     C 2216  -0.034   0.672   8.307 -0.1879 -0.6211  0.1899
   17MOL0     C 2217  -0.162   0.610   8.292 -0.5175  0.1355  0.3590
   17MOL0     O 2218  -0.253   0.651   8.210  0.1885 -0.3182  0.2840
   17MOL0     C 2219  -0.331   0.765   8.261 -0.3689  0.2187  0.2553
   17MOL0     C 2220  -0.468   0.708   8.288  0.6740  0.1104 -0.3296
   17MOL0     C 2221  -0.540   0.643   8.168  0.1846 -0.1424  0.8243
   17MOL0     C 2222  -0.691   0.593   8.194  0.5509  0.0397  0.9832
   17MOL0     C 2223  -0.797   0.703   8.218 -0.1362 -0.2850  1.0055
   17MOL0     C 2224  -0.875   0.795   8.226  0.3128 -0.2529  0.1024
   17MOL0     C 2225  -0.178   0.502   8.388  0.6721  0.3521 -0.0133
   17MOL0     C 2226  -0.081   0.463   8.483  0.8462 -0.4533 -0.1807
   17MOL0     C 2227  -0.131   0.367   8.582 -0.9614 -0.2811  1.3629
   17MOL0     H 2228   0.220   0.729   8.804 -0.9483  0.2217 -1.0439
   17MOL0     H 2229   0.380   0.738   8.981 -0.4363 -0.5338 -0.2126
   17MOL0     H 2230   0.638   0.848   9.008  0.4602  0.8008  0.9824
   17MOL0     H 2231   0.562   0.753   9.140  0.6480  3.3717  0.6416
   17MOL0     H 2232   0.804   0.653   9.173 -0.7065 -0.2996  1.4609
   17MOL0     H 2233   0.771   0.810   9.234  2.0291  1.2078 -0.9606
   17MOL0     H 2234   0.876   0.896   9.001 -0.7818  0.9478  1.0216
   17MOL0     H 2235   0.907   0.723   8.979 -3.3898  1.3047 -1.8142
   17MOL0     H 2236   0.999   0.855   9.240 -1.5182  0.5386 -0.4887
   17MOL0     H 2237   1.034   0.708   9.181  0.7113  0.6705  3.9354
   17MOL0     H 2238   1.164   0.803   8.984  2.6967  2.3641  0.0994
   17MOL0     H 2239   1.107   0.970   9.030  0.2282 -0.1997 -1.2915
   17MOL0     H 2240   1.228   0.945   9.237 -1.3191  0.1211  0.3588
   17MOL0     H 2241   1.299   0.783   9.187 -0.6005 -1.1340 -0.9589
   17MOL0     H 2242   1.334   1.063   9.053  1.2303  0.7383 -2.0637
   17MOL0     H 2243   1.376   0.920   8.967  1.7454 -1.3786  1.8218
   17MOL0     H 2244   1.545   0.842   9.090  1.0376  1.6893 -2.6963
   17MOL0     H 2245   1.584   1.001   9.053 -0.4014 -0.1706 -0.2967
   17MOL0     H 2246   1.574   0.779   9.337 -1.2938 -1.1675  2.0576
   17MOL0     H 2247   1.472   0.911   9.663 -0.6131  1.1492 -0.3053
   17MOL0     H 2248   1.583   0.795   9.598  1.4424  0.1301  0.5173
   17MOL0     H 2249   1.648   1.066   9.713 -0.6687 -0.0649  0.1235
   17MOL0     H 2250   1.654   0.904   9.796  0.7208 -1.0958 -0.9916
   17MOL0     H 2251   1.823   0.955   9.550  0.3318 -2.2206  0.3550
   17MOL0     H 2252   1.829   0.825   9.658  1.8438 -0.6698 -1.9464
   17MOL0     H 2253   1.890   0.955   9.858  0.6726 -0.7891  0.1450
   17MOL0     H 2254   1.925   1.096   9.742  1.1281 -0.8812  0.0601
   17MOL0     H 2255   2.089   1.203   9.785  1.1788  0.4795  0.8070
   17MOL0     H 2256   2.303   1.284   9.861 -1.3780 -0.1663  1.2584
   17MOL0     H 2257   2.642   1.039  10.241 -0.3017 -0.0641 -0.1484
   17MOL0     H 2258   2.842   1.096  10.373  2.0591 -1.4968 -0.0819
   17MOL0     H 2259   3.210   1.211  10.142 -3.3664 -1.0782 -1.1168
   17MOL0     H 2260   3.137   1.345  10.238 -0.7394 -0.2487 -0.0021
   17MOL0     H 2261   3.330   1.348  10.354 -0.9740 -0.3437 -2.8003
   17MOL0     H 2262   3.236   1.216  10.447  3.1034 -2.5636  1.1388
   17MOL0     H 2263   3.351   1.053  10.285 -2.8041  0.0105  2.3530
   17MOL0     H 2264   3.463   1.183  10.252 -0.8148 -0.0954 -1.8401
   17MOL0     H 2265   3.492   0.994  10.449  1.2030  0.4228 -3.2468
   17MOL0     H 2266   3.370   1.091  10.530  0.5031 -1.5389 -0.9733
   17MOL0     H 2267   3.524   1.296  10.528 -2.7595 -0.5233 -0.0848
   17MOL0     H 2268   3.637   1.200  10.422  1.2660  0.9469  1.5904
   17MOL0     H 2269   3.584   1.114  10.717 -1.5091 -0.8615 -1.2458
   17MOL0     H 2270   3.676   1.036  10.586 -0.8636  0.3794 -0.8957
   17MOL0     H 2271   3.742   1.326  10.686  3.0835 -0.1186 -0.7310
   17MOL0     H 2272   3.793   1.243  10.542  0.0432 -1.2356 -0.1267
   17MOL0     H 2273   3.941   1.120  10.676  0.4850  0.2660  1.0814
   17MOL0     H 2274   3.953   1.271  10.760  1.3557 -0.1998 -1.6036
   17MOL0     H 2275   3.040   1.197   9.995 -0.6490  2.8394  2.4116
   17MOL0     H 2276   2.839   1.122   9.870 -3.3212 -2.3786  0.5194
   17MOL0     H 2277   2.444   0.882   9.940  0.3293  0.0208 -1.2350
   17MOL0     H 2278   2.249   0.797   9.801  0.1083  1.2347 -2.7921
   17MOL0     H 2279   0.649   0.466   8.800 -0.4264 -0.7519  1.0565
   17MOL0     H 2280   0.481   0.437   8.609  0.8913  0.9358 -1.7463
   17MOL0     H 2281   0.129   0.718   8.411 -0.7081  0.1712  0.5081
   17MOL0     H 2282  -0.026   0.758   8.241  0.2803  1.4609  2.8133
   17MOL0     H 2283  -0.338   0.833   8.175 -0.4576 -0.4094 -0.2423
   17MOL0     H 2284  -0.304   0.815   8.354 -2.6299 -1.7446  2.0718
   17MOL0     H 2285  -0.524   0.794   8.326 -0.8841  0.1775 -2.5330
   17MOL0     H 2286  -0.471   0.633   8.367  1.1857 -1.0189 -1.3446
   17MOL0     H 2287  -0.486   0.557   8.128  0.3703  1.1506 -1.9505
   17MOL0     H 2288  -0.540   0.716   8.086  0.5780 -1.0852 -0.0255
   17MOL0     H 2289  -0.731   0.537   8.108 -1.1186 -0.9517  2.3406
   17MOL0     H 2290  -0.706   0.515   8.269 -2.4362  1.4549  2.0198
   17MOL0     H 2291  -0.957   0.863   8.239  3.4985  3.6868  1.7609
   17MOL0     H 2292  -0.277   0.457   8.395 -1.2266  3.8942 -1.5354
   17MOL0     H 2293  -0.229   0.323   8.558  0.1712 -1.4781 -1.5747
   17MOL0     H 2294  -0.063   0.282   8.590  1.4770  1.6006  1.4942
   17MOL0     H 2295  -0.119   0.426   8.673  2.4226  3.7599 -1.3429
   18MOL0     O 2296  10.773   4.701   4.023  1.0489 -0.5361 -0.3221
   18MOL0     C 2297  10.786   4.616   3.942  0.0838  0.3141 -0.0698
   18MOL0     O 2298  10.881   4.601   3.845  0.2572  0.1235 -0.1260
   18MOL0     C 2299  11.000   4.676   3.847  0.2374  0.0912  0.0306
   18MOL0     C 2300  11.052   4.765   3.944 -0.2249  0.0330  0.1403
   18MOL0     C 2301  11.173   4.835   3.923  0.4187 -0.1442 -0.1612
   18MOL0     C 2302  11.260   4.797   3.820  1.0105  0.5286 -0.0876
   18MOL0     O 2303  11.391   4.835   3.811  0.3755  0.7524 -0.1341
   18MOL0     C 2304  11.434   4.948   3.891 -0.2855 -0.8228  0.9246
   18MOL0     C 2305  11.366   5.076   3.837 -0.5763 -0.4264 -0.1629
   18MOL0     C 2306  11.367   5.179   3.957 -0.6963  0.0278  1.3708
   18MOL0     C 2307  11.364   5.321   3.903 -0.1809 -0.6859  0.2379
   18MOL0     C 2308  11.359   5.436   4.009 -0.5753 -0.3423 -0.2550
   18MOL0     C 2309  11.488   5.459   4.093  0.3778  0.0613  0.0461
   18MOL0     C 2310  11.597   5.521   4.018  0.1886  0.3282 -0.5496
   18MOL0     C 2311  11.573   5.675   3.986  0.1638  0.6027  0.5717
   18MOL0     N 2312  11.653   5.710   3.861  0.5502  0.1691  0.1128
   18MOL0     C 2313  11.780   5.752   3.864  0.2375  0.0061 -0.8342
   18MOL0     C 2314  11.810   5.805   3.743  0.1377  1.1190  0.0509
   18MOL0     C 2315  11.939   5.880   3.719  0.0419 -0.1283  0.4068
   18MOL0     C 2316  12.038   5.869   3.833 -0.5657  0.4929  0.1182
   18MOL0     C 2317  12.162   5.950   3.806 -0.4548  0.1039  0.6507
   18MOL0     C 2318  12.270   5.891   3.715 -0.4051  0.5824 -0.1782
   18MOL0     O 2319  12.303   5.756   3.760 -0.4041 -0.2494  0.7046
   18MOL0     C 2320  12.410   5.734   3.849  1.1945 -0.9091 -0.4274
   18MOL0     C 2321  12.411   5.613   3.922  0.1697 -0.4938  0.5074
   18MOL0     C 2322  12.514   5.586   4.007 -1.1181  0.4965  0.4380
   18MOL0     C 2323  12.615   5.683   4.031 -0.5290 -0.0781  0.1260
   18MOL0     C 2324  12.714   5.655   4.134 -0.1832 -0.1479 -0.2278
   18MOL0     O 2325  12.763   5.769   4.177 -0.2054  0.2795 -0.4176
   18MOL0     C 2326  12.866   5.778   4.261  0.0520 -0.9018 -0.0598
   18MOL0     C 2327  12.869   5.859   4.374  0.1959 -0.0829  1.0131
   18MOL0     C 2328  12.980   5.867   4.454  0.0868  0.0649 -0.3113
   18MOL0     C 2329  13.096   5.801   4.429 -0.8371  0.6642 -0.9204
   18MOL0     O 2330  13.207   5.817   4.515  0.2736 -0.6673 -0.2365
   18MOL0     C 2331  13.344   5.811   4.469 -0.4921 -0.3694 -1.1300
   18MOL0     C 2332  13.420   5.685   4.507  0.0019 -0.0889 -0.9782
   18MOL0     C 2333  13.572   5.705   4.503  0.2867 -0.2114  0.3491
   18MOL0     C 2334  13.616   5.701   4.355  0.5167 -0.6187 -0.0047
   18MOL0     C 2335  13.767   5.689   4.331 -0.2080 -0.4899  0.9015
   18MOL0     C 2336  13.811   5.679   4.184 -0.5412  1.1578  0.4561
   18MOL0     C 2337  13.762   5.800   4.089 -0.0409  0.5719  0.3591
   18MOL0     C 2338  13.792   5.931   4.161  0.5167 -0.1561 -0.5002
   18MOL0    Cl 2339  13.966   5.946   4.177 -0.1306 -0.2188 -0.3210
   18MOL0     C 2340  13.094   5.716   4.321  0.5699  0.4845  0.5085
   18MOL0     C 2341  12.982   5.701   4.236 -1.0140  0.0582 -0.7473
   18MOL0     O 2342  12.753   5.546   4.163 -1.2634  0.1757  0.3995
   18MOL0     C 2343  12.613   5.804   3.959  1.1347  0.0989  0.4583
   18MOL0     C 2344  12.510   5.828   3.865 -0.6107 -0.2483 -0.2316
   18MOL0     N 2345  11.695   5.799   3.670 -0.5590 -0.1645  0.9502
   18MOL0     N 2346  11.603   5.735   3.735 -0.6683  0.3592  0.2308
   18MOL0     C 2347  11.204   4.713   3.729  0.0302 -0.2834  0.1987
   18MOL0     C 2348  11.078   4.662   3.733 -0.3098  0.3987  0.5411
   18MOL0     C 2349  10.676   4.520   3.949 -0.9197  0.6947 -0.2602
   18MOL0     C 2350  10.605   4.494   4.074 -0.2440 -0.1526 -0.1562
   18MOL0     C 2351  10.516   4.398   4.098  0.0026 -0.0218  0.7910
   18MOL0     C 2352  10.473   4.319   3.994  0.3999  0.3838  0.6372
   18MOL0     O 2353  10.377   4.224   4.006 -0.7885 -0.9827 -0.0325
   18MOL0     C 2354  10.280   4.230   4.105  0.2234  0.0707 -0.2546
   18MOL0     C 2355  10.203   4.097   4.126  0.6663  0.9144 -0.8501
   18MOL0     C 2356  10.097   4.039   4.033 -0.4538 -0.2061  0.2224
   18MOL0     C 2357  10.053   3.903   4.074  0.2777  0.7798  0.3698
   18MOL0     C 2358   9.980   3.837   3.966 -0.2520 -0.0346 -0.7460
   18MOL0     C 2359   9.907   3.797   3.874 -0.0650  0.0586  0.2023
   18MOL0     C 2360  10.537   4.333   3.868 -0.4260 -0.0402 -0.2944
   18MOL0     C 2361  10.645   4.426   3.840  0.1825 -0.0598 -0.4615
   18MOL0     C 2362  10.711   4.443   3.707  0.9178 -0.1219  0.1921
   18MOL0     H 2363  11.002   4.781   4.039 -3.4257 -0.4640 -1.3412
   18MOL0     H 2364  11.209   4.900   4.001  2.4152 -0.9216 -0.3870
   18MOL0     H 2365  11.416   4.931   3.998  2.3006 -0.2141  1.5121
   18MOL0     H 2366  11.541   4.947   3.873 -0.5325 -0.1775 -0.8071
   18MOL0     H 2367  11.267   5.058   3.795  0.5618 -1.1922 -2.6981
   18MOL0     H 2368  11.435   5.123   3.766  2.7032  0.2343  3.1042
   18MOL0     H 2369  11.464   5.165   4.004  2.6867  1.7564 -4.0951
   18MOL0     H 2370  11.288   5.163   4.030  1.7555 -1.5487  3.8558
   18MOL0     H 2371  11.447   5.351   3.839 -0.3676 -2.2227 -0.7978
   18MOL0     H 2372  11.270   5.328   3.846 -0.7471  0.2810  1.2495
   18MOL0     H 2373  11.327   5.532   3.966 -1.1494 -0.2860  0.2708
   18MOL0     H 2374  11.283   5.406   4.082 -1.4853 -0.1922 -1.1172
   18MOL0     H 2375  11.474   5.524   4.180  0.0579 -0.5153  0.4302
   18MOL0     H 2376  11.525   5.363   4.130  0.5637  1.1548  2.9817
   18MOL0     H 2377  11.614   5.465   3.926 -1.3871  0.9951 -1.2991
   18MOL0     H 2378  11.683   5.518   4.085 -2.5087  0.4621  3.2888
   18MOL0     H 2379  11.470   5.699   3.957 -0.7533 -2.5882  0.8815
   18MOL0     H 2380  11.596   5.736   4.074  0.2172  0.6654  0.5151
   18MOL0     H 2381  11.842   5.753   3.952 -0.7077 -2.5540 -0.0500
   18MOL0     H 2382  11.993   5.856   3.626 -0.1041  0.3932  0.1881
   18MOL0     H 2383  11.915   5.986   3.712 -0.3806 -0.2510 -0.1239
   18MOL0     H 2384  11.995   5.914   3.923  0.7525  1.7523  0.1456
   18MOL0     H 2385  12.059   5.764   3.856  1.2168  1.4278  3.4068
   18MOL0     H 2386  12.215   5.952   3.901  1.3139  1.1984 -0.2992
   18MOL0     H 2387  12.146   6.056   3.780  0.2317 -0.3257 -1.7824
   18MOL0     H 2388  12.355   5.959   3.709  0.2640 -0.3268 -1.4307
   18MOL0     H 2389  12.243   5.882   3.610  0.0849  0.4794 -0.2987
   18MOL0     H 2390  12.328   5.544   3.910  0.2462 -0.5989  0.5860
   18MOL0     H 2391  12.525   5.484   4.044  0.5284  0.8684  1.0814
   18MOL0     H 2392  12.786   5.913   4.418 -0.7283 -0.4896 -0.1668
   18MOL0     H 2393  12.984   5.928   4.544  4.7634 -2.8675  1.8269
   18MOL0     H 2394  13.352   5.820   4.360  2.0406 -2.2253 -1.1676
   18MOL0     H 2395  13.388   5.902   4.511 -1.4605 -1.1576  1.8504
   18MOL0     H 2396  13.393   5.658   4.610  1.8825  0.0719 -0.3956
   18MOL0     H 2397  13.397   5.597   4.446  1.4065 -1.0981 -0.1167
   18MOL0     H 2398  13.600   5.795   4.558  2.9176 -1.0138  0.4478
   18MOL0     H 2399  13.627   5.628   4.559  0.2398  2.0363  3.8167
   18MOL0     H 2400  13.552   5.772   4.300 -0.4511 -1.1122  0.4519
   18MOL0     H 2401  13.581   5.602   4.322  2.0387 -2.0629  2.4393
   18MOL0     H 2402  13.810   5.601   4.380  1.3564 -0.3688 -0.2010
   18MOL0     H 2403  13.816   5.773   4.381  1.8943 -1.3557  0.3538
   18MOL0     H 2404  13.920   5.683   4.194 -0.4191 -0.0330 -0.2204
   18MOL0     H 2405  13.781   5.583   4.141  2.0229 -0.0747  1.2075
   18MOL0     H 2406  13.654   5.790   4.073 -0.1519 -0.0781  1.3984
   18MOL0     H 2407  13.798   5.792   3.986  0.2424 -2.3952  0.5970
   18MOL0     H 2408  13.752   6.023   4.118 -2.6413 -1.0231  0.3238
   18MOL0     H 2409  13.750   5.939   4.262 -0.0892 -0.6076 -0.7127
   18MOL0     H 2410  13.181   5.654   4.301  0.3084  0.5008 -0.7642
   18MOL0     H 2411  12.989   5.639   4.147  0.3694 -0.5294 -0.2477
   18MOL0     H 2412  12.686   5.882   3.978  2.4887 -0.6949 -1.1638
   18MOL0     H 2413  12.519   5.918   3.806 -1.7112  0.1670  0.2132
   18MOL0     H 2414  11.258   4.686   3.639  1.9977 -0.2161  1.3062
   18MOL0     H 2415  11.045   4.608   3.645 -0.5112  0.6810  0.4417
   18MOL0     H 2416  10.639   4.559   4.155  0.7326  1.0770 -1.5163
   18MOL0     H 2417  10.489   4.381   4.202  2.0233  3.7129  2.1210
   18MOL0     H 2418  10.210   4.307   4.071  0.1708  0.6280  1.0604
   18MOL0     H 2419  10.316   4.266   4.202  1.6834 -0.6311 -0.5123
   18MOL0     H 2420  10.156   4.102   4.225  0.9001 -0.8875 -0.6134
   18MOL0     H 2421  10.282   4.021   4.136 -0.5859 -0.4966 -1.2661
   18MOL0     H 2422  10.148   4.047   3.937 -0.6580 -1.5703 -0.0088
   18MOL0     H 2423  10.007   4.102   4.028  0.2527  0.7728 -0.5303
   18MOL0     H 2424  10.146   3.848   4.091 -1.3007 -1.1125  3.8593
   18MOL0     H 2425   9.996   3.889   4.166  1.7067 -0.3722  1.1156
   18MOL0     H 2426   9.855   3.772   3.784  0.5705 -0.5005 -0.0135
   18MOL0     H 2427  10.494   4.267   3.793 -0.2564  1.1464 -1.4690
   18MOL0     H 2428  10.819   4.431   3.710  1.4844  3.5251 -0.8544
   18MOL0     H 2429  10.665   4.375   3.634  1.3885 -2.1875  1.7184
   18MOL0     H 2430  10.688   4.539   3.660 -0.6206 -1.5180 -2.1629
   19MOL0     O 2431   4.085   5.190   7.763  0.1181  0.1050  0.0612
   19MOL0     C 2432   4.019   5.089   7.808  0.1922  1.2732  0.7462
   19MOL0     O 2433   4.069   4.960   7.815  0.7060  0.7644  0.0669
   19MOL0     C 2434   4.202   4.933   7.794 -0.7246 -0.6226 -0.2764
   19MOL0     C 2435   4.294   4.909   7.898 -0.5712  0.4478 -0.4254
   19MOL0     C 2436   4.427   4.895   7.875 -0.3233 -1.2785  0.3388
   19MOL0     C 2437   4.485   4.904   7.745 -0.0475 -0.1502  0.3340
   19MOL0     O 2438   4.621   4.894   7.739  0.5319  0.0352  0.2646
   19MOL0     C 2439   4.681   4.961   7.624  0.3836  0.0195 -0.7760
   19MOL0     C 2440   4.831   4.925   7.624 -0.6704  0.1530 -0.2196
   19MOL0     C 2441   4.851   4.790   7.549 -0.4882 -0.0740  0.3349
   19MOL0     C 2442   4.991   4.754   7.562 -0.5896 -0.1949  0.3603
   19MOL0     C 2443   5.008   4.634   7.470 -1.6031  0.7045  0.6271
   19MOL0     C 2444   5.138   4.550   7.501 -0.4172  0.8726 -0.4229
   19MOL0     C 2445   5.121   4.462   7.630 -0.5043  0.1128  0.6675
   19MOL0     C 2446   5.259   4.404   7.665 -0.8728 -0.0622 -0.4255
   19MOL0     N 2447   5.285   4.282   7.592 -0.1341 -0.6854  0.7837
   19MOL0     C 2448   5.351   4.270   7.471  0.1448  0.5714  0.1501
   19MOL0     C 2449   5.399   4.141   7.473  0.2445  0.2670 -0.3849
   19MOL0     C 2450   5.480   4.091   7.363 -0.0980  0.0071  0.0473
   19MOL0     C 2451   5.387   3.995   7.276 -0.1722 -0.0631 -0.0485
   19MOL0     C 2452   5.461   3.927   7.164  0.3405 -0.2120 -0.0401
   19MOL0     C 2453   5.405   3.938   7.024  0.2449 -0.3991 -0.5593
   19MOL0     O 2454   5.317   3.829   6.988  1.0137  1.1234  0.2125
   19MOL0     C 2455   5.189   3.868   6.961 -0.3523 -0.6824  0.1308
   19MOL0     C 2456   5.163   3.967   6.872 -0.5943  0.7969  0.7522
   19MOL0     C 2457   5.034   4.013   6.840 -0.1432  0.5756 -0.4130
   19MOL0     C 2458   4.917   3.956   6.904  0.3869 -0.1974  0.0273
   19MOL0     C 2459   4.785   4.025   6.915  0.3783  0.4369  0.1779
   19MOL0     O 2460   4.687   3.978   6.995  1.0861  0.6620  0.0327
   19MOL0     C 2461   4.559   4.014   6.965 -0.4579  0.2615 -0.1010
   19MOL0     C 2462   4.490   4.102   7.046  0.4635  0.1846  0.1096
   19MOL0     C 2463   4.363   4.147   7.014 -0.3697 -0.3713  0.2752
   19MOL0     C 2464   4.294   4.076   6.917 -0.0519 -0.1669  0.6111
   19MOL0     O 2465   4.160   4.105   6.900  0.4568 -0.3784 -0.1757
   19MOL0     C 2466   4.108   4.091   6.765  0.3184 -0.3827  0.0504
   19MOL0     C 2467   3.983   4.178   6.740 -0.7721 -0.1116  0.4184
   19MOL0     C 2468   3.988   4.325   6.787 -0.0573  0.1827 -0.0777
   19MOL0     C 2469   3.860   4.399   6.775  1.3367  0.4337 -0.0164
   19MOL0     C 2470   3.873   4.546   6.817  0.9966 -0.5916 -0.1148
   19MOL0     C 2471   3.747   4.622   6.797  0.6060  0.7581  0.8507
   19MOL0     C 2472   3.784   4.769   6.822 -1.1965 -0.8317  0.9888
   19MOL0     C 2473   3.684   4.872   6.774  0.3690  0.5556  0.3973
   19MOL0    Cl 2474   3.751   5.030   6.818  0.1162  0.4783  0.0265
   19MOL0     C 2475   4.357   3.976   6.839  0.3283  0.1378  0.1483
   19MOL0     C 2476   4.493   3.946   6.864  0.2507  0.3388 -0.3098
   19MOL0     O 2477   4.777   4.120   6.840 -0.0385 -1.0704  0.4529
   19MOL0     C 2478   4.947   3.847   6.991 -0.6078  0.4136  0.5572
   19MOL0     C 2479   5.079   3.819   7.024 -0.8359 -0.0462 -0.0248
   19MOL0     N 2480   5.354   4.072   7.587 -0.3957 -0.6635  0.5983
   19MOL0     N 2481   5.285   4.160   7.652  0.1617 -0.6661  0.7447
   19MOL0     C 2482   4.392   4.917   7.639 -0.1632 -0.7125 -0.1719
   19MOL0     C 2483   4.253   4.935   7.661  0.8703 -0.3805  0.4288
   19MOL0     C 2484   3.879   5.120   7.862  0.1026 -0.0504 -0.5819
   19MOL0     C 2485   3.794   5.012   7.877  0.7198 -0.7095  0.0111
   19MOL0     C 2486   3.663   5.034   7.919 -0.3037  1.3199  0.4143
   19MOL0     C 2487   3.605   5.158   7.942 -0.4000 -0.5905  0.1266
   19MOL0     O 2488   3.472   5.152   7.979  0.6410  0.0454  0.3979
   19MOL0     C 2489   3.435   5.269   8.057  1.2855  0.3454  0.0644
   19MOL0     C 2490   3.503   5.262   8.195 -0.7281 -0.1985 -1.2652
   19MOL0     C 2491   3.446   5.158   8.298 -0.0196  0.1551 -0.3851
   19MOL0     C 2492   3.514   5.022   8.276  0.9746  0.1755 -0.9501
   19MOL0     C 2493   3.497   4.934   8.397 -0.4627 -0.3427  0.6632
   19MOL0     C 2494   3.465   4.872   8.499 -0.2214  0.0456 -0.6548
   19MOL0     C 2495   3.691   5.269   7.929 -0.8290  0.1696  0.4126
   19MOL0     C 2496   3.824   5.253   7.891 -1.0759  0.2147 -0.5203
   19MOL0     C 2497   3.910   5.380   7.867 -0.1771  0.1436  0.6357
   19MOL0     H 2498   4.255   4.906   7.999  3.1166  1.4831  1.1976
   19MOL0     H 2499   4.498   4.888   7.957  0.9580 -5.3385 -0.8903
   19MOL0     H 2500   4.647   4.932   7.524 -1.3435  0.4216 -0.3438
   19MOL0     H 2501   4.674   5.069   7.638  0.2529  0.0858 -1.3326
   19MOL0     H 2502   4.868   4.907   7.725 -2.0081 -0.1108  0.2538
   19MOL0     H 2503   4.888   5.006   7.577 -2.6243  3.7733  3.0223
   19MOL0     H 2504   4.826   4.807   7.444  0.9173 -3.4972 -0.6664
   19MOL0     H 2505   4.796   4.707   7.593 -0.8406  0.2319  0.4827
   19MOL0     H 2506   5.070   4.823   7.529  0.4468 -1.7098 -0.4240
   19MOL0     H 2507   5.020   4.734   7.665 -1.5842 -0.3105  0.6291
   19MOL0     H 2508   4.924   4.564   7.468 -0.3677 -0.8183  0.4385
   19MOL0     H 2509   5.011   4.663   7.365 -0.2423  2.4848  1.1114
   19MOL0     H 2510   5.190   4.491   7.425  2.1506  0.5406  1.4443
   19MOL0     H 2511   5.222   4.613   7.532  0.1683 -0.5503  1.0106
   19MOL0     H 2512   5.052   4.378   7.616  0.4126 -0.6186  0.4667
   19MOL0     H 2513   5.080   4.528   7.708 -1.3637 -2.0854  2.1831
   19MOL0     H 2514   5.339   4.476   7.647 -0.8620  0.2542  0.7737
   19MOL0     H 2515   5.256   4.380   7.772 -2.7417  0.7220 -0.2642
   19MOL0     H 2516   5.362   4.340   7.388 -1.8379 -0.0368 -0.6931
   19MOL0     H 2517   5.530   4.167   7.304  1.4170 -1.9222 -1.2864
   19MOL0     H 2518   5.555   4.024   7.408 -1.7489 -1.0502  1.3719
   19MOL0     H 2519   5.341   3.919   7.340  0.1525 -1.1316 -1.0666
   19MOL0     H 2520   5.307   4.057   7.237 -0.4350  0.9903  1.9946
   19MOL0     H 2521   5.468   3.825   7.204 -3.5377  0.1868  2.2075
   19MOL0     H 2522   5.561   3.970   7.166  0.2722  0.1052 -1.9064
   19MOL0     H 2523   5.491   3.930   6.957 -0.9551  3.1170 -2.7664
   19MOL0     H 2524   5.358   4.036   7.016  3.0033  0.8850 -3.1196
   19MOL0     H 2525   5.251   4.003   6.820  0.1269 -1.0770  0.5975
   19MOL0     H 2526   5.034   4.106   6.784  0.0495  0.6144 -0.3498
   19MOL0     H 2527   4.551   4.162   7.113  1.6916 -0.2865 -0.5567
   19MOL0     H 2528   4.318   4.233   7.062  0.4300  0.8682 -1.1264
   19MOL0     H 2529   4.176   4.131   6.689  0.0633  0.8891  0.4704
   19MOL0     H 2530   4.093   3.983   6.751 -1.9489  0.0022 -1.0022
   19MOL0     H 2531   3.973   4.174   6.631 -0.6775 -0.2201  0.4124
   19MOL0     H 2532   3.896   4.126   6.781 -1.6129  0.3773 -0.7140
   19MOL0     H 2533   4.017   4.336   6.892  2.4667 -0.9832 -0.5567
   19MOL0     H 2534   4.070   4.371   6.731  2.8567  0.2859  3.8595
   19MOL0     H 2535   3.790   4.351   6.844  0.8088  0.1318 -0.7544
   19MOL0     H 2536   3.831   4.393   6.670  2.5266 -0.4297 -0.3114
   19MOL0     H 2537   3.956   4.601   6.772 -1.0150  2.4448 -0.4960
   19MOL0     H 2538   3.893   4.545   6.924 -0.9932 -4.8454  0.4211
   19MOL0     H 2539   3.725   4.610   6.690  1.8251 -0.0117  0.6625
   19MOL0     H 2540   3.673   4.577   6.864 -0.5489  0.2166 -0.7323
   19MOL0     H 2541   3.878   4.802   6.776 -1.8208 -1.5547 -0.8876
   19MOL0     H 2542   3.800   4.771   6.931  0.1877  2.8603  0.8374
   19MOL0     H 2543   3.670   4.868   6.665  0.6415  0.8161  0.3525
   19MOL0     H 2544   3.586   4.870   6.823 -0.4860  1.3843 -1.1790
   19MOL0     H 2545   4.311   3.924   6.756 -0.6392  4.0748 -2.0189
   19MOL0     H 2546   4.565   3.889   6.806  0.5521  0.0090  0.3718
   19MOL0     H 2547   4.875   3.801   7.058  0.9860 -1.6490  0.9596
   19MOL0     H 2548   5.095   3.732   7.086  0.1668 -1.4004 -2.0617
   19MOL0     H 2549   4.425   4.941   7.538  0.5772  2.6189  0.7455
   19MOL0     H 2550   4.203   4.944   7.565  2.6641 -3.4689 -0.9715
   19MOL0     H 2551   3.828   4.909   7.878 -0.8843 -1.2539  0.3561
   19MOL0     H 2552   3.601   4.951   7.953  3.1346 -0.6037  2.6290
   19MOL0     H 2553   3.326   5.272   8.066  1.3721  2.8774  1.0262
   19MOL0     H 2554   3.460   5.360   8.002  0.7787 -1.5552 -3.6755
   19MOL0     H 2555   3.485   5.360   8.239  2.7353  0.7340 -1.6275
   19MOL0     H 2556   3.612   5.256   8.189 -0.6588 -0.4265  0.0651
   19MOL0     H 2557   3.337   5.156   8.302 -0.0049 -0.0010 -0.0446
   19MOL0     H 2558   3.484   5.190   8.395  1.4654  1.3066 -1.3119
   19MOL0     H 2559   3.462   4.983   8.189  2.1079  1.4312 -2.2418
   19MOL0     H 2560   3.623   5.028   8.266  0.7831  1.8792 -2.7291
   19MOL0     H 2561   3.449   4.804   8.580  0.1676 -0.2683 -0.8375
   19MOL0     H 2562   3.658   5.371   7.943  1.1228  1.0412 -0.9072
   19MOL0     H 2563   4.015   5.370   7.896  1.1814  0.3167 -3.5851
   19MOL0     H 2564   3.900   5.394   7.759 -1.4158 -2.9627  0.2475
   19MOL0     H 2565   3.872   5.471   7.913 -0.8025  0.2379 -0.0510
   20MOL0     O 2566   3.874   5.985   3.063 -0.0459  0.5701 -0.6434
   20MOL0     C 2567   3.897   5.864   3.065 -0.4827  0.2059  0.3919
   20MOL0     O 2568   3.997   5.809   3.144 -0.7533 -0.0010  0.5849
   20MOL0     C 2569   4.097   5.893   3.174  0.3582 -0.5742 -0.1084
   20MOL0     C 2570   4.121   5.940   3.308 -0.0985  1.0468 -0.0877
   20MOL0     C 2571   4.220   6.029   3.336 -0.1398 -0.0588  0.4424
   20MOL0     C 2572   4.307   6.077   3.235  1.3161 -0.6205 -0.3497
   20MOL0     O 2573   4.398   6.171   3.281  0.3847  0.0255 -0.1295
   20MOL0     C 2574   4.485   6.217   3.180 -0.7048  0.0679 -0.5688
   20MOL0     C 2575   4.575   6.313   3.251  0.8403  0.1366  0.1301
   20MOL0     C 2576   4.656   6.231   3.353  0.3834 -0.4107 -0.2733
   20MOL0     C 2577   4.798   6.290   3.382 -0.0103  0.0370  0.2369
   20MOL0     C 2578   4.893   6.290   3.258  0.0613  0.3975 -0.5755
   20MOL0     C 2579   5.024   6.341   3.301 -0.4760  1.0369  0.4282
   20MOL0     C 2580   5.140   6.303   3.209  0.2607  0.3626  0.6833
   20MOL0     C 2581   5.277   6.302   3.282 -0.7213 -0.7539 -0.0915
   20MOL0     N 2582   5.382   6.245   3.187  0.2079 -0.4036 -0.3413
   20MOL0     C 2583   5.514   6.227   3.206  0.2189  0.0141 -0.0052
   20MOL0     C 2584   5.549   6.128   3.121  0.1132  1.1360 -0.3428
   20MOL0     C 2585   5.677   6.061   3.115  0.1544 -0.8745 -0.4578
   20MOL0     C 2586   5.673   5.915   3.114  0.8148 -0.2892 -0.1530
   20MOL0     C 2587   5.814   5.863   3.108 -0.6298  0.1814  0.1349
   20MOL0     C 2588   5.828   5.703   3.128 -0.1303 -0.1575  0.2917
   20MOL0     O 2589   5.945   5.658   3.066  0.0119  0.3190  0.0466
   20MOL0     C 2590   6.067   5.690   3.116  0.1594  0.2193  0.0474
   20MOL0     C 2591   6.168   5.664   3.028 -0.4595 -0.3103 -1.5533
   20MOL0     C 2592   6.305   5.684   3.057 -0.1142 -0.3202 -0.4924
   20MOL0     C 2593   6.344   5.726   3.182  0.1020 -0.2595 -0.8561
   20MOL0     C 2594   6.488   5.751   3.218 -0.2495 -0.0131 -0.0911
   20MOL0     O 2595   6.582   5.761   3.115 -0.2877 -0.2402 -0.2828
   20MOL0     C 2596   6.717   5.801   3.139  0.1278  0.6441 -0.4010
   20MOL0     C 2597   6.770   5.860   3.249 -0.8638  0.9255 -0.6009
   20MOL0     C 2598   6.906   5.896   3.246 -0.4785  0.3778 -0.1645
   20MOL0     C 2599   6.985   5.888   3.131 -1.0368  0.8495  0.2831
   20MOL0     O 2600   7.119   5.930   3.147  0.2298  0.3700  0.1052
   20MOL0     C 2601   7.212   5.919   3.044 -0.7442  0.0209 -0.4667
   20MOL0     C 2602   7.200   6.036   2.940  0.2207  0.1332 -0.0424
   20MOL0     C 2603   7.279   6.161   2.981  0.0695  0.4945  0.0332
   20MOL0     C 2604   7.273   6.261   2.878  0.0287 -0.2244  0.1955
   20MOL0     C 2605   7.346   6.387   2.926 -0.2241  0.6694 -0.4210
   20MOL0     C 2606   7.494   6.360   2.960 -0.2318  0.2199  0.3107
   20MOL0     C 2607   7.590   6.482   2.951  0.3113 -0.0682 -0.3347
   20MOL0     C 2608   7.741   6.446   2.962 -0.2004 -0.4931  0.9698
   20MOL0    Cl 2609   7.850   6.598   2.990  0.0465 -0.3888  0.0705
   20MOL0     C 2610   6.931   5.822   3.024 -1.0129  0.5350  0.0776
   20MOL0     C 2611   6.800   5.779   3.026 -0.1911  0.4876  0.8986
   20MOL0     O 2612   6.509   5.769   3.337  0.9059 -0.1489 -0.1390
   20MOL0     C 2613   6.236   5.753   3.276  0.4313  0.6891 -0.4301
   20MOL0     C 2614   6.102   5.744   3.246 -0.4390 -0.9128  0.9633
   20MOL0     N 2615   5.436   6.085   3.055  0.3517  0.6459 -0.4990
   20MOL0     N 2616   5.339   6.150   3.098 -0.8079 -0.2329  0.1651
   20MOL0     C 2617   4.278   6.033   3.103  0.0391  0.5604 -0.1312
   20MOL0     C 2618   4.186   5.935   3.078 -0.4619 -0.4737  0.8279
   20MOL0     C 2619   3.817   5.761   2.993 -0.3247 -0.6043 -0.5904
   20MOL0     C 2620   3.864   5.630   2.988  0.0591 -0.0432 -0.1925
   20MOL0     C 2621   3.797   5.524   2.926 -0.2040 -0.3116 -0.7441
   20MOL0     C 2622   3.679   5.554   2.861  0.7204 -0.0128  0.6474
   20MOL0     O 2623   3.621   5.447   2.802 -0.0108  0.2010  0.0909
   20MOL0     C 2624   3.501   5.467   2.726 -0.7479 -0.5121 -1.0555
   20MOL0     C 2625   3.470   5.345   2.635 -0.2351  0.1755 -0.0695
   20MOL0     C 2626   3.373   5.382   2.527 -0.8324 -0.6346 -0.2819
   20MOL0     C 2627   3.332   5.261   2.435 -0.8955 -0.4963  0.1736
   20MOL0     C 2628   3.213   5.301   2.364  0.8271 -0.0895  0.5839
   20MOL0     C 2629   3.106   5.325   2.307 -0.7539 -0.4026 -0.0488
   20MOL0     C 2630   3.629   5.685   2.858 -0.4975 -0.4523  0.5658
   20MOL0     C 2631   3.695   5.789   2.920  0.1471 -0.3435  0.0393
   20MOL0     C 2632   3.629   5.930   2.918 -0.3465  0.5938 -0.2484
   20MOL0     H 2633   4.058   5.897   3.385  1.3339 -1.1720 -0.0608
   20MOL0     H 2634   4.227   6.065   3.439 -4.0250 -1.6823  1.4614
   20MOL0     H 2635   4.533   6.126   3.144  0.5093  0.1158  0.8434
   20MOL0     H 2636   4.435   6.260   3.093 -2.2253 -1.4767 -0.5268
   20MOL0     H 2637   4.520   6.389   3.306  1.5350  1.5443 -1.0469
   20MOL0     H 2638   4.645   6.363   3.183  2.0155 -1.9713 -0.3088
   20MOL0     H 2639   4.667   6.125   3.329 -1.9171 -1.1905  1.6683
   20MOL0     H 2640   4.597   6.229   3.445  0.6144  1.4585 -0.0504
   20MOL0     H 2641   4.779   6.391   3.418 -2.8336 -0.2604 -0.1736
   20MOL0     H 2642   4.839   6.230   3.464  1.6874  0.8742  0.0409
   20MOL0     H 2643   4.904   6.183   3.235  1.7462  0.3473  0.2974
   20MOL0     H 2644   4.848   6.341   3.172 -2.2121 -0.9377 -0.2634
   20MOL0     H 2645   5.024   6.449   3.320  0.8667  1.1321 -0.0356
   20MOL0     H 2646   5.038   6.282   3.392  1.5571  0.4128 -0.2322
   20MOL0     H 2647   5.155   6.366   3.120  4.1968  0.5367  1.2823
   20MOL0     H 2648   5.118   6.202   3.174  1.4600  0.1578  0.4549
   20MOL0     H 2649   5.303   6.404   3.312 -0.3991 -1.6244  2.8779
   20MOL0     H 2650   5.278   6.240   3.372 -0.2566  2.6718  2.4929
   20MOL0     H 2651   5.576   6.262   3.287  1.4267 -1.4321 -0.2651
   20MOL0     H 2652   5.732   6.094   3.027 -2.3227  0.8796 -1.4635
   20MOL0     H 2653   5.726   6.097   3.205  1.3880  0.6293 -1.6723
   20MOL0     H 2654   5.639   5.889   3.215  0.1170  0.4938 -0.1842
   20MOL0     H 2655   5.610   5.865   3.040 -0.5436  1.1454 -0.0058
   20MOL0     H 2656   5.874   5.923   3.177  0.2238 -0.3449 -0.1200
   20MOL0     H 2657   5.850   5.889   3.007 -0.7630 -4.4860 -1.3697
   20MOL0     H 2658   5.739   5.657   3.086  0.2839  0.1526 -0.9666
   20MOL0     H 2659   5.828   5.689   3.237 -1.7727 -0.3915  0.2818
   20MOL0     H 2660   6.130   5.642   2.929 -2.6712  0.3188 -0.8916
   20MOL0     H 2661   6.389   5.661   2.993  0.4284 -2.4266  0.8664
   20MOL0     H 2662   6.721   5.890   3.341  1.7900  0.2435  1.1364
   20MOL0     H 2663   6.950   5.948   3.331 -1.8501  2.5880 -0.7333
   20MOL0     H 2664   7.307   5.919   3.098 -1.6094  1.3162  1.1591
   20MOL0     H 2665   7.189   5.820   3.003 -2.8559  0.0460  0.5232
   20MOL0     H 2666   7.237   6.001   2.843 -1.5510 -0.9581 -0.3532
   20MOL0     H 2667   7.096   6.063   2.920  1.3372  2.2845 -4.1897
   20MOL0     H 2668   7.235   6.197   3.075 -0.3286 -0.9703  0.4523
   20MOL0     H 2669   7.377   6.119   3.005  0.7060  1.7726 -0.2763
   20MOL0     H 2670   7.170   6.293   2.860  0.8096  2.1302 -0.4518
   20MOL0     H 2671   7.308   6.222   2.782 -1.7912  0.7562 -0.9249
   20MOL0     H 2672   7.289   6.429   3.009  0.9601  3.8016 -1.0584
   20MOL0     H 2673   7.352   6.466   2.850 -0.0613  3.3254  2.1690
   20MOL0     H 2674   7.491   6.328   3.065  1.8351 -1.9228 -0.1807
   20MOL0     H 2675   7.530   6.284   2.890 -1.2026  2.4891 -2.8499
   20MOL0     H 2676   7.565   6.549   3.034 -2.6738 -0.5857 -0.7356
   20MOL0     H 2677   7.575   6.533   2.855 -0.1478  0.6278  0.1007
   20MOL0     H 2678   7.747   6.381   3.050  0.0997 -0.1074  1.2441
   20MOL0     H 2679   7.776   6.394   2.873 -0.2899  0.5433  0.3053
   20MOL0     H 2680   6.992   5.830   2.935  1.8453  0.6462  1.9418
   20MOL0     H 2681   6.762   5.739   2.933  0.4916 -0.5021  1.0311
   20MOL0     H 2682   6.274   5.782   3.374  1.7986 -1.5792 -0.1989
   20MOL0     H 2683   6.024   5.786   3.308 -1.8861 -0.3201 -1.1559
   20MOL0     H 2684   4.339   6.058   3.017  0.7461  1.6835  0.6760
   20MOL0     H 2685   4.178   5.899   2.976  1.1996 -0.1652  0.5636
   20MOL0     H 2686   3.956   5.595   3.034  0.0135  1.7668  1.3877
   20MOL0     H 2687   3.861   5.438   2.908  0.7132  0.6132 -2.0562
   20MOL0     H 2688   3.519   5.548   2.655  0.2636 -1.9365 -2.4858
   20MOL0     H 2689   3.415   5.486   2.791  0.3886  0.4903  0.2138
   20MOL0     H 2690   3.415   5.275   2.699 -2.0645  1.2820 -0.3477
   20MOL0     H 2691   3.564   5.306   2.597 -1.3816 -1.0869 -1.7802
   20MOL0     H 2692   3.402   5.468   2.466 -2.3433 -0.5189 -0.8759
   20MOL0     H 2693   3.283   5.419   2.577 -1.3371  2.3130 -3.0581
   20MOL0     H 2694   3.400   5.242   2.352 -2.0910 -0.9655 -0.7282
   20MOL0     H 2695   3.326   5.174   2.501  1.9391 -0.3057  0.8075
   20MOL0     H 2696   3.008   5.337   2.267 -0.5898  0.8727 -0.1098
   20MOL0     H 2697   3.526   5.694   2.825 -0.2568  0.8329  0.0902
   20MOL0     H 2698   3.693   6.016   2.896 -1.4814  1.5507  0.0113
   20MOL0     H 2699   3.537   5.917   2.860 -1.2957 -3.5271  1.8176
   20MOL0     H 2700   3.592   5.948   3.019 -0.4270  1.6289 -0.4487
   21MOL0     O 2701   4.894   0.185   1.287 -0.1287 -0.2985 -0.0461
   21MOL0     C 2702   4.862   0.075   1.233 -0.4355  0.5156  0.8470
   21MOL0     O 2703   4.864   0.048   1.091 -0.2159  0.0942 -0.2254
   21MOL0     C 2704   4.804   0.132   0.996 -0.3794  0.7663  0.3559
   21MOL0     C 2705   4.828   0.110   0.864  0.2429 -0.3514 -0.5257
   21MOL0     C 2706   4.762   0.184   0.762  0.4990 -0.3866 -0.1991
   21MOL0     C 2707   4.676   0.282   0.794  0.4679  0.2116 -0.1326
   21MOL0     O 2708   4.616   0.343   0.685 -0.0971  0.0556  0.7551
   21MOL0     C 2709   4.479   0.381   0.700  0.3900  1.0678  0.5561
   21MOL0     C 2710   4.422   0.384   0.561  0.5649  0.1288 -0.8366
   21MOL0     C 2711   4.289   0.467   0.570  0.5094 -0.2561 -0.3909
   21MOL0     C 2712   4.218   0.476   0.437  0.5580  0.9361 -0.2173
   21MOL0     C 2713   4.086   0.539   0.439  1.1449 -0.4478  0.3311
   21MOL0     C 2714   4.022   0.533   0.308 -0.1521  0.2284  0.0536
   21MOL0     C 2715   3.887   0.600   0.296  0.0540  0.2455 -0.2874
   21MOL0     C 2716   3.811   0.554   0.169  0.5955 -0.3551 -0.0933
   21MOL0     N 2717   3.677   0.621   0.146  0.1405 -0.4549  0.4071
   21MOL0     C 2718   3.615   0.624   0.026  0.2684 -0.0136 -0.4101
   21MOL0     C 2719   3.487   0.680   0.054 -0.3936  1.0998  0.1372
   21MOL0     C 2720   3.372   0.701  -0.041 -0.2212  0.8116  0.2091
   21MOL0     C 2721   3.339   0.571  -0.123 -0.2923  0.0007 -0.2225
   21MOL0     C 2722   3.219   0.614  -0.211 -0.2059  0.5747  0.7245
   21MOL0     C 2723   3.142   0.504  -0.273  0.8863  0.6543  0.0045
   21MOL0     O 2724   3.074   0.550  -0.391  0.0856 -0.1664  0.3659
   21MOL0     C 2725   2.995   0.463  -0.465 -0.0730  0.5688 -0.0004
   21MOL0     C 2726   2.871   0.436  -0.406  0.8187  0.3883  0.4730
   21MOL0     C 2727   2.791   0.358  -0.486  0.4965  0.0484 -0.4603
   21MOL0     C 2728   2.825   0.287  -0.601 -0.5643 -0.2378  0.0595
   21MOL0     C 2729   2.723   0.216  -0.673 -0.6135 -0.1685  0.1399
   21MOL0     O 2730   2.596   0.212  -0.621  0.3558  0.9678 -0.0227
   21MOL0     C 2731   2.490   0.149  -0.679 -0.0770  0.0676  0.1159
   21MOL0     C 2732   2.360   0.199  -0.643  1.6399  0.2127  0.7152
   21MOL0     C 2733   2.247   0.124  -0.690  0.2906 -0.1758  0.0504
   21MOL0     C 2734   2.255   0.002  -0.758 -0.0652 -0.3932 -0.2501
   21MOL0     O 2735   2.139  -0.069  -0.752  1.2786  0.8038  0.6604
   21MOL0     C 2736   2.108  -0.120  -0.887  0.8305  0.2760 -1.1965
   21MOL0     C 2737   2.043  -0.018  -0.978  0.4784  0.7429 -0.6065
   21MOL0     C 2738   1.985  -0.083  -1.104  0.3981 -0.0090  0.6027
   21MOL0     C 2739   2.080  -0.065  -1.223 -0.2177 -0.2639  0.5526
   21MOL0     C 2740   2.005  -0.033  -1.358  0.1088 -0.8732  0.2816
   21MOL0     C 2741   1.931  -0.151  -1.425 -0.2613 -0.3187  0.5642
   21MOL0     C 2742   1.849  -0.234  -1.329  1.0420 -0.6881  0.1590
   21MOL0     C 2743   1.763  -0.339  -1.390 -0.8349 -0.0297 -0.1166
   21MOL0    Cl 2744   1.641  -0.259  -1.498 -0.2058  0.3091  0.3889
   21MOL0     C 2745   2.380  -0.042  -0.793 -0.2351  0.7923 -0.5952
   21MOL0     C 2746   2.493   0.024  -0.756 -0.0700  0.0344 -1.1761
   21MOL0     O 2747   2.752   0.171  -0.777  0.1166 -0.2120  0.6157
   21MOL0     C 2748   2.959   0.300  -0.640 -1.5014 -0.4732  0.0202
   21MOL0     C 2749   3.044   0.398  -0.579 -0.0359 -0.1420 -0.9376
   21MOL0     N 2750   3.481   0.704   0.183 -0.0785 -1.3378  0.5037
   21MOL0     N 2751   3.589   0.664   0.245  0.4617 -0.6279 -0.0807
   21MOL0     C 2752   4.659   0.324   0.928  0.1002 -0.2999 -0.1623
   21MOL0     C 2753   4.717   0.243   1.031 -0.5210 -0.6407 -0.9852
   21MOL0     C 2754   4.856  -0.043   1.306  0.0351 -0.6437 -1.1763
   21MOL0     C 2755   4.939  -0.155   1.292  0.9677 -0.2401  0.8741
   21MOL0     C 2756   4.915  -0.271   1.367  0.1780 -0.1185  0.1473
   21MOL0     C 2757   4.798  -0.284   1.430  0.4081  0.4007  0.2813
   21MOL0     O 2758   4.752  -0.404   1.476 -0.4854 -0.0682 -0.1399
   21MOL0     C 2759   4.827  -0.520   1.455  0.6662 -0.3734  0.1607
   21MOL0     C 2760   4.748  -0.641   1.492  0.4540 -0.1571  0.0680
   21MOL0     C 2761   4.793  -0.778   1.447 -0.8338 -0.5383 -0.6116
   21MOL0     C 2762   4.688  -0.872   1.483  0.0996  0.3524 -0.2741
   21MOL0     C 2763   4.748  -1.006   1.479 -0.7239 -0.4262  0.3559
   21MOL0     C 2764   4.801  -1.111   1.474 -0.1152  0.4337 -0.3730
   21MOL0     C 2765   4.710  -0.182   1.448 -0.5839 -0.5024 -0.4542
   21MOL0     C 2766   4.737  -0.064   1.385  0.8200 -1.2072 -0.5963
   21MOL0     C 2767   4.630   0.048   1.406  0.0994 -0.3404 -0.3732
   21MOL0     H 2768   4.899   0.034   0.830  2.3964  1.6642 -0.7699
   21MOL0     H 2769   4.782   0.174   0.656  0.1526  2.5071 -0.6203
   21MOL0     H 2770   4.420   0.309   0.757 -1.0096  1.0619 -0.8077
   21MOL0     H 2771   4.462   0.481   0.739 -1.7475  0.5204  1.1555
   21MOL0     H 2772   4.395   0.284   0.526  0.1333  0.5571 -1.7663
   21MOL0     H 2773   4.497   0.428   0.495  3.1852  0.1582  1.9564
   21MOL0     H 2774   4.317   0.567   0.604  2.7380 -1.6140  2.1114
   21MOL0     H 2775   4.231   0.424   0.651  0.5247 -0.0463 -0.2659
   21MOL0     H 2776   4.280   0.531   0.365  2.0276  0.1431  0.3927
   21MOL0     H 2777   4.213   0.374   0.400 -0.9554  0.7693  0.3653
   21MOL0     H 2778   4.017   0.488   0.507  0.3796 -0.1536 -0.2129
   21MOL0     H 2779   4.097   0.644   0.467  1.6598 -0.2959 -0.3992
   21MOL0     H 2780   4.084   0.569   0.225  1.6477 -2.4984  0.1044
   21MOL0     H 2781   4.004   0.426   0.295 -0.9539  0.6241 -2.6112
   21MOL0     H 2782   3.900   0.708   0.284 -0.9663  0.3552 -0.5202
   21MOL0     H 2783   3.833   0.585   0.390 -1.2796  0.7039 -0.9596
   21MOL0     H 2784   3.876   0.574   0.084 -2.4526  1.7317 -2.1619
   21MOL0     H 2785   3.794   0.449   0.194  0.0770  0.1272  1.8147
   21MOL0     H 2786   3.651   0.581  -0.068 -1.6535 -0.6451 -0.9087
   21MOL0     H 2787   3.282   0.730   0.015 -1.4474  0.0634 -1.2894
   21MOL0     H 2788   3.408   0.787  -0.098 -1.3018  2.4206  1.8277
   21MOL0     H 2789   3.425   0.531  -0.177 -1.2126  1.3838 -2.8833
   21MOL0     H 2790   3.295   0.506  -0.047  1.1310  0.8318  1.4187
   21MOL0     H 2791   3.263   0.682  -0.284  0.8135 -1.2518 -0.4401
   21MOL0     H 2792   3.150   0.665  -0.143  1.1593  2.7555  0.5690
   21MOL0     H 2793   3.073   0.451  -0.207 -2.6163 -1.2298 -4.5972
   21MOL0     H 2794   3.218   0.433  -0.308  2.4266  1.6419  1.1806
   21MOL0     H 2795   2.841   0.492  -0.318 -0.7567 -2.0589  1.6044
   21MOL0     H 2796   2.687   0.345  -0.459  0.8549  0.0853  0.9919
   21MOL0     H 2797   2.334   0.287  -0.586  1.6007  0.2521  0.6355
   21MOL0     H 2798   2.147   0.163  -0.677  1.0764  1.1344  3.0933
   21MOL0     H 2799   2.192  -0.166  -0.939 -0.6343 -2.3688 -1.4494
   21MOL0     H 2800   2.036  -0.203  -0.880 -0.1908  1.2336  0.2534
   21MOL0     H 2801   1.959   0.024  -0.921  0.9276  1.1945 -0.2732
   21MOL0     H 2802   2.092   0.076  -1.008 -0.3994  2.0483  1.7772
   21MOL0     H 2803   1.967  -0.189  -1.082  1.4312  0.1108  2.2367
   21MOL0     H 2804   1.883  -0.045  -1.115 -0.5778 -2.3848  0.6970
   21MOL0     H 2805   2.141  -0.155  -1.233 -2.3696 -1.9994  2.1344
   21MOL0     H 2806   2.143   0.021  -1.197  1.4950 -0.9327 -1.1865
   21MOL0     H 2807   2.086  -0.002  -1.425 -1.1035 -1.2620 -1.4518
   21MOL0     H 2808   1.935   0.050  -1.346 -0.1923 -1.0942  0.0801
   21MOL0     H 2809   1.884  -0.110  -1.515  0.4008 -1.4173 -0.3052
   21MOL0     H 2810   2.014  -0.213  -1.460  1.2238  1.1314  1.3491
   21MOL0     H 2811   1.783  -0.165  -1.276  2.5209  1.3660 -0.5405
   21MOL0     H 2812   1.918  -0.288  -1.264  3.4620  0.5069 -1.2398
   21MOL0     H 2813   1.835  -0.394  -1.450 -0.6176 -1.7826  1.6482
   21MOL0     H 2814   1.695  -0.392  -1.323 -0.6416  0.2612  0.3155
   21MOL0     H 2815   2.387  -0.139  -0.840  1.2660  1.8199 -2.6480
   21MOL0     H 2816   2.585  -0.026  -0.782  1.2129  1.5112  0.3619
   21MOL0     H 2817   2.996   0.245  -0.726  0.1708 -1.1214  1.0994
   21MOL0     H 2818   3.139   0.435  -0.615  0.7077 -0.3266  0.7525
   21MOL0     H 2819   4.596   0.409   0.953 -1.4867 -1.3187 -0.4784
   21MOL0     H 2820   4.722   0.270   1.136  1.4337 -0.9321 -0.9745
   21MOL0     H 2821   5.024  -0.142   1.226  0.3915  0.5260  0.2652
   21MOL0     H 2822   4.979  -0.355   1.343  0.1904 -0.2704  0.6925
   21MOL0     H 2823   4.926  -0.507   1.500  1.8363  1.7614 -2.7273
   21MOL0     H 2824   4.841  -0.530   1.347  0.1300  0.1724  0.0398
   21MOL0     H 2825   4.642  -0.627   1.467  0.6095 -2.1496 -2.0144
   21MOL0     H 2826   4.741  -0.645   1.601  0.2307  0.2098  0.0687
   21MOL0     H 2827   4.879  -0.815   1.504 -2.4049  0.2834  2.5403
   21MOL0     H 2828   4.820  -0.776   1.342 -1.1244 -2.7459 -0.7737
   21MOL0     H 2829   4.642  -0.855   1.580  0.1818  0.5008 -0.2615
   21MOL0     H 2830   4.604  -0.865   1.413  0.0948 -3.0284 -0.7808
   21MOL0     H 2831   4.858  -1.202   1.465 -2.1609 -1.3962  3.1440
   21MOL0     H 2832   4.625  -0.196   1.515  0.2093  2.4832  1.3326
   21MOL0     H 2833   4.556   0.018   1.481 -1.7433  1.2960 -1.4302
   21MOL0     H 2834   4.669   0.142   1.448 -1.3410  1.6198 -3.1036
   21MOL0     H 2835   4.572   0.079   1.318 -0.6721  4.5267  1.5283
   22MOL0     O 2836   7.253   0.174   4.814 -0.0064 -0.0269 -0.0159
   22MOL0     C 2837   7.265   0.093   4.718  0.3530  0.0523 -0.0295
   22MOL0     O 2838   7.175  -0.003   4.676  0.4737 -0.0051  0.0730
   22MOL0     C 2839   7.062  -0.017   4.755 -1.0047 -0.6147 -0.5228
   22MOL0     C 2840   7.080  -0.034   4.894  0.9997 -0.9973  0.0084
   22MOL0     C 2841   6.969  -0.075   4.971  0.8042  0.1290  0.8226
   22MOL0     C 2842   6.841  -0.092   4.910  0.1645  1.0792 -0.5492
   22MOL0     O 2843   6.727  -0.134   4.969 -0.2724  0.4610 -0.1457
   22MOL0     C 2844   6.737  -0.258   5.044  0.1483 -0.5762  0.7244
   22MOL0     C 2845   6.612  -0.273   5.128  0.1737  0.0223 -0.3887
   22MOL0     C 2846   6.603  -0.400   5.214 -0.0916 -0.5490  1.4138
   22MOL0     C 2847   6.637  -0.528   5.142  0.3471  0.8456  0.6589
   22MOL0     C 2848   6.786  -0.563   5.162 -0.3119 -0.5092  0.0483
   22MOL0     C 2849   6.813  -0.712   5.129  0.4593 -0.9997  0.0778
   22MOL0     C 2850   6.971  -0.734   5.142 -0.2929  0.8318 -0.0958
   22MOL0     C 2851   7.048  -0.688   5.017 -0.5069  1.5251 -0.0744
   22MOL0     N 2852   7.175  -0.755   5.048  0.0782 -0.5857 -0.6463
   22MOL0     C 2853   7.278  -0.710   5.125  0.3603  0.5308  0.0283
   22MOL0     C 2854   7.373  -0.806   5.118  0.1338  0.1615  0.5872
   22MOL0     C 2855   7.510  -0.811   5.186 -0.5407 -0.5611 -0.9305
   22MOL0     C 2856   7.637  -0.765   5.102  0.3038  0.6620  0.5968
   22MOL0     C 2857   7.672  -0.851   4.980  0.8046  0.3465 -0.1479
   22MOL0     C 2858   7.725  -0.986   5.028  0.2408 -0.1359 -0.5743
   22MOL0     O 2859   7.777  -1.059   4.919  0.0269 -0.3677  0.3240
   22MOL0     C 2860   7.690  -1.103   4.824  0.0203  0.4273  0.7669
   22MOL0     C 2861   7.551  -1.121   4.838  0.0104 -0.2041  0.8834
   22MOL0     C 2862   7.476  -1.158   4.723  0.6598 -0.2612 -0.1267
   22MOL0     C 2863   7.538  -1.178   4.604 -0.2457  0.1160  1.6108
   22MOL0     C 2864   7.461  -1.204   4.490 -0.1409  1.1486 -0.1928
   22MOL0     O 2865   7.325  -1.224   4.508  0.3549  0.0895 -0.3098
   22MOL0     C 2866   7.248  -1.192   4.394 -1.0960 -0.6928  1.2078
   22MOL0     C 2867   7.171  -1.080   4.419 -0.2259 -0.4850 -0.5122
   22MOL0     C 2868   7.088  -1.024   4.325 -0.3680  0.3360  0.0759
   22MOL0     C 2869   7.079  -1.088   4.201  0.0792 -0.9604  0.6607
   22MOL0     O 2870   6.988  -1.019   4.117  0.8150 -0.0727 -0.1720
   22MOL0     C 2871   7.020  -1.016   3.977 -0.2772 -0.6111 -0.4802
   22MOL0     C 2872   6.927  -0.932   3.880 -0.2022 -0.3721 -0.4730
   22MOL0     C 2873   6.880  -0.794   3.933 -1.0559 -0.1358 -0.3798
   22MOL0     C 2874   6.753  -0.802   4.012  0.0118  0.2328  0.3630
   22MOL0     C 2875   6.710  -0.662   4.029 -0.1708 -0.5559 -1.0340
   22MOL0     C 2876   6.774  -0.586   4.144 -0.6035 -0.2294  0.1296
   22MOL0     C 2877   6.693  -0.468   4.189 -0.3979  0.7901  0.4186
   22MOL0     C 2878   6.783  -0.396   4.287  1.2707 -0.1718 -0.3155
   22MOL0    Cl 2879   6.678  -0.341   4.423 -0.3333 -0.1466 -0.4108
   22MOL0     C 2880   7.147  -1.208   4.172  0.1290  0.0886 -0.2758
   22MOL0     C 2881   7.240  -1.252   4.267  0.1290  1.0355  0.5305
   22MOL0     O 2882   7.530  -1.204   4.384  1.0460 -0.3536 -0.3493
   22MOL0     C 2883   7.679  -1.172   4.602  0.3239  0.6621 -0.1382
   22MOL0     C 2884   7.755  -1.142   4.712 -0.0494  0.0286  0.3830
   22MOL0     N 2885   7.322  -0.908   5.042 -0.0867  0.8614 -0.0314
   22MOL0     N 2886   7.210  -0.878   4.996 -0.3119 -0.1418  0.1196
   22MOL0     C 2887   6.823  -0.064   4.777  0.1447 -0.0817 -1.0349
   22MOL0     C 2888   6.937  -0.028   4.698 -0.0094  0.0892  0.5087
   22MOL0     C 2889   7.390   0.086   4.640  0.2502  0.4659 -0.1818
   22MOL0     C 2890   7.432  -0.043   4.613 -0.0135  0.6208 -0.7342
   22MOL0     C 2891   7.562  -0.064   4.558 -0.6531 -0.0605 -0.4534
   22MOL0     C 2892   7.645   0.045   4.512  0.5325  1.0804  0.3831
   22MOL0     O 2893   7.758   0.024   4.452 -0.6457  0.3116  0.1305
   22MOL0     C 2894   7.850  -0.061   4.521  0.6583 -1.3693  0.2063
   22MOL0     C 2895   7.972  -0.097   4.451 -0.1063  1.2702 -0.2090
   22MOL0     C 2896   8.036   0.015   4.372 -0.7578  0.5144  0.0969
   22MOL0     C 2897   8.171  -0.044   4.312  1.0973  0.3204  0.0085
   22MOL0     C 2898   8.234   0.065   4.239 -0.1143 -0.6490  0.2726
   22MOL0     C 2899   8.277   0.158   4.171  0.4762 -0.0643  0.9406
   22MOL0     C 2900   7.593   0.165   4.534  0.8918 -0.8470 -0.2266
   22MOL0     C 2901   7.472   0.193   4.600  0.2727 -0.4271  0.1872
   22MOL0     C 2902   7.439   0.335   4.618 -0.4299 -0.5394 -0.3498
   22MOL0     H 2903   7.176  -0.018   4.943 -0.1546 -0.6964  2.2972
   22MOL0     H 2904   6.977  -0.098   5.077  1.5416 -0.1789  0.7017
   22MOL0     H 2905   6.755  -0.343   4.976  2.9394  2.7782 -3.2832
   22MOL0     H 2906   6.823  -0.258   5.112 -0.5530  0.2623  1.6370
   22MOL0     H 2907   6.519  -0.266   5.070  0.3296  1.6814 -0.4844
   22MOL0     H 2908   6.622  -0.192   5.201 -0.4837  0.0084 -0.2795
   22MOL0     H 2909   6.496  -0.397   5.238 -0.6752  0.2993 -1.0242
   22MOL0     H 2910   6.661  -0.394   5.307  2.7746 -1.1596 -0.2289
   22MOL0     H 2911   6.591  -0.603   5.206  1.6822  0.7177  1.5007
   22MOL0     H 2912   6.609  -0.525   5.036  1.5544  0.6835  0.3208
   22MOL0     H 2913   6.857  -0.502   5.105 -1.6694 -1.3492 -2.7390
   22MOL0     H 2914   6.803  -0.565   5.270  2.3461 -3.0913 -0.2735
   22MOL0     H 2915   6.760  -0.770   5.205 -1.1272  0.5222  0.2025
   22MOL0     H 2916   6.789  -0.736   5.024  2.0593 -1.7810 -0.1320
   22MOL0     H 2917   6.999  -0.840   5.145 -1.5218  0.5146  1.8417
   22MOL0     H 2918   7.013  -0.677   5.225 -0.8644  0.3383  0.5532
   22MOL0     H 2919   7.005  -0.721   4.922 -2.4518  0.7373  1.0106
   22MOL0     H 2920   7.049  -0.579   5.006 -1.4230  1.5237 -0.2902
   22MOL0     H 2921   7.274  -0.622   5.189 -4.4457  0.3869  0.3601
   22MOL0     H 2922   7.502  -0.740   5.269 -1.3533  3.7545 -4.3326
   22MOL0     H 2923   7.519  -0.916   5.215 -3.7385 -0.4787  0.9179
   22MOL0     H 2924   7.600  -0.672   5.057  2.2039  1.3306  0.2886
   22MOL0     H 2925   7.727  -0.761   5.164  1.7192 -1.6935 -1.1136
   22MOL0     H 2926   7.737  -0.802   4.907 -1.7983 -0.7974 -3.5639
   22MOL0     H 2927   7.587  -0.873   4.913  2.4171 -0.9737 -1.8755
   22MOL0     H 2928   7.638  -1.029   5.079  0.8203  1.4170  1.8849
   22MOL0     H 2929   7.807  -0.974   5.099  0.5836 -0.0054 -0.9884
   22MOL0     H 2930   7.492  -1.089   4.924  3.2078  2.6684  2.2395
   22MOL0     H 2931   7.368  -1.153   4.729  0.6724  0.6967 -0.5151
   22MOL0     H 2932   7.162  -1.030   4.515  0.1076 -0.0286 -0.7119
   22MOL0     H 2933   7.032  -0.934   4.352  0.7093  0.8242  0.7190
   22MOL0     H 2934   7.114  -0.961   3.981  1.3931 -3.2380 -1.3773
   22MOL0     H 2935   7.034  -1.116   3.935 -0.3479 -1.6860  1.8640
   22MOL0     H 2936   6.977  -0.912   3.785 -1.1826  1.4335 -0.6550
   22MOL0     H 2937   6.837  -0.992   3.859 -2.5015  3.0452 -1.1591
   22MOL0     H 2938   6.957  -0.749   3.996 -0.4599  0.7430 -1.7133
   22MOL0     H 2939   6.866  -0.727   3.849 -2.8600  1.5051  1.1370
   22MOL0     H 2940   6.774  -0.844   4.111  1.2982 -0.5177 -0.2036
   22MOL0     H 2941   6.665  -0.854   3.974  0.1984 -0.7052  1.1769
   22MOL0     H 2942   6.606  -0.661   4.063  0.7091 -1.0939  1.9742
   22MOL0     H 2943   6.694  -0.614   3.932 -2.6419  2.8344  0.8219
   22MOL0     H 2944   6.793  -0.651   4.230  1.6142  0.0079 -0.1102
   22MOL0     H 2945   6.871  -0.549   4.110 -0.6113  0.7548  1.0885
   22MOL0     H 2946   6.617  -0.517   4.251  2.8047 -0.7530  3.4848
   22MOL0     H 2947   6.664  -0.403   4.106  0.2991 -1.5212 -1.7555
   22MOL0     H 2948   6.859  -0.451   4.344  2.6625  1.3005 -0.6657
   22MOL0     H 2949   6.834  -0.315   4.232 -0.4198  1.4527  0.4086
   22MOL0     H 2950   7.130  -1.265   4.081 -4.0901 -0.7641  0.8618
   22MOL0     H 2951   7.319  -1.320   4.238 -0.3621  0.9089 -0.5293
   22MOL0     H 2952   7.729  -1.201   4.511 -2.6594  0.7262 -1.9462
   22MOL0     H 2953   7.861  -1.124   4.697 -0.2714  1.2802  0.1858
   22MOL0     H 2954   6.725  -0.075   4.733 -0.1415  1.9319 -1.0256
   22MOL0     H 2955   6.931  -0.005   4.592  0.8542 -0.9277  0.2211
   22MOL0     H 2956   7.373  -0.127   4.649  1.2326 -1.0613 -2.3811
   22MOL0     H 2957   7.600  -0.162   4.531 -2.3285 -0.6644 -0.7897
   22MOL0     H 2958   7.800  -0.153   4.554  0.0646 -1.5271 -1.0817
   22MOL0     H 2959   7.884   0.002   4.604  3.7918  2.2862 -3.4592
   22MOL0     H 2960   7.939  -0.177   4.384 -0.3458  1.5168 -0.3877
   22MOL0     H 2961   8.043  -0.139   4.523  0.2768 -0.0703 -1.3265
   22MOL0     H 2962   8.061   0.096   4.441  1.6621  0.8722 -1.0509
   22MOL0     H 2963   7.962   0.051   4.300 -1.9960  0.3734  1.2798
   22MOL0     H 2964   8.241  -0.084   4.386  0.0150 -1.5303  0.0673
   22MOL0     H 2965   8.144  -0.130   4.252 -0.8450  0.5893  0.4417
   22MOL0     H 2966   8.316   0.238   4.112  1.2727 -1.2762 -0.2469
   22MOL0     H 2967   7.657   0.245   4.498  0.5262 -0.2826  0.3638
   22MOL0     H 2968   7.500   0.410   4.568  0.4560  0.3112  1.8572
   22MOL0     H 2969   7.340   0.375   4.593  0.4348  3.2063  1.4363
   22MOL0     H 2970   7.442   0.361   4.724 -0.4775  2.3241 -0.9694
   23MOL0     O 2971   4.699   9.970   4.281 -0.0448 -0.7410 -0.7037
   23MOL0     C 2972   4.719   9.994   4.160  0.4396 -0.0273  0.2351
   23MOL0     O 2973   4.830   9.973   4.091 -0.0528  0.2531  0.4013
   23MOL0     C 2974   4.949   9.937   4.162  0.0984 -0.7149  1.0837
   23MOL0     C 2975   5.056  10.018   4.132 -0.4907 -0.5443  1.0123
   23MOL0     C 2976   5.185   9.973   4.166  0.3438  0.9130 -0.5430
   23MOL0     C 2977   5.200   9.857   4.237  1.1810 -0.0077  0.8982
   23MOL0     O 2978   5.335   9.847   4.275  1.0877 -0.0564 -0.3061
   23MOL0     C 2979   5.359   9.737   4.366 -1.4297  0.6165 -0.3078
   23MOL0     C 2980   5.486   9.757   4.448 -0.1164  0.2241 -0.4187
   23MOL0     C 2981   5.515   9.660   4.570  0.5301 -0.0428  0.4427
   23MOL0     C 2982   5.623   9.702   4.667 -0.2650  0.8597 -1.0117
   23MOL0     C 2983   5.670   9.584   4.750  0.3342  0.2331  0.4255
   23MOL0     C 2984   5.788   9.606   4.820  0.0138  0.1613  0.5671
   23MOL0     C 2985   5.838   9.474   4.885 -0.7161 -0.1084 -0.3120
   23MOL0     C 2986   5.766   9.451   5.020  0.3334 -0.4484 -0.4574
   23MOL0     N 2987   5.631   9.381   5.009 -0.3814 -0.0615  0.0161
   23MOL0     C 2988   5.605   9.263   4.949  0.3489  0.7983 -0.3012
   23MOL0     C 2989   5.470   9.240   4.972  0.5260 -0.2236 -0.0182
   23MOL0     C 2990   5.376   9.133   4.926 -0.0289  0.5518 -0.8927
   23MOL0     C 2991   5.362   9.135   4.774 -0.5243  0.5949  0.3475
   23MOL0     C 2992   5.269   9.026   4.724 -0.5523  0.2956 -0.7471
   23MOL0     C 2993   5.122   9.077   4.735 -0.1433 -0.4216 -0.4344
   23MOL0     O 2994   5.018   8.994   4.675  0.6856 -0.2053  0.1917
   23MOL0     C 2995   4.885   9.008   4.697  0.0577 -0.3070 -0.4180
   23MOL0     C 2996   4.802   8.917   4.629  0.8009  0.1215 -0.0818
   23MOL0     C 2997   4.664   8.924   4.651  0.2498 -0.7370  0.3759
   23MOL0     C 2998   4.601   9.012   4.734 -1.0638  0.0082  0.2840
   23MOL0     C 2999   4.456   9.017   4.760 -0.1775  0.7376  0.2546
   23MOL0     O 3000   4.379   8.974   4.654  0.3958 -0.6711  0.2993
   23MOL0     C 3001   4.242   8.961   4.675 -0.1525 -0.4193  0.0107
   23MOL0     C 3002   4.169   8.839   4.704  0.5154 -0.9098 -0.0691
   23MOL0     C 3003   4.042   8.835   4.753  0.0646  0.2280 -1.2452
   23MOL0     C 3004   3.958   8.946   4.749  0.3137  0.0339 -0.2974
   23MOL0     O 3005   3.819   8.952   4.762 -0.8326 -0.0590 -0.4028
   23MOL0     C 3006   3.750   8.830   4.790  0.0438  0.9481 -0.4638
   23MOL0     C 3007   3.598   8.863   4.795 -0.6914  0.5838  0.1582
   23MOL0     C 3008   3.573   8.969   4.906  0.3594  0.0792 -1.5983
   23MOL0     C 3009   3.429   9.013   4.908  0.3688  0.1235 -0.0009
   23MOL0     C 3010   3.336   8.931   4.995 -0.6360 -0.8189  0.0653
   23MOL0     C 3011   3.190   8.972   4.982  0.4244 -0.1513 -0.3080
   23MOL0     C 3012   3.106   8.915   4.858  0.2645  0.7713  0.4504
   23MOL0     C 3013   2.957   8.960   4.853 -1.0558 -0.6818  1.3367
   23MOL0    Cl 3014   2.936   9.139   4.907  0.1979 -0.4931 -0.5852
   23MOL0     C 3015   4.020   9.068   4.703  1.0314  0.9702  0.5178
   23MOL0     C 3016   4.157   9.076   4.675 -0.5568  0.0428 -0.4432
   23MOL0     O 3017   4.418   9.041   4.872  0.6293 -0.1206 -0.7297
   23MOL0     C 3018   4.686   9.095   4.802  0.2275 -0.6759  1.1652
   23MOL0     C 3019   4.825   9.099   4.784  0.0349 -0.3326 -0.2694
   23MOL0     N 3020   5.419   9.356   5.042 -0.7875  0.0383 -0.3964
   23MOL0     N 3021   5.511   9.442   5.046 -0.4107 -0.0043  0.4188
   23MOL0     C 3022   5.082   9.780   4.266 -0.0284  0.1077 -0.3819
   23MOL0     C 3023   4.956   9.825   4.243  0.2445  0.3957 -0.5418
   23MOL0     C 3024   4.608  10.067   4.080 -0.5109  0.2026 -0.1449
   23MOL0     C 3025   4.656  10.154   3.986  0.5561  0.2968 -0.0072
   23MOL0     C 3026   4.569  10.233   3.913  0.2081 -0.0653  0.4246
   23MOL0     C 3027   4.447  10.258   3.961 -0.0018 -0.6179 -0.1666
   23MOL0     O 3028   4.363  10.333   3.891  0.1200  0.0512 -0.0889
   23MOL0     C 3029   4.282  10.429   3.971  0.5852  0.0635  0.2608
   23MOL0     C 3030   4.158  10.455   3.889  0.5893 -0.3990 -0.0802
   23MOL0     C 3031   4.186  10.517   3.751  0.0393  0.7448  0.0823
   23MOL0     C 3032   4.067  10.489   3.656  0.8802 -0.2364 -0.2071
   23MOL0     C 3033   3.933  10.543   3.694 -0.1127 -0.5588  0.9088
   23MOL0     C 3034   3.825  10.576   3.722  0.1717 -0.5723 -0.5440
   23MOL0     C 3035   4.387  10.175   4.062  0.3038 -0.1323 -0.4694
   23MOL0     C 3036   4.469  10.075   4.114 -0.4066  0.3056 -0.2640
   23MOL0     C 3037   4.402   9.974   4.209 -0.2600 -0.6161  0.4379
   23MOL0     H 3038   5.042  10.108   4.073 -0.0198 -2.5145 -2.4390
   23MOL0     H 3039   5.267  10.041   4.143  0.3091  0.6760 -1.4398
   23MOL0     H 3040   5.278   9.721   4.437  0.3070 -0.7094  1.4786
   23MOL0     H 3041   5.368   9.645   4.307 -2.3489  2.7765 -4.1568
   23MOL0     H 3042   5.474   9.852   4.502  2.0870 -0.3936  1.3422
   23MOL0     H 3043   5.579   9.766   4.390 -0.1806 -2.1619 -0.9624
   23MOL0     H 3044   5.542   9.566   4.520  0.3306 -0.1585  0.5518
   23MOL0     H 3045   5.425   9.638   4.629 -0.5179  0.0664 -1.0347
   23MOL0     H 3046   5.708   9.738   4.608  1.9449  0.3925  1.6802
   23MOL0     H 3047   5.583   9.786   4.725 -0.8553  0.9626 -1.5569
   23MOL0     H 3048   5.590   9.566   4.822 -0.3953  0.0631 -0.4095
   23MOL0     H 3049   5.689   9.497   4.685 -1.6206  0.1231 -0.0447
   23MOL0     H 3050   5.869   9.627   4.750  0.8282 -4.9349 -0.4128
   23MOL0     H 3051   5.774   9.681   4.898 -0.3432 -0.0620  0.7228
   23MOL0     H 3052   5.941   9.492   4.916 -0.6839  0.4103 -0.7140
   23MOL0     H 3053   5.844   9.385   4.821  1.0579 -0.3525  0.1304
   23MOL0     H 3054   5.838   9.386   5.071  1.8610  0.4494 -1.3851
   23MOL0     H 3055   5.758   9.549   5.068  0.6412 -1.1998  1.1945
   23MOL0     H 3056   5.665   9.191   4.895 -1.0130  0.3036 -1.2363
   23MOL0     H 3057   5.416   9.033   4.948 -1.5830 -1.2074 -5.1012
   23MOL0     H 3058   5.279   9.138   4.976 -0.9059 -0.4190 -2.4335
   23MOL0     H 3059   5.335   9.235   4.740  0.0839  0.8621  0.6377
   23MOL0     H 3060   5.465   9.117   4.743  1.3231  3.1563  4.1664
   23MOL0     H 3061   5.291   8.925   4.759 -3.4651 -0.4071 -0.6983
   23MOL0     H 3062   5.285   9.023   4.616 -0.8067 -0.5891 -0.7678
   23MOL0     H 3063   5.113   9.175   4.686  1.5805 -0.1507 -0.2711
   23MOL0     H 3064   5.106   9.090   4.842  2.8150 -0.7581  0.1367
   23MOL0     H 3065   4.844   8.854   4.552 -0.3256 -1.3488  0.4560
   23MOL0     H 3066   4.596   8.864   4.592 -2.0547  0.7233  1.4205
   23MOL0     H 3067   4.239   8.757   4.692  0.0203 -1.2981 -0.3733
   23MOL0     H 3068   4.007   8.737   4.784 -2.7356  0.4290 -3.3903
   23MOL0     H 3069   3.759   8.762   4.706 -2.9622 -2.3882  1.6309
   23MOL0     H 3070   3.787   8.780   4.880 -0.9785 -2.5304 -1.8101
   23MOL0     H 3071   3.578   8.902   4.695 -1.7664 -1.3986 -0.4420
   23MOL0     H 3072   3.534   8.776   4.811 -2.0540  1.4681 -0.3676
   23MOL0     H 3073   3.601   8.931   5.005  1.8875  1.1684 -1.5740
   23MOL0     H 3074   3.638   9.055   4.888 -1.1814  1.1855 -1.9716
   23MOL0     H 3075   3.396   9.006   4.804  1.4909  0.6868 -0.4169
   23MOL0     H 3076   3.427   9.118   4.939 -2.4924 -0.5006  2.4081
   23MOL0     H 3077   3.353   8.937   5.103 -1.9562 -4.1543  0.6035
   23MOL0     H 3078   3.337   8.825   4.968 -1.1062 -0.8152  0.0124
   23MOL0     H 3079   3.146   8.935   5.075  0.0035  2.3914  0.5934
   23MOL0     H 3080   3.192   9.080   4.996  3.0973 -0.3753  1.7303
   23MOL0     H 3081   3.105   8.807   4.842 -0.4292  1.0116 -1.3639
   23MOL0     H 3082   3.146   8.952   4.763 -1.4968  2.6244  0.3656
   23MOL0     H 3083   2.925   8.959   4.749  2.5333 -0.1580  0.0904
   23MOL0     H 3084   2.903   8.903   4.929  1.3797 -0.2728  3.5334
   23MOL0     H 3085   3.969   9.164   4.701  0.6129  0.9375  3.6258
   23MOL0     H 3086   4.189   9.170   4.632 -0.1894  2.3624  4.2477
   23MOL0     H 3087   4.636   9.157   4.876 -3.4110  0.2549 -1.7625
   23MOL0     H 3088   4.890   9.158   4.848 -1.0830  1.7117 -0.8995
   23MOL0     H 3089   5.096   9.693   4.329  3.1070 -0.3992 -1.5576
   23MOL0     H 3090   4.868   9.765   4.265  0.1755  1.2977  1.8436
   23MOL0     H 3091   4.760  10.135   3.959  1.4347  0.4012  2.9281
   23MOL0     H 3092   4.613  10.288   3.831 -0.0397 -0.9222 -0.3056
   23MOL0     H 3093   4.343  10.517   3.989  0.2321  0.2766  0.4195
   23MOL0     H 3094   4.250  10.390   4.068  1.6045 -0.7266  0.3038
   23MOL0     H 3095   4.096  10.528   3.941 -1.8866 -1.7316 -0.9469
   23MOL0     H 3096   4.104  10.360   3.878  0.1197 -0.0520 -0.8843
   23MOL0     H 3097   4.279  10.472   3.715  1.5288  3.8863 -0.3523
   23MOL0     H 3098   4.193  10.627   3.751 -1.3243  0.8900 -2.1841
   23MOL0     H 3099   4.094  10.516   3.554  0.6028 -3.7849 -1.3136
   23MOL0     H 3100   4.054  10.381   3.654 -1.8030  0.0149  0.2884
   23MOL0     H 3101   3.729  10.595   3.764 -0.1192  0.4227 -1.6262
   23MOL0     H 3102   4.285  10.183   4.098  1.8576  0.4656  4.6205
   23MOL0     H 3103   4.396  10.017   4.309  2.5516 -2.2443  1.4303
   23MOL0     H 3104   4.301   9.959   4.169  0.1488  2.2119 -1.9295
   23MOL0     H 3105   4.463   9.884   4.222 -1.2022 -1.0470  2.2725
   24MOL0     O 3106   6.086  10.141   9.199 -0.0595 -0.3705  0.7449
   24MOL0     C 3107   6.121  10.070   9.103  0.7815 -0.0841  0.1810
   24MOL0     O 3108   6.036   9.999   9.029 -0.4242 -0.4964 -0.2661
   24MOL0     C 3109   5.901  10.011   9.067  0.1007  0.4994 -0.5751
   24MOL0     C 3110   5.851   9.904   9.145 -0.4504 -0.3206 -0.1927
   24MOL0     C 3111   5.717   9.898   9.175 -0.3489 -0.3885  0.3490
   24MOL0     C 3112   5.632  10.002   9.128  0.8401 -0.1650 -0.1284
   24MOL0     O 3113   5.495  10.011   9.157 -0.0103  0.3310  0.6886
   24MOL0     C 3114   5.417   9.896   9.185  0.6219  0.4777  0.0703
   24MOL0     C 3115   5.280   9.934   9.208 -0.5815  0.1482  0.0943
   24MOL0     C 3116   5.272  10.039   9.327 -1.1368  0.6126  0.3303
   24MOL0     C 3117   5.122  10.074   9.369 -0.2328 -0.0972 -0.7348
   24MOL0     C 3118   5.126  10.167   9.485  0.2565 -0.4819  0.3611
   24MOL0     C 3119   4.994  10.158   9.577 -0.3351  0.7248  0.1103
   24MOL0     C 3120   4.870  10.202   9.499 -0.2213 -0.0613 -0.3536
   24MOL0     C 3121   4.747  10.210   9.599 -0.2269  0.6535  0.4002
   24MOL0     N 3122   4.632  10.145   9.522 -0.2795  0.1743 -0.1205
   24MOL0     C 3123   4.584  10.018   9.544 -0.1649 -0.8851  0.0063
   24MOL0     C 3124   4.506   9.993   9.437  0.5628 -0.5823 -0.3176
   24MOL0     C 3125   4.429   9.864   9.390 -0.2901  0.2149  0.4077
   24MOL0     C 3126   4.298   9.839   9.455 -0.2741  0.3298  0.2753
   24MOL0     C 3127   4.316   9.811   9.611 -0.3478  0.5866  0.2361
   24MOL0     C 3128   4.176   9.810   9.684  0.2647  0.0991  0.2823
   24MOL0     O 3129   4.173   9.737   9.807  0.2444  0.3994  0.1966
   24MOL0     C 3130   4.053   9.728   9.874 -0.0690 -0.5329 -0.6875
   24MOL0     C 3131   4.062   9.657   9.997 -0.7936 -1.2595  0.6174
   24MOL0     C 3132   3.941   9.618  10.062 -0.2614 -0.1527 -0.2783
   24MOL0     C 3133   3.820   9.672  10.028 -0.1609 -0.1860 -0.0910
   24MOL0     C 3134   3.703   9.637  10.106 -0.0885  0.9598  0.5312
   24MOL0     O 3135   3.720   9.539  10.196 -0.1779 -0.3528 -0.8933
   24MOL0     C 3136   3.608   9.505  10.273 -0.0734  0.5799  0.6999
   24MOL0     C 3137   3.542   9.589  10.362 -0.6807  0.0509  0.7851
   24MOL0     C 3138   3.433   9.535  10.433 -0.6913 -0.0567  0.1238
   24MOL0     C 3139   3.383   9.404  10.407 -0.2043 -0.2977  0.2992
   24MOL0     O 3140   3.275   9.358  10.469  0.2147 -0.0125  0.1436
   24MOL0     C 3141   3.193   9.258  10.397 -0.1513  0.1854 -0.1447
   24MOL0     C 3142   3.062   9.227  10.468 -0.1215 -0.3946 -0.0392
   24MOL0     C 3143   2.973   9.352  10.456 -0.3037  0.2031 -1.0437
   24MOL0     C 3144   2.841   9.330  10.527  0.4418  0.0462  0.5616
   24MOL0     C 3145   2.754   9.231  10.448  1.1691 -0.5723  0.9584
   24MOL0     C 3146   2.619   9.226  10.516  0.2695 -0.4073 -0.9054
   24MOL0     C 3147   2.506   9.139  10.458  0.4360  0.1136 -0.4336
   24MOL0     C 3148   2.540   8.996  10.449 -0.1371 -0.4731 -0.4493
   24MOL0    Cl 3149   2.388   8.922  10.374  0.4756  0.2600  0.0821
   24MOL0     C 3150   3.455   9.332  10.319 -0.9857 -0.5426  0.6714
   24MOL0     C 3151   3.563   9.377  10.253 -0.4575  0.3362  0.5074
   24MOL0     O 3152   3.595   9.684  10.064 -0.2172  0.0431  0.0399
   24MOL0     C 3153   3.820   9.754   9.916 -0.6015 -0.2937  0.1276
   24MOL0     C 3154   3.929   9.782   9.847 -0.5216 -0.4832  0.5435
   24MOL0     N 3155   4.495  10.106   9.362 -0.4115 -0.0022  0.9210
   24MOL0     N 3156   4.576  10.198   9.416 -0.3693  0.0988  0.2537
   24MOL0     C 3157   5.679  10.105   9.052 -0.2569  0.5016  0.3208
   24MOL0     C 3158   5.817  10.108   9.020  0.2761  0.1045 -1.1456
   24MOL0     C 3159   6.268  10.043   9.069 -0.0829  0.0421  0.7518
   24MOL0     C 3160   6.312   9.924   9.004 -0.0085  0.1161 -0.7502
   24MOL0     C 3161   6.444   9.902   8.972 -0.2443  0.2516  0.9534
   24MOL0     C 3162   6.544   9.989   9.010  0.1548 -1.5935 -0.0889
   24MOL0     O 3163   6.681   9.984   8.979  0.7137 -0.9463 -0.2235
   24MOL0     C 3164   6.740   9.855   8.971 -0.1570  0.7593 -0.3482
   24MOL0     C 3165   6.727   9.755   9.093  0.8759  0.5337 -0.0223
   24MOL0     C 3166   6.747   9.826   9.226  0.4274 -0.8967  0.5490
   24MOL0     C 3167   6.888   9.889   9.264  0.3293 -2.0450  0.3102
   24MOL0     C 3168   6.986   9.792   9.316 -0.8285  0.0172  0.1350
   24MOL0     C 3169   7.049   9.694   9.358  0.2630  0.0243  0.9341
   24MOL0     C 3170   6.501  10.109   9.080 -0.0827 -0.1743  0.2194
   24MOL0     C 3171   6.371  10.138   9.106 -0.5575  0.4839 -0.1334
   24MOL0     C 3172   6.348  10.263   9.191  0.5558 -0.3322 -0.1562
   24MOL0     H 3173   5.919   9.828   9.182  0.3988  0.0478 -0.9737
   24MOL0     H 3174   5.664   9.822   9.232 -1.2162 -0.7689 -0.9424
   24MOL0     H 3175   5.420   9.826   9.101 -0.3317  0.1344  0.3166
   24MOL0     H 3176   5.450   9.837   9.272 -0.2095 -1.5960 -0.9380
   24MOL0     H 3177   5.242   9.839   9.246  2.3487 -0.1185  2.7462
   24MOL0     H 3178   5.232   9.960   9.113 -0.7054 -2.1029 -0.5103
   24MOL0     H 3179   5.305  10.139   9.299  0.0450  0.4308  1.0065
   24MOL0     H 3180   5.324   9.996   9.414 -2.7073 -1.3456  0.3796
   24MOL0     H 3181   5.069  10.121   9.286  0.2048  2.6502  0.4357
   24MOL0     H 3182   5.060   9.991   9.403  2.2628 -1.4246  0.8968
   24MOL0     H 3183   5.213  10.148   9.549  2.6583  1.6936 -2.0205
   24MOL0     H 3184   5.138  10.272   9.456 -0.7973 -0.7983 -1.3751
   24MOL0     H 3185   4.993  10.060   9.624 -0.0131  1.6565  2.1767
   24MOL0     H 3186   5.017  10.230   9.656 -1.0005  0.8449  0.2037
   24MOL0     H 3187   4.856  10.135   9.414 -1.5395 -0.4526  0.1432
   24MOL0     H 3188   4.879  10.302   9.454  1.7057  0.7940  1.7575
   24MOL0     H 3189   4.760  10.166   9.698 -6.3054 -1.3264  0.6980
   24MOL0     H 3190   4.716  10.312   9.622 -1.9391  0.0792  0.7510
   24MOL0     H 3191   4.612   9.941   9.615  1.2404  0.1630  0.6120
   24MOL0     H 3192   4.396   9.887   9.288  3.2150 -0.6338 -1.0389
   24MOL0     H 3193   4.496   9.778   9.382 -1.1491 -0.3192 -1.6537
   24MOL0     H 3194   4.221   9.915   9.438 -0.6462 -0.2250 -0.5655
   24MOL0     H 3195   4.263   9.743   9.416  0.0671  0.7250 -1.0482
   24MOL0     H 3196   4.363   9.899   9.656  0.3353  0.4315 -0.1739
   24MOL0     H 3197   4.372   9.723   9.643  0.6649  1.3487  0.5847
   24MOL0     H 3198   4.112   9.754   9.616  0.1784 -1.0294  1.2634
   24MOL0     H 3199   4.135   9.911   9.700  0.2473  0.0665  0.4469
   24MOL0     H 3200   4.151   9.604  10.028 -1.8121 -3.5564 -0.1710
   24MOL0     H 3201   3.944   9.555  10.151 -2.5423  1.1715  0.8189
   24MOL0     H 3202   3.600   9.672  10.400  1.0007 -1.4392  1.6473
   24MOL0     H 3203   3.381   9.600  10.503 -0.8432 -1.2147  1.1278
   24MOL0     H 3204   3.179   9.297  10.296 -1.8979  1.1697  0.4322
   24MOL0     H 3205   3.244   9.162  10.398 -1.7238 -0.6839 -0.0062
   24MOL0     H 3206   3.008   9.138  10.434 -2.1898 -0.1381  2.2660
   24MOL0     H 3207   3.076   9.199  10.573 -1.9464 -4.8604 -0.7778
   24MOL0     H 3208   3.029   9.428  10.511 -1.1673 -0.5437  0.9529
   24MOL0     H 3209   2.948   9.385  10.355  1.0020 -3.4188 -2.6957
   24MOL0     H 3210   2.794   9.429  10.536  2.9496  1.3941 -0.1314
   24MOL0     H 3211   2.868   9.292  10.626 -2.4428 -1.2364  0.9363
   24MOL0     H 3212   2.794   9.130  10.438 -0.5708 -1.3135  1.1007
   24MOL0     H 3213   2.753   9.260  10.343  0.9459  0.9849  1.3607
   24MOL0     H 3214   2.634   9.205  10.623 -3.2331 -0.2356 -0.2837
   24MOL0     H 3215   2.571   9.323  10.518 -2.2119 -1.5525 -1.4778
   24MOL0     H 3216   2.481   9.162  10.354  0.4371 -0.0436 -0.4690
   24MOL0     H 3217   2.410   9.155  10.509 -0.1199  1.9499 -1.9220
   24MOL0     H 3218   2.630   8.961  10.397  0.3395  0.6831 -0.4350
   24MOL0     H 3219   2.546   8.960  10.552  0.0855  2.5928  0.7287
   24MOL0     H 3220   3.431   9.229  10.293  0.4832 -0.3075 -2.0076
   24MOL0     H 3221   3.617   9.319  10.178  0.0058  1.2862  0.0942
   24MOL0     H 3222   3.729   9.799   9.878  0.2158  0.4564 -1.0180
   24MOL0     H 3223   3.911   9.850   9.765 -0.5764  0.0842  1.0167
   24MOL0     H 3224   5.618  10.184   9.009  1.7370  0.9025 -1.9635
   24MOL0     H 3225   5.839  10.202   8.971  0.3113  1.6703  1.6438
   24MOL0     H 3226   6.230   9.854   8.986  0.3222 -0.1585 -1.1932
   24MOL0     H 3227   6.461   9.814   8.911 -0.3746 -0.1193  1.4484
   24MOL0     H 3228   6.846   9.882   8.963 -0.2364  1.3068  0.4387
   24MOL0     H 3229   6.711   9.809   8.876  0.9305  1.4253 -1.0243
   24MOL0     H 3230   6.802   9.676   9.085  0.1885 -0.2202  0.7982
   24MOL0     H 3231   6.624   9.716   9.093  0.6469  1.1298  0.1041
   24MOL0     H 3232   6.713   9.756   9.302 -1.9038  0.6417  1.0453
   24MOL0     H 3233   6.671   9.905   9.238  0.5290 -0.3828 -1.7349
   24MOL0     H 3234   6.939   9.938   9.181  1.5564 -3.3866  0.2380
   24MOL0     H 3235   6.872   9.972   9.334 -2.0999 -1.7888 -0.4396
   24MOL0     H 3236   7.121   9.617   9.378  0.5131 -0.3053 -1.0226
   24MOL0     H 3237   6.581  10.181   9.096 -0.2835  0.9336 -2.9533
   24MOL0     H 3238   6.446  10.311   9.203  1.6307 -1.1988 -4.0531
   24MOL0     H 3239   6.276  10.330   9.143  0.9052  2.3918  2.7951
   24MOL0     H 3240   6.319  10.249   9.295 -1.9373  2.3775 -0.3666
   25MOL0     O 3241   2.914   3.548   6.890  0.2496  0.0169  0.0267
   25MOL0     C 3242   2.809   3.511   6.832  0.3537  0.8565  0.3414
   25MOL0     O 3243   2.801   3.453   6.714  0.1296  0.3173 -0.7539
   25MOL0     C 3244   2.910   3.435   6.648 -0.1868  0.0628  0.0687
   25MOL0     C 3245   2.995   3.335   6.683 -1.5180  0.3242 -0.0191
   25MOL0     C 3246   3.109   3.308   6.611 -1.1646 -0.8693  0.5596
   25MOL0     C 3247   3.151   3.395   6.510  0.2836  0.3038  0.1809
   25MOL0     O 3248   3.258   3.350   6.436  0.0422  0.6944 -0.6618
   25MOL0     C 3249   3.352   3.438   6.363 -0.3059  0.4739  0.7796
   25MOL0     C 3250   3.373   3.387   6.213  0.3875 -0.1259 -0.1866
   25MOL0     C 3251   3.441   3.254   6.192  0.1771  0.2868 -0.8186
   25MOL0     C 3252   3.482   3.245   6.040 -1.0599  0.1872  0.7863
   25MOL0     C 3253   3.579   3.123   6.022 -0.2540  0.4605  0.5107
   25MOL0     C 3254   3.638   3.100   5.876  0.1621 -1.2643 -0.8222
   25MOL0     C 3255   3.710   2.972   5.889 -0.3422  0.9754  1.0213
   25MOL0     C 3256   3.612   2.854   5.871 -0.3512 -0.8598  0.8434
   25MOL0     N 3257   3.591   2.820   5.729 -0.1846  0.0866  0.1343
   25MOL0     C 3258   3.669   2.740   5.641  0.0649 -0.7240 -0.5731
   25MOL0     C 3259   3.590   2.713   5.542  0.1145  0.4892 -0.1990
   25MOL0     C 3260   3.626   2.635   5.423 -0.4246  0.0130 -0.3371
   25MOL0     C 3261   3.758   2.557   5.427  0.3002  0.0519 -0.6775
   25MOL0     C 3262   3.761   2.433   5.327 -0.4459 -0.1576  0.5802
   25MOL0     C 3263   3.872   2.438   5.220  0.0332 -0.7489  0.2707
   25MOL0     O 3264   3.995   2.425   5.298  0.2826 -1.0450  0.8406
   25MOL0     C 3265   4.113   2.406   5.234  0.0625 -0.4787  0.4895
   25MOL0     C 3266   4.132   2.317   5.134  0.5936 -0.3018 -0.1871
   25MOL0     C 3267   4.252   2.295   5.073  0.0422  0.8778 -0.5949
   25MOL0     C 3268   4.369   2.354   5.130 -0.4149  0.0603  0.4836
   25MOL0     C 3269   4.504   2.320   5.070 -0.2190 -0.1203 -0.1500
   25MOL0     O 3270   4.596   2.368   5.149 -0.0021 -0.0205 -0.5682
   25MOL0     C 3271   4.721   2.380   5.103 -1.1432 -0.2718  0.6917
   25MOL0     C 3272   4.824   2.290   5.132  0.6526  0.3371 -0.4455
   25MOL0     C 3273   4.960   2.309   5.085  0.9591  0.1974 -0.1871
   25MOL0     C 3274   4.982   2.423   5.008 -0.7358 -1.1200 -0.0868
   25MOL0     O 3275   5.110   2.452   4.969 -0.0451  0.1904  0.1024
   25MOL0     C 3276   5.137   2.384   4.840  0.8221  0.5278 -1.0210
   25MOL0     C 3277   5.274   2.425   4.783  1.1467  0.1257  0.7109
   25MOL0     C 3278   5.288   2.417   4.632  1.3696  0.1085 -0.3246
   25MOL0     C 3279   5.215   2.282   4.574  0.1348 -0.0639  0.7426
   25MOL0     C 3280   5.287   2.158   4.617  0.2184 -0.0033  0.7985
   25MOL0     C 3281   5.437   2.170   4.590 -0.0872  0.6448 -0.6229
   25MOL0     C 3282   5.503   2.030   4.606  0.1140  0.2179 -0.3795
   25MOL0     C 3283   5.661   2.030   4.607 -0.1753  0.0035  0.2565
   25MOL0    Cl 3284   5.724   2.130   4.458  0.1744  0.2008  0.0006
   25MOL0     C 3285   4.875   2.517   4.982 -0.2285 -0.4441  0.3345
   25MOL0     C 3286   4.750   2.496   5.028 -0.1202 -0.6596  0.3483
   25MOL0     O 3287   4.516   2.247   4.967 -0.4114 -0.0947 -0.6676
   25MOL0     C 3288   4.358   2.449   5.229 -0.2505  0.0615 -0.0246
   25MOL0     C 3289   4.230   2.481   5.274 -0.2461  0.0582  0.1285
   25MOL0     N 3290   3.460   2.768   5.567 -0.0682  0.3458  1.1994
   25MOL0     N 3291   3.466   2.825   5.682 -1.0567  0.0767 -0.2739
   25MOL0     C 3292   3.062   3.501   6.474  1.5012 -0.2253  0.1770
   25MOL0     C 3293   2.942   3.521   6.544  0.1170 -0.6883 -1.2006
   25MOL0     C 3294   2.681   3.534   6.900  0.6760  0.3733 -0.1877
   25MOL0     C 3295   2.660   3.646   6.981  0.0609 -0.5923  0.1344
   25MOL0     C 3296   2.536   3.686   7.031 -0.2465  0.7170 -0.2930
   25MOL0     C 3297   2.427   3.600   7.010  0.6789 -0.4407 -1.0634
   25MOL0     O 3298   2.298   3.614   7.053 -0.0943  0.6658 -0.2245
   25MOL0     C 3299   2.281   3.727   7.140  0.3425 -0.2644  0.0824
   25MOL0     C 3300   2.124   3.761   7.162 -1.0737  0.5953  1.7629
   25MOL0     C 3301   2.090   3.906   7.209  0.5679  0.0259 -0.4262
   25MOL0     C 3302   1.983   3.981   7.126 -0.8915 -0.8952  0.1083
   25MOL0     C 3303   1.846   3.917   7.118 -0.3301  0.9731  0.0711
   25MOL0     C 3304   1.737   3.865   7.096  0.1542 -0.3113  0.1454
   25MOL0     C 3305   2.453   3.479   6.950 -0.0760 -0.7719 -0.2176
   25MOL0     C 3306   2.570   3.443   6.895 -1.5038  0.6139  0.5540
   25MOL0     C 3307   2.576   3.310   6.822  0.3434  0.0601 -1.1167
   25MOL0     H 3308   2.960   3.267   6.760 -1.9089 -1.9022 -2.0467
   25MOL0     H 3309   3.162   3.218   6.641  2.0160  1.0578  1.1716
   25MOL0     H 3310   3.342   3.545   6.384  1.2465  0.5624  1.1847
   25MOL0     H 3311   3.439   3.407   6.422  0.5837 -0.4023 -0.9133
   25MOL0     H 3312   3.430   3.454   6.148 -0.9586 -2.2117 -3.8046
   25MOL0     H 3313   3.273   3.377   6.170  1.1224 -2.7958 -1.4723
   25MOL0     H 3314   3.369   3.172   6.206 -0.5548  0.6930 -1.9796
   25MOL0     H 3315   3.525   3.241   6.259 -1.5671  0.3290  1.5009
   25MOL0     H 3316   3.394   3.238   5.976 -0.6066 -1.6611  0.3369
   25MOL0     H 3317   3.538   3.334   6.008 -0.0623 -1.3861 -2.1973
   25MOL0     H 3318   3.669   3.128   6.083  0.9914 -1.3803 -1.0557
   25MOL0     H 3319   3.523   3.033   6.051 -1.2251  1.2546  1.1705
   25MOL0     H 3320   3.551   3.101   5.810 -2.4630 -4.4836  2.1769
   25MOL0     H 3321   3.711   3.178   5.852  1.2097 -2.0548 -0.2797
   25MOL0     H 3322   3.771   2.960   5.979 -0.7725  0.3464  1.2397
   25MOL0     H 3323   3.775   2.968   5.802 -0.5059 -1.0673  0.9465
   25MOL0     H 3324   3.667   2.767   5.909  2.7944  0.8712  0.5895
   25MOL0     H 3325   3.521   2.865   5.930 -0.9452 -1.5229  0.0676
   25MOL0     H 3326   3.770   2.702   5.657  0.5212  1.4886  2.4949
   25MOL0     H 3327   3.539   2.574   5.400  0.7186 -2.2980  1.1434
   25MOL0     H 3328   3.657   2.707   5.346  3.4045 -2.2170 -1.1827
   25MOL0     H 3329   3.849   2.616   5.422  0.3431  0.1661  1.0217
   25MOL0     H 3330   3.755   2.511   5.527 -1.3317 -2.6608 -1.8354
   25MOL0     H 3331   3.665   2.435   5.275 -0.2073  3.0203  0.0323
   25MOL0     H 3332   3.773   2.339   5.382 -0.3307 -0.7384 -0.4213
   25MOL0     H 3333   3.868   2.537   5.173 -1.8839  0.7753  3.3035
   25MOL0     H 3334   3.861   2.354   5.151 -0.5171  0.4756 -1.1676
   25MOL0     H 3335   4.053   2.253   5.095  1.1725 -0.5342 -0.9986
   25MOL0     H 3336   4.268   2.228   4.990  3.4035 -0.1705  0.7052
   25MOL0     H 3337   4.805   2.211   5.204 -1.5718  1.7248  0.6066
   25MOL0     H 3338   5.038   2.239   5.115  0.1394 -0.6130  0.0799
   25MOL0     H 3339   5.136   2.275   4.853 -1.0749  0.5343 -0.7207
   25MOL0     H 3340   5.068   2.416   4.761 -0.3136  0.6583 -0.0126
   25MOL0     H 3341   5.297   2.530   4.804  1.9976  0.0919  0.0352
   25MOL0     H 3342   5.342   2.358   4.836  2.6824  0.8980 -0.2097
   25MOL0     H 3343   5.243   2.505   4.585  2.7210  0.5022 -0.9343
   25MOL0     H 3344   5.389   2.413   4.591  0.7762  1.2811 -2.0101
   25MOL0     H 3345   5.233   2.290   4.467 -2.6279 -2.1031 -0.0114
   25MOL0     H 3346   5.108   2.284   4.599  0.1940 -1.0219  1.1388
   25MOL0     H 3347   5.247   2.078   4.555  0.0505  1.0441 -0.4744
   25MOL0     H 3348   5.265   2.133   4.722  0.8178 -1.0720  0.6919
   25MOL0     H 3349   5.453   2.213   4.491 -3.3660  1.9767 -0.7082
   25MOL0     H 3350   5.486   2.238   4.661  2.7480 -2.3390  0.5511
   25MOL0     H 3351   5.472   1.957   4.530 -1.2640  2.5792 -2.2294
   25MOL0     H 3352   5.465   1.998   4.704 -0.2808 -1.0349 -0.9157
   25MOL0     H 3353   5.687   2.091   4.695  0.7707 -0.7880  0.5448
   25MOL0     H 3354   5.714   1.935   4.615  1.9185  1.0005 -1.1669
   25MOL0     H 3355   4.896   2.609   4.930  0.1788  1.8966  4.2157
   25MOL0     H 3356   4.687   2.582   5.007  0.7012 -0.5667 -2.1419
   25MOL0     H 3357   4.446   2.496   5.272 -0.1679 -0.7203  0.7134
   25MOL0     H 3358   4.232   2.554   5.355  2.0573  2.0911 -1.5942
   25MOL0     H 3359   3.076   3.565   6.388 -0.8015  2.8875  1.9279
   25MOL0     H 3360   2.881   3.595   6.494  0.8969  0.2396 -0.8201
   25MOL0     H 3361   2.745   3.713   6.978  0.0694 -0.5494  1.0372
   25MOL0     H 3362   2.534   3.786   7.073 -1.0022  0.0867  1.2198
   25MOL0     H 3363   2.325   3.813   7.089 -0.9297  2.9898  3.9412
   25MOL0     H 3364   2.329   3.721   7.239 -2.0794  2.8838  1.6366
   25MOL0     H 3365   2.084   3.685   7.231 -0.6849 -1.3040 -0.0056
   25MOL0     H 3366   2.072   3.740   7.068  1.4077  0.8955  0.2286
   25MOL0     H 3367   2.189   3.953   7.206  0.5253  0.3320  1.5942
   25MOL0     H 3368   2.055   3.901   7.312  0.3357 -2.4503 -0.5739
   25MOL0     H 3369   1.958   4.081   7.163 -1.9171 -1.5155  1.1563
   25MOL0     H 3370   2.025   3.999   7.026  1.2559 -0.1670  1.0658
   25MOL0     H 3371   1.647   3.814   7.068 -1.4937  1.0082  2.6844
   25MOL0     H 3372   2.368   3.415   6.933  0.9076 -2.4261  0.8109
   25MOL0     H 3373   2.497   3.238   6.845 -0.0802  0.9676  0.3929
   25MOL0     H 3374   2.572   3.320   6.713 -1.5817 -0.6932 -1.1694
   25MOL0     H 3375   2.666   3.255   6.850 -0.7386  0.1850  3.3288
   26MOL0     O 3376   7.037   8.697  10.003  0.1331 -0.2944 -0.1870
   26MOL0     C 3377   6.936   8.657  10.052  0.1911 -1.2319  0.1151
   26MOL0     O 3378   6.930   8.601  10.172  0.2824 -0.3587  0.0599
   26MOL0     C 3379   7.046   8.585  10.238 -0.3073  0.7696  1.1362
   26MOL0     C 3380   7.097   8.457  10.238  0.1650  1.3926  1.4390
   26MOL0     C 3381   7.216   8.436  10.306  0.6946  0.2652 -0.4423
   26MOL0     C 3382   7.292   8.539  10.378  1.1215  0.1630 -0.0086
   26MOL0     O 3383   7.415   8.506  10.423 -0.3412  0.1811 -0.3103
   26MOL0     C 3384   7.516   8.596  10.456 -0.5119 -0.4346 -0.1192
   26MOL0     C 3385   7.632   8.536  10.533  0.7153  0.2587 -0.0420
   26MOL0     C 3386   7.598   8.517  10.677 -0.8957 -0.2166 -0.0297
   26MOL0     C 3387   7.706   8.447  10.744  0.2258 -0.1789  0.2670
   26MOL0     C 3388   7.822   8.545  10.785  0.9123 -0.7179  0.1313
   26MOL0     C 3389   7.917   8.471  10.870  0.6487 -0.1830 -0.0128
   26MOL0     C 3390   8.042   8.555  10.908  0.5459 -0.6937  1.0343
   26MOL0     C 3391   7.994   8.670  11.006 -0.1502 -0.5999  0.3722
   26MOL0     N 3392   8.108   8.746  11.060 -0.4082 -0.2765  0.4450
   26MOL0     C 3393   8.197   8.707  11.166 -0.7006  0.0118 -0.4297
   26MOL0     C 3394   8.263   8.821  11.196 -0.0419  0.2572 -0.9868
   26MOL0     C 3395   8.377   8.825  11.301  0.5038  0.1827  0.2342
   26MOL0     C 3396   8.482   8.924  11.267  1.1284  0.8940  0.3667
   26MOL0     C 3397   8.593   8.929  11.378  0.3230  1.0474  0.5441
   26MOL0     C 3398   8.695   8.810  11.369  0.8309 -1.8073  0.3322
   26MOL0     O 3399   8.766   8.807  11.237 -0.0009 -0.3974  0.4023
   26MOL0     C 3400   8.764   8.684  11.169 -0.3061  0.4146  0.2930
   26MOL0     C 3401   8.743   8.683  11.032 -0.9727  0.0250  0.8622
   26MOL0     C 3402   8.762   8.569  10.947  0.3588 -0.1638 -0.4410
   26MOL0     C 3403   8.796   8.446  11.003  0.8518  0.6568  1.1095
   26MOL0     C 3404   8.819   8.330  10.911 -1.1556 -0.3535  0.3948
   26MOL0     O 3405   8.816   8.217  10.971  0.4736  0.4184  0.8902
   26MOL0     C 3406   8.830   8.106  10.898 -0.2374  0.0296  0.3459
   26MOL0     C 3407   8.738   7.996  10.906  0.0017 -0.1928 -1.0701
   26MOL0     C 3408   8.751   7.871  10.845 -0.6841  0.5223  0.2042
   26MOL0     C 3409   8.871   7.848  10.769  0.3874 -0.4878  0.3355
   26MOL0     O 3410   8.908   7.727  10.698 -0.2845  0.8472 -0.9945
   26MOL0     C 3411   8.799   7.646  10.642  0.0384  0.2747 -0.1785
   26MOL0     C 3412   8.766   7.552  10.763 -0.5673 -0.6600 -0.6668
   26MOL0     C 3413   8.609   7.523  10.781  0.3819 -0.5761 -0.4602
   26MOL0     C 3414   8.547   7.473  10.646  0.4574  0.9329  0.2159
   26MOL0     C 3415   8.424   7.380  10.671  0.4848 -0.0635  0.7340
   26MOL0     C 3416   8.394   7.303  10.540 -0.3856  0.2566  0.4412
   26MOL0     C 3417   8.253   7.251  10.544 -0.4576  0.7266  0.2662
   26MOL0     C 3418   8.195   7.181  10.419 -0.2317 -0.5595 -0.3814
   26MOL0    Cl 3419   8.159   7.287  10.287 -0.1185 -0.1751  0.0373
   26MOL0     C 3420   8.960   7.952  10.754 -0.5852  0.2616  0.7445
   26MOL0     C 3421   8.942   8.080  10.814 -0.5791 -0.2129  0.4883
   26MOL0     O 3422   8.829   8.343  10.791 -0.4719  0.2526  0.2126
   26MOL0     C 3423   8.808   8.445  11.146  0.9584  0.5335 -1.0011
   26MOL0     C 3424   8.795   8.559  11.228 -0.6737 -0.7897 -0.0968
   26MOL0     N 3425   8.215   8.924  11.124  0.4489  0.0519  0.1152
   26MOL0     N 3426   8.118   8.878  11.052  0.2372 -0.3238 -0.6432
   26MOL0     C 3427   7.235   8.666  10.364  0.0467  0.4228  0.0058
   26MOL0     C 3428   7.124   8.688  10.291  0.4001  0.1277 -0.1135
   26MOL0     C 3429   6.808   8.693   9.985  0.4972 -1.0592 -0.0598
   26MOL0     C 3430   6.749   8.818  10.014  0.3330 -0.2453  0.4727
   26MOL0     C 3431   6.618   8.849   9.962 -0.3230 -0.0795 -0.2832
   26MOL0     C 3432   6.552   8.753   9.878 -0.1383  0.0431  0.0234
   26MOL0     O 3433   6.430   8.795   9.832 -0.3394 -0.4808 -0.1048
   26MOL0     C 3434   6.337   8.705   9.767 -0.1180 -1.1274 -0.4465
   26MOL0     C 3435   6.265   8.622   9.879  0.1521 -1.3033  0.5339
   26MOL0     C 3436   6.192   8.717   9.975  1.1427 -0.7013 -0.0111
   26MOL0     C 3437   6.087   8.634  10.073 -0.0244  0.4139  0.2234
   26MOL0     C 3438   6.001   8.737  10.131 -0.2392 -0.0583  0.3694
   26MOL0     C 3439   5.936   8.832  10.165 -0.3015 -0.1992 -0.2917
   26MOL0     C 3440   6.609   8.630   9.838  0.5765 -0.0500  0.2311
   26MOL0     C 3441   6.743   8.600   9.891 -0.0081  0.6676 -0.3971
   26MOL0     C 3442   6.811   8.468   9.862 -0.0798  0.1252  0.0110
   26MOL0     H 3443   7.049   8.372  10.191 -0.0651  0.3163  3.5247
   26MOL0     H 3444   7.262   8.338  10.300 -0.2774 -0.3225  1.1190
   26MOL0     H 3445   7.555   8.655  10.373 -0.3011  0.2202  0.4324
   26MOL0     H 3446   7.478   8.677  10.520  3.5219  0.1153  1.8890
   26MOL0     H 3447   7.728   8.586  10.519  1.7186 -1.7118 -0.5951
   26MOL0     H 3448   7.646   8.433  10.500 -2.7225  0.4056 -2.5481
   26MOL0     H 3449   7.496   8.480  10.688 -0.6171 -0.4736  2.0413
   26MOL0     H 3450   7.592   8.617  10.723 -1.1264 -0.4048  0.3534
   26MOL0     H 3451   7.656   8.411  10.834 -0.8604  1.1560  0.2318
   26MOL0     H 3452   7.745   8.357  10.694  1.6491  0.4754  0.1624
   26MOL0     H 3453   7.874   8.581  10.697  2.6086  1.9168  2.0680
   26MOL0     H 3454   7.780   8.627  10.844 -0.0643 -1.1916  0.1309
   26MOL0     H 3455   7.870   8.440  10.964  0.0038 -3.0463 -1.1877
   26MOL0     H 3456   7.956   8.385  10.816 -1.6778 -1.1685 -0.2036
   26MOL0     H 3457   8.093   8.607  10.826 -0.0868  0.3926  1.3108
   26MOL0     H 3458   8.121   8.490  10.945  0.5688 -0.8798  0.6554
   26MOL0     H 3459   7.924   8.742  10.963  0.8107  0.7549  1.0132
   26MOL0     H 3460   7.941   8.625  11.091 -0.6889 -3.0096 -1.1527
   26MOL0     H 3461   8.217   8.608  11.204  1.1958  0.4303 -0.2733
   26MOL0     H 3462   8.355   8.841  11.407  4.6252 -0.6110  1.3774
   26MOL0     H 3463   8.423   8.725  11.304 -3.0156 -1.7462 -2.2944
   26MOL0     H 3464   8.531   8.889  11.176 -2.0559 -1.5968 -0.5439
   26MOL0     H 3465   8.445   9.026  11.248 -3.0543 -1.1248 -4.4849
   26MOL0     H 3466   8.545   8.919  11.476 -2.2615 -1.9089 -0.8371
   26MOL0     H 3467   8.642   9.026  11.365 -0.1713  1.2547  0.1892
   26MOL0     H 3468   8.635   8.720  11.387 -2.5499  0.1336 -0.3147
   26MOL0     H 3469   8.775   8.820  11.443 -1.1475  0.3498  2.3684
   26MOL0     H 3470   8.722   8.768  10.969 -2.1248  0.4889  1.8300
   26MOL0     H 3471   8.748   8.570  10.839 -1.9035 -1.6811 -0.2287
   26MOL0     H 3472   8.663   8.006  10.983  1.4854  0.3319  0.3515
   26MOL0     H 3473   8.682   7.789  10.862 -0.7108  0.3264 -0.8006
   26MOL0     H 3474   8.718   7.712  10.612  0.8479  1.3680 -0.0318
   26MOL0     H 3475   8.836   7.585  10.559  4.8222  0.5780  1.4099
   26MOL0     H 3476   8.823   7.460  10.775 -0.1207 -0.0116  3.5373
   26MOL0     H 3477   8.778   7.606  10.857 -1.8329 -0.2118 -0.7299
   26MOL0     H 3478   8.594   7.448  10.860  0.9549  0.5694  0.7637
   26MOL0     H 3479   8.563   7.616  10.817  1.5699 -0.8231  1.8799
   26MOL0     H 3480   8.613   7.407  10.589  0.6210  0.6133  0.7621
   26MOL0     H 3481   8.525   7.557  10.579  5.3713  2.2698 -0.0778
   26MOL0     H 3482   8.336   7.433  10.709 -1.2203 -2.4330  0.3627
   26MOL0     H 3483   8.456   7.303  10.742  0.4706  0.0164  0.8254
   26MOL0     H 3484   8.403   7.378  10.461  2.5422  0.0096  0.4366
   26MOL0     H 3485   8.467   7.234  10.497 -2.1255  0.3874 -3.1011
   26MOL0     H 3486   8.184   7.331  10.571 -3.1534 -1.6186  0.7755
   26MOL0     H 3487   8.253   7.184  10.631 -0.8230  0.7917  0.3145
   26MOL0     H 3488   8.264   7.104  10.384 -1.7411 -1.7726 -0.7442
   26MOL0     H 3489   8.109   7.121  10.448  0.5139 -0.2075  2.9011
   26MOL0     H 3490   9.053   7.933  10.702  0.1417 -2.6515  2.8675
   26MOL0     H 3491   9.019   8.157  10.811 -1.1948  0.4609 -3.3332
   26MOL0     H 3492   8.838   8.358  11.203 -0.1593  1.5161  1.2280
   26MOL0     H 3493   8.827   8.552  11.332 -1.3456  1.3048  0.3137
   26MOL0     H 3494   7.271   8.748  10.425 -0.1749  1.6076 -1.4107
   26MOL0     H 3495   7.075   8.785  10.296  0.7894  0.4138 -1.4261
   26MOL0     H 3496   6.787   8.893  10.083 -2.2550  0.6002  1.0935
   26MOL0     H 3497   6.573   8.939  10.002 -0.1067  0.3228 -0.9342
   26MOL0     H 3498   6.372   8.632   9.693 -0.5891 -1.4243 -0.3808
   26MOL0     H 3499   6.268   8.766   9.709  3.1708  0.2829 -3.2457
   26MOL0     H 3500   6.339   8.557   9.926  1.9945 -0.6266 -1.2600
   26MOL0     H 3501   6.186   8.569   9.824 -0.8458  1.8812 -1.3553
   26MOL0     H 3502   6.148   8.793   9.910 -1.2028 -2.2119 -0.2999
   26MOL0     H 3503   6.268   8.750  10.047 -1.0939  2.7280  1.0326
   26MOL0     H 3504   6.028   8.560  10.019  0.2926 -0.9417  1.6681
   26MOL0     H 3505   6.146   8.588  10.152 -1.2321 -1.3808  0.1365
   26MOL0     H 3506   5.878   8.917  10.196  0.5242 -0.5000  2.3303
   26MOL0     H 3507   6.561   8.568   9.763  0.6645  1.6400 -1.2890
   26MOL0     H 3508   6.770   8.381   9.914 -0.8857  1.2016  1.2536
   26MOL0     H 3509   6.780   8.450   9.759  0.3379  0.8313 -0.2446
   26MOL0     H 3510   6.920   8.470   9.871 -0.0159 -0.0486 -0.7117
   27MOL0     O 3511   9.699   4.618   4.484 -0.0065  0.3078  0.7158
   27MOL0     C 3512   9.596   4.568   4.444  0.2869  0.4490  0.5734
   27MOL0     O 3513   9.558   4.565   4.312 -0.3191 -0.4279  0.8080
   27MOL0     C 3514   9.645   4.630   4.227 -0.7629  0.4048 -0.4082
   27MOL0     C 3515   9.605   4.758   4.174 -0.2279 -0.5229 -0.3621
   27MOL0     C 3516   9.680   4.834   4.087 -0.5937  0.3045  0.1153
   27MOL0     C 3517   9.811   4.792   4.054 -0.2459 -0.2643  0.0571
   27MOL0     O 3518   9.897   4.858   3.971  0.9547 -0.4565  0.0131
   27MOL0     C 3519   9.872   4.997   3.936 -0.1211  0.5435  0.4669
   27MOL0     C 3520   9.875   5.093   4.056 -0.0792 -0.1004 -0.4726
   27MOL0     C 3521  10.026   5.099   4.107 -0.7270 -0.5125 -0.1507
   27MOL0     C 3522  10.139   5.149   4.008  0.3386 -0.3020  0.0211
   27MOL0     C 3523  10.101   5.291   3.959 -0.5498 -0.8056 -0.2147
   27MOL0     C 3524  10.204   5.353   3.880 -0.3845  0.2211 -0.8192
   27MOL0     C 3525  10.170   5.497   3.850 -0.7496 -0.0807 -0.5174
   27MOL0     C 3526  10.266   5.573   3.770 -0.3430  0.1297  0.9975
   27MOL0     N 3527  10.201   5.677   3.696 -0.0531 -0.4351 -0.4752
   27MOL0     C 3528  10.076   5.672   3.638  0.5111 -0.8560 -1.2826
   27MOL0     C 3529  10.054   5.804   3.619  0.6282  0.3210  0.1335
   27MOL0     C 3530   9.922   5.857   3.571 -0.0367  0.7906  0.8448
   27MOL0     C 3531   9.941   5.908   3.429  0.2545  0.2207 -0.0005
   27MOL0     C 3532   9.975   5.815   3.310  0.2231  0.1276 -0.1352
   27MOL0     C 3533   9.967   5.884   3.178 -0.7310  0.5655  0.5157
   27MOL0     O 3534   9.832   5.920   3.163 -0.4550 -0.1913  0.7309
   27MOL0     C 3535   9.798   5.993   3.045 -0.1161  0.6417 -0.0757
   27MOL0     C 3536   9.887   6.029   2.948  0.7389  0.3148 -0.4199
   27MOL0     C 3537   9.853   6.109   2.833  0.6625 -0.2312 -0.5980
   27MOL0     C 3538   9.716   6.131   2.805  0.1124 -0.5612 -0.2802
   27MOL0     C 3539   9.666   6.204   2.678  0.2240  0.4101  0.0813
   27MOL0     O 3540   9.536   6.226   2.657 -0.1965 -0.0352 -0.2511
   27MOL0     C 3541   9.490   6.283   2.534 -0.5688 -0.2974 -0.5130
   27MOL0     C 3542   9.527   6.409   2.492 -1.1957 -0.3831 -0.0087
   27MOL0     C 3543   9.465   6.464   2.377 -0.2482  0.1853  0.1246
   27MOL0     C 3544   9.385   6.386   2.299  0.1507 -0.2108 -0.5807
   27MOL0     O 3545   9.343   6.433   2.171 -0.2026 -0.5624 -0.5029
   27MOL0     C 3546   9.243   6.370   2.092 -0.1187  0.4006  1.2509
   27MOL0     C 3547   9.240   6.425   1.948  0.0505 -0.5776  0.0598
   27MOL0     C 3548   9.186   6.323   1.842  0.4652  0.1282 -0.9252
   27MOL0     C 3549   9.217   6.369   1.703 -0.7507  0.8278 -0.1540
   27MOL0     C 3550   9.170   6.270   1.592  0.0098 -0.3548 -0.2703
   27MOL0     C 3551   9.200   6.310   1.443 -1.5456  0.1955 -0.7021
   27MOL0     C 3552   9.105   6.415   1.376  0.2307  0.2046  0.3700
   27MOL0     C 3553   8.955   6.406   1.399  0.9520  0.2266  0.0532
   27MOL0    Cl 3554   8.890   6.237   1.377  0.1268  0.2769 -0.0959
   27MOL0     C 3555   9.369   6.257   2.329  1.0515  0.1015  0.0370
   27MOL0     C 3556   9.415   6.204   2.446  0.2095 -0.2311 -0.0214
   27MOL0     O 3557   9.761   6.231   2.601 -0.3598  0.3379  0.5321
   27MOL0     C 3558   9.622   6.100   2.906  1.1424 -0.2101 -0.1536
   27MOL0     C 3559   9.661   6.023   3.025  0.3704 -0.0741 -0.1249
   27MOL0     N 3560  10.164   5.879   3.652  0.7081  0.1935  0.1559
   27MOL0     N 3561  10.257   5.800   3.700 -0.5253 -0.8592 -0.4492
   27MOL0     C 3562   9.853   4.671   4.116 -0.5312 -0.1499 -0.3088
   27MOL0     C 3563   9.775   4.591   4.193  0.7998 -0.2569  0.8452
   27MOL0     C 3564   9.514   4.491   4.540  0.0023  0.2184  0.0304
   27MOL0     C 3565   9.560   4.473   4.674  0.3716  0.1462 -0.0661
   27MOL0     C 3566   9.504   4.394   4.773 -0.3988 -0.0170  0.5766
   27MOL0     C 3567   9.392   4.312   4.742 -0.9112 -0.6959 -0.0391
   27MOL0     O 3568   9.345   4.234   4.845  0.2385 -0.3767 -0.3010
   27MOL0     C 3569   9.319   4.096   4.810 -0.5892  0.1297  0.2350
   27MOL0     C 3570   9.444   4.025   4.756 -0.1631  0.2817 -0.6181
   27MOL0     C 3571   9.436   3.864   4.766 -0.2120  0.3559 -0.1438
   27MOL0     C 3572   9.530   3.798   4.652  0.4222 -0.4397  0.7286
   27MOL0     C 3573   9.667   3.795   4.713 -0.2306  0.7614 -0.1715
   27MOL0     C 3574   9.778   3.783   4.747 -0.0432  0.6135 -0.0363
   27MOL0     C 3575   9.344   4.326   4.607 -0.0323 -0.4726 -0.1683
   27MOL0     C 3576   9.400   4.407   4.505  0.7440  1.2868 -0.5526
   27MOL0     C 3577   9.324   4.417   4.372 -0.8286  0.1949 -0.1226
   27MOL0     H 3578   9.502   4.787   4.195 -0.3771 -1.0526 -0.3494
   27MOL0     H 3579   9.632   4.921   4.045  1.8776  2.0912  0.7648
   27MOL0     H 3580   9.950   5.024   3.863 -0.8799 -0.5672 -0.8009
   27MOL0     H 3581   9.781   5.010   3.877 -0.2772  0.9940  0.8017
   27MOL0     H 3582   9.803   5.069   4.135 -3.2917 -1.6279 -3.5547
   27MOL0     H 3583   9.860   5.186   4.001  3.8578  0.3401 -1.0599
   27MOL0     H 3584  10.038   5.005   4.163 -1.3444 -0.8273 -0.5407
   27MOL0     H 3585  10.034   5.167   4.193 -0.1522 -2.1127  1.1088
   27MOL0     H 3586  10.232   5.154   4.066 -1.1173  1.0353  2.3991
   27MOL0     H 3587  10.147   5.072   3.930  0.9741 -0.6981  0.4685
   27MOL0     H 3588  10.014   5.292   3.893 -0.0428  2.7850 -1.0398
   27MOL0     H 3589  10.065   5.350   4.044  0.6761  1.5399 -1.2604
   27MOL0     H 3590  10.296   5.359   3.939 -0.5170  3.1937 -0.8022
   27MOL0     H 3591  10.220   5.291   3.791  2.4180 -1.7200  0.8706
   27MOL0     H 3592  10.163   5.553   3.943 -2.3480  0.0470 -0.6924
   27MOL0     H 3593  10.070   5.500   3.806 -0.2465  0.5370 -1.6671
   27MOL0     H 3594  10.346   5.610   3.835  0.6127  1.1342 -0.6875
   27MOL0     H 3595  10.324   5.505   3.707  1.1577 -0.9957  3.4259
   27MOL0     H 3596  10.001   5.593   3.637 -1.1551  0.3976  2.7241
   27MOL0     H 3597   9.845   5.780   3.555 -0.2041  1.0169  0.5589
   27MOL0     H 3598   9.867   5.925   3.637 -0.2567  1.4485 -0.0020
   27MOL0     H 3599   9.846   5.959   3.407 -0.0415  0.4224  1.6543
   27MOL0     H 3600  10.011   5.992   3.437 -1.3240  1.4182  2.1930
   27MOL0     H 3601   9.911   5.726   3.305  1.2280 -0.6297  0.2437
   27MOL0     H 3602  10.074   5.770   3.318 -0.5328 -1.4540  1.1831
   27MOL0     H 3603   9.989   5.816   3.095  0.2551  1.5850 -0.0854
   27MOL0     H 3604  10.027   5.975   3.185  0.2632 -0.2213  3.8170
   27MOL0     H 3605   9.992   6.003   2.947  0.5457 -0.5577  0.4389
   27MOL0     H 3606   9.923   6.143   2.756 -0.9105  2.5873 -0.9086
   27MOL0     H 3607   9.604   6.463   2.546  0.1378 -2.5468  0.3858
   27MOL0     H 3608   9.484   6.569   2.355  0.6658  0.6008  2.5909
   27MOL0     H 3609   9.276   6.267   2.077  1.7953  0.9736  1.3033
   27MOL0     H 3610   9.144   6.388   2.134 -0.2387 -1.0159  1.6098
   27MOL0     H 3611   9.179   6.516   1.947  0.3432 -0.3786 -0.5101
   27MOL0     H 3612   9.338   6.464   1.919 -1.2377  1.5828 -1.8062
   27MOL0     H 3613   9.231   6.225   1.865 -1.8757 -1.1150 -1.2871
   27MOL0     H 3614   9.077   6.311   1.846  0.6948 -2.6276 -1.0237
   27MOL0     H 3615   9.326   6.380   1.703 -0.7913  1.5123  1.4325
   27MOL0     H 3616   9.172   6.468   1.696 -1.8597  0.2150 -2.9622
   27MOL0     H 3617   9.068   6.241   1.618  0.9878 -1.7768  2.2921
   27MOL0     H 3618   9.225   6.177   1.607  2.9242  1.2381 -0.3587
   27MOL0     H 3619   9.302   6.350   1.448 -2.3196  2.1293  0.7179
   27MOL0     H 3620   9.209   6.223   1.376 -1.3814 -0.5795  0.2952
   27MOL0     H 3621   9.125   6.401   1.269  0.5377 -0.8887  0.5597
   27MOL0     H 3622   9.142   6.508   1.420  0.4995 -0.0972  0.7858
   27MOL0     H 3623   8.930   6.458   1.492  0.0783  0.1761 -0.1446
   27MOL0     H 3624   8.910   6.460   1.315 -4.8837 -2.5659  0.9028
   27MOL0     H 3625   9.323   6.187   2.261  1.3256 -1.9421  1.8445
   27MOL0     H 3626   9.391   6.102   2.475 -1.4185  0.4741  1.2155
   27MOL0     H 3627   9.517   6.121   2.889  0.6414 -1.7058  0.8699
   27MOL0     H 3628   9.599   5.994   3.110  0.2509  0.9392  0.1491
   27MOL0     H 3629   9.949   4.622   4.100 -0.3919 -0.3711  1.0813
   27MOL0     H 3630   9.825   4.505   4.238  3.2065  1.1102  0.9101
   27MOL0     H 3631   9.642   4.537   4.706 -1.6962  2.6813  0.4401
   27MOL0     H 3632   9.535   4.381   4.876  0.9891 -0.9689  0.0759
   27MOL0     H 3633   9.248   4.079   4.729  0.9190  0.5596 -1.2367
   27MOL0     H 3634   9.285   4.057   4.906 -0.2193  2.2354  1.2953
   27MOL0     H 3635   9.533   4.049   4.814  1.5570 -0.4869 -2.8025
   27MOL0     H 3636   9.461   4.065   4.655 -0.4101  0.3502 -0.6353
   27MOL0     H 3637   9.335   3.839   4.734 -0.9472  3.9055 -1.0641
   27MOL0     H 3638   9.457   3.823   4.865  1.6421 -0.6420 -0.8901
   27MOL0     H 3639   9.488   3.699   4.638  1.7323 -1.1564  1.6091
   27MOL0     H 3640   9.528   3.858   4.560  0.6018 -0.2479  0.8471
   27MOL0     H 3641   9.880   3.775   4.780  0.2436  1.9476 -0.5072
   27MOL0     H 3642   9.262   4.259   4.584  1.1333 -2.0348  0.0725
   27MOL0     H 3643   9.235   4.354   4.368  0.2147 -1.2816 -0.6788
   27MOL0     H 3644   9.310   4.521   4.341  2.8443  0.6718 -0.5986
   27MOL0     H 3645   9.385   4.375   4.292  0.5479 -2.7190  2.2825
   28MOL0     O 3646   9.661   8.328  11.097 -0.1043  0.6058 -0.2098
   28MOL0     C 3647   9.726   8.231  11.057  0.4455  1.3073  0.9065
   28MOL0     O 3648   9.682   8.148  10.951 -0.2937 -0.5105 -0.3744
   28MOL0     C 3649   9.583   8.191  10.862  0.4949  0.2554  0.0813
   28MOL0     C 3650   9.455   8.127  10.861  0.4222  1.9175  0.4201
   28MOL0     C 3651   9.357   8.166  10.775 -0.2787 -0.4492 -0.1007
   28MOL0     C 3652   9.386   8.280  10.694 -0.0343 -1.1485  0.2330
   28MOL0     O 3653   9.292   8.328  10.601 -0.3951 -1.1435  0.9305
   28MOL0     C 3654   9.179   8.251  10.564  0.8335 -0.3349  1.4075
   28MOL0     C 3655   9.098   8.343  10.472  0.8597  0.5579  0.5830
   28MOL0     C 3656   9.182   8.417  10.363  0.0781  0.3860  0.0054
   28MOL0     C 3657   9.083   8.495  10.272  0.6242  0.3265 -0.8050
   28MOL0     C 3658   9.153   8.561  10.151  0.1277  0.1707  0.3717
   28MOL0     C 3659   9.257   8.667  10.189  0.6035  0.3027 -0.3471
   28MOL0     C 3660   9.298   8.747  10.065 -0.2959 -0.1538  0.2966
   28MOL0     C 3661   9.395   8.865  10.078  1.0385  0.1876 -0.0741
   28MOL0     N 3662   9.533   8.830  10.131  0.9273 -0.9370 -0.0760
   28MOL0     C 3663   9.630   8.753  10.064  0.2559 -1.3551 -0.0444
   28MOL0     C 3664   9.742   8.777  10.125  0.2897  1.0117  0.6261
   28MOL0     C 3665   9.873   8.720  10.063 -0.4390 -0.4799  0.3334
   28MOL0     C 3666  10.003   8.777  10.132 -0.3089  0.9506 -0.2671
   28MOL0     C 3667  10.025   8.695  10.263 -0.2941 -0.5493 -0.4142
   28MOL0     C 3668  10.158   8.725  10.324 -0.2957 -0.3347  0.2865
   28MOL0     O 3669  10.268   8.651  10.275 -0.0575  0.0449 -0.1273
   28MOL0     C 3670  10.395   8.672  10.330  0.1796 -0.2397  0.3137
   28MOL0     C 3671  10.423   8.756  10.434 -0.2928 -0.3046  0.2936
   28MOL0     C 3672  10.554   8.787  10.495  1.4200  0.3469  0.0968
   28MOL0     C 3673  10.657   8.725  10.432 -0.3904 -0.6897  0.4806
   28MOL0     C 3674  10.792   8.767  10.462  1.0365  0.1784 -0.1687
   28MOL0     O 3675  10.888   8.725  10.381  0.4673 -0.1836 -0.4401
   28MOL0     C 3676  11.016   8.781  10.395 -0.4092 -0.2101 -0.5953
   28MOL0     C 3677  11.126   8.692  10.377 -0.2132 -0.6088  0.8275
   28MOL0     C 3678  11.260   8.750  10.366  1.0846  1.2659  0.2777
   28MOL0     C 3679  11.281   8.890  10.385  0.5334 -0.3329 -0.1786
   28MOL0     O 3680  11.411   8.937  10.376  0.0027 -0.3625  0.1378
   28MOL0     C 3681  11.448   9.072  10.395 -0.3073 -0.3848  0.6014
   28MOL0     C 3682  11.445   9.145  10.263 -0.3520  0.2804 -0.2292
   28MOL0     C 3683  11.504   9.284  10.265 -0.9944  0.0422 -0.4262
   28MOL0     C 3684  11.558   9.324  10.129  0.5893  0.2082  0.9702
   28MOL0     C 3685  11.604   9.470  10.118  0.9778  0.0117  0.1491
   28MOL0     C 3686  11.746   9.514  10.161  0.0284  0.9702  0.7534
   28MOL0     C 3687  11.774   9.651  10.091  0.2711  1.3563 -0.7227
   28MOL0     C 3688  11.923   9.686  10.104  0.4453 -0.6635  0.9668
   28MOL0    Cl 3689  12.000   9.656   9.954  0.3735  0.2176  0.3191
   28MOL0     C 3690  11.171   8.971  10.418 -0.0793 -0.4144  0.3252
   28MOL0     C 3691  11.042   8.912  10.415  0.0500  1.0534  0.0187
   28MOL0     O 3692  10.804   8.839  10.565 -0.3611 -0.1217  0.2757
   28MOL0     C 3693  10.628   8.629  10.328 -0.0401 -0.2312  0.1672
   28MOL0     C 3694  10.498   8.609  10.275 -0.5261  0.2967 -0.1259
   28MOL0     N 3695   9.717   8.844  10.242 -0.3287 -0.5931 -0.8996
   28MOL0     N 3696   9.585   8.871  10.247 -0.1194  0.7276  0.3562
   28MOL0     C 3697   9.508   8.343  10.695 -0.2952 -0.5019  0.4912
   28MOL0     C 3698   9.607   8.301  10.780  0.7908  0.1891  0.1674
   28MOL0     C 3699   9.839   8.171  11.137 -0.8491  0.2940 -0.3920
   28MOL0     C 3700   9.875   8.037  11.115  0.3998 -0.2756 -1.4838
   28MOL0     C 3701   9.979   7.983  11.191 -0.3556  0.3990 -0.0823
   28MOL0     C 3702  10.050   8.047  11.286 -0.3447 -1.3986 -0.5891
   28MOL0     O 3703  10.162   7.994  11.351  0.3692 -0.2199 -0.0533
   28MOL0     C 3704  10.285   8.063  11.343 -0.0094 -0.0676 -0.1696
   28MOL0     C 3705  10.390   7.987  11.432  0.1075 -0.0293  0.5666
   28MOL0     C 3706  10.503   8.097  11.454  0.9853 -0.0611 -0.8111
   28MOL0     C 3707  10.587   8.135  11.341  0.1217  0.5644  0.3855
   28MOL0     C 3708  10.698   8.225  11.375  0.0355 -0.1798 -0.1009
   28MOL0     C 3709  10.790   8.303  11.404  0.0502 -0.1259 -1.1308
   28MOL0     C 3710  10.018   8.177  11.306  0.3212  0.2494  0.3395
   28MOL0     C 3711   9.919   8.247  11.227 -0.6803  1.2447 -0.2616
   28MOL0     C 3712   9.876   8.386  11.277 -0.0547  0.8125  0.1079
   28MOL0     H 3713   9.438   8.046  10.931 -2.5837  0.5710 -1.6520
   28MOL0     H 3714   9.258   8.121  10.772 -0.7413  0.5643 -1.0216
   28MOL0     H 3715   9.207   8.168  10.498  1.3361  1.6474 -1.0182
   28MOL0     H 3716   9.125   8.202  10.646  0.0844 -3.7498 -0.8722
   28MOL0     H 3717   9.052   8.415  10.542 -0.6624  2.4324 -2.1435
   28MOL0     H 3718   9.019   8.285  10.423 -1.2707  2.8676  1.0408
   28MOL0     H 3719   9.234   8.336  10.312  4.3100  2.4938  0.5378
   28MOL0     H 3720   9.259   8.478  10.412 -0.9703  0.4275  1.6796
   28MOL0     H 3721   9.011   8.420  10.240 -0.6973  0.7316  1.0580
   28MOL0     H 3722   9.023   8.570  10.325  0.4655  1.9447 -3.1386
   28MOL0     H 3723   9.208   8.495  10.083  0.1539  1.3002 -0.7451
   28MOL0     H 3724   9.071   8.601  10.090  0.4584 -3.2445 -2.6420
   28MOL0     H 3725   9.217   8.738  10.263  0.3866 -1.3197  1.1710
   28MOL0     H 3726   9.339   8.617  10.242  1.7427  3.0788  0.7087
   28MOL0     H 3727   9.213   8.787  10.009 -1.5829 -1.5062  1.2129
   28MOL0     H 3728   9.340   8.669  10.000 -2.8803 -3.3240  2.0812
   28MOL0     H 3729   9.407   8.912   9.980 -0.8198  3.0351  0.9082
   28MOL0     H 3730   9.357   8.936  10.152  1.8914  1.1181 -0.5050
   28MOL0     H 3731   9.627   8.700   9.969  3.6069  2.2138 -2.4227
   28MOL0     H 3732   9.880   8.611  10.069  1.3995 -0.5406 -1.6025
   28MOL0     H 3733   9.876   8.742   9.955 -0.7941  3.1183  0.9206
   28MOL0     H 3734  10.093   8.759  10.073  0.3943 -1.7256  1.4500
   28MOL0     H 3735   9.979   8.881  10.154 -4.4055  0.6198 -2.1042
   28MOL0     H 3736  10.022   8.590  10.230 -0.1789 -0.3593 -1.0564
   28MOL0     H 3737   9.943   8.720  10.330 -0.8084  1.0018 -1.5581
   28MOL0     H 3738  10.147   8.716  10.432 -1.0503  0.7922  0.3209
   28MOL0     H 3739  10.163   8.834  10.324 -0.1462 -0.3401  0.4114
   28MOL0     H 3740  10.350   8.824  10.476  0.3603 -0.4815  1.7653
   28MOL0     H 3741  10.557   8.865  10.570  0.5502 -1.2565  1.9070
   28MOL0     H 3742  11.121   8.584  10.364  0.0698 -0.8206  2.3561
   28MOL0     H 3743  11.348   8.688  10.379 -0.7397 -2.4345 -2.8890
   28MOL0     H 3744  11.375   9.121  10.461 -1.8754 -2.0282  0.1859
   28MOL0     H 3745  11.546   9.069  10.443 -1.2392  0.7558  2.7078
   28MOL0     H 3746  11.502   9.081  10.195  1.6114  2.1715 -0.4742
   28MOL0     H 3747  11.343   9.150  10.224 -0.5688  1.0805  0.4115
   28MOL0     H 3748  11.431   9.358  10.298  1.2318  2.4421 -0.5375
   28MOL0     H 3749  11.591   9.281  10.331 -1.9583  1.7470  1.0069
   28MOL0     H 3750  11.479   9.314  10.053  4.0991  2.2100 -3.3986
   28MOL0     H 3751  11.644   9.261  10.106  0.5013  0.7373 -0.9769
   28MOL0     H 3752  11.541   9.527  10.187  1.1689  0.8293 -0.3407
   28MOL0     H 3753  11.581   9.490  10.013  1.8248  1.0686  0.1605
   28MOL0     H 3754  11.734   9.533  10.268  1.4984 -3.3230  1.8970
   28MOL0     H 3755  11.822   9.439  10.140 -1.6623 -0.8822  0.9231
   28MOL0     H 3756  11.717   9.723  10.151 -0.3090  0.1427  0.2328
   28MOL0     H 3757  11.737   9.645   9.988 -4.1753  3.3330  0.4767
   28MOL0     H 3758  11.930   9.790  10.139 -1.0641 -0.2071 -0.0176
   28MOL0     H 3759  11.969   9.610  10.168 -1.2581 -1.7275  0.9804
   28MOL0     H 3760  11.173   9.077  10.440 -0.2770 -0.6353  1.4791
   28MOL0     H 3761  10.951   8.971  10.425 -1.4169 -1.1029 -0.0369
   28MOL0     H 3762  10.711   8.564  10.302 -0.0995 -0.5810  0.8114
   28MOL0     H 3763  10.481   8.530  10.202  1.0007 -1.3796  1.2515
   28MOL0     H 3764   9.539   8.429  10.635 -2.1194 -0.5341 -0.5567
   28MOL0     H 3765   9.694   8.366  10.786  1.2183 -0.5179  2.1430
   28MOL0     H 3766   9.821   7.973  11.047 -0.6742 -0.2579 -0.6652
   28MOL0     H 3767   9.997   7.881  11.157 -1.0249 -0.0100  0.7385
   28MOL0     H 3768  10.279   8.158  11.398 -0.0796  0.4730 -1.0989
   28MOL0     H 3769  10.314   8.073  11.238 -1.8988 -0.9790 -0.8231
   28MOL0     H 3770  10.419   7.898  11.375  1.5955  1.4294 -1.0616
   28MOL0     H 3771  10.352   7.964  11.532  2.0512 -2.1995  0.8938
   28MOL0     H 3772  10.567   8.064  11.536  0.0182  0.8374  0.3186
   28MOL0     H 3773  10.450   8.186  11.487  0.6012 -0.5830 -0.0141
   28MOL0     H 3774  10.639   8.045  11.304  0.6247  1.8966 -2.4486
   28MOL0     H 3775  10.521   8.169  11.261  2.0984 -0.1284 -1.6593
   28MOL0     H 3776  10.862   8.365  11.454  1.3305 -1.3816 -1.3759
   28MOL0     H 3777  10.072   8.233  11.381  1.4089 -0.4582  0.0954
   28MOL0     H 3778   9.930   8.405  11.370 -0.2134 -4.9870  1.7632
   28MOL0     H 3779   9.891   8.461  11.198 -3.3642  1.3019 -0.2183
   28MOL0     H 3780   9.769   8.396  11.298 -0.3129 -0.6856 -0.3667
   29MOL0     O 3781  11.089   1.680   7.470  0.2468  0.5674 -0.1349
   29MOL0     C 3782  11.008   1.645   7.382  1.2226 -1.4041  0.2715
   29MOL0     O 3783  11.036   1.615   7.249 -0.6408 -0.3098  0.6081
   29MOL0     C 3784  11.173   1.628   7.218 -0.2550 -0.5383  0.1408
   29MOL0     C 3785  11.230   1.752   7.175 -0.5764  0.1688 -0.6230
   29MOL0     C 3786  11.362   1.767   7.131  0.4807 -0.6334 -0.0986
   29MOL0     C 3787  11.448   1.661   7.135  1.1033 -0.7751  0.3211
   29MOL0     O 3788  11.574   1.676   7.084 -0.0018  0.0301  1.0290
   29MOL0     C 3789  11.673   1.614   7.154  0.4451 -0.4162  0.4342
   29MOL0     C 3790  11.804   1.631   7.087 -0.1051 -0.6825 -0.1357
   29MOL0     C 3791  11.854   1.776   7.095  1.5677  0.5247  0.7850
   29MOL0     C 3792  11.999   1.783   7.053 -0.9411  0.1116 -0.6860
   29MOL0     C 3793  12.034   1.910   6.988 -0.0064  0.0260 -0.2904
   29MOL0     C 3794  12.003   2.033   7.085 -0.4864  0.1947  0.2687
   29MOL0     C 3795  11.975   2.174   7.021 -0.6989 -0.0668  0.7646
   29MOL0     C 3796  11.843   2.189   6.941 -0.0424 -0.2798 -0.4386
   29MOL0     N 3797  11.836   2.311   6.871  0.1115 -0.2864 -0.5683
   29MOL0     C 3798  11.829   2.432   6.932 -0.9139 -0.6319 -0.1188
   29MOL0     C 3799  11.802   2.521   6.833  0.1201 -0.3060 -0.1255
   29MOL0     C 3800  11.782   2.672   6.849 -0.3271  0.1779 -0.4264
   29MOL0     C 3801  11.913   2.723   6.799 -0.7063  0.4378  0.2021
   29MOL0     C 3802  11.883   2.869   6.752  0.2062 -1.4358 -0.7599
   29MOL0     C 3803  11.982   2.936   6.668 -0.0258 -0.3180  0.1263
   29MOL0     O 3804  11.986   3.076   6.704  0.6332  0.0016  0.1670
   29MOL0     C 3805  12.079   3.148   6.632  0.4123 -0.1556 -0.1851
   29MOL0     C 3806  12.182   3.090   6.548  0.4046 -0.7031 -0.5892
   29MOL0     C 3807  12.279   3.165   6.486 -0.6962  0.0881  0.4216
   29MOL0     C 3808  12.275   3.302   6.520 -0.1372  0.3692  1.0651
   29MOL0     C 3809  12.396   3.374   6.481 -0.1006  1.0127 -0.3109
   29MOL0     O 3810  12.520   3.306   6.506 -0.0523 -0.1210 -0.2901
   29MOL0     C 3811  12.624   3.382   6.462  0.8260  0.1118  0.4369
   29MOL0     C 3812  12.664   3.370   6.323  0.2047  0.5792  0.3945
   29MOL0     C 3813  12.774   3.434   6.279 -0.5470  0.6544  0.3061
   29MOL0     C 3814  12.842   3.532   6.349  0.0084  0.2603  0.6791
   29MOL0     O 3815  12.940   3.599   6.278  0.1788 -0.1129 -0.0189
   29MOL0     C 3816  13.027   3.693   6.345 -0.6804 -0.4314  0.1031
   29MOL0     C 3817  13.145   3.727   6.265 -0.9048  0.6365 -0.0088
   29MOL0     C 3818  13.120   3.811   6.132 -0.2260 -0.1920 -0.0047
   29MOL0     C 3819  13.253   3.834   6.051 -0.3473 -0.2245 -0.2089
   29MOL0     C 3820  13.368   3.919   6.109 -0.8582  0.5219 -0.3441
   29MOL0     C 3821  13.478   3.928   6.002 -0.1841  0.0905 -0.4896
   29MOL0     C 3822  13.607   3.995   6.044 -0.2801  1.1754 -0.7540
   29MOL0     C 3823  13.609   4.140   6.016  0.1060 -0.0612 -1.0399
   29MOL0    Cl 3824  13.528   4.247   6.133  0.4178  0.6540  0.0326
   29MOL0     C 3825  12.806   3.552   6.476 -0.1313  0.4937 -0.2787
   29MOL0     C 3826  12.698   3.478   6.532 -0.0669 -0.9590  0.8266
   29MOL0     O 3827  12.388   3.490   6.440 -0.3807 -0.4990  0.5963
   29MOL0     C 3828  12.183   3.360   6.603  0.3976 -0.8441  0.0420
   29MOL0     C 3829  12.083   3.282   6.660  0.3696 -0.1713  0.8138
   29MOL0     N 3830  11.776   2.449   6.718  0.2241  0.0265  0.3704
   29MOL0     N 3831  11.797   2.322   6.741  0.0672  0.2775  0.1754
   29MOL0     C 3832  11.399   1.532   7.178  0.1846  0.3902 -0.1863
   29MOL0     C 3833  11.261   1.517   7.208  0.2114  0.0094 -0.3111
   29MOL0     C 3834  10.867   1.615   7.420  0.6448  1.0157 -0.6357
   29MOL0     C 3835  10.811   1.493   7.375  0.3422 -0.4404  0.5208
   29MOL0     C 3836  10.686   1.453   7.412  0.5304 -0.6391 -0.7174
   29MOL0     C 3837  10.607   1.531   7.492 -0.0383 -0.7050  0.6345
   29MOL0     O 3838  10.483   1.488   7.544  0.1544 -0.3791  0.8112
   29MOL0     C 3839  10.471   1.466   7.681  0.5669 -0.3521  0.6745
   29MOL0     C 3840  10.365   1.365   7.695  0.1998 -0.8416  0.2645
   29MOL0     C 3841  10.381   1.232   7.617 -0.2818  0.3811  0.3602
   29MOL0     C 3842  10.509   1.161   7.659  0.3562 -0.0413 -0.1829
   29MOL0     C 3843  10.522   1.042   7.575  0.0349 -0.3200  0.3211
   29MOL0     C 3844  10.540   0.945   7.504  0.4684  0.6119 -0.0044
   29MOL0     C 3845  10.656   1.652   7.541 -0.5149 -0.3372  0.4993
   29MOL0     C 3846  10.783   1.696   7.506 -0.0094 -0.5469  0.4070
   29MOL0     C 3847  10.833   1.824   7.567  0.9960  0.2508  0.4605
   29MOL0     H 3848  11.162   1.836   7.180  1.0505  1.5363  4.3152
   29MOL0     H 3849  11.384   1.872   7.111  1.5939 -0.8721 -0.1610
   29MOL0     H 3850  11.681   1.653   7.256  2.0004 -1.1719  0.6338
   29MOL0     H 3851  11.640   1.510   7.143 -2.1415  0.2152  1.5842
   29MOL0     H 3852  11.797   1.598   6.983 -1.1054 -0.3179 -0.1934
   29MOL0     H 3853  11.878   1.570   7.141  0.4811 -0.6005 -0.8382
   29MOL0     H 3854  11.836   1.830   7.189 -2.6788  0.5532  0.1427
   29MOL0     H 3855  11.790   1.833   7.028 -0.9184 -1.6442  1.1184
   29MOL0     H 3856  12.051   1.785   7.150 -2.1106  1.6001 -0.0409
   29MOL0     H 3857  12.030   1.702   6.986 -2.7894 -0.9327 -0.3477
   29MOL0     H 3858  12.139   1.921   6.958 -0.1973  1.4310 -0.5083
   29MOL0     H 3859  11.983   1.913   6.891 -0.3520 -1.8848 -0.2053
   29MOL0     H 3860  11.920   2.029   7.156  0.2494  5.4784  1.8994
   29MOL0     H 3861  12.092   2.063   7.142 -0.3449  1.6724 -0.6911
   29MOL0     H 3862  12.063   2.200   6.962 -2.3463  3.4649 -0.4204
   29MOL0     H 3863  11.965   2.245   7.104 -0.2797  1.3764 -0.3881
   29MOL0     H 3864  11.835   2.101   6.876  1.8042 -2.1194  1.6296
   29MOL0     H 3865  11.762   2.184   7.014 -0.2186 -1.4972 -0.6900
   29MOL0     H 3866  11.837   2.459   7.037 -1.5519 -2.2216  0.3591
   29MOL0     H 3867  11.698   2.700   6.785  0.6990 -0.3027 -2.0587
   29MOL0     H 3868  11.758   2.700   6.952 -2.0443  0.9054 -0.9860
   29MOL0     H 3869  11.993   2.713   6.873  1.2025  2.3147 -1.4630
   29MOL0     H 3870  11.942   2.655   6.719 -1.4067 -3.1840  2.7795
   29MOL0     H 3871  11.867   2.920   6.848  1.2402  1.5004 -2.0287
   29MOL0     H 3872  11.786   2.884   6.703  0.0329  0.1186 -0.0154
   29MOL0     H 3873  11.943   2.925   6.566 -4.9804 -0.6455  1.8354
   29MOL0     H 3874  12.077   2.887   6.693  0.8152  0.3847 -1.5264
   29MOL0     H 3875  12.182   2.983   6.532  0.3520 -0.7916 -0.0327
   29MOL0     H 3876  12.360   3.127   6.426 -0.9943  1.1975 -0.7118
   29MOL0     H 3877  12.626   3.293   6.257  1.8730 -1.1081  1.2858
   29MOL0     H 3878  12.803   3.405   6.179 -2.9305 -2.5872  0.4147
   29MOL0     H 3879  12.976   3.789   6.352  0.9147  0.5581 -1.3194
   29MOL0     H 3880  13.054   3.660   6.446 -1.0148 -2.2724 -0.3619
   29MOL0     H 3881  13.220   3.778   6.326  0.6194 -0.0368 -1.2361
   29MOL0     H 3882  13.182   3.629   6.233 -1.4565  0.3440  0.2295
   29MOL0     H 3883  13.062   3.762   6.054 -1.8022 -1.1936  1.7114
   29MOL0     H 3884  13.066   3.905   6.148 -1.5421 -0.5339 -2.0932
   29MOL0     H 3885  13.234   3.875   5.951  3.5763 -0.9998 -1.4569
   29MOL0     H 3886  13.305   3.740   6.029  2.1736  1.5862 -2.7568
   29MOL0     H 3887  13.410   3.860   6.191  0.6966  3.8296  1.4177
   29MOL0     H 3888  13.320   4.010   6.145 -0.4135  0.3101  0.8362
   29MOL0     H 3889  13.501   3.822   5.984 -0.3485  0.2582 -1.7792
   29MOL0     H 3890  13.439   3.979   5.914  1.0301 -2.0643 -2.4209
   29MOL0     H 3891  13.692   3.951   5.990  0.5042  2.2215 -0.4065
   29MOL0     H 3892  13.607   3.980   6.152  1.5181  0.6807 -0.7853
   29MOL0     H 3893  13.716   4.164   6.020  0.1382 -0.1561 -1.3001
   29MOL0     H 3894  13.575   4.173   5.917  1.1582  2.7425 -0.5453
   29MOL0     H 3895  12.866   3.620   6.536 -0.7740  1.0746 -0.2782
   29MOL0     H 3896  12.680   3.483   6.639 -0.5902  1.8621  0.6673
   29MOL0     H 3897  12.209   3.460   6.635 -1.3528 -0.2749 -0.2540
   29MOL0     H 3898  12.008   3.330   6.724  0.3000  0.4889  0.2510
   29MOL0     H 3899  11.457   1.441   7.184 -0.1368 -0.0370 -2.6446
   29MOL0     H 3900  11.234   1.420   7.250  4.3832 -1.1827  0.0784
   29MOL0     H 3901  10.885   1.439   7.315  2.2295  3.5862 -1.1856
   29MOL0     H 3902  10.634   1.361   7.386 -2.7038  1.2160 -1.4070
   29MOL0     H 3903  10.432   1.557   7.726 -0.0386 -0.1254 -0.2839
   29MOL0     H 3904  10.566   1.439   7.729  1.3251  5.2957  3.1347
   29MOL0     H 3905  10.267   1.406   7.668 -0.1600 -1.2600  0.9056
   29MOL0     H 3906  10.350   1.362   7.803 -0.6618 -0.0651  0.1832
   29MOL0     H 3907  10.375   1.257   7.511 -2.9543 -0.6115  0.2248
   29MOL0     H 3908  10.292   1.175   7.644 -0.6082  0.1170 -1.2140
   29MOL0     H 3909  10.596   1.226   7.661 -0.1951  0.7094  0.1075
   29MOL0     H 3910  10.498   1.126   7.762  0.0083 -2.3243 -0.9261
   29MOL0     H 3911  10.544   0.850   7.456 -0.6821 -0.1996  1.4217
   29MOL0     H 3912  10.599   1.706   7.616 -1.1705 -0.6581  0.2422
   29MOL0     H 3913  10.750   1.895   7.567  0.2431 -0.6150  0.9844
   29MOL0     H 3914  10.870   1.801   7.667  1.3034 -0.5544  0.1694
   29MOL0     H 3915  10.924   1.854   7.514  1.1203  1.4984  1.3374
   30MOL0     O 3916   9.637   8.725   3.287 -1.1813  0.1590  0.2241
   30MOL0     C 3917   9.604   8.610   3.298 -0.2900 -0.1028 -0.9949
   30MOL0     O 3918   9.693   8.513   3.332  0.1298 -0.9621 -0.4148
   30MOL0     C 3919   9.834   8.543   3.335 -0.4482 -0.3620 -0.0777
   30MOL0     C 3920   9.915   8.460   3.426 -0.1315 -0.1139  0.0955
   30MOL0     C 3921  10.055   8.465   3.416  0.1799  0.9550 -0.3318
   30MOL0     C 3922  10.119   8.546   3.322  0.0104  0.4280  0.3737
   30MOL0     O 3923  10.257   8.555   3.304  0.5638  0.0511  0.0584
   30MOL0     C 3924  10.343   8.451   3.367  0.1944  0.7297 -0.0678
   30MOL0     C 3925  10.492   8.479   3.335  0.6393  0.1024 -0.2937
   30MOL0     C 3926  10.582   8.403   3.425  0.1048  0.0735 -0.5434
   30MOL0     C 3927  10.704   8.358   3.352  0.0685 -0.0848 -0.9999
   30MOL0     C 3928  10.834   8.358   3.439 -0.0823  0.5323  0.2219
   30MOL0     C 3929  10.891   8.501   3.420 -0.0582 -0.7097 -0.7411
   30MOL0     C 3930  11.031   8.504   3.481 -1.2109  0.5629  0.5584
   30MOL0     C 3931  11.130   8.467   3.376  0.1263 -0.9439  1.2990
   30MOL0     N 3932  11.266   8.470   3.422  0.2501  1.0899 -0.1974
   30MOL0     C 3933  11.341   8.583   3.447 -0.3139  0.2516  0.0921
   30MOL0     C 3934  11.464   8.531   3.485 -0.3802 -0.1138 -0.2613
   30MOL0     C 3935  11.580   8.606   3.545 -0.0498 -0.3807 -0.5926
   30MOL0     C 3936  11.562   8.756   3.567  0.0720  0.1177 -0.6042
   30MOL0     C 3937  11.698   8.829   3.590  0.1453  0.3191  0.3066
   30MOL0     C 3938  11.776   8.792   3.713 -0.9253 -1.1939  0.4356
   30MOL0     O 3939  11.889   8.876   3.728 -0.3548  0.1936  0.0981
   30MOL0     C 3940  12.018   8.850   3.680 -0.6718 -0.8674 -0.3317
   30MOL0     C 3941  12.124   8.914   3.750  0.1260  0.2321  0.7466
   30MOL0     C 3942  12.249   8.904   3.699 -0.6342  0.3201  0.0052
   30MOL0     C 3943  12.278   8.817   3.598  0.0098  0.8218 -0.1645
   30MOL0     C 3944  12.416   8.799   3.563  0.3290  0.7689 -0.8540
   30MOL0     O 3945  12.505   8.897   3.592 -0.6546  0.3546  0.0312
   30MOL0     C 3946  12.639   8.873   3.563  0.7715 -0.0628  0.1597
   30MOL0     C 3947  12.694   8.859   3.437  0.6157 -0.2741 -0.3571
   30MOL0     C 3948  12.830   8.843   3.424  0.2865  0.4177 -0.1994
   30MOL0     C 3949  12.917   8.831   3.532 -0.9855  0.6140 -0.2897
   30MOL0     O 3950  13.046   8.809   3.498 -0.2832 -0.1383 -0.1732
   30MOL0     C 3951  13.145   8.768   3.598 -1.0799 -0.4365 -0.7853
   30MOL0     C 3952  13.282   8.752   3.541 -0.1641 -0.4358  0.7112
   30MOL0     C 3953  13.389   8.722   3.647 -0.1946  0.3777 -1.0746
   30MOL0     C 3954  13.443   8.845   3.725  0.5417  0.1637 -0.4613
   30MOL0     C 3955  13.554   8.820   3.828  0.4029 -0.5454 -0.2889
   30MOL0     C 3956  13.582   8.953   3.907  0.0149  0.1260 -0.0137
   30MOL0     C 3957  13.706   9.023   3.843 -0.0153 -0.2532 -0.4067
   30MOL0     C 3958  13.820   9.001   3.931  0.2966 -0.3660  0.4074
   30MOL0    Cl 3959  13.970   9.103   3.875  0.1497  0.2486  0.1176
   30MOL0     C 3960  12.866   8.830   3.661  0.3293  0.2572 -0.7672
   30MOL0     C 3961  12.728   8.846   3.674 -0.4901  0.7277 -0.0467
   30MOL0     O 3962  12.444   8.684   3.525  0.1407  0.2270 -0.2609
   30MOL0     C 3963  12.177   8.757   3.526  0.7989  0.3178  0.0507
   30MOL0     C 3964  12.042   8.772   3.569 -0.5727 -0.3276 -0.2176
   30MOL0     N 3965  11.460   8.394   3.482  0.5329 -0.3674  0.0079
   30MOL0     N 3966  11.342   8.365   3.438  0.7520  0.3169  0.4845
   30MOL0     C 3967  10.042   8.631   3.241  0.1921 -0.1775 -0.0215
   30MOL0     C 3968   9.904   8.629   3.243 -0.6162  0.7876 -0.3054
   30MOL0     C 3969   9.457   8.588   3.290 -0.0968 -0.2010 -0.2234
   30MOL0     C 3970   9.401   8.475   3.365  0.2279 -0.3962 -0.1508
   30MOL0     C 3971   9.265   8.449   3.365 -0.3809  0.0067 -1.0257
   30MOL0     C 3972   9.175   8.528   3.295  0.7994  0.1283  0.6348
   30MOL0     O 3973   9.038   8.513   3.291  0.7406  0.5209 -0.1767
   30MOL0     C 3974   8.983   8.418   3.383  0.8429 -0.3096  0.3741
   30MOL0     C 3975   8.833   8.458   3.391  0.4105  0.3345  0.4627
   30MOL0     C 3976   8.791   8.554   3.500  0.1764 -0.5964  0.8509
   30MOL0     C 3977   8.802   8.492   3.645  0.2204  0.5685  0.1294
   30MOL0     C 3978   8.721   8.368   3.639  0.0281 -0.8195 -0.1831
   30MOL0     C 3979   8.663   8.258   3.627 -0.5435  0.0355  0.2904
   30MOL0     C 3980   9.229   8.632   3.225 -0.5993  0.6208  0.7364
   30MOL0     C 3981   9.368   8.667   3.217 -0.1872  0.1692  0.3809
   30MOL0     C 3982   9.410   8.781   3.133 -0.0120 -0.5606 -0.5232
   30MOL0     H 3983   9.865   8.403   3.504  1.2352  1.6761  2.4402
   30MOL0     H 3984  10.112   8.409   3.489 -2.0410 -0.3052  0.5235
   30MOL0     H 3985  10.321   8.455   3.474 -1.2346  1.0770 -0.3476
   30MOL0     H 3986  10.320   8.350   3.332  3.6976 -0.0652 -0.3612
   30MOL0     H 3987  10.511   8.587   3.347  0.5645 -0.1213  2.5657
   30MOL0     H 3988  10.513   8.450   3.232  2.5663  2.8003 -0.7769
   30MOL0     H 3989  10.536   8.326   3.488  0.0964  2.7002  2.9394
   30MOL0     H 3990  10.620   8.475   3.498 -1.0344  0.2007 -0.0655
   30MOL0     H 3991  10.677   8.258   3.316 -1.6136  0.8183 -2.3831
   30MOL0     H 3992  10.723   8.414   3.261  0.1404  1.1964 -0.2135
   30MOL0     H 3993  10.819   8.317   3.540  0.2220 -0.7437 -0.2328
   30MOL0     H 3994  10.901   8.283   3.396  1.0491 -0.1945  3.0171
   30MOL0     H 3995  10.889   8.518   3.311  1.3518 -1.3009 -0.8858
   30MOL0     H 3996  10.830   8.584   3.458  0.6029 -0.2530 -0.6527
   30MOL0     H 3997  11.036   8.429   3.561  1.8241  1.0423  0.9297
   30MOL0     H 3998  11.055   8.600   3.527  0.9127 -1.3187  3.8334
   30MOL0     H 3999  11.110   8.362   3.350 -0.5918 -0.6210  0.5373
   30MOL0     H 4000  11.118   8.528   3.287  0.3463  0.1424  1.9947
   30MOL0     H 4001  11.307   8.686   3.444 -2.2144 -0.3075 -3.0889
   30MOL0     H 4002  11.605   8.560   3.640  0.7089  1.7234  0.2786
   30MOL0     H 4003  11.665   8.590   3.478  0.0961 -1.1477 -0.2310
   30MOL0     H 4004  11.521   8.801   3.476  2.2084  0.6257 -1.3647
   30MOL0     H 4005  11.495   8.762   3.653 -1.8054  0.7117 -2.0421
   30MOL0     H 4006  11.663   8.932   3.588  0.1438  0.3153 -1.1950
   30MOL0     H 4007  11.771   8.811   3.510 -0.2298 -2.8575  0.5470
   30MOL0     H 4008  11.803   8.686   3.707 -4.1489 -2.3060  2.5469
   30MOL0     H 4009  11.712   8.805   3.801  0.4413  0.6664  1.2221
   30MOL0     H 4010  12.113   8.984   3.833 -2.0257  0.7878  0.0605
   30MOL0     H 4011  12.324   8.954   3.760  1.4647 -0.6474 -1.6532
   30MOL0     H 4012  12.628   8.873   3.352 -3.6041 -0.7848  2.5234
   30MOL0     H 4013  12.870   8.832   3.324 -4.7728 -1.4672 -2.3102
   30MOL0     H 4014  13.147   8.835   3.685 -1.6170 -1.3109 -0.0753
   30MOL0     H 4015  13.118   8.673   3.645 -0.9565  0.7247  1.8742
   30MOL0     H 4016  13.281   8.679   3.459  3.7327 -0.2144  0.2806
   30MOL0     H 4017  13.300   8.848   3.491 -3.5886  0.2462  0.5130
   30MOL0     H 4018  13.347   8.643   3.710  0.0455  2.0032  1.2445
   30MOL0     H 4019  13.475   8.682   3.592 -0.8823  0.5836 -2.3482
   30MOL0     H 4020  13.359   8.893   3.778  0.5047 -0.7578  0.3379
   30MOL0     H 4021  13.487   8.913   3.652  2.1564  0.7872  1.0235
   30MOL0     H 4022  13.643   8.788   3.772  1.7595  1.3837  0.6631
   30MOL0     H 4023  13.504   8.758   3.902 -0.1723  0.7214  0.4017
   30MOL0     H 4024  13.506   9.030   3.895  0.8908  1.1194  0.7190
   30MOL0     H 4025  13.604   8.940   4.013  1.4383  1.6602 -0.0812
   30MOL0     H 4026  13.691   9.128   3.819 -2.0254 -0.1642  0.9941
   30MOL0     H 4027  13.723   8.973   3.747 -1.0033 -0.2769 -0.5781
   30MOL0     H 4028  13.798   9.025   4.036 -1.5685  1.8259 -0.4072
   30MOL0     H 4029  13.843   8.894   3.930  1.5366 -0.1199  0.3005
   30MOL0     H 4030  12.935   8.802   3.740  1.0816  0.9226 -1.1774
   30MOL0     H 4031  12.701   8.829   3.777  0.5268 -1.9953 -0.1167
   30MOL0     H 4032  12.210   8.689   3.447 -0.9379 -0.5201  0.0101
   30MOL0     H 4033  11.974   8.710   3.510 -0.3322 -0.8296  0.0228
   30MOL0     H 4034  10.105   8.690   3.175 -1.4203 -1.0775 -2.5003
   30MOL0     H 4035   9.851   8.683   3.165 -2.0360  0.2988  0.2809
   30MOL0     H 4036   9.464   8.407   3.421 -1.4784 -0.6878  1.5011
   30MOL0     H 4037   9.235   8.368   3.432  2.6433 -0.4834 -0.0814
   30MOL0     H 4038   9.029   8.425   3.482 -1.4473 -3.3938  1.8288
   30MOL0     H 4039   9.006   8.315   3.352  0.7897 -0.2457  0.1231
   30MOL0     H 4040   8.787   8.358   3.396 -0.0060  0.4778 -0.2731
   30MOL0     H 4041   8.793   8.496   3.296 -0.6080 -0.6317  0.4789
   30MOL0     H 4042   8.689   8.584   3.474 -0.5053 -3.2230  0.2153
   30MOL0     H 4043   8.844   8.649   3.490 -0.5294 -0.1080  1.6117
   30MOL0     H 4044   8.902   8.467   3.683 -0.4637 -5.0004 -0.9330
   30MOL0     H 4045   8.762   8.560   3.721  0.9531 -0.2415  1.2801
   30MOL0     H 4046   8.594   8.182   3.595 -0.0434  0.1994 -1.2636
   30MOL0     H 4047   9.161   8.698   3.172 -0.5042  0.0499 -0.1161
   30MOL0     H 4048   9.337   8.821   3.063 -1.6148 -1.8445  0.3605
   30MOL0     H 4049   9.438   8.862   3.201  1.1393  0.1512 -1.7786
   30MOL0     H 4050   9.505   8.764   3.080  0.4994 -0.7978  0.4485
   31MOL0     O 4051  11.202   7.561   5.009  0.9240  0.0105 -0.1728
   31MOL0     C 4052  11.237   7.580   5.126 -0.0634 -0.0371 -0.3359
   31MOL0     O 4053  11.300   7.488   5.206 -0.4387  0.0609 -0.3141
   31MOL0     C 4054  11.333   7.362   5.172 -0.2032  0.7052  0.0437
   31MOL0     C 4055  11.369   7.319   5.048  0.0221  0.1038  0.1335
   31MOL0     C 4056  11.400   7.183   5.024  0.3503  0.3188  0.3826
   31MOL0     C 4057  11.390   7.091   5.129 -0.6502 -0.1605  0.1781
   31MOL0     O 4058  11.388   6.955   5.114  0.8552 -0.2487 -0.0829
   31MOL0     C 4059  11.289   6.910   5.026  0.4600  0.3360  1.1571
   31MOL0     C 4060  11.345   6.836   4.900  0.4798 -0.4976 -0.2482
   31MOL0     C 4061  11.398   6.696   4.938  0.1758  0.5339 -0.6325
   31MOL0     C 4062  11.457   6.641   4.816 -0.3105 -0.2818  0.8869
   31MOL0     C 4063  11.520   6.503   4.830 -0.5941  0.3603 -0.1894
   31MOL0     C 4064  11.547   6.442   4.686 -0.1184  0.4671 -0.0494
   31MOL0     C 4065  11.599   6.295   4.692  0.1002  0.3644 -0.4598
   31MOL0     C 4066  11.648   6.260   4.561  0.4700  0.0139 -0.1238
   31MOL0     N 4067  11.678   6.115   4.583 -0.3440  0.1701  0.4784
   31MOL0     C 4068  11.796   6.064   4.632  0.4825 -0.4397 -0.8203
   31MOL0     C 4069  11.783   5.927   4.612  0.7530  0.7798 -0.4688
   31MOL0     C 4070  11.903   5.834   4.644 -0.9330 -0.5904 -0.2252
   31MOL0     C 4071  12.048   5.861   4.597  0.2853 -0.1338  1.1203
   31MOL0     C 4072  12.143   5.752   4.633 -0.2648 -0.4014  0.6882
   31MOL0     C 4073  12.282   5.797   4.616 -0.6393 -0.0463 -0.7940
   31MOL0     O 4074  12.362   5.687   4.637  0.4666 -0.8874 -1.1154
   31MOL0     C 4075  12.488   5.728   4.663 -0.0992  0.5440  0.2617
   31MOL0     C 4076  12.579   5.623   4.685 -0.0355 -0.0410  0.3034
   31MOL0     C 4077  12.709   5.639   4.721  0.1477  0.7567  0.1942
   31MOL0     C 4078  12.764   5.770   4.739  0.5440 -0.3366 -0.6296
   31MOL0     C 4079  12.894   5.791   4.803  0.4972 -0.3889  0.5749
   31MOL0     O 4080  12.936   5.928   4.809  0.6550  0.9265  0.4140
   31MOL0     C 4081  13.063   5.953   4.831 -0.1187  0.3531  0.1649
   31MOL0     C 4082  13.173   5.861   4.815  0.2865 -0.2612 -0.5967
   31MOL0     C 4083  13.298   5.908   4.825 -0.3217  0.1602  1.1022
   31MOL0     C 4084  13.332   6.042   4.862  0.6552 -0.2637 -0.0637
   31MOL0     O 4085  13.460   6.089   4.858 -0.3941  1.0048 -0.4849
   31MOL0     C 4086  13.502   6.218   4.879 -0.5483 -0.0760 -0.1553
   31MOL0     C 4087  13.513   6.266   5.017  0.2931 -0.2052 -0.0729
   31MOL0     C 4088  13.564   6.406   5.042 -0.1475  0.4426  0.0623
   31MOL0     C 4089  13.574   6.436   5.195  0.3236  0.3047 -0.1073
   31MOL0     C 4090  13.539   6.583   5.223 -1.1430  0.0484 -0.1962
   31MOL0     C 4091  13.384   6.620   5.219  0.2817  0.5993 -0.4994
   31MOL0     C 4092  13.338   6.677   5.080 -0.2731 -0.5812 -0.4702
   31MOL0     C 4093  13.202   6.740   5.081 -0.2548 -0.8933 -0.4096
   31MOL0    Cl 4094  13.092   6.623   5.153  0.0144 -0.0751 -0.2001
   31MOL0     C 4095  13.231   6.128   4.886  0.6871  0.7152 -0.0064
   31MOL0     C 4096  13.102   6.085   4.867  0.0385 -0.5264 -0.5651
   31MOL0     O 4097  12.952   5.692   4.844  0.1254 -0.2361  0.6549
   31MOL0     C 4098  12.685   5.873   4.696  0.1486  0.9030 -0.3674
   31MOL0     C 4099  12.547   5.857   4.652  0.7529  0.2001  0.0803
   31MOL0     N 4100  11.662   5.899   4.562  0.0864  1.1816 -0.3075
   31MOL0     N 4101  11.597   6.013   4.553 -0.2993 -0.2467 -0.1854
   31MOL0     C 4102  11.363   7.144   5.254  0.7591  0.3936 -0.2081
   31MOL0     C 4103  11.339   7.271   5.276 -0.0682  0.1347  0.0240
   31MOL0     C 4104  11.228   7.717   5.183 -0.1115  0.6427 -0.6609
   31MOL0     C 4105  11.204   7.733   5.319 -0.6073  0.5225 -0.1645
   31MOL0     C 4106  11.193   7.859   5.384  0.0213 -0.5768  0.8744
   31MOL0     C 4107  11.217   7.973   5.307  0.4090 -0.1512 -0.2456
   31MOL0     O 4108  11.196   8.089   5.380 -0.3195  0.1341 -0.3603
   31MOL0     C 4109  11.177   8.211   5.308  0.5819 -0.5660 -0.3864
   31MOL0     C 4110  11.192   8.336   5.391  0.1936  0.8514  0.1074
   31MOL0     C 4111  11.331   8.350   5.464 -0.2374 -0.2100  0.3879
   31MOL0     C 4112  11.361   8.481   5.551  0.1083 -1.0476 -0.0206
   31MOL0     C 4113  11.339   8.609   5.475 -0.4951 -0.0308  1.1505
   31MOL0     C 4114  11.326   8.708   5.409 -0.6550 -0.2937 -0.5990
   31MOL0     C 4115  11.248   7.958   5.168  0.3026 -0.4690 -0.8061
   31MOL0     C 4116  11.260   7.832   5.112  0.6766 -0.1090  0.6583
   31MOL0     C 4117  11.291   7.829   4.968  0.0054 -0.2632  0.4027
   31MOL0     H 4118  11.367   7.383   4.960  1.1519  0.2142  0.1820
   31MOL0     H 4119  11.417   7.140   4.926 -2.7876 -2.6508  0.9230
   31MOL0     H 4120  11.225   6.833   5.071 -1.0544 -0.1292 -1.5706
   31MOL0     H 4121  11.212   6.983   5.003 -2.5137 -2.4874  1.3972
   31MOL0     H 4122  11.415   6.900   4.846  1.6434 -1.7162 -0.2483
   31MOL0     H 4123  11.268   6.831   4.822  0.5699  0.4597 -0.4042
   31MOL0     H 4124  11.319   6.627   4.968  0.1954  0.6300 -0.3582
   31MOL0     H 4125  11.475   6.708   5.015 -3.3739  1.8291  3.0855
   31MOL0     H 4126  11.385   6.650   4.734  0.2777  1.0703  0.4897
   31MOL0     H 4127  11.547   6.698   4.792 -2.2393  4.5076  3.5753
   31MOL0     H 4128  11.623   6.511   4.866 -0.9772 -0.2069  1.0963
   31MOL0     H 4129  11.471   6.433   4.899  0.8778  1.0484  1.6325
   31MOL0     H 4130  11.462   6.459   4.620  0.5773  1.2208 -0.7856
   31MOL0     H 4131  11.616   6.513   4.639  1.0063 -0.2418  0.4856
   31MOL0     H 4132  11.530   6.220   4.731  3.8872 -3.0862  0.3252
   31MOL0     H 4133  11.686   6.291   4.759  0.4973  1.4639 -0.8894
   31MOL0     H 4134  11.570   6.271   4.485 -0.6544 -0.3253  0.9525
   31MOL0     H 4135  11.742   6.313   4.539  0.8668  1.2484  3.7817
   31MOL0     H 4136  11.883   6.113   4.674 -0.4754  2.6517 -2.1131
   31MOL0     H 4137  11.901   5.829   4.753 -1.1217 -0.7216 -0.2340
   31MOL0     H 4138  11.869   5.740   4.600 -1.1614  0.7003 -3.0060
   31MOL0     H 4139  12.053   5.899   4.495  0.3705  0.7303  1.4315
   31MOL0     H 4140  12.086   5.945   4.656  1.2991  0.3301 -0.1386
   31MOL0     H 4141  12.129   5.664   4.570 -0.2367  0.6398 -0.8223
   31MOL0     H 4142  12.112   5.728   4.736  2.1824  1.6250  2.0234
   31MOL0     H 4143  12.303   5.881   4.684  0.3365  0.0994 -1.2580
   31MOL0     H 4144  12.291   5.834   4.513  1.5322  1.8063 -0.0192
   31MOL0     H 4145  12.529   5.528   4.701  1.0534 -0.3975  1.8194
   31MOL0     H 4146  12.764   5.549   4.745 -2.2477 -0.9661 -0.3813
   31MOL0     H 4147  13.169   5.757   4.782  0.5717 -0.3125 -0.4691
   31MOL0     H 4148  13.379   5.838   4.808 -0.6062 -0.0680  0.6900
   31MOL0     H 4149  13.605   6.217   4.842 -0.7512 -0.7043 -0.7148
   31MOL0     H 4150  13.442   6.287   4.820  0.9230 -0.5107 -2.2795
   31MOL0     H 4151  13.414   6.269   5.062 -0.4543 -1.5125 -1.5641
   31MOL0     H 4152  13.579   6.200   5.073  0.8825  1.8868  1.8619
   31MOL0     H 4153  13.667   6.404   5.006 -0.2774 -4.6962 -0.7470
   31MOL0     H 4154  13.514   6.475   4.975 -2.6163 -1.9429 -0.7433
   31MOL0     H 4155  13.674   6.421   5.235 -0.1748  0.7605  1.3858
   31MOL0     H 4156  13.505   6.371   5.249 -0.4795  0.7920 -0.5064
   31MOL0     H 4157  13.599   6.640   5.152  0.3428 -3.7512 -2.2609
   31MOL0     H 4158  13.583   6.598   5.322  2.2218 -0.4430 -1.4819
   31MOL0     H 4159  13.326   6.531   5.242 -1.2501  1.7282  0.1909
   31MOL0     H 4160  13.370   6.690   5.303 -0.2350  0.1579 -0.2131
   31MOL0     H 4161  13.322   6.590   5.015  1.8716 -2.6644  1.5575
   31MOL0     H 4162  13.416   6.745   5.044 -2.7212  1.7938 -1.6289
   31MOL0     H 4163  13.201   6.833   5.139 -0.4775 -0.0205 -1.7687
   31MOL0     H 4164  13.168   6.771   4.982  0.6907  1.1585 -0.1431
   31MOL0     H 4165  13.238   6.232   4.917 -3.5082  0.4029  2.6956
   31MOL0     H 4166  13.022   6.157   4.884  0.2249 -0.7156  1.3101
   31MOL0     H 4167  12.730   5.971   4.695  2.4864  0.2269  4.9720
   31MOL0     H 4168  12.487   5.940   4.616  0.0394 -0.1832  0.3591
   31MOL0     H 4169  11.357   7.074   5.337 -0.4020  2.5950  1.6934
   31MOL0     H 4170  11.304   7.311   5.371 -2.6304  0.4680 -0.9640
   31MOL0     H 4171  11.179   7.650   5.385  0.6618  1.1066  1.0984
   31MOL0     H 4172  11.161   7.866   5.487 -1.7911  0.3011  0.2957
   31MOL0     H 4173  11.081   8.209   5.256 -0.4269 -1.7462  1.4362
   31MOL0     H 4174  11.259   8.217   5.236 -1.2895 -0.3846 -2.6319
   31MOL0     H 4175  11.108   8.347   5.460 -0.4234 -1.5690 -0.1574
   31MOL0     H 4176  11.182   8.415   5.315 -1.2421  0.0081 -0.6226
   31MOL0     H 4177  11.422   8.355   5.404  1.9610  2.2452  3.6111
   31MOL0     H 4178  11.336   8.256   5.520  0.8378  0.4633  1.4540
   31MOL0     H 4179  11.289   8.484   5.634  0.5256  0.7222  0.3242
   31MOL0     H 4180  11.465   8.474   5.582  0.0894 -0.6291  0.1457
   31MOL0     H 4181  11.335   8.803   5.361  6.2790  1.8288  3.4532
   31MOL0     H 4182  11.260   8.044   5.103 -1.9708 -0.5701 -1.4313
   31MOL0     H 4183  11.359   7.748   4.941  2.1016  0.7872  2.2232
   31MOL0     H 4184  11.197   7.823   4.913 -0.2138 -0.3937  0.7827
   31MOL0     H 4185  11.349   7.914   4.932 -0.7362  0.0446 -0.0916
   32MOL0     O 4186   5.873   5.000   6.090  0.5853  0.0995 -0.0828
   32MOL0     C 4187   5.826   4.911   6.013  0.2499  0.0915 -0.3137
   32MOL0     O 4188   5.891   4.854   5.903  0.6669  0.1203  0.0720
   32MOL0     C 4189   6.018   4.888   5.863 -0.2439  0.4845  0.1649
   32MOL0     C 4190   6.129   4.928   5.937 -0.1825  0.6940 -0.3913
   32MOL0     C 4191   6.259   4.944   5.889  0.3854 -0.0406 -0.3124
   32MOL0     C 4192   6.282   4.928   5.753  0.9647  0.2455  0.2089
   32MOL0     O 4193   6.419   4.941   5.728  0.4637 -0.2588 -0.9274
   32MOL0     C 4194   6.457   4.919   5.595  0.4330  0.1044 -0.1546
   32MOL0     C 4195   6.602   4.983   5.582  0.4888  0.1636 -0.2829
   32MOL0     C 4196   6.647   5.014   5.440 -0.8242 -1.2325  0.3657
   32MOL0     C 4197   6.780   5.103   5.432  0.1701  0.4079  0.2127
   32MOL0     C 4198   6.808   5.139   5.288  0.3238 -0.6521 -0.6145
   32MOL0     C 4199   6.932   5.230   5.282 -0.3383  0.2945  0.2971
   32MOL0     C 4200   6.985   5.230   5.130  0.4717 -0.2776 -0.5436
   32MOL0     C 4201   7.070   5.345   5.103  0.2351 -0.5368  0.2368
   32MOL0     N 4202   7.113   5.343   4.964 -0.2978 -0.0857  0.4403
   32MOL0     C 4203   7.220   5.287   4.904  0.4408 -0.2733  0.4572
   32MOL0     C 4204   7.216   5.310   4.775  0.0924 -0.4204  0.4114
   32MOL0     C 4205   7.321   5.279   4.673  0.3399  0.0237 -0.5202
   32MOL0     C 4206   7.422   5.398   4.660 -0.2502  1.1579  1.3384
   32MOL0     C 4207   7.562   5.351   4.625  0.8527 -0.8741 -0.2231
   32MOL0     C 4208   7.584   5.320   4.477  0.0972 -0.1353  0.6615
   32MOL0     O 4209   7.712   5.266   4.442 -1.1104  0.5641 -1.0317
   32MOL0     C 4210   7.831   5.336   4.458 -0.2388 -0.0430 -0.6608
   32MOL0     C 4211   7.842   5.475   4.458 -0.4769 -1.1187 -0.4356
   32MOL0     C 4212   7.972   5.532   4.465 -0.3401  0.2836  0.1334
   32MOL0     C 4213   8.088   5.463   4.476 -0.6155 -0.1093  0.5268
   32MOL0     C 4214   8.224   5.519   4.486 -0.2194  0.5352 -0.1245
   32MOL0     O 4215   8.249   5.654   4.467  0.5164  0.3079  0.1455
   32MOL0     C 4216   8.379   5.695   4.474 -0.2193 -0.1652  0.0100
   32MOL0     C 4217   8.405   5.781   4.578  0.9440 -0.5666  0.6538
   32MOL0     C 4218   8.532   5.819   4.605  0.0215  0.3705  0.8768
   32MOL0     C 4219   8.645   5.759   4.546  0.4837  0.3453 -0.3363
   32MOL0     O 4220   8.774   5.793   4.588  0.2435 -0.2847 -0.1303
   32MOL0     C 4221   8.868   5.691   4.563 -0.5568 -0.3183 -0.7327
   32MOL0     C 4222   9.008   5.741   4.623 -0.0348  0.2222 -0.0625
   32MOL0     C 4223   9.106   5.625   4.626 -1.0730  0.1814  0.7978
   32MOL0     C 4224   9.244   5.665   4.560 -0.1869 -0.1712  0.5611
   32MOL0     C 4225   9.359   5.565   4.575 -0.2821 -0.0261 -0.2164
   32MOL0     C 4226   9.475   5.598   4.483 -0.3480  1.5989  0.3970
   32MOL0     C 4227   9.524   5.743   4.497 -0.2960  0.6461 -0.3485
   32MOL0     C 4228   9.655   5.760   4.420 -0.6712  0.6641  0.2344
   32MOL0    Cl 4229   9.736   5.917   4.463  0.0314  0.0565 -0.2079
   32MOL0     C 4230   8.620   5.671   4.433  0.2965 -0.1461 -0.2782
   32MOL0     C 4231   8.483   5.638   4.400  0.1175  0.1915  0.2667
   32MOL0     O 4232   8.309   5.434   4.513 -0.1176 -0.9412  0.3523
   32MOL0     C 4233   8.074   5.325   4.485  0.1783  0.0227  0.6722
   32MOL0     C 4234   7.945   5.264   4.474  0.1886 -0.4880 -0.0303
   32MOL0     N 4235   7.102   5.383   4.750 -0.4056  0.1930 -0.8867
   32MOL0     N 4236   7.044   5.393   4.862 -0.4250  0.0904  0.3026
   32MOL0     C 4237   6.179   4.888   5.668  0.4836  0.1708 -0.1467
   32MOL0     C 4238   6.047   4.873   5.723 -0.3773  0.6040 -0.0719
   32MOL0     C 4239   5.687   4.855   6.042  0.2464  0.1322 -0.2223
   32MOL0     C 4240   5.657   4.737   5.969 -0.1514  0.6280 -0.7533
   32MOL0     C 4241   5.528   4.666   5.975 -0.1818 -0.7539 -0.0316
   32MOL0     C 4242   5.435   4.724   6.065 -0.7205  0.7366  0.2182
   32MOL0     O 4243   5.315   4.676   6.089  0.5612  1.0686  0.5297
   32MOL0     C 4244   5.302   4.540   6.116  0.0644 -0.1800 -0.8259
   32MOL0     C 4245   5.397   4.504   6.229  0.5635 -0.1760 -0.5350
   32MOL0     C 4246   5.344   4.563   6.354  0.2457 -0.9398 -1.4733
   32MOL0     C 4247   5.462   4.568   6.465 -0.2844  0.5211 -0.2897
   32MOL0     C 4248   5.570   4.675   6.451  0.1372  0.1458 -0.4179
   32MOL0     C 4249   5.639   4.775   6.437 -0.5183  1.3414 -0.5057
   32MOL0     C 4250   5.467   4.844   6.130 -0.2141 -0.0059 -0.7511
   32MOL0     C 4251   5.589   4.913   6.123 -0.1392  0.8752  0.7357
   32MOL0     C 4252   5.618   5.040   6.202 -0.0819  0.6249  0.3055
   32MOL0     H 4253   6.107   4.935   6.043 -3.3781 -0.3873 -0.8539
   32MOL0     H 4254   6.339   4.977   5.955  0.7824  0.4789 -1.0347
   32MOL0     H 4255   6.458   4.809   5.597  1.8410  0.0890  2.3157
   32MOL0     H 4256   6.398   4.976   5.523 -0.7531  2.4099  2.4353
   32MOL0     H 4257   6.675   4.913   5.622 -2.9955 -3.8045 -0.1238
   32MOL0     H 4258   6.596   5.071   5.647 -0.4212  0.3282 -0.5743
   32MOL0     H 4259   6.561   5.063   5.394  0.6329  0.3411 -0.8267
   32MOL0     H 4260   6.658   4.925   5.377 -1.6729 -0.0900 -1.4722
   32MOL0     H 4261   6.784   5.187   5.501  0.0473  0.9975 -0.4782
   32MOL0     H 4262   6.870   5.042   5.448 -0.5436 -1.0168 -0.8854
   32MOL0     H 4263   6.822   5.050   5.226  0.7168 -0.6325 -0.5603
   32MOL0     H 4264   6.726   5.195   5.244 -0.1515  0.7086  1.8302
   32MOL0     H 4265   6.904   5.334   5.303  0.3594  0.8751 -1.4636
   32MOL0     H 4266   7.010   5.186   5.345 -0.4832 -0.1191  0.1870
   32MOL0     H 4267   6.901   5.226   5.060  0.9119 -0.1724 -1.0851
   32MOL0     H 4268   7.048   5.141   5.118  2.6478  1.4295 -2.7579
   32MOL0     H 4269   7.010   5.435   5.118 -1.3641 -1.1051 -2.1916
   32MOL0     H 4270   7.152   5.348   5.176 -0.8643  0.5452  1.4805
   32MOL0     H 4271   7.298   5.226   4.951 -0.6283 -1.0518  1.2791
   32MOL0     H 4272   7.369   5.182   4.692  0.4537  0.8250  4.4665
   32MOL0     H 4273   7.264   5.275   4.580 -0.5227  2.1492 -0.1202
   32MOL0     H 4274   7.382   5.459   4.578  0.2767 -3.0631 -2.4753
   32MOL0     H 4275   7.430   5.459   4.750  2.8953  1.7601  0.7703
   32MOL0     H 4276   7.592   5.265   4.686  3.9559 -1.6836 -2.6457
   32MOL0     H 4277   7.632   5.433   4.643  0.3574 -0.2480 -1.0954
   32MOL0     H 4278   7.552   5.397   4.407  2.7479  1.5387  1.1429
   32MOL0     H 4279   7.517   5.238   4.448 -0.5328  0.5821  0.0378
   32MOL0     H 4280   7.759   5.545   4.447  1.9860  2.6736  2.5895
   32MOL0     H 4281   7.973   5.640   4.449  0.5393  0.3790  0.7266
   32MOL0     H 4282   8.321   5.821   4.635  0.9059  2.7330 -1.4441
   32MOL0     H 4283   8.553   5.885   4.688 -2.5284  0.5484  1.4717
   32MOL0     H 4284   8.839   5.601   4.618 -0.0638  1.0168  1.9071
   32MOL0     H 4285   8.903   5.665   4.463  1.0232  0.4200 -0.4139
   32MOL0     H 4286   9.041   5.820   4.555  0.0038 -2.4116 -3.4266
   32MOL0     H 4287   8.987   5.783   4.721  0.8717  2.2571 -0.6844
   32MOL0     H 4288   9.128   5.617   4.733  1.3086  3.8249  0.7210
   32MOL0     H 4289   9.068   5.533   4.579 -0.1715  1.5975 -2.9908
   32MOL0     H 4290   9.283   5.765   4.582  0.7411 -0.6438  1.1477
   32MOL0     H 4291   9.214   5.683   4.457 -2.4298 -2.7146  0.6555
   32MOL0     H 4292   9.332   5.459   4.569  1.1236 -0.6599  2.9440
   32MOL0     H 4293   9.398   5.586   4.675  0.4376  1.6460 -0.8212
   32MOL0     H 4294   9.552   5.524   4.505 -3.1654 -2.1301 -1.0701
   32MOL0     H 4295   9.457   5.588   4.376  3.8567  0.9128 -0.4090
   32MOL0     H 4296   9.539   5.777   4.600 -0.8998  1.5614 -0.5506
   32MOL0     H 4297   9.451   5.806   4.446 -0.8020  0.9989  0.7842
   32MOL0     H 4298   9.722   5.678   4.448  1.0434  2.4406  1.6951
   32MOL0     H 4299   9.642   5.759   4.311  1.8523  0.7643 -0.1271
   32MOL0     H 4300   8.701   5.630   4.373  1.3478  0.9681  0.3203
   32MOL0     H 4301   8.460   5.563   4.325  0.1629  2.6533 -2.3352
   32MOL0     H 4302   8.160   5.258   4.488  1.5738  1.7563  2.1002
   32MOL0     H 4303   7.950   5.158   4.493  2.0527 -0.9208 -2.4622
   32MOL0     H 4304   6.187   4.862   5.563 -5.4223 -2.0972 -0.3812
   32MOL0     H 4305   5.961   4.849   5.662 -0.7820  1.2450  0.2326
   32MOL0     H 4306   5.742   4.691   5.919  1.4894  1.2892  1.2874
   32MOL0     H 4307   5.514   4.574   5.920 -4.5748 -0.4566  0.2540
   32MOL0     H 4308   5.337   4.497   6.022  0.7208  0.0452 -0.6874
   32MOL0     H 4309   5.199   4.514   6.141 -0.6862  0.7835 -2.7153
   32MOL0     H 4310   5.500   4.535   6.207  0.1820  0.5973 -1.2670
   32MOL0     H 4311   5.393   4.395   6.229 -0.7219 -0.1708 -2.5504
   32MOL0     H 4312   5.256   4.509   6.390  1.4278 -3.7580 -2.5420
   32MOL0     H 4313   5.319   4.669   6.350  1.6401 -0.5522 -0.7335
   32MOL0     H 4314   5.420   4.595   6.563  0.8122  0.5450  0.2001
   32MOL0     H 4315   5.501   4.466   6.468 -1.8112 -0.0673  0.1847
   32MOL0     H 4316   5.698   4.864   6.434 -0.1817  1.2058  0.9890
   32MOL0     H 4317   5.387   4.894   6.185 -1.4458 -1.4575 -1.1581
   32MOL0     H 4318   5.542   5.036   6.281  0.3589  1.4734  0.7913
   32MOL0     H 4319   5.717   5.038   6.248 -0.8511 -3.4261  2.1988
   32MOL0     H 4320   5.607   5.132   6.144  0.7477  2.4119  2.8094
   33MOL0     O 4321   1.267   4.650   2.481 -0.4072  1.1134 -0.1513
   33MOL0     C 4322   1.218   4.762   2.503 -0.8088  0.2192 -0.9156
   33MOL0     O 4323   1.284   4.876   2.473  0.1579 -0.5169 -0.1159
   33MOL0     C 4324   1.413   4.872   2.426  0.2346 -0.8765 -0.6765
   33MOL0     C 4325   1.441   4.871   2.290 -0.6362 -0.7980  0.2680
   33MOL0     C 4326   1.576   4.892   2.246 -0.1503  0.2488  0.4745
   33MOL0     C 4327   1.675   4.886   2.336 -0.1447 -0.1805 -0.7482
   33MOL0     O 4328   1.801   4.911   2.273 -0.4955 -0.0575 -0.1930
   33MOL0     C 4329   1.919   4.933   2.345 -0.0695  0.1572  0.0899
   33MOL0     C 4330   2.021   5.000   2.255 -0.1088  0.2409 -1.1816
   33MOL0     C 4331   2.082   4.913   2.141 -0.6822 -0.3018 -0.4057
   33MOL0     C 4332   2.202   4.979   2.073  0.2413 -0.6158 -0.4345
   33MOL0     C 4333   2.277   4.893   1.965  0.3660 -0.3695  0.2625
   33MOL0     C 4334   2.406   4.955   1.921 -0.1761 -0.1575  0.3112
   33MOL0     C 4335   2.491   4.864   1.829  0.0124 -0.0118 -0.0949
   33MOL0     C 4336   2.598   4.942   1.758  0.0567 -0.3940 -0.8411
   33MOL0     N 4337   2.711   4.967   1.851 -0.0911  0.3084  1.0502
   33MOL0     C 4338   2.813   4.872   1.892 -0.3200 -0.0077  1.0839
   33MOL0     C 4339   2.873   4.941   1.992 -0.3228  0.1595  0.4021
   33MOL0     C 4340   2.974   4.880   2.075  0.6905  0.3455  0.3115
   33MOL0     C 4341   2.928   4.762   2.156  0.2781  0.0579  1.0026
   33MOL0     C 4342   3.026   4.691   2.246  0.4817  0.4249 -0.1222
   33MOL0     C 4343   3.150   4.632   2.181  0.5960 -0.3469  0.7668
   33MOL0     O 4344   3.214   4.539   2.280 -0.2374 -0.4842 -0.3955
   33MOL0     C 4345   3.302   4.606   2.372  0.6274 -0.3146  1.1017
   33MOL0     C 4346   3.342   4.743   2.373 -0.6037  0.1525 -0.2767
   33MOL0     C 4347   3.436   4.796   2.465  0.7362 -0.1349  0.4445
   33MOL0     C 4348   3.501   4.708   2.549  0.5167  0.5574  0.1926
   33MOL0     C 4349   3.605   4.756   2.646  0.0383  0.2013 -0.8412
   33MOL0     O 4350   3.608   4.884   2.673  0.0462 -0.8084 -1.0989
   33MOL0     C 4351   3.698   4.950   2.764  0.3599 -0.3812  0.4004
   33MOL0     C 4352   3.823   4.896   2.799 -0.0549 -0.2034  1.0865
   33MOL0     C 4353   3.909   4.960   2.884 -0.3295  0.0804 -0.5146
   33MOL0     C 4354   3.862   5.078   2.939  0.3240  0.0225  0.2161
   33MOL0     O 4355   3.936   5.170   3.012  0.5577  0.4916 -0.0534
   33MOL0     C 4356   4.075   5.155   3.033 -0.4609  0.0861 -0.6757
   33MOL0     C 4357   4.134   5.258   3.131 -0.2467  0.2350  0.1307
   33MOL0     C 4358   4.278   5.243   3.166 -0.2741  0.8259  0.1935
   33MOL0     C 4359   4.368   5.292   3.052 -0.5810  1.0874 -0.5625
   33MOL0     C 4360   4.515   5.277   3.101 -0.4184  0.7212 -0.5061
   33MOL0     C 4361   4.620   5.367   3.029 -0.3939  0.1909 -0.2034
   33MOL0     C 4362   4.765   5.347   3.090 -0.1135 -0.0200 -0.5110
   33MOL0     C 4363   4.880   5.414   3.012 -0.8415 -0.1001  0.0980
   33MOL0    Cl 4364   4.847   5.581   2.966 -0.0514 -0.3221  0.0239
   33MOL0     C 4365   3.743   5.137   2.905 -0.3637 -0.3964 -0.3335
   33MOL0     C 4366   3.655   5.068   2.825 -0.5994 -0.5107 -0.3754
   33MOL0     O 4367   3.670   4.671   2.707 -0.1962  0.4620 -0.3137
   33MOL0     C 4368   3.473   4.567   2.539  0.4049 -0.5174  0.9495
   33MOL0     C 4369   3.369   4.520   2.456  0.0179 -1.0628 -0.0653
   33MOL0     N 4370   2.814   5.069   2.008  0.9566  0.4967  0.6915
   33MOL0     N 4371   2.723   5.085   1.919 -0.1273 -0.4372 -0.5050
   33MOL0     C 4372   1.649   4.890   2.477  1.5451 -0.7713 -0.9215
   33MOL0     C 4373   1.518   4.883   2.523 -0.1418 -0.0604  0.1932
   33MOL0     C 4374   1.087   4.770   2.578 -0.0625 -0.5460  0.1868
   33MOL0     C 4375   1.002   4.658   2.578 -0.9679 -0.0699  0.7230
   33MOL0     C 4376   0.881   4.653   2.645 -0.1174 -0.4089  0.4098
   33MOL0     C 4377   0.834   4.766   2.705 -0.2977 -0.9074  0.4489
   33MOL0     O 4378   0.710   4.778   2.755 -0.0904 -0.4628  0.0830
   33MOL0     C 4379   0.631   4.893   2.765  0.3074 -0.6206 -0.0913
   33MOL0     C 4380   0.524   4.901   2.664  0.0797  0.0749  0.1927
   33MOL0     C 4381   0.442   4.771   2.634 -0.7512 -0.0451 -0.7655
   33MOL0     C 4382   0.335   4.771   2.528  0.7073  0.6466  0.8061
   33MOL0     C 4383   0.201   4.807   2.574 -0.6057 -0.4318  0.7996
   33MOL0     C 4384   0.087   4.833   2.578  0.3654  0.1264 -0.4225
   33MOL0     C 4385   0.922   4.874   2.722 -0.6776  0.3931  1.3383
   33MOL0     C 4386   1.047   4.871   2.668 -0.0812  0.7118 -0.2140
   33MOL0     C 4387   1.137   4.980   2.697 -0.1848  1.2195 -0.5588
   33MOL0     H 4388   1.353   4.877   2.227 -1.5551 -2.0199  1.3792
   33MOL0     H 4389   1.597   4.911   2.142  2.0123  3.0109  1.2919
   33MOL0     H 4390   1.899   4.986   2.438 -0.7174  1.5284 -0.7882
   33MOL0     H 4391   1.952   4.834   2.378 -0.1009  0.4799  1.1251
   33MOL0     H 4392   2.102   5.036   2.319 -1.5004  2.8447 -0.7615
   33MOL0     H 4393   1.971   5.084   2.205 -3.8021 -1.5591 -0.8802
   33MOL0     H 4394   2.000   4.897   2.070 -0.7045 -0.2928 -0.3823
   33MOL0     H 4395   2.116   4.816   2.177 -0.6915 -0.8340 -1.7939
   33MOL0     H 4396   2.174   5.066   2.013  3.3026 -0.1444 -1.3299
   33MOL0     H 4397   2.277   4.997   2.150  1.0443 -3.4762 -0.4446
   33MOL0     H 4398   2.291   4.787   1.989 -1.8120 -0.8075 -0.1219
   33MOL0     H 4399   2.213   4.882   1.876 -0.0079  0.0857  0.4712
   33MOL0     H 4400   2.402   5.061   1.894  0.4478 -0.3001 -0.3554
   33MOL0     H 4401   2.455   4.968   2.018 -0.3996  0.6787  0.3213
   33MOL0     H 4402   2.427   4.825   1.749 -0.2878 -0.7677  0.4982
   33MOL0     H 4403   2.534   4.783   1.889 -1.1420 -0.4218  0.2272
   33MOL0     H 4404   2.631   4.882   1.674 -0.4156 -3.3149  0.9233
   33MOL0     H 4405   2.557   5.040   1.733  0.5385  0.5760  1.8364
   33MOL0     H 4406   2.845   4.775   1.855  2.3609  0.7201  1.2734
   33MOL0     H 4407   3.047   4.844   2.002 -1.5155 -0.5925 -1.5169
   33MOL0     H 4408   3.014   4.961   2.138 -2.2339  1.1587  1.2761
   33MOL0     H 4409   2.843   4.794   2.217  0.2651 -0.9262  1.5160
   33MOL0     H 4410   2.895   4.692   2.079  0.8688 -0.1512  0.9378
   33MOL0     H 4411   2.978   4.606   2.296  2.8286 -1.5225 -0.9686
   33MOL0     H 4412   3.068   4.765   2.314  1.2917  0.7274 -0.9418
   33MOL0     H 4413   3.221   4.711   2.155 -2.4702  1.9036 -1.5528
   33MOL0     H 4414   3.117   4.585   2.088  0.8457  1.5092 -0.3090
   33MOL0     H 4415   3.324   4.818   2.297 -2.7052  2.7843  2.6059
   33MOL0     H 4416   3.463   4.901   2.453 -1.2546  0.3871  0.2541
   33MOL0     H 4417   3.865   4.806   2.755  1.9771  1.4695 -0.6598
   33MOL0     H 4418   3.998   4.910   2.919 -2.7830 -1.8853  3.7303
   33MOL0     H 4419   4.089   5.051   3.065 -0.5273 -0.6184 -2.7851
   33MOL0     H 4420   4.132   5.169   2.941  1.6984  0.4029  0.6421
   33MOL0     H 4421   4.121   5.353   3.078 -2.9940 -0.8531 -1.3209
   33MOL0     H 4422   4.067   5.263   3.218 -0.3745  0.8736 -0.0031
   33MOL0     H 4423   4.301   5.300   3.257  0.6430  1.3542 -0.3630
   33MOL0     H 4424   4.301   5.140   3.194 -0.5925  0.7786  0.2935
   33MOL0     H 4425   4.346   5.398   3.039 -0.9983  1.2219  1.0362
   33MOL0     H 4426   4.351   5.231   2.962  1.3678  0.2717 -0.4248
   33MOL0     H 4427   4.549   5.173   3.089 -2.0939  0.3221 -2.3501
   33MOL0     H 4428   4.520   5.300   3.208  3.4062 -1.7246  0.0535
   33MOL0     H 4429   4.622   5.340   2.923  2.1968  0.7552 -0.3505
   33MOL0     H 4430   4.593   5.473   3.033 -0.2885  0.2823 -1.6103
   33MOL0     H 4431   4.797   5.242   3.088 -1.3555 -0.5382  2.5357
   33MOL0     H 4432   4.761   5.367   3.197 -1.0761 -2.2403 -0.0753
   33MOL0     H 4433   4.972   5.405   3.071 -0.2652 -1.9788 -1.0020
   33MOL0     H 4434   4.907   5.352   2.926  0.8100 -1.1372  1.2897
   33MOL0     H 4435   3.721   5.237   2.940 -2.4764 -1.4467  1.5617
   33MOL0     H 4436   3.562   5.117   2.799  1.1543  3.8343  0.5473
   33MOL0     H 4437   3.518   4.497   2.609 -0.4989  0.1611  2.2557
   33MOL0     H 4438   3.337   4.417   2.448  1.9267 -1.5580 -3.9211
   33MOL0     H 4439   1.733   4.897   2.546 -0.8515 -0.4669  2.1931
   33MOL0     H 4440   1.512   4.885   2.631  1.3874 -0.4262  0.3088
   33MOL0     H 4441   1.037   4.573   2.519  3.0445  2.3092 -0.7694
   33MOL0     H 4442   0.808   4.575   2.627 -1.5896  1.6483 -3.6692
   33MOL0     H 4443   0.690   4.985   2.766  2.5339 -1.9599 -0.3274
   33MOL0     H 4444   0.580   4.869   2.859 -0.1567 -0.9591 -0.4277
   33MOL0     H 4445   0.564   4.937   2.569 -3.1829  1.4818 -0.7886
   33MOL0     H 4446   0.455   4.979   2.697 -1.8034 -0.3593 -2.3908
   33MOL0     H 4447   0.396   4.759   2.732 -0.4196  3.8205  0.0302
   33MOL0     H 4448   0.518   4.700   2.603  0.2254  1.2858 -1.5369
   33MOL0     H 4449   0.370   4.839   2.449 -2.5448  2.5531  0.8472
   33MOL0     H 4450   0.327   4.672   2.482  1.6030  0.5307  0.8793
   33MOL0     H 4451  -0.009   4.869   2.608 -0.2398 -2.0524  0.4384
   33MOL0     H 4452   0.889   4.954   2.788  0.0605  0.9385  1.0590
   33MOL0     H 4453   1.098   5.034   2.783  1.6319  0.5117  0.7654
   33MOL0     H 4454   1.236   4.949   2.733 -1.1473  0.4920  1.5634
   33MOL0     H 4455   1.153   5.043   2.608 -0.7198  0.9263 -0.8631
   34MOL0     O 4456   8.985  10.860   2.441  0.8143 -0.3510 -0.2007
   34MOL0     C 4457   9.078  10.916   2.495 -0.0312  0.1655  0.3224
   34MOL0     O 4458   9.080  10.975   2.612  0.0738 -0.4975 -0.4664
   34MOL0     C 4459   8.988  11.074   2.653  0.3053  0.9371  0.7796
   34MOL0     C 4460   8.857  11.087   2.604  1.2543 -0.2203 -0.2210
   34MOL0     C 4461   8.762  11.171   2.657  0.4411 -0.0894  0.8533
   34MOL0     C 4462   8.800  11.256   2.764 -0.0856  0.7414  0.4688
   34MOL0     O 4463   8.719  11.347   2.827  0.2099 -0.9207  0.4106
   34MOL0     C 4464   8.666  11.433   2.726  0.3969 -0.1705 -0.7103
   34MOL0     C 4465   8.557  11.536   2.785 -0.0719  0.2900  0.1319
   34MOL0     C 4466   8.411  11.484   2.811 -0.5409  0.3164  0.1642
   34MOL0     C 4467   8.395  11.392   2.932 -0.7823 -0.5576 -0.5045
   34MOL0     C 4468   8.259  11.341   2.962  0.2536  1.2078 -0.8112
   34MOL0     C 4469   8.154  11.455   2.977 -0.5002  0.3003 -0.0657
   34MOL0     C 4470   8.020  11.400   3.039 -0.7382 -0.3289  0.1049
   34MOL0     C 4471   7.910  11.509   3.035 -0.5080  0.1204  0.2066
   34MOL0     N 4472   7.942  11.615   3.134  1.0057 -0.3268 -0.1264
   34MOL0     C 4473   7.917  11.751   3.125 -0.1921 -0.4065  0.7324
   34MOL0     C 4474   7.936  11.799   3.253 -0.4295  0.3069  0.6156
   34MOL0     C 4475   7.931  11.953   3.299 -0.1532  0.4618  0.2033
   34MOL0     C 4476   8.039  11.996   3.397 -0.6070 -0.0194 -0.4356
   34MOL0     C 4477   8.046  12.147   3.424  0.0654 -0.2135 -0.6071
   34MOL0     C 4478   8.159  12.176   3.520  0.7550  0.8104 -0.0445
   34MOL0     O 4479   8.282  12.121   3.475  0.2775  0.8919  0.2579
   34MOL0     C 4480   8.374  12.192   3.417 -0.1965  0.8669  0.8111
   34MOL0     C 4481   8.355  12.275   3.310 -0.0559 -0.2390 -0.6005
   34MOL0     C 4482   8.474  12.349   3.271 -0.2703  0.4587 -0.8253
   34MOL0     C 4483   8.601  12.318   3.319  0.1819 -0.0302 -0.4166
   34MOL0     C 4484   8.722  12.374   3.257  1.2966 -0.7221 -0.8284
   34MOL0     O 4485   8.702  12.426   3.133  0.1548  0.3858  0.7183
   34MOL0     C 4486   8.809  12.491   3.079 -0.9801  0.2938 -0.3342
   34MOL0     C 4487   8.888  12.431   2.980 -0.1390 -0.2029  0.4199
   34MOL0     C 4488   8.989  12.504   2.907  0.3731  0.6465  0.3460
   34MOL0     C 4489   9.013  12.641   2.933  0.2493  0.2739  0.4845
   34MOL0     O 4490   9.081  12.735   2.853 -0.1828  0.5499  0.2579
   34MOL0     C 4491   9.074  12.719   2.708  0.3227  0.1662 -0.2189
   34MOL0     C 4492   9.201  12.644   2.660 -0.2668  0.3006  0.0239
   34MOL0     C 4493   9.178  12.596   2.513  0.4633 -0.6421  0.1092
   34MOL0     C 4494   9.190  12.701   2.402 -0.2156 -0.6105  0.5452
   34MOL0     C 4495   9.145  12.673   2.253 -0.8383 -0.4581 -0.6808
   34MOL0     C 4496   9.176  12.788   2.161  0.8400 -0.6309 -0.0833
   34MOL0     C 4497   9.094  12.776   2.039 -0.1546 -1.3880  0.2175
   34MOL0     C 4498   9.111  12.901   1.949 -0.6331 -0.1099 -0.0643
   34MOL0    Cl 4499   9.093  13.058   2.032  0.0911 -0.1912  0.1970
   34MOL0     C 4500   8.928  12.699   3.034 -0.4672 -0.6788 -0.0441
   34MOL0     C 4501   8.835  12.626   3.112  0.0700  0.4121  0.1157
   34MOL0     O 4502   8.822  12.388   3.330 -0.2116 -0.3193 -0.2288
   34MOL0     C 4503   8.611  12.229   3.428  1.3172 -0.9225  0.0200
   34MOL0     C 4504   8.504  12.167   3.472 -0.5480  0.6599 -0.3060
   34MOL0     N 4505   7.965  11.688   3.329  0.1491 -0.8524 -0.1366
   34MOL0     N 4506   7.982  11.580   3.255 -0.2336 -1.0757 -0.4077
   34MOL0     C 4507   8.933  11.246   2.810 -0.6268 -0.5299  0.3275
   34MOL0     C 4508   9.020  11.152   2.759 -1.3036 -0.4528  0.2150
   34MOL0     C 4509   9.206  10.892   2.418  0.8600  0.5752  0.2587
   34MOL0     C 4510   9.208  10.853   2.283 -0.5751  0.0242 -0.1495
   34MOL0     C 4511   9.328  10.810   2.223 -0.3336 -0.7268  0.7766
   34MOL0     C 4512   9.449  10.841   2.271 -0.5518  0.1245  0.0783
   34MOL0     O 4513   9.574  10.819   2.203  0.4165 -0.3354 -0.0219
   34MOL0     C 4514   9.567  10.798   2.066 -0.4397 -0.3340 -0.2262
   34MOL0     C 4515   9.711  10.820   2.005  0.0465 -0.4982 -0.8482
   34MOL0     C 4516   9.811  10.706   2.035 -0.4071 -0.0919 -0.2677
   34MOL0     C 4517   9.937  10.741   1.951 -0.9718  0.6978 -0.3134
   34MOL0     C 4518  10.041  10.643   1.991  0.3424  0.8505  0.4793
   34MOL0     C 4519  10.134  10.562   2.006  0.4192  0.0724 -0.1360
   34MOL0     C 4520   9.448  10.892   2.406  0.2662  0.4636  0.1704
   34MOL0     C 4521   9.331  10.913   2.478 -0.9517 -0.6413 -0.1128
   34MOL0     C 4522   9.356  10.969   2.612  0.3147  0.4968  0.0608
   34MOL0     H 4523   8.817  11.020   2.529  2.0244 -0.4346 -0.4538
   34MOL0     H 4524   8.664  11.160   2.612  1.4435 -1.6754 -1.1279
   34MOL0     H 4525   8.740  11.485   2.664 -0.0793 -1.3572 -2.3489
   34MOL0     H 4526   8.602  11.380   2.655 -2.2497 -0.1834  1.5267
   34MOL0     H 4527   8.553  11.626   2.722 -1.0658  0.7966  0.8891
   34MOL0     H 4528   8.598  11.561   2.883  0.5767  1.7198 -0.4767
   34MOL0     H 4529   8.384  11.424   2.723 -0.7032 -0.2705  0.6135
   34MOL0     H 4530   8.344  11.569   2.827  2.3694  2.2805  3.1412
   34MOL0     H 4531   8.463  11.309   2.908  4.6373  2.7396  1.6015
   34MOL0     H 4532   8.440  11.451   3.012  3.6389  1.0475 -3.7666
   34MOL0     H 4533   8.214  11.292   2.875  3.3642 -1.2475 -1.1881
   34MOL0     H 4534   8.261  11.270   3.045  2.2843  1.9671 -0.1486
   34MOL0     H 4535   8.186  11.541   3.036 -2.8831  1.2509 -0.0255
   34MOL0     H 4536   8.130  11.487   2.876 -3.2224 -1.5001 -0.0948
   34MOL0     H 4537   8.035  11.360   3.140  0.7313 -0.7706 -0.2619
   34MOL0     H 4538   7.978  11.324   2.972 -0.8784  1.0734 -1.4704
   34MOL0     H 4539   7.904  11.542   2.932 -1.4166 -2.5635 -0.6980
   34MOL0     H 4540   7.810  11.474   3.063 -1.5089  2.3940 -0.3790
   34MOL0     H 4541   7.893  11.803   3.032  0.0255 -0.3268  0.7193
   34MOL0     H 4542   7.929  12.013   3.207 -3.1531 -0.0024 -0.1283
   34MOL0     H 4543   7.830  11.967   3.338  0.2488  0.8504  1.1298
   34MOL0     H 4544   8.012  11.945   3.490 -0.9884  0.2217 -0.4136
   34MOL0     H 4545   8.128  11.960   3.343  1.9400  2.4474  1.8478
   34MOL0     H 4546   7.957  12.188   3.474  1.6312  2.6709  0.0063
   34MOL0     H 4547   8.064  12.202   3.331 -0.1967  0.1130 -0.4672
   34MOL0     H 4548   8.140  12.133   3.619 -2.3217 -2.8816 -1.9678
   34MOL0     H 4549   8.170  12.284   3.531  2.0473  1.1327 -3.2928
   34MOL0     H 4550   8.258  12.308   3.273  0.6342  1.3438 -1.1169
   34MOL0     H 4551   8.463  12.429   3.198  2.9901  2.5994  0.7831
   34MOL0     H 4552   8.871  12.327   2.955 -1.8823  0.3742 -0.9972
   34MOL0     H 4553   9.053  12.439   2.848  2.4592 -0.7118  3.8010
   34MOL0     H 4554   8.981  12.668   2.682  0.9627 -0.6611 -0.9598
   34MOL0     H 4555   9.080  12.820   2.666 -0.1118 -0.5787 -2.1830
   34MOL0     H 4556   9.283  12.716   2.650 -0.7119  0.7842 -0.1805
   34MOL0     H 4557   9.229  12.556   2.720  0.3452  0.9071  0.6428
   34MOL0     H 4558   9.245  12.511   2.498 -1.4091 -2.7867  2.7485
   34MOL0     H 4559   9.079  12.549   2.508 -1.2092  2.5763  0.5464
   34MOL0     H 4560   9.297  12.718   2.388 -0.6951  1.2208 -1.2912
   34MOL0     H 4561   9.146  12.797   2.433  4.1493  1.9020 -0.2724
   34MOL0     H 4562   9.038  12.651   2.245 -0.7892 -0.5981 -0.9943
   34MOL0     H 4563   9.196  12.579   2.226 -0.4270 -0.9088  1.4707
   34MOL0     H 4564   9.160  12.883   2.213  1.5976  0.3654 -1.6158
   34MOL0     H 4565   9.284  12.785   2.143  0.7406  2.8646 -2.0985
   34MOL0     H 4566   8.988  12.769   2.065  0.6493 -0.5573  4.3867
   34MOL0     H 4567   9.115  12.682   1.988  0.9069 -0.1288 -1.8349
   34MOL0     H 4568   9.214  12.900   1.912 -0.7123  2.8787 -0.6219
   34MOL0     H 4569   9.054  12.887   1.857  0.1094 -2.0795 -0.2635
   34MOL0     H 4570   8.930  12.808   3.040  0.2930 -0.6755 -0.2040
   34MOL0     H 4571   8.781  12.684   3.186 -1.3201 -1.0186  0.2584
   34MOL0     H 4572   8.704  12.199   3.476  1.7874 -0.3141 -0.4847
   34MOL0     H 4573   8.507  12.089   3.547  2.6401 -1.9107 -2.8210
   34MOL0     H 4574   8.966  11.329   2.871 -4.7923  2.4999 -1.0305
   34MOL0     H 4575   9.122  11.145   2.794 -1.3678  1.0747  0.8124
   34MOL0     H 4576   9.113  10.839   2.232 -1.0377 -0.3413  0.7858
   34MOL0     H 4577   9.321  10.762   2.126  0.6281 -1.3707  1.0188
   34MOL0     H 4578   9.497  10.864   2.014 -1.1654  0.1587  1.3025
   34MOL0     H 4579   9.551  10.694   2.036  2.2051 -0.7987 -0.2952
   34MOL0     H 4580   9.748  10.911   2.053  1.3491 -0.0251 -2.6340
   34MOL0     H 4581   9.692  10.820   1.897 -0.4827  3.8537 -0.9302
   34MOL0     H 4582   9.778  10.610   1.996 -0.8704  0.7488 -2.0890
   34MOL0     H 4583   9.817  10.711   2.144 -2.5363  1.7653 -0.1533
   34MOL0     H 4584   9.923  10.728   1.843 -2.0734 -0.7534 -0.0261
   34MOL0     H 4585   9.973  10.836   1.991 -2.2519  0.9375  0.3178
   34MOL0     H 4586  10.212  10.489   2.015  0.4352  0.0467 -0.4881
   34MOL0     H 4587   9.539  10.915   2.462 -1.5079 -0.7495  3.8629
   34MOL0     H 4588   9.303  10.908   2.685  3.3441  0.8912  2.7796
   34MOL0     H 4589   9.459  10.945   2.638  1.5934  2.4491 -2.6445
   34MOL0     H 4590   9.340  11.076   2.623  1.2486  0.5963  0.5108
   35MOL0     O 4591   7.192   1.703   7.200  0.2627  0.5562 -0.0116
   35MOL0     C 4592   7.112   1.623   7.242 -0.0269  0.0595 -0.5933
   35MOL0     O 4593   7.142   1.517   7.330  0.3590  0.4144  0.2953
   35MOL0     C 4594   7.274   1.511   7.373  0.5897 -0.3118  0.0237
   35MOL0     C 4595   7.342   1.386   7.376  0.4479 -0.6140 -0.3123
   35MOL0     C 4596   7.476   1.370   7.409  0.4249 -0.3748 -0.3014
   35MOL0     C 4597   7.545   1.487   7.456  0.6868  0.7166  0.4254
   35MOL0     O 4598   7.677   1.473   7.481  0.4567  0.5398 -0.4825
   35MOL0     C 4599   7.745   1.583   7.521 -0.9020  1.4601 -0.1029
   35MOL0     C 4600   7.883   1.543   7.549 -0.0250 -0.3499 -1.3722
   35MOL0     C 4601   7.956   1.673   7.588 -0.7055 -0.6378  0.2672
   35MOL0     C 4602   8.107   1.663   7.568 -0.1179  0.1772 -0.7946
   35MOL0     C 4603   8.186   1.575   7.665  0.8703 -0.1250 -0.9115
   35MOL0     C 4604   8.320   1.517   7.615 -0.2391 -0.8764  0.6544
   35MOL0     C 4605   8.356   1.413   7.715 -0.9035  0.2542  0.1923
   35MOL0     C 4606   8.489   1.334   7.691  0.3735 -0.6148  0.5540
   35MOL0     N 4607   8.485   1.246   7.575 -0.4557  0.3296  0.4485
   35MOL0     C 4608   8.380   1.156   7.550  0.2819  0.2699  0.2317
   35MOL0     C 4609   8.418   1.085   7.443 -1.4360  0.5744  0.0139
   35MOL0     C 4610   8.351   0.978   7.355 -0.1073  0.4203  0.5004
   35MOL0     C 4611   8.280   0.874   7.441  0.1701 -0.3023  0.3360
   35MOL0     C 4612   8.216   0.768   7.345  0.8751  0.5640  0.1034
   35MOL0     C 4613   8.126   0.678   7.422 -0.4368 -0.1290 -0.3839
   35MOL0     O 4614   8.015   0.747   7.473  0.0233  0.5487 -0.4826
   35MOL0     C 4615   7.900   0.672   7.506 -0.3281  0.7116 -0.2204
   35MOL0     C 4616   7.909   0.539   7.529  0.2888  0.1038  0.0243
   35MOL0     C 4617   7.797   0.458   7.550 -0.0664 -0.1199 -0.2393
   35MOL0     C 4618   7.667   0.515   7.553  0.0905  0.9570  0.4554
   35MOL0     C 4619   7.556   0.437   7.571 -1.3052 -0.0734  0.4678
   35MOL0     O 4620   7.438   0.504   7.580  0.6242  0.7073  0.3500
   35MOL0     C 4621   7.336   0.422   7.617  0.5519 -0.4664  1.3118
   35MOL0     C 4622   7.253   0.358   7.529 -0.1240 -0.3318  0.2426
   35MOL0     C 4623   7.157   0.269   7.574 -0.0125  0.0749  0.0310
   35MOL0     C 4624   7.138   0.243   7.714  0.3200  0.5738  0.0347
   35MOL0     O 4625   7.037   0.173   7.767  0.8585 -0.6131 -0.3440
   35MOL0     C 4626   6.995   0.045   7.708  0.2724 -0.2026 -0.1971
   35MOL0     C 4627   6.879  -0.030   7.789  0.3836 -0.2058 -0.8630
   35MOL0     C 4628   6.920  -0.036   7.940 -0.6712  0.4532 -0.4742
   35MOL0     C 4629   7.062  -0.091   7.966 -0.4824 -0.6694 -0.5915
   35MOL0     C 4630   7.084  -0.123   8.119  0.2807 -0.1468  0.0617
   35MOL0     C 4631   7.074   0.007   8.197 -0.9013 -1.3309  0.0531
   35MOL0     C 4632   7.165   0.009   8.319 -0.3985 -0.2091 -0.0555
   35MOL0     C 4633   7.117  -0.094   8.427 -0.4606 -0.6753 -1.3155
   35MOL0    Cl 4634   6.980  -0.027   8.528 -0.4378  0.3922  0.1515
   35MOL0     C 4635   7.216   0.316   7.808 -0.1714 -0.2018 -0.4447
   35MOL0     C 4636   7.313   0.402   7.754  0.2763 -0.5234 -0.3334
   35MOL0     O 4637   7.571   0.314   7.578 -0.0484  0.6291  0.0970
   35MOL0     C 4638   7.662   0.653   7.555  0.3751 -0.8056 -0.4709
   35MOL0     C 4639   7.780   0.733   7.526  0.4178 -0.1266 -0.2215
   35MOL0     N 4640   8.544   1.146   7.402  0.4160  0.1240 -0.8531
   35MOL0     N 4641   8.590   1.231   7.483  0.2711 -0.2563  0.5790
   35MOL0     C 4642   7.480   1.608   7.453  0.4244  0.0050  0.9009
   35MOL0     C 4643   7.344   1.627   7.416 -0.2685  0.8003  0.3351
   35MOL0     C 4644   6.977   1.632   7.201  0.1870  0.5558 -0.9071
   35MOL0     C 4645   6.890   1.537   7.264  0.3833  0.2595 -0.1978
   35MOL0     C 4646   6.748   1.534   7.238 -0.5873 -0.2818  0.3194
   35MOL0     C 4647   6.698   1.623   7.141  0.0281 -0.5796  0.7051
   35MOL0     O 4648   6.563   1.607   7.094  0.5034 -0.2385  0.1222
   35MOL0     C 4649   6.509   1.698   6.991 -1.4577 -0.0915 -0.6243
   35MOL0     C 4650   6.362   1.659   6.966  0.4398  0.4260 -0.4047
   35MOL0     C 4651   6.343   1.515   6.921 -0.5879 -0.3999 -0.1455
   35MOL0     C 4652   6.198   1.486   6.905  0.6043 -0.1588  0.2826
   35MOL0     C 4653   6.125   1.473   7.027 -0.8233  0.4194 -0.4045
   35MOL0     C 4654   6.069   1.459   7.130  0.3780  0.2231  0.0973
   35MOL0     C 4655   6.784   1.700   7.059 -0.7079  0.1357 -0.1842
   35MOL0     C 4656   6.927   1.705   7.089  0.8524 -0.0197  0.3645
   35MOL0     C 4657   7.009   1.814   7.011 -0.2901 -0.7755  0.6558
   35MOL0     H 4658   7.289   1.292   7.368  0.1838 -0.5726  0.7237
   35MOL0     H 4659   7.511   1.268   7.423  1.5016 -0.1528 -1.2553
   35MOL0     H 4660   7.751   1.644   7.430  0.4977 -0.0402 -1.0641
   35MOL0     H 4661   7.693   1.640   7.599 -2.4030  2.6782 -1.8990
   35MOL0     H 4662   7.919   1.503   7.454  0.7091 -2.1947 -0.3679
   35MOL0     H 4663   7.884   1.467   7.628 -2.3000  1.2899  0.3776
   35MOL0     H 4664   7.941   1.709   7.690  2.0079  0.9176  0.2028
   35MOL0     H 4665   7.918   1.756   7.528  2.6025  0.5889 -0.3137
   35MOL0     H 4666   8.117   1.637   7.462 -0.0599  0.5250 -0.8747
   35MOL0     H 4667   8.146   1.763   7.586  1.7704 -0.9658  2.4036
   35MOL0     H 4668   8.209   1.626   7.758  0.9742 -2.1176  0.2122
   35MOL0     H 4669   8.124   1.486   7.681 -1.8822  1.2483 -3.0048
   35MOL0     H 4670   8.304   1.462   7.522  0.8444 -1.2238  0.6573
   35MOL0     H 4671   8.397   1.592   7.600 -0.6348 -0.0147  2.6016
   35MOL0     H 4672   8.274   1.341   7.714 -3.0104  2.5213 -1.8130
   35MOL0     H 4673   8.362   1.449   7.818 -0.7035 -0.2303  0.3558
   35MOL0     H 4674   8.572   1.404   7.682  1.6940 -1.7703  2.8078
   35MOL0     H 4675   8.504   1.266   7.775 -1.7825 -0.8341  0.8274
   35MOL0     H 4676   8.281   1.145   7.592 -1.0483  2.1434 -2.1242
   35MOL0     H 4677   8.272   1.014   7.289  2.7297  0.6686 -3.1128
   35MOL0     H 4678   8.429   0.931   7.294  2.0661  0.7996  2.8354
   35MOL0     H 4679   8.357   0.839   7.510 -0.6064 -2.6193  0.1212
   35MOL0     H 4680   8.199   0.927   7.491 -1.3555  0.0097 -2.2474
   35MOL0     H 4681   8.296   0.710   7.297 -0.7272 -2.5777  0.9368
   35MOL0     H 4682   8.149   0.815   7.272 -0.2695  1.1971  1.5134
   35MOL0     H 4683   8.178   0.627   7.503 -1.7062 -0.9195 -0.0469
   35MOL0     H 4684   8.090   0.598   7.356 -2.7971 -1.1360  1.9701
   35MOL0     H 4685   8.004   0.486   7.529  0.3936  0.2536 -1.4116
   35MOL0     H 4686   7.815   0.354   7.574  2.6993  0.7177  1.7501
   35MOL0     H 4687   7.281   0.370   7.425  1.1658 -1.3703  0.4461
   35MOL0     H 4688   7.092   0.213   7.506 -1.5458  1.3502  0.3789
   35MOL0     H 4689   6.958   0.066   7.607  0.9814 -1.1542 -0.6700
   35MOL0     H 4690   7.085  -0.017   7.697 -1.3506 -2.7788  0.0875
   35MOL0     H 4691   6.785   0.026   7.789 -0.7408 -1.9842 -2.4802
   35MOL0     H 4692   6.854  -0.130   7.754 -0.5257 -0.9993  1.8158
   35MOL0     H 4693   6.913   0.066   7.980 -2.6233  0.2487 -0.1728
   35MOL0     H 4694   6.843  -0.096   7.990 -0.6463  0.7258 -0.0989
   35MOL0     H 4695   7.136  -0.021   7.926  0.2960 -3.1412 -3.9045
   35MOL0     H 4696   7.080  -0.183   7.911  3.1798 -1.7084  1.9531
   35MOL0     H 4697   7.183  -0.169   8.130  0.7672  0.9295  0.2475
   35MOL0     H 4698   7.015  -0.201   8.154  0.1778  0.3058  0.8817
   35MOL0     H 4699   7.113   0.086   8.133 -2.4256  0.4124  1.1719
   35MOL0     H 4700   6.974   0.030   8.237 -0.8542 -0.4310 -0.3337
   35MOL0     H 4701   7.179   0.111   8.355 -0.1008  0.0799 -0.9503
   35MOL0     H 4702   7.267  -0.022   8.292  0.4888  1.9655  0.5906
   35MOL0     H 4703   7.087  -0.183   8.371  2.9187 -1.1796 -2.5657
   35MOL0     H 4704   7.202  -0.113   8.493 -0.2120 -1.3251 -1.8131
   35MOL0     H 4705   7.222   0.299   7.915  2.0415  0.2727 -0.4436
   35MOL0     H 4706   7.380   0.448   7.825 -1.0304  1.3228 -0.2506
   35MOL0     H 4707   7.568   0.701   7.580  0.8261  1.3605 -2.4965
   35MOL0     H 4708   7.770   0.839   7.509  0.8363 -0.4248 -2.8452
   35MOL0     H 4709   7.519   1.706   7.481 -0.4443 -0.7105  5.5105
   35MOL0     H 4710   7.290   1.721   7.421 -1.6898  0.0257  0.0449
   35MOL0     H 4711   6.933   1.464   7.333  2.9739 -0.7687 -2.6951
   35MOL0     H 4712   6.680   1.461   7.281 -2.2910  1.6488  1.0735
   35MOL0     H 4713   6.564   1.694   6.897  0.2003  2.9074  0.1034
   35MOL0     H 4714   6.510   1.800   7.029 -1.6480 -0.2527 -0.1806
   35MOL0     H 4715   6.312   1.733   6.903 -2.6135 -1.0554  0.0902
   35MOL0     H 4716   6.316   1.671   7.064  2.5135 -1.6168  0.9211
   35MOL0     H 4717   6.386   1.458   7.004  0.9296  1.5896  0.5036
   35MOL0     H 4718   6.402   1.484   6.834  0.7369 -2.9046  1.5096
   35MOL0     H 4719   6.152   1.565   6.845  1.2068 -0.0235 -0.0070
   35MOL0     H 4720   6.190   1.388   6.858  3.4848 -0.3013 -0.1000
   35MOL0     H 4721   6.019   1.411   7.212  1.9825 -2.2080 -0.2522
   35MOL0     H 4722   6.748   1.746   6.968 -0.1403 -0.4079 -0.6907
   35MOL0     H 4723   7.116   1.792   7.001 -0.4513 -0.7160 -1.8664
   35MOL0     H 4724   6.978   1.834   6.908 -0.7870  1.4108  1.1749
   35MOL0     H 4725   6.991   1.904   7.070 -0.1014 -1.0543  1.1450
   36MOL0     O 4726   2.389   6.423   2.566 -0.6354  0.2241  0.4838
   36MOL0     C 4727   2.384   6.330   2.487  0.7858 -1.5879 -0.6721
   36MOL0     O 4728   2.452   6.319   2.366  0.5320 -0.8469  0.8582
   36MOL0     C 4729   2.559   6.401   2.341 -0.5312 -0.1647  1.0853
   36MOL0     C 4730   2.682   6.390   2.410  1.0966 -0.2492 -0.1743
   36MOL0     C 4731   2.787   6.474   2.376  0.9687 -0.4430 -0.4675
   36MOL0     C 4732   2.772   6.581   2.286 -0.0049 -1.2503 -0.0822
   36MOL0     O 4733   2.887   6.665   2.274  0.7469  0.9466 -0.9626
   36MOL0     C 4734   2.891   6.737   2.153  0.5742  0.1865  0.5347
   36MOL0     C 4735   3.023   6.820   2.155  0.1224  0.1226  0.3952
   36MOL0     C 4736   3.032   6.906   2.284  0.1593  0.1375  0.9282
   36MOL0     C 4737   3.127   7.018   2.272  0.4249 -0.8212  0.0246
   36MOL0     C 4738   3.184   7.071   2.404 -0.1961 -0.6943  0.2189
   36MOL0     C 4739   3.291   7.176   2.384 -0.3138 -1.0517 -0.5975
   36MOL0     C 4740   3.401   7.142   2.288 -1.5502 -0.3014 -0.5013
   36MOL0     C 4741   3.515   7.240   2.327 -0.3894 -0.6330 -1.0408
   36MOL0     N 4742   3.625   7.236   2.231 -0.3952  0.0704  0.2040
   36MOL0     C 4743   3.754   7.186   2.244  0.2397 -0.0167  0.1700
   36MOL0     C 4744   3.810   7.195   2.121 -0.5109 -0.0102 -0.2316
   36MOL0     C 4745   3.954   7.161   2.088  0.6372  1.0629  0.6244
   36MOL0     C 4746   4.051   7.282   2.096 -0.5063 -0.3471 -0.0478
   36MOL0     C 4747   4.084   7.303   2.243 -0.3794 -0.2218 -0.0630
   36MOL0     C 4748   4.169   7.425   2.274 -0.1245  0.1611  0.0655
   36MOL0     O 4749   4.302   7.413   2.219 -0.9249 -0.0548 -0.6600
   36MOL0     C 4750   4.387   7.515   2.263 -0.0346 -0.0993 -1.4259
   36MOL0     C 4751   4.350   7.639   2.321 -0.3245 -0.6387 -0.3927
   36MOL0     C 4752   4.440   7.741   2.342 -0.5093  0.2895 -0.1500
   36MOL0     C 4753   4.579   7.712   2.327  0.2215 -0.1048  0.0364
   36MOL0     C 4754   4.678   7.816   2.356  0.5026  0.8667  0.1711
   36MOL0     O 4755   4.800   7.768   2.374  0.3727  0.2833 -1.0591
   36MOL0     C 4756   4.900   7.855   2.420  0.0595 -0.4866 -0.1280
   36MOL0     C 4757   4.904   7.885   2.553 -1.1528 -0.1699 -0.2557
   36MOL0     C 4758   4.996   7.977   2.604  0.1007  0.1748  0.0538
   36MOL0     C 4759   5.073   8.052   2.511  0.2758 -0.2552  0.3625
   36MOL0     O 4760   5.169   8.145   2.543 -0.3724 -0.3713  0.1048
   36MOL0     C 4761   5.232   8.130   2.666  0.0679  0.5530  0.0741
   36MOL0     C 4762   5.385   8.135   2.640  0.7172 -0.8031  0.1114
   36MOL0     C 4763   5.429   8.014   2.567 -0.0914  0.4505 -0.7231
   36MOL0     C 4764   5.436   7.885   2.645 -0.4715  0.6516  0.1208
   36MOL0     C 4765   5.440   7.763   2.559  0.2108 -0.1179 -0.1352
   36MOL0     C 4766   5.454   7.631   2.630 -0.7128 -0.0604 -0.6676
   36MOL0     C 4767   5.523   7.538   2.535 -0.0748  0.3604  0.0662
   36MOL0     C 4768   5.512   7.386   2.573 -0.0437  0.2805 -0.3026
   36MOL0    Cl 4769   5.643   7.343   2.684  0.2692  0.5245 -0.7184
   36MOL0     C 4770   5.061   8.029   2.380 -0.3902  0.9674 -0.3831
   36MOL0     C 4771   4.981   7.923   2.337 -0.8411 -0.5059  0.4238
   36MOL0     O 4772   4.643   7.931   2.366  0.3571 -0.0366 -0.5298
   36MOL0     C 4773   4.614   7.583   2.291 -0.5385 -0.9099 -0.0285
   36MOL0     C 4774   4.525   7.490   2.249 -0.2291  0.2152 -0.6488
   36MOL0     N 4775   3.732   7.261   2.029  0.2652  0.8876 -0.0750
   36MOL0     N 4776   3.621   7.280   2.096  0.2790 -0.6077 -0.5105
   36MOL0     C 4777   2.648   6.591   2.218 -0.6050  0.0475  0.0601
   36MOL0     C 4778   2.546   6.501   2.240  0.1444 -0.6442 -0.0099
   36MOL0     C 4779   2.276   6.235   2.500  0.0350 -0.9111  0.1520
   36MOL0     C 4780   2.285   6.137   2.599  0.0102 -0.7676 -0.4467
   36MOL0     C 4781   2.188   6.036   2.610 -0.4534 -0.7185  0.1771
   36MOL0     C 4782   2.076   6.037   2.529  1.0817 -0.2731 -0.3663
   36MOL0     O 4783   1.987   5.940   2.549 -0.1355 -0.2004 -0.6715
   36MOL0     C 4784   1.856   5.986   2.565 -0.8378  0.2321 -0.2505
   36MOL0     C 4785   1.773   5.861   2.536  1.5839 -0.1715 -0.3390
   36MOL0     C 4786   1.636   5.906   2.484 -0.2454  0.3987 -1.1310
   36MOL0     C 4787   1.542   5.796   2.415 -0.8134  0.5135 -0.3992
   36MOL0     C 4788   1.407   5.798   2.461  0.0529  0.0304 -0.0236
   36MOL0     C 4789   1.288   5.828   2.494 -0.3943 -0.3285 -0.3340
   36MOL0     C 4790   2.074   6.127   2.427 -0.5207 -0.3720 -0.6650
   36MOL0     C 4791   2.164   6.230   2.414 -0.7950 -0.7249  1.0446
   36MOL0     C 4792   2.151   6.333   2.309 -0.9505 -0.1566  0.0194
   36MOL0     H 4793   2.702   6.314   2.485  0.9802 -0.8054 -0.6974
   36MOL0     H 4794   2.881   6.482   2.430  1.1301  1.7055 -0.9630
   36MOL0     H 4795   2.897   6.669   2.068 -1.5751 -0.6748  0.9933
   36MOL0     H 4796   2.813   6.812   2.140  0.2987 -0.4313 -1.8945
   36MOL0     H 4797   3.022   6.895   2.075  0.5097  1.7309  1.8294
   36MOL0     H 4798   3.115   6.764   2.137  0.1281 -0.7041  2.6549
   36MOL0     H 4799   3.077   6.848   2.364  3.4758  4.0282  2.2148
   36MOL0     H 4800   2.932   6.943   2.309  0.2610 -1.0887  3.4341
   36MOL0     H 4801   3.207   6.993   2.202  0.4897  0.4719 -0.3799
   36MOL0     H 4802   3.089   7.098   2.210  0.2387 -1.5719 -0.8537
   36MOL0     H 4803   3.107   7.106   2.474  2.4892 -1.3121  3.7523
   36MOL0     H 4804   3.232   6.984   2.451 -2.1874 -2.1063 -0.2257
   36MOL0     H 4805   3.257   7.264   2.329 -0.0257  0.1983  1.1326
   36MOL0     H 4806   3.328   7.196   2.485 -0.2987 -1.3595 -0.5404
   36MOL0     H 4807   3.356   7.161   2.189 -0.4824  0.5690 -0.8413
   36MOL0     H 4808   3.442   7.041   2.289 -2.2235 -0.6143 -1.8265
   36MOL0     H 4809   3.478   7.343   2.328 -1.4829 -1.0136 -1.1403
   36MOL0     H 4810   3.543   7.231   2.433 -1.5048 -2.1578 -0.8404
   36MOL0     H 4811   3.792   7.156   2.342  0.7838 -6.2877 -1.5326
   36MOL0     H 4812   3.994   7.080   2.150 -2.5161  0.4526  2.0857
   36MOL0     H 4813   3.939   7.122   1.987 -2.3694 -1.2666  1.8049
   36MOL0     H 4814   4.150   7.264   2.053  1.9474  3.5758  3.1475
   36MOL0     H 4815   4.002   7.363   2.042  0.8497  0.2136 -0.4925
   36MOL0     H 4816   4.155   7.223   2.267 -1.6578 -1.1933  0.6042
   36MOL0     H 4817   3.998   7.307   2.311  1.4696  3.1324  2.3576
   36MOL0     H 4818   4.159   7.452   2.379 -1.9853  0.1920 -0.0864
   36MOL0     H 4819   4.133   7.513   2.220 -0.5190 -1.7199 -3.0016
   36MOL0     H 4820   4.250   7.671   2.349  1.1198  2.5239  1.8141
   36MOL0     H 4821   4.400   7.835   2.379  0.7730  1.6095 -1.9463
   36MOL0     H 4822   4.842   7.838   2.630  1.4626 -1.6096  1.1034
   36MOL0     H 4823   4.995   8.016   2.705  3.5280 -2.2100  1.2053
   36MOL0     H 4824   5.202   8.214   2.729 -1.9396  0.2373 -0.4152
   36MOL0     H 4825   5.211   8.038   2.722 -0.6050  0.1964 -0.7532
   36MOL0     H 4826   5.391   8.227   2.582 -0.5480 -0.2351  0.8653
   36MOL0     H 4827   5.432   8.133   2.739  0.9641  1.1220  0.0568
   36MOL0     H 4828   5.378   8.008   2.470  0.7630  3.3512 -1.4507
   36MOL0     H 4829   5.531   8.043   2.542  1.0908  0.1358  3.1734
   36MOL0     H 4830   5.353   7.874   2.715  0.3012 -2.0316  0.7762
   36MOL0     H 4831   5.522   7.884   2.713 -0.2256 -0.6047 -0.1809
   36MOL0     H 4832   5.527   7.776   2.494  0.9020 -2.2572  0.2891
   36MOL0     H 4833   5.343   7.763   2.509  0.4313 -2.3581 -0.6756
   36MOL0     H 4834   5.495   7.645   2.731 -1.6288  1.2700 -0.4477
   36MOL0     H 4835   5.353   7.600   2.656 -0.5358  0.1247  0.2902
   36MOL0     H 4836   5.630   7.562   2.542  0.2509 -1.3114  1.4931
   36MOL0     H 4837   5.482   7.541   2.434 -1.1022  1.1509  0.4827
   36MOL0     H 4838   5.412   7.374   2.617  0.0183  2.1945  0.4894
   36MOL0     H 4839   5.534   7.321   2.488  1.3107 -1.5781  1.3794
   36MOL0     H 4840   5.119   8.089   2.311  0.6674  0.8883  0.4204
   36MOL0     H 4841   4.993   7.883   2.237 -1.2741 -1.7161  0.8385
   36MOL0     H 4842   4.717   7.549   2.288  0.7705  2.6517 -0.6675
   36MOL0     H 4843   4.558   7.389   2.223 -0.0037 -0.1133  0.7994
   36MOL0     H 4844   2.629   6.662   2.138  0.9127  1.0354  0.5410
   36MOL0     H 4845   2.454   6.508   2.182  1.6817 -3.8386 -3.2698
   36MOL0     H 4846   2.363   6.139   2.674 -1.1250  0.3171  0.7619
   36MOL0     H 4847   2.192   5.962   2.690 -0.9953 -4.0654 -2.6501
   36MOL0     H 4848   1.827   6.055   2.485 -2.2542 -0.7169 -0.5874
   36MOL0     H 4849   1.846   6.034   2.663  1.2120 -0.0465  0.1559
   36MOL0     H 4850   1.761   5.803   2.629  1.1804  1.4992  0.6908
   36MOL0     H 4851   1.813   5.799   2.455 -0.7394 -4.1213  1.2228
   36MOL0     H 4852   1.644   5.980   2.404 -1.8952 -1.5627 -3.2755
   36MOL0     H 4853   1.585   5.943   2.573  1.6723 -0.4643  0.4089
   36MOL0     H 4854   1.547   5.810   2.306 -2.3948 -1.1694 -0.7413
   36MOL0     H 4855   1.594   5.700   2.427  1.5874  1.6180 -1.2798
   36MOL0     H 4856   1.186   5.842   2.521  0.3458 -0.7091  3.2363
   36MOL0     H 4857   1.988   6.121   2.362 -0.8273  3.5626 -0.8549
   36MOL0     H 4858   2.046   6.363   2.312 -0.8816  0.5007 -2.2691
   36MOL0     H 4859   2.206   6.424   2.336 -1.8322 -0.0585  1.6578
   36MOL0     H 4860   2.183   6.296   2.211  2.9663 -1.3203  1.5199
   37MOL0     O 4861   6.918   6.097   1.927 -0.1483  0.3806 -0.6335
   37MOL0     C 4862   6.821   6.032   1.896  0.4487 -0.6848  0.5136
   37MOL0     O 4863   6.823   5.919   1.815 -0.0742 -0.2072 -0.8793
   37MOL0     C 4864   6.949   5.863   1.811 -0.4604 -1.0162 -0.2159
   37MOL0     C 4865   7.025   5.875   1.699  0.4359 -0.2619 -0.5862
   37MOL0     C 4866   7.159   5.818   1.707 -0.0888 -0.4098  0.1147
   37MOL0     C 4867   7.205   5.761   1.825  0.5723 -0.1844 -0.5529
   37MOL0     O 4868   7.338   5.715   1.822 -0.3011  0.5825 -0.0883
   37MOL0     C 4869   7.387   5.643   1.933  0.3369  0.4244  0.8849
   37MOL0     C 4870   7.534   5.617   1.908 -0.3056  0.9850  0.2447
   37MOL0     C 4871   7.555   5.518   1.790  0.2165  0.3535 -0.1020
   37MOL0     C 4872   7.705   5.481   1.786  1.1271  0.1817 -0.1153
   37MOL0     C 4873   7.732   5.356   1.697  0.1712  0.5163  0.3551
   37MOL0     C 4874   7.889   5.340   1.675  0.4283  0.6349 -0.6781
   37MOL0     C 4875   7.926   5.229   1.576  0.3447 -0.6975 -0.3512
   37MOL0     C 4876   8.073   5.192   1.573  0.3508  0.5930 -0.1740
   37MOL0     N 4877   8.151   5.289   1.499 -0.3003 -0.1721  0.5690
   37MOL0     C 4878   8.200   5.398   1.559  0.1651  0.0977 -0.1788
   37MOL0     C 4879   8.276   5.464   1.473  0.4087 -0.3323  0.6591
   37MOL0     C 4880   8.350   5.593   1.506  0.0993 -0.1645  0.4930
   37MOL0     C 4881   8.488   5.585   1.427  0.5660  0.0884 -0.7105
   37MOL0     C 4882   8.587   5.701   1.482  0.2697 -0.4913  0.7525
   37MOL0     C 4883   8.543   5.836   1.438  0.0861 -0.6076  0.2876
   37MOL0     O 4884   8.657   5.925   1.463 -0.2375  0.3870 -0.1041
   37MOL0     C 4885   8.671   5.990   1.585 -0.3945  0.2480  0.3210
   37MOL0     C 4886   8.802   6.034   1.621 -0.1609  0.4158 -0.4877
   37MOL0     C 4887   8.829   6.092   1.744  0.0493  1.0508  0.5865
   37MOL0     C 4888   8.724   6.119   1.831  0.2240 -0.2245  0.0288
   37MOL0     C 4889   8.752   6.169   1.971 -0.1295 -0.0250  0.0366
   37MOL0     O 4890   8.880   6.165   2.020  0.1576  0.7154  1.0445
   37MOL0     C 4891   8.893   6.172   2.155  0.3188 -0.3904  0.1380
   37MOL0     C 4892   8.849   6.270   2.242 -0.4558 -0.9213  0.5034
   37MOL0     C 4893   8.911   6.271   2.363 -0.0560  0.2846  0.3273
   37MOL0     C 4894   9.016   6.181   2.405  0.3863 -0.8515  0.1310
   37MOL0     O 4895   9.080   6.201   2.519 -0.0861  0.2924  0.6577
   37MOL0     C 4896   9.133   6.091   2.590 -0.2856  1.2736 -0.0211
   37MOL0     C 4897   9.205   6.140   2.711 -0.3687  0.7337 -0.6380
   37MOL0     C 4898   9.238   6.012   2.804 -0.1762 -0.0054 -0.2105
   37MOL0     C 4899   9.329   5.900   2.737  0.0765 -0.4125 -1.1617
   37MOL0     C 4900   9.399   5.816   2.839  0.0233  0.1970 -0.7939
   37MOL0     C 4901   9.493   5.714   2.788  0.0717 -0.0950 -0.0635
   37MOL0     C 4902   9.621   5.772   2.727 -0.5900 -0.4835  0.5555
   37MOL0     C 4903   9.746   5.709   2.798  0.3055  0.2852  0.0181
   37MOL0    Cl 4904   9.740   5.539   2.800  0.2151  0.2276  0.1342
   37MOL0     C 4905   9.051   6.079   2.322 -0.2658  0.2841 -0.6597
   37MOL0     C 4906   8.988   6.079   2.200 -0.0126 -0.8789  0.2479
   37MOL0     O 4907   8.651   6.201   2.037  0.3088  0.5530  0.4601
   37MOL0     C 4908   8.593   6.075   1.797  0.2181 -0.1485 -0.1002
   37MOL0     C 4909   8.572   6.013   1.674 -0.8348  0.0845  0.2252
   37MOL0     N 4910   8.257   5.397   1.353  0.1113 -1.2481  0.5839
   37MOL0     N 4911   8.180   5.291   1.366 -0.6281 -0.6066  0.1252
   37MOL0     C 4912   7.121   5.747   1.935  1.4456 -0.1952  0.6350
   37MOL0     C 4913   6.994   5.807   1.930 -0.2222  0.0023 -0.2798
   37MOL0     C 4914   6.685   6.087   1.911  0.4764  0.6369 -0.7267
   37MOL0     C 4915   6.583   6.006   1.869  0.0583  0.7061  0.2795
   37MOL0     C 4916   6.446   6.052   1.875 -0.5832  0.7812 -0.7870
   37MOL0     C 4917   6.414   6.172   1.934 -1.1446 -0.6037 -0.1682
   37MOL0     O 4918   6.284   6.201   1.962 -0.9542  0.1676  0.0929
   37MOL0     C 4919   6.200   6.255   1.852 -0.3989  0.0410 -0.2277
   37MOL0     C 4920   6.128   6.376   1.908 -1.1971  0.0223  0.1472
   37MOL0     C 4921   6.043   6.432   1.797  0.8200  0.4125 -0.3405
   37MOL0     C 4922   5.893   6.381   1.809  0.6262  0.3557 -0.3218
   37MOL0     C 4923   5.818   6.453   1.913  0.7640  0.4752 -0.0372
   37MOL0     C 4924   5.758   6.521   1.996 -0.4761  0.5536 -0.4275
   37MOL0     C 4925   6.515   6.240   1.998 -0.2977 -0.6324  1.3976
   37MOL0     C 4926   6.649   6.208   1.981 -0.4953 -0.1838 -0.5380
   37MOL0     C 4927   6.746   6.310   2.037  0.6902 -0.5908 -0.7050
   37MOL0     H 4928   6.984   5.919   1.609  2.4255 -0.5081 -1.6787
   37MOL0     H 4929   7.228   5.830   1.623 -3.6817 -1.6220 -3.3333
   37MOL0     H 4930   7.377   5.706   2.022  0.2812 -0.0553  1.2228
   37MOL0     H 4931   7.338   5.546   1.945  1.6462 -0.2141  1.2570
   37MOL0     H 4932   7.586   5.570   1.993  0.2160  0.2635 -0.4573
   37MOL0     H 4933   7.588   5.705   1.875 -0.9126  1.2630 -0.0136
   37MOL0     H 4934   7.527   5.568   1.697  0.4113 -0.7998 -0.8036
   37MOL0     H 4935   7.498   5.425   1.804  0.4002  0.3458  0.6397
   37MOL0     H 4936   7.762   5.568   1.753 -1.4475  1.7156 -0.7841
   37MOL0     H 4937   7.723   5.451   1.890 -2.0757  0.2729  0.5727
   37MOL0     H 4938   7.681   5.267   1.733  1.9428 -1.5055 -1.7875
   37MOL0     H 4939   7.685   5.371   1.599 -1.0112 -0.7438  0.7075
   37MOL0     H 4940   7.924   5.434   1.630 -1.3732  1.1563 -1.0639
   37MOL0     H 4941   7.943   5.316   1.768  2.6657 -1.4977 -2.3843
   37MOL0     H 4942   7.897   5.254   1.474 -1.5110 -1.3066 -0.0138
   37MOL0     H 4943   7.864   5.146   1.610  0.0057  0.9075  3.5112
   37MOL0     H 4944   8.104   5.179   1.677 -0.2412  0.9771  0.0566
   37MOL0     H 4945   8.094   5.094   1.529 -0.0780 -0.0850  1.0992
   37MOL0     H 4946   8.169   5.436   1.656 -0.6567  1.2965 -0.8831
   37MOL0     H 4947   8.290   5.669   1.455 -1.4461 -0.8251  1.2433
   37MOL0     H 4948   8.357   5.608   1.614 -0.5355  1.6435  0.3186
   37MOL0     H 4949   8.541   5.492   1.448 -0.3242  0.0260  1.5902
   37MOL0     H 4950   8.465   5.595   1.321 -1.2394  1.5774 -0.2295
   37MOL0     H 4951   8.687   5.682   1.444  0.1692 -0.2470  0.3697
   37MOL0     H 4952   8.578   5.694   1.591 -1.5121 -0.8365  0.6228
   37MOL0     H 4953   8.450   5.863   1.489  0.5771 -0.2672  1.0148
   37MOL0     H 4954   8.527   5.839   1.330 -2.9173 -0.4623  0.6585
   37MOL0     H 4955   8.873   6.013   1.542  2.0414  3.7550  0.3921
   37MOL0     H 4956   8.933   6.106   1.773  1.4053 -0.8730 -2.7456
   37MOL0     H 4957   8.784   6.351   2.210  1.3384 -0.2994 -1.8664
   37MOL0     H 4958   8.895   6.357   2.427 -0.1815  0.5080 -0.0031
   37MOL0     H 4959   9.054   6.022   2.621  1.6352 -0.5594  0.9877
   37MOL0     H 4960   9.209   6.039   2.532 -0.1479 -0.6593  1.7814
   37MOL0     H 4961   9.292   6.201   2.684  2.5489 -2.3632  0.8741
   37MOL0     H 4962   9.134   6.196   2.772 -0.2013 -1.5751  1.8975
   37MOL0     H 4963   9.290   6.054   2.891  1.2282  0.0617 -1.0599
   37MOL0     H 4964   9.141   5.972   2.834 -0.4941  1.7911  1.3786
   37MOL0     H 4965   9.400   5.955   2.674 -1.0733  1.4647 -0.8856
   37MOL0     H 4966   9.273   5.834   2.670  1.4962 -3.8050  0.6964
   37MOL0     H 4967   9.318   5.766   2.892  1.2157 -0.4150  0.4946
   37MOL0     H 4968   9.463   5.874   2.906  1.7342 -2.5611  0.1342
   37MOL0     H 4969   9.516   5.648   2.871  0.4978  0.4493  0.2587
   37MOL0     H 4970   9.456   5.648   2.709 -1.1549  0.7169 -0.1970
   37MOL0     H 4971   9.627   5.879   2.749 -0.7213 -0.1264 -1.0867
   37MOL0     H 4972   9.621   5.749   2.620 -3.2542 -0.4590  0.4753
   37MOL0     H 4973   9.837   5.747   2.751 -0.2700  1.8019  0.0596
   37MOL0     H 4974   9.738   5.736   2.904 -1.7483 -0.1172  0.0039
   37MOL0     H 4975   9.110   5.995   2.359 -0.5146  0.1206 -0.6311
   37MOL0     H 4976   9.032   5.999   2.140  1.6438  0.4561 -0.4047
   37MOL0     H 4977   8.506   6.095   1.860  0.6205  1.8161 -0.0959
   37MOL0     H 4978   8.467   5.988   1.661 -1.6764  3.3930 -0.1722
   37MOL0     H 4979   7.158   5.717   2.033 -0.4826 -1.7553  0.9469
   37MOL0     H 4980   6.921   5.820   2.009 -1.1014  4.2051 -1.5225
   37MOL0     H 4981   6.596   5.908   1.824  2.1950  0.8847  0.4265
   37MOL0     H 4982   6.363   5.997   1.834  0.5631 -1.9873  0.3528
   37MOL0     H 4983   6.142   6.169   1.820  0.8713  0.3922 -3.9479
   37MOL0     H 4984   6.264   6.285   1.769  0.7805  1.3521  1.0932
   37MOL0     H 4985   6.202   6.451   1.936 -0.0357 -0.3620 -1.6837
   37MOL0     H 4986   6.063   6.344   1.990 -0.4912 -3.3999 -0.4853
   37MOL0     H 4987   6.062   6.414   1.691  0.1125 -1.1219 -0.2269
   37MOL0     H 4988   6.042   6.541   1.801  0.1821  0.5847 -3.1415
   37MOL0     H 4989   5.845   6.402   1.713 -1.4710  1.1952  0.8351
   37MOL0     H 4990   5.901   6.273   1.828  0.0752  0.3567 -0.0507
   37MOL0     H 4991   5.725   6.593   2.069  1.8737  0.9092  0.3608
   37MOL0     H 4992   6.490   6.332   2.051 -1.9776  0.7995 -1.5859
   37MOL0     H 4993   6.818   6.346   1.963  2.5476 -0.1977  1.1993
   37MOL0     H 4994   6.697   6.394   2.087 -1.6631 -1.6906 -1.0150
   37MOL0     H 4995   6.808   6.264   2.114  0.7417 -1.9203 -1.5132
   38MOL0     O 4996   8.930   5.241   2.508 -0.2156 -0.6704  0.2341
   38MOL0     C 4997   8.929   5.235   2.385 -0.1333 -0.2380 -0.0597
   38MOL0     O 4998   8.829   5.281   2.301 -0.7663  0.1680  0.0923
   38MOL0     C 4999   8.739   5.352   2.361  0.0647 -0.3866 -0.4264
   38MOL0     C 5000   8.776   5.471   2.422  0.3841 -0.6359 -0.1487
   38MOL0     C 5001   8.676   5.555   2.491 -0.0374  0.2235  0.3171
   38MOL0     C 5002   8.539   5.518   2.484 -0.6461 -0.3352 -0.1661
   38MOL0     O 5003   8.434   5.588   2.555 -0.3275 -0.2666  0.4254
   38MOL0     C 5004   8.306   5.531   2.568 -0.2952 -0.0814 -0.4061
   38MOL0     C 5005   8.230   5.617   2.678  0.9447 -0.0071  0.0847
   38MOL0     C 5006   8.115   5.681   2.606  1.3020 -0.3140 -0.3673
   38MOL0     C 5007   8.159   5.796   2.512  0.1976 -0.9960  0.7538
   38MOL0     C 5008   8.044   5.881   2.449  0.1696 -0.5038 -0.0827
   38MOL0     C 5009   8.097   5.977   2.340 -0.0684  0.1011  0.2056
   38MOL0     C 5010   8.200   6.079   2.383 -0.0633 -1.2502  0.3251
   38MOL0     C 5011   8.155   6.163   2.503  0.4715  0.0533  0.6050
   38MOL0     N 5012   8.242   6.278   2.529 -0.5409 -0.1099  0.1117
   38MOL0     C 5013   8.258   6.387   2.437  1.2469 -0.6460 -0.9563
   38MOL0     C 5014   8.326   6.475   2.519 -0.1035 -0.1350  0.4650
   38MOL0     C 5015   8.343   6.617   2.489  0.8550 -0.7654 -1.0361
   38MOL0     C 5016   8.386   6.644   2.348  0.1235  0.6400 -0.0733
   38MOL0     C 5017   8.507   6.561   2.310 -0.0084  0.1912 -0.0265
   38MOL0     C 5018   8.558   6.590   2.173  1.3209  1.3064  0.6573
   38MOL0     O 5019   8.452   6.624   2.084 -0.6610 -0.2817  0.0665
   38MOL0     C 5020   8.388   6.521   2.024 -0.3612  0.3613  0.4296
   38MOL0     C 5021   8.313   6.546   1.905 -0.5362  0.5532 -0.4402
   38MOL0     C 5022   8.244   6.454   1.830  0.7107 -0.1646 -0.5425
   38MOL0     C 5023   8.244   6.323   1.877  1.6481  0.2475 -0.6290
   38MOL0     C 5024   8.162   6.212   1.806  0.5973 -0.5107 -0.4252
   38MOL0     O 5025   8.179   6.080   1.848 -0.3876  0.2354 -0.0570
   38MOL0     C 5026   8.112   5.995   1.764  0.5855 -0.5400 -0.6974
   38MOL0     C 5027   8.002   5.933   1.817  0.2968 -0.0219 -0.3313
   38MOL0     C 5028   7.927   5.854   1.737  0.3788  0.0668  0.1129
   38MOL0     C 5029   7.963   5.828   1.601  0.7404 -0.6114  0.1717
   38MOL0     O 5030   7.882   5.739   1.529 -0.6621 -0.0319 -0.2760
   38MOL0     C 5031   7.884   5.739   1.380 -1.4114  0.6272  0.1406
   38MOL0     C 5032   7.764   5.656   1.328  0.1627 -0.2539 -0.3223
   38MOL0     C 5033   7.747   5.657   1.176  0.2017  0.2176  0.0010
   38MOL0     C 5034   7.786   5.527   1.118  0.0956 -0.0696  0.3166
   38MOL0     C 5035   7.931   5.519   1.072 -1.0459 -0.0646 -0.0909
   38MOL0     C 5036   7.947   5.403   0.979 -0.1771  1.8842  0.2757
   38MOL0     C 5037   7.918   5.261   1.044  0.1011 -0.3521  0.0462
   38MOL0     C 5038   7.964   5.153   0.952 -0.1308  0.2093  0.2941
   38MOL0    Cl 5039   7.854   5.159   0.815  0.1850 -0.2519  0.4881
   38MOL0     C 5040   8.082   5.885   1.551  0.5838 -0.7900 -0.1739
   38MOL0     C 5041   8.157   5.962   1.644  0.4338  0.4042  0.2995
   38MOL0     O 5042   8.069   6.255   1.736 -0.7346  0.0255 -0.0391
   38MOL0     C 5043   8.318   6.295   1.991 -0.0457  1.1102 -0.4734
   38MOL0     C 5044   8.383   6.387   2.067 -0.5503  0.0274 -0.2445
   38MOL0     N 5045   8.366   6.411   2.643 -0.3300 -0.0429 -0.0423
   38MOL0     N 5046   8.317   6.295   2.642  0.4548  0.5857  0.4647
   38MOL0     C 5047   8.509   5.396   2.420  0.1838 -0.4022 -0.8485
   38MOL0     C 5048   8.607   5.315   2.362  0.3648 -0.4039  0.1289
   38MOL0     C 5049   9.048   5.178   2.314 -0.1921  0.1155 -0.5496
   38MOL0     C 5050   9.176   5.160   2.381  0.7551  0.3918 -0.2851
   38MOL0     C 5051   9.282   5.102   2.312 -0.2771  0.1016 -0.6807
   38MOL0     C 5052   9.279   5.056   2.182 -0.4050  0.3906 -0.5508
   38MOL0     O 5053   9.391   5.004   2.119  0.0657  0.2401 -0.7519
   38MOL0     C 5054   9.506   4.953   2.181 -0.4570 -0.1533  0.0570
   38MOL0     C 5055   9.592   4.875   2.088 -0.2098 -1.1122  0.1490
   38MOL0     C 5056   9.609   4.959   1.957 -0.3183  0.4103  0.4290
   38MOL0     C 5057   9.720   5.060   1.980  0.2536  0.1404  0.9389
   38MOL0     C 5058   9.853   4.999   1.987  0.5002  0.1185 -0.8847
   38MOL0     C 5059   9.955   4.938   1.994 -0.0584 -0.4320  0.0324
   38MOL0     C 5060   9.154   5.075   2.123  0.3990  0.1666  0.2418
   38MOL0     C 5061   9.042   5.133   2.180 -0.1046 -0.0260  0.2019
   38MOL0     C 5062   8.924   5.140   2.083 -0.1531 -0.0967 -0.1533
   38MOL0     H 5063   8.880   5.501   2.434  0.6977 -2.1323  1.2766
   38MOL0     H 5064   8.691   5.651   2.539 -0.8888  0.0977  0.8531
   38MOL0     H 5065   8.243   5.539   2.479 -0.7194 -0.8088 -0.1769
   38MOL0     H 5066   8.314   5.428   2.604 -0.8912  0.1680  0.4635
   38MOL0     H 5067   8.293   5.696   2.720  1.8012 -1.3208  1.3819
   38MOL0     H 5068   8.199   5.558   2.765 -2.0355  0.7799 -0.3219
   38MOL0     H 5069   8.043   5.727   2.674  2.9575  0.4437  0.9376
   38MOL0     H 5070   8.057   5.608   2.548 -0.4070  0.9184 -0.2753
   38MOL0     H 5071   8.231   5.858   2.567 -1.0949  0.1252  1.2598
   38MOL0     H 5072   8.213   5.753   2.427  0.2042  2.0262 -0.9157
   38MOL0     H 5073   7.969   5.817   2.402 -2.4673  1.7093  0.8408
   38MOL0     H 5074   7.995   5.931   2.533  2.7658  1.0731  0.6044
   38MOL0     H 5075   8.138   5.925   2.253  0.2981 -1.1151  1.0884
   38MOL0     H 5076   8.010   6.024   2.292 -1.0933 -0.5151  1.4171
   38MOL0     H 5077   8.212   6.148   2.299 -1.6337  0.0239  1.0743
   38MOL0     H 5078   8.294   6.030   2.411  0.2068 -0.2801  1.1750
   38MOL0     H 5079   8.052   6.195   2.485  0.5460 -0.2561 -0.4413
   38MOL0     H 5080   8.158   6.107   2.597  1.9682 -0.5072  0.2600
   38MOL0     H 5081   8.195   6.417   2.355 -1.1812 -1.8353  0.3761
   38MOL0     H 5082   8.243   6.662   2.496  0.5002 -1.6802 -0.1344
   38MOL0     H 5083   8.403   6.660   2.570 -2.3161  2.6818 -0.2260
   38MOL0     H 5084   8.300   6.622   2.285 -1.2090 -0.6244  2.0466
   38MOL0     H 5085   8.404   6.751   2.339 -2.1419  0.9215 -2.2946
   38MOL0     H 5086   8.481   6.455   2.317  1.2854 -0.3423 -2.2155
   38MOL0     H 5087   8.592   6.585   2.375 -0.2210  0.8899  0.0090
   38MOL0     H 5088   8.612   6.511   2.119  0.0211  0.5033  0.4823
   38MOL0     H 5089   8.628   6.673   2.184 -0.6531  2.9651  1.2215
   38MOL0     H 5090   8.318   6.650   1.874 -0.4133  0.3889 -0.9796
   38MOL0     H 5091   8.184   6.498   1.750  2.0992  3.1139  0.0469
   38MOL0     H 5092   7.969   5.960   1.918  2.0976  0.6251  0.1225
   38MOL0     H 5093   7.850   5.799   1.790  0.4834 -1.0845 -0.8714
   38MOL0     H 5094   7.879   5.841   1.341 -0.0147  1.7627  2.6803
   38MOL0     H 5095   7.963   5.673   1.342 -1.2789  0.6995  0.2898
   38MOL0     H 5096   7.754   5.558   1.374 -1.6223  0.1561  0.2566
   38MOL0     H 5097   7.687   5.721   1.372  1.5854  1.2386  0.0975
   38MOL0     H 5098   7.641   5.668   1.150 -0.2250 -2.6672  0.1785
   38MOL0     H 5099   7.798   5.740   1.126 -1.9353  0.5989 -1.6943
   38MOL0     H 5100   7.718   5.510   1.034  0.3966  4.2306 -1.0451
   38MOL0     H 5101   7.766   5.448   1.190  2.4015 -0.9044  0.1406
   38MOL0     H 5102   8.004   5.510   1.152 -3.2563  0.4327  2.1130
   38MOL0     H 5103   7.949   5.610   1.014 -2.2990  1.8545  2.3446
   38MOL0     H 5104   7.894   5.412   0.883 -1.2977 -1.5535  0.4471
   38MOL0     H 5105   8.051   5.399   0.946 -1.4994  1.2744 -4.6671
   38MOL0     H 5106   7.811   5.245   1.058  0.1010 -0.6887 -0.3143
   38MOL0     H 5107   7.982   5.253   1.132  0.2842 -1.5900 -0.1785
   38MOL0     H 5108   8.066   5.170   0.917  0.1982  0.4355  1.3063
   38MOL0     H 5109   7.967   5.051   0.991  1.0635  0.5829  1.2476
   38MOL0     H 5110   8.108   5.875   1.446 -0.7885  0.9587 -0.7175
   38MOL0     H 5111   8.247   6.002   1.598  0.6940  0.0475  0.4914
   38MOL0     H 5112   8.311   6.193   2.028  0.0615  0.6839 -1.5699
   38MOL0     H 5113   8.431   6.343   2.154  2.2670 -1.4871 -2.3854
   38MOL0     H 5114   8.406   5.361   2.413 -0.4794 -2.0487  7.2190
   38MOL0     H 5115   8.591   5.223   2.308  5.0731 -2.0439  1.0466
   38MOL0     H 5116   9.189   5.200   2.481 -4.3477  1.7363  0.0884
   38MOL0     H 5117   9.374   5.092   2.368 -1.7788  3.2165  2.8138
   38MOL0     H 5118   9.477   4.887   2.263 -0.5691 -2.8142 -1.9764
   38MOL0     H 5119   9.554   5.045   2.213 -0.1569 -0.2426 -0.1370
   38MOL0     H 5120   9.552   4.776   2.063  1.4391 -1.2794 -2.1443
   38MOL0     H 5121   9.682   4.860   2.148 -0.4374  0.3832  0.9222
   38MOL0     H 5122   9.523   5.017   1.921 -0.1651  1.2971  1.4571
   38MOL0     H 5123   9.635   4.877   1.889  0.4963 -2.3159  3.7536
   38MOL0     H 5124   9.721   5.143   1.909  1.0477  0.1264  0.9176
   38MOL0     H 5125   9.711   5.101   2.081 -0.9247 -3.7639  2.6127
   38MOL0     H 5126  10.049   4.892   1.973  0.4613 -0.3156  1.9281
   38MOL0     H 5127   9.160   5.047   2.018  2.2613  1.0467  0.0708
   38MOL0     H 5128   8.945   5.088   1.990 -0.4558  2.0322 -1.4787
   38MOL0     H 5129   8.823   5.122   2.121 -0.9272  0.7462 -1.7312
   38MOL0     H 5130   8.905   5.242   2.049  0.4240 -0.9445 -3.3746
   39MOL0     O 5131   8.319   2.405   1.189 -0.8749 -0.0755  0.0143
   39MOL0     C 5132   8.215   2.447   1.152  0.2583  0.2375  0.0523
   39MOL0     O 5133   8.205   2.541   1.048 -0.3009  0.3826  0.3340
   39MOL0     C 5134   8.312   2.618   0.998  0.3059 -0.0034 -0.1920
   39MOL0     C 5135   8.292   2.760   0.989  0.4454  0.3142 -0.0621
   39MOL0     C 5136   8.391   2.847   0.940  1.0911  0.7484  0.0203
   39MOL0     C 5137   8.509   2.797   0.886 -0.3177 -0.6740  0.2059
   39MOL0     O 5138   8.597   2.895   0.849 -0.5471  0.6394 -0.8452
   39MOL0     C 5139   8.680   2.941   0.955 -0.2813 -0.7160  0.2955
   39MOL0     C 5140   8.775   3.051   0.894 -0.2008 -0.4502 -0.0499
   39MOL0     C 5141   8.863   3.000   0.773  0.7466  0.3112  0.5932
   39MOL0     C 5142   8.972   2.916   0.836 -0.4305  0.2199 -0.6668
   39MOL0     C 5143   9.079   2.858   0.730 -0.3432  0.2442 -0.9505
   39MOL0     C 5144   9.211   2.816   0.800  0.2154 -0.2298  0.0156
   39MOL0     C 5145   9.316   2.755   0.701  0.5881 -0.0620  0.5183
   39MOL0     C 5146   9.421   2.677   0.785  0.0382 -0.6954  0.1670
   39MOL0     N 5147   9.547   2.665   0.708  0.3707  0.4632  0.6666
   39MOL0     C 5148   9.619   2.547   0.689 -1.0050  0.2068  0.5064
   39MOL0     C 5149   9.731   2.585   0.623  0.3607 -0.9441  0.0604
   39MOL0     C 5150   9.855   2.512   0.578  0.6665 -0.3269  0.6517
   39MOL0     C 5151   9.984   2.572   0.636 -0.5694  0.5219 -0.5067
   39MOL0     C 5152  10.087   2.468   0.588 -0.1603  0.2992  0.7356
   39MOL0     C 5153  10.233   2.507   0.583 -0.0296 -0.1869  0.8522
   39MOL0     O 5154  10.318   2.394   0.550 -0.9898 -0.2448  0.0761
   39MOL0     C 5155  10.408   2.403   0.447 -0.2658 -0.1921  0.1371
   39MOL0     C 5156  10.445   2.279   0.389 -0.0162 -0.4939 -0.1491
   39MOL0     C 5157  10.533   2.276   0.279  0.3038  0.1350  0.2928
   39MOL0     C 5158  10.602   2.393   0.246  0.2986 -0.6015 -0.6210
   39MOL0     C 5159  10.707   2.386   0.139  0.1685  0.6511 -0.1227
   39MOL0     O 5160  10.728   2.266   0.085 -0.4750  0.7573 -0.0204
   39MOL0     C 5161  10.825   2.263  -0.016  0.8000  0.3202 -0.7203
   39MOL0     C 5162  10.925   2.167   0.004 -0.2919 -0.8217 -0.4762
   39MOL0     C 5163  11.041   2.165  -0.081  0.1002  0.0838 -0.1868
   39MOL0     C 5164  11.061   2.260  -0.176  0.0533  1.1186 -0.6756
   39MOL0     O 5165  11.165   2.258  -0.263  0.2696  0.0096 -0.4642
   39MOL0     C 5166  11.291   2.303  -0.211  0.1327  0.2124 -0.5722
   39MOL0     C 5167  11.398   2.279  -0.314  0.3247  0.3530  0.9486
   39MOL0     C 5168  11.388   2.384  -0.438 -0.1674 -0.9888 -0.3892
   39MOL0     C 5169  11.516   2.384  -0.522 -0.0935 -0.7972  0.5749
   39MOL0     C 5170  11.507   2.481  -0.644 -1.0686 -0.6800  1.0293
   39MOL0     C 5171  11.607   2.448  -0.759 -1.4842  0.3901  0.9409
   39MOL0     C 5172  11.590   2.538  -0.888  0.0162  0.6660  0.1810
   39MOL0     C 5173  11.618   2.691  -0.874 -0.2191  0.4244  0.5728
   39MOL0    Cl 5174  11.776   2.715  -0.791 -0.3518 -0.5413 -0.2059
   39MOL0     C 5175  10.950   2.345  -0.203  0.6158 -0.2593  0.0160
   39MOL0     C 5176  10.834   2.354  -0.125 -0.3600  0.5010 -0.9793
   39MOL0     O 5177  10.782   2.480   0.120  0.8431 -0.1646 -0.0551
   39MOL0     C 5178  10.568   2.515   0.317 -0.4875  0.0431  0.1449
   39MOL0     C 5179  10.468   2.519   0.410 -0.2698 -0.5083  0.3380
   39MOL0     N 5180   9.727   2.724   0.596  0.5284  0.7039  0.8012
   39MOL0     N 5181   9.617   2.768   0.652  0.5220 -0.3053 -0.1133
   39MOL0     C 5182   8.538   2.658   0.908 -0.5415 -0.9067 -0.5865
   39MOL0     C 5183   8.440   2.576   0.967  0.1626  0.1342  1.1171
   39MOL0     C 5184   8.095   2.378   1.218  0.1900 -0.4327 -0.1148
   39MOL0     C 5185   8.100   2.342   1.360  0.1640  0.6981 -0.1279
   39MOL0     C 5186   7.994   2.267   1.416  0.4849  0.5013 -0.6895
   39MOL0     C 5187   7.881   2.222   1.334 -0.4433 -0.7777  0.1226
   39MOL0     O 5188   7.784   2.147   1.393 -0.4673 -0.1663 -0.1291
   39MOL0     C 5189   7.652   2.126   1.340 -0.1022  0.1340  0.3578
   39MOL0     C 5190   7.546   2.042   1.413  0.8271 -0.0432  0.7644
   39MOL0     C 5191   7.538   2.061   1.561 -0.3168 -0.2877 -0.6865
   39MOL0     C 5192   7.413   1.972   1.610 -0.0700  0.3354  0.5937
   39MOL0     C 5193   7.446   1.825   1.634 -0.3347  0.4240 -0.6184
   39MOL0     C 5194   7.488   1.713   1.658 -0.6691  0.4952  0.6085
   39MOL0     C 5195   7.873   2.272   1.201  0.5719 -0.4983  0.4490
   39MOL0     C 5196   7.974   2.344   1.145 -1.0438 -0.1966  0.0209
   39MOL0     C 5197   7.955   2.388   1.005  0.5703  0.2562  0.2945
   39MOL0     H 5198   8.191   2.796   1.003 -1.6860 -4.6375 -0.8227
   39MOL0     H 5199   8.378   2.954   0.933  1.7067  0.9618  1.7447
   39MOL0     H 5200   8.620   2.983   1.036  0.6985 -1.2137  1.2847
   39MOL0     H 5201   8.736   2.861   1.004  0.4833 -0.8620 -0.7746
   39MOL0     H 5202   8.841   3.095   0.969  0.5771 -0.4790 -0.7011
   39MOL0     H 5203   8.703   3.121   0.851  0.2389 -0.6233 -1.1049
   39MOL0     H 5204   8.905   3.082   0.714  1.4426  0.7657  1.6877
   39MOL0     H 5205   8.813   2.930   0.705  0.1321  0.9015  0.4223
   39MOL0     H 5206   9.020   2.984   0.908  0.6376  1.1958 -2.2416
   39MOL0     H 5207   8.929   2.839   0.900  3.2766  0.1615  2.0766
   39MOL0     H 5208   9.040   2.773   0.672 -2.0726 -0.8069  1.5583
   39MOL0     H 5209   9.096   2.942   0.662  0.4658  1.6045  0.8428
   39MOL0     H 5210   9.253   2.905   0.848 -0.2653 -1.1105  2.2152
   39MOL0     H 5211   9.183   2.744   0.878 -2.1249 -0.4195 -0.9280
   39MOL0     H 5212   9.370   2.835   0.648  0.6699 -0.6888 -0.3641
   39MOL0     H 5213   9.273   2.689   0.625 -0.0030  1.4541 -0.5290
   39MOL0     H 5214   9.441   2.731   0.878  0.0811  4.9582 -2.6504
   39MOL0     H 5215   9.380   2.578   0.803  2.7125 -1.5465  2.1723
   39MOL0     H 5216   9.588   2.452   0.730  2.0576 -0.5891  1.1590
   39MOL0     H 5217   9.859   2.404   0.596 -2.2775 -0.7840 -0.8756
   39MOL0     H 5218   9.855   2.527   0.470  3.4802 -0.2153  0.6069
   39MOL0     H 5219  10.018   2.668   0.598  1.2815  0.9751  2.0031
   39MOL0     H 5220   9.974   2.579   0.745 -2.2235  0.7961 -0.6546
   39MOL0     H 5221  10.066   2.445   0.483  1.3809  1.1266  0.2195
   39MOL0     H 5222  10.079   2.374   0.644  2.3310 -0.7782 -0.5793
   39MOL0     H 5223  10.270   2.552   0.676 -0.5120  0.1432  0.8875
   39MOL0     H 5224  10.245   2.592   0.516 -2.0053  1.7087  2.7294
   39MOL0     H 5225  10.400   2.187   0.424 -1.6013 -0.3172 -1.5913
   39MOL0     H 5226  10.559   2.188   0.221  2.4271 -0.8447  2.5445
   39MOL0     H 5227  10.926   2.087   0.077  2.7731 -1.2266 -0.8041
   39MOL0     H 5228  11.118   2.092  -0.058  0.5989 -0.4740 -3.2127
   39MOL0     H 5229  11.284   2.410  -0.191 -0.4165  0.1965 -0.6572
   39MOL0     H 5230  11.323   2.244  -0.124  2.8777  3.2426  0.7046
   39MOL0     H 5231  11.498   2.273  -0.271 -0.4235  1.8243  3.0464
   39MOL0     H 5232  11.367   2.180  -0.348 -1.4378  0.9615  0.6731
   39MOL0     H 5233  11.294   2.355  -0.486 -0.1954 -2.4086  0.4541
   39MOL0     H 5234  11.381   2.483  -0.394  0.2523 -0.3669 -1.6707
   39MOL0     H 5235  11.513   2.278  -0.550 -1.6091 -1.1530  1.9609
   39MOL0     H 5236  11.607   2.404  -0.464  1.6569 -1.3645 -1.7877
   39MOL0     H 5237  11.531   2.584  -0.616 -0.1457 -0.1906 -1.3540
   39MOL0     H 5238  11.404   2.479  -0.679 -0.4124 -0.4188 -1.0156
   39MOL0     H 5239  11.714   2.454  -0.739 -1.7036 -1.3796  2.9315
   39MOL0     H 5240  11.587   2.346  -0.792 -1.2285  1.2301 -2.2220
   39MOL0     H 5241  11.493   2.508  -0.928 -0.1296  1.6353 -0.2323
   39MOL0     H 5242  11.662   2.494  -0.959  0.9484 -0.4508  1.7544
   39MOL0     H 5243  11.610   2.744  -0.969  1.0356 -0.2109  0.0895
   39MOL0     H 5244  11.544   2.733  -0.805 -1.6967 -0.4554 -0.4269
   39MOL0     H 5245  10.971   2.427  -0.270 -0.3564  0.4727  0.5877
   39MOL0     H 5246  10.767   2.434  -0.150 -2.4015 -1.1135 -0.9364
   39MOL0     H 5247  10.632   2.599   0.292 -1.3413  0.5440 -0.4210
   39MOL0     H 5248  10.447   2.616   0.456 -1.3412 -0.8767  0.6647
   39MOL0     H 5249   8.629   2.608   0.879 -1.3094 -1.9655 -1.2451
   39MOL0     H 5250   8.458   2.469   0.968  3.3229  0.4217 -2.0463
   39MOL0     H 5251   8.181   2.354   1.432 -1.1150 -0.3000  1.5548
   39MOL0     H 5252   7.995   2.229   1.517  1.0768  3.7649  0.6480
   39MOL0     H 5253   7.664   2.081   1.241 -0.3708  1.0024 -0.0751
   39MOL0     H 5254   7.619   2.224   1.304  0.6645 -0.3246 -1.7590
   39MOL0     H 5255   7.576   1.937   1.407  1.5168  0.2151 -1.1812
   39MOL0     H 5256   7.452   2.060   1.360  0.5366 -2.4402  0.3277
   39MOL0     H 5257   7.506   2.163   1.584 -1.1552 -0.4287 -1.1734
   39MOL0     H 5258   7.633   2.041   1.611 -0.8139 -0.2846  0.2685
   39MOL0     H 5259   7.373   2.019   1.700  2.5233  1.9262  1.0262
   39MOL0     H 5260   7.329   1.976   1.541 -0.8032 -0.8536  1.3906
   39MOL0     H 5261   7.532   1.615   1.660  0.1463  0.7840 -1.0081
   39MOL0     H 5262   7.796   2.241   1.131  1.4346 -3.8132  0.7908
   39MOL0     H 5263   8.044   2.398   0.942 -0.5312  2.8873 -0.9897
   39MOL0     H 5264   7.884   2.324   0.952  0.9501  1.4266 -1.7697
   39MOL0     H 5265   7.909   2.487   1.008 -0.3837 -0.1942  2.3102
   40MOL0     O 5266   4.271   9.868   0.945  0.3040 -0.0058  0.0632
   40MOL0     C 5267   4.209   9.778   0.902  0.6764  0.5885  0.1235
   40MOL0     O 5268   4.192   9.654   0.957 -0.1956  0.0301  0.0922
   40MOL0     C 5269   4.305   9.599   1.012 -1.2038  1.2277 -0.8918
   40MOL0     C 5270   4.425   9.568   0.944  0.2118 -0.1539 -0.4000
   40MOL0     C 5271   4.532   9.497   1.014 -0.0558  0.5688 -0.1610
   40MOL0     C 5272   4.508   9.456   1.148  0.6759  1.0187  0.3241
   40MOL0     O 5273   4.594   9.390   1.222 -0.1037  0.5125  0.3994
   40MOL0     C 5274   4.730   9.363   1.183  0.8579 -0.7838 -0.2513
   40MOL0     C 5275   4.825   9.341   1.296 -0.5281  0.2851 -1.1622
   40MOL0     C 5276   4.830   9.462   1.393 -0.6596  0.2753  0.5513
   40MOL0     C 5277   4.927   9.428   1.518 -0.6000 -0.4478 -0.4657
   40MOL0     C 5278   5.074   9.424   1.474  1.0394  0.3265  0.3533
   40MOL0     C 5279   5.171   9.432   1.596  0.8669  0.7352 -0.0073
   40MOL0     C 5280   5.325   9.415   1.560 -0.3321 -0.2153  0.2566
   40MOL0     C 5281   5.399   9.544   1.574  0.4497 -0.7238 -0.4173
   40MOL0     N 5282   5.350   9.647   1.478 -0.7823  0.1301 -0.3442
   40MOL0     C 5283   5.253   9.734   1.510 -0.5685 -1.0111 -0.3344
   40MOL0     C 5284   5.254   9.809   1.392  0.7521  0.1738  0.4913
   40MOL0     C 5285   5.170   9.928   1.368 -0.3936 -0.0416 -0.7688
   40MOL0     C 5286   5.033   9.902   1.310 -0.4358 -0.6260  0.5796
   40MOL0     C 5287   4.936   9.830   1.403  0.4229 -1.1170 -0.2006
   40MOL0     C 5288   4.797   9.839   1.342  0.3578 -0.0342 -1.2162
   40MOL0     O 5289   4.750   9.972   1.333 -0.5138  0.3915 -0.2536
   40MOL0     C 5290   4.616   9.981   1.303  0.8296 -0.0836 -0.0825
   40MOL0     C 5291   4.532   9.884   1.246  0.4678  0.8855  0.8510
   40MOL0     C 5292   4.397   9.902   1.221 -0.1646 -0.1477  0.4192
   40MOL0     C 5293   4.350  10.029   1.248  0.5894 -0.0944  1.2142
   40MOL0     C 5294   4.206  10.051   1.227 -0.0045 -0.9610  0.0009
   40MOL0     O 5295   4.114   9.948   1.237 -0.4091  0.6700 -0.2602
   40MOL0     C 5296   3.979   9.977   1.226  0.2072 -0.4889  0.1231
   40MOL0     C 5297   3.912   9.977   1.098  0.4394  0.0740 -0.1661
   40MOL0     C 5298   3.774  10.010   1.092 -0.6963 -0.4001  0.4797
   40MOL0     C 5299   3.703  10.049   1.203  0.1472  0.2470 -0.0434
   40MOL0     O 5300   3.562  10.060   1.187  0.2238  0.2272 -0.4433
   40MOL0     C 5301   3.486  10.122   1.294  0.5972  0.4474 -1.0846
   40MOL0     C 5302   3.337  10.108   1.272 -0.0344 -0.0262  0.0187
   40MOL0     C 5303   3.256  10.243   1.296  0.2553  0.3170 -0.7936
   40MOL0     C 5304   3.106  10.199   1.307  0.9618  0.0278 -0.1123
   40MOL0     C 5305   2.999  10.315   1.319  0.8797  0.4114 -0.2105
   40MOL0     C 5306   3.036  10.425   1.422  0.4619  0.3853 -0.0206
   40MOL0     C 5307   2.914  10.509   1.471  0.3798 -0.4192  0.7305
   40MOL0     C 5308   2.929  10.653   1.426 -0.1214 -0.0705 -0.7685
   40MOL0    Cl 5309   2.937  10.652   1.252  0.0826 -0.3682 -0.6039
   40MOL0     C 5310   3.774  10.060   1.325  1.2820  0.6589 -0.5797
   40MOL0     C 5311   3.905  10.027   1.336 -0.1553 -0.4527 -0.5098
   40MOL0     O 5312   4.183  10.170   1.196  0.1151  0.0577 -0.2707
   40MOL0     C 5313   4.435  10.130   1.299  1.2867 -0.1257  0.1269
   40MOL0     C 5314   4.568  10.101   1.319 -0.0281 -0.1002  0.4408
   40MOL0     N 5315   5.329   9.748   1.297 -0.7755 -0.1741  0.5696
   40MOL0     N 5316   5.398   9.655   1.353  0.1425  0.1946  0.3781
   40MOL0     C 5317   4.389   9.485   1.208  0.2896 -0.0132  0.6949
   40MOL0     C 5318   4.290   9.561   1.147  0.2895  0.6684 -0.3031
   40MOL0     C 5319   4.117   9.799   0.784 -1.0056 -1.0292  0.1735
   40MOL0     C 5320   4.072   9.931   0.762  0.0711 -0.5993  0.2506
   40MOL0     C 5321   3.993   9.971   0.658 -0.9252  0.2291  0.4266
   40MOL0     C 5322   3.955   9.878   0.560  0.8067  0.2087 -0.1909
   40MOL0     O 5323   3.876   9.923   0.463 -0.0532 -0.8787  0.1929
   40MOL0     C 5324   3.820   9.823   0.365  0.4725 -0.3208  0.7893
   40MOL0     C 5325   3.748   9.897   0.252  0.3556  0.2213  1.1191
   40MOL0     C 5326   3.758   9.814   0.125  0.3679  0.6063  0.0425
   40MOL0     C 5327   3.659   9.697   0.112  0.0865 -0.2351  0.4040
   40MOL0     C 5328   3.521   9.726   0.137  1.0180 -1.2862  0.4196
   40MOL0     C 5329   3.408   9.756   0.155 -0.4763  1.2707 -0.1425
   40MOL0     C 5330   3.988   9.743   0.583  0.8935 -0.9444 -0.3395
   40MOL0     C 5331   4.078   9.700   0.683 -0.2198  0.3833  0.1508
   40MOL0     C 5332   4.112   9.547   0.677  1.1017 -0.0162 -0.0461
   40MOL0     H 5333   4.446   9.602   0.843 -2.4773 -0.5534 -1.1588
   40MOL0     H 5334   4.617   9.466   0.954  0.0303  1.3943 -0.4850
   40MOL0     H 5335   4.734   9.279   1.113  1.3754 -1.7188  0.8498
   40MOL0     H 5336   4.768   9.455   1.139 -0.9515 -0.9506 -2.2957
   40MOL0     H 5337   4.917   9.328   1.238 -1.2570  1.7015 -2.7112
   40MOL0     H 5338   4.796   9.250   1.348 -2.8828  2.4872  1.7280
   40MOL0     H 5339   4.726   9.482   1.419 -0.5231  2.3047 -0.3055
   40MOL0     H 5340   4.865   9.553   1.344  3.3456 -1.7767 -0.8341
   40MOL0     H 5341   4.922   9.502   1.598  3.4393 -1.7633  1.2784
   40MOL0     H 5342   4.899   9.333   1.566  3.9357 -2.7203 -1.7569
   40MOL0     H 5343   5.091   9.324   1.433 -1.5026 -0.1328  0.2542
   40MOL0     H 5344   5.103   9.502   1.403  0.8678 -0.2606 -0.3754
   40MOL0     H 5345   5.160   9.521   1.658 -0.4013  2.4970 -2.5999
   40MOL0     H 5346   5.146   9.351   1.666 -0.3709  0.7081 -0.4543
   40MOL0     H 5347   5.351   9.373   1.463  1.8873  0.6810  0.4195
   40MOL0     H 5348   5.361   9.337   1.629  0.0344  0.5164  0.9041
   40MOL0     H 5349   5.385   9.585   1.675  2.7529 -0.2643 -0.2237
   40MOL0     H 5350   5.506   9.531   1.560  0.4364 -1.4175  0.0965
   40MOL0     H 5351   5.199   9.748   1.603 -0.1950  2.4567 -0.4994
   40MOL0     H 5352   5.148   9.976   1.463 -0.8777  0.7003 -1.2474
   40MOL0     H 5353   5.233  10.000   1.314  1.1846 -0.7389  0.0569
   40MOL0     H 5354   5.001  10.006   1.295 -0.3965 -0.8186 -1.0024
   40MOL0     H 5355   5.045   9.850   1.215  2.0762 -0.7678  0.9099
   40MOL0     H 5356   4.923   9.869   1.504 -4.2455 -2.0208 -0.2447
   40MOL0     H 5357   4.969   9.729   1.429  2.8607  0.2600  2.5973
   40MOL0     H 5358   4.724   9.779   1.398  1.1352 -0.6158 -0.7986
   40MOL0     H 5359   4.805   9.795   1.242  1.3400 -2.1134 -0.3028
   40MOL0     H 5360   4.574   9.788   1.218  2.1272  1.9895 -0.6311
   40MOL0     H 5361   4.336   9.819   1.187 -0.3973 -0.8540  2.4260
   40MOL0     H 5362   3.965   9.951   1.007 -3.2598 -0.9110 -2.2582
   40MOL0     H 5363   3.723  10.006   0.996  0.2085 -0.5998  0.0004
   40MOL0     H 5364   3.520  10.072   1.384  0.3570  2.6712  0.3125
   40MOL0     H 5365   3.514  10.228   1.305 -1.8977  1.0080  0.7192
   40MOL0     H 5366   3.308  10.076   1.171  0.5617  2.9831 -1.2477
   40MOL0     H 5367   3.293  10.039   1.344 -4.8330  1.5012 -1.0514
   40MOL0     H 5368   3.284  10.292   1.390 -2.7809  0.8362 -0.0590
   40MOL0     H 5369   3.272  10.326   1.227 -1.9263  2.5687  1.2131
   40MOL0     H 5370   3.091  10.138   1.396 -2.8065  0.3329 -0.3667
   40MOL0     H 5371   3.074  10.137   1.223  2.5123 -2.7195  1.2203
   40MOL0     H 5372   2.899  10.276   1.340 -0.8486  3.7936 -1.4981
   40MOL0     H 5373   2.986  10.369   1.225  0.1828  1.8284  0.6657
   40MOL0     H 5374   3.073  10.366   1.506 -1.9635 -2.1523 -0.5579
   40MOL0     H 5375   3.117  10.483   1.378 -1.2468  1.2960 -2.1962
   40MOL0     H 5376   2.895  10.496   1.578  2.8208 -0.4167  1.2338
   40MOL0     H 5377   2.821  10.470   1.429  0.7783 -1.1505  0.5151
   40MOL0     H 5378   2.845  10.717   1.456  0.6117  1.1827 -1.3119
   40MOL0     H 5379   3.020  10.700   1.465 -0.5051 -0.4893  0.6882
   40MOL0     H 5380   3.726  10.085   1.419  0.5439  1.3238 -1.1122
   40MOL0     H 5381   3.957  10.035   1.431  2.7200 -0.7534 -1.9454
   40MOL0     H 5382   4.406  10.231   1.325 -0.4168 -0.7418  0.7895
   40MOL0     H 5383   4.631  10.179   1.361  1.6133  0.2268 -2.3965
   40MOL0     H 5384   4.374   9.443   1.307  1.6206 -1.5642  0.2697
   40MOL0     H 5385   4.194   9.559   1.198  1.8993  0.8380  3.0425
   40MOL0     H 5386   4.098  10.010   0.832 -1.3134 -1.2823  1.5825
   40MOL0     H 5387   3.975  10.078   0.656  2.7425  1.1833  3.9111
   40MOL0     H 5388   3.755   9.753   0.417 -3.1462  2.3035  0.1530
   40MOL0     H 5389   3.898   9.759   0.321 -0.9282 -0.8587 -1.0637
   40MOL0     H 5390   3.797   9.994   0.235  1.4079 -0.5329 -0.3670
   40MOL0     H 5391   3.640   9.912   0.262 -0.6714 -1.2693 -4.2477
   40MOL0     H 5392   3.860   9.776   0.115 -0.3401 -1.3702 -0.1623
   40MOL0     H 5393   3.739   9.882   0.041 -0.7974  1.0902  0.6723
   40MOL0     H 5394   3.670   9.660   0.010 -0.4767 -1.0093  0.6177
   40MOL0     H 5395   3.697   9.628   0.187  1.2184  1.3833  1.3832
   40MOL0     H 5396   3.310   9.797   0.174 -0.7186  0.4111  0.5117
   40MOL0     H 5397   3.947   9.670   0.513  1.9084 -0.0349 -1.9557
   40MOL0     H 5398   4.023   9.492   0.708  0.5789 -0.2775 -1.9282
   40MOL0     H 5399   4.128   9.521   0.572  0.4732 -2.3069  0.3826
   40MOL0     H 5400   4.194   9.531   0.748  3.0094  2.9810 -1.3267
   41MOL0     O 5401   9.617  10.172   2.190  0.0627 -0.6107 -0.8159
   41MOL0     C 5402   9.545  10.259   2.130 -0.7585  0.9395 -0.5909
   41MOL0     O 5403   9.576  10.386   2.130 -0.2435  0.2523  0.2591
   41MOL0     C 5404   9.654  10.444   2.228  0.2613  0.0216 -0.0110
   41MOL0     C 5405   9.592  10.522   2.318  0.1715 -0.6662  0.0095
   41MOL0     C 5406   9.666  10.563   2.439  0.0721  0.9040  0.4465
   41MOL0     C 5407   9.800  10.525   2.457 -0.4245  0.0838  0.3531
   41MOL0     O 5408   9.878  10.547   2.567  0.7452  0.4692  0.2822
   41MOL0     C 5409   9.827  10.636   2.659  0.0164 -0.5990 -0.0561
   41MOL0     C 5410   9.904  10.650   2.785  0.0325  0.1356  0.2032
   41MOL0     C 5411  10.061  10.652   2.766  0.0721 -0.1258 -0.2007
   41MOL0     C 5412  10.111  10.773   2.694  1.0907  0.0146  0.6147
   41MOL0     C 5413  10.256  10.769   2.655 -0.2839  0.1618 -0.0802
   41MOL0     C 5414  10.297  10.880   2.553 -0.2400  0.5170  0.3238
   41MOL0     C 5415  10.446  10.909   2.561 -0.5932  0.0986  0.2312
   41MOL0     C 5416  10.492  11.005   2.456  0.3497 -0.0226 -0.1280
   41MOL0     N 5417  10.623  11.060   2.491 -0.3799  0.1014  0.6811
   41MOL0     C 5418  10.744  10.991   2.514 -0.5173  0.0902  0.3750
   41MOL0     C 5419  10.832  11.086   2.542  0.5678 -0.4053  0.2238
   41MOL0     C 5420  10.973  11.048   2.570 -0.2645 -0.3572  0.3818
   41MOL0     C 5421  10.999  11.083   2.716 -0.3993  0.7686 -0.2686
   41MOL0     C 5422  11.126  11.019   2.758 -0.4340  0.8327 -0.6008
   41MOL0     C 5423  11.152  11.067   2.904 -0.0735  0.0818 -0.5430
   41MOL0     O 5424  11.214  11.195   2.913  0.0830 -0.2075  0.3485
   41MOL0     C 5425  11.258  11.242   3.029 -0.3003 -0.6402 -0.7084
   41MOL0     C 5426  11.256  11.177   3.152 -0.1533  0.7843  0.8497
   41MOL0     C 5427  11.306  11.234   3.266  0.2806  0.0939 -0.7805
   41MOL0     C 5428  11.370  11.359   3.266 -0.2897 -0.1353  0.7789
   41MOL0     C 5429  11.425  11.415   3.393 -0.1116 -0.3307 -0.1540
   41MOL0     O 5430  11.488  11.539   3.384  0.1559  0.6041  0.0505
   41MOL0     C 5431  11.585  11.552   3.480 -0.6215 -0.6114  0.4397
   41MOL0     C 5432  11.564  11.647   3.574 -0.2800  0.3919 -0.0743
   41MOL0     C 5433  11.659  11.671   3.678  0.0398 -0.1997  0.4477
   41MOL0     C 5434  11.789  11.605   3.678 -0.6157 -1.0991 -0.4929
   41MOL0     O 5435  11.886  11.630   3.776 -0.9839  0.2589 -0.1404
   41MOL0     C 5436  11.968  11.750   3.750  0.0195  0.0789 -0.2862
   41MOL0     C 5437  12.069  11.785   3.858 -0.2182 -0.1274  0.0930
   41MOL0     C 5438  12.168  11.902   3.822 -0.3445  0.9015  0.3159
   41MOL0     C 5439  12.241  11.956   3.947 -0.0562 -0.2563 -0.8361
   41MOL0     C 5440  12.359  12.037   3.909  0.5896 -0.4099 -0.2043
   41MOL0     C 5441  12.401  12.145   4.009  0.2308  0.2021 -0.0750
   41MOL0     C 5442  12.467  12.088   4.147  0.5445 -0.6541  0.8890
   41MOL0     C 5443  12.506  12.209   4.230 -0.3647  0.2115 -0.9108
   41MOL0    Cl 5444  12.672  12.241   4.204 -0.0529  0.0194  0.1896
   41MOL0     C 5445  11.805  11.510   3.577 -0.1627  0.1268  0.4126
   41MOL0     C 5446  11.712  11.487   3.478 -0.0888  0.4015 -0.3411
   41MOL0     O 5447  11.433  11.341   3.488 -0.3894 -0.3277 -0.3449
   41MOL0     C 5448  11.381  11.425   3.144  0.0189 -1.1543 -0.6955
   41MOL0     C 5449  11.325  11.366   3.028  0.5041 -0.3106  0.0660
   41MOL0     N 5450  10.773  11.214   2.528 -0.2910  0.6401  1.1059
   41MOL0     N 5451  10.653  11.191   2.499  1.0901  0.3710  0.2480
   41MOL0     C 5452   9.865  10.451   2.351  0.4730 -0.5982  0.5666
   41MOL0     C 5453   9.789  10.406   2.238  0.8275 -0.2408  0.8864
   41MOL0     C 5454   9.427  10.218   2.049  0.0039 -0.5123 -0.2591
   41MOL0     C 5455   9.414  10.081   2.024 -0.6331  0.3510  0.5710
   41MOL0     C 5456   9.308  10.023   1.959  0.0015 -0.3489  0.3063
   41MOL0     C 5457   9.198  10.106   1.911 -0.2020  0.0196  0.0972
   41MOL0     O 5458   9.096  10.072   1.830 -0.3605  0.0397  1.0973
   41MOL0     C 5459   9.102   9.936   1.773 -0.4048  0.6149 -0.0642
   41MOL0     C 5460   9.043   9.846   1.883  0.2525 -0.7901  0.2662
   41MOL0     C 5461   9.013   9.699   1.837 -0.3379 -0.4899  0.3984
   41MOL0     C 5462   9.134   9.608   1.805  1.3669 -0.1443 -0.1195
   41MOL0     C 5463   9.241   9.631   1.900  0.0971 -0.4366 -0.1315
   41MOL0     C 5464   9.335   9.648   1.976 -0.7561 -0.0274  1.4891
   41MOL0     C 5465   9.211  10.248   1.945  0.2569  0.1421 -0.0634
   41MOL0     C 5466   9.322  10.303   2.012  0.2111 -0.1585 -0.5066
   41MOL0     C 5467   9.319  10.451   2.026  0.2330  0.0543 -0.7184
   41MOL0     H 5468   9.487  10.548   2.314  0.4937  0.5191 -1.8391
   41MOL0     H 5469   9.611  10.615   2.516 -1.5566 -0.7413  0.4762
   41MOL0     H 5470   9.824  10.730   2.604 -0.3858 -1.3783 -1.4413
   41MOL0     H 5471   9.732  10.599   2.699  0.1900  0.2202  1.1499
   41MOL0     H 5472   9.874  10.573   2.856  2.5427  1.1809  2.5692
   41MOL0     H 5473   9.854  10.735   2.832 -0.7956  0.0175 -0.4323
   41MOL0     H 5474  10.100  10.563   2.715  2.5630  0.3924  0.6293
   41MOL0     H 5475  10.099  10.652   2.868 -0.1426 -0.7825 -0.1196
   41MOL0     H 5476  10.052  10.788   2.604  1.1294  1.9415  0.8742
   41MOL0     H 5477  10.095  10.866   2.748  0.7970 -1.2477  2.8419
   41MOL0     H 5478  10.308  10.783   2.750  0.4904 -2.1159 -0.1067
   41MOL0     H 5479  10.286  10.671   2.618 -1.0639 -0.4042  0.7367
   41MOL0     H 5480  10.267  10.845   2.453  2.7066  0.6039 -0.6819
   41MOL0     H 5481  10.235  10.968   2.569 -0.3604  0.5895 -0.4622
   41MOL0     H 5482  10.506  10.817   2.559 -1.3894 -0.5963  3.0964
   41MOL0     H 5483  10.461  10.949   2.662  1.0015  0.5129 -0.1352
   41MOL0     H 5484  10.497  10.949   2.362 -2.1251  1.7388 -1.4107
   41MOL0     H 5485  10.421  11.086   2.437  0.8742  0.6415  0.6985
   41MOL0     H 5486  10.777  10.888   2.526  1.2044  0.0828 -3.3105
   41MOL0     H 5487  10.986  10.944   2.538 -1.7313 -0.1235 -1.1930
   41MOL0     H 5488  11.045  11.091   2.500  0.3575 -0.4766  0.9488
   41MOL0     H 5489  10.988  11.190   2.737 -0.3432  0.3696  2.1470
   41MOL0     H 5490  10.919  11.042   2.779  0.9170 -0.8034  0.4711
   41MOL0     H 5491  11.201  11.051   2.685 -1.2068  1.7570 -1.0140
   41MOL0     H 5492  11.114  10.910   2.753  0.1424  0.8077 -2.3002
   41MOL0     H 5493  11.222  11.001   2.954  0.1761  2.9361  3.3175
   41MOL0     H 5494  11.055  11.067   2.955 -0.1970  0.4936 -0.7710
   41MOL0     H 5495  11.206  11.081   3.164 -2.1895  1.7863  0.8454
   41MOL0     H 5496  11.303  11.171   3.354 -1.2373  0.8282 -0.2866
   41MOL0     H 5497  11.470  11.702   3.577 -0.8153 -0.4052 -1.4948
   41MOL0     H 5498  11.630  11.755   3.739  1.5137  1.8602 -1.5312
   41MOL0     H 5499  12.025  11.741   3.658  1.7857 -0.2168  0.8013
   41MOL0     H 5500  11.896  11.832   3.735  2.2844  1.6046 -4.5311
   41MOL0     H 5501  12.011  11.812   3.947  0.2070 -0.2795  0.4204
   41MOL0     H 5502  12.129  11.697   3.883 -1.2159 -0.8237  0.0867
   41MOL0     H 5503  12.240  11.862   3.750  2.9034  0.6570  3.4363
   41MOL0     H 5504  12.108  11.985   3.783  0.2476  1.0711 -0.2390
   41MOL0     H 5505  12.277  11.867   3.998 -1.0773 -0.3858 -0.3197
   41MOL0     H 5506  12.182  12.027   4.007  4.0057  2.6510  0.1665
   41MOL0     H 5507  12.326  12.084   3.816 -0.8516  1.1335  1.0178
   41MOL0     H 5508  12.443  11.969   3.889  1.9671  0.8026  1.1841
   41MOL0     H 5509  12.467  12.212   3.953 -1.9780  1.7106 -0.9962
   41MOL0     H 5510  12.308  12.202   4.021  1.3210  1.8393  1.1405
   41MOL0     H 5511  12.551  12.026   4.116  0.6071 -0.2890  0.3132
   41MOL0     H 5512  12.396  12.027   4.203  1.8580 -2.3067  0.8130
   41MOL0     H 5513  12.441  12.292   4.200 -0.0790  0.1449 -1.7493
   41MOL0     H 5514  12.504  12.187   4.337 -0.4271  1.8344 -0.5627
   41MOL0     H 5515  11.901  11.465   3.557 -1.6267 -2.1714 -2.1170
   41MOL0     H 5516  11.733  11.425   3.391  0.9182  3.2121 -2.2491
   41MOL0     H 5517  11.417  11.527   3.138 -2.2003 -0.2339  0.4515
   41MOL0     H 5518  11.338  11.414   2.931 -2.2363 -0.2523 -0.3493
   41MOL0     H 5519   9.971  10.427   2.356  1.0683  1.9048  1.2335
   41MOL0     H 5520   9.834  10.349   2.157 -1.3887  1.1935 -1.5000
   41MOL0     H 5521   9.502  10.027   2.055  2.4199  4.1119 -0.7756
   41MOL0     H 5522   9.303   9.915   1.961 -0.3482 -0.3442  2.9553
   41MOL0     H 5523   9.203   9.911   1.738 -0.0745  1.8830 -0.0352
   41MOL0     H 5524   9.032   9.933   1.688 -2.8068 -1.1056  1.8084
   41MOL0     H 5525   8.950   9.895   1.911  2.0831  3.1817  0.1217
   41MOL0     H 5526   9.121   9.836   1.960  2.5415 -0.9803 -1.9227
   41MOL0     H 5527   8.945   9.683   1.753  2.1452 -3.4019 -1.2930
   41MOL0     H 5528   8.972   9.648   1.925 -0.1024 -0.5569  0.4708
   41MOL0     H 5529   9.104   9.503   1.798 -2.6441  0.7938  0.3556
   41MOL0     H 5530   9.167   9.629   1.703  1.9804  0.0223  0.1083
   41MOL0     H 5531   9.412   9.683   2.042 -0.3427  1.4148  0.2962
   41MOL0     H 5532   9.133  10.312   1.904  0.6843  3.7928  4.1451
   41MOL0     H 5533   9.217  10.479   2.052  0.7853  1.6762 -0.1940
   41MOL0     H 5534   9.373  10.496   2.110 -1.2556  1.0350 -0.2696
   41MOL0     H 5535   9.354  10.492   1.930  1.9632  1.4308  0.4244
   42MOL0     O 5536   3.606  10.323   3.713 -0.3436  0.4605  0.4128
   42MOL0     C 5537   3.579  10.233   3.631 -0.0855 -0.3356 -0.3895
   42MOL0     O 5538   3.649  10.197   3.518  0.0777  0.3176 -0.5844
   42MOL0     C 5539   3.733  10.281   3.449  0.8174 -0.4232  0.2010
   42MOL0     C 5540   3.855  10.232   3.397  0.2483 -0.3643  0.4003
   42MOL0     C 5541   3.952  10.316   3.331  0.8571  1.0357 -0.7203
   42MOL0     C 5542   3.918  10.452   3.310 -1.1689  0.3998 -0.2130
   42MOL0     O 5543   4.011  10.522   3.246 -0.2557 -0.1038  0.4189
   42MOL0     C 5544   4.029  10.660   3.269 -0.1758  0.0221 -0.5378
   42MOL0     C 5545   4.170  10.688   3.309 -0.6187  0.5338 -0.3969
   42MOL0     C 5546   4.208  10.834   3.304 -0.4713 -0.6808  0.5483
   42MOL0     C 5547   4.339  10.861   3.380 -0.0938  0.4742  0.1323
   42MOL0     C 5548   4.464  10.827   3.297  0.5916 -0.5846 -0.3150
   42MOL0     C 5549   4.597  10.883   3.355 -1.1000  0.5365  0.2178
   42MOL0     C 5550   4.716  10.868   3.255  0.4875  0.6925  0.5565
   42MOL0     C 5551   4.762  10.723   3.218  0.5773 -1.2226  0.1662
   42MOL0     N 5552   4.813  10.641   3.328 -0.0991  0.0647 -0.1873
   42MOL0     C 5553   4.838  10.501   3.317 -0.5217  0.9944 -1.2753
   42MOL0     C 5554   4.860  10.463   3.446 -0.3832 -0.6032 -0.1079
   42MOL0     C 5555   4.882  10.324   3.490  0.6831  1.2660  0.0870
   42MOL0     C 5556   4.959  10.311   3.630 -0.1631  0.1191 -0.4821
   42MOL0     C 5557   5.106  10.357   3.604  0.3040  0.1940 -0.2080
   42MOL0     C 5558   5.204  10.326   3.714 -0.4725 -0.5354 -0.5038
   42MOL0     O 5559   5.199  10.190   3.766  0.3237 -0.1254 -0.2186
   42MOL0     C 5560   5.302  10.165   3.856  0.8985 -0.8674  0.0393
   42MOL0     C 5561   5.348  10.035   3.845 -0.3463 -0.5889 -0.1372
   42MOL0     C 5562   5.449   9.987   3.929  0.3379 -0.5670 -1.4774
   42MOL0     C 5563   5.501  10.077   4.021 -0.5880 -0.1003 -0.0589
   42MOL0     C 5564   5.629  10.045   4.098 -0.1764 -0.1123 -0.1470
   42MOL0     O 5565   5.676  10.140   4.184 -0.2210  0.3976 -0.3057
   42MOL0     C 5566   5.804  10.138   4.251 -0.9898  0.3684 -1.1686
   42MOL0     C 5567   5.861  10.022   4.294 -0.6671  0.2276 -0.8348
   42MOL0     C 5568   5.970  10.024   4.380 -0.3654 -0.2908  0.4926
   42MOL0     C 5569   6.035  10.147   4.420 -0.2231 -1.2747  0.0967
   42MOL0     O 5570   6.155  10.147   4.478  0.1747 -0.2899 -0.1665
   42MOL0     C 5571   6.228  10.270   4.490 -0.1960  0.2734 -0.3818
   42MOL0     C 5572   6.367  10.238   4.561  0.0660  0.1285  0.1423
   42MOL0     C 5573   6.476  10.199   4.449  0.3622 -0.0254 -0.3633
   42MOL0     C 5574   6.617  10.180   4.517  0.4271 -0.5571  0.3482
   42MOL0     C 5575   6.661  10.313   4.583 -0.3826 -0.1176 -0.1401
   42MOL0     C 5576   6.812  10.327   4.551 -1.0947 -0.8307 -0.9373
   42MOL0     C 5577   6.910  10.231   4.629  0.1466 -0.7446 -0.0168
   42MOL0     C 5578   6.944  10.284   4.762 -0.2594  0.3493  0.9739
   42MOL0    Cl 5579   7.015  10.169   4.877  0.1270 -0.3678 -0.3485
   42MOL0     C 5580   5.975  10.265   4.382 -0.0133  0.0609 -0.9988
   42MOL0     C 5581   5.861  10.260   4.306 -0.0297  0.6175 -0.0700
   42MOL0     O 5582   5.673   9.936   4.084  0.0150 -0.4863 -0.5089
   42MOL0     C 5583   5.446  10.202   4.042  0.5054 -0.1142  0.2423
   42MOL0     C 5584   5.348  10.249   3.955 -0.5765  0.4634 -0.4680
   42MOL0     N 5585   4.846  10.575   3.531 -0.5458  0.1748  0.4211
   42MOL0     N 5586   4.827  10.677   3.461 -0.3893 -0.5623 -0.1419
   42MOL0     C 5587   3.788  10.495   3.352 -0.0425  0.2347 -0.0157
   42MOL0     C 5588   3.702  10.413   3.420 -0.3399  0.2613 -0.3832
   42MOL0     C 5589   3.470  10.151   3.682  0.6909 -0.4703 -0.3183
   42MOL0     C 5590   3.401  10.195   3.804 -0.0860 -0.5091 -0.0055
   42MOL0     C 5591   3.308  10.123   3.867 -0.8835  0.0085  0.2569
   42MOL0     C 5592   3.270  10.001   3.815 -0.0335 -0.5766  0.8197
   42MOL0     O 5593   3.191   9.910   3.885 -0.6775 -0.3476  0.0289
   42MOL0     C 5594   3.151   9.953   4.015 -0.2705 -0.2280 -1.1971
   42MOL0     C 5595   3.077   9.832   4.088  0.5753 -0.1310  0.2325
   42MOL0     C 5596   2.989   9.770   3.974 -0.3437  1.2920  0.1821
   42MOL0     C 5597   2.866   9.685   4.029  0.2216  0.8703 -0.5340
   42MOL0     C 5598   2.884   9.617   4.161  0.3230  0.8077  0.0133
   42MOL0     C 5599   2.894   9.561   4.272 -0.3519 -0.0058 -0.4651
   42MOL0     C 5600   3.311   9.967   3.687 -0.0193 -0.0224  0.2684
   42MOL0     C 5601   3.416  10.040   3.621  0.0572 -0.6760 -0.7164
   42MOL0     C 5602   3.459   9.995   3.485 -0.2104 -0.4762 -0.4978
   42MOL0     H 5603   3.880  10.126   3.403 -1.5975 -0.7750  1.3469
   42MOL0     H 5604   4.042  10.273   3.290 -0.6075 -3.1406 -0.1179
   42MOL0     H 5605   4.026  10.714   3.175  1.8762  1.7343  0.3156
   42MOL0     H 5606   3.957  10.697   3.343  0.7088  1.3501 -0.3058
   42MOL0     H 5607   4.243  10.629   3.253  0.5770  0.6440  0.9929
   42MOL0     H 5608   4.196  10.653   3.409  4.7133  2.2307 -0.9242
   42MOL0     H 5609   4.133  10.883   3.367  1.9910  2.6185  1.1836
   42MOL0     H 5610   4.225  10.873   3.203 -1.8919 -1.2088  0.0768
   42MOL0     H 5611   4.344  10.968   3.403 -0.1018  0.9505 -1.9408
   42MOL0     H 5612   4.336  10.810   3.477  0.0330  0.5205  0.1606
   42MOL0     H 5613   4.479  10.722   3.272  1.0186  0.0004 -2.9081
   42MOL0     H 5614   4.450  10.866   3.195 -2.8899 -2.7185 -0.7946
   42MOL0     H 5615   4.593  10.993   3.361 -3.7612  0.5298 -0.1050
   42MOL0     H 5616   4.616  10.847   3.457 -1.8869 -1.1723 -0.2103
   42MOL0     H 5617   4.802  10.921   3.299 -0.3613  1.9493  0.7701
   42MOL0     H 5618   4.703  10.922   3.161 -1.3265  0.2700  0.5356
   42MOL0     H 5619   4.679  10.672   3.170  0.4758 -2.0756  1.2046
   42MOL0     H 5620   4.850  10.729   3.153 -0.5767  2.3214 -1.3469
   42MOL0     H 5621   4.827  10.450   3.222 -2.5295  2.1619 -1.7347
   42MOL0     H 5622   4.782  10.282   3.485  1.2066  0.1320 -1.4573
   42MOL0     H 5623   4.940  10.272   3.413  0.5729  2.3255 -0.7275
   42MOL0     H 5624   4.915  10.369   3.712  1.9683  1.3355 -0.1196
   42MOL0     H 5625   4.962  10.205   3.656 -2.8435 -0.1109 -0.8879
   42MOL0     H 5626   5.103  10.458   3.563 -0.0277  0.8768  1.4341
   42MOL0     H 5627   5.137  10.292   3.521  2.8755  3.6292 -2.1864
   42MOL0     H 5628   5.159  10.397   3.785 -1.4412  0.1324 -1.7462
   42MOL0     H 5629   5.301  10.363   3.679 -0.8441  1.0354  0.0342
   42MOL0     H 5630   5.314   9.964   3.770 -0.3790 -0.7031 -0.0136
   42MOL0     H 5631   5.493   9.890   3.908  1.4073 -0.0539 -1.6265
   42MOL0     H 5632   5.841   9.920   4.264 -2.6801  0.8167 -1.7020
   42MOL0     H 5633   6.007   9.925   4.404 -0.5835 -0.7698 -1.0375
   42MOL0     H 5634   6.247  10.302   4.387  1.0089 -0.7637 -0.5110
   42MOL0     H 5635   6.171  10.345   4.546 -0.9830  1.0007 -2.0637
   42MOL0     H 5636   6.412  10.314   4.626  2.7684 -3.8020  3.4501
   42MOL0     H 5637   6.354  10.151   4.625 -2.0501  0.2210 -0.1077
   42MOL0     H 5638   6.440  10.108   4.398 -0.1115  0.2891 -0.6027
   42MOL0     H 5639   6.471  10.279   4.375  0.1626  1.1562  0.9047
   42MOL0     H 5640   6.690  10.137   4.447  0.4039 -0.5452  0.3170
   42MOL0     H 5641   6.610  10.103   4.595 -0.4368  0.7776  1.6433
   42MOL0     H 5642   6.631  10.310   4.688 -0.3108 -2.6215 -0.1184
   42MOL0     H 5643   6.616  10.398   4.531  2.3302  1.6605  0.2027
   42MOL0     H 5644   6.837  10.302   4.448 -2.1526 -3.7443 -0.5890
   42MOL0     H 5645   6.835  10.433   4.565 -3.1930 -0.4911  0.3278
   42MOL0     H 5646   6.999  10.219   4.567 -0.0477 -1.0562 -0.2381
   42MOL0     H 5647   6.860  10.134   4.623  0.5841 -0.8895 -1.9052
   42MOL0     H 5648   7.008  10.364   4.723 -2.5068  1.3549 -0.9093
   42MOL0     H 5649   6.849  10.323   4.801 -0.7962  1.2578 -1.1049
   42MOL0     H 5650   6.011  10.364   4.408  0.9897  0.5640 -3.9468
   42MOL0     H 5651   5.806  10.352   4.288 -0.2111  0.2249 -1.6646
   42MOL0     H 5652   5.487  10.276   4.109 -0.1881  1.1292 -0.6577
   42MOL0     H 5653   5.327  10.353   3.975  1.3766  0.5888  1.3347
   42MOL0     H 5654   3.759  10.596   3.325  0.1274  0.4628  0.6338
   42MOL0     H 5655   3.603  10.436   3.458 -0.5053 -0.9504 -0.0479
   42MOL0     H 5656   3.421  10.288   3.857  3.1289  0.2050 -2.1502
   42MOL0     H 5657   3.283  10.170   3.962 -1.2492  1.1836 -0.3975
   42MOL0     H 5658   3.081  10.036   4.032  1.1243  0.2053  4.3307
   42MOL0     H 5659   3.228   9.991   4.082 -3.7877  3.0438  1.4663
   42MOL0     H 5660   3.016   9.858   4.175  0.1092 -0.6564  0.0700
   42MOL0     H 5661   3.142   9.749   4.118 -2.0417 -2.1906  0.6224
   42MOL0     H 5662   3.058   9.703   3.924  1.4616  0.3194  3.6316
   42MOL0     H 5663   2.949   9.834   3.895  0.9668 -0.1002 -1.6671
   42MOL0     H 5664   2.769   9.735   4.037 -1.4858 -2.0493 -1.3476
   42MOL0     H 5665   2.858   9.606   3.953  0.4607 -0.8586  1.1628
   42MOL0     H 5666   2.911   9.517   4.368  1.0521  2.8218  0.6681
   42MOL0     H 5667   3.288   9.867   3.652  2.3021 -0.8361  0.9198
   42MOL0     H 5668   3.558   9.948   3.490  0.5288  1.1034  0.9187
   42MOL0     H 5669   3.391   9.925   3.436 -0.0493 -1.4353  0.5998
   42MOL0     H 5670   3.458  10.075   3.410 -0.7433 -0.3407 -0.3546
   43MOL0     O 5671   7.660   8.347  11.146  0.3088 -0.9887 -0.6548
   43MOL0     C 5672   7.585   8.376  11.245 -0.1013  0.2673  0.0826
   43MOL0     O 5673   7.638   8.416  11.366 -0.8337  0.3312  0.1035
   43MOL0     C 5674   7.773   8.429  11.393 -0.3459  0.9748  0.2055
   43MOL0     C 5675   7.833   8.551  11.364 -0.5130 -0.4558  0.8258
   43MOL0     C 5676   7.970   8.571  11.393  0.3035  0.4493  1.0855
   43MOL0     C 5677   8.047   8.482  11.453 -1.2085 -0.2646 -0.9810
   43MOL0     O 5678   8.167   8.532  11.496  0.5079 -0.1787  0.2503
   43MOL0     C 5679   8.258   8.438  11.551  0.1144  0.3266  0.1229
   43MOL0     C 5680   8.395   8.487  11.558 -0.4697  0.2936  0.7324
   43MOL0     C 5681   8.490   8.381  11.605 -0.5761  0.4867 -0.2936
   43MOL0     C 5682   8.631   8.394  11.541 -0.9479  0.3961 -0.9614
   43MOL0     C 5683   8.729   8.298  11.607  0.0535 -0.2280 -0.5590
   43MOL0     C 5684   8.727   8.149  11.558 -0.4035 -0.5384 -0.1510
   43MOL0     C 5685   8.848   8.063  11.586 -0.3039 -0.3599 -0.7087
   43MOL0     C 5686   8.836   7.921  11.519 -0.6685 -0.1447 -0.4095
   43MOL0     N 5687   8.957   7.846  11.551  0.2952  0.2651  0.1430
   43MOL0     C 5688   8.999   7.812  11.674 -0.2882  0.0670 -0.9526
   43MOL0     C 5689   9.123   7.741  11.655 -0.6048  0.1644  0.1291
   43MOL0     C 5690   9.228   7.684  11.755  0.1216 -0.5908 -0.2165
   43MOL0     C 5691   9.252   7.785  11.878 -0.1561  0.0099 -0.0387
   43MOL0     C 5692   9.354   7.731  11.969  0.2976  0.1358 -0.4458
   43MOL0     C 5693   9.356   7.815  12.100 -0.4181 -0.1619 -0.2314
   43MOL0     O 5694   9.392   7.952  12.072  0.3085  0.2037  0.4862
   43MOL0     C 5695   9.526   7.967  12.063 -0.4317 -0.7017 -0.2225
   43MOL0     C 5696   9.586   7.972  11.935  0.5116 -1.4896 -0.1565
   43MOL0     C 5697   9.731   7.996  11.920  0.7471  0.1863  0.2724
   43MOL0     C 5698   9.806   8.007  12.034 -0.0554  0.2237  0.0341
   43MOL0     C 5699   9.951   7.999  12.025  0.0940 -0.2354  0.1121
   43MOL0     O 5700  10.022   7.934  12.121 -0.1924 -0.4993 -0.5094
   43MOL0     C 5701  10.152   7.960  12.141 -0.9128 -0.6215 -0.1832
   43MOL0     C 5702  10.234   8.075  12.101 -0.0433  0.5991  0.3339
   43MOL0     C 5703  10.372   8.081  12.130  0.1203  0.3669  0.4779
   43MOL0     C 5704  10.434   7.968  12.193 -0.1686  0.1344  0.3687
   43MOL0     O 5705  10.565   7.955  12.226  0.5173 -0.4599  0.2406
   43MOL0     C 5706  10.643   8.059  12.162 -0.3335 -0.2950  0.4769
   43MOL0     C 5707  10.789   8.038  12.200  0.9508  0.1327  0.3379
   43MOL0     C 5708  10.875   8.153  12.146  0.7615  0.0082  0.1951
   43MOL0     C 5709  11.001   8.146  12.215 -0.8084  0.1667 -0.7586
   43MOL0     C 5710  11.111   8.250  12.163  0.2625 -0.0189  0.1295
   43MOL0     C 5711  11.235   8.213  12.242  0.0483 -0.1538  0.0603
   43MOL0     C 5712  11.350   8.300  12.200  0.1073 -0.4678  0.8362
   43MOL0     C 5713  11.349   8.446  12.219  0.5046  0.1985  0.6100
   43MOL0    Cl 5714  11.301   8.480  12.388 -0.2986  0.3951 -0.2948
   43MOL0     C 5715  10.359   7.874  12.247 -0.1691  0.2153 -0.6895
   43MOL0     C 5716  10.218   7.865  12.218 -0.7250 -0.5133  1.2187
   43MOL0     O 5717  10.003   8.041  11.915  0.3001 -0.4736  0.5591
   43MOL0     C 5718   9.748   8.014  12.164  0.5396 -0.3535  0.1218
   43MOL0     C 5719   9.609   7.995  12.173 -0.2003 -0.8424 -0.4633
   43MOL0     N 5720   9.144   7.722  11.521  0.2847  0.4105 -0.6546
   43MOL0     N 5721   9.050   7.793  11.464 -0.5706 -0.3032  0.2363
   43MOL0     C 5722   7.988   8.355  11.484  0.4460 -0.1981  0.3183
   43MOL0     C 5723   7.852   8.330  11.450 -0.2711  0.0184  0.6916
   43MOL0     C 5724   7.442   8.389  11.236 -0.0957  0.7165 -0.0097
   43MOL0     C 5725   7.367   8.340  11.347 -0.0337 -0.0910  1.0567
   43MOL0     C 5726   7.229   8.352  11.350 -0.7271  0.4877  1.0470
   43MOL0     C 5727   7.168   8.388  11.239  1.2149  0.0318  0.9400
   43MOL0     O 5728   7.027   8.405  11.242 -0.4738  0.5015 -0.2442
   43MOL0     C 5729   6.964   8.388  11.113 -0.3522  0.5358 -1.6853
   43MOL0     C 5730   6.819   8.335  11.134  0.3494 -0.4133 -0.4379
   43MOL0     C 5731   6.837   8.197  11.199 -0.0092  0.5947 -0.0465
   43MOL0     C 5732   6.716   8.170  11.292  0.8767  0.0533  0.2065
   43MOL0     C 5733   6.727   8.039  11.358  0.3614  0.2379  0.6633
   43MOL0     C 5734   6.753   7.938  11.417  0.2691 -0.0660 -0.3369
   43MOL0     C 5735   7.242   8.432  11.129  0.0815  0.3315 -0.0694
   43MOL0     C 5736   7.373   8.436  11.129 -0.0681  0.2363 -0.1574
   43MOL0     C 5737   7.440   8.508  11.012 -0.6936 -0.1596 -0.4168
   43MOL0     H 5738   7.767   8.632  11.335 -0.1002 -0.0563  0.9983
   43MOL0     H 5739   8.000   8.676  11.386  0.4438  0.3664  0.3990
   43MOL0     H 5740   8.218   8.407  11.648 -0.3720 -0.7333 -0.3982
   43MOL0     H 5741   8.263   8.357  11.478 -2.8278  0.3466 -0.1847
   43MOL0     H 5742   8.392   8.575  11.623 -2.0681  1.9140 -1.3478
   43MOL0     H 5743   8.430   8.521  11.460  0.2697 -0.5529  0.6894
   43MOL0     H 5744   8.454   8.279  11.590  2.3145 -0.9413  1.5332
   43MOL0     H 5745   8.497   8.396  11.713  0.9347 -1.6728 -0.0290
   43MOL0     H 5746   8.626   8.393  11.432 -1.8841 -1.4204 -0.9395
   43MOL0     H 5747   8.653   8.498  11.567 -0.8650 -0.2549  1.9513
   43MOL0     H 5748   8.831   8.335  11.587 -0.3398  1.2354 -0.0000
   43MOL0     H 5749   8.703   8.314  11.712 -1.6613  1.3780 -1.1664
   43MOL0     H 5750   8.638   8.099  11.597  1.1724 -1.8727  1.9646
   43MOL0     H 5751   8.718   8.159  11.449  2.4297  1.0577 -0.3232
   43MOL0     H 5752   8.868   8.057  11.693 -1.5366  0.0585 -0.4352
   43MOL0     H 5753   8.942   8.102  11.547  1.0904  0.7298  3.2969
   43MOL0     H 5754   8.745   7.869  11.551 -1.0791 -0.4152 -1.9781
   43MOL0     H 5755   8.827   7.929  11.411  0.8960  1.3082 -0.4627
   43MOL0     H 5756   8.950   7.843  11.766 -0.8799 -0.6215 -1.0300
   43MOL0     H 5757   9.194   7.588  11.794 -0.9713 -1.3721 -2.8750
   43MOL0     H 5758   9.325   7.668  11.708  1.1767  3.2076  0.3199
   43MOL0     H 5759   9.290   7.881  11.841  0.6610 -0.9126 -1.7417
   43MOL0     H 5760   9.156   7.795  11.929  0.8991 -0.0292  2.0672
   43MOL0     H 5761   9.449   7.737  11.914 -0.2955 -0.0186 -1.5182
   43MOL0     H 5762   9.333   7.627  11.997 -1.0061  1.2740  3.3416
   43MOL0     H 5763   9.424   7.771  12.174  0.8639 -0.5760 -1.5942
   43MOL0     H 5764   9.258   7.792  12.141  1.8006 -4.7126  3.4654
   43MOL0     H 5765   9.521   7.960  11.849  0.7928  2.6925 -1.1763
   43MOL0     H 5766   9.765   8.010  11.818  0.2694 -2.6404 -0.3642
   43MOL0     H 5767  10.191   8.151  12.037 -1.4151 -0.1952  0.2756
   43MOL0     H 5768  10.432   8.157  12.080  1.7813 -1.5765 -0.6549
   43MOL0     H 5769  10.635   8.038  12.055  0.5891  0.1055  0.3260
   43MOL0     H 5770  10.605   8.155  12.198  2.2268  1.2394 -0.7096
   43MOL0     H 5771  10.795   8.035  12.309  2.7166 -2.0777  0.2533
   43MOL0     H 5772  10.826   7.941  12.168  0.2667  0.0364 -0.2101
   43MOL0     H 5773  10.875   8.143  12.037 -2.6394 -1.4399  0.2097
   43MOL0     H 5774  10.833   8.252  12.168 -1.2680 -0.7914  0.1470
   43MOL0     H 5775  11.048   8.049  12.194  2.2420  1.5380 -0.8832
   43MOL0     H 5776  10.988   8.169  12.321 -0.0388  0.7585 -0.7846
   43MOL0     H 5777  11.081   8.353  12.188  1.2448  0.0506  1.1161
   43MOL0     H 5778  11.126   8.236  12.056 -1.4617  2.2752 -0.4891
   43MOL0     H 5779  11.213   8.230  12.348 -0.9266 -1.7250  0.1399
   43MOL0     H 5780  11.267   8.110  12.224  1.9793  0.4439 -0.2355
   43MOL0     H 5781  11.373   8.273  12.097 -0.2594  1.3089  0.2469
   43MOL0     H 5782  11.433   8.254  12.256 -1.6700 -0.3464  3.7777
   43MOL0     H 5783  11.443   8.485  12.179 -0.1261  0.1896 -0.9481
   43MOL0     H 5784  11.270   8.488  12.156 -0.0135 -1.2605  0.2411
   43MOL0     H 5785  10.414   7.795  12.298  0.5239  0.5113 -0.9665
   43MOL0     H 5786  10.165   7.789  12.275 -0.7868 -0.4531  1.2409
   43MOL0     H 5787   9.813   8.011  12.251 -0.8261  1.0682  1.2338
   43MOL0     H 5788   9.565   7.996  12.272 -2.6665 -0.7934 -1.4773
   43MOL0     H 5789   8.033   8.278  11.546  1.8576  0.4503  0.1208
   43MOL0     H 5790   7.808   8.231  11.459 -2.1459  0.8967  1.7775
   43MOL0     H 5791   7.425   8.311  11.434  1.6691 -0.7443 -0.2366
   43MOL0     H 5792   7.180   8.319  11.441  1.1273  0.1755  1.9719
   43MOL0     H 5793   7.026   8.314  11.061 -0.9653 -4.2963  3.5197
   43MOL0     H 5794   6.963   8.483  11.059  0.3018  0.2710 -2.1854
   43MOL0     H 5795   6.771   8.312  11.039  1.2235  0.2717 -1.0587
   43MOL0     H 5796   6.751   8.399  11.191 -0.7231 -1.5535 -0.3852
   43MOL0     H 5797   6.927   8.193  11.262 -0.9504  0.4698  1.3299
   43MOL0     H 5798   6.853   8.130  11.114 -1.3843 -0.0325  0.1694
   43MOL0     H 5799   6.699   8.233  11.380  0.9649 -2.1473  1.9070
   43MOL0     H 5800   6.627   8.166  11.228 -1.2742  1.2564  2.9190
   43MOL0     H 5801   6.792   7.851  11.465 -1.1069 -0.4777  0.0532
   43MOL0     H 5802   7.192   8.461  11.037 -1.6153  0.5199  0.8514
   43MOL0     H 5803   7.475   8.440  10.934  2.3979  1.4929 -0.6296
   43MOL0     H 5804   7.368   8.574  10.963 -0.7406  1.1586  1.3529
   43MOL0     H 5805   7.536   8.554  11.038 -0.9773  0.9880 -1.2980
   44MOL0     O 5806   6.534   7.174   4.844 -0.2458 -0.4563 -0.4035
   44MOL0     C 5807   6.500   7.217   4.955  0.9320  0.5114  0.8552
   44MOL0     O 5808   6.586   7.229   5.061 -0.5078 -0.0890 -0.1586
   44MOL0     C 5809   6.722   7.199   5.050  0.3197  1.3223  0.0940
   44MOL0     C 5810   6.810   7.302   5.057  0.0138  0.0662 -0.4756
   44MOL0     C 5811   6.952   7.267   5.047  0.2023 -0.4342 -0.0364
   44MOL0     C 5812   6.997   7.136   5.025 -0.3272 -0.9013  0.5322
   44MOL0     O 5813   7.131   7.104   5.020 -0.1405  0.3767  0.2949
   44MOL0     C 5814   7.201   7.105   5.146 -0.3433 -0.7357  0.4547
   44MOL0     C 5815   7.340   7.047   5.128 -0.3235  0.3393  0.3188
   44MOL0     C 5816   7.427   7.142   5.045 -0.3440 -0.5940  0.4866
   44MOL0     C 5817   7.492   7.251   5.125  0.2682 -0.0897 -0.3936
   44MOL0     C 5818   7.467   7.380   5.054  0.0978 -0.2423 -0.1887
   44MOL0     C 5819   7.514   7.497   5.144 -0.2241 -0.9177 -0.0803
   44MOL0     C 5820   7.557   7.624   5.078 -0.2116  0.1568 -0.8047
   44MOL0     C 5821   7.442   7.686   4.995 -0.1952  0.0515  0.4079
   44MOL0     N 5822   7.346   7.751   5.090  0.0889 -0.3984  0.0673
   44MOL0     C 5823   7.343   7.889   5.117  0.8713 -0.1068 -0.3441
   44MOL0     C 5824   7.230   7.914   5.177 -0.0664  0.2951  0.6610
   44MOL0     C 5825   7.181   8.050   5.201  0.2348 -0.0948 -0.9194
   44MOL0     C 5826   7.220   8.109   5.330 -0.9156  0.4884  0.1901
   44MOL0     C 5827   7.144   8.236   5.362  0.3716 -0.1181  0.0471
   44MOL0     C 5828   6.997   8.200   5.413 -0.2314  0.8378 -0.3194
   44MOL0     O 5829   6.997   8.190   5.558 -0.1346  0.7037 -0.6138
   44MOL0     C 5830   6.896   8.103   5.590  0.6989  0.0052  0.4998
   44MOL0     C 5831   6.761   8.144   5.599  0.0862 -0.7839  0.7344
   44MOL0     C 5832   6.661   8.051   5.641  0.7247 -0.3495 -0.7356
   44MOL0     C 5833   6.694   7.926   5.676  0.6410 -0.2662 -0.0874
   44MOL0     C 5834   6.590   7.824   5.694 -0.3837  0.6623 -0.3992
   44MOL0     O 5835   6.631   7.695   5.709 -0.2502  0.9546  0.7432
   44MOL0     C 5836   6.533   7.599   5.693 -0.7583  0.1843 -0.8030
   44MOL0     C 5837   6.522   7.495   5.785 -0.7004  0.0216  0.1079
   44MOL0     C 5838   6.419   7.403   5.781  0.7410 -0.3918 -0.2463
   44MOL0     C 5839   6.329   7.404   5.678  1.0582  0.8514  0.2098
   44MOL0     O 5840   6.234   7.300   5.689 -0.5390  0.2275 -0.4226
   44MOL0     C 5841   6.273   7.174   5.639  0.6528  0.2028  0.4907
   44MOL0     C 5842   6.306   7.184   5.489 -0.6956  0.2157  1.5223
   44MOL0     C 5843   6.355   7.055   5.419  0.4940 -1.3461  0.2447
   44MOL0     C 5844   6.399   7.069   5.271  0.3300  1.3971 -0.3416
   44MOL0     C 5845   6.428   6.932   5.206  0.1015 -0.7793 -0.2143
   44MOL0     C 5846   6.558   6.872   5.247 -0.2509 -0.4353  0.1480
   44MOL0     C 5847   6.581   6.755   5.155  0.4286  0.6165 -0.1767
   44MOL0     C 5848   6.726   6.710   5.161 -0.4046 -0.0787 -0.9755
   44MOL0    Cl 5849   6.765   6.656   5.326 -0.0088 -0.6987 -0.0705
   44MOL0     C 5850   6.338   7.506   5.580  0.6253  0.3352 -0.3209
   44MOL0     C 5851   6.445   7.600   5.586  0.4167 -0.9927  0.0027
   44MOL0     O 5852   6.476   7.865   5.701 -0.0387  0.1697 -0.4846
   44MOL0     C 5853   6.820   7.879   5.678 -1.1266  0.3450 -0.7675
   44MOL0     C 5854   6.920   7.973   5.629 -0.0473  0.9633 -0.4679
   44MOL0     N 5855   7.161   7.796   5.193  0.3572  0.5181  0.0141
   44MOL0     N 5856   7.223   7.705   5.130 -0.7172 -0.3776  0.4080
   44MOL0     C 5857   6.904   7.032   5.004  0.4103 -0.5741 -0.1363
   44MOL0     C 5858   6.769   7.065   5.027  0.3517 -0.4603 -0.1191
   44MOL0     C 5859   6.356   7.258   4.979 -0.3648  0.6061  0.2340
   44MOL0     C 5860   6.257   7.158   4.952  0.1214 -0.7784  0.0726
   44MOL0     C 5861   6.130   7.186   5.005 -0.2560  0.7122 -0.0681
   44MOL0     C 5862   6.103   7.304   5.066  0.3483 -0.7682 -1.1366
   44MOL0     O 5863   5.978   7.346   5.114 -0.9142 -0.0011  0.5589
   44MOL0     C 5864   5.862   7.261   5.102  0.6734 -0.7252 -0.3946
   44MOL0     C 5865   5.746   7.340   5.162 -0.2314  0.4322 -0.0041
   44MOL0     C 5866   5.610   7.276   5.137  0.3794  0.3498 -0.6086
   44MOL0     C 5867   5.516   7.354   5.225  0.3830 -0.6486  0.4302
   44MOL0     C 5868   5.379   7.304   5.209  0.3541 -0.0961  0.3557
   44MOL0     C 5869   5.277   7.240   5.184  0.1896 -0.1401 -0.1421
   44MOL0     C 5870   6.200   7.405   5.090 -1.2484  0.6195 -0.2593
   44MOL0     C 5871   6.326   7.380   5.045 -0.3264  0.4043  1.2235
   44MOL0     C 5872   6.437   7.477   5.079  0.6247 -0.5777  0.4663
   44MOL0     H 5873   6.769   7.402   5.055 -1.6150 -0.5585 -0.2274
   44MOL0     H 5874   7.019   7.351   5.055  1.9771 -1.8176  0.3198
   44MOL0     H 5875   7.210   7.204   5.192 -1.5861  0.4748 -1.7459
   44MOL0     H 5876   7.138   7.043   5.210 -0.4149 -2.2933 -1.0576
   44MOL0     H 5877   7.318   6.961   5.064 -0.5850  0.9181 -0.3739
   44MOL0     H 5878   7.395   7.022   5.219 -2.0209 -3.4637  0.4925
   44MOL0     H 5879   7.367   7.182   4.962  1.4641 -1.3376 -1.2667
   44MOL0     H 5880   7.513   7.086   5.008  1.3783  0.5792  2.5301
   44MOL0     H 5881   7.446   7.270   5.222 -0.7028 -0.3669 -0.7897
   44MOL0     H 5882   7.596   7.232   5.151 -0.3217 -0.6496  1.7620
   44MOL0     H 5883   7.529   7.379   4.964  0.5585  1.0690  0.0928
   44MOL0     H 5884   7.360   7.382   5.035 -0.4687 -0.6152  2.5124
   44MOL0     H 5885   7.433   7.522   5.214  0.0135  0.8797 -0.4067
   44MOL0     H 5886   7.597   7.475   5.211 -1.6670 -1.2186  1.6897
   44MOL0     H 5887   7.650   7.605   5.023  1.1478  0.5258  1.2299
   44MOL0     H 5888   7.587   7.701   5.150 -2.6504  0.9003 -0.4851
   44MOL0     H 5889   7.477   7.754   4.917 -1.8105 -1.1148 -1.4213
   44MOL0     H 5890   7.396   7.602   4.942  0.7354  0.0352 -0.4139
   44MOL0     H 5891   7.424   7.955   5.086  1.1088  0.0766  0.6257
   44MOL0     H 5892   7.224   8.092   5.110  2.1792 -2.6644 -1.2820
   44MOL0     H 5893   7.072   8.047   5.191  0.3573 -2.7549 -2.5370
   44MOL0     H 5894   7.193   8.035   5.407 -1.0072 -4.3605 -4.0062
   44MOL0     H 5895   7.328   8.126   5.332 -0.9089  0.4129  0.6668
   44MOL0     H 5896   7.136   8.302   5.275  2.1568  0.3546  0.1991
   44MOL0     H 5897   7.205   8.294   5.432  0.3603 -0.3850  0.2797
   44MOL0     H 5898   6.963   8.108   5.364 -0.3263 -0.5227  2.1727
   44MOL0     H 5899   6.940   8.287   5.380 -0.2362  0.5651 -1.0698
   44MOL0     H 5900   6.755   8.250   5.577  2.3658 -0.4053  1.7305
   44MOL0     H 5901   6.559   8.084   5.655  1.0589  0.1816  0.6635
   44MOL0     H 5902   6.612   7.471   5.840  0.1561 -3.4807 -2.4927
   44MOL0     H 5903   6.413   7.327   5.859  2.0739  1.3221  1.6234
   44MOL0     H 5904   6.357   7.130   5.694  0.5511 -0.4244  0.1576
   44MOL0     H 5905   6.191   7.104   5.658  1.1686 -0.2698  1.0401
   44MOL0     H 5906   6.215   7.208   5.434 -0.9213  0.3836  1.9696
   44MOL0     H 5907   6.378   7.264   5.469 -1.0671 -0.2315 -2.5304
   44MOL0     H 5908   6.436   7.012   5.478  0.0028 -1.4497  0.8492
   44MOL0     H 5909   6.278   6.978   5.416  0.6366 -1.6475  2.5823
   44MOL0     H 5910   6.486   7.132   5.252  0.1046  1.5731 -0.8130
   44MOL0     H 5911   6.309   7.108   5.221 -0.9890  3.6956  3.4332
   44MOL0     H 5912   6.434   6.943   5.097  1.7290  1.2563  0.0222
   44MOL0     H 5913   6.339   6.871   5.225  1.1703 -1.8892  1.5031
   44MOL0     H 5914   6.637   6.944   5.224 -0.6184 -0.5462 -1.6638
   44MOL0     H 5915   6.560   6.838   5.351  2.8222 -1.4157 -0.1241
   44MOL0     H 5916   6.558   6.783   5.052  0.9125  3.2409  0.3579
   44MOL0     H 5917   6.520   6.670   5.188  1.8796 -0.2728  0.3559
   44MOL0     H 5918   6.740   6.623   5.096  0.2661 -1.3851  0.8365
   44MOL0     H 5919   6.796   6.789   5.134  0.4367 -1.3033 -2.5180
   44MOL0     H 5920   6.252   7.497   5.514  0.8214 -1.3744 -0.3843
   44MOL0     H 5921   6.460   7.684   5.519 -0.5547  0.2288  1.2374
   44MOL0     H 5922   6.849   7.778   5.703 -1.9627  0.4252  0.6341
   44MOL0     H 5923   7.020   7.931   5.632 -1.2987 -2.2784  1.7800
   44MOL0     H 5924   6.938   6.930   4.990 -1.8970 -2.1364  3.9606
   44MOL0     H 5925   6.688   6.993   5.020 -1.4323  1.2739  1.3785
   44MOL0     H 5926   6.270   7.064   4.899 -4.6930 -1.5458 -0.1704
   44MOL0     H 5927   6.050   7.113   4.993  1.3297 -1.7441  2.9865
   44MOL0     H 5928   5.866   7.170   5.163 -2.9634 -0.8493 -0.1509
   44MOL0     H 5929   5.847   7.233   4.997 -0.3939 -1.0468 -0.1617
   44MOL0     H 5930   5.741   7.442   5.124  2.8145  1.2664  1.4971
   44MOL0     H 5931   5.783   7.340   5.265  0.0580 -0.6167 -0.0951
   44MOL0     H 5932   5.608   7.169   5.162 -2.3853  0.2247 -1.0748
   44MOL0     H 5933   5.568   7.278   5.036  0.0930  2.3178 -0.4793
   44MOL0     H 5934   5.552   7.337   5.327  0.0301 -2.1080  0.3394
   44MOL0     H 5935   5.525   7.459   5.197  1.7750 -0.0915  2.7189
   44MOL0     H 5936   5.178   7.201   5.169  0.7230 -1.3914 -0.6296
   44MOL0     H 5937   6.172   7.493   5.146 -1.2544  0.6572 -0.3213
   44MOL0     H 5938   6.492   7.503   4.989 -0.6749  0.7830  0.0316
   44MOL0     H 5939   6.402   7.572   5.120 -1.1628 -0.5897 -0.9145
   44MOL0     H 5940   6.509   7.438   5.152  4.7394  1.7765 -1.9472
   45MOL0     O 5941   0.188   1.560  10.869 -0.2709 -0.6327  0.5050
   45MOL0     C 5942   0.194   1.491  10.966 -0.2659  1.0035  0.3620
   45MOL0     O 5943   0.293   1.400  10.995 -0.3268  0.0471 -0.0166
   45MOL0     C 5944   0.377   1.362  10.890 -0.3411 -0.4875 -0.1238
   45MOL0     C 5945   0.322   1.319  10.766  0.3334 -0.6949  0.0497
   45MOL0     C 5946   0.402   1.288  10.659  0.9422 -0.1501  0.4620
   45MOL0     C 5947   0.538   1.300  10.666  0.3278 -0.4808 -0.4118
   45MOL0     O 5948   0.613   1.274  10.561 -0.1096 -0.3673 -0.3335
   45MOL0     C 5949   0.700   1.157  10.582  0.5740 -0.2722  0.1457
   45MOL0     C 5950   0.800   1.142  10.466  0.0277  0.9976  0.3660
   45MOL0     C 5951   0.917   1.232  10.492 -0.1968  0.1830 -0.3220
   45MOL0     C 5952   1.017   1.230  10.381  0.2799  0.4225 -0.0077
   45MOL0     C 5953   1.147   1.313  10.401 -0.1261  0.4736 -0.4405
   45MOL0     C 5954   1.234   1.262  10.515 -0.4902  0.7446 -0.5425
   45MOL0     C 5955   1.290   1.127  10.475  0.5674 -0.0896 -0.1301
   45MOL0     C 5956   1.397   1.072  10.578  1.0251  0.3263 -0.2142
   45MOL0     N 5957   1.512   1.170  10.597  0.3546  0.4165  0.3083
   45MOL0     C 5958   1.603   1.206  10.503  0.6272 -0.2032  0.6456
   45MOL0     C 5959   1.700   1.271  10.572  0.1175  0.8110  0.2264
   45MOL0     C 5960   1.832   1.313  10.511  0.4374  0.3767 -0.4184
   45MOL0     C 5961   1.953   1.278  10.611 -0.1654 -0.8532  0.9819
   45MOL0     C 5962   1.980   1.131  10.620 -0.1446 -0.2552  0.0697
   45MOL0     C 5963   2.114   1.104  10.692  0.6941 -0.4478  0.1137
   45MOL0     O 5964   2.221   1.103  10.602  0.2198  0.2359 -0.0746
   45MOL0     C 5965   2.342   1.078  10.670  0.6098  0.6205  0.1615
   45MOL0     C 5966   2.357   1.070  10.810 -1.0531 -0.2331  0.1782
   45MOL0     C 5967   2.484   1.048  10.874 -0.5055  0.2442 -0.0297
   45MOL0     C 5968   2.599   1.056  10.786 -0.4441 -0.1751 -0.5091
   45MOL0     C 5969   2.735   1.046  10.846  0.6637 -0.0773 -0.4295
   45MOL0     O 5970   2.729   0.982  10.969  0.6143 -0.6052 -0.4579
   45MOL0     C 5971   2.839   0.988  11.052  0.2300 -0.3094 -0.3820
   45MOL0     C 5972   2.827   1.028  11.190  0.8031 -0.5918 -0.3464
   45MOL0     C 5973   2.934   1.020  11.279 -0.0964  0.7542 -0.5814
   45MOL0     C 5974   3.050   0.960  11.236  0.2130 -0.3421 -0.4354
   45MOL0     O 5975   3.176   0.953  11.301  0.7409  0.3234 -0.6755
   45MOL0     C 5976   3.185   1.047  11.407  0.7518  0.4379 -0.6331
   45MOL0     C 5977   3.148   0.980  11.542  0.0083  0.9073 -0.1126
   45MOL0     C 5978   3.222   1.056  11.650  0.5693  0.0529  1.0830
   45MOL0     C 5979   3.246   0.978  11.772  0.4634 -0.1405  0.2860
   45MOL0     C 5980   3.293   1.066  11.892  0.3720  0.4671  0.1049
   45MOL0     C 5981   3.323   0.963  11.999  0.1902 -0.2397 -0.1275
   45MOL0     C 5982   3.380   1.015  12.118  0.7169  0.0655 -0.3404
   45MOL0     C 5983   3.462   0.912  12.205  0.2759  0.0682  0.3799
   45MOL0    Cl 5984   3.356   0.819  12.309  0.3811 -0.4504 -0.1887
   45MOL0     C 5985   3.068   0.931  11.095  0.3416 -0.4561  0.3078
   45MOL0     C 5986   2.961   0.940  11.007 -0.6655 -0.3506  0.6490
   45MOL0     O 5987   2.835   1.100  10.798 -0.3645 -0.0077  0.1878
   45MOL0     C 5988   2.585   1.078  10.646 -0.4218 -0.1823  0.8001
   45MOL0     C 5989   2.453   1.085  10.589 -0.2634  0.1863  0.2482
   45MOL0     N 5990   1.652   1.295  10.700 -1.1034 -0.1608  0.4711
   45MOL0     N 5991   1.551   1.228  10.719  0.6289 -0.5541  0.4255
   45MOL0     C 5992   0.599   1.330  10.790  0.8332 -0.4786  0.1938
   45MOL0     C 5993   0.516   1.369  10.899  0.2437 -0.2867 -0.5201
   45MOL0     C 5994   0.089   1.508  11.074  0.4979  0.0307 -0.1309
   45MOL0     C 5995   0.039   1.633  11.090  0.7941  0.4784 -0.1593
   45MOL0     C 5996  -0.058   1.665  11.192  0.0699 -0.8942 -1.0969
   45MOL0     C 5997  -0.111   1.559  11.262 -0.3262  0.0616  0.4715
   45MOL0     O 5998  -0.190   1.579  11.362  0.4144  0.2691  0.1500
   45MOL0     C 5999  -0.257   1.705  11.387  0.3633  0.2137  0.3329
   45MOL0     C 6000  -0.393   1.685  11.454 -0.7076 -1.0069  0.3969
   45MOL0     C 6001  -0.360   1.620  11.590  1.3273  0.5283  1.2622
   45MOL0     C 6002  -0.477   1.626  11.690 -0.0577 -0.5277 -0.1679
   45MOL0     C 6003  -0.443   1.566  11.815 -0.3803 -0.0668  0.5775
   45MOL0     C 6004  -0.390   1.520  11.915  0.2574  0.6652 -0.0254
   45MOL0     C 6005  -0.059   1.433  11.246  0.2599  1.1060  0.2300
   45MOL0     C 6006   0.040   1.402  11.147 -0.2094  0.8185 -0.6680
   45MOL0     C 6007   0.090   1.258  11.123  0.1578 -0.3661  0.1561
   45MOL0     H 6008   0.217   1.298  10.752 -0.6737  3.3109  0.3677
   45MOL0     H 6009   0.370   1.260  10.559  3.5770 -2.5833  0.1701
   45MOL0     H 6010   0.745   1.167  10.681 -2.5802  1.6110  1.5674
   45MOL0     H 6011   0.626   1.077  10.586  0.0143  0.2406  0.2707
   45MOL0     H 6012   0.747   1.169  10.374 -1.9095 -0.2188  1.0682
   45MOL0     H 6013   0.835   1.039  10.460  0.7818  1.2560  0.2127
   45MOL0     H 6014   0.962   1.189  10.581 -1.1252 -1.4034 -0.5819
   45MOL0     H 6015   0.885   1.335  10.510 -0.7045  0.1253 -0.8551
   45MOL0     H 6016   1.044   1.127  10.359 -1.1620  0.6029 -3.2338
   45MOL0     H 6017   0.963   1.272  10.295 -0.0328 -1.1753 -0.6261
   45MOL0     H 6018   1.206   1.317  10.310  0.8315 -1.1840  0.0776
   45MOL0     H 6019   1.112   1.412  10.432  2.2502  1.6022 -1.1810
   45MOL0     H 6020   1.313   1.334  10.537  1.7657 -1.5577 -0.4959
   45MOL0     H 6021   1.179   1.238  10.607 -1.9698  2.9881 -0.7821
   45MOL0     H 6022   1.333   1.135  10.375 -2.4060 -0.5234 -1.5707
   45MOL0     H 6023   1.211   1.051  10.480  0.6691 -0.3458 -1.7439
   45MOL0     H 6024   1.347   1.059  10.674  3.1924  2.8797  1.3965
   45MOL0     H 6025   1.439   0.979  10.539 -1.7507 -0.9868 -0.2681
   45MOL0     H 6026   1.610   1.160  10.405 -0.9185 -1.4314  1.0783
   45MOL0     H 6027   1.850   1.278  10.409  0.6816 -0.1220 -0.2100
   45MOL0     H 6028   1.821   1.422  10.510 -2.3655  0.1758  0.1265
   45MOL0     H 6029   2.034   1.340  10.571 -1.1717 -0.4334 -0.4622
   45MOL0     H 6030   1.928   1.324  10.708  3.5792  1.7612  0.9503
   45MOL0     H 6031   1.984   1.069  10.530  1.9455 -0.4531  0.2398
   45MOL0     H 6032   1.903   1.093  10.687  0.2643  1.3309  1.5128
   45MOL0     H 6033   2.102   1.005  10.737  0.6848  0.9682  3.5557
   45MOL0     H 6034   2.124   1.181  10.769 -2.2493  0.0879  0.0905
   45MOL0     H 6035   2.276   1.088  10.880 -0.4414  2.9660  0.2005
   45MOL0     H 6036   2.489   1.031  10.981  0.7183  0.6098 -0.0103
   45MOL0     H 6037   2.733   1.064  11.228  1.4429  0.6275  0.1539
   45MOL0     H 6038   2.922   1.031  11.386 -0.9784 -1.6135 -0.3656
   45MOL0     H 6039   3.289   1.080  11.401  0.6876  0.3640 -4.3035
   45MOL0     H 6040   3.120   1.135  11.400  0.6352  0.6141  1.8562
   45MOL0     H 6041   3.041   0.988  11.563 -1.1231 -5.7219 -1.4161
   45MOL0     H 6042   3.183   0.877  11.550 -1.3937  0.3565 -0.9124
   45MOL0     H 6043   3.322   1.089  11.621  1.5005 -2.6923  0.8903
   45MOL0     H 6044   3.153   1.139  11.667 -0.5490 -1.0752  2.2729
   45MOL0     H 6045   3.318   0.900  11.746 -0.4657 -1.0218  0.3122
   45MOL0     H 6046   3.149   0.937  11.802 -0.2218  1.7572  0.8114
   45MOL0     H 6047   3.225   1.149  11.917  0.9304  1.4162 -1.3819
   45MOL0     H 6048   3.378   1.129  11.864  1.8164 -0.5436  1.9951
   45MOL0     H 6049   3.231   0.907  12.020 -0.5450  0.5624 -1.1104
   45MOL0     H 6050   3.397   0.895  11.956  0.1769  0.6481 -1.6532
   45MOL0     H 6051   3.303   1.059  12.181 -1.7516  0.2954 -3.2811
   45MOL0     H 6052   3.445   1.095  12.078  1.7409 -0.5940 -0.0454
   45MOL0     H 6053   3.516   0.840  12.142  1.3210 -2.6632  4.0466
   45MOL0     H 6054   3.537   0.961  12.267 -0.0939 -0.9481  1.6735
   45MOL0     H 6055   3.164   0.897  11.058 -1.1719 -3.9830 -0.7812
   45MOL0     H 6056   2.990   0.925  10.904 -0.7154  1.9906  0.2342
   45MOL0     H 6057   2.665   1.098  10.576 -1.8018  0.1468 -0.7404
   45MOL0     H 6058   2.439   1.095  10.482  0.4341  2.1022  0.2962
   45MOL0     H 6059   0.706   1.330  10.806  0.8864 -0.8326 -0.1529
   45MOL0     H 6060   0.556   1.419  10.986  0.7330  2.9841 -2.4546
   45MOL0     H 6061   0.060   1.721  11.030  3.1094 -0.6654 -1.1556
   45MOL0     H 6062  -0.077   1.771  11.205  2.2249 -0.7907  2.2470
   45MOL0     H 6063  -0.267   1.766  11.297  0.5320 -0.6308 -0.2641
   45MOL0     H 6064  -0.194   1.756  11.460  1.1962  0.9389 -0.8674
   45MOL0     H 6065  -0.470   1.636  11.393 -1.1667  0.1572  0.0170
   45MOL0     H 6066  -0.429   1.787  11.469  1.0545 -0.7539  4.2192
   45MOL0     H 6067  -0.267   1.663  11.628  1.1747  1.2125  0.8809
   45MOL0     H 6068  -0.352   1.513  11.573 -2.1175  0.3845 -0.1812
   45MOL0     H 6069  -0.513   1.729  11.700 -0.7129 -0.4899 -2.3417
   45MOL0     H 6070  -0.563   1.571  11.651 -1.7726  2.1313 -0.4757
   45MOL0     H 6071  -0.355   1.475  12.006 -0.8892 -2.2388 -0.8828
   45MOL0     H 6072  -0.116   1.357  11.298 -1.5695  0.8884 -1.9472
   45MOL0     H 6073   0.118   1.250  11.017 -0.7974  1.4010 -0.2639
   45MOL0     H 6074   0.184   1.236  11.174  1.0110 -2.8127 -2.1907
   45MOL0     H 6075   0.014   1.185  11.152 -1.5016  1.1491 -0.1848
   46MOL0     O 6076   2.207   6.204   9.690  0.0572  0.3763  0.6264
   46MOL0     C 6077   2.158   6.133   9.776  0.9007 -0.5414 -0.0421
   46MOL0     O 6078   2.219   6.124   9.899  0.1468  0.1595 -0.2944
   46MOL0     C 6079   2.356   6.143   9.892 -0.3165  0.2933 -0.6106
   46MOL0     C 6080   2.421   6.209   9.996  0.3354 -0.7542 -0.0994
   46MOL0     C 6081   2.559   6.222   9.997 -0.0453 -0.6249  0.1158
   46MOL0     C 6082   2.632   6.169   9.890 -0.6062  0.0518  0.4105
   46MOL0     O 6083   2.768   6.170   9.873  0.6391  0.3517 -0.2434
   46MOL0     C 6084   2.833   6.256   9.961  1.4690 -1.1364  0.0653
   46MOL0     C 6085   2.986   6.216   9.972  0.8996  0.4142 -0.1901
   46MOL0     C 6086   3.027   6.226  10.123 -0.0057  0.8653  0.9580
   46MOL0     C 6087   3.181   6.242  10.130  1.4063  1.2809 -0.3774
   46MOL0     C 6088   3.241   6.266  10.272 -0.7408 -0.3054 -0.3092
   46MOL0     C 6089   3.399   6.272  10.281 -0.9341  0.5422  0.0046
   46MOL0     C 6090   3.448   6.127  10.290  0.8813 -0.0012 -0.3103
   46MOL0     C 6091   3.586   6.089  10.234 -0.0513 -0.2944 -0.6991
   46MOL0     N 6092   3.688   6.139  10.321  0.3190  0.2258 -0.1041
   46MOL0     C 6093   3.703   6.269  10.366  0.6624  0.4398 -0.0160
   46MOL0     C 6094   3.826   6.266  10.423 -0.1077 -1.2317 -0.1244
   46MOL0     C 6095   3.899   6.383  10.493  0.6380  0.6640  0.6591
   46MOL0     C 6096   3.995   6.466  10.409 -0.4154  0.6735  0.3813
   46MOL0     C 6097   4.105   6.367  10.352 -0.2786  0.1343 -0.1777
   46MOL0     C 6098   4.221   6.455  10.287  0.2830 -0.4014  0.0724
   46MOL0     O 6099   4.291   6.367  10.196 -0.4432 -0.3812  0.1233
   46MOL0     C 6100   4.411   6.400  10.140  0.1244 -0.4931 -0.2285
   46MOL0     C 6101   4.477   6.310  10.050  0.6788  0.1327 -0.0853
   46MOL0     C 6102   4.583   6.352   9.974 -0.0900 -0.0116 -0.2350
   46MOL0     C 6103   4.648   6.473   9.997 -0.2039 -0.0555 -0.3099
   46MOL0     C 6104   4.780   6.519   9.932  0.1015  0.0539  0.0191
   46MOL0     O 6105   4.862   6.427   9.860 -0.0237 -0.5308 -0.1967
   46MOL0     C 6106   4.988   6.443   9.806  0.0435 -1.0297 -0.5108
   46MOL0     C 6107   5.029   6.565   9.753 -0.1600 -0.8255 -0.2039
   46MOL0     C 6108   5.135   6.577   9.663  0.9405 -0.0441 -0.0661
   46MOL0     C 6109   5.219   6.467   9.652  1.0325 -0.1029 -0.8187
   46MOL0     O 6110   5.319   6.475   9.569 -0.3236  0.1696  0.2108
   46MOL0     C 6111   5.451   6.476   9.631 -0.1811 -0.2713  0.6233
   46MOL0     C 6112   5.510   6.329   9.607 -0.5274  0.3839 -0.1100
   46MOL0     C 6113   5.660   6.348   9.579 -0.0247  0.5616 -0.0272
   46MOL0     C 6114   5.721   6.206   9.548  0.3783  0.2373 -0.0136
   46MOL0     C 6115   5.858   6.216   9.483 -0.2801  0.3275 -0.7337
   46MOL0     C 6116   5.878   6.308   9.355 -0.0620 -0.1097 -0.2988
   46MOL0     C 6117   6.030   6.329   9.321 -1.4042  0.0966 -0.3498
   46MOL0     C 6118   6.048   6.441   9.228  1.4199 -0.3649  0.7882
   46MOL0    Cl 6119   5.964   6.398   9.073 -0.5829 -0.0451 -0.0498
   46MOL0     C 6120   5.190   6.347   9.727  1.3110 -0.6580 -0.4090
   46MOL0     C 6121   5.067   6.335   9.791 -0.4440  0.4322 -0.6424
   46MOL0     O 6122   4.806   6.633   9.949 -0.3220  0.3685  0.7788
   46MOL0     C 6123   4.593   6.568  10.093  0.0321  0.0639 -0.7145
   46MOL0     C 6124   4.470   6.530  10.154 -0.4046 -0.7358 -0.5311
   46MOL0     N 6125   3.876   6.140  10.420  0.0738  0.2710 -0.3295
   46MOL0     N 6126   3.794   6.066  10.348  1.0183  0.4903 -1.1506
   46MOL0     C 6127   2.573   6.102   9.785 -0.8221  0.3085  0.8232
   46MOL0     C 6128   2.434   6.075   9.795 -0.3356  0.1523 -0.2101
   46MOL0     C 6129   2.024   6.067   9.754  0.0234 -0.0155  0.7754
   46MOL0     C 6130   1.981   5.971   9.843  0.0850  0.2007 -0.2678
   46MOL0     C 6131   1.850   5.924   9.841 -0.5056 -0.6344  0.2744
   46MOL0     C 6132   1.755   5.966   9.742 -1.5082  0.6430  0.8105
   46MOL0     O 6133   1.626   5.908   9.749 -0.0136 -0.4307  0.4489
   46MOL0     C 6134   1.583   5.847   9.625  0.5385  0.2923 -0.1580
   46MOL0     C 6135   1.480   5.745   9.683  0.0110  0.6955  0.6737
   46MOL0     C 6136   1.486   5.617   9.593 -0.6930 -0.1202 -0.8234
   46MOL0     C 6137   1.394   5.503   9.644 -0.1541 -0.9550  0.7296
   46MOL0     C 6138   1.257   5.549   9.627  0.6721  0.2724  0.0427
   46MOL0     C 6139   1.151   5.607   9.617  0.7800  1.1423 -0.6226
   46MOL0     C 6140   1.803   6.049   9.635  0.2903  0.2793  0.1049
   46MOL0     C 6141   1.933   6.103   9.644  0.0483 -0.7547 -0.6075
   46MOL0     C 6142   1.948   6.208   9.535  0.6433  0.9895 -0.0020
   46MOL0     H 6143   2.368   6.264  10.073 -0.7901 -0.1287 -1.2869
   46MOL0     H 6144   2.611   6.276  10.076 -1.5886  0.1205  0.6578
   46MOL0     H 6145   2.817   6.358   9.926 -0.0527 -1.2229  0.4799
   46MOL0     H 6146   2.798   6.239  10.064  0.4620 -2.3645 -0.4507
   46MOL0     H 6147   3.047   6.291   9.921 -0.6573  0.6723 -1.7672
   46MOL0     H 6148   2.997   6.116   9.929 -0.1662 -0.4657  1.4687
   46MOL0     H 6149   2.999   6.137  10.179  1.0711 -2.2309 -2.9932
   46MOL0     H 6150   2.982   6.316  10.167 -2.0796  1.3380 -1.8532
   46MOL0     H 6151   3.217   6.146  10.094 -1.5098  0.1902 -0.6992
   46MOL0     H 6152   3.209   6.333  10.076  0.1894  2.4606  0.8790
   46MOL0     H 6153   3.194   6.353  10.319  0.5983  0.2489  0.0397
   46MOL0     H 6154   3.213   6.184  10.339  0.7351 -0.1172  0.5937
   46MOL0     H 6155   3.433   6.317  10.187 -1.7588 -0.1593 -0.6477
   46MOL0     H 6156   3.442   6.330  10.364  1.9873  0.0201 -1.0317
   46MOL0     H 6157   3.367   6.073  10.240  0.1591  1.0487 -0.3027
   46MOL0     H 6158   3.433   6.092  10.393 -3.1482 -2.6061 -1.5184
   46MOL0     H 6159   3.590   5.980  10.222 -0.5015 -0.4157  0.1405
   46MOL0     H 6160   3.585   6.133  10.134  1.7736 -2.3674 -1.7230
   46MOL0     H 6161   3.639   6.356  10.357  0.2580 -0.0876 -3.2517
   46MOL0     H 6162   3.820   6.446  10.533 -0.6041 -0.7436  0.5141
   46MOL0     H 6163   3.954   6.336  10.575 -2.5406 -1.2227  1.8967
   46MOL0     H 6164   3.936   6.521  10.336  0.2165 -0.7830 -1.3176
   46MOL0     H 6165   4.048   6.538  10.472  0.5829  1.7649 -1.6290
   46MOL0     H 6166   4.064   6.311  10.267  0.4681  1.3307 -1.3556
   46MOL0     H 6167   4.145   6.299  10.428  0.2551  0.7730  0.1184
   46MOL0     H 6168   4.275   6.499  10.371 -1.4311 -0.9761  1.5467
   46MOL0     H 6169   4.184   6.541  10.230  0.5385  0.5657  1.3127
   46MOL0     H 6170   4.427   6.214  10.041 -1.7151  1.5165 -4.5084
   46MOL0     H 6171   4.632   6.284   9.905  3.2484  0.1514  1.7683
   46MOL0     H 6172   4.970   6.654   9.773  2.0017  1.0986 -1.8076
   46MOL0     H 6173   5.160   6.666   9.606  1.9548  0.3582  0.9473
   46MOL0     H 6174   5.516   6.549   9.582  0.9806 -1.8047 -0.2200
   46MOL0     H 6175   5.447   6.491   9.739 -1.4176 -0.1052  0.5680
   46MOL0     H 6176   5.488   6.277   9.700  1.4525  0.9402  0.7144
   46MOL0     H 6177   5.455   6.279   9.527 -0.9475  0.2693  0.2486
   46MOL0     H 6178   5.669   6.419   9.497 -1.8305 -1.0466 -1.7280
   46MOL0     H 6179   5.703   6.392   9.669  1.7373  1.0177 -1.0390
   46MOL0     H 6180   5.661   6.148   9.478  0.4141  0.0721  0.0916
   46MOL0     H 6181   5.712   6.148   9.641 -3.3302  2.0238  0.9249
   46MOL0     H 6182   5.897   6.115   9.466  0.0106  0.4545 -0.8263
   46MOL0     H 6183   5.922   6.269   9.554 -0.0397  2.0024 -2.1375
   46MOL0     H 6184   5.821   6.275   9.268  0.6474  0.5669 -1.0407
   46MOL0     H 6185   5.841   6.405   9.389  3.7634  0.8042  1.8472
   46MOL0     H 6186   6.078   6.238   9.284  0.3437  0.6280  0.5374
   46MOL0     H 6187   6.078   6.351   9.416 -0.6333  0.5661 -0.8438
   46MOL0     H 6188   6.022   6.533   9.280 -0.0567  0.4120 -1.2264
   46MOL0     H 6189   6.155   6.455   9.209  2.0433 -2.9260  2.0244
   46MOL0     H 6190   5.261   6.265   9.714  1.6581 -0.8566  2.1631
   46MOL0     H 6191   5.040   6.238   9.831  3.0119  0.3222  1.8178
   46MOL0     H 6192   4.637   6.666  10.104  2.2053 -1.0147  0.8457
   46MOL0     H 6193   4.420   6.606  10.213 -1.4175 -0.3625 -1.8118
   46MOL0     H 6194   2.634   6.063   9.704  2.1144 -2.2300  3.9634
   46MOL0     H 6195   2.385   6.027   9.710 -1.4049  0.9768 -0.0819
   46MOL0     H 6196   2.042   5.933   9.925 -0.8835 -1.0727 -0.1153
   46MOL0     H 6197   1.809   5.853   9.912 -2.8906 -1.6291 -1.9400
   46MOL0     H 6198   1.664   5.803   9.567  1.6844  1.9975  0.0699
   46MOL0     H 6199   1.527   5.928   9.577 -0.0118  0.5253  0.8359
   46MOL0     H 6200   1.382   5.790   9.697 -1.0505 -1.6678  1.3057
   46MOL0     H 6201   1.520   5.715   9.780  1.4326  4.0864  1.3153
   46MOL0     H 6202   1.585   5.575   9.577 -1.2817 -2.0330  0.2166
   46MOL0     H 6203   1.454   5.644   9.492  1.0413  0.8067 -1.1572
   46MOL0     H 6204   1.417   5.407   9.597 -3.4569 -1.4676 -0.0915
   46MOL0     H 6205   1.409   5.491   9.751  1.3878  2.6822  1.0972
   46MOL0     H 6206   1.058   5.661   9.620  0.1616  0.2359  4.5172
   46MOL0     H 6207   1.743   6.081   9.551  0.3747 -1.1587 -0.5433
   46MOL0     H 6208   1.866   6.214   9.462  0.8005 -1.6776 -0.4888
   46MOL0     H 6209   1.974   6.307   9.574 -0.2518  1.2680 -0.0906
   46MOL0     H 6210   2.034   6.181   9.473 -0.6773  1.8542 -2.3284
   47MOL0     O 6211   6.391   5.540   5.630  0.6495 -0.0276 -0.6658
   47MOL0     C 6212   6.311   5.501   5.545  0.8746 -0.8402 -0.0573
   47MOL0     O 6213   6.340   5.496   5.405 -0.2543  0.3422  0.2339
   47MOL0     C 6214   6.446   5.557   5.355 -0.3775 -0.2967 -0.0361
   47MOL0     C 6215   6.560   5.478   5.331  0.7607 -0.1434  0.6202
   47MOL0     C 6216   6.665   5.531   5.254 -0.0124  0.4120 -0.2163
   47MOL0     C 6217   6.669   5.663   5.214  0.2062 -0.4908 -0.0070
   47MOL0     O 6218   6.783   5.715   5.162 -0.0019  0.4039 -1.1587
   47MOL0     C 6219   6.780   5.797   5.050  0.0129  0.6711 -0.4671
   47MOL0     C 6220   6.918   5.872   5.026 -0.3910 -0.5340 -0.5665
   47MOL0     C 6221   7.032   5.775   5.010  0.6569  0.5764 -0.2536
   47MOL0     C 6222   7.160   5.847   4.999 -0.3899 -0.1540  0.2973
   47MOL0     C 6223   7.267   5.765   4.917 -0.0420 -0.6997  0.1021
   47MOL0     C 6224   7.235   5.746   4.773  0.0829 -0.9452 -0.2438
   47MOL0     C 6225   7.231   5.885   4.702  0.6866 -0.1211  0.7392
   47MOL0     C 6226   7.238   5.858   4.551  0.3332 -0.1258  0.5765
   47MOL0     N 6227   7.377   5.852   4.490  0.6286  0.1327 -0.6437
   47MOL0     C 6228   7.409   5.880   4.354 -0.1787  1.4838  0.0815
   47MOL0     C 6229   7.548   5.900   4.357 -0.0523  0.3505  0.2122
   47MOL0     C 6230   7.639   5.926   4.235 -0.7823  0.1005 -0.4820
   47MOL0     C 6231   7.664   6.070   4.215  0.0885  0.2780  0.6040
   47MOL0     C 6232   7.798   6.125   4.276 -0.3413  0.0144 -0.0290
   47MOL0     C 6233   7.926   6.055   4.224  0.2874 -0.3036 -0.6574
   47MOL0     O 6234   8.034   6.141   4.258 -0.1790 -0.2992 -0.4866
   47MOL0     C 6235   8.159   6.103   4.277 -1.0159 -0.1045  0.0889
   47MOL0     C 6236   8.218   5.986   4.237 -0.8440  0.0946 -0.3490
   47MOL0     C 6237   8.346   5.954   4.259 -1.1851  0.6160  0.4769
   47MOL0     C 6238   8.428   6.056   4.315 -0.0314  0.0320  1.0984
   47MOL0     C 6239   8.579   6.041   4.312 -0.2792 -0.7244  0.6838
   47MOL0     O 6240   8.631   5.942   4.246 -0.2505  0.7074 -0.2951
   47MOL0     C 6241   8.767   5.933   4.218  0.0579  0.4041 -0.0107
   47MOL0     C 6242   8.871   6.031   4.216 -0.6561  1.2957  0.1872
   47MOL0     C 6243   9.002   5.994   4.180 -0.0497 -0.1065 -0.4277
   47MOL0     C 6244   9.031   5.864   4.145  0.2074 -0.6248 -0.2277
   47MOL0     O 6245   9.154   5.808   4.113 -0.4004  0.3982  0.2102
   47MOL0     C 6246   9.256   5.900   4.070  0.1864 -0.4009 -0.6068
   47MOL0     C 6247   9.386   5.816   4.060  0.4000  0.4992 -0.1819
   47MOL0     C 6248   9.508   5.899   4.017 -0.7905  0.5127  0.2951
   47MOL0     C 6249   9.537   6.026   4.095  0.3249  0.4204  0.2994
   47MOL0     C 6250   9.686   6.062   4.098  0.0821 -0.6343  0.2222
   47MOL0     C 6251   9.704   6.209   4.149 -0.0132  0.2321  0.0731
   47MOL0     C 6252   9.847   6.261   4.130 -0.4548  0.3661 -0.3770
   47MOL0     C 6253   9.947   6.189   4.225 -0.0480 -0.1435  0.2428
   47MOL0    Cl 6254  10.096   6.287   4.230 -0.0586  0.2392  0.3403
   47MOL0     C 6255   8.923   5.772   4.132  0.0283 -0.1648  1.4632
   47MOL0     C 6256   8.797   5.809   4.167  0.9154  0.1967  0.6510
   47MOL0     O 6257   8.639   6.126   4.378  0.0637 -0.4040  0.7306
   47MOL0     C 6258   8.373   6.168   4.367  0.3675  0.5683  0.2900
   47MOL0     C 6259   8.240   6.188   4.356 -0.0970 -0.1147 -0.4990
   47MOL0     N 6260   7.597   5.886   4.489  0.6418 -0.5079  0.3860
   47MOL0     N 6261   7.490   5.868   4.563 -0.4504  0.1301 -0.0583
   47MOL0     C 6262   6.554   5.741   5.247  0.3429  0.2607  0.0242
   47MOL0     C 6263   6.449   5.688   5.311  0.5281  0.0915  1.3707
   47MOL0     C 6264   6.186   5.452   5.600  1.2060 -0.3325  0.1755
   47MOL0     C 6265   6.074   5.528   5.554  0.6178  0.1413 -0.1045
   47MOL0     C 6266   5.945   5.494   5.608 -0.2441 -0.0222 -0.5283
   47MOL0     C 6267   5.935   5.396   5.704  0.5727  1.3087 -1.0170
   47MOL0     O 6268   5.806   5.344   5.722 -0.1620 -0.1140  0.3677
   47MOL0     C 6269   5.761   5.278   5.842  0.4694  0.3119  1.0135
   47MOL0     C 6270   5.637   5.191   5.814 -0.5769  0.1723  0.1608
   47MOL0     C 6271   5.537   5.247   5.708 -0.5131  0.0401  0.9746
   47MOL0     C 6272   5.416   5.161   5.688 -0.5272  0.1705  0.3714
   47MOL0     C 6273   5.304   5.211   5.759 -0.0940 -0.2933  1.1011
   47MOL0     C 6274   5.207   5.258   5.816 -0.2527  0.6814 -0.1130
   47MOL0     C 6275   6.051   5.336   5.757 -0.2512  0.5801  0.3129
   47MOL0     C 6276   6.177   5.356   5.707  1.0454  0.7934 -0.1887
   47MOL0     C 6277   6.296   5.288   5.758  0.5874  0.2155  0.0207
   47MOL0     H 6278   6.568   5.373   5.354 -1.4382  0.0049  2.3589
   47MOL0     H 6279   6.758   5.478   5.233 -0.6963 -0.2153 -1.8089
   47MOL0     H 6280   6.753   5.743   4.959  1.4957 -1.6682  0.4121
   47MOL0     H 6281   6.704   5.876   5.060  0.2349  0.5514  3.3635
   47MOL0     H 6282   6.931   5.912   5.127 -2.0524 -4.2418  1.3454
   47MOL0     H 6283   6.899   5.935   4.939 -5.1365 -1.3624 -0.4356
   47MOL0     H 6284   7.012   5.698   4.935  0.6758  0.6196 -0.3028
   47MOL0     H 6285   7.060   5.721   5.101  0.8870 -1.5214 -1.5032
   47MOL0     H 6286   7.148   5.948   4.959 -2.0746 -0.3711  0.1857
   47MOL0     H 6287   7.194   5.870   5.100  1.3039  0.1134 -0.3050
   47MOL0     H 6288   7.366   5.811   4.923 -1.3499  2.4913 -0.8480
   47MOL0     H 6289   7.274   5.667   4.966  0.2507 -1.6719 -1.7731
   47MOL0     H 6290   7.322   5.695   4.731  1.6782  1.7367 -0.4174
   47MOL0     H 6291   7.144   5.688   4.756 -1.2560 -0.4662  4.0094
   47MOL0     H 6292   7.300   5.961   4.740 -0.7999  0.9274  1.4236
   47MOL0     H 6293   7.131   5.925   4.716  0.5604 -0.0221 -0.3222
   47MOL0     H 6294   7.178   5.767   4.536 -0.2130 -0.4272  3.8257
   47MOL0     H 6295   7.189   5.938   4.496 -2.2873 -2.1592 -0.2348
   47MOL0     H 6296   7.353   5.878   4.261  0.6959  0.0258 -0.4426
   47MOL0     H 6297   7.740   5.883   4.246 -0.7616  0.1354 -0.5404
   47MOL0     H 6298   7.606   5.870   4.147  3.2595 -0.9322 -1.5599
   47MOL0     H 6299   7.688   6.074   4.108  0.6948 -0.0720  0.7251
   47MOL0     H 6300   7.579   6.129   4.249  1.6356  0.9265  3.7844
   47MOL0     H 6301   7.803   6.112   4.385 -0.3242  0.7106  0.0577
   47MOL0     H 6302   7.823   6.229   4.252  1.4862 -0.6870 -1.4699
   47MOL0     H 6303   7.921   6.027   4.118 -2.3668 -1.1987 -0.3783
   47MOL0     H 6304   7.947   5.968   4.288  0.4348  1.4954  1.8648
   47MOL0     H 6305   8.156   5.908   4.194 -1.4803 -0.6966  1.8754
   47MOL0     H 6306   8.392   5.870   4.208 -3.6070  0.6061 -1.9206
   47MOL0     H 6307   8.857   6.138   4.232  1.1022  1.5197  0.4216
   47MOL0     H 6308   9.084   6.065   4.176 -0.0361 -0.1398 -0.7357
   47MOL0     H 6309   9.232   5.931   3.968 -0.9724 -0.0312 -0.2429
   47MOL0     H 6310   9.270   5.980   4.143 -1.0789 -0.6124 -0.1070
   47MOL0     H 6311   9.407   5.782   4.162 -1.3768 -0.1075  0.0070
   47MOL0     H 6312   9.368   5.722   4.008  1.5909 -0.8877  1.7829
   47MOL0     H 6313   9.585   5.822   4.031 -2.3356 -0.8709  1.5012
   47MOL0     H 6314   9.502   5.934   3.914  1.1835  0.5457  0.1507
   47MOL0     H 6315   9.497   6.000   4.193 -2.4889  1.2021 -0.5637
   47MOL0     H 6316   9.472   6.105   4.058 -0.9507  0.2892  2.1399
   47MOL0     H 6317   9.730   6.062   3.998  0.8929 -0.5034  0.5664
   47MOL0     H 6318   9.744   5.987   4.154  1.8285  1.5437  1.4721
   47MOL0     H 6319   9.635   6.272   4.092  1.3719  0.6914 -1.1505
   47MOL0     H 6320   9.670   6.222   4.252  5.0635  1.6432  1.8517
   47MOL0     H 6321   9.829   6.366   4.156 -2.1269 -0.1269  0.6677
   47MOL0     H 6322   9.893   6.262   4.031 -1.5963  0.4679 -0.9206
   47MOL0     H 6323   9.922   6.184   4.331 -0.7517 -0.3044  0.0730
   47MOL0     H 6324   9.977   6.088   4.195 -0.4251 -0.5509  1.2227
   47MOL0     H 6325   8.941   5.676   4.085  0.0632  0.8858 -0.8007
   47MOL0     H 6326   8.713   5.741   4.158  1.4798 -0.4189 -0.0745
   47MOL0     H 6327   8.427   6.229   4.438 -1.2660 -1.2442  3.2535
   47MOL0     H 6328   8.204   6.272   4.415  1.0157 -0.0905  0.1699
   47MOL0     H 6329   6.545   5.842   5.208 -4.7602  0.9180  2.0695
   47MOL0     H 6330   6.369   5.758   5.337  1.3472  0.4363  3.1346
   47MOL0     H 6331   6.071   5.575   5.457  2.1873  0.1899 -0.1525
   47MOL0     H 6332   5.864   5.556   5.572  0.0937 -0.5223 -2.2044
   47MOL0     H 6333   5.740   5.357   5.914 -1.5013  0.9824 -0.2289
   47MOL0     H 6334   5.834   5.201   5.868  1.1040 -1.5567 -4.7311
   47MOL0     H 6335   5.586   5.178   5.910 -0.8780 -0.5162 -0.0910
   47MOL0     H 6336   5.664   5.090   5.780 -4.9607 -0.2996 -2.6221
   47MOL0     H 6337   5.591   5.243   5.613  0.3403  1.8838  1.3313
   47MOL0     H 6338   5.512   5.349   5.739  1.1932  0.6168  0.5509
   47MOL0     H 6339   5.401   5.159   5.580 -0.4670 -1.3485  0.3707
   47MOL0     H 6340   5.430   5.053   5.699 -0.4952 -0.0718 -1.7680
   47MOL0     H 6341   5.123   5.309   5.858 -1.0125 -2.8693  3.2736
   47MOL0     H 6342   6.036   5.248   5.819 -0.1718 -0.1001 -0.6008
   47MOL0     H 6343   6.375   5.267   5.686  1.7983  3.6590  0.1801
   47MOL0     H 6344   6.334   5.353   5.837 -0.6158  1.3131 -0.2562
   47MOL0     H 6345   6.276   5.186   5.793 -1.5686  0.1711 -1.1794
   48MOL0     O 6346   9.263   6.525   8.659 -0.5043  1.3099  0.2022
   48MOL0     C 6347   9.257   6.609   8.752  0.2236  0.9879  0.2734
   48MOL0     O 6348   9.290   6.569   8.882 -0.6145 -0.0478  1.0885
   48MOL0     C 6349   9.263   6.435   8.917 -0.9466 -0.8353 -0.7038
   48MOL0     C 6350   9.339   6.330   8.872  0.6706  0.6340  0.4033
   48MOL0     C 6351   9.304   6.206   8.931 -0.1140  0.5274 -0.1594
   48MOL0     C 6352   9.207   6.183   9.030 -0.0625 -0.0082  0.3508
   48MOL0     O 6353   9.199   6.056   9.078  0.2894 -0.1720 -0.7053
   48MOL0     C 6354   9.172   6.053   9.221  0.4053  0.4248  0.6160
   48MOL0     C 6355   9.193   5.919   9.298  0.1313  0.0523  0.1161
   48MOL0     C 6356   9.317   5.829   9.272  0.7194 -0.4254  0.4093
   48MOL0     C 6357   9.305   5.696   9.356  0.1155 -0.6361 -0.5187
   48MOL0     C 6358   9.322   5.583   9.275 -1.4428  0.7262 -0.7366
   48MOL0     C 6359   9.194   5.550   9.202 -0.0484 -0.1994  0.0602
   48MOL0     C 6360   9.208   5.438   9.109 -0.5686  0.6496  0.3907
   48MOL0     C 6361   9.220   5.302   9.165 -0.1877  0.0889 -0.3900
   48MOL0     N 6362   9.230   5.208   9.058 -0.7543  0.3618 -0.3483
   48MOL0     C 6363   9.342   5.152   9.021 -0.1796  0.5096 -0.3680
   48MOL0     C 6364   9.312   5.093   8.899 -0.4027  1.1824 -0.0439
   48MOL0     C 6365   9.414   5.014   8.816  1.3843 -1.2563 -0.1951
   48MOL0     C 6366   9.499   4.920   8.899  0.1907 -0.9008  0.1668
   48MOL0     C 6367   9.626   4.887   8.821  0.3366 -0.9246  0.2984
   48MOL0     C 6368   9.713   4.787   8.890  0.6276  0.1443 -0.3352
   48MOL0     O 6369   9.655   4.661   8.879  0.0234  0.2193  0.7195
   48MOL0     C 6370   9.720   4.556   8.944 -0.9793  0.9666 -0.8306
   48MOL0     C 6371   9.838   4.559   9.012  0.4150  0.4482  0.2226
   48MOL0     C 6372   9.879   4.438   9.074  0.7495  0.3623  0.7072
   48MOL0     C 6373   9.813   4.316   9.071  0.3835  0.1711  0.3083
   48MOL0     C 6374   9.869   4.184   9.122 -0.0125 -0.3713  0.5334
   48MOL0     O 6375   9.817   4.076   9.060 -0.4994  0.2624  0.8036
   48MOL0     C 6376   9.872   3.952   9.090  0.0108 -0.8627 -1.1036
   48MOL0     C 6377   9.796   3.852   9.136  0.0602  0.6561  0.4135
   48MOL0     C 6378   9.845   3.727   9.162  0.4445  0.7179 -0.4630
   48MOL0     C 6379   9.978   3.696   9.135 -0.1525  0.0987  0.3814
   48MOL0     O 6380  10.013   3.564   9.158  0.1323 -0.9023  0.1476
   48MOL0     C 6381  10.150   3.532   9.158  0.5267  0.4330  0.5303
   48MOL0     C 6382  10.175   3.409   9.246 -0.3517 -0.5171  0.1161
   48MOL0     C 6383  10.320   3.355   9.241  1.0947 -0.3498 -0.4210
   48MOL0     C 6384  10.359   3.313   9.101 -1.6760  0.8204  0.5136
   48MOL0     C 6385  10.495   3.240   9.120  0.9107  0.1746 -0.5822
   48MOL0     C 6386  10.563   3.201   8.990 -0.0474  0.0087 -0.6765
   48MOL0     C 6387  10.636   3.322   8.914  0.6260  0.2431 -0.5631
   48MOL0     C 6388  10.779   3.287   8.915  0.1371 -0.6687 -0.3647
   48MOL0    Cl 6389  10.833   3.320   9.083  0.1242  0.4556  0.0998
   48MOL0     C 6390  10.063   3.802   9.085  0.2936  0.3761  0.8972
   48MOL0     C 6391   9.998   3.924   9.050  0.4918 -0.2914 -0.3356
   48MOL0     O 6392   9.958   4.186   9.206  0.3430 -0.5104 -0.7136
   48MOL0     C 6393   9.694   4.319   9.002 -0.6352 -0.1059  0.5895
   48MOL0     C 6394   9.650   4.437   8.942  0.9457 -0.0235 -0.7422
   48MOL0     N 6395   9.182   5.103   8.870 -0.2739  0.3661  0.0477
   48MOL0     N 6396   9.135   5.179   8.965 -0.0485  0.4369  0.6131
   48MOL0     C 6397   9.135   6.299   9.073 -0.4104  0.3322 -0.3669
   48MOL0     C 6398   9.176   6.422   9.024 -0.2719 -0.4243 -0.1329
   48MOL0     C 6399   9.211   6.752   8.718 -0.8434 -0.3262 -0.0297
   48MOL0     C 6400   9.176   6.764   8.584  0.3050  0.0313  1.3217
   48MOL0     C 6401   9.088   6.870   8.538 -0.3617  0.1329  0.1368
   48MOL0     C 6402   9.062   6.970   8.630 -0.0639 -0.6687  0.1206
   48MOL0     O 6403   8.989   7.084   8.602  0.6223  0.1661  0.4458
   48MOL0     C 6404   8.916   7.108   8.478  0.2554 -0.9199 -1.3048
   48MOL0     C 6405   8.829   7.230   8.498  0.4189  0.0599  0.0868
   48MOL0     C 6406   8.913   7.363   8.512 -0.3690 -0.1346 -0.0792
   48MOL0     C 6407   8.818   7.471   8.568 -0.6776  0.8106 -0.5992
   48MOL0     C 6408   8.730   7.546   8.475  0.0078 -0.5820 -0.4775
   48MOL0     C 6409   8.673   7.607   8.388  0.0793 -0.2912 -0.1349
   48MOL0     C 6410   9.109   6.964   8.764  0.4542  0.9537 -0.4643
   48MOL0     C 6411   9.189   6.857   8.811  0.5063 -0.8517  0.6902
   48MOL0     C 6412   9.237   6.849   8.951 -0.3413 -0.3460 -0.5302
   48MOL0     H 6413   9.421   6.318   8.801 -0.2516 -2.9656 -0.2609
   48MOL0     H 6414   9.359   6.116   8.906 -0.3015  0.3397  0.0982
   48MOL0     H 6415   9.248   6.118   9.266  1.5726  0.6782 -1.5820
   48MOL0     H 6416   9.075   6.101   9.235  1.7504  3.8808 -0.6767
   48MOL0     H 6417   9.110   5.850   9.287 -0.6868  1.1640 -0.9641
   48MOL0     H 6418   9.187   5.945   9.404 -0.4537 -1.8632  0.5934
   48MOL0     H 6419   9.412   5.881   9.290  1.6031  0.6335 -5.4748
   48MOL0     H 6420   9.323   5.808   9.165  2.4011  1.0032  0.1662
   48MOL0     H 6421   9.384   5.704   9.431 -0.0052  3.1085 -0.6158
   48MOL0     H 6422   9.208   5.691   9.407 -0.2050 -2.0841 -1.2052
   48MOL0     H 6423   9.405   5.607   9.209  0.3195 -1.5725  0.5034
   48MOL0     H 6424   9.333   5.493   9.337 -0.7834  1.3373  0.0456
   48MOL0     H 6425   9.122   5.516   9.276 -1.1827  0.7336 -0.5879
   48MOL0     H 6426   9.164   5.646   9.160  1.5318  1.1911  1.9343
   48MOL0     H 6427   9.293   5.460   9.043 -0.2260  1.1053  0.9739
   48MOL0     H 6428   9.118   5.439   9.047 -0.4723 -0.6812  0.1893
   48MOL0     H 6429   9.307   5.291   9.231 -0.6984 -2.3921 -0.0247
   48MOL0     H 6430   9.128   5.286   9.222  0.1855  1.3308  0.6199
   48MOL0     H 6431   9.434   5.155   9.078  0.4690  1.1269 -1.4290
   48MOL0     H 6432   9.360   4.958   8.738 -0.7491  0.2179  0.1316
   48MOL0     H 6433   9.467   5.094   8.765  2.1787  0.4051  3.0015
   48MOL0     H 6434   9.530   4.958   8.997  0.7843 -2.0640  0.4478
   48MOL0     H 6435   9.442   4.827   8.904 -1.4295  0.0998  1.8523
   48MOL0     H 6436   9.695   4.969   8.800  1.5061 -2.2509 -1.2887
   48MOL0     H 6437   9.603   4.856   8.718  1.2727  0.5801 -0.3923
   48MOL0     H 6438   9.739   4.824   8.989  1.9571  1.0679 -1.0070
   48MOL0     H 6439   9.804   4.786   8.829  2.2397  3.2148  1.7559
   48MOL0     H 6440   9.903   4.646   9.022 -0.5190  1.3872 -1.4876
   48MOL0     H 6441   9.976   4.443   9.122  2.7396  2.7007 -3.0666
   48MOL0     H 6442   9.696   3.887   9.160  0.0910  1.7597 -0.9593
   48MOL0     H 6443   9.776   3.666   9.221  1.7968  1.4281  1.9768
   48MOL0     H 6444  10.186   3.521   9.056 -0.9475  3.9879 -0.5286
   48MOL0     H 6445  10.199   3.613   9.213 -0.1661  2.9798 -2.3205
   48MOL0     H 6446  10.157   3.422   9.353 -0.5101 -1.5090  0.2264
   48MOL0     H 6447  10.101   3.336   9.209 -2.3885  2.1722 -1.4883
   48MOL0     H 6448  10.396   3.423   9.280 -1.0815  2.9218 -1.4264
   48MOL0     H 6449  10.302   3.264   9.299 -1.3395  0.8289  0.8667
   48MOL0     H 6450  10.380   3.406   9.047  2.3839 -0.7084 -0.9290
   48MOL0     H 6451  10.287   3.255   9.044  0.3322  0.1011 -1.4509
   48MOL0     H 6452  10.477   3.148   9.176  0.3895 -0.3763 -1.6199
   48MOL0     H 6453  10.568   3.298   9.177  1.6301 -1.3866  0.1521
   48MOL0     H 6454  10.636   3.122   9.011 -0.8972 -1.4184 -2.7418
   48MOL0     H 6455  10.493   3.157   8.919 -1.2962 -1.6827  1.4838
   48MOL0     H 6456  10.616   3.416   8.967 -2.8884 -1.2947  1.1779
   48MOL0     H 6457  10.600   3.326   8.811 -2.9244  0.3013  0.5550
   48MOL0     H 6458  10.788   3.187   8.872 -2.9556 -2.1407  1.9491
   48MOL0     H 6459  10.826   3.354   8.842  1.6590 -1.5683 -0.2599
   48MOL0     H 6460  10.169   3.792   9.064 -0.4228 -1.9672 -2.3473
   48MOL0     H 6461  10.049   3.995   8.986 -0.2771  0.5291 -0.0485
   48MOL0     H 6462   9.628   4.234   9.010 -0.9698 -0.0475 -1.2112
   48MOL0     H 6463   9.555   4.434   8.889  0.8704 -0.0450 -0.6055
   48MOL0     H 6464   9.060   6.296   9.151  0.5963  0.4738  0.6305
   48MOL0     H 6465   9.130   6.514   9.057 -1.5382 -0.9543 -0.3289
   48MOL0     H 6466   9.211   6.684   8.520  3.6243 -0.7506  3.8368
   48MOL0     H 6467   9.051   6.872   8.435 -0.1063  0.4705  0.0489
   48MOL0     H 6468   8.848   7.024   8.467  0.3912 -1.4719  1.4620
   48MOL0     H 6469   8.983   7.120   8.392  1.2759 -0.9891 -0.5384
   48MOL0     H 6470   8.752   7.216   8.574  1.0011  0.5577  0.7765
   48MOL0     H 6471   8.775   7.244   8.404  0.4564  0.7154  0.1572
   48MOL0     H 6472   8.958   7.397   8.419 -1.8471  1.5027 -0.2444
   48MOL0     H 6473   8.995   7.339   8.581  0.1354 -0.8877 -0.9287
   48MOL0     H 6474   8.753   7.425   8.643  0.4493 -1.1196 -0.7563
   48MOL0     H 6475   8.889   7.538   8.618  0.0916  0.6976 -1.5221
   48MOL0     H 6476   8.614   7.652   8.311  0.8119  0.2356 -0.3976
   48MOL0     H 6477   9.082   7.041   8.836  1.3259  0.5972  0.2605
   48MOL0     H 6478   9.179   6.774   9.005  0.9952 -0.1936  1.2294
   48MOL0     H 6479   9.340   6.813   8.954 -0.5901 -1.0303 -0.1310
   48MOL0     H 6480   9.230   6.949   8.995  0.4010 -0.0947 -0.9493
   49MOL0     O 6481   3.181  10.101   7.335  0.0170 -0.0303  0.8939
   49MOL0     C 6482   3.259  10.153   7.407 -0.1168 -0.0731  0.3654
   49MOL0     O 6483   3.274  10.287   7.407  0.0866 -0.2786  0.3396
   49MOL0     C 6484   3.249  10.360   7.287 -0.0792 -0.1119 -0.9717
   49MOL0     C 6485   3.211  10.494   7.315  0.6414  0.5027 -0.5339
   49MOL0     C 6486   3.195  10.581   7.210 -0.2904  0.3820 -1.0017
   49MOL0     C 6487   3.216  10.541   7.082 -0.2365  0.0078  0.3605
   49MOL0     O 6488   3.187  10.631   6.987 -0.4661 -0.4436  0.0297
   49MOL0     C 6489   3.064  10.591   6.921  0.0297 -0.3331  0.2930
   49MOL0     C 6490   3.067  10.665   6.795  0.3700 -1.0093  0.8435
   49MOL0     C 6491   3.044  10.817   6.818  0.8092  1.1396 -0.4190
   49MOL0     C 6492   3.171  10.906   6.858  0.0743  0.7542 -0.8299
   49MOL0     C 6493   3.117  11.021   6.939  0.5230 -0.3889  0.4697
   49MOL0     C 6494   3.084  10.983   7.077  0.4092 -0.4119 -0.1993
   49MOL0     C 6495   3.049  11.111   7.164 -0.3129  0.3306  0.6614
   49MOL0     C 6496   2.986  11.076   7.299  1.0168  0.5940  0.3432
   49MOL0     N 6497   3.076  10.997   7.381  0.4451  0.2591  0.5565
   49MOL0     C 6498   3.171  11.049   7.463 -0.0293 -0.8989 -0.4040
   49MOL0     C 6499   3.193  10.952   7.551  0.3627 -0.2697 -0.1959
   49MOL0     C 6500   3.304  10.947   7.645  0.0258 -0.0582 -0.7179
   49MOL0     C 6501   3.393  10.824   7.622 -0.0490 -0.0120  0.3371
   49MOL0     C 6502   3.455  10.816   7.477  0.1542  0.1072 -0.1244
   49MOL0     C 6503   3.499  10.673   7.450 -0.4620 -0.1912 -0.5245
   49MOL0     O 6504   3.600  10.616   7.543  0.4395  1.4126  0.2209
   49MOL0     C 6505   3.719  10.688   7.558 -0.1281  0.4281  0.9421
   49MOL0     C 6506   3.794  10.742   7.451  0.3807  0.3101 -0.7718
   49MOL0     C 6507   3.905  10.825   7.484  0.3953  0.3537 -0.2497
   49MOL0     C 6508   3.949  10.848   7.617 -0.6731  0.3091 -0.2963
   49MOL0     C 6509   4.070  10.925   7.649 -0.4133  0.3583 -0.5885
   49MOL0     O 6510   4.123  11.001   7.546 -0.3096 -0.1285  0.2689
   49MOL0     C 6511   4.248  11.056   7.565 -1.1562  0.3938 -0.4637
   49MOL0     C 6512   4.359  10.973   7.546 -0.1877  0.5133 -0.2358
   49MOL0     C 6513   4.494  11.019   7.552  1.3587 -0.6955 -0.0259
   49MOL0     C 6514   4.517  11.159   7.564  0.1157 -0.4880  0.3549
   49MOL0     O 6515   4.632  11.231   7.563 -0.0456 -0.2645 -0.3404
   49MOL0     C 6516   4.695  11.255   7.433  0.2225 -0.4665 -0.4605
   49MOL0     C 6517   4.803  11.366   7.465  0.5198  0.2077  0.0023
   49MOL0     C 6518   4.884  11.422   7.347 -0.4291 -0.3976 -0.2232
   49MOL0     C 6519   4.958  11.315   7.270  0.0739 -0.0959  0.3388
   49MOL0     C 6520   5.044  11.377   7.156  0.5350  0.4925 -0.5684
   49MOL0     C 6521   5.161  11.297   7.109 -0.1338 -0.6356 -1.6262
   49MOL0     C 6522   5.235  11.368   6.994 -1.2574 -0.7527  0.3529
   49MOL0     C 6523   5.366  11.300   6.967  0.4304 -0.8718  0.4320
   49MOL0    Cl 6524   5.492  11.365   7.090 -0.0682  0.3767  0.5442
   49MOL0     C 6525   4.400  11.245   7.580  0.1808  0.1323 -0.2312
   49MOL0     C 6526   4.270  11.197   7.582  0.1521  0.5384  0.8859
   49MOL0     O 6527   4.130  10.889   7.749  0.3217 -0.1880  0.0802
   49MOL0     C 6528   3.872  10.791   7.714 -0.6872  0.2756 -0.5114
   49MOL0     C 6529   3.761  10.720   7.687  0.8189  0.9531 -0.2680
   49MOL0     N 6530   3.119  10.838   7.511 -0.0693 -0.5480  0.6570
   49MOL0     N 6531   3.041  10.867   7.419 -0.4999 -0.4184  0.1262
   49MOL0     C 6532   3.253  10.411   7.051  1.1440 -0.3581 -0.5282
   49MOL0     C 6533   3.269  10.315   7.154 -0.2297 -0.6832  0.6233
   49MOL0     C 6534   3.331  10.058   7.500 -0.3582 -0.8736 -1.2064
   49MOL0     C 6535   3.263   9.937   7.545 -0.1149 -0.3089 -0.8242
   49MOL0     C 6536   3.338   9.847   7.627  0.3443 -0.7966  0.3888
   49MOL0     C 6537   3.468   9.874   7.660 -0.1015 -0.5557 -0.3283
   49MOL0     O 6538   3.542   9.784   7.737 -0.0413 -0.3921  0.4644
   49MOL0     C 6539   3.618   9.697   7.654 -0.2002  0.2326  1.3958
   49MOL0     C 6540   3.760   9.767   7.624 -0.3040  0.4707  0.3335
   49MOL0     C 6541   3.825   9.801   7.755 -0.1130 -0.1463 -0.0063
   49MOL0     C 6542   3.885   9.679   7.823 -0.5099  1.1303  0.5536
   49MOL0     C 6543   4.012   9.638   7.775 -0.3762  0.4926  1.2609
   49MOL0     C 6544   4.110   9.600   7.716 -0.5646  0.2518 -0.5827
   49MOL0     C 6545   3.525  10.001   7.627  0.2529  0.5946  0.8442
   49MOL0     C 6546   3.468  10.090   7.534 -0.2954 -0.2600  0.0087
   49MOL0     C 6547   3.551  10.195   7.466 -0.2159  0.5643 -0.5380
   49MOL0     H 6548   3.183  10.521   7.416  2.6058 -3.4595  1.3020
   49MOL0     H 6549   3.149  10.677   7.235  1.0104  0.8079 -0.1373
   49MOL0     H 6550   3.067  10.483   6.902 -0.7127 -0.1422 -0.9706
   49MOL0     H 6551   2.974  10.604   6.982 -2.0670 -1.9273 -2.2248
   49MOL0     H 6552   2.984  10.628   6.734  1.7682 -0.2676 -1.6426
   49MOL0     H 6553   3.154  10.636   6.736  0.0904 -2.6054  1.1684
   49MOL0     H 6554   2.971  10.822   6.899  0.1647  1.1054 -0.9939
   49MOL0     H 6555   2.989  10.861   6.735 -1.1353  0.5000  0.4929
   49MOL0     H 6556   3.247  10.847   6.910  0.3084  0.6258 -1.3159
   49MOL0     H 6557   3.225  10.938   6.768  1.9210  0.1256  0.0086
   49MOL0     H 6558   3.177  11.112   6.931 -0.6890  0.2987 -1.9425
   49MOL0     H 6559   3.028  11.054   6.884  3.0858 -0.8470 -4.4774
   49MOL0     H 6560   3.015  10.898   7.079  1.5409 -1.3835 -1.0815
   49MOL0     H 6561   3.180  10.953   7.120  1.1693 -1.7325 -2.6548
   49MOL0     H 6562   2.993  11.182   7.103 -0.6343 -1.4637 -1.2190
   49MOL0     H 6563   3.139  11.170   7.180  0.7102 -0.8309 -0.5846
   49MOL0     H 6564   2.951  11.163   7.354 -0.5631 -0.0278  0.3634
   49MOL0     H 6565   2.901  11.013   7.271  1.3859 -0.0084  0.5575
   49MOL0     H 6566   3.237  11.134   7.474 -0.7140 -0.6040  2.0008
   49MOL0     H 6567   3.363  11.038   7.633 -1.6092  1.4073  1.4490
   49MOL0     H 6568   3.282  10.954   7.752  3.5061 -0.2446  0.1236
   49MOL0     H 6569   3.480  10.835   7.687  0.4264 -2.2740  0.1620
   49MOL0     H 6570   3.342  10.733   7.653  2.1886 -1.0883  1.1059
   49MOL0     H 6571   3.536  10.890   7.469  1.1369 -0.8948  0.2366
   49MOL0     H 6572   3.377  10.841   7.405  0.0673 -1.7369 -0.7178
   49MOL0     H 6573   3.554  10.668   7.355 -1.0593 -1.6825 -0.8113
   49MOL0     H 6574   3.407  10.615   7.440  0.9758 -3.0327  1.3635
   49MOL0     H 6575   3.765  10.730   7.347 -0.3916 -0.3513 -0.4888
   49MOL0     H 6576   3.952  10.868   7.396 -0.4702  0.7505 -0.5235
   49MOL0     H 6577   4.320  10.872   7.535  0.2154  0.3284  0.0106
   49MOL0     H 6578   4.567  10.939   7.545  2.2043  0.0507  0.0789
   49MOL0     H 6579   4.760  11.169   7.412  3.7325  1.4451  1.5253
   49MOL0     H 6580   4.633  11.289   7.350  2.6103 -1.1320 -2.6722
   49MOL0     H 6581   4.750  11.454   7.502  1.0187  1.1949 -1.5135
   49MOL0     H 6582   4.859  11.327   7.550 -0.3797  1.9662  1.4912
   49MOL0     H 6583   4.814  11.464   7.275 -3.9033 -1.2682  2.3861
   49MOL0     H 6584   4.953  11.499   7.384  1.5176 -1.8574 -0.6533
   49MOL0     H 6585   4.900  11.227   7.240  0.2479 -0.4252  0.9372
   49MOL0     H 6586   5.029  11.271   7.341 -1.9351 -2.7830  0.8493
   49MOL0     H 6587   5.082  11.473   7.192 -0.4279  0.7459 -0.2011
   49MOL0     H 6588   4.993  11.397   7.062  1.6995  0.2019 -1.2861
   49MOL0     H 6589   5.229  11.280   7.193  0.5431 -1.5943 -2.3549
   49MOL0     H 6590   5.135  11.193   7.088  0.4769 -0.3370 -4.1022
   49MOL0     H 6591   5.274  11.467   7.020 -0.1627 -0.7015 -1.3798
   49MOL0     H 6592   5.169  11.381   6.908 -1.4445 -0.7139  0.5003
   49MOL0     H 6593   5.368  11.193   6.993  2.6100 -1.4117 -1.6198
   49MOL0     H 6594   5.401  11.318   6.865  0.5289 -3.4580 -0.0709
   49MOL0     H 6595   4.424  11.348   7.603  3.2160 -0.9151  1.9155
   49MOL0     H 6596   4.186  11.262   7.603 -0.6980 -0.4857  0.7463
   49MOL0     H 6597   3.907  10.806   7.815  2.0281 -2.0006 -0.9826
   49MOL0     H 6598   3.701  10.672   7.764  3.4301 -1.9891  0.1636
   49MOL0     H 6599   3.273  10.377   6.950  1.1660  0.5581 -0.8346
   49MOL0     H 6600   3.302  10.215   7.126 -2.4584 -0.9082 -1.5548
   49MOL0     H 6601   3.161   9.914   7.517 -1.0524  1.1850  1.1675
   49MOL0     H 6602   3.295   9.753   7.660 -0.7008 -0.1358  0.9728
   49MOL0     H 6603   3.562   9.667   7.565  3.5697 -0.0333 -1.1364
   49MOL0     H 6604   3.629   9.600   7.703 -0.8195 -1.7709 -2.1235
   49MOL0     H 6605   3.738   9.855   7.564 -0.5386 -0.6215 -1.2296
   49MOL0     H 6606   3.826   9.701   7.567 -0.3468 -0.4279  1.2855
   49MOL0     H 6607   3.744   9.849   7.811  1.7729  0.9365  1.9613
   49MOL0     H 6608   3.888   9.889   7.741 -1.0181  0.3373 -1.1785
   49MOL0     H 6609   3.893   9.688   7.932 -1.9891 -3.1544  1.2361
   49MOL0     H 6610   3.819   9.592   7.815 -0.4771  0.9233  2.1915
   49MOL0     H 6611   4.199   9.553   7.679 -0.6391 -2.4439  2.2415
   49MOL0     H 6612   3.627  10.018   7.659  0.5213  0.1009  0.2681
   49MOL0     H 6613   3.549  10.289   7.522 -0.8353  1.9940 -2.8030
   49MOL0     H 6614   3.653  10.157   7.465 -0.9564 -1.7692  1.6740
   49MOL0     H 6615   3.524  10.199   7.360 -2.7460  0.6272  0.0432
   50MOL0     O 6616   2.395   1.091   0.477  0.5647 -0.5139  0.0725
   50MOL0     C 6617   2.296   1.164   0.506  0.0837  0.6271 -0.3228
   50MOL0     O 6618   2.294   1.287   0.565 -0.9442 -0.0410  0.4604
   50MOL0     C 6619   2.406   1.319   0.628  0.0975 -0.5181 -0.0448
   50MOL0     C 6620   2.513   1.392   0.569 -0.7891  0.0593 -0.3798
   50MOL0     C 6621   2.619   1.429   0.656 -0.0627  0.6220 -0.6825
   50MOL0     C 6622   2.631   1.377   0.782  0.7733 -0.3951 -0.1366
   50MOL0     O 6623   2.745   1.401   0.855  0.0765 -0.5697 -0.2450
   50MOL0     C 6624   2.739   1.443   0.992 -0.2870 -0.3118 -0.1639
   50MOL0     C 6625   2.878   1.503   1.022 -0.6459  0.2116 -0.2599
   50MOL0     C 6626   2.904   1.633   0.945  0.4225  0.2593  0.1985
   50MOL0     C 6627   3.001   1.624   0.830 -0.6716 -0.0388  0.2087
   50MOL0     C 6628   3.043   1.765   0.796 -0.5278 -0.2695 -0.2164
   50MOL0     C 6629   3.162   1.774   0.687  0.2258 -0.6202 -0.7900
   50MOL0     C 6630   3.178   1.928   0.656 -0.0123  0.2103  0.7318
   50MOL0     C 6631   3.282   1.971   0.551  0.5678  0.8668 -0.5481
   50MOL0     N 6632   3.405   1.956   0.624  0.4240 -1.1773  0.1742
   50MOL0     C 6633   3.504   1.866   0.607  0.0797 -0.1980 -0.1382
   50MOL0     C 6634   3.605   1.919   0.694  0.3725  0.2975 -0.2512
   50MOL0     C 6635   3.737   1.860   0.720  0.5903  0.1338 -0.5013
   50MOL0     C 6636   3.729   1.770   0.849 -0.1612 -0.4514 -0.2554
   50MOL0     C 6637   3.844   1.670   0.858  0.1078 -0.0321 -0.1176
   50MOL0     C 6638   3.881   1.648   1.007 -0.0545 -0.1138  0.3661
   50MOL0     O 6639   4.009   1.584   1.010 -0.0085 -0.0364 -0.4739
   50MOL0     C 6640   4.064   1.549   1.134 -0.5306 -0.6449  0.5743
   50MOL0     C 6641   3.999   1.546   1.257 -0.2023  0.3631 -0.3229
   50MOL0     C 6642   4.071   1.503   1.374 -0.0006  0.0333  0.0624
   50MOL0     C 6643   4.210   1.473   1.351  0.0184  0.4249 -1.1778
   50MOL0     C 6644   4.286   1.421   1.469 -0.1232  0.2964  0.5501
   50MOL0     O 6645   4.239   1.460   1.591  0.1909 -1.0157  0.0586
   50MOL0     C 6646   4.301   1.434   1.709 -0.9278 -0.1627  0.6480
   50MOL0     C 6647   4.441   1.392   1.733 -0.0871 -0.1646 -0.0657
   50MOL0     C 6648   4.495   1.376   1.862  0.0354 -0.7122  0.5423
   50MOL0     C 6649   4.397   1.393   1.972  0.5922 -0.2115 -0.6731
   50MOL0     O 6650   4.444   1.378   2.099  0.1464 -0.4530  0.1218
   50MOL0     C 6651   4.568   1.327   2.128 -0.0376  0.8836  0.0034
   50MOL0     C 6652   4.589   1.341   2.285  0.1525 -0.3267 -0.0063
   50MOL0     C 6653   4.724   1.288   2.328 -0.7026 -0.7833  1.2600
   50MOL0     C 6654   4.839   1.398   2.349  0.3806 -0.5724 -0.6944
   50MOL0     C 6655   4.968   1.340   2.411  0.4051 -0.3865 -0.1119
   50MOL0     C 6656   4.969   1.312   2.562 -0.9423  0.0472  0.1529
   50MOL0     C 6657   5.111   1.260   2.605  0.3867  0.1860 -0.4982
   50MOL0     C 6658   5.151   1.296   2.750 -0.4023  0.4519  0.1711
   50MOL0    Cl 6659   5.036   1.210   2.864 -0.3551  0.0204 -0.0763
   50MOL0     C 6660   4.257   1.424   1.947  0.4729  0.3881 -0.0833
   50MOL0     C 6661   4.223   1.457   1.819  0.5141  0.2259  0.2392
   50MOL0     O 6662   4.383   1.337   1.452 -0.3773 -0.3570  0.2657
   50MOL0     C 6663   4.268   1.467   1.225  0.1271 -0.2176 -0.1069
   50MOL0     C 6664   4.198   1.516   1.114 -0.9082  0.2202  0.8113
   50MOL0     N 6665   3.566   2.042   0.738 -0.2838 -0.1563  0.6145
   50MOL0     N 6666   3.450   2.069   0.691  0.2680 -0.5836  0.8313
   50MOL0     C 6667   2.523   1.303   0.830  0.6146 -0.4906  0.4037
   50MOL0     C 6668   2.412   1.273   0.762  0.1368 -0.4096  0.6936
   50MOL0     C 6669   2.170   1.122   0.449 -0.8122  0.3642 -0.2825
   50MOL0     C 6670   2.143   1.123   0.310 -0.3144  0.5453 -0.0816
   50MOL0     C 6671   2.014   1.094   0.263 -0.4030 -0.4891  0.0614
   50MOL0     C 6672   1.917   1.037   0.336 -0.5807  0.0032 -0.5170
   50MOL0     O 6673   1.789   1.007   0.290  0.8967 -0.4966 -0.0117
   50MOL0     C 6674   1.720   1.097   0.202 -0.1810  0.6045 -0.4542
   50MOL0     C 6675   1.562   1.108   0.228 -0.0237 -0.2382 -0.1293
   50MOL0     C 6676   1.473   1.033   0.119  0.3072 -0.2620  0.6489
   50MOL0     C 6677   1.534   0.890   0.089  0.2441  0.4234 -0.5287
   50MOL0     C 6678   1.420   0.800   0.048  1.0092 -0.3512  0.3235
   50MOL0     C 6679   1.334   0.712   0.024  0.0545 -0.7058  0.4471
   50MOL0     C 6680   1.945   1.022   0.475  0.0524  0.4704 -0.0744
   50MOL0     C 6681   2.069   1.058   0.531 -0.6093  0.2791  0.3034
   50MOL0     C 6682   2.083   1.066   0.684  0.5126 -0.1372 -0.1232
   50MOL0     H 6683   2.479   1.441   0.478  2.1615  1.8741 -0.6635
   50MOL0     H 6684   2.701   1.494   0.628  2.0140 -0.1307  3.0435
   50MOL0     H 6685   2.667   1.525   1.006  0.3598  0.9676 -3.3986
   50MOL0     H 6686   2.715   1.358   1.057  1.2996 -2.0568 -1.7306
   50MOL0     H 6687   2.950   1.422   1.014 -2.3655 -1.2445 -1.8241
   50MOL0     H 6688   2.868   1.543   1.124 -2.4652  3.0369 -1.3940
   50MOL0     H 6689   2.939   1.705   1.020 -2.0875  1.7829  0.0203
   50MOL0     H 6690   2.809   1.673   0.910  0.1322  0.0857  0.7868
   50MOL0     H 6691   3.090   1.569   0.862 -1.2603 -2.0146 -1.3598
   50MOL0     H 6692   2.972   1.577   0.736  3.9949 -1.2726 -0.8871
   50MOL0     H 6693   2.952   1.808   0.755 -0.8126  1.3385  1.9232
   50MOL0     H 6694   3.060   1.823   0.887 -0.4936  0.5415 -0.7301
   50MOL0     H 6695   3.254   1.733   0.730  0.8238 -2.9826 -3.9335
   50MOL0     H 6696   3.139   1.715   0.597 -0.1685  0.3308 -1.3242
   50MOL0     H 6697   3.197   1.985   0.747  0.0139 -3.7836  3.4813
   50MOL0     H 6698   3.085   1.962   0.609  1.0105  2.0641 -0.0571
   50MOL0     H 6699   3.282   1.900   0.468 -0.6007 -0.7518  0.7554
   50MOL0     H 6700   3.257   2.066   0.504  0.3260  0.9937 -0.1638
   50MOL0     H 6701   3.515   1.778   0.543 -1.8603 -1.7122  1.4880
   50MOL0     H 6702   3.760   1.802   0.629 -2.8309 -4.0095  0.9342
   50MOL0     H 6703   3.814   1.931   0.751  0.9181  0.1265 -1.2636
   50MOL0     H 6704   3.737   1.827   0.942  1.4021  0.3875 -0.8712
   50MOL0     H 6705   3.630   1.723   0.848  0.1471 -1.1093 -1.0906
   50MOL0     H 6706   3.937   1.717   0.824  0.7973 -0.5632  0.9883
   50MOL0     H 6707   3.814   1.576   0.810 -1.0509  1.0144 -1.5260
   50MOL0     H 6708   3.808   1.586   1.061  0.4199 -2.2758 -1.3210
   50MOL0     H 6709   3.892   1.745   1.055  2.6009 -0.7759  1.2578
   50MOL0     H 6710   3.899   1.578   1.284 -0.4743 -1.9433  1.7966
   50MOL0     H 6711   4.029   1.487   1.473  1.5206  0.9706  0.8970
   50MOL0     H 6712   4.502   1.370   1.646 -1.1456 -2.0507 -0.3587
   50MOL0     H 6713   4.601   1.358   1.873 -0.4766 -2.9331  2.9966
   50MOL0     H 6714   4.562   1.220   2.104  0.2355  0.2331  2.5457
   50MOL0     H 6715   4.645   1.381   2.073 -0.1666  0.7300 -0.3304
   50MOL0     H 6716   4.568   1.441   2.323 -0.8214  0.1236 -1.6638
   50MOL0     H 6717   4.508   1.285   2.334 -0.8019  1.5927  0.7132
   50MOL0     H 6718   4.700   1.236   2.421 -1.9196  1.0783  2.0476
   50MOL0     H 6719   4.754   1.211   2.256  1.7839  3.2855 -2.5909
   50MOL0     H 6720   4.797   1.483   2.402  0.6996 -0.9894  0.2502
   50MOL0     H 6721   4.871   1.439   2.253  1.4801  0.8466  0.2371
   50MOL0     H 6722   5.050   1.406   2.382  0.0638 -1.2287 -3.3824
   50MOL0     H 6723   4.989   1.246   2.359  0.3895  0.3175 -1.4340
   50MOL0     H 6724   4.950   1.408   2.610 -0.5189  0.5289 -0.6278
   50MOL0     H 6725   4.888   1.241   2.581 -1.6639  1.0549  0.9412
   50MOL0     H 6726   5.190   1.296   2.537  0.9309 -2.7383 -1.5668
   50MOL0     H 6727   5.113   1.151   2.600  2.9974  0.0502  1.1722
   50MOL0     H 6728   5.245   1.241   2.758 -0.5044  0.1124 -0.8768
   50MOL0     H 6729   5.162   1.401   2.780 -3.8329  0.1295  3.3587
   50MOL0     H 6730   4.188   1.444   2.028  2.1354 -1.0099  1.7670
   50MOL0     H 6731   4.122   1.491   1.800 -0.4916 -2.7280 -0.1976
   50MOL0     H 6732   4.370   1.435   1.209  0.1695 -1.1328  1.7692
   50MOL0     H 6733   4.248   1.504   1.018 -0.1279  0.0808  1.2365
   50MOL0     H 6734   2.532   1.273   0.934 -2.5456 -2.1227  0.3315
   50MOL0     H 6735   2.330   1.219   0.809  0.6279 -0.1950  1.8274
   50MOL0     H 6736   2.219   1.158   0.240 -0.5012  1.2837  0.0755
   50MOL0     H 6737   1.996   1.089   0.156  1.8583  1.7634 -0.5051
   50MOL0     H 6738   1.743   1.076   0.097  2.3068  0.4299  0.0522
   50MOL0     H 6739   1.752   1.200   0.221 -3.1091  1.7065 -0.9809
   50MOL0     H 6740   1.534   1.213   0.246  0.5448  0.0689 -0.9712
   50MOL0     H 6741   1.527   1.063   0.321  0.9172 -1.1906 -0.2259
   50MOL0     H 6742   1.465   1.098   0.032 -2.1913  1.6814  2.1872
   50MOL0     H 6743   1.373   1.018   0.163 -1.3103  1.1605 -2.2482
   50MOL0     H 6744   1.611   0.894   0.012  0.8271 -3.3953 -0.3217
   50MOL0     H 6745   1.580   0.850   0.180 -0.3867  1.4786  0.2755
   50MOL0     H 6746   1.263   0.640  -0.009  1.1867 -1.2852 -0.8190
   50MOL0     H 6747   1.862   0.975   0.526 -1.5290  1.6800 -1.4577
   50MOL0     H 6748   2.068   1.172   0.706 -1.5390 -0.3668 -0.2414
   50MOL0     H 6749   2.006   1.006   0.733 -1.0632  3.0961  1.6643
   50MOL0     H 6750   2.176   1.035   0.733  0.9828  1.3005 -0.0710
   51MOL0     O 6751   1.485   7.065   1.485  0.2905 -0.1187 -0.2084
   51MOL0     C 6752   1.491   6.962   1.548  0.5447  0.0174  1.2380
   51MOL0     O 6753   1.521   6.954   1.683  0.6720  0.0994  0.5257
   51MOL0     C 6754   1.513   7.070   1.753 -0.4514 -0.3117 -0.0263
   51MOL0     C 6755   1.414   7.059   1.857 -0.9325 -0.1222 -0.4534
   51MOL0     C 6756   1.403   7.158   1.955 -1.0400 -0.3821  0.0678
   51MOL0     C 6757   1.485   7.269   1.949 -0.0496 -0.6121  0.4252
   51MOL0     O 6758   1.461   7.370   2.037  0.0769 -0.7225  0.7916
   51MOL0     C 6759   1.511   7.503   2.001  0.0420  0.7416 -0.3412
   51MOL0     C 6760   1.477   7.592   2.123  0.8460 -0.0727 -0.2137
   51MOL0     C 6761   1.600   7.690   2.166 -0.1240 -0.8015 -0.3335
   51MOL0     C 6762   1.602   7.811   2.075  0.6256  0.3151  0.7200
   51MOL0     C 6763   1.679   7.932   2.135  0.3910  0.2200  0.0970
   51MOL0     C 6764   1.823   7.902   2.168 -0.1771  0.3586  0.0564
   51MOL0     C 6765   1.886   8.029   2.231 -0.0450  0.9318 -0.0779
   51MOL0     C 6766   2.033   8.002   2.274 -0.3445 -0.2006  0.0687
   51MOL0     N 6767   2.124   7.970   2.172  0.4203 -0.2925  0.6843
   51MOL0     C 6768   2.172   8.062   2.088  0.5731 -0.4327  0.5260
   51MOL0     C 6769   2.274   7.999   2.017 -1.0577  0.5424 -0.4892
   51MOL0     C 6770   2.366   8.065   1.918 -0.1283 -0.2350  0.6367
   51MOL0     C 6771   2.465   8.161   1.994 -0.1792  0.5433 -1.2112
   51MOL0     C 6772   2.584   8.191   1.912  0.0301  0.1430 -0.0554
   51MOL0     C 6773   2.674   8.285   1.985 -0.7577 -0.1689 -0.0537
   51MOL0     O 6774   2.761   8.364   1.907 -0.0432  0.8402 -0.0548
   51MOL0     C 6775   2.896   8.374   1.938  1.0138  0.9712  0.3474
   51MOL0     C 6776   2.943   8.363   2.068 -0.4398 -0.0418  0.1792
   51MOL0     C 6777   3.082   8.377   2.106 -0.7165  0.5882 -0.8945
   51MOL0     C 6778   3.183   8.407   2.008  0.7196  0.8586  0.6352
   51MOL0     C 6779   3.317   8.428   2.047 -1.3379  0.2203 -0.0989
   51MOL0     O 6780   3.384   8.497   1.954 -0.0146 -0.2309  0.3000
   51MOL0     C 6781   3.523   8.488   1.944  0.2203  0.6198 -0.5690
   51MOL0     C 6782   3.605   8.602   1.941  0.7246 -0.1321 -0.6703
   51MOL0     C 6783   3.739   8.585   1.938  0.1090  0.0214  0.8931
   51MOL0     C 6784   3.793   8.460   1.936 -0.2788 -0.4244  0.0153
   51MOL0     O 6785   3.925   8.438   1.928  0.0786 -0.4029  0.3140
   51MOL0     C 6786   4.024   8.539   1.965  0.3747  0.3973  0.3724
   51MOL0     C 6787   4.166   8.479   1.968 -0.0637 -0.3070  0.3002
   51MOL0     C 6788   4.234   8.459   2.107 -0.1211 -0.3110  0.1366
   51MOL0     C 6789   4.369   8.394   2.104 -0.2422  0.6265 -0.0837
   51MOL0     C 6790   4.431   8.390   2.237  0.2674  0.7492 -0.2036
   51MOL0     C 6791   4.564   8.314   2.234 -0.1362  0.1007 -0.0872
   51MOL0     C 6792   4.621   8.294   2.379  0.7050 -0.8165  0.1311
   51MOL0     C 6793   4.758   8.224   2.363 -0.2686  0.4181 -0.2311
   51MOL0    Cl 6794   4.897   8.323   2.296  0.7071  0.3329  0.1181
   51MOL0     C 6795   3.716   8.351   1.941 -0.5030 -0.0734  0.3493
   51MOL0     C 6796   3.574   8.356   1.937  0.4444 -0.4101  0.1148
   51MOL0     O 6797   3.372   8.387   2.146 -0.4338 -0.4136 -0.3339
   51MOL0     C 6798   3.128   8.415   1.874 -0.5117 -0.4132 -0.1627
   51MOL0     C 6799   2.989   8.417   1.842 -0.3395  0.2869 -0.5464
   51MOL0     N 6800   2.289   7.872   2.063  0.1976 -0.0426 -0.0272
   51MOL0     N 6801   2.193   7.854   2.157 -0.2515  0.0512  0.4312
   51MOL0     C 6802   1.578   7.281   1.836 -0.6521 -0.6622 -0.4762
   51MOL0     C 6803   1.590   7.177   1.745 -0.2418 -0.3587  0.6721
   51MOL0     C 6804   1.475   6.833   1.473 -0.1694  0.1845 -1.3119
   51MOL0     C 6805   1.486   6.708   1.549  0.1506 -0.5651 -0.0699
   51MOL0     C 6806   1.470   6.588   1.477 -0.3470 -0.7278  0.1638
   51MOL0     C 6807   1.464   6.572   1.338 -0.2326 -0.3592 -0.4735
   51MOL0     O 6808   1.436   6.455   1.285 -0.2494 -0.1608 -0.1423
   51MOL0     C 6809   1.352   6.441   1.171 -0.2881  0.1686 -0.2018
   51MOL0     C 6810   1.407   6.424   1.032  0.1378 -0.4609  0.3358
   51MOL0     C 6811   1.482   6.295   1.018  0.6622  0.4745  0.2564
   51MOL0     C 6812   1.581   6.284   0.904  0.6556  1.2063  1.0438
   51MOL0     C 6813   1.517   6.308   0.774  0.5608 -0.5493  0.1357
   51MOL0     C 6814   1.474   6.327   0.660 -0.2000 -0.5987 -0.5597
   51MOL0     C 6815   1.473   6.692   1.264 -0.6653  0.2237 -0.6840
   51MOL0     C 6816   1.476   6.818   1.330  1.6975  0.3165 -0.2499
   51MOL0     C 6817   1.488   6.938   1.242 -0.0334 -0.5602 -0.0022
   51MOL0     H 6818   1.360   6.965   1.860  0.9991 -1.2604  1.4609
   51MOL0     H 6819   1.330   7.174   2.034 -1.3395  1.7379 -0.5605
   51MOL0     H 6820   1.620   7.503   1.988  0.1146  3.8547 -0.4155
   51MOL0     H 6821   1.475   7.540   1.905 -1.0134 -0.6166 -0.5058
   51MOL0     H 6822   1.458   7.529   2.210 -1.2172  2.0539  0.9702
   51MOL0     H 6823   1.383   7.646   2.112  1.0548  0.2354 -0.5399
   51MOL0     H 6824   1.693   7.632   2.164  0.1295 -0.4234  0.3005
   51MOL0     H 6825   1.574   7.734   2.262 -0.2388 -1.0673 -0.2428
   51MOL0     H 6826   1.644   7.779   1.979 -1.3190  0.0602 -0.0832
   51MOL0     H 6827   1.502   7.848   2.051  0.6276  0.3192  0.7174
   51MOL0     H 6828   1.689   8.004   2.053 -0.9833 -0.4218 -0.6738
   51MOL0     H 6829   1.626   7.981   2.218 -0.9866 -0.8762 -0.1048
   51MOL0     H 6830   1.830   7.825   2.245  2.6377 -2.6693 -2.8963
   51MOL0     H 6831   1.876   7.863   2.081  1.5078  0.0017  1.2004
   51MOL0     H 6832   1.828   8.067   2.315 -0.0640 -1.1451  0.9072
   51MOL0     H 6833   1.885   8.103   2.150  3.2489  1.9986  0.7266
   51MOL0     H 6834   2.077   8.085   2.329  0.6653  1.2036 -2.6731
   51MOL0     H 6835   2.017   7.920   2.344 -0.4690  0.7604  1.1896
   51MOL0     H 6836   2.136   8.162   2.067  2.9290  0.1234 -1.1949
   51MOL0     H 6837   2.420   7.983   1.871  1.6186  1.6814 -0.8771
   51MOL0     H 6838   2.297   8.111   1.846 -1.5914 -1.0398  1.4801
   51MOL0     H 6839   2.415   8.257   2.011  1.3072  0.7784  3.0756
   51MOL0     H 6840   2.493   8.122   2.093 -0.6393 -0.6026 -1.5194
   51MOL0     H 6841   2.570   8.215   1.806 -2.1815  0.4068  0.2477
   51MOL0     H 6842   2.636   8.094   1.914  3.3658  1.7810  0.0967
   51MOL0     H 6843   2.728   8.229   2.062  2.8300  1.2097 -1.3272
   51MOL0     H 6844   2.604   8.353   2.035 -1.2462 -0.2863 -0.5779
   51MOL0     H 6845   2.874   8.334   2.146 -0.0458  0.3683  0.6826
   51MOL0     H 6846   3.111   8.353   2.208 -3.4437 -1.8112 -0.5537
   51MOL0     H 6847   3.548   8.693   1.925 -1.1033 -0.4912  2.7170
   51MOL0     H 6848   3.798   8.671   1.910 -1.0324 -0.3495 -3.3281
   51MOL0     H 6849   4.027   8.620   1.891 -0.6958  0.7315  0.6803
   51MOL0     H 6850   3.985   8.572   2.061  1.5029  0.7787  0.7186
   51MOL0     H 6851   4.155   8.390   1.906 -1.1201  0.5982 -0.8637
   51MOL0     H 6852   4.232   8.546   1.911 -0.9158  0.1927 -0.1060
   51MOL0     H 6853   4.240   8.558   2.154 -0.8975 -0.1736 -0.0371
   51MOL0     H 6854   4.159   8.397   2.157  1.8557 -1.7045  1.5166
   51MOL0     H 6855   4.434   8.444   2.032 -0.9026 -2.4359 -3.1016
   51MOL0     H 6856   4.356   8.290   2.071  1.0975  0.0025  1.2600
   51MOL0     H 6857   4.362   8.348   2.311 -1.5584 -0.1246 -2.2656
   51MOL0     H 6858   4.448   8.495   2.261  3.5933  0.7857 -2.1516
   51MOL0     H 6859   4.544   8.215   2.191 -1.8573 -0.7204  2.3527
   51MOL0     H 6860   4.642   8.364   2.175 -1.6130 -0.1148 -2.3546
   51MOL0     H 6861   4.559   8.230   2.442  2.2581 -1.3333  1.2001
   51MOL0     H 6862   4.636   8.394   2.421 -0.7951 -0.5692  0.1242
   51MOL0     H 6863   4.791   8.179   2.457  0.6034 -1.7736 -1.4879
   51MOL0     H 6864   4.753   8.141   2.291  2.2079  1.1281 -1.3368
   51MOL0     H 6865   3.767   8.261   1.909  0.6621  1.0112 -0.9473
   51MOL0     H 6866   3.519   8.265   1.919 -1.3278  0.1590  2.2374
   51MOL0     H 6867   3.193   8.436   1.789  1.2499 -3.6143  0.2496
   51MOL0     H 6868   2.958   8.430   1.738  3.7390  0.1069 -1.9562
   51MOL0     H 6869   1.647   7.362   1.814  0.7935 -2.1579 -1.6393
   51MOL0     H 6870   1.665   7.156   1.671  0.3034  1.0380  0.7926
   51MOL0     H 6871   1.505   6.707   1.656  1.9763  4.0203 -0.1157
   51MOL0     H 6872   1.468   6.501   1.542  3.4939 -1.7424 -0.8369
   51MOL0     H 6873   1.276   6.520   1.174 -0.1715  0.2686  0.1756
   51MOL0     H 6874   1.296   6.350   1.195 -1.1860  0.9459  0.7396
   51MOL0     H 6875   1.469   6.504   0.990 -2.5579  1.1019 -0.8906
   51MOL0     H 6876   1.320   6.421   0.966  1.4116 -0.3439 -1.4192
   51MOL0     H 6877   1.411   6.212   1.020  1.9160 -0.7031 -1.4869
   51MOL0     H 6878   1.533   6.271   1.112 -1.9990 -0.2078  1.6356
   51MOL0     H 6879   1.668   6.349   0.921  1.2238 -0.0809  3.3798
   51MOL0     H 6880   1.624   6.184   0.895  0.5140  1.3189 -1.9407
   51MOL0     H 6881   1.441   6.341   0.558 -1.4709 -2.3047 -0.4165
   51MOL0     H 6882   1.491   6.690   1.156 -0.4013  0.4292 -0.6451
   51MOL0     H 6883   1.496   6.922   1.134  3.3233  1.4006 -0.1806
   51MOL0     H 6884   1.402   7.001   1.265 -0.1608 -0.9634  0.6537
   51MOL0     H 6885   1.579   6.992   1.270  2.5904 -2.8636 -3.1570
   52MOL0     O 6886   1.866   9.918  11.290  0.4952 -0.5574 -0.2892
   52MOL0     C 6887   1.877   9.828  11.204  0.3831 -0.2427 -0.4472
   52MOL0     O 6888   1.974   9.741  11.208  0.5455  0.2838  0.0709
   52MOL0     C 6889   2.061   9.739  11.311 -0.6526  0.7368  0.7109
   52MOL0     C 6890   2.076   9.614  11.372  0.1075  0.3886 -0.1468
   52MOL0     C 6891   2.189   9.579  11.460 -0.5303  0.1618 -0.3317
   52MOL0     C 6892   2.283   9.678  11.476  0.2992 -1.0897 -0.2593
   52MOL0     O 6893   2.387   9.643  11.557 -0.6091 -0.0340 -0.3876
   52MOL0     C 6894   2.514   9.643  11.495  0.5679 -0.9096  0.3880
   52MOL0     C 6895   2.623   9.646  11.599  0.6133 -0.8921  0.3165
   52MOL0     C 6896   2.757   9.612  11.544  0.7621 -0.1572 -0.1357
   52MOL0     C 6897   2.856   9.602  11.666  0.2019  0.5322  0.2100
   52MOL0     C 6898   2.983   9.516  11.641 -0.0574  0.6511 -0.5667
   52MOL0     C 6899   3.079   9.522  11.760  1.4061  0.1113  0.2129
   52MOL0     C 6900   3.224   9.486  11.727  0.5069  0.3743  0.0897
   52MOL0     C 6901   3.322   9.531  11.843 -0.1584 -0.2061 -0.2109
   52MOL0     N 6902   3.447   9.460  11.843 -0.1598  0.2680 -0.3901
   52MOL0     C 6903   3.530   9.448  11.951  0.0403  0.4536 -0.5405
   52MOL0     C 6904   3.648   9.392  11.905 -0.6279 -0.2096  0.1367
   52MOL0     C 6905   3.778   9.378  11.981 -0.2174 -0.8902  0.2948
   52MOL0     C 6906   3.791   9.236  12.038 -0.2842  0.5417 -1.4078
   52MOL0     C 6907   3.915   9.208  12.117 -0.1839 -1.0101  0.4944
   52MOL0     C 6908   4.026   9.158  12.039  0.2240 -0.8466  0.0494
   52MOL0     O 6909   4.134   9.115  12.123 -0.4716  0.4002 -0.2649
   52MOL0     C 6910   4.252   9.081  12.062  0.0766 -0.4050 -0.3766
   52MOL0     C 6911   4.369   9.056  12.136  0.1956 -0.0333  0.1938
   52MOL0     C 6912   4.488   9.008  12.078  1.1612  0.3957 -0.4151
   52MOL0     C 6913   4.493   8.980  11.940  0.0800 -0.6030 -0.0110
   52MOL0     C 6914   4.612   8.913  11.883 -0.0384 -0.7167  0.1910
   52MOL0     O 6915   4.619   8.901  11.744 -1.1832  0.4431 -0.5679
   52MOL0     C 6916   4.741   8.868  11.692 -0.8094  0.2901  0.6872
   52MOL0     C 6917   4.778   8.923  11.575 -0.9823 -0.1751  0.3563
   52MOL0     C 6918   4.892   8.885  11.510 -0.8757 -0.7005  0.6059
   52MOL0     C 6919   4.973   8.786  11.556  0.0828  0.6319 -0.1136
   52MOL0     O 6920   5.091   8.780  11.491 -0.6767 -0.5655 -0.1016
   52MOL0     C 6921   5.197   8.690  11.526  0.6778  0.1698  0.1603
   52MOL0     C 6922   5.183   8.563  11.440  0.4612 -0.7180  0.2137
   52MOL0     C 6923   5.282   8.460  11.486 -0.6639 -0.2670 -0.0445
   52MOL0     C 6924   5.264   8.329  11.415 -0.1615 -0.4378  0.1995
   52MOL0     C 6925   5.393   8.245  11.408  0.0943  0.4017  0.3697
   52MOL0     C 6926   5.374   8.108  11.346  0.4444  0.1506 -0.1131
   52MOL0     C 6927   5.486   8.018  11.284  0.0577 -0.1803 -0.3021
   52MOL0     C 6928   5.585   7.983  11.396  1.1535  0.0374 -0.9662
   52MOL0    Cl 6929   5.717   7.867  11.328  0.0468 -0.1442  0.2605
   52MOL0     C 6930   4.935   8.719  11.672 -0.5938 -0.1376  0.1269
   52MOL0     C 6931   4.811   8.748  11.734 -0.2646  0.0669  0.4655
   52MOL0     O 6932   4.705   8.887  11.963 -0.3513  0.4768 -0.2964
   52MOL0     C 6933   4.367   8.985  11.865  0.2738  0.8940 -0.4196
   52MOL0     C 6934   4.258   9.041  11.923  0.3253 -0.9239 -0.4627
   52MOL0     N 6935   3.641   9.385  11.767  0.1148 -1.6443  0.6113
   52MOL0     N 6936   3.521   9.426  11.733  0.1320  1.0193 -0.7772
   52MOL0     C 6937   2.263   9.810  11.425  1.1388 -0.5755  0.2678
   52MOL0     C 6938   2.156   9.838  11.336 -0.1600 -0.5937  0.1732
   52MOL0     C 6939   1.795   9.817  11.084 -0.0433  0.1611  0.3341
   52MOL0     C 6940   1.801   9.698  11.002  0.1376  0.6586 -1.0226
   52MOL0     C 6941   1.729   9.696  10.876 -1.0086  0.0863 -0.6178
   52MOL0     C 6942   1.645   9.801  10.832 -0.5256  0.3055  0.2735
   52MOL0     O 6943   1.574   9.795  10.715  0.4842 -0.4006  0.1887
   52MOL0     C 6944   1.502   9.670  10.697  0.5366  1.0276 -0.1414
   52MOL0     C 6945   1.413   9.673  10.572 -0.3381  1.1578 -0.5654
   52MOL0     C 6946   1.483   9.699  10.435 -0.0877  0.9001 -0.8009
   52MOL0     C 6947   1.392   9.728  10.318  0.2815  0.2859 -0.0294
   52MOL0     C 6948   1.317   9.603  10.280  0.4670 -0.1170  0.2913
   52MOL0     C 6949   1.259   9.505  10.231 -0.3212  1.2741  0.8240
   52MOL0     C 6950   1.652   9.914  10.902  0.4310 -0.1493 -1.1990
   52MOL0     C 6951   1.719   9.924  11.030 -0.3649  0.6040 -0.3349
   52MOL0     C 6952   1.707  10.049  11.108 -0.2174  0.8295  0.1570
   52MOL0     H 6953   2.009   9.531  11.350  1.0260 -0.9646  1.7865
   52MOL0     H 6954   2.198   9.487  11.518  2.8946  0.3302 -0.3996
   52MOL0     H 6955   2.521   9.551  11.436 -0.6594 -1.0584  0.4515
   52MOL0     H 6956   2.518   9.734  11.435  0.9356 -0.5388  0.9678
   52MOL0     H 6957   2.585   9.574  11.672 -2.5211 -0.6154 -0.8748
   52MOL0     H 6958   2.635   9.745  11.644  0.4470 -0.5100 -0.4567
   52MOL0     H 6959   2.797   9.682  11.470 -2.0716 -0.3136 -1.9691
   52MOL0     H 6960   2.758   9.519  11.486 -1.0778 -0.9063  0.9447
   52MOL0     H 6961   2.897   9.699  11.695  3.0060 -0.1503 -1.1114
   52MOL0     H 6962   2.805   9.566  11.756  2.2936  1.7199  1.9890
   52MOL0     H 6963   2.955   9.410  11.633 -0.1141  0.5571  0.6690
   52MOL0     H 6964   3.034   9.556  11.553  1.8508  2.6580  1.3340
   52MOL0     H 6965   3.082   9.623  11.803 -2.6489  0.7570 -0.6373
   52MOL0     H 6966   3.037   9.463  11.842  2.2347  0.2781  0.7688
   52MOL0     H 6967   3.254   9.533  11.633 -2.4099  4.0111  0.6937
   52MOL0     H 6968   3.227   9.378  11.716 -1.8327  0.4466 -2.2106
   52MOL0     H 6969   3.346   9.636  11.825  1.2201 -0.3845  0.4034
   52MOL0     H 6970   3.274   9.516  11.941 -0.2109  0.1807 -0.1791
   52MOL0     H 6971   3.498   9.477  12.051  1.2137 -3.7893  1.2831
   52MOL0     H 6972   3.849   9.392  11.899  0.1485 -0.2960  0.6996
   52MOL0     H 6973   3.785   9.455  12.059 -3.2951  0.4319 -0.6098
   52MOL0     H 6974   3.704   9.221  12.102  2.3772 -0.1899  2.3433
   52MOL0     H 6975   3.769   9.157  11.965 -2.5127 -1.9028  1.6478
   52MOL0     H 6976   3.896   9.137  12.198  0.4682 -0.2469  1.3392
   52MOL0     H 6977   3.941   9.300  12.171 -1.2417  1.3168 -2.6594
   52MOL0     H 6978   4.056   9.223  11.956  2.1770 -2.8309 -0.8681
   52MOL0     H 6979   3.981   9.072  11.988 -1.7541  0.6050 -0.8215
   52MOL0     H 6980   4.370   9.067  12.244  0.2557  2.4648  0.0028
   52MOL0     H 6981   4.579   8.989  12.134 -0.2982 -1.7349  1.3888
   52MOL0     H 6982   4.716   9.000  11.529 -2.1991  0.2346  2.4914
   52MOL0     H 6983   4.930   8.949  11.431 -1.9180  1.5814  1.8836
   52MOL0     H 6984   5.289   8.740  11.493  1.2157 -1.1682 -0.4531
   52MOL0     H 6985   5.214   8.676  11.633  4.0704  0.1868 -0.2730
   52MOL0     H 6986   5.081   8.521  11.443  0.2966 -0.8589 -3.0684
   52MOL0     H 6987   5.187   8.581  11.332  2.8215 -0.9007  0.2273
   52MOL0     H 6988   5.388   8.488  11.484 -0.5441 -0.5327  1.6362
   52MOL0     H 6989   5.270   8.445  11.593  3.7075  0.0682  0.6660
   52MOL0     H 6990   5.214   8.346  11.319  0.3338  0.0636  0.0210
   52MOL0     H 6991   5.198   8.280  11.486 -1.3933  1.3738  0.3814
   52MOL0     H 6992   5.432   8.218  11.507  0.4893 -5.9598 -1.0871
   52MOL0     H 6993   5.463   8.308  11.353  0.8174  1.3472  2.2779
   52MOL0     H 6994   5.324   8.052  11.426  1.5209 -1.6624 -0.6366
   52MOL0     H 6995   5.296   8.107  11.269 -1.1127  0.1845  1.4070
   52MOL0     H 6996   5.532   8.062  11.195 -3.9801  3.4410 -0.9418
   52MOL0     H 6997   5.444   7.924  11.249 -0.7127 -0.0726  0.3005
   52MOL0     H 6998   5.631   8.076  11.431 -0.0782  0.6233 -0.8152
   52MOL0     H 6999   5.534   7.933  11.479  1.2731  1.4799  0.0027
   52MOL0     H 7000   5.000   8.645  11.717 -2.4548 -1.5577  0.6036
   52MOL0     H 7001   4.761   8.699  11.817 -2.5638  0.3684 -0.6561
   52MOL0     H 7002   4.361   8.946  11.764  2.1931  2.5311 -1.2372
   52MOL0     H 7003   4.174   9.052  11.856 -0.5908 -1.7763  0.5116
   52MOL0     H 7004   2.322   9.898  11.450 -0.8097  1.0285 -0.4547
   52MOL0     H 7005   2.142   9.932  11.283 -1.0490 -1.4229 -1.1405
   52MOL0     H 7006   1.863   9.617  11.040  0.0758  0.8366 -0.5293
   52MOL0     H 7007   1.761   9.627  10.798  5.5430 -0.5673  2.0489
   52MOL0     H 7008   1.430   9.650  10.776 -0.8416  1.6506 -1.2031
   52MOL0     H 7009   1.572   9.587  10.676  1.8956  2.3433 -1.0545
   52MOL0     H 7010   1.329   9.743  10.581 -1.5548 -0.3141  0.1369
   52MOL0     H 7011   1.359   9.578  10.564  0.2136  0.4032  3.2110
   52MOL0     H 7012   1.551   9.615  10.413 -2.1052 -1.0144 -0.0421
   52MOL0     H 7013   1.552   9.782  10.452  0.2342  0.1576  1.8697
   52MOL0     H 7014   1.331   9.814  10.343  2.0782  1.6635 -0.1869
   52MOL0     H 7015   1.451   9.769  10.236  1.3505 -0.7982  0.1613
   52MOL0     H 7016   1.217   9.410  10.204  0.3090  1.3564 -0.5077
   52MOL0     H 7017   1.585   9.995  10.876 -1.5850 -0.9942  0.9975
   52MOL0     H 7018   1.791  10.101  11.154  0.5628  0.5181 -0.8850
   52MOL0     H 7019   1.676  10.123  11.033 -1.0788  1.4896  1.1325
   52MOL0     H 7020   1.624  10.038  11.179 -2.1725  2.3510 -1.7409
   53MOL0     O 7021  11.368   1.213   2.249  0.5471  0.6182  0.2374
   53MOL0     C 7022  11.430   1.108   2.267  0.1291  0.1285 -0.4759
   53MOL0     O 7023  11.540   1.089   2.342 -0.3522  0.4855 -0.4926
   53MOL0     C 7024  11.614   1.197   2.381  0.4206 -0.1319 -0.7542
   53MOL0     C 7025  11.566   1.311   2.437 -0.3670  0.3621 -0.0341
   53MOL0     C 7026  11.660   1.419   2.464 -0.0356 -0.3660  0.1562
   53MOL0     C 7027  11.792   1.403   2.455  0.1591  0.4286  0.5699
   53MOL0     O 7028  11.875   1.509   2.472  0.3286 -0.0871  0.6567
   53MOL0     C 7029  11.950   1.563   2.355  0.4304  0.2115  0.3182
   53MOL0     C 7030  11.864   1.596   2.228  0.1496  0.3708  0.7316
   53MOL0     C 7031  11.943   1.713   2.158 -1.0830 -0.0125  1.5197
   53MOL0     C 7032  11.866   1.771   2.035 -0.5365  0.0190 -0.4943
   53MOL0     C 7033  11.951   1.855   1.935 -0.6003  1.3450 -0.8630
   53MOL0     C 7034  11.892   1.860   1.794 -0.1336 -0.7210  1.1697
   53MOL0     C 7035  11.997   1.928   1.716 -0.5011 -0.2365  1.0852
   53MOL0     C 7036  11.960   1.945   1.572 -0.3253 -0.1732 -0.1893
   53MOL0     N 7037  12.060   2.000   1.475  0.1147 -0.0617 -1.2675
   53MOL0     C 7038  12.142   1.932   1.391  0.4973 -0.2782  0.6206
   53MOL0     C 7039  12.200   2.031   1.314  0.4713  0.3885  0.4172
   53MOL0     C 7040  12.293   2.011   1.203 -0.3327  0.0186 -1.0617
   53MOL0     C 7041  12.227   1.994   1.061 -0.2155  0.1015 -0.1714
   53MOL0     C 7042  12.131   2.102   1.027  0.3679  0.6892  0.5683
   53MOL0     C 7043  12.177   2.241   1.012  0.2665 -0.1605  0.5567
   53MOL0     O 7044  12.248   2.258   0.892  1.2647  0.4650 -0.0118
   53MOL0     C 7045  12.326   2.372   0.872  0.3454  0.4581  0.1786
   53MOL0     C 7046  12.346   2.469   0.962 -0.3873  0.3139 -0.4920
   53MOL0     C 7047  12.431   2.577   0.932  0.3680 -0.7383 -0.3387
   53MOL0     C 7048  12.487   2.588   0.811  0.5276  0.0638  0.2130
   53MOL0     C 7049  12.555   2.711   0.762 -0.2486 -0.5211  0.2702
   53MOL0     O 7050  12.606   2.708   0.631 -0.9161 -0.2170  0.3415
   53MOL0     C 7051  12.704   2.796   0.585  0.0851  0.6555  0.3519
   53MOL0     C 7052  12.687   2.929   0.595  0.2130  0.2122  0.7832
   53MOL0     C 7053  12.792   3.014   0.554 -0.2025  0.0696 -0.4011
   53MOL0     C 7054  12.918   2.959   0.533 -0.4708  0.2566  0.6423
   53MOL0     O 7055  13.020   3.045   0.479  0.2515  0.2575 -0.6183
   53MOL0     C 7056  13.160   3.012   0.507 -0.2132  0.6298  0.3274
   53MOL0     C 7057  13.247   3.054   0.393 -0.4712  0.1697  0.5168
   53MOL0     C 7058  13.402   3.045   0.404 -0.6514 -0.0169 -0.7754
   53MOL0     C 7059  13.481   3.089   0.276  0.2378 -0.2801  1.0014
   53MOL0     C 7060  13.640   3.092   0.296  0.6798  0.6393 -0.0986
   53MOL0     C 7061  13.731   3.101   0.163 -0.0104  0.2008 -0.1677
   53MOL0     C 7062  13.878   3.093   0.204  0.4576  0.4230 -0.4071
   53MOL0     C 7063  13.921   3.226   0.258 -0.0328  0.2738  0.2595
   53MOL0    Cl 7064  14.106   3.210   0.282 -0.1597  0.1639  0.0898
   53MOL0     C 7065  12.936   2.819   0.519 -0.4453 -0.1524  0.0734
   53MOL0     C 7066  12.823   2.736   0.554  0.1033 -0.0648 -0.0249
   53MOL0     O 7067  12.576   2.795   0.853 -0.0263  0.1674  0.8984
   53MOL0     C 7068  12.472   2.485   0.717 -0.1384  0.3468  0.4103
   53MOL0     C 7069  12.387   2.378   0.745  1.0029 -0.1696 -0.7414
   53MOL0     N 7070  12.145   2.152   1.363  0.3973  0.1283 -0.5947
   53MOL0     N 7071  12.057   2.128   1.450  0.5594  0.6389 -0.5267
   53MOL0     C 7072  11.832   1.279   2.397  0.4838 -0.4038 -0.3519
   53MOL0     C 7073  11.750   1.178   2.360 -0.5431 -0.0983 -0.1343
   53MOL0     C 7074  11.385   0.983   2.196  0.4003 -0.0752  0.9059
   53MOL0     C 7075  11.479   0.883   2.195  0.8948 -0.5791  0.0617
   53MOL0     C 7076  11.447   0.785   2.103  0.6621  0.0869 -0.5615
   53MOL0     C 7077  11.337   0.776   2.021  0.1709  0.9636  0.6700
   53MOL0     O 7078  11.315   0.681   1.920 -0.5470 -0.1379 -0.2420
   53MOL0     C 7079  11.380   0.551   1.929  0.3612  0.0482  0.0524
   53MOL0     C 7080  11.303   0.461   2.024 -0.2910  0.0858 -0.7000
   53MOL0     C 7081  11.196   0.374   1.945  0.6228  0.0992 -0.1519
   53MOL0     C 7082  11.060   0.451   1.943  0.0988 -0.1941 -0.2359
   53MOL0     C 7083  10.965   0.399   2.043 -0.9346 -0.1507  1.2511
   53MOL0     C 7084  10.886   0.361   2.128  0.4953  0.0178 -0.5653
   53MOL0     C 7085  11.247   0.875   2.039 -0.1006  0.2466  0.8743
   53MOL0     C 7086  11.256   0.976   2.131 -0.6248  0.1777 -0.9181
   53MOL0     C 7087  11.132   1.069   2.153  0.5014  0.3540  0.1104
   53MOL0     H 7088  11.459   1.328   2.440 -0.4571 -0.2975  1.1375
   53MOL0     H 7089  11.621   1.516   2.494 -1.7109 -1.0121  0.2057
   53MOL0     H 7090  12.012   1.648   2.385  0.4555  0.2090  0.2718
   53MOL0     H 7091  12.021   1.484   2.328 -0.8012  0.0583 -2.8568
   53MOL0     H 7092  11.760   1.619   2.256  0.2746  2.5283 -0.3515
   53MOL0     H 7093  11.860   1.508   2.164 -2.8022  1.3725 -0.6441
   53MOL0     H 7094  12.040   1.681   2.120 -0.0234  1.0915  3.1838
   53MOL0     H 7095  11.967   1.800   2.219  0.6087  0.5494  0.1542
   53MOL0     H 7096  11.805   1.695   1.985 -0.3234  0.3392 -1.2707
   53MOL0     H 7097  11.790   1.843   2.065  1.1077  1.1563  1.0558
   53MOL0     H 7098  11.968   1.953   1.982  1.0595  0.9202 -0.5374
   53MOL0     H 7099  12.043   1.797   1.931 -0.6276  1.2839 -0.5990
   53MOL0     H 7100  11.880   1.758   1.755  3.4740 -0.2069 -1.9268
   53MOL0     H 7101  11.794   1.907   1.791  1.4396  2.8136 -0.8734
   53MOL0     H 7102  12.089   1.869   1.722  1.5798  2.8190  1.6550
   53MOL0     H 7103  12.034   2.022   1.759  1.3058 -0.4953  0.1901
   53MOL0     H 7104  11.934   1.849   1.525  1.4235 -1.4074  1.2244
   53MOL0     H 7105  11.872   2.010   1.567 -0.5136 -0.4667 -0.8404
   53MOL0     H 7106  12.171   1.828   1.397  0.5714 -0.2811  0.2348
   53MOL0     H 7107  12.350   2.104   1.209 -1.6436  0.7853  0.1285
   53MOL0     H 7108  12.364   1.930   1.221 -1.3840 -0.5597  0.7083
   53MOL0     H 7109  12.304   1.998   0.984  1.7686  2.0399  1.7561
   53MOL0     H 7110  12.170   1.901   1.059  3.2210 -2.2408  1.8861
   53MOL0     H 7111  12.047   2.099   1.097 -0.3827  0.6247 -0.3205
   53MOL0     H 7112  12.087   2.056   0.938  3.1463 -0.9690 -0.0745
   53MOL0     H 7113  12.247   2.259   1.093  0.3074 -2.4246  1.0936
   53MOL0     H 7114  12.096   2.314   1.025 -0.5770 -0.8329 -0.6508
   53MOL0     H 7115  12.301   2.476   1.060  0.0249 -0.4627 -0.2421
   53MOL0     H 7116  12.450   2.653   1.007  0.1580 -1.0811  0.0695
   53MOL0     H 7117  12.601   2.966   0.650  0.3194 -0.5211  1.4547
   53MOL0     H 7118  12.790   3.122   0.562  3.4331  0.1359  3.1485
   53MOL0     H 7119  13.185   3.061   0.602  3.2724 -1.4522  0.6730
   53MOL0     H 7120  13.186   2.907   0.526 -0.8648  0.3921 -0.0940
   53MOL0     H 7121  13.221   2.987   0.310  3.2126 -0.3648 -0.4038
   53MOL0     H 7122  13.217   3.155   0.366 -2.0864 -0.8250 -1.7809
   53MOL0     H 7123  13.432   3.103   0.492  0.9719 -0.0134 -1.2959
   53MOL0     H 7124  13.434   2.941   0.416  2.6005  0.8528 -1.0873
   53MOL0     H 7125  13.444   3.183   0.236  0.7418 -0.8132 -0.7995
   53MOL0     H 7126  13.449   3.025   0.193 -1.6898  2.3815 -0.4341
   53MOL0     H 7127  13.664   2.992   0.335  0.3359  0.4812 -0.2881
   53MOL0     H 7128  13.668   3.167   0.370 -2.5702 -0.2232  2.2405
   53MOL0     H 7129  13.707   3.010   0.107  3.6730 -1.6343  0.9210
   53MOL0     H 7130  13.705   3.189   0.103  1.6834  0.7279 -0.1726
   53MOL0     H 7131  13.935   3.072   0.113 -0.8781  4.0475 -2.2954
   53MOL0     H 7132  13.882   3.017   0.283  1.0532  2.3743  1.5135
   53MOL0     H 7133  13.893   3.305   0.188  0.6217  1.6011  1.4402
   53MOL0     H 7134  13.863   3.248   0.348 -0.5628 -0.4438  0.0954
   53MOL0     H 7135  13.031   2.774   0.493  0.9076  1.4165  2.0252
   53MOL0     H 7136  12.834   2.628   0.556  3.6748  0.2123  1.1987
   53MOL0     H 7137  12.523   2.496   0.621  2.7847 -0.2769  1.7950
   53MOL0     H 7138  12.380   2.304   0.666  1.3036 -0.4818 -0.4777
   53MOL0     H 7139  11.935   1.256   2.375  0.2757 -1.7087 -0.0482
   53MOL0     H 7140  11.796   1.086   2.327 -1.0727  0.4211 -2.4418
   53MOL0     H 7141  11.580   0.885   2.234 -0.0661  0.7144  2.6698
   53MOL0     H 7142  11.524   0.710   2.090 -1.4628 -1.9683 -2.2798
   53MOL0     H 7143  11.478   0.573   1.973 -0.0032  2.8622 -0.3224
   53MOL0     H 7144  11.383   0.499   1.833 -2.9023 -0.7558  0.2791
   53MOL0     H 7145  11.258   0.520   2.105 -1.6927 -0.8443 -0.7596
   53MOL0     H 7146  11.371   0.387   2.068  0.0715  0.5479 -0.4696
   53MOL0     H 7147  11.182   0.275   1.989  0.0057 -0.1651 -0.9298
   53MOL0     H 7148  11.232   0.347   1.846 -0.9140 -1.3600 -0.3469
   53MOL0     H 7149  11.082   0.555   1.967  1.2894 -0.3811 -0.4627
   53MOL0     H 7150  11.026   0.457   1.840 -0.7348 -1.6163 -0.0743
   53MOL0     H 7151  10.800   0.350   2.191  0.3365  2.5366 -0.2664
   53MOL0     H 7152  11.156   0.868   1.979  0.8298 -1.0691 -0.4569
   53MOL0     H 7153  11.141   1.108   2.255  2.1346 -1.6908  0.8227
   53MOL0     H 7154  11.127   1.152   2.082  0.2064  1.5011  1.4230
   53MOL0     H 7155  11.038   1.014   2.160  1.5663 -1.5130  0.3804
   54MOL0     O 7156  10.008   9.971   0.932  0.4260  0.6072 -0.6088
   54MOL0     C 7157   9.977  10.089   0.914 -0.2550  0.7091 -0.2407
   54MOL0     O 7158  10.066  10.195   0.921  0.4774  0.6678 -0.1027
   54MOL0     C 7159  10.201  10.211   0.946 -0.2023  0.1048  0.4177
   54MOL0     C 7160  10.285  10.120   1.006 -0.4039  1.3115  0.4687
   54MOL0     C 7161  10.422  10.146   1.029  0.2382 -0.7070 -0.6683
   54MOL0     C 7162  10.473  10.274   1.000  0.7666 -0.1442  0.7514
   54MOL0     O 7163  10.603  10.293   1.031  0.5000 -0.6242 -0.2636
   54MOL0     C 7164  10.639  10.432   1.068  0.8226  0.0677 -1.3364
   54MOL0     C 7165  10.791  10.435   1.051  0.0510  0.0072  0.4428
   54MOL0     C 7166  10.812  10.469   0.909 -0.3100  0.3755 -0.2608
   54MOL0     C 7167  10.957  10.449   0.860 -0.7591 -0.2411 -0.8268
   54MOL0     C 7168  10.973  10.494   0.719 -0.4554 -0.7140  0.4846
   54MOL0     C 7169  11.116  10.472   0.660 -0.9681  0.5255 -0.4575
   54MOL0     C 7170  11.119  10.544   0.527  0.7725 -0.3179 -0.1676
   54MOL0     C 7171  11.244  10.508   0.441 -0.0854  1.0148  0.0582
   54MOL0     N 7172  11.247  10.578   0.318  0.5540  0.0367 -0.2602
   54MOL0     C 7173  11.189  10.542   0.197  0.4075 -0.0634 -0.0508
   54MOL0     C 7174  11.193  10.653   0.121 -0.2347  0.3945 -0.1202
   54MOL0     C 7175  11.119  10.672  -0.001 -0.2747 -0.2268  0.3519
   54MOL0     C 7176  11.188  10.587  -0.111 -0.3915 -1.0335  0.5593
   54MOL0     C 7177  11.312  10.639  -0.180  0.0478  0.8549  0.5379
   54MOL0     C 7178  11.397  10.750  -0.116  0.2139 -0.3402 -0.9785
   54MOL0     O 7179  11.527  10.760  -0.186  0.3802  0.4324 -0.7055
   54MOL0     C 7180  11.614  10.856  -0.155 -0.0023  0.3645  0.2949
   54MOL0     C 7181  11.723  10.871  -0.244 -0.5799  0.3783 -0.5984
   54MOL0     C 7182  11.816  10.971  -0.222 -0.5979 -0.6296  0.2752
   54MOL0     C 7183  11.808  11.048  -0.105 -0.5793 -0.0200 -1.0225
   54MOL0     C 7184  11.927  11.134  -0.073  0.4973  0.2484  0.5539
   54MOL0     O 7185  11.928  11.190   0.050  0.7963  0.3379  0.6121
   54MOL0     C 7186  12.024  11.281   0.070 -0.1581  0.0977 -0.9807
   54MOL0     C 7187  12.010  11.422   0.039  0.0464  0.3849  0.6284
   54MOL0     C 7188  12.112  11.513   0.065 -0.1477 -0.2053  0.1079
   54MOL0     C 7189  12.230  11.471   0.124  0.2924  0.3269  0.7108
   54MOL0     O 7190  12.326  11.568   0.149  0.6521  0.0369  0.1132
   54MOL0     C 7191  12.467  11.531   0.152  0.0947 -0.9564  0.5249
   54MOL0     C 7192  12.535  11.667   0.175  0.0427 -0.0038 -0.2064
   54MOL0     C 7193  12.680  11.673   0.205 -0.0228  0.4064  0.0348
   54MOL0     C 7194  12.745  11.817   0.219 -0.1515 -0.6186  0.6758
   54MOL0     C 7195  12.887  11.808   0.278  0.4489  0.6475 -0.0476
   54MOL0     C 7196  12.954  11.940   0.302  0.3300 -0.5512  0.4956
   54MOL0     C 7197  13.093  11.928   0.362 -0.3017 -0.5793 -0.2199
   54MOL0     C 7198  13.165  12.060   0.348 -0.0406  0.5426 -0.2151
   54MOL0    Cl 7199  13.295  12.063   0.466 -0.1162 -0.0979 -0.2471
   54MOL0     C 7200  12.247  11.328   0.148  0.5666 -0.1055 -0.0905
   54MOL0     C 7201  12.149  11.237   0.126  0.0195  0.2052 -0.3393
   54MOL0     O 7202  12.002  11.168  -0.164  0.5914  0.0121 -0.2116
   54MOL0     C 7203  11.701  11.029  -0.018 -0.3223  0.5507  0.9236
   54MOL0     C 7204  11.604  10.936  -0.051  0.0516  0.4266 -0.8289
   54MOL0     N 7205  11.271  10.748   0.188  0.4295 -0.8895  0.0773
   54MOL0     N 7206  11.308  10.701   0.297 -0.4395  0.1476  0.0929
   54MOL0     C 7207  10.383  10.375   0.941  0.1624  0.4289 -0.2870
   54MOL0     C 7208  10.250  10.339   0.912  0.3241 -0.7063 -0.2693
   54MOL0     C 7209   9.844  10.132   0.896 -0.1596 -0.4217  0.7261
   54MOL0     C 7210   9.730  10.096   0.975 -0.1431  1.4143  0.1527
   54MOL0     C 7211   9.601  10.124   0.941  0.0748  1.2111  0.5798
   54MOL0     C 7212   9.576  10.209   0.838  0.1771  0.2765 -0.2909
   54MOL0     O 7213   9.447  10.229   0.816 -0.2818  0.1630 -0.3085
   54MOL0     C 7214   9.402  10.333   0.725  0.8619  0.0984 -1.0824
   54MOL0     C 7215   9.274  10.413   0.775  0.7752  0.3152 -0.3409
   54MOL0     C 7216   9.158  10.307   0.779 -1.0983 -0.2317  0.5473
   54MOL0     C 7217   9.023  10.365   0.823  0.1988 -0.2965 -0.5135
   54MOL0     C 7218   9.040  10.443   0.943  0.3575  0.9711  0.1289
   54MOL0     C 7219   9.062  10.518   1.039  0.3139 -0.5281 -0.0032
   54MOL0     C 7220   9.682  10.239   0.755 -1.3701 -0.0719  0.9933
   54MOL0     C 7221   9.814  10.202   0.782  0.3155  0.6181  0.1218
   54MOL0     C 7222   9.917  10.238   0.679 -0.3295  1.1744  0.3093
   54MOL0     H 7223  10.246  10.035   1.060 -0.9384  0.6469 -0.9116
   54MOL0     H 7224  10.482  10.085   1.096 -2.7540  0.4717  3.5475
   54MOL0     H 7225  10.597  10.516   1.011  1.9088  1.7515  0.2300
   54MOL0     H 7226  10.606  10.446   1.171 -0.0952 -0.9936 -1.4656
   54MOL0     H 7227  10.836  10.343   1.090  0.8241  1.0957  2.2445
   54MOL0     H 7228  10.838  10.508   1.117 -0.9589  1.3411 -0.2725
   54MOL0     H 7229  10.776  10.570   0.888  1.2364  1.8584  3.2883
   54MOL0     H 7230  10.751  10.394   0.857  1.3565 -2.5352  1.7051
   54MOL0     H 7231  11.017  10.518   0.919  1.2111 -1.9617 -0.7297
   54MOL0     H 7232  10.983  10.346   0.885  0.7400 -0.8598 -4.3730
   54MOL0     H 7233  10.901  10.442   0.654  1.8623 -3.0595 -0.3951
   54MOL0     H 7234  10.930  10.594   0.713 -3.5304 -1.9891 -1.5519
   54MOL0     H 7235  11.186  10.519   0.730  0.9835 -2.5217 -0.2224
   54MOL0     H 7236  11.142  10.367   0.650 -1.2820  0.4925 -0.9647
   54MOL0     H 7237  11.111  10.652   0.543  0.8548 -0.4029  0.4748
   54MOL0     H 7238  11.023  10.529   0.478  1.0736 -5.6078  0.3616
   54MOL0     H 7239  11.337  10.533   0.493  0.8243 -2.1342  0.1767
   54MOL0     H 7240  11.260  10.401   0.419  1.4655  1.1897  0.1701
   54MOL0     H 7241  11.146  10.444   0.175 -0.8229  0.4374  0.0225
   54MOL0     H 7242  11.013  10.645  -0.002  0.6025 -4.5312  1.9611
   54MOL0     H 7243  11.126  10.778  -0.028 -0.8901 -0.1094  0.6267
   54MOL0     H 7244  11.220  10.492  -0.068  0.3050 -1.4242 -0.7440
   54MOL0     H 7245  11.116  10.562  -0.190  0.4052 -1.9295  0.0976
   54MOL0     H 7246  11.287  10.662  -0.284  0.1143  0.1651  0.3638
   54MOL0     H 7247  11.374  10.550  -0.192  3.5004  2.9925  0.8904
   54MOL0     H 7248  11.419  10.737  -0.009 -0.5836  2.7332 -0.3360
   54MOL0     H 7249  11.347  10.847  -0.123 -0.8642 -0.9713 -2.4946
   54MOL0     H 7250  11.734  10.816  -0.337  2.6454 -0.3606  0.1016
   54MOL0     H 7251  11.894  10.997  -0.292 -1.1921  1.7689  0.3933
   54MOL0     H 7252  11.921  11.444  -0.018 -0.0876 -2.3940 -0.3788
   54MOL0     H 7253  12.098  11.619   0.046 -1.2904  0.1423  2.5346
   54MOL0     H 7254  12.489  11.450   0.222  1.6173 -2.0412 -1.1196
   54MOL0     H 7255  12.488  11.497   0.050  3.5592  0.9205  0.4704
   54MOL0     H 7256  12.518  11.737   0.093  0.8965 -1.1430 -1.4006
   54MOL0     H 7257  12.491  11.704   0.268  1.7317 -0.9627  1.0318
   54MOL0     H 7258  12.704  11.611   0.292  0.2882  0.0609 -0.2898
   54MOL0     H 7259  12.723  11.614   0.124  0.2242 -2.0017  1.8074
   54MOL0     H 7260  12.687  11.881   0.285  0.4828 -0.1325  0.7684
   54MOL0     H 7261  12.764  11.869   0.125 -0.9652 -2.4045 -0.5481
   54MOL0     H 7262  12.954  11.752   0.212 -2.7595 -0.1192 -2.9519
   54MOL0     H 7263  12.887  11.759   0.376  3.9945 -1.2690 -0.8334
   54MOL0     H 7264  12.955  11.979   0.200 -1.1553 -0.9175  0.3218
   54MOL0     H 7265  12.894  12.007   0.364 -1.3485  0.6237 -2.2057
   54MOL0     H 7266  13.149  11.846   0.314  1.3405  0.7210 -0.6322
   54MOL0     H 7267  13.070  11.908   0.467 -0.2919 -0.9272 -0.2809
   54MOL0     H 7268  13.203  12.072   0.246 -0.8209  1.7672 -0.3793
   54MOL0     H 7269  13.094  12.138   0.377 -1.5294 -0.7844 -0.1156
   54MOL0     H 7270  12.344  11.301   0.187  0.5891  0.5713  0.3402
   54MOL0     H 7271  12.163  11.131   0.142 -0.4060  0.0832 -0.7578
   54MOL0     H 7272  11.695  11.072   0.082  0.1132 -2.5523  2.3979
   54MOL0     H 7273  11.526  10.933   0.024  1.7037 -1.2418  0.9353
   54MOL0     H 7274  10.403  10.481   0.926 -3.0537  1.2419  0.4011
   54MOL0     H 7275  10.170  10.403   0.877 -0.0279 -0.8546  0.2556
   54MOL0     H 7276   9.742  10.041   1.067 -0.2090  1.0933 -0.0276
   54MOL0     H 7277   9.515  10.082   0.992 -0.5816  0.5054 -1.0430
   54MOL0     H 7278   9.386  10.299   0.623  1.9011  2.8330 -2.2538
   54MOL0     H 7279   9.477  10.410   0.706 -1.9782  3.0558 -1.1730
   54MOL0     H 7280   9.260  10.505   0.718  3.4663  1.7233  1.0846
   54MOL0     H 7281   9.298  10.451   0.875  2.4758  0.2264 -0.6848
   54MOL0     H 7282   9.189  10.233   0.852  1.0889  0.0376 -0.0314
   54MOL0     H 7283   9.150  10.260   0.680 -1.0651  2.7709 -1.0226
   54MOL0     H 7284   8.983  10.429   0.744  1.2319 -2.7959 -3.2355
   54MOL0     H 7285   8.950  10.284   0.834  2.5707 -2.3205  1.2809
   54MOL0     H 7286   9.097  10.570   1.126  0.3125  0.5885 -0.6635
   54MOL0     H 7287   9.668  10.314   0.677  5.1417  1.5449  0.7727
   54MOL0     H 7288   9.976  10.150   0.651 -0.3819  1.2168  0.0556
   54MOL0     H 7289   9.876  10.264   0.581  0.0029 -0.7685 -0.4028
   54MOL0     H 7290   9.981  10.317   0.718 -0.1205  0.1247  2.1691
   55MOL0     O 7291   0.360   3.187   3.116  0.0264  0.1226 -0.2971
   55MOL0     C 7292   0.385   3.272   3.200 -0.8506  0.6190 -1.4377
   55MOL0     O 7293   0.512   3.328   3.220 -0.0782  0.0060 -0.6613
   55MOL0     C 7294   0.628   3.283   3.164 -0.8292 -0.8490 -0.8063
   55MOL0     C 7295   0.654   3.191   3.065  0.3092  0.6210 -0.3691
   55MOL0     C 7296   0.788   3.178   3.026  0.2616  1.1066 -0.1178
   55MOL0     C 7297   0.900   3.257   3.069  0.4133  0.0277  1.1014
   55MOL0     O 7298   1.021   3.222   3.011 -0.0386 -0.2400  0.5392
   55MOL0     C 7299   1.134   3.285   3.065  0.1168 -0.1106  0.6239
   55MOL0     C 7300   1.254   3.194   3.035  1.0447 -0.7177  0.0187
   55MOL0     C 7301   1.384   3.251   3.093 -0.1014 -0.5407 -0.0184
   55MOL0     C 7302   1.500   3.152   3.066  0.2351  0.0073  0.3756
   55MOL0     C 7303   1.639   3.208   3.092  0.0916  0.6619 -0.1776
   55MOL0     C 7304   1.676   3.313   2.984 -0.0193  0.2280 -0.0757
   55MOL0     C 7305   1.825   3.318   2.963 -0.0880 -0.9467  0.0529
   55MOL0     C 7306   1.916   3.344   3.091  0.2946  0.4777 -0.4633
   55MOL0     N 7307   2.051   3.348   3.044 -0.8045  0.4176  0.7362
   55MOL0     C 7308   2.099   3.443   2.953 -0.8837 -0.9711 -0.5207
   55MOL0     C 7309   2.231   3.423   2.956 -0.6410  0.0018 -0.5949
   55MOL0     C 7310   2.327   3.492   2.868 -0.1793 -0.2333  0.4354
   55MOL0     C 7311   2.460   3.527   2.931 -0.6849 -0.6293  0.6725
   55MOL0     C 7312   2.567   3.572   2.821  1.1090  0.0209 -0.8381
   55MOL0     C 7313   2.523   3.676   2.719  0.5689 -0.8641  0.7241
   55MOL0     O 7314   2.493   3.808   2.785 -0.5587 -0.1617  0.0004
   55MOL0     C 7315   2.433   3.914   2.713  0.7149  0.0899 -0.5976
   55MOL0     C 7316   2.440   3.934   2.569  0.0692  0.4006  0.0606
   55MOL0     C 7317   2.369   4.044   2.504 -0.1085 -0.5549 -0.2968
   55MOL0     C 7318   2.316   4.150   2.592 -0.3852  0.2415  0.4605
   55MOL0     C 7319   2.269   4.268   2.533 -0.9459  0.0975  0.7729
   55MOL0     O 7320   2.291   4.389   2.607  1.0206  0.4881  0.0514
   55MOL0     C 7321   2.285   4.513   2.543  0.0501  0.9799 -0.4917
   55MOL0     C 7322   2.259   4.612   2.639 -0.2205 -0.7473 -1.3526
   55MOL0     C 7323   2.257   4.749   2.600 -0.1789 -0.0146  0.8024
   55MOL0     C 7324   2.288   4.785   2.470 -0.7510 -0.4504  0.4017
   55MOL0     O 7325   2.286   4.916   2.418 -0.0346  0.2058  0.0351
   55MOL0     C 7326   2.369   5.005   2.482 -1.0039  0.5806  0.1374
   55MOL0     C 7327   2.488   5.004   2.377 -0.0131  0.1100 -0.9417
   55MOL0     C 7328   2.592   5.098   2.424  0.3406  0.0172 -0.1446
   55MOL0     C 7329   2.709   5.072   2.330 -0.0168 -0.7089 -0.1229
   55MOL0     C 7330   2.840   5.104   2.396 -0.5529 -0.1668 -0.0530
   55MOL0     C 7331   2.881   4.987   2.503  0.5021 -0.7217  0.3520
   55MOL0     C 7332   3.024   5.012   2.533 -0.6920 -1.6071 -0.4788
   55MOL0     C 7333   3.048   4.909   2.639  0.0716  0.4413 -0.5993
   55MOL0    Cl 7334   3.223   4.892   2.691 -0.1936 -0.0647 -0.0769
   55MOL0     C 7335   2.322   4.683   2.382  0.1269 -0.4298  0.7501
   55MOL0     C 7336   2.319   4.551   2.411  0.8859  1.1634 -0.3641
   55MOL0     O 7337   2.235   4.264   2.413  0.5333  0.5834  0.5845
   55MOL0     C 7338   2.319   4.129   2.736 -0.4975 -0.2691  0.5514
   55MOL0     C 7339   2.375   4.013   2.791 -0.2969  0.3230  0.7375
   55MOL0     N 7340   2.260   3.328   3.051 -0.1498 -0.1718  0.6076
   55MOL0     N 7341   2.154   3.276   3.101 -0.9055  0.2659 -0.6575
   55MOL0     C 7342   0.869   3.356   3.164 -0.3643 -0.4833 -0.3138
   55MOL0     C 7343   0.735   3.361   3.210  0.3868  0.1911  0.5511
   55MOL0     C 7344   0.269   3.328   3.280  0.3601  0.3445  0.6019
   55MOL0     C 7345   0.285   3.464   3.321 -0.7797 -0.1755  0.0866
   55MOL0     C 7346   0.195   3.539   3.389  0.0958 -0.2441  0.1487
   55MOL0     C 7347   0.085   3.470   3.439  0.8779 -0.6310  0.5503
   55MOL0     O 7348  -0.010   3.536   3.513  0.3088 -1.4915 -0.2353
   55MOL0     C 7349  -0.151   3.498   3.525  0.3526  0.4827  0.3351
   55MOL0     C 7350  -0.214   3.631   3.531  0.1595  1.1681 -0.0177
   55MOL0     C 7351  -0.357   3.611   3.576 -0.6514 -0.3192  0.3594
   55MOL0     C 7352  -0.356   3.587   3.728 -0.1107  0.5701 -1.0852
   55MOL0     C 7353  -0.325   3.702   3.808 -0.6814  0.9906 -0.7812
   55MOL0     C 7354  -0.302   3.803   3.872 -0.7384 -0.1507 -0.5227
   55MOL0     C 7355   0.064   3.335   3.398 -0.5667 -0.6661 -0.8650
   55MOL0     C 7356   0.149   3.263   3.315 -0.0766 -0.3292  0.2766
   55MOL0     C 7357   0.133   3.111   3.291 -0.6220 -0.7568 -0.4158
   55MOL0     H 7358   0.571   3.139   3.019 -1.2340  1.6602  1.0847
   55MOL0     H 7359   0.802   3.095   2.957 -2.2633 -2.0992  2.8861
   55MOL0     H 7360   1.153   3.378   3.010  3.1624 -1.0205 -0.0708
   55MOL0     H 7361   1.118   3.302   3.172  0.4580 -4.1109  1.4613
   55MOL0     H 7362   1.269   3.188   2.927  0.5788 -3.9220  0.0585
   55MOL0     H 7363   1.239   3.090   3.064  2.3157 -0.6556  1.0261
   55MOL0     H 7364   1.381   3.264   3.201  1.8456 -0.2493  0.0249
   55MOL0     H 7365   1.400   3.354   3.061 -1.5104 -0.0678  0.6912
   55MOL0     H 7366   1.487   3.060   3.123 -3.0820 -2.8343 -4.2643
   55MOL0     H 7367   1.489   3.124   2.960  1.2604 -1.4665  0.6228
   55MOL0     H 7368   1.641   3.258   3.189 -2.1072 -2.6130  1.7523
   55MOL0     H 7369   1.705   3.120   3.092 -1.8173 -0.8541 -0.0304
   55MOL0     H 7370   1.625   3.279   2.893 -2.4390 -3.1328  2.2998
   55MOL0     H 7371   1.635   3.411   3.009 -2.8027 -1.3708  2.2567
   55MOL0     H 7372   1.831   3.393   2.884 -1.9991 -1.3989 -0.5831
   55MOL0     H 7373   1.867   3.229   2.914  5.2917  1.4429 -0.3915
   55MOL0     H 7374   1.889   3.441   3.133 -0.6054  1.5015 -3.1631
   55MOL0     H 7375   1.914   3.259   3.160  0.9546  0.1630 -0.8188
   55MOL0     H 7376   2.041   3.509   2.890 -1.7254 -0.6041  0.6073
   55MOL0     H 7377   2.359   3.403   2.814  1.8156 -0.2880  1.6216
   55MOL0     H 7378   2.283   3.570   2.806  0.8225 -0.1153 -0.1511
   55MOL0     H 7379   2.452   3.601   3.011 -2.1531 -0.0460  0.0171
   55MOL0     H 7380   2.504   3.436   2.974  1.9995  0.2978  0.0481
   55MOL0     H 7381   2.577   3.483   2.758  0.3462  0.7058 -1.9679
   55MOL0     H 7382   2.668   3.580   2.861  0.1679 -1.0567  1.9923
   55MOL0     H 7383   2.439   3.642   2.658  2.2478 -0.4303 -1.9963
   55MOL0     H 7384   2.611   3.689   2.656 -0.4107  3.3957 -0.1018
   55MOL0     H 7385   2.475   3.868   2.490 -1.5666 -0.0978 -0.2890
   55MOL0     H 7386   2.367   4.063   2.397 -4.1206 -1.2256 -0.5048
   55MOL0     H 7387   2.242   4.581   2.742 -3.2642  1.8427 -0.9105
   55MOL0     H 7388   2.230   4.825   2.672 -3.7509 -0.4142  0.0399
   55MOL0     H 7389   2.327   5.106   2.489  0.6919  1.4872 -1.8001
   55MOL0     H 7390   2.397   4.976   2.583 -0.4730  3.4548  0.9037
   55MOL0     H 7391   2.531   4.903   2.373  0.1253  0.2029 -3.1533
   55MOL0     H 7392   2.451   5.040   2.280 -0.7974  2.7253  0.2515
   55MOL0     H 7393   2.554   5.201   2.417 -0.7533 -0.4493 -1.5006
   55MOL0     H 7394   2.611   5.077   2.530 -0.7899  2.1917  0.5680
   55MOL0     H 7395   2.694   5.132   2.240  0.4486  0.2969  0.4546
   55MOL0     H 7396   2.714   4.966   2.301  0.3705 -0.7316  0.0274
   55MOL0     H 7397   2.829   5.198   2.450  2.0096  0.9248 -1.2895
   55MOL0     H 7398   2.910   5.117   2.313  0.1046 -1.5219  0.2545
   55MOL0     H 7399   2.822   4.997   2.594  1.0183 -0.4116  0.6594
   55MOL0     H 7400   2.863   4.890   2.457 -3.6657  1.5927 -3.7732
   55MOL0     H 7401   3.045   5.105   2.587 -0.4617 -2.2628  0.6064
   55MOL0     H 7402   3.091   5.001   2.447 -0.3643 -0.7300 -0.3477
   55MOL0     H 7403   2.973   4.918   2.718 -0.7460 -1.0545 -1.1597
   55MOL0     H 7404   3.017   4.813   2.597 -1.5280  0.6189  0.0821
   55MOL0     H 7405   2.361   4.716   2.286  0.0069  0.9302  1.1574
   55MOL0     H 7406   2.337   4.475   2.337  0.1189 -1.9754  2.4243
   55MOL0     H 7407   2.286   4.211   2.799  2.2440  1.9461 -0.6816
   55MOL0     H 7408   2.385   4.007   2.899  0.8462  0.5635  0.6555
   55MOL0     H 7409   0.938   3.434   3.195 -2.7938  1.7168 -0.0469
   55MOL0     H 7410   0.708   3.447   3.271  0.0662  0.6425 -0.2271
   55MOL0     H 7411   0.369   3.524   3.286 -2.3978  1.3819 -1.3428
   55MOL0     H 7412   0.205   3.645   3.406  2.3088 -0.3894 -0.0441
   55MOL0     H 7413  -0.170   3.432   3.610 -2.9334 -2.1236 -2.1590
   55MOL0     H 7414  -0.186   3.439   3.440 -0.5398 -2.6184  2.6678
   55MOL0     H 7415  -0.203   3.684   3.435  0.0035  1.8946  0.3531
   55MOL0     H 7416  -0.167   3.694   3.607 -3.0892  1.5587  1.8360
   55MOL0     H 7417  -0.396   3.529   3.514 -0.1865 -0.3901  0.1509
   55MOL0     H 7418  -0.417   3.697   3.545  2.0563  2.2490  1.7271
   55MOL0     H 7419  -0.459   3.564   3.758 -0.4125  2.9547 -0.1055
   55MOL0     H 7420  -0.301   3.497   3.758 -0.9214  0.2717 -0.4481
   55MOL0     H 7421  -0.299   3.891   3.933  0.8139  1.2775 -2.5211
   55MOL0     H 7422  -0.019   3.272   3.428 -1.4258  0.9105  0.2331
   55MOL0     H 7423   0.083   3.086   3.197  1.4206  0.1198 -1.8080
   55MOL0     H 7424   0.225   3.054   3.309 -0.4051  0.1813  1.7282
   55MOL0     H 7425   0.059   3.082   3.365  0.6449 -1.3451  0.6683
   56MOL0     O 7426   3.650   0.664   8.150 -0.3873 -0.1615  0.3255
   56MOL0     C 7427   3.620   0.759   8.227  0.3805  0.1087  0.1511
   56MOL0     O 7428   3.502   0.822   8.222  0.8346  0.2690 -0.1097
   56MOL0     C 7429   3.388   0.758   8.176 -1.0177 -0.4151 -0.2643
   56MOL0     C 7430   3.272   0.785   8.249 -0.2002  0.1853 -0.3479
   56MOL0     C 7431   3.151   0.732   8.192  0.0812  0.8835 -0.5971
   56MOL0     C 7432   3.152   0.644   8.083  0.4868 -0.3601  0.7986
   56MOL0     O 7433   3.049   0.565   8.045  0.2210  0.6226 -0.1756
   56MOL0     C 7434   3.064   0.429   8.067 -0.3775  0.3584 -0.5603
   56MOL0     C 7435   2.942   0.354   8.017  0.4825 -0.8089  0.5653
   56MOL0     C 7436   2.943   0.203   8.055  0.3947 -0.4415 -0.7468
   56MOL0     C 7437   2.842   0.133   7.955 -0.3985 -0.3956  1.4433
   56MOL0     C 7438   2.847  -0.016   7.952 -0.4379  0.8102 -0.7571
   56MOL0     C 7439   2.954  -0.072   7.872 -0.9026  0.1648 -0.5892
   56MOL0     C 7440   2.978  -0.217   7.899 -0.1766 -0.1711 -0.6455
   56MOL0     C 7441   3.032  -0.249   8.045  0.1918  0.1654  0.5831
   56MOL0     N 7442   3.085  -0.387   8.057 -0.6874 -0.0104  0.2961
   56MOL0     C 7443   3.021  -0.505   8.008  0.0307  0.2118  0.4727
   56MOL0     C 7444   3.115  -0.605   8.019 -0.0651 -0.7003  0.2858
   56MOL0     C 7445   3.098  -0.745   7.976 -0.9177  0.3586  0.1788
   56MOL0     C 7446   3.035  -0.840   8.084  0.1257  0.4761  0.4800
   56MOL0     C 7447   3.137  -0.867   8.195 -0.2309  1.0009  0.8046
   56MOL0     C 7448   3.241  -0.976   8.161  0.2192 -0.4575  0.1650
   56MOL0     O 7449   3.278  -1.044   8.279 -0.1198  0.6446  0.0479
   56MOL0     C 7450   3.417  -1.040   8.315 -0.1239  0.5276 -0.6572
   56MOL0     C 7451   3.464  -0.988   8.438 -0.2967  0.4647  0.0074
   56MOL0     C 7452   3.596  -0.989   8.469 -0.3920  0.2183  0.1376
   56MOL0     C 7453   3.687  -1.049   8.388 -0.3075  0.6972 -0.4419
   56MOL0     C 7454   3.828  -1.046   8.436  0.1563 -0.0251  0.2343
   56MOL0     O 7455   3.858  -1.023   8.566 -0.0795 -0.5861 -0.0909
   56MOL0     C 7456   3.982  -0.973   8.598  0.1141 -0.5758 -1.2665
   56MOL0     C 7457   4.035  -0.851   8.549  0.1501  0.0589 -0.4302
   56MOL0     C 7458   4.164  -0.812   8.586  0.2671  0.6415  1.4628
   56MOL0     C 7459   4.246  -0.886   8.666  0.7179  0.3360  0.1554
   56MOL0     O 7460   4.363  -0.848   8.728  0.3256 -0.6134 -0.0798
   56MOL0     C 7461   4.447  -0.754   8.657 -0.4934  0.1441  0.0408
   56MOL0     C 7462   4.505  -0.815   8.534 -0.2462 -0.3127 -0.3252
   56MOL0     C 7463   4.574  -0.717   8.442  0.3336  0.5385  0.6578
   56MOL0     C 7464   4.709  -0.669   8.511 -0.3780  0.5724 -0.5076
   56MOL0     C 7465   4.801  -0.598   8.413 -0.6697  0.2552 -0.3997
   56MOL0     C 7466   4.896  -0.494   8.482  1.1958  0.6217  0.4821
   56MOL0     C 7467   4.965  -0.407   8.379  1.1172 -0.1224 -0.2498
   56MOL0     C 7468   5.085  -0.340   8.440 -0.0221 -0.5713 -0.0931
   56MOL0    Cl 7469   5.043  -0.203   8.559  0.2839  0.0914  0.0985
   56MOL0     C 7470   4.197  -1.012   8.705  0.3380  0.1179  0.4447
   56MOL0     C 7471   4.064  -1.054   8.672 -0.8560  0.2627  0.5207
   56MOL0     O 7472   3.914  -1.057   8.349 -0.5461 -0.1080 -0.3631
   56MOL0     C 7473   3.652  -1.105   8.260  1.0367  0.9551  0.3706
   56MOL0     C 7474   3.513  -1.104   8.234  0.2506  0.3501  0.0136
   56MOL0     N 7475   3.229  -0.557   8.072 -0.0821  0.2686  0.7219
   56MOL0     N 7476   3.209  -0.434   8.093 -0.7143  0.0929 -0.1735
   56MOL0     C 7477   3.264   0.629   8.000  0.2552  0.6302  0.1392
   56MOL0     C 7478   3.380   0.678   8.051 -0.0103  0.1411  0.1258
   56MOL0     C 7479   3.726   0.795   8.321 -0.8780  0.3678 -0.0825
   56MOL0     C 7480   3.844   0.716   8.333 -0.3305 -0.0881  0.1574
   56MOL0     C 7481   3.942   0.742   8.425 -0.2064  0.2305 -1.2719
   56MOL0     C 7482   3.933   0.845   8.524 -0.0526  0.2040  0.8005
   56MOL0     O 7483   4.027   0.888   8.606  0.0941  0.0499  0.2272
   56MOL0     C 7484   4.166   0.860   8.562 -1.2404 -0.3934  0.8270
   56MOL0     C 7485   4.253   0.892   8.691 -0.1090 -0.5759 -0.6282
   56MOL0     C 7486   4.398   0.919   8.649 -0.4656 -0.5574  0.6102
   56MOL0     C 7487   4.475   0.794   8.637  0.4376 -0.2550  0.0710
   56MOL0     C 7488   4.506   0.736   8.769 -0.5398  0.7184 -1.0463
   56MOL0     C 7489   4.540   0.665   8.864  0.1843 -0.1283  0.8987
   56MOL0     C 7490   3.814   0.924   8.514 -0.2672  0.7006 -0.7344
   56MOL0     C 7491   3.707   0.895   8.427  0.0031  0.4166 -0.0795
   56MOL0     C 7492   3.586   0.981   8.448  0.2344 -0.5812  0.0287
   56MOL0     H 7493   3.279   0.843   8.341 -2.0604 -1.7442  1.1234
   56MOL0     H 7494   3.055   0.754   8.237 -1.5830  0.0974 -3.5369
   56MOL0     H 7495   3.148   0.378   8.020 -0.6748 -0.6021 -0.0688
   56MOL0     H 7496   3.070   0.420   8.176  0.7755  0.3626 -0.6111
   56MOL0     H 7497   2.940   0.358   7.908 -0.1886 -1.5506  0.5393
   56MOL0     H 7498   2.858   0.413   8.055  0.8314  0.0804 -0.0104
   56MOL0     H 7499   2.912   0.196   8.160  2.4957  0.4756 -0.0319
   56MOL0     H 7500   3.038   0.153   8.033  0.2032 -0.1026 -2.4466
   56MOL0     H 7501   2.743   0.174   7.976  0.0704 -0.0929  3.1416
   56MOL0     H 7502   2.866   0.164   7.852 -2.8454  1.3596  1.3249
   56MOL0     H 7503   2.838  -0.060   8.052 -3.8309  0.6558 -1.0102
   56MOL0     H 7504   2.752  -0.058   7.916 -0.0639 -2.6198  1.7592
   56MOL0     H 7505   2.933  -0.060   7.766  1.5270  3.0213 -0.8627
   56MOL0     H 7506   3.046  -0.016   7.890 -0.5563  0.0205 -1.8403
   56MOL0     H 7507   3.050  -0.250   7.824  1.1240 -1.5265  1.0943
   56MOL0     H 7508   2.887  -0.274   7.881  0.2178 -2.3285  3.2185
   56MOL0     H 7509   3.105  -0.171   8.064 -0.7052  0.5237  2.8815
   56MOL0     H 7510   2.950  -0.248   8.117 -2.0456 -2.3274 -1.6675
   56MOL0     H 7511   2.919  -0.528   7.978  0.1890 -0.2958  0.3153
   56MOL0     H 7512   3.034  -0.743   7.887  0.0269  0.3731 -0.5232
   56MOL0     H 7513   3.192  -0.785   7.937 -1.5321  1.2296 -2.4476
   56MOL0     H 7514   2.939  -0.801   8.122  0.1467  0.8580  0.1529
   56MOL0     H 7515   3.016  -0.933   8.031  0.8502 -0.0342  1.0980
   56MOL0     H 7516   3.088  -0.912   8.282  3.2437 -0.0181  2.4191
   56MOL0     H 7517   3.185  -0.774   8.225 -2.5425  3.8129 -3.3364
   56MOL0     H 7518   3.324  -0.925   8.113 -0.7637 -0.0001 -1.1114
   56MOL0     H 7519   3.186  -1.044   8.095 -1.6314  2.1261 -1.1513
   56MOL0     H 7520   3.397  -0.956   8.517  0.6919  0.3883  0.8872
   56MOL0     H 7521   3.631  -0.960   8.567 -1.0079  2.7442 -0.3241
   56MOL0     H 7522   3.974  -0.800   8.475 -0.6884  0.2768  0.3968
   56MOL0     H 7523   4.204  -0.716   8.552 -1.8923  1.3316  0.7430
   56MOL0     H 7524   4.395  -0.659   8.642  1.5134  1.0434 -1.7707
   56MOL0     H 7525   4.535  -0.733   8.720 -0.0903  0.0864 -0.4941
   56MOL0     H 7526   4.577  -0.891   8.566 -1.1046  0.3474  3.7329
   56MOL0     H 7527   4.430  -0.876   8.483 -1.1253  0.5162 -0.0587
   56MOL0     H 7528   4.612  -0.769   8.353  0.6918  0.6924  0.7179
   56MOL0     H 7529   4.515  -0.634   8.402  0.1982  0.2002  0.1467
   56MOL0     H 7530   4.756  -0.750   8.567 -0.6718  1.2175  0.7102
   56MOL0     H 7531   4.672  -0.601   8.589 -0.3592 -1.5071  1.4356
   56MOL0     H 7532   4.749  -0.541   8.335 -0.9284  0.4912 -0.0593
   56MOL0     H 7533   4.861  -0.670   8.358 -0.4626 -0.5053  0.7885
   56MOL0     H 7534   4.839  -0.428   8.549 -5.5027 -0.4533 -3.3314
   56MOL0     H 7535   4.971  -0.553   8.536 -2.8882 -5.1854  0.7004
   56MOL0     H 7536   4.899  -0.330   8.339  1.4062 -1.2904 -3.2478
   56MOL0     H 7537   4.998  -0.456   8.287 -0.8684  0.1498 -1.1666
   56MOL0     H 7538   5.138  -0.419   8.494 -0.3032  1.1527  2.9184
   56MOL0     H 7539   5.145  -0.309   8.354 -1.5581 -0.4235 -1.1700
   56MOL0     H 7540   4.249  -1.077   8.776  1.3545  1.9162  1.4094
   56MOL0     H 7541   4.024  -1.152   8.693  1.8889 -1.0307  0.2378
   56MOL0     H 7542   3.726  -1.151   8.196 -0.1047  2.1507 -1.9246
   56MOL0     H 7543   3.490  -1.147   8.137  2.6660  1.1823 -1.0032
   56MOL0     H 7544   3.250   0.582   7.903 -1.3764 -1.8685  1.4849
   56MOL0     H 7545   3.466   0.659   7.988  1.0123  0.9229  1.2156
   56MOL0     H 7546   3.853   0.627   8.272  0.4489 -0.0030  0.1449
   56MOL0     H 7547   4.025   0.673   8.428 -0.7957 -0.6807  3.4569
   56MOL0     H 7548   4.194   0.936   8.488  0.7745 -0.9996  0.9143
   56MOL0     H 7549   4.189   0.763   8.517 -4.1249 -1.8791  2.2821
   56MOL0     H 7550   4.249   0.805   8.757 -0.2455  0.3207  0.5766
   56MOL0     H 7551   4.208   0.971   8.752 -0.9132 -2.2387  1.0395
   56MOL0     H 7552   4.449   0.973   8.730  0.2551  0.1838 -0.3197
   56MOL0     H 7553   4.403   0.982   8.560  3.6671 -0.6401  0.5751
   56MOL0     H 7554   4.425   0.725   8.568 -0.7450 -0.4212  1.0655
   56MOL0     H 7555   4.573   0.813   8.593  0.5990 -0.5339  0.3059
   56MOL0     H 7556   4.579   0.616   8.951 -0.0939 -1.0176  0.5375
   56MOL0     H 7557   3.817   0.996   8.595  0.5820 -1.5147  1.3301
   56MOL0     H 7558   3.575   1.014   8.552 -1.1159  0.5149 -0.4428
   56MOL0     H 7559   3.597   1.068   8.383 -0.3388  0.5558  1.4008
   56MOL0     H 7560   3.491   0.929   8.431 -0.7303  1.6704 -2.0141
   57MOL0     O 7561   5.847   5.344  10.529 -0.0769  0.2668 -0.3795
   57MOL0     C 7562   5.741   5.368  10.582  0.1734 -0.7807  0.1852
   57MOL0     O 7563   5.726   5.444  10.694  0.0334  0.0789  0.3493
   57MOL0     C 7564   5.836   5.521  10.738 -0.0990  0.6192 -0.9015
   57MOL0     C 7565   5.955   5.448  10.788 -0.2477 -0.7017 -0.7169
   57MOL0     C 7566   6.058   5.525  10.850 -0.4220  0.2693 -0.3754
   57MOL0     C 7567   6.051   5.664  10.854  1.1804 -0.4798 -0.0999
   57MOL0     O 7568   6.155   5.737  10.903  0.2146 -0.2872  0.2576
   57MOL0     C 7569   6.148   5.807  11.019  0.8267  0.5826  0.0641
   57MOL0     C 7570   6.286   5.865  11.038 -0.2522  0.6607  0.1517
   57MOL0     C 7571   6.385   5.749  11.046  0.7001  0.1593 -0.5214
   57MOL0     C 7572   6.489   5.747  10.944 -0.4852 -0.2812  0.1818
   57MOL0     C 7573   6.589   5.627  10.967  0.2709 -0.4002  0.3975
   57MOL0     C 7574   6.699   5.664  11.061 -0.1187 -0.5003  0.2348
   57MOL0     C 7575   6.801   5.566  11.110  0.7710 -0.0927  0.1051
   57MOL0     C 7576   6.750   5.470  11.220 -0.1634 -0.3588  0.2315
   57MOL0     N 7577   6.802   5.520  11.346  0.1888  0.6002 -0.2549
   57MOL0     C 7578   6.728   5.605  11.429 -0.0534  0.0316 -0.3171
   57MOL0     C 7579   6.806   5.618  11.543 -0.3806  0.6007 -0.5735
   57MOL0     C 7580   6.767   5.677  11.674  0.2347  0.3284  0.2688
   57MOL0     C 7581   6.700   5.575  11.774  0.4299 -1.0096 -0.5565
   57MOL0     C 7582   6.804   5.534  11.887 -0.5434 -0.0609 -0.0537
   57MOL0     C 7583   6.726   5.465  11.998 -0.5018 -0.3572 -1.0266
   57MOL0     O 7584   6.679   5.575  12.085  0.5682 -0.7643  0.2026
   57MOL0     C 7585   6.751   5.633  12.189  0.4567 -0.4962  0.6238
   57MOL0     C 7586   6.885   5.618  12.209  0.0858 -0.1510 -0.8870
   57MOL0     C 7587   6.942   5.695  12.317  0.4020 -0.1774 -0.0238
   57MOL0     C 7588   6.863   5.775  12.405 -0.1995  0.3386 -0.4156
   57MOL0     C 7589   6.918   5.860  12.517  0.0616  0.4591 -1.6095
   57MOL0     O 7590   7.055   5.839  12.548  0.0298 -0.1467 -0.2178
   57MOL0     C 7591   7.144   5.902  12.633  1.5065  0.6234  0.4164
   57MOL0     C 7592   7.093   5.969  12.748  0.0374  0.0010  1.0393
   57MOL0     C 7593   7.179   6.026  12.841  0.1631 -0.5202 -0.1067
   57MOL0     C 7594   7.320   6.006  12.822  0.0914  0.2370 -0.1761
   57MOL0     O 7595   7.423   6.057  12.900  0.2734 -0.4846 -0.6653
   57MOL0     C 7596   7.445   5.991  13.021 -0.3164  0.0967  0.1996
   57MOL0     C 7597   7.589   6.027  13.071 -0.2966 -0.0114  0.0296
   57MOL0     C 7598   7.596   6.170  13.134  0.9804 -0.1682 -0.6436
   57MOL0     C 7599   7.726   6.182  13.219  0.3829  0.6933  0.3471
   57MOL0     C 7600   7.710   6.278  13.335  0.4938 -1.0446 -0.0995
   57MOL0     C 7601   7.833   6.315  13.410 -0.4768 -0.7204 -1.3031
   57MOL0     C 7602   7.806   6.394  13.546 -1.2210  0.4193  0.1299
   57MOL0     C 7603   7.935   6.419  13.629  0.9004 -0.9124 -0.2322
   57MOL0    Cl 7604   8.053   6.538  13.556  0.0291  0.2827  0.1477
   57MOL0     C 7605   7.368   5.921  12.719 -0.4872  0.3909 -0.3585
   57MOL0     C 7606   7.275   5.881  12.621  0.3418  0.7623  0.2764
   57MOL0     O 7607   6.848   5.946  12.566  0.2657 -0.6892 -0.0752
   57MOL0     C 7608   6.732   5.783  12.387  0.5592  1.0719  0.3093
   57MOL0     C 7609   6.673   5.713  12.279  0.3613 -0.6514  0.1926
   57MOL0     N 7610   6.919   5.536  11.523 -0.1522  0.9223 -0.6560
   57MOL0     N 7611   6.916   5.482  11.411  0.1463  1.4010  1.0934
   57MOL0     C 7612   5.934   5.727  10.809  0.5693  0.0020 -0.0733
   57MOL0     C 7613   5.834   5.657  10.747 -0.5606 -0.7255  0.0404
   57MOL0     C 7614   5.618   5.290  10.551  0.6570  0.5524  0.5336
   57MOL0     C 7615   5.564   5.317  10.423  0.2567 -0.2779 -0.1976
   57MOL0     C 7616   5.463   5.240  10.367 -0.0472  0.2169 -0.9667
   57MOL0     C 7617   5.402   5.148  10.447 -0.2163  0.9247 -0.4512
   57MOL0     O 7618   5.301   5.081  10.385 -0.3392 -0.0707  0.4832
   57MOL0     C 7619   5.267   4.949  10.416  0.0651  0.4356 -0.1649
   57MOL0     C 7620   5.125   4.936  10.453  0.8850  0.2827 -0.5525
   57MOL0     C 7621   5.024   4.960  10.336 -0.2143 -0.4511 -0.2794
   57MOL0     C 7622   4.963   4.827  10.297  0.4080 -0.5457  0.0051
   57MOL0     C 7623   5.048   4.749  10.207  0.0383 -0.2784 -0.6678
   57MOL0     C 7624   5.120   4.678  10.139 -0.1057  0.4652  0.8264
   57MOL0     C 7625   5.463   5.112  10.571 -0.2393 -0.2424 -0.4106
   57MOL0     C 7626   5.567   5.179  10.623 -0.1736 -0.2212 -1.6617
   57MOL0     C 7627   5.642   5.135  10.745  0.3099  0.2127 -0.0413
   57MOL0     H 7628   5.966   5.341  10.772 -0.8796 -0.8178 -0.4141
   57MOL0     H 7629   6.147   5.472  10.884 -1.4908 -2.3303 -1.3946
   57MOL0     H 7630   6.085   5.891  10.989 -0.6878 -0.6567 -0.3521
   57MOL0     H 7631   6.120   5.753  11.110 -2.3275  0.8787 -0.6189
   57MOL0     H 7632   6.289   5.934  11.123 -1.1699 -0.2361  0.9395
   57MOL0     H 7633   6.309   5.912  10.942 -1.4045  1.2684  0.1491
   57MOL0     H 7634   6.340   5.649  11.038  0.0195  0.4467 -0.3313
   57MOL0     H 7635   6.438   5.768  11.140 -0.7743 -1.9876  0.8577
   57MOL0     H 7636   6.439   5.757  10.848 -1.1160  0.9237  0.6082
   57MOL0     H 7637   6.559   5.832  10.943  2.4225 -2.5126  0.0216
   57MOL0     H 7638   6.534   5.538  10.998 -0.0450 -0.4095 -0.1802
   57MOL0     H 7639   6.633   5.603  10.869 -1.2273 -2.4954  0.1769
   57MOL0     H 7640   6.764   5.729  11.002  0.5647  1.2842  2.7565
   57MOL0     H 7641   6.653   5.730  11.135 -0.4580 -1.6856  1.1220
   57MOL0     H 7642   6.892   5.616  11.144 -0.4312  1.2386  1.5319
   57MOL0     H 7643   6.830   5.500  11.028 -0.9523 -0.4509 -0.2475
   57MOL0     H 7644   6.641   5.473  11.218 -0.2798 -2.2053  1.3699
   57MOL0     H 7645   6.791   5.372  11.196  1.5929  0.3301  0.2677
   57MOL0     H 7646   6.628   5.644  11.412 -2.2992 -4.0160  1.7440
   57MOL0     H 7647   6.858   5.714  11.722 -1.9477  2.9351  2.7416
   57MOL0     H 7648   6.691   5.754  11.658 -2.0319 -1.2789  2.4779
   57MOL0     H 7649   6.609   5.610  11.823  1.7699 -0.5771  1.7733
   57MOL0     H 7650   6.666   5.478  11.737 -3.3278 -0.4434  0.9737
   57MOL0     H 7651   6.869   5.615  11.923 -0.7980 -0.4201  1.2694
   57MOL0     H 7652   6.875   5.460  11.847  1.9327  2.6861 -1.1332
   57MOL0     H 7653   6.796   5.402  12.053  0.0911 -1.5450 -3.0432
   57MOL0     H 7654   6.647   5.401  11.959 -2.4392  2.5456 -2.1885
   57MOL0     H 7655   6.953   5.564  12.144  0.3266  0.2568 -0.9731
   57MOL0     H 7656   7.047   5.677  12.339  0.2634  0.4820  1.2559
   57MOL0     H 7657   6.989   5.982  12.774 -0.4590  1.3193 -1.2986
   57MOL0     H 7658   7.148   6.068  12.936 -1.5680 -0.9049 -0.4782
   57MOL0     H 7659   7.362   6.002  13.092 -2.2694  1.4248 -2.1334
   57MOL0     H 7660   7.446   5.889  12.981 -0.4894  0.7789 -1.6074
   57MOL0     H 7661   7.627   5.962  13.150 -0.4100  0.9977  0.9347
   57MOL0     H 7662   7.659   6.016  12.988 -0.4046  0.4137 -0.1234
   57MOL0     H 7663   7.590   6.246  13.056  0.0979  1.7550  1.1950
   57MOL0     H 7664   7.506   6.183  13.194 -0.7458 -4.1034 -2.0494
   57MOL0     H 7665   7.797   6.214  13.141 -0.5735 -4.1122 -2.9303
   57MOL0     H 7666   7.768   6.088  13.256  2.5181  0.3081 -2.7153
   57MOL0     H 7667   7.646   6.234  13.412  1.4619  1.9434  2.6713
   57MOL0     H 7668   7.665   6.366  13.288  2.8155 -1.2572 -3.0282
   57MOL0     H 7669   7.873   6.222  13.451 -1.9493 -0.0994  1.7823
   57MOL0     H 7670   7.910   6.375  13.359  0.4606  0.2261  1.0738
   57MOL0     H 7671   7.726   6.345  13.602 -0.4000 -1.9894 -0.6645
   57MOL0     H 7672   7.775   6.495  13.518  0.8484  1.2745  0.7294
   57MOL0     H 7673   7.890   6.474  13.712 -0.6755  3.0270 -3.3379
   57MOL0     H 7674   7.980   6.322  13.647 -1.2166 -2.2540 -1.6314
   57MOL0     H 7675   7.473   5.896  12.706 -1.1532 -0.9493 -5.7827
   57MOL0     H 7676   7.316   5.819  12.542 -0.3423 -1.7170  1.7583
   57MOL0     H 7677   6.673   5.847  12.451  1.1592 -0.9529  3.0745
   57MOL0     H 7678   6.567   5.727  12.262  0.1551  2.3929  2.9572
   57MOL0     H 7679   5.932   5.836  10.813 -0.8533 -0.0363  1.0082
   57MOL0     H 7680   5.749   5.718  10.719 -1.4392 -1.7440  0.4065
   57MOL0     H 7681   5.609   5.398  10.367  2.4453 -0.8982  0.5723
   57MOL0     H 7682   5.428   5.269  10.269 -0.7928  0.4985 -0.6278
   57MOL0     H 7683   5.319   4.908  10.503  0.6037 -0.2645 -0.8041
   57MOL0     H 7684   5.293   4.884  10.332  1.2536  1.4403 -0.5937
   57MOL0     H 7685   5.099   5.009  10.531 -2.7360  0.0693 -1.3954
   57MOL0     H 7686   5.103   4.843  10.507 -2.8173  2.5120  2.2297
   57MOL0     H 7687   5.068   5.010  10.249 -1.7866  1.4939 -0.0319
   57MOL0     H 7688   4.954   5.030  10.383  1.1819 -0.9674  2.7827
   57MOL0     H 7689   4.951   4.763  10.384  2.7349 -0.9204  0.1054
   57MOL0     H 7690   4.867   4.847  10.247  0.3740  1.0382  0.6382
   57MOL0     H 7691   5.184   4.616  10.080  0.1853  0.3051  1.3005
   57MOL0     H 7692   5.416   5.035  10.631 -2.0664  1.0634 -0.0613
   57MOL0     H 7693   5.655   5.222  10.809 -2.4749 -0.2004  1.2459
   57MOL0     H 7694   5.582   5.061  10.801 -2.1856 -0.1360 -2.8927
   57MOL0     H 7695   5.738   5.090  10.719  0.1610 -0.7843  1.0491
   58MOL0     O 7696   1.980   7.954  11.136  0.7351 -0.0664  0.8632
   58MOL0     C 7697   1.937   7.843  11.183 -0.8614 -0.7001  0.4490
   58MOL0     O 7698   2.019   7.747  11.212 -0.1740  0.5066 -0.0894
   58MOL0     C 7699   2.152   7.764  11.232 -0.7407 -0.2969  0.1957
   58MOL0     C 7700   2.214   7.871  11.288  0.1235 -0.4481 -0.3911
   58MOL0     C 7701   2.354   7.875  11.304 -0.2262 -0.2831  0.2986
   58MOL0     C 7702   2.433   7.767  11.256 -0.1914  0.4312 -0.3652
   58MOL0     O 7703   2.569   7.767  11.282 -0.0080 -0.1611 -0.5398
   58MOL0     C 7704   2.653   7.669  11.226  0.5560  0.2110 -0.9496
   58MOL0     C 7705   2.794   7.689  11.274 -0.6365 -0.4481  0.2471
   58MOL0     C 7706   2.882   7.592  11.197  0.8489 -0.7163 -0.4428
   58MOL0     C 7707   2.994   7.535  11.296  0.1681  0.7485  0.4932
   58MOL0     C 7708   3.130   7.517  11.217  0.2542 -0.2688  0.2428
   58MOL0     C 7709   3.205   7.648  11.221 -0.1915  1.1540  0.3618
   58MOL0     C 7710   3.350   7.632  11.166  0.9187  0.0120  0.3778
   58MOL0     C 7711   3.371   7.598  11.015 -0.1109 -0.3359 -0.1738
   58MOL0     N 7712   3.512   7.605  10.979 -0.1137  0.2551 -0.4040
   58MOL0     C 7713   3.609   7.524  11.047 -0.3705 -0.6195  0.7548
   58MOL0     C 7714   3.727   7.549  10.968  0.4202 -0.0143 -0.1092
   58MOL0     C 7715   3.859   7.470  10.986  0.0832 -0.3072 -0.0733
   58MOL0     C 7716   3.983   7.550  11.026  0.0076 -0.1032  0.1907
   58MOL0     C 7717   4.047   7.634  10.910  0.4499 -0.3220 -1.0296
   58MOL0     C 7718   4.165   7.733  10.951 -0.8478  0.2694 -0.0016
   58MOL0     O 7719   4.208   7.796  10.821  0.1929 -0.3814  0.2953
   58MOL0     C 7720   4.290   7.899  10.829 -0.3195 -0.0539  0.3194
   58MOL0     C 7721   4.347   7.941  10.707 -0.5220 -0.4594  0.3425
   58MOL0     C 7722   4.461   8.028  10.710  0.4135  0.2646 -0.3536
   58MOL0     C 7723   4.488   8.099  10.826 -0.8832 -0.7103 -0.4413
   58MOL0     C 7724   4.599   8.199  10.816  0.1787 -0.8373  0.4207
   58MOL0     O 7725   4.656   8.230  10.700 -0.4070 -0.4347 -0.6724
   58MOL0     C 7726   4.759   8.320  10.679 -0.2018  0.3411 -0.0956
   58MOL0     C 7727   4.815   8.414  10.771  0.5422 -0.2386  0.5161
   58MOL0     C 7728   4.898   8.518  10.729 -0.3803 -0.6436 -0.2944
   58MOL0     C 7729   4.952   8.520  10.604 -0.0481 -0.2720 -0.0757
   58MOL0     O 7730   5.061   8.618  10.578  0.2046 -0.8351 -0.5583
   58MOL0     C 7731   5.152   8.601  10.471 -0.0328 -0.5283  0.0748
   58MOL0     C 7732   5.235   8.478  10.504 -0.8122 -0.7917 -0.1280
   58MOL0     C 7733   5.344   8.493  10.606  0.4095  0.0935  0.2359
   58MOL0     C 7734   5.436   8.369  10.617 -1.3777 -0.8926  0.3285
   58MOL0     C 7735   5.508   8.376  10.756  0.4448  0.1593  0.2381
   58MOL0     C 7736   5.595   8.260  10.785  0.5429  0.1653  0.0854
   58MOL0     C 7737   5.662   8.267  10.925  0.5046 -0.0785  0.4026
   58MOL0     C 7738   5.735   8.140  10.971 -0.2860  0.1531  0.3699
   58MOL0    Cl 7739   5.795   8.155  11.146  0.3470  0.3246 -0.0860
   58MOL0     C 7740   4.912   8.417  10.519  0.2881  0.2352  0.5821
   58MOL0     C 7741   4.813   8.322  10.551 -0.0510  0.0665 -0.4052
   58MOL0     O 7742   4.636   8.236  10.927 -0.4226 -0.3474 -0.6009
   58MOL0     C 7743   4.424   8.071  10.951 -0.7449  0.6151 -0.0907
   58MOL0     C 7744   4.329   7.965  10.953  1.0394 -0.0627 -0.3499
   58MOL0     N 7745   3.705   7.642  10.868 -0.6875  0.1541 -0.2151
   58MOL0     N 7746   3.579   7.670  10.880 -0.3574  0.8055 -0.5343
   58MOL0     C 7747   2.376   7.665  11.179  0.0271 -0.3125 -0.0601
   58MOL0     C 7748   2.236   7.657  11.180 -0.0412 -0.1809  0.1741
   58MOL0     C 7749   1.805   7.815  11.210  0.9792 -0.5763 -0.4676
   58MOL0     C 7750   1.790   7.723  11.319  0.5361 -0.0401  0.8781
   58MOL0     C 7751   1.659   7.695  11.355 -0.9699 -0.8901 -1.1699
   58MOL0     C 7752   1.545   7.742  11.290  0.0313  0.5170 -0.2214
   58MOL0     O 7753   1.429   7.674  11.322 -0.5722 -0.3224  0.8164
   58MOL0     C 7754   1.390   7.579  11.223 -0.4725  0.4948 -0.6549
   58MOL0     C 7755   1.244   7.555  11.221  0.1812  0.2650 -0.0699
   58MOL0     C 7756   1.166   7.649  11.124 -0.3844 -0.7316 -0.9095
   58MOL0     C 7757   1.018   7.650  11.174 -0.3516  0.1736  0.2611
   58MOL0     C 7758   0.992   7.749  11.278  1.0547  1.2045  0.0489
   58MOL0     C 7759   0.959   7.831  11.363 -1.0511  0.1294 -0.1270
   58MOL0     C 7760   1.562   7.838  11.182 -0.4936 -0.5073 -0.2216
   58MOL0     C 7761   1.694   7.874  11.147  0.6167 -0.6688  0.1821
   58MOL0     C 7762   1.712   7.982  11.042  0.1981 -0.2846  0.5890
   58MOL0     H 7763   2.151   7.953  11.320 -0.0451 -1.9375  3.7258
   58MOL0     H 7764   2.390   7.968  11.348 -1.6002  0.6127 -0.3824
   58MOL0     H 7765   2.633   7.563  11.242  2.8275 -0.4029 -1.9054
   58MOL0     H 7766   2.658   7.685  11.118  2.1780  1.3489 -0.7465
   58MOL0     H 7767   2.799   7.664  11.380 -4.8410 -2.0356  0.2371
   58MOL0     H 7768   2.837   7.789  11.258 -1.4667  0.3598  2.5636
   58MOL0     H 7769   2.931   7.647  11.116 -1.6325  0.6849 -1.0774
   58MOL0     H 7770   2.834   7.503  11.157  0.0595 -0.9804  1.0159
   58MOL0     H 7771   3.002   7.603  11.382 -2.5494  0.2228  1.2557
   58MOL0     H 7772   2.950   7.444  11.339 -3.0118  0.5266 -2.7565
   58MOL0     H 7773   3.188   7.435  11.260  0.3867 -0.3222 -0.0355
   58MOL0     H 7774   3.104   7.493  11.114  2.9627  1.9854 -1.1035
   58MOL0     H 7775   3.154   7.720  11.157 -0.4817 -0.3310 -1.1732
   58MOL0     H 7776   3.212   7.679  11.325 -1.8139 -2.0404  1.5422
   58MOL0     H 7777   3.401   7.560  11.230  1.2617 -0.8413 -0.8130
   58MOL0     H 7778   3.386   7.733  11.189  0.4240  0.4396 -0.6626
   58MOL0     H 7779   3.329   7.500  10.987 -4.1215  1.8919 -3.1795
   58MOL0     H 7780   3.311   7.663  10.950  0.9051  2.0509  1.1532
   58MOL0     H 7781   3.598   7.443  11.119 -2.3268 -0.1000  1.0896
   58MOL0     H 7782   3.856   7.401  11.071 -1.4229  0.3654  0.4364
   58MOL0     H 7783   3.870   7.416  10.892 -1.0239 -1.0306  0.2015
   58MOL0     H 7784   3.965   7.603  11.120  0.0279 -1.2315  0.8534
   58MOL0     H 7785   4.054   7.478  11.068  0.3759  2.4743  4.5377
   58MOL0     H 7786   3.978   7.697  10.854  1.4707  1.8854  0.0738
   58MOL0     H 7787   4.074   7.556  10.838 -4.0619 -2.7131 -0.4905
   58MOL0     H 7788   4.256   7.679  10.979  0.9527  1.9297 -2.2371
   58MOL0     H 7789   4.140   7.801  11.032  1.9242 -0.0954  1.2960
   58MOL0     H 7790   4.316   7.893  10.614 -0.6575  1.0117 -0.4010
   58MOL0     H 7791   4.514   8.044  10.617  2.3073 -0.2591  0.5872
   58MOL0     H 7792   4.785   8.424  10.874 -1.9864  2.1727 -0.3380
   58MOL0     H 7793   4.927   8.592  10.803  1.8190 -1.9131  0.2008
   58MOL0     H 7794   5.094   8.594  10.379  2.2320  0.9470 -1.5613
   58MOL0     H 7795   5.224   8.681  10.456  0.8917 -0.9282  2.0186
   58MOL0     H 7796   5.165   8.413  10.556 -0.5781 -1.4037 -0.5627
   58MOL0     H 7797   5.276   8.435  10.412  2.4395 -0.0546  0.8497
   58MOL0     H 7798   5.406   8.576  10.573  0.6760 -0.9825 -2.1652
   58MOL0     H 7799   5.301   8.513  10.705 -1.8891  2.2744 -1.0861
   58MOL0     H 7800   5.512   8.379  10.539 -0.8954  4.3271  1.1149
   58MOL0     H 7801   5.385   8.274  10.601 -1.7047 -1.0864  2.2538
   58MOL0     H 7802   5.434   8.367  10.836  0.4191  0.8836  0.3024
   58MOL0     H 7803   5.559   8.472  10.768  1.2553 -0.5439  3.1584
   58MOL0     H 7804   5.553   8.160  10.774 -2.2443  1.2740 -0.0854
   58MOL0     H 7805   5.675   8.276  10.712 -0.9866  4.7153 -0.9104
   58MOL0     H 7806   5.586   8.293  11.000  1.0680  0.6087  0.7495
   58MOL0     H 7807   5.737   8.346  10.923  2.2630 -1.6495 -2.6906
   58MOL0     H 7808   5.675   8.050  10.960 -1.4710  0.8413  1.0435
   58MOL0     H 7809   5.821   8.129  10.904  0.4643  0.5879  1.2283
   58MOL0     H 7810   4.962   8.415  10.423  1.4882 -2.1368  1.1814
   58MOL0     H 7811   4.781   8.263  10.466 -3.5501  0.3666  0.5675
   58MOL0     H 7812   4.448   8.125  11.042 -0.5513  0.4678 -0.0540
   58MOL0     H 7813   4.299   7.932  11.053 -0.2321 -1.7039 -1.2090
   58MOL0     H 7814   2.426   7.582  11.130 -3.4189 -1.4722 -1.9406
   58MOL0     H 7815   2.191   7.567  11.140  1.5351 -0.5993 -0.7311
   58MOL0     H 7816   1.875   7.678  11.369  2.6172  2.1268 -0.5233
   58MOL0     H 7817   1.640   7.625  11.436 -0.6824  0.3425 -0.0098
   58MOL0     H 7818   1.441   7.483  11.240 -0.6806  0.4386 -0.3634
   58MOL0     H 7819   1.426   7.613  11.125  0.1410 -0.9835 -0.9732
   58MOL0     H 7820   1.208   7.568  11.324  0.1979  1.7556 -0.2375
   58MOL0     H 7821   1.206   7.458  11.188 -0.2812  1.0623 -2.0145
   58MOL0     H 7822   1.171   7.609  11.023 -0.5486 -1.8487 -0.4847
   58MOL0     H 7823   1.207   7.750  11.132 -0.9642 -0.4861 -0.9252
   58MOL0     H 7824   0.958   7.680  11.087  1.5258  0.8653 -0.8532
   58MOL0     H 7825   0.992   7.547  11.199 -0.0438 -0.8099 -2.9893
   58MOL0     H 7826   0.952   7.894  11.449 -0.0857 -0.8318  0.6777
   58MOL0     H 7827   1.474   7.875  11.130 -1.4222 -3.5239 -1.0188
   58MOL0     H 7828   1.794   7.954  10.975  0.1808  0.1598  0.3746
   58MOL0     H 7829   1.620   7.986  10.983  0.2558 -1.0280  0.4433
   58MOL0     H 7830   1.732   8.074  11.098 -0.6026 -0.1973  0.7399
   59MOL0     O 7831   1.030   9.408   4.248  1.0528  0.3385 -0.0599
   59MOL0     C 7832   1.040   9.318   4.338  0.4824  0.0319 -0.0524
   59MOL0     O 7833   1.164   9.262   4.380  0.8144  0.0201  0.8584
   59MOL0     C 7834   1.278   9.311   4.318  0.4041  0.1163  0.0646
   59MOL0     C 7835   1.334   9.255   4.205  0.3404 -0.7928 -0.2780
   59MOL0     C 7836   1.453   9.300   4.149 -0.5915 -0.1959 -0.3513
   59MOL0     C 7837   1.519   9.409   4.205 -0.1147  0.2124  0.2357
   59MOL0     O 7838   1.627   9.467   4.137 -1.3198 -0.2242 -1.1544
   59MOL0     C 7839   1.728   9.533   4.219  0.2940  0.2815 -0.1910
   59MOL0     C 7840   1.836   9.576   4.126  0.1163 -0.3310 -0.4196
   59MOL0     C 7841   1.797   9.708   4.058  0.1880 -0.0649 -0.3685
   59MOL0     C 7842   1.913   9.771   3.983 -0.4182 -0.5295 -0.0807
   59MOL0     C 7843   1.869   9.914   3.935  0.5349 -0.8157  0.2503
   59MOL0     C 7844   1.981   9.986   3.860 -1.2150 -0.3576 -0.3329
   59MOL0     C 7845   2.014  10.119   3.930  0.7013 -0.7562  0.8743
   59MOL0     C 7846   2.110  10.104   4.052 -0.4749 -0.4257  0.3178
   59MOL0     N 7847   2.137  10.230   4.121 -0.1379  0.0799  0.2852
   59MOL0     C 7848   2.184  10.341   4.062  0.6625 -0.8611 -0.1184
   59MOL0     C 7849   2.206  10.420   4.158  0.0326  0.2003  0.2586
   59MOL0     C 7850   2.284  10.555   4.149  0.7375 -0.0676  0.1809
   59MOL0     C 7851   2.425  10.522   4.172  2.2904 -1.0524  0.3607
   59MOL0     C 7852   2.514  10.653   4.154  0.4228  1.1520  0.2058
   59MOL0     C 7853   2.655  10.646   4.203 -0.0423  0.6046 -0.9465
   59MOL0     O 7854   2.740  10.565   4.122  0.4365  0.9734  0.4080
   59MOL0     C 7855   2.852  10.508   4.176  0.2619 -0.6469  1.1252
   59MOL0     C 7856   2.942  10.455   4.086 -0.0137 -0.2225  0.0277
   59MOL0     C 7857   3.059  10.396   4.125  0.1724 -0.2935  0.0634
   59MOL0     C 7858   3.089  10.388   4.266  0.3873 -0.5892 -0.4346
   59MOL0     C 7859   3.216  10.334   4.314  0.8126 -0.4278 -0.0833
   59MOL0     O 7860   3.242  10.347   4.444 -0.0767  1.0411  0.1954
   59MOL0     C 7861   3.361  10.308   4.495 -0.1144 -0.2980  0.0931
   59MOL0     C 7862   3.434  10.392   4.577  0.9944  0.4478  0.0573
   59MOL0     C 7863   3.557  10.349   4.637 -0.1473 -0.6909 -0.1516
   59MOL0     C 7864   3.614  10.223   4.608  0.5227 -0.3180 -0.4761
   59MOL0     O 7865   3.737  10.188   4.657  0.5007  0.2004 -0.0698
   59MOL0     C 7866   3.819  10.284   4.734 -0.5306  0.4509  0.8478
   59MOL0     C 7867   3.969  10.235   4.735 -0.0142 -0.2818  0.4043
   59MOL0     C 7868   3.979  10.120   4.838 -0.7637  0.2531  0.0032
   59MOL0     C 7869   4.133  10.080   4.843 -0.3866 -0.0948  0.0752
   59MOL0     C 7870   4.172  10.015   4.969 -0.0045  0.3682  0.9357
   59MOL0     C 7871   4.322   9.989   4.974 -1.0040  0.4950 -0.1574
   59MOL0     C 7872   4.373   9.914   5.099 -0.4303 -0.6895 -0.2695
   59MOL0     C 7873   4.519   9.898   5.074  0.2984  0.4706 -0.1175
   59MOL0    Cl 7874   4.550   9.767   5.193 -0.4745 -0.2054 -0.2277
   59MOL0     C 7875   3.542  10.137   4.523 -0.3728  0.2814  0.9181
   59MOL0     C 7876   3.416  10.174   4.477 -0.3057  0.2908 -0.0967
   59MOL0     O 7877   3.285  10.273   4.233  0.2036  0.0110  0.7593
   59MOL0     C 7878   2.993  10.427   4.359  0.2098  0.6733 -0.2313
   59MOL0     C 7879   2.874  10.490   4.317 -0.9995  0.4479  0.7096
   59MOL0     N 7880   2.161  10.365   4.284 -0.3985 -0.5446 -0.5347
   59MOL0     N 7881   2.130  10.246   4.258  0.1793  0.0246 -0.5675
   59MOL0     C 7882   1.464   9.467   4.320 -0.4320 -0.0190  0.1457
   59MOL0     C 7883   1.344   9.419   4.380 -0.7020  0.5884 -0.1990
   59MOL0     C 7884   0.915   9.268   4.394  0.3382  0.5616 -0.2964
   59MOL0     C 7885   0.812   9.355   4.414 -0.7159 -0.2627 -0.3425
   59MOL0     C 7886   0.698   9.329   4.481  0.6325 -0.4131 -0.0281
   59MOL0     C 7887   0.672   9.205   4.535 -0.7700 -0.4265 -0.8701
   59MOL0     O 7888   0.574   9.169   4.618  0.1559  0.2564  0.5506
   59MOL0     C 7889   0.507   9.266   4.700  0.0410 -0.9448  0.3460
   59MOL0     C 7890   0.412   9.212   4.805  1.0923 -0.6056 -0.3095
   59MOL0     C 7891   0.347   9.081   4.753 -0.0574  0.1255 -0.5704
   59MOL0     C 7892   0.261   9.000   4.861  0.7509 -0.2208 -0.4664
   59MOL0     C 7893   0.353   8.957   4.966  0.1444 -0.1503  0.1512
   59MOL0     C 7894   0.418   8.926   5.063 -0.6464  0.0206 -1.1876
   59MOL0     C 7895   0.769   9.104   4.507  0.8856  0.0567 -0.2503
   59MOL0     C 7896   0.890   9.131   4.430  0.1968 -0.4237  1.2676
   59MOL0     C 7897   0.990   9.020   4.401  0.7185 -0.1022  0.2029
   59MOL0     H 7898   1.273   9.176   4.162 -2.6660  1.9761 -1.4627
   59MOL0     H 7899   1.496   9.243   4.067  2.2471 -0.5931  1.3100
   59MOL0     H 7900   1.694   9.625   4.267  0.2598  0.0152  0.2971
   59MOL0     H 7901   1.771   9.469   4.296  1.5118  1.0524 -0.2201
   59MOL0     H 7902   1.860   9.494   4.057 -2.7123  0.7627 -2.9414
   59MOL0     H 7903   1.930   9.594   4.179  0.9167  3.5749 -2.7868
   59MOL0     H 7904   1.773   9.773   4.143 -0.2842  1.0127 -1.3061
   59MOL0     H 7905   1.697   9.708   4.014 -0.8763 -2.5961  1.8174
   59MOL0     H 7906   2.004   9.774   4.043  0.9909 -2.4341 -1.9766
   59MOL0     H 7907   1.944   9.714   3.895  1.7676  0.7966 -0.2338
   59MOL0     H 7908   1.778   9.898   3.877  1.4712 -0.8135 -1.2503
   59MOL0     H 7909   1.830   9.965   4.024 -0.7586 -1.5484  0.1203
   59MOL0     H 7910   2.069   9.923   3.848 -0.4959  0.2346  1.5288
   59MOL0     H 7911   1.944  10.004   3.758 -1.1848  0.5485 -0.1940
   59MOL0     H 7912   1.919  10.161   3.964 -1.0526 -3.7392 -0.0030
   59MOL0     H 7913   2.056  10.185   3.854 -0.2733 -0.3128  0.7187
   59MOL0     H 7914   2.062  10.032   4.118  0.8349 -2.8203 -1.1616
   59MOL0     H 7915   2.205  10.062   4.015  0.2510  1.3235  0.0860
   59MOL0     H 7916   2.197  10.370   3.958  0.3078 -0.2234  0.0112
   59MOL0     H 7917   2.276  10.607   4.054  0.9022 -1.7140 -0.7791
   59MOL0     H 7918   2.250  10.623   4.228  1.7845 -0.4451  0.9946
   59MOL0     H 7919   2.430  10.478   4.272 -0.3110 -0.1237  0.9732
   59MOL0     H 7920   2.460  10.457   4.091 -0.9516  0.3178 -2.4100
   59MOL0     H 7921   2.460  10.730   4.209 -3.4529 -0.1463 -1.4582
   59MOL0     H 7922   2.518  10.680   4.048  0.5031 -2.0309 -0.6903
   59MOL0     H 7923   2.652  10.606   4.305  1.1470  1.1464 -0.6759
   59MOL0     H 7924   2.698  10.747   4.204  1.1597  0.1991  2.4800
   59MOL0     H 7925   2.919  10.454   3.980  3.1756 -1.1558 -0.7813
   59MOL0     H 7926   3.127  10.359   4.048  0.1394  4.4062 -2.6237
   59MOL0     H 7927   3.393  10.491   4.588 -0.8857 -0.0858 -1.5917
   59MOL0     H 7928   3.606  10.424   4.698 -1.3336  0.0294 -0.0357
   59MOL0     H 7929   3.828  10.383   4.688  0.0467 -0.4157 -1.0186
   59MOL0     H 7930   3.781  10.282   4.836 -0.2184  1.6819  1.0048
   59MOL0     H 7931   4.003  10.217   4.633 -0.6157  3.6959 -0.6794
   59MOL0     H 7932   4.034  10.316   4.772 -0.7665  0.3050  0.4647
   59MOL0     H 7933   3.958  10.167   4.934  2.5038 -0.7931  1.3842
   59MOL0     H 7934   3.921  10.035   4.802 -2.3002  1.2594  0.0130
   59MOL0     H 7935   4.198  10.165   4.823  1.0367 -1.2020 -0.1494
   59MOL0     H 7936   4.162  10.004   4.769  2.5328 -0.4724  1.4578
   59MOL0     H 7937   4.121   9.923   4.997  1.0398 -0.2742  0.7554
   59MOL0     H 7938   4.164  10.083   5.055  0.8223  0.8654  0.6283
   59MOL0     H 7939   4.343   9.925   4.887  0.0722  1.1486 -0.3939
   59MOL0     H 7940   4.385  10.074   4.948  1.9991 -1.9340 -1.4105
   59MOL0     H 7941   4.329   9.814   5.098 -4.1304  0.7880  0.6863
   59MOL0     H 7942   4.350   9.950   5.199 -2.1633 -0.3257 -0.7729
   59MOL0     H 7943   4.544   9.871   4.971 -0.8397  1.4604 -0.6835
   59MOL0     H 7944   4.588   9.980   5.094  1.2850  0.0479 -1.5666
   59MOL0     H 7945   3.592  10.043   4.504 -0.6144  0.5954 -1.6352
   59MOL0     H 7946   3.356  10.102   4.424  0.9033 -2.3428  1.8865
   59MOL0     H 7947   3.004  10.411   4.466 -3.3230 -0.1043  0.1350
   59MOL0     H 7948   2.814  10.536   4.395 -1.3623  1.6256 -0.2239
   59MOL0     H 7949   1.503   9.560   4.360 -2.0975  2.2195 -2.9292
   59MOL0     H 7950   1.304   9.467   4.468  1.8016  4.2926 -0.8595
   59MOL0     H 7951   0.824   9.456   4.377  0.6996 -0.5080 -0.5759
   59MOL0     H 7952   0.643   9.414   4.519  2.4359  1.1269 -0.6832
   59MOL0     H 7953   0.454   9.327   4.627  0.6849 -1.2934 -0.4294
   59MOL0     H 7954   0.584   9.322   4.754 -2.1484  1.8987  0.7289
   59MOL0     H 7955   0.336   9.287   4.830  1.8443 -0.3988  1.5934
   59MOL0     H 7956   0.472   9.189   4.894 -0.7665  1.0822  1.4906
   59MOL0     H 7957   0.434   9.020   4.725  3.0381  3.0381  1.8506
   59MOL0     H 7958   0.287   9.106   4.665  0.2251 -0.6946 -1.0012
   59MOL0     H 7959   0.186   9.068   4.900  0.6961 -1.3791  1.5757
   59MOL0     H 7960   0.216   8.909   4.820  0.2713 -1.3588  2.3514
   59MOL0     H 7961   0.489   8.891   5.135  1.4759 -1.3142 -3.7493
   59MOL0     H 7962   0.762   8.997   4.523  1.9970 -0.0506 -0.4195
   59MOL0     H 7963   0.929   8.931   4.383 -1.5045  0.6797  3.0284
   59MOL0     H 7964   1.043   9.035   4.306 -0.3698 -3.2245 -1.0299
   59MOL0     H 7965   1.054   8.998   4.486  0.9957 -1.2203 -0.2747
   60MOL0     O 7966   1.938   7.475   6.551 -0.2207  0.0448 -0.3859
   60MOL0     C 7967   1.994   7.427   6.650 -0.5573  1.0285  0.0729
   60MOL0     O 7968   1.946   7.372   6.749  0.0229 -0.6262 -0.1767
   60MOL0     C 7969   1.811   7.343   6.758  0.3854 -0.3972 -0.3045
   60MOL0     C 7970   1.719   7.432   6.823  0.4957 -0.0847  0.6161
   60MOL0     C 7971   1.593   7.376   6.853  0.3586 -0.2232  0.0144
   60MOL0     C 7972   1.562   7.245   6.832  0.3587  0.3405  0.2079
   60MOL0     O 7973   1.452   7.211   6.895  0.4011  0.6527  0.5506
   60MOL0     C 7974   1.407   7.074   6.885  0.3797  0.6016  0.9759
   60MOL0     C 7975   1.249   7.083   6.915 -0.9831 -0.4410 -0.7426
   60MOL0     C 7976   1.172   6.951   6.894  0.5364  1.4589 -0.4878
   60MOL0     C 7977   1.208   6.848   6.998  0.2431 -0.2570 -1.0463
   60MOL0     C 7978   1.121   6.722   6.986 -0.5610 -1.1997 -0.8463
   60MOL0     C 7979   1.182   6.636   6.871 -0.1183 -0.6335  0.2452
   60MOL0     C 7980   1.071   6.534   6.850  0.3414 -0.4807 -0.0957
   60MOL0     C 7981   1.074   6.455   6.718 -0.2112 -0.6695 -0.5055
   60MOL0     N 7982   0.960   6.362   6.708 -0.5776 -0.4396 -0.8318
   60MOL0     C 7983   0.971   6.221   6.681  0.1878 -0.1213 -1.0845
   60MOL0     C 7984   0.838   6.176   6.698 -1.5396  0.8105 -0.5674
   60MOL0     C 7985   0.781   6.040   6.687 -0.6376 -0.1786  0.5236
   60MOL0     C 7986   0.872   5.929   6.732 -0.7635  0.4647  0.0915
   60MOL0     C 7987   0.874   5.920   6.878 -0.2195 -0.1500  0.0050
   60MOL0     C 7988   0.992   5.843   6.943 -1.4962 -0.7970  0.7417
   60MOL0     O 7989   0.976   5.707   6.937  0.5751  1.3742  0.1109
   60MOL0     C 7990   1.086   5.619   6.953 -0.5279  0.0244 -1.1425
   60MOL0     C 7991   1.223   5.656   6.963  0.9889 -0.3625  0.6588
   60MOL0     C 7992   1.320   5.560   6.966  0.3494  0.0788  0.8048
   60MOL0     C 7993   1.281   5.428   6.974  0.7329  0.4492 -0.2820
   60MOL0     C 7994   1.378   5.321   6.996 -0.6743  0.0205  0.0969
   60MOL0     O 7995   1.318   5.209   7.044  0.8201  0.3324  0.3776
   60MOL0     C 7996   1.390   5.107   7.091  0.1819 -0.2570  0.5635
   60MOL0     C 7997   1.367   4.980   7.047 -0.4715 -0.2420 -0.4181
   60MOL0     C 7998   1.436   4.877   7.115 -0.3224 -0.3630  0.2642
   60MOL0     C 7999   1.517   4.897   7.226 -0.1288 -0.4106  0.1286
   60MOL0     O 8000   1.590   4.798   7.294 -0.8180 -0.5663  0.2099
   60MOL0     C 8001   1.534   4.665   7.299  0.3104 -0.5527  0.4817
   60MOL0     C 8002   1.588   4.572   7.407 -0.0170  0.4904  0.1684
   60MOL0     C 8003   1.745   4.558   7.407 -0.2164 -0.2115 -0.2671
   60MOL0     C 8004   1.798   4.446   7.505 -0.0233 -0.0844 -0.5068
   60MOL0     C 8005   1.788   4.493   7.650  0.5636 -0.1852 -0.9458
   60MOL0     C 8006   1.856   4.408   7.761  0.1103  0.7760  0.4726
   60MOL0     C 8007   1.800   4.264   7.756  0.2550  0.2511 -0.1196
   60MOL0     C 8008   1.843   4.173   7.877  0.8479 -0.5617  0.3407
   60MOL0    Cl 8009   2.020   4.176   7.874 -0.1314  0.0730 -0.4366
   60MOL0     C 8010   1.544   5.027   7.257 -0.3681  0.1687  0.0927
   60MOL0     C 8011   1.470   5.128   7.202  1.1054  0.0732  0.0468
   60MOL0     O 8012   1.497   5.334   6.979 -0.0922  0.1852 -0.0249
   60MOL0     C 8013   1.144   5.392   6.965 -0.2993 -0.4149 -0.3891
   60MOL0     C 8014   1.044   5.488   6.960  0.2973 -0.0858  0.6040
   60MOL0     N 8015   0.762   6.290   6.718  0.1989 -0.0141  0.6574
   60MOL0     N 8016   0.831   6.399   6.729 -0.4246 -0.5254 -0.3699
   60MOL0     C 8017   1.646   7.169   6.753  0.3261  0.9486  0.4344
   60MOL0     C 8018   1.765   7.223   6.708 -1.0950  0.3683 -0.3988
   60MOL0     C 8019   2.140   7.426   6.632  0.7568 -0.6241  0.5587
   60MOL0     C 8020   2.226   7.473   6.733 -0.6327  0.3745  0.6212
   60MOL0     C 8021   2.362   7.483   6.715 -0.2617  0.3426  0.4185
   60MOL0     C 8022   2.429   7.442   6.606  0.5838  0.4632  0.1687
   60MOL0     O 8023   2.566   7.450   6.605 -0.7600 -0.5499 -0.1946
   60MOL0     C 8024   2.637   7.408   6.494  0.4939 -0.2648 -0.3476
   60MOL0     C 8025   2.771   7.452   6.500  0.0191 -0.5441  0.7711
   60MOL0     C 8026   2.861   7.402   6.380 -0.4584  0.3093 -0.0856
   60MOL0     C 8027   2.895   7.250   6.386  0.4719  0.3995  0.2093
   60MOL0     C 8028   3.019   7.223   6.316  0.7675  0.0540  0.0446
   60MOL0     C 8029   3.123   7.187   6.264  0.1646  0.4840 -0.3206
   60MOL0     C 8030   2.346   7.388   6.505 -0.1930 -0.0214  0.3211
   60MOL0     C 8031   2.206   7.382   6.511 -0.1843  0.2105 -0.7426
   60MOL0     C 8032   2.136   7.320   6.391  0.1338  0.3219  0.3736
   60MOL0     H 8033   1.737   7.533   6.859  0.5179  0.0775  0.1510
   60MOL0     H 8034   1.510   7.429   6.899  0.5859  0.5499 -0.4557
   60MOL0     H 8035   1.417   7.020   6.791  1.5494 -1.6053  2.2749
   60MOL0     H 8036   1.454   7.006   6.957  0.2347 -0.4214  0.1228
   60MOL0     H 8037   1.207   7.163   6.853 -0.4394  0.8290  0.4831
   60MOL0     H 8038   1.234   7.119   7.017 -1.7122  1.2282 -1.4025
   60MOL0     H 8039   1.183   6.911   6.792 -2.0831 -0.9398  0.0551
   60MOL0     H 8040   1.065   6.970   6.893  0.5403  1.7675 -3.3336
   60MOL0     H 8041   1.315   6.827   6.986  0.2267 -0.4447 -0.8853
   60MOL0     H 8042   1.197   6.897   7.096 -1.1260  0.0101 -1.3164
   60MOL0     H 8043   1.111   6.665   7.080 -0.4283 -1.9054 -1.2543
   60MOL0     H 8044   1.015   6.741   6.968 -0.4688  0.0428 -0.2109
   60MOL0     H 8045   1.200   6.689   6.777  0.6538 -2.6563 -0.8032
   60MOL0     H 8046   1.273   6.580   6.892 -0.1142 -0.2428  1.3134
   60MOL0     H 8047   0.977   6.589   6.857  1.4806  1.6088 -0.4973
   60MOL0     H 8048   1.095   6.465   6.931  0.4501  0.0650  0.3340
   60MOL0     H 8049   1.051   6.510   6.627 -0.1794 -0.6477 -0.5001
   60MOL0     H 8050   1.166   6.399   6.700 -0.4710 -0.4217 -3.0411
   60MOL0     H 8051   1.057   6.156   6.669  0.4090 -0.1539  0.5186
   60MOL0     H 8052   0.698   6.034   6.758 -0.1795  3.0010  1.4998
   60MOL0     H 8053   0.733   6.018   6.591 -0.3907 -0.7496  0.5304
   60MOL0     H 8054   0.830   5.837   6.689 -1.7731  0.2964  1.3717
   60MOL0     H 8055   0.972   5.953   6.695 -0.4907  1.2052  1.2660
   60MOL0     H 8056   0.778   5.873   6.900 -0.3226  0.0096 -0.1031
   60MOL0     H 8057   0.879   6.024   6.913 -2.2292  0.0633 -0.1909
   60MOL0     H 8058   1.000   5.879   7.046 -1.4806 -1.0903  0.8420
   60MOL0     H 8059   1.082   5.868   6.887 -2.3579 -2.9892 -1.8456
   60MOL0     H 8060   1.253   5.760   6.957  2.3642 -0.6968  1.2042
   60MOL0     H 8061   1.424   5.589   6.973  1.1377 -1.3079 -2.6816
   60MOL0     H 8062   1.305   4.949   6.964  2.1248  0.5314 -2.8091
   60MOL0     H 8063   1.411   4.774   7.094 -0.9979  0.1639 -1.6671
   60MOL0     H 8064   1.428   4.678   7.319 -0.2825 -1.3923 -1.7976
   60MOL0     H 8065   1.549   4.614   7.203  2.3971  2.7154 -1.1513
   60MOL0     H 8066   1.564   4.636   7.493  2.0511  2.1010 -0.3504
   60MOL0     H 8067   1.535   4.477   7.414 -1.5647  1.2237 -0.8806
   60MOL0     H 8068   1.771   4.523   7.307 -0.0941 -2.5565  0.5181
   60MOL0     H 8069   1.792   4.651   7.441  2.0802 -0.6111 -2.1126
   60MOL0     H 8070   1.902   4.417   7.487 -0.4330 -2.8270  1.0022
   60MOL0     H 8071   1.740   4.356   7.484 -0.0943  0.0919 -1.0809
   60MOL0     H 8072   1.682   4.495   7.677  1.0671  1.8556  1.2276
   60MOL0     H 8073   1.825   4.596   7.657 -2.7951  1.0255  1.6482
   60MOL0     H 8074   1.964   4.396   7.744 -0.0191 -5.1343  1.7882
   60MOL0     H 8075   1.838   4.452   7.859  0.4610  0.6693  0.5857
   60MOL0     H 8076   1.849   4.224   7.666  1.9469 -1.4298  1.4428
   60MOL0     H 8077   1.691   4.267   7.748  0.1740  2.6026  1.2297
   60MOL0     H 8078   1.806   4.218   7.970 -1.0154 -0.7917 -0.2404
   60MOL0     H 8079   1.819   4.067   7.866  0.4895 -0.2908 -1.7598
   60MOL0     H 8080   1.614   5.050   7.337  0.7437  0.9645 -1.0576
   60MOL0     H 8081   1.493   5.231   7.227  2.6201  0.8455 -3.7848
   60MOL0     H 8082   1.119   5.287   6.959  0.6523 -0.5742 -2.2218
   60MOL0     H 8083   0.938   5.467   6.947 -0.1115 -1.0032  4.3000
   60MOL0     H 8084   1.626   7.065   6.732  2.6642 -0.1617  2.9928
   60MOL0     H 8085   1.843   7.161   6.664  0.5223  1.8977  0.2080
   60MOL0     H 8086   2.183   7.499   6.830  0.5419 -0.1044  1.2976
   60MOL0     H 8087   2.423   7.509   6.800  1.1210 -0.5539 -0.2721
   60MOL0     H 8088   2.587   7.441   6.403 -0.1878 -1.1131 -0.2907
   60MOL0     H 8089   2.631   7.298   6.490  2.0291 -0.5110  1.9864
   60MOL0     H 8090   2.821   7.424   6.593 -1.1208  2.5536  2.4677
   60MOL0     H 8091   2.775   7.561   6.495  1.2302 -0.6088 -0.4716
   60MOL0     H 8092   2.957   7.452   6.397 -1.3704  0.7983  5.1601
   60MOL0     H 8093   2.819   7.426   6.282 -0.1530 -0.8698 -0.5254
   60MOL0     H 8094   2.905   7.223   6.491 -0.5622  1.2237  0.5333
   60MOL0     H 8095   2.819   7.196   6.329  3.0108 -1.6685 -1.4607
   60MOL0     H 8096   3.213   7.143   6.226 -0.5605 -0.8899 -0.5317
   60MOL0     H 8097   2.387   7.339   6.417 -2.0561 -0.2551 -0.4579
   60MOL0     H 8098   2.109   7.393   6.314 -1.7392 -2.0001 -1.3228
   60MOL0     H 8099   2.190   7.242   6.337 -0.1134  0.9970 -0.8858
   60MOL0     H 8100   2.043   7.274   6.426  1.0399 -2.1066 -0.2006
   61MOL0     O 8101   1.019   6.453   1.673  0.1304 -0.2734  0.0131
   61MOL0     C 8102   1.133   6.425   1.701 -0.0011 -0.1603  0.1354
   61MOL0     O 8103   1.198   6.324   1.634  0.0252  0.0503 -0.3801
   61MOL0     C 8104   1.165   6.266   1.518 -0.1507 -0.1368 -1.1729
   61MOL0     C 8105   1.066   6.311   1.427  0.3502  0.3144 -0.1541
   61MOL0     C 8106   1.041   6.261   1.299  0.2804 -1.2248 -0.1236
   61MOL0     C 8107   1.121   6.148   1.262  0.0942 -0.2295 -0.2402
   61MOL0     O 8108   1.111   6.082   1.140  0.4778  0.2612 -0.3364
   61MOL0     C 8109   1.014   6.127   1.038 -0.3206  0.8076  0.1943
   61MOL0     C 8110   1.076   6.245   0.961  0.2018  0.0520 -0.2923
   61MOL0     C 8111   1.059   6.240   0.810 -0.3710 -1.0983  0.5538
   61MOL0     C 8112   1.108   6.362   0.730  0.3215  0.3307  0.8286
   61MOL0     C 8113   1.040   6.363   0.589  0.4152 -0.0547  1.0970
   61MOL0     C 8114   1.052   6.500   0.512 -0.0218 -0.1854 -0.1028
   61MOL0     C 8115   1.200   6.514   0.461 -0.2400  0.9738 -0.4120
   61MOL0     C 8116   1.200   6.624   0.365 -0.3646 -0.2293 -0.2555
   61MOL0     N 8117   1.147   6.744   0.433 -0.6465  0.2675  0.0334
   61MOL0     C 8118   1.020   6.800   0.413  0.1820  0.2444 -0.1628
   61MOL0     C 8119   1.041   6.927   0.459 -0.2511  0.0107  0.3437
   61MOL0     C 8120   0.950   7.045   0.435  0.5718  0.0661 -0.0191
   61MOL0     C 8121   0.868   7.084   0.557  1.2386  0.1763 -0.2000
   61MOL0     C 8122   0.731   7.015   0.558 -0.2543  0.0728  0.1056
   61MOL0     C 8123   0.692   6.982   0.702  0.5060  0.7922 -0.9424
   61MOL0     O 8124   0.766   6.867   0.734  0.0557 -0.4604 -0.0520
   61MOL0     C 8125   0.758   6.794   0.855  0.2861  0.1267 -0.2150
   61MOL0     C 8126   0.825   6.676   0.850 -0.0628 -0.2327  0.7542
   61MOL0     C 8127   0.793   6.572   0.943 -0.6572 -0.1880  0.5302
   61MOL0     C 8128   0.709   6.598   1.052 -0.2883  0.1803 -1.0885
   61MOL0     C 8129   0.684   6.498   1.167  0.0880 -0.9191  0.2504
   61MOL0     O 8130   0.602   6.535   1.273  0.2350 -0.0506 -0.2962
   61MOL0     C 8131   0.599   6.444   1.383  0.6936 -0.1599  0.0325
   61MOL0     C 8132   0.497   6.344   1.395  0.7659 -0.1201 -0.6529
   61MOL0     C 8133   0.482   6.262   1.504  0.1424  0.5598  0.3477
   61MOL0     C 8134   0.574   6.271   1.608  0.4002  0.6295 -0.7316
   61MOL0     O 8135   0.574   6.175   1.710 -0.0671  0.1650  0.0550
   61MOL0     C 8136   0.662   6.193   1.817 -0.0244 -0.2964 -0.0330
   61MOL0     C 8137   0.607   6.304   1.906  0.3438  0.0309  0.7816
   61MOL0     C 8138   0.674   6.306   2.042 -1.0153 -1.0531 -0.7605
   61MOL0     C 8139   0.600   6.413   2.138 -0.0072 -0.1647 -0.2022
   61MOL0     C 8140   0.661   6.428   2.278  0.0273  0.3396 -0.8637
   61MOL0     C 8141   0.616   6.537   2.366  0.1566  0.3387  0.2731
   61MOL0     C 8142   0.479   6.506   2.444  0.3164  0.7320  0.5590
   61MOL0     C 8143   0.506   6.438   2.576 -0.2422  0.9140  0.0616
   61MOL0    Cl 8144   0.518   6.551   2.707  0.1740  0.5957  0.1779
   61MOL0     C 8145   0.676   6.369   1.602 -0.2156 -0.5251  0.4476
   61MOL0     C 8146   0.685   6.461   1.494  0.6114  1.0398  0.3725
   61MOL0     O 8147   0.753   6.398   1.156  0.1547  1.3262  0.3835
   61MOL0     C 8148   0.643   6.721   1.059 -0.4073 -0.4146 -0.2176
   61MOL0     C 8149   0.662   6.820   0.959  0.0799  0.1949  0.3845
   61MOL0     N 8150   1.165   6.941   0.514  0.0249  0.0944 -0.1176
   61MOL0     N 8151   1.233   6.833   0.494  0.0235 -0.3028 -1.0492
   61MOL0     C 8152   1.228   6.102   1.344 -0.0625  1.3206  0.0323
   61MOL0     C 8153   1.243   6.162   1.476  0.6882  0.4372 -0.2697
   61MOL0     C 8154   1.204   6.503   1.800 -0.1658 -0.2121 -0.4796
   61MOL0     C 8155   1.167   6.633   1.825 -0.1356  0.3793  0.9136
   61MOL0     C 8156   1.230   6.715   1.913 -0.1680  0.3616 -0.2135
   61MOL0     C 8157   1.332   6.661   1.999  0.2398 -0.6617  0.3078
   61MOL0     O 8158   1.384   6.753   2.079 -0.2556 -0.2998 -0.0745
   61MOL0     C 8159   1.486   6.704   2.175  0.4456 -0.7397 -0.6182
   61MOL0     C 8160   1.625   6.709   2.107  0.2892 -0.5820  0.1652
   61MOL0     C 8161   1.661   6.844   2.033 -0.5763  0.4377  0.0004
   61MOL0     C 8162   1.696   6.961   2.113  0.0325 -0.2573 -0.2798
   61MOL0     C 8163   1.810   7.039   2.053 -0.1580  0.5957  0.7075
   61MOL0     C 8164   1.883   7.122   2.001  0.1075 -0.1485  0.1902
   61MOL0     C 8165   1.360   6.527   1.987  0.0951 -1.0287 -0.3049
   61MOL0     C 8166   1.303   6.445   1.887 -0.4261 -0.1506  0.3312
   61MOL0     C 8167   1.342   6.290   1.890  0.5756 -1.2239 -0.4022
   61MOL0     H 8168   1.005   6.397   1.452  2.0426  0.6346  3.6242
   61MOL0     H 8169   0.948   6.290   1.251  0.8625  1.0657  0.0190
   61MOL0     H 8170   1.004   6.042   0.970 -0.0601  0.5929  0.4237
   61MOL0     H 8171   0.911   6.138   1.076 -0.9115 -1.2500 -0.6811
   61MOL0     H 8172   1.182   6.236   0.986  0.2152  0.8801 -0.0186
   61MOL0     H 8173   1.034   6.339   0.999  1.5471  1.1171 -1.3423
   61MOL0     H 8174   0.951   6.230   0.793 -0.5219 -0.2188  0.9331
   61MOL0     H 8175   1.107   6.150   0.770 -0.1420 -1.9700  2.6906
   61MOL0     H 8176   1.067   6.454   0.771 -2.0497 -1.7373  3.5578
   61MOL0     H 8177   1.216   6.375   0.714  0.3178 -1.8280 -1.4851
   61MOL0     H 8178   1.092   6.298   0.519 -2.2757  0.7540 -1.8448
   61MOL0     H 8179   0.939   6.326   0.602 -0.9538  1.0292 -4.1380
   61MOL0     H 8180   0.983   6.500   0.427  0.2863 -0.9798 -0.3652
   61MOL0     H 8181   1.024   6.583   0.577  2.6412  1.6419 -1.1102
   61MOL0     H 8182   1.249   6.424   0.421  0.4633  1.7292 -1.3085
   61MOL0     H 8183   1.258   6.544   0.548  1.5180  2.0900 -1.8908
   61MOL0     H 8184   1.298   6.659   0.330  0.8309 -2.4133  0.6917
   61MOL0     H 8185   1.150   6.608   0.269  1.0030  0.5637 -1.1317
   61MOL0     H 8186   0.931   6.768   0.359 -2.3092  2.5902  2.2330
   61MOL0     H 8187   1.025   7.124   0.421  2.4515 -1.4889  0.8877
   61MOL0     H 8188   0.890   7.042   0.343  0.7103  1.1664 -0.1643
   61MOL0     H 8189   0.918   7.074   0.654  1.1572 -0.5438 -0.2249
   61MOL0     H 8190   0.868   7.193   0.550 -1.8791  0.3252  0.5350
   61MOL0     H 8191   0.744   6.930   0.491 -0.5115 -0.7682  1.0894
   61MOL0     H 8192   0.654   7.081   0.517  1.8927  1.7778 -1.3880
   61MOL0     H 8193   0.585   6.958   0.704  1.2452 -3.0945  0.7535
   61MOL0     H 8194   0.712   7.058   0.778 -1.8894  0.2251  0.3609
   61MOL0     H 8195   0.902   6.677   0.774 -1.0899  3.0066 -0.4122
   61MOL0     H 8196   0.848   6.479   0.934  0.7564  0.7467 -1.0844
   61MOL0     H 8197   0.428   6.335   1.312  0.7942 -1.1903 -0.5735
   61MOL0     H 8198   0.411   6.180   1.506  2.6187 -1.8377 -1.7610
   61MOL0     H 8199   0.666   6.102   1.877  0.1183 -0.0429  0.3516
   61MOL0     H 8200   0.766   6.217   1.793 -0.4069  2.5755  0.7085
   61MOL0     H 8201   0.607   6.405   1.866 -0.7012  0.9186  2.8354
   61MOL0     H 8202   0.501   6.281   1.922  0.1049  1.8842  2.2611
   61MOL0     H 8203   0.678   6.210   2.094 -1.6512  0.8405  3.1328
   61MOL0     H 8204   0.779   6.336   2.035 -1.3779  0.7766  0.8203
   61MOL0     H 8205   0.494   6.385   2.145 -0.6582  1.5668 -2.0963
   61MOL0     H 8206   0.612   6.510   2.091 -2.7503 -0.6851 -2.2692
   61MOL0     H 8207   0.768   6.443   2.265 -0.0047 -0.1766 -1.7528
   61MOL0     H 8208   0.639   6.335   2.331 -1.9039  0.4600 -1.3436
   61MOL0     H 8209   0.690   6.570   2.439  0.5038 -0.4424  0.2776
   61MOL0     H 8210   0.596   6.619   2.296 -1.1055 -3.4734 -4.3870
   61MOL0     H 8211   0.408   6.447   2.385 -0.8455  0.6651  1.9842
   61MOL0     H 8212   0.422   6.599   2.453 -2.2470 -0.7892  0.8957
   61MOL0     H 8213   0.422   6.372   2.598  1.2092 -0.7088  1.0716
   61MOL0     H 8214   0.597   6.377   2.576 -1.4056 -1.2494  4.4540
   61MOL0     H 8215   0.759   6.382   1.671  2.5067 -0.5527 -2.5695
   61MOL0     H 8216   0.767   6.532   1.486  1.5740 -0.1607 -0.8192
   61MOL0     H 8217   0.582   6.763   1.139 -0.2478  0.1949 -0.4141
   61MOL0     H 8218   0.604   6.912   0.959 -0.3284  0.0952 -3.4095
   61MOL0     H 8219   1.292   6.017   1.322 -1.0654  0.3720  0.6882
   61MOL0     H 8220   1.327   6.130   1.537  1.7161  2.2653 -0.6544
   61MOL0     H 8221   1.089   6.682   1.766 -0.8688 -1.0729  0.6465
   61MOL0     H 8222   1.196   6.819   1.917  2.9408  1.4471  0.5230
   61MOL0     H 8223   1.478   6.603   2.218 -3.0029  0.2528  1.5021
   61MOL0     H 8224   1.496   6.778   2.255 -0.1190 -1.5249  0.2084
   61MOL0     H 8225   1.631   6.621   2.041 -3.1623 -0.4571 -0.5027
   61MOL0     H 8226   1.695   6.691   2.188  0.2226 -0.2491  0.2994
   61MOL0     H 8227   1.576   6.874   1.972 -0.0502  0.3024 -0.8083
   61MOL0     H 8228   1.737   6.808   1.963 -0.8644 -0.0355 -0.0730
   61MOL0     H 8229   1.614   7.033   2.117  0.7966  0.6110  0.2689
   61MOL0     H 8230   1.730   6.930   2.212 -2.0295 -0.7113  0.3158
   61MOL0     H 8231   1.953   7.194   1.964  0.5119 -0.1184  0.9955
   61MOL0     H 8232   1.437   6.479   2.046  2.1361  2.1918 -0.0955
   61MOL0     H 8233   1.249   6.232   1.892  0.0253 -0.3467  0.0297
   61MOL0     H 8234   1.405   6.262   1.805  2.8972 -0.0822  0.8417
   61MOL0     H 8235   1.391   6.267   1.986 -0.8415  2.8348  1.5165
   62MOL0     O 8236   9.344   8.894   6.398 -0.1349 -0.3503 -0.5562
   62MOL0     C 8237   9.380   8.827   6.492 -0.2636  0.4626 -0.0199
   62MOL0     O 8238   9.332   8.701   6.517  0.5006  0.2858  0.2194
   62MOL0     C 8239   9.268   8.633   6.411 -0.1264 -1.2428  0.0769
   62MOL0     C 8240   9.137   8.600   6.440  0.0812  0.4675 -0.1225
   62MOL0     C 8241   9.061   8.538   6.343  0.0906 -0.1014  0.8853
   62MOL0     C 8242   9.120   8.491   6.223  0.2383 -0.5359  0.0836
   62MOL0     O 8243   9.026   8.426   6.137 -0.3962 -0.6200  0.7229
   62MOL0     C 8244   9.061   8.371   6.010  0.7146 -0.2840  0.3786
   62MOL0     C 8245   8.935   8.374   5.924  0.4044  0.5727 -0.2509
   62MOL0     C 8246   8.953   8.285   5.798  0.5002 -0.8260  0.1067
   62MOL0     C 8247   8.824   8.239   5.726  0.7415 -0.5285 -0.3709
   62MOL0     C 8248   8.816   8.118   5.629  0.3113  0.5202 -0.0206
   62MOL0     C 8249   8.895   8.152   5.499 -0.0621  0.2133  0.4358
   62MOL0     C 8250   8.900   8.040   5.401  0.0667  1.4234 -0.1053
   62MOL0     C 8251   8.975   7.922   5.454  0.2831  0.8871  0.1184
   62MOL0     N 8252   9.121   7.947   5.491  0.2991  0.0840 -0.1624
   62MOL0     C 8253   9.159   7.964   5.618  0.1156 -0.2234  0.3065
   62MOL0     C 8254   9.289   8.003   5.609 -1.1699  0.0479 -0.9277
   62MOL0     C 8255   9.376   8.047   5.732 -0.3016 -0.3760  0.6205
   62MOL0     C 8256   9.380   8.201   5.712  0.1716  0.2319  0.3075
   62MOL0     C 8257   9.475   8.273   5.811 -0.0835 -0.1279 -0.3076
   62MOL0     C 8258   9.457   8.425   5.786  0.5387 -0.8981 -0.7445
   62MOL0     O 8259   9.516   8.497   5.893 -0.0669 -0.6939  0.0922
   62MOL0     C 8260   9.651   8.533   5.885  0.2776  0.3611 -0.1287
   62MOL0     C 8261   9.700   8.594   5.997  0.2652 -0.0532 -0.7275
   62MOL0     C 8262   9.836   8.609   6.022 -1.2568  0.0985 -0.2515
   62MOL0     C 8263   9.935   8.594   5.921  0.2250  0.1276 -0.2777
   62MOL0     C 8264  10.070   8.649   5.941 -0.7972 -0.1713  0.4769
   62MOL0     O 8265  10.085   8.739   6.042  0.0741 -0.2254 -0.7807
   62MOL0     C 8266  10.201   8.798   6.053 -0.9496  0.7644 -0.2154
   62MOL0     C 8267  10.302   8.725   6.106  0.2278  0.0596 -0.3809
   62MOL0     C 8268  10.429   8.784   6.111 -0.1732 -0.1392 -0.3027
   62MOL0     C 8269  10.454   8.917   6.061  0.8857  0.6979  0.0262
   62MOL0     O 8270  10.574   8.981   6.050 -0.1449 -0.9258  0.1869
   62MOL0     C 8271  10.694   8.915   6.102  0.1438  1.0497  0.1960
   62MOL0     C 8272  10.759   8.831   5.996  0.3711 -0.5828  0.0893
   62MOL0     C 8273  10.894   8.766   6.040 -0.4553 -0.1828  0.2690
   62MOL0     C 8274  10.983   8.872   6.109  0.1176  0.5561 -0.5645
   62MOL0     C 8275  11.126   8.825   6.129 -0.1642  0.7025 -0.2141
   62MOL0     C 8276  11.203   8.828   6.005 -0.9586 -0.1890  0.1713
   62MOL0     C 8277  11.337   8.751   6.019  0.0682  0.6598 -0.0725
   62MOL0     C 8278  11.394   8.739   5.877  0.3441 -0.0679  0.4577
   62MOL0    Cl 8279  11.494   8.598   5.853 -0.3237  0.2732 -0.1808
   62MOL0     C 8280  10.343   8.982   6.009 -0.1692 -1.0933  0.1655
   62MOL0     C 8281  10.219   8.925   6.010 -0.1492  0.5911 -0.5255
   62MOL0     O 8282  10.159   8.617   5.862 -0.1978  0.3584  0.7066
   62MOL0     C 8283   9.889   8.540   5.805  0.9562  0.6215  0.1477
   62MOL0     C 8284   9.747   8.505   5.794  0.1382  0.0364  0.9804
   62MOL0     N 8285   9.326   7.993   5.471  0.0766  0.3304 -0.0985
   62MOL0     N 8286   9.224   7.947   5.404 -0.5944 -0.0744 -0.0246
   62MOL0     C 8287   9.250   8.521   6.202  0.1823  0.5454 -0.2191
   62MOL0     C 8288   9.327   8.592   6.292  0.0506 -0.8794  0.6798
   62MOL0     C 8289   9.494   8.884   6.580 -0.0234 -0.6591  0.0975
   62MOL0     C 8290   9.465   8.885   6.719  0.0449 -1.1583 -0.5528
   62MOL0     C 8291   9.556   8.950   6.800  0.3209 -0.1922 -0.6244
   62MOL0     C 8292   9.683   8.998   6.759  0.2421 -0.3323 -0.5754
   62MOL0     O 8293   9.765   9.067   6.856  0.0307  0.1124 -0.3486
   62MOL0     C 8294   9.765   9.020   6.995  0.6443  0.0063 -0.4316
   62MOL0     C 8295   9.913   9.010   7.032  0.4828  0.5338  0.1420
   62MOL0     C 8296   9.986   8.934   6.923 -1.1830  0.5684 -0.0807
   62MOL0     C 8297  10.130   8.879   6.970 -0.0892  0.4514 -0.7667
   62MOL0     C 8298  10.212   8.994   7.006  0.4999  0.4573 -0.1255
   62MOL0     C 8299  10.283   9.083   7.037  0.6287  0.4324 -0.8756
   62MOL0     C 8300   9.715   8.976   6.628  0.0658  0.9066 -0.4623
   62MOL0     C 8301   9.629   8.919   6.534 -0.1747 -0.6801 -0.4076
   62MOL0     C 8302   9.674   8.899   6.388 -0.3538 -0.3809 -1.1277
   62MOL0     H 8303   9.085   8.613   6.535 -0.4941 -1.6074 -0.1086
   62MOL0     H 8304   8.956   8.515   6.351 -0.3553 -0.1439 -2.9806
   62MOL0     H 8305   9.134   8.431   5.955 -0.1737 -1.3429 -2.1088
   62MOL0     H 8306   9.111   8.276   6.030  1.4889  0.1087  0.3513
   62MOL0     H 8307   8.926   8.481   5.903 -2.1099  0.9148  1.9289
   62MOL0     H 8308   8.848   8.335   5.978  0.1521 -2.0720 -2.4018
   62MOL0     H 8309   8.996   8.188   5.823  0.4680 -0.4432  1.8306
   62MOL0     H 8310   9.026   8.339   5.737  0.5673 -1.4961 -0.4141
   62MOL0     H 8311   8.759   8.219   5.811  0.2686  0.3773 -0.5127
   62MOL0     H 8312   8.784   8.320   5.665 -1.4196 -1.8399 -0.7929
   62MOL0     H 8313   8.858   8.026   5.670  2.8986  2.0638  1.1101
   62MOL0     H 8314   8.713   8.098   5.601  0.2705 -1.3954  1.3689
   62MOL0     H 8315   8.831   8.228   5.453  0.3214  0.8685  0.9674
   62MOL0     H 8316   8.995   8.195   5.507  0.7579 -1.8884  3.6485
   62MOL0     H 8317   8.946   8.074   5.308  0.2208  0.2462 -0.4883
   62MOL0     H 8318   8.803   7.992   5.384  1.8177 -1.4955 -3.3704
   62MOL0     H 8319   8.923   7.867   5.532  0.0792 -1.8136 -1.7916
   62MOL0     H 8320   8.986   7.852   5.371  2.0410 -0.0431  1.0716
   62MOL0     H 8321   9.093   7.964   5.704 -0.4182 -0.3341 -0.0990
   62MOL0     H 8322   9.327   8.026   5.828  0.3090 -0.1289  0.9943
   62MOL0     H 8323   9.478   8.009   5.731 -0.2443 -0.2732 -1.9137
   62MOL0     H 8324   9.417   8.217   5.610 -1.7576  1.3168 -0.2661
   62MOL0     H 8325   9.280   8.246   5.705  0.8078  1.4961 -1.4241
   62MOL0     H 8326   9.581   8.252   5.799 -0.1069 -1.6976  1.8023
   62MOL0     H 8327   9.462   8.239   5.914  0.1576  1.7819  0.4076
   62MOL0     H 8328   9.350   8.451   5.783  0.5487 -0.8845 -0.9781
   62MOL0     H 8329   9.492   8.453   5.686  0.5469 -0.9277 -0.7496
   62MOL0     H 8330   9.648   8.615   6.090  2.9633  3.5458  0.2355
   62MOL0     H 8331   9.870   8.652   6.116 -1.1303  1.9110 -1.0881
   62MOL0     H 8332  10.294   8.620   6.132 -0.9336 -0.3193 -2.0710
   62MOL0     H 8333  10.505   8.721   6.155  1.0253  0.1329 -1.9088
   62MOL0     H 8334  10.767   8.986   6.142  2.4143 -2.4060  2.6927
   62MOL0     H 8335  10.664   8.860   6.191  2.7240 -0.9784 -0.0673
   62MOL0     H 8336  10.681   8.758   5.970  0.2243 -1.7225  3.2278
   62MOL0     H 8337  10.767   8.897   5.910  1.6660 -1.7510 -0.7269
   62MOL0     H 8338  10.883   8.676   6.101  2.3468 -1.8488 -1.4304
   62MOL0     H 8339  10.927   8.736   5.940 -2.9760 -0.0853 -0.6660
   62MOL0     H 8340  10.947   8.891   6.210 -0.4567  2.1075 -1.0237
   62MOL0     H 8341  10.999   8.963   6.050  3.7596 -0.8057 -1.9722
   62MOL0     H 8342  11.124   8.723   6.170 -1.0401  0.7546 -0.1089
   62MOL0     H 8343  11.182   8.887   6.199  2.5047 -0.4015 -1.2438
   62MOL0     H 8344  11.149   8.771   5.929  0.0996 -3.2309  1.5366
   62MOL0     H 8345  11.223   8.932   5.980  2.1129 -0.0859  2.4992
   62MOL0     H 8346  11.318   8.654   6.065 -1.7671  0.4170 -1.2295
   62MOL0     H 8347  11.406   8.818   6.072 -0.3303  1.3955 -0.4582
   62MOL0     H 8348  11.314   8.726   5.804 -1.6476 -3.6952  2.9848
   62MOL0     H 8349  11.436   8.838   5.856 -0.6785 -0.2393 -3.0810
   62MOL0     H 8350  10.347   9.087   5.981 -1.5516 -0.6879  1.2845
   62MOL0     H 8351  10.136   8.970   5.956 -0.4402 -1.6175 -2.0102
   62MOL0     H 8352   9.956   8.512   5.725 -0.6529 -1.6867 -0.5113
   62MOL0     H 8353   9.715   8.444   5.709 -0.5468  1.1782  0.3970
   62MOL0     H 8354   9.297   8.488   6.109 -0.9329 -0.6081 -0.4131
   62MOL0     H 8355   9.433   8.600   6.268  0.0377 -0.2302  0.8284
   62MOL0     H 8356   9.371   8.859   6.766 -0.7460  0.0447 -1.4025
   62MOL0     H 8357   9.520   8.971   6.900 -0.0780  0.1817 -0.8444
   62MOL0     H 8358   9.721   8.920   6.999  1.4909 -0.3468  2.3113
   62MOL0     H 8359   9.710   9.092   7.057 -1.3419 -1.1040 -0.8204
   62MOL0     H 8360   9.921   8.955   7.127  2.5844 -1.8350 -1.2849
   62MOL0     H 8361   9.946   9.113   7.051  0.5164  0.2667  1.7352
   62MOL0     H 8362  10.005   8.997   6.835  1.2338 -1.6748 -1.2970
   62MOL0     H 8363   9.926   8.852   6.884 -0.8078  0.3187 -0.1319
   62MOL0     H 8364  10.103   8.818   7.057 -1.1197  1.1044 -0.6058
   62MOL0     H 8365  10.180   8.817   6.896 -0.5606 -0.5818 -0.2304
   62MOL0     H 8366  10.367   9.147   7.056  0.7298 -0.4741  2.4468
   62MOL0     H 8367   9.810   9.017   6.597  0.7934  1.0369  1.7878
   62MOL0     H 8368   9.624   8.809   6.353  0.6667 -1.8801  1.0194
   62MOL0     H 8369   9.655   8.986   6.324 -0.1887 -0.0447 -0.7312
   62MOL0     H 8370   9.783   8.888   6.395 -0.6440 -2.7499  0.9379
   63MOL0     O 8371   9.085   8.271   9.772  0.0274 -0.1997  0.1700
   63MOL0     C 8372   9.048   8.245   9.886 -0.2924  0.0299  0.3598
   63MOL0     O 8373   9.110   8.168   9.974 -0.1805  0.5091  0.6972
   63MOL0     C 8374   9.237   8.114   9.968 -0.0465  0.6587 -0.6270
   63MOL0     C 8375   9.271   8.045  10.082  0.2097 -0.3743  0.2095
   63MOL0     C 8376   9.390   7.975  10.087  0.0056 -0.3284  1.2596
   63MOL0     C 8377   9.494   7.992   9.985  0.7105  0.2141 -1.1965
   63MOL0     O 8378   9.620   7.934   9.987  0.1647 -0.4490 -0.1303
   63MOL0     C 8379   9.669   7.891  10.112 -0.2911  0.0698 -0.7141
   63MOL0     C 8380   9.813   7.850  10.109 -0.0317 -1.3314  0.0562
   63MOL0     C 8381   9.862   7.818  10.244  0.0650  0.1569  0.4916
   63MOL0     C 8382  10.013   7.790  10.240  0.2244  0.0758 -1.0266
   63MOL0     C 8383  10.084   7.783  10.378  0.1902 -0.2752 -0.0943
   63MOL0     C 8384  10.237   7.750  10.357  0.3547  0.1504  0.4481
   63MOL0     C 8385  10.323   7.762  10.481  0.0368 -0.0045  0.0501
   63MOL0     C 8386  10.476   7.770  10.450  0.0925  0.4276  0.3283
   63MOL0     N 8387  10.558   7.764  10.577 -0.5502  0.4738  0.3258
   63MOL0     C 8388  10.699   7.780  10.586  0.6010 -0.1870  0.2229
   63MOL0     C 8389  10.726   7.813  10.707 -1.0197  0.5272 -0.6450
   63MOL0     C 8390  10.872   7.832  10.750 -1.1047 -1.2754 -0.0827
   63MOL0     C 8391  10.925   7.739  10.859  0.8598  0.4184 -0.0520
   63MOL0     C 8392  11.024   7.647  10.794  0.2085  0.0121  0.7129
   63MOL0     C 8393  11.161   7.695  10.779  0.1526 -0.4370  0.9279
   63MOL0     O 8394  11.221   7.700  10.905 -0.0256  0.3169  0.0231
   63MOL0     C 8395  11.334   7.779  10.919  0.3370 -0.2277 -0.7253
   63MOL0     C 8396  11.349   7.853  11.036 -0.0675  0.1039 -0.2993
   63MOL0     C 8397  11.468   7.910  11.076  0.1985 -0.1341  0.6729
   63MOL0     C 8398  11.582   7.897  10.988  0.4191 -0.8656 -0.5400
   63MOL0     C 8399  11.705   7.959  11.016  0.0999 -0.0048 -0.7536
   63MOL0     O 8400  11.817   7.890  10.969  0.2631  0.1039 -0.2808
   63MOL0     C 8401  11.940   7.949  10.983  0.2618 -0.8621 -0.0004
   63MOL0     C 8402  11.975   8.082  10.942  0.2442 -0.2176  0.0081
   63MOL0     C 8403  12.097   8.131  10.987  0.5152  0.0229 -0.1193
   63MOL0     C 8404  12.185   8.058  11.068  0.3282 -0.7546  0.6097
   63MOL0     O 8405  12.304   8.119  11.111  0.0690 -0.3927 -0.2360
   63MOL0     C 8406  12.274   8.245  11.184  0.3740  0.5366  0.0457
   63MOL0     C 8407  12.361   8.264  11.302 -0.8828 -0.6234  0.2544
   63MOL0     C 8408  12.341   8.400  11.369  0.5191  0.8771  0.2960
   63MOL0     C 8409  12.441   8.411  11.484 -0.6084 -0.5041 -0.6967
   63MOL0     C 8410  12.432   8.530  11.584  0.0835  0.3279 -0.0884
   63MOL0     C 8411  12.558   8.554  11.666  0.4185  0.8240  0.2819
   63MOL0     C 8412  12.529   8.677  11.749  0.0973  0.6866 -0.7400
   63MOL0     C 8413  12.656   8.743  11.807 -0.3933  0.4576 -0.1792
   63MOL0    Cl 8414  12.762   8.785  11.673 -0.2799  0.4329  0.0730
   63MOL0     C 8415  12.154   7.931  11.096 -0.4826  0.1398 -0.3590
   63MOL0     C 8416  12.039   7.873  11.056  0.2195  0.2377  0.0267
   63MOL0     O 8417  11.703   8.064  11.083  0.5399  0.0338  0.6449
   63MOL0     C 8418  11.566   7.808  10.877  0.0019 -0.2516  0.7087
   63MOL0     C 8419  11.442   7.749  10.848 -0.6868 -0.0182  0.5745
   63MOL0     N 8420  10.612   7.817  10.783 -0.6379  0.1940 -0.5984
   63MOL0     N 8421  10.509   7.792  10.703  0.1202 -0.3453  0.2213
   63MOL0     C 8422   9.469   8.083   9.877 -0.0183  0.6546 -0.1876
   63MOL0     C 8423   9.336   8.130   9.863  0.4108  0.1707  0.0055
   63MOL0     C 8424   8.904   8.286   9.918  0.0078  0.5838  0.2319
   63MOL0     C 8425   8.844   8.372   9.818 -0.2598  0.2591 -0.3630
   63MOL0     C 8426   8.717   8.418   9.830 -0.3097  0.0054 -0.3613
   63MOL0     C 8427   8.631   8.385   9.933 -0.8987  0.0089 -0.6877
   63MOL0     O 8428   8.503   8.414   9.964  1.2890 -1.1696  0.6018
   63MOL0     C 8429   8.436   8.524   9.895  0.3534  0.2202  0.3864
   63MOL0     C 8430   8.286   8.542   9.933  0.1478 -0.2283 -0.0567
   63MOL0     C 8431   8.240   8.521  10.077  0.6206  0.0540 -0.6585
   63MOL0     C 8432   8.226   8.379  10.116  0.3956  0.1365 -0.2438
   63MOL0     C 8433   8.179   8.357  10.251  0.6767  0.1450 -0.0914
   63MOL0     C 8434   8.126   8.328  10.360 -0.7639  0.6410  0.7043
   63MOL0     C 8435   8.694   8.313  10.039 -0.3228 -0.7293 -0.2637
   63MOL0     C 8436   8.823   8.258  10.036  0.8786  0.1119  0.0491
   63MOL0     C 8437   8.867   8.167  10.147  0.3819 -0.2630  0.1121
   63MOL0     H 8438   9.202   8.041  10.166  2.7347 -0.8681  2.3880
   63MOL0     H 8439   9.406   7.917  10.177  0.8316 -0.3288  1.1171
   63MOL0     H 8440   9.646   7.973  10.181 -3.3943 -1.3481  0.0911
   63MOL0     H 8441   9.610   7.805  10.145  1.8357 -0.2409  2.8766
   63MOL0     H 8442   9.863   7.939  10.070  0.0222  0.1787  3.3041
   63MOL0     H 8443   9.838   7.771  10.037 -2.0013 -0.6829 -1.4143
   63MOL0     H 8444   9.818   7.721  10.272 -0.0505  0.9974  3.6957
   63MOL0     H 8445   9.841   7.898  10.316  0.5491  0.6835  0.0552
   63MOL0     H 8446  10.037   7.690  10.202 -0.8657 -0.6082  0.0024
   63MOL0     H 8447  10.063   7.866  10.180  2.6089 -1.5307 -1.2199
   63MOL0     H 8448  10.078   7.880  10.429  2.3127  0.2909 -0.8192
   63MOL0     H 8449  10.039   7.713  10.449 -1.7074  1.6475  0.7211
   63MOL0     H 8450  10.236   7.646  10.322  1.3397  0.2512  0.1146
   63MOL0     H 8451  10.288   7.812  10.283  0.0046  2.5360  2.0988
   63MOL0     H 8452  10.301   7.675  10.544 -0.6243 -1.5218 -2.1652
   63MOL0     H 8453  10.289   7.851  10.535 -0.2681 -0.2161  0.2082
   63MOL0     H 8454  10.506   7.689  10.383  3.0178 -0.3118  2.3611
   63MOL0     H 8455  10.491   7.867  10.401 -3.2567  0.1800 -1.4875
   63MOL0     H 8456  10.762   7.752  10.502 -0.4997 -3.8041  0.4197
   63MOL0     H 8457  10.938   7.825  10.663  2.1645 -0.8214  2.1675
   63MOL0     H 8458  10.870   7.934  10.789  0.3017 -1.6802  1.1487
   63MOL0     H 8459  10.964   7.798  10.943  0.9592  1.5338 -0.8628
   63MOL0     H 8460  10.846   7.680  10.906  1.9131  0.2332  1.5651
   63MOL0     H 8461  10.978   7.616  10.700  1.7184  0.6895 -0.2930
   63MOL0     H 8462  11.022   7.555  10.853 -0.4468 -1.4397 -1.4409
   63MOL0     H 8463  11.159   7.794  10.732  1.0363 -1.6997 -2.0418
   63MOL0     H 8464  11.209   7.627  10.709 -0.1856  2.7277 -2.7211
   63MOL0     H 8465  11.260   7.862  11.098 -0.8877 -1.7791 -1.0981
   63MOL0     H 8466  11.477   7.962  11.171 -4.4554 -1.0080  1.8417
   63MOL0     H 8467  11.918   8.150  10.880  1.3165  1.2644  0.6054
   63MOL0     H 8468  12.138   8.226  10.954  1.7311 -0.6259 -0.5497
   63MOL0     H 8469  12.289   8.336  11.126  0.0930  1.1974  0.9980
   63MOL0     H 8470  12.175   8.262  11.227  1.4314  1.2440  2.3406
   63MOL0     H 8471  12.331   8.192  11.378 -0.0986 -3.3005 -1.8499
   63MOL0     H 8472  12.463   8.263  11.261 -1.4850  0.9845 -1.4380
   63MOL0     H 8473  12.371   8.477  11.297  4.6219 -1.9101 -1.3120
   63MOL0     H 8474  12.237   8.403  11.403  0.2997 -2.1614  0.1217
   63MOL0     H 8475  12.541   8.427  11.443 -0.1506  0.5250  0.7517
   63MOL0     H 8476  12.451   8.315  11.536  1.0588 -0.5551 -1.0398
   63MOL0     H 8477  12.348   8.518  11.653  0.0925  2.8273  0.4566
   63MOL0     H 8478  12.413   8.627  11.537  0.1682  0.2871 -0.2073
   63MOL0     H 8479  12.574   8.466  11.729 -0.6477  2.3793  2.8860
   63MOL0     H 8480  12.647   8.551  11.602  0.0075 -2.0161 -0.3008
   63MOL0     H 8481  12.458   8.642  11.826 -0.3435  2.1542 -0.4403
   63MOL0     H 8482  12.473   8.754  11.695  0.9311  1.1769 -0.9084
   63MOL0     H 8483  12.630   8.837  11.858 -0.4397  0.0430  0.5776
   63MOL0     H 8484  12.709   8.682  11.881  1.2891  2.1820  0.1411
   63MOL0     H 8485  12.221   7.876  11.162 -4.1570 -3.1604  1.0264
   63MOL0     H 8486  12.008   7.782  11.104  1.2153  0.9202  2.0625
   63MOL0     H 8487  11.654   7.774  10.823 -0.7450  0.8269 -1.2991
   63MOL0     H 8488  11.443   7.677  10.767 -0.4754  2.2136 -1.5226
   63MOL0     H 8489   9.539   8.086   9.795  1.9299 -0.2876  1.3671
   63MOL0     H 8490   9.297   8.176   9.773 -3.6395 -1.5867  0.6028
   63MOL0     H 8491   8.898   8.406   9.730 -1.6884  1.7550 -0.7021
   63MOL0     H 8492   8.695   8.484   9.747  1.8925  4.3062  2.1227
   63MOL0     H 8493   8.442   8.517   9.786 -0.1961  0.4070  0.3393
   63MOL0     H 8494   8.482   8.618   9.928 -1.6674  0.5664  2.4669
   63MOL0     H 8495   8.221   8.473   9.878  0.6130 -1.0097  0.3578
   63MOL0     H 8496   8.249   8.640   9.904 -1.4207 -1.3220 -2.0166
   63MOL0     H 8497   8.135   8.551  10.082  0.1932 -0.2753 -4.6642
   63MOL0     H 8498   8.296   8.578  10.152  0.2968 -2.2356  1.4594
   63MOL0     H 8499   8.161   8.315  10.055 -0.0966 -0.3300  0.7257
   63MOL0     H 8500   8.322   8.329  10.101  0.3968  0.6270 -2.1459
   63MOL0     H 8501   8.079   8.303  10.453 -1.0625  0.3185  0.4694
   63MOL0     H 8502   8.612   8.294  10.108 -2.0512  0.5806 -1.8491
   63MOL0     H 8503   8.961   8.196  10.194  0.3941 -0.0630 -0.0348
   63MOL0     H 8504   8.791   8.152  10.224  1.4996  1.4775  1.6520
   63MOL0     H 8505   8.878   8.063  10.114 -2.1807 -0.4092 -0.5209
   64MOL0     O 8506   3.516  10.754  11.214 -1.0897  0.4610  0.1333
   64MOL0     C 8507   3.517  10.867  11.269  0.6317 -0.2990  0.2344
   64MOL0     O 8508   3.618  10.927  11.339 -0.1605  0.0657 -1.0181
   64MOL0     C 8509   3.723  10.853  11.362 -0.2106 -0.8296 -0.0730
   64MOL0     C 8510   3.729  10.728  11.416  0.6321 -0.6856 -0.0837
   64MOL0     C 8511   3.851  10.665  11.440 -0.4525  0.4380  0.4535
   64MOL0     C 8512   3.970  10.738  11.427  0.0113  0.5801 -0.7444
   64MOL0     O 8513   4.093  10.697  11.476  0.2268  1.0637  0.6552
   64MOL0     C 8514   4.141  10.561  11.456  0.0069 -0.1029  0.7713
   64MOL0     C 8515   4.291  10.593  11.479  0.9001 -0.2893 -0.4213
   64MOL0     C 8516   4.377  10.468  11.438  1.3962 -1.0098 -0.2609
   64MOL0     C 8517   4.522  10.500  11.447  0.0985 -0.0485 -1.1274
   64MOL0     C 8518   4.612  10.387  11.409  0.4096 -0.3469 -0.4531
   64MOL0     C 8519   4.770  10.411  11.413 -0.1594 -0.4211 -0.3301
   64MOL0     C 8520   4.807  10.466  11.558 -0.2114  0.3484 -0.2917
   64MOL0     C 8521   4.952  10.427  11.587 -0.5269 -0.7071 -0.2822
   64MOL0     N 8522   5.051  10.535  11.559  0.6034  0.1199 -0.7373
   64MOL0     C 8523   5.095  10.627  11.652  0.5650 -1.6450  0.5343
   64MOL0     C 8524   5.183  10.710  11.586  1.0502 -0.0634  1.1396
   64MOL0     C 8525   5.248  10.831  11.641  0.3955  0.0692 -0.8439
   64MOL0     C 8526   5.194  10.964  11.574  0.7145 -0.6022 -0.2990
   64MOL0     C 8527   5.039  10.981  11.598 -0.2422  0.0646  0.7295
   64MOL0     C 8528   5.009  10.999  11.744 -0.0827 -0.2527 -1.0583
   64MOL0     O 8529   4.894  10.917  11.795 -0.7894  0.5815 -0.6621
   64MOL0     C 8530   4.764  10.953  11.774 -0.1285 -0.1323 -0.0899
   64MOL0     C 8531   4.723  11.062  11.706 -0.3197  0.8116  0.0852
   64MOL0     C 8532   4.590  11.094  11.683  0.6488 -0.5494  0.6234
   64MOL0     C 8533   4.493  11.023  11.748 -0.3669 -0.7587  0.5609
   64MOL0     C 8534   4.347  11.070  11.742  0.0702  0.5281  1.0807
   64MOL0     O 8535   4.251  10.972  11.763 -0.5703 -0.7619  0.5828
   64MOL0     C 8536   4.121  11.020  11.759  0.4516  0.3797  0.7511
   64MOL0     C 8537   4.030  10.955  11.683  0.4436 -0.1208 -0.7932
   64MOL0     C 8538   3.895  10.994  11.687 -0.2672 -0.3121  0.2823
   64MOL0     C 8539   3.850  11.092  11.779 -0.8461 -0.0996 -0.7415
   64MOL0     O 8540   3.730  11.147  11.786 -0.8613  0.0070  0.3770
   64MOL0     C 8541   3.635  11.090  11.702  0.4611 -0.5358  0.1007
   64MOL0     C 8542   3.514  11.181  11.740  0.0090  0.3127  0.4799
   64MOL0     C 8543   3.390  11.138  11.658 -0.4648  0.8321  0.7591
   64MOL0     C 8544   3.258  11.211  11.704 -0.3098  0.2014  0.0743
   64MOL0     C 8545   3.149  11.175  11.600  0.3894  0.5254  0.1975
   64MOL0     C 8546   3.014  11.245  11.608  0.2772  0.4693  0.5038
   64MOL0     C 8547   2.922  11.186  11.496 -0.4378 -0.6142 -0.3628
   64MOL0     C 8548   2.779  11.253  11.490 -0.0939 -0.4092 -0.3673
   64MOL0    Cl 8549   2.675  11.178  11.365 -0.2410  0.3179  0.2047
   64MOL0     C 8550   3.945  11.146  11.864 -0.8121  0.2070  0.2554
   64MOL0     C 8551   4.079  11.108  11.855 -0.2946 -0.9807 -0.1717
   64MOL0     O 8552   4.327  11.187  11.713 -0.0642 -1.1361 -0.6565
   64MOL0     C 8553   4.538  10.911  11.820  0.5287 -0.6046  0.1154
   64MOL0     C 8554   4.669  10.870  11.831 -0.2252 -1.1375 -0.3203
   64MOL0     N 8555   5.184  10.674  11.456  0.4009  0.0535  0.2727
   64MOL0     N 8556   5.115  10.566  11.444  0.4044 -0.6350 -0.3664
   64MOL0     C 8557   3.965  10.868  11.384 -0.0444  0.0268  0.2655
   64MOL0     C 8558   3.844  10.923  11.343  0.2554  0.1364  0.3535
   64MOL0     C 8559   3.393  10.938  11.247  0.9026 -0.4794  0.4048
   64MOL0     C 8560   3.273  10.866  11.242 -0.7464  0.2504 -0.3734
   64MOL0     C 8561   3.147  10.921  11.212 -0.8403  0.3862 -0.9282
   64MOL0     C 8562   3.144  11.056  11.192  0.3921 -0.3410  1.2591
   64MOL0     O 8563   3.015  11.112  11.174  0.6978  0.3536 -0.1449
   64MOL0     C 8564   3.001  11.221  11.085 -0.3763  0.1903  0.1957
   64MOL0     C 8565   2.987  11.200  10.940 -0.5770 -0.3833 -0.0486
   64MOL0     C 8566   2.917  11.321  10.874 -0.4986 -0.9263 -0.0861
   64MOL0     C 8567   2.814  11.264  10.765  0.0516 -0.2814 -0.1468
   64MOL0     C 8568   2.688  11.222  10.838 -0.2327 -0.0172  1.1273
   64MOL0     C 8569   2.584  11.199  10.893  0.1985 -0.5823  0.0103
   64MOL0     C 8570   3.256  11.136  11.208  0.3961  0.7244 -0.3525
   64MOL0     C 8571   3.382  11.074  11.234  0.4768 -0.4134  0.7003
   64MOL0     C 8572   3.507  11.174  11.237 -0.1655 -0.1960  0.1554
   64MOL0     H 8573   3.639  10.672  11.441 -0.6878  0.4317 -2.0485
   64MOL0     H 8574   3.855  10.563  11.479  3.0595  0.4463  0.4085
   64MOL0     H 8575   4.092  10.495  11.528  0.1867  0.4728  1.4349
   64MOL0     H 8576   4.117  10.526  11.355  2.4149  0.6256 -0.1184
   64MOL0     H 8577   4.311  10.633  11.579  5.9695 -1.2400 -0.8019
   64MOL0     H 8578   4.310  10.680  11.416 -0.9817  2.2444  2.2238
   64MOL0     H 8579   4.348  10.420  11.345 -0.5922  1.7899 -1.2135
   64MOL0     H 8580   4.353  10.400  11.520 -1.2503  2.7665  2.4526
   64MOL0     H 8581   4.553  10.591  11.395 -0.7226  2.0418  1.7723
   64MOL0     H 8582   4.548  10.522  11.551 -0.3050  2.9575 -1.5609
   64MOL0     H 8583   4.581  10.292  11.454  0.5080 -0.4057 -0.5087
   64MOL0     H 8584   4.598  10.378  11.300  1.0739 -0.8946 -0.4995
   64MOL0     H 8585   4.824  10.324  11.374  3.3373  2.4889 -2.8094
   64MOL0     H 8586   4.797  10.488  11.339 -0.3115  1.5626  1.5865
   64MOL0     H 8587   4.745  10.415  11.632 -0.3643  1.3062  0.2637
   64MOL0     H 8588   4.795  10.574  11.569  0.9089  0.3419  1.4536
   64MOL0     H 8589   4.956  10.426  11.696 -2.9473 -0.4816 -0.1330
   64MOL0     H 8590   4.973  10.323  11.561 -1.3884 -0.1454 -3.7550
   64MOL0     H 8591   5.062  10.631  11.755 -0.8301 -1.2678  0.0970
   64MOL0     H 8592   5.223  10.827  11.747  2.7964 -0.3062 -0.2367
   64MOL0     H 8593   5.356  10.831  11.626  0.6760  1.4602  0.9463
   64MOL0     H 8594   5.250  11.043  11.625  1.0368 -0.3072 -1.0929
   64MOL0     H 8595   5.223  10.968  11.469  2.6343  2.3717  0.2228
   64MOL0     H 8596   4.991  10.888  11.566 -0.3748 -0.4289  2.2820
   64MOL0     H 8597   4.999  11.057  11.529  0.4855 -2.7010 -3.0418
   64MOL0     H 8598   4.992  11.106  11.760  1.7245  0.1128 -1.3804
   64MOL0     H 8599   5.094  10.978  11.809  0.1525  0.5400 -1.0921
   64MOL0     H 8600   4.800  11.127  11.665 -0.7565  0.5802 -1.1309
   64MOL0     H 8601   4.559  11.183  11.630 -0.2234 -1.7014 -0.8853
   64MOL0     H 8602   4.071  10.875  11.623  0.3576 -0.2079 -0.7354
   64MOL0     H 8603   3.830  10.949  11.613 -0.5180  1.8124 -0.8655
   64MOL0     H 8604   3.665  11.109  11.598 -0.9238  0.7997 -0.0997
   64MOL0     H 8605   3.617  10.984  11.720 -1.4057 -0.5951 -1.7188
   64MOL0     H 8606   3.485  11.157  11.843  0.3784 -1.0932  0.2798
   64MOL0     H 8607   3.532  11.288  11.734 -1.2243  0.5317  0.4945
   64MOL0     H 8608   3.399  11.171  11.554  0.6381 -0.9608  0.2487
   64MOL0     H 8609   3.381  11.029  11.655  0.0860  0.7544  1.7727
   64MOL0     H 8610   3.279  11.318  11.711  1.0647 -0.1036  0.9146
   64MOL0     H 8611   3.233  11.191  11.808  0.8862  0.6886  0.4730
   64MOL0     H 8612   3.139  11.066  11.605 -1.8276  0.5955 -1.5921
   64MOL0     H 8613   3.187  11.190  11.499 -1.0068 -1.4555 -0.6885
   64MOL0     H 8614   2.963  11.216  11.700 -2.2836 -1.9040 -1.4631
   64MOL0     H 8615   3.041  11.350  11.594  0.8140  0.2598 -0.1139
   64MOL0     H 8616   2.918  11.078  11.509 -0.3117 -0.9648 -2.7587
   64MOL0     H 8617   2.972  11.196  11.399  0.2520 -1.2356 -0.0780
   64MOL0     H 8618   2.741  11.236  11.591 -0.2702 -1.0628 -0.5403
   64MOL0     H 8619   2.795  11.360  11.470  2.5479 -0.1037  2.4678
   64MOL0     H 8620   3.914  11.213  11.944  1.5437  1.8380 -0.0790
   64MOL0     H 8621   4.160  11.149  11.915 -0.0004  2.2772 -2.5556
   64MOL0     H 8622   4.455  10.866  11.874 -2.8208  1.8980 -2.4967
   64MOL0     H 8623   4.714  10.785  11.883 -1.1212 -2.9743 -2.3587
   64MOL0     H 8624   4.049  10.935  11.385 -0.6307  0.8208 -1.5507
   64MOL0     H 8625   3.852  11.027  11.314  0.6405 -0.0625 -0.2737
   64MOL0     H 8626   3.276  10.758  11.254 -1.8878 -0.0792 -2.5540
   64MOL0     H 8627   3.062  10.853  11.206  1.7744 -3.1230 -0.8956
   64MOL0     H 8628   3.083  11.293  11.086  0.2627 -0.3787 -2.5100
   64MOL0     H 8629   2.912  11.273  11.123 -0.4392  0.3093 -0.1075
   64MOL0     H 8630   2.930  11.109  10.918 -1.1566  0.4318 -2.2076
   64MOL0     H 8631   3.087  11.192  10.897 -0.4309 -3.6388  0.6806
   64MOL0     H 8632   2.991  11.385  10.825 -1.7077  0.5290 -0.1019
   64MOL0     H 8633   2.872  11.388  10.948 -0.2363 -0.2548 -0.5258
   64MOL0     H 8634   2.789  11.342  10.693  1.0626 -1.0747 -1.4006
   64MOL0     H 8635   2.864  11.185  10.708  1.1932  0.2941  0.0117
   64MOL0     H 8636   2.503  11.182  10.962  2.2754 -2.2493  2.1847
   64MOL0     H 8637   3.254  11.243  11.195  0.8310  0.7164 -0.5292
   64MOL0     H 8638   3.481  11.259  11.173  1.3420 -0.7090 -1.1941
   64MOL0     H 8639   3.517  11.205  11.341  0.5581  1.4320 -0.3715
   64MOL0     H 8640   3.598  11.122  11.205 -0.1633 -1.1907  1.6892
   65MOL0     O 8641   9.768   2.198   7.313  0.1972 -0.1040 -0.1460
   65MOL0     C 8642   9.728   2.268   7.220  0.8235  0.4220 -1.1164
   65MOL0     O 8643   9.705   2.401   7.211  0.0580 -0.0930 -0.1251
   65MOL0     C 8644   9.752   2.495   7.300 -0.2436  0.3749  0.5118
   65MOL0     C 8645   9.869   2.487   7.376  0.6223  0.6029 -0.4438
   65MOL0     C 8646   9.915   2.602   7.452  0.9403 -0.1242  0.7513
   65MOL0     C 8647   9.846   2.715   7.443  0.0516 -0.0604 -0.4591
   65MOL0     O 8648   9.896   2.826   7.513  0.6783  0.3991 -0.3779
   65MOL0     C 8649   9.964   2.919   7.429  0.0787  0.3448  0.5477
   65MOL0     C 8650  10.116   2.900   7.434  0.1205 -0.6416 -0.1220
   65MOL0     C 8651  10.186   3.029   7.379  0.5634 -0.9436  0.4100
   65MOL0     C 8652  10.260   2.999   7.243 -1.2962  0.4731  0.4487
   65MOL0     C 8653  10.340   3.120   7.193 -0.1814  0.9555  0.1282
   65MOL0     C 8654  10.264   3.247   7.159 -0.6489  0.3821 -0.0750
   65MOL0     C 8655  10.363   3.352   7.100  0.9697  0.3004  0.0262
   65MOL0     C 8656  10.463   3.409   7.192 -0.1672 -0.6904 -0.4453
   65MOL0     N 8657  10.445   3.560   7.216 -0.0931 -0.0420 -0.1782
   65MOL0     C 8658  10.384   3.619   7.326  0.5608  0.0171  0.3898
   65MOL0     C 8659  10.424   3.744   7.329 -0.9359  0.4195 -0.7917
   65MOL0     C 8660  10.387   3.843   7.437  0.3315 -0.2816  0.5950
   65MOL0     C 8661  10.265   3.924   7.392  0.2671  0.0250 -0.3233
   65MOL0     C 8662  10.228   4.040   7.494 -0.6708 -0.3138  0.1923
   65MOL0     C 8663  10.176   3.995   7.628 -0.5535 -0.7031 -0.4722
   65MOL0     O 8664  10.064   3.913   7.615  0.0387 -0.2281 -0.3873
   65MOL0     C 8665  10.045   3.837   7.726 -0.7208 -0.7306 -0.6775
   65MOL0     C 8666  10.044   3.699   7.720 -0.9772 -0.0719 -1.0485
   65MOL0     C 8667   9.989   3.627   7.830 -0.2112 -0.1522  0.5667
   65MOL0     C 8668   9.939   3.684   7.950 -0.6767 -0.6100  0.3831
   65MOL0     C 8669   9.898   3.615   8.066  0.2959  0.0662  0.0162
   65MOL0     O 8670   9.872   3.478   8.046 -0.3749  0.5057 -0.3272
   65MOL0     C 8671   9.822   3.397   8.152  0.3221  0.2279 -0.4625
   65MOL0     C 8672   9.735   3.450   8.247  0.0440  1.0055 -0.0453
   65MOL0     C 8673   9.694   3.369   8.353  0.0828 -0.0974 -0.2493
   65MOL0     C 8674   9.743   3.235   8.359 -0.0227 -0.5812 -0.7251
   65MOL0     O 8675   9.708   3.153   8.461 -0.6555  0.2000  0.8019
   65MOL0     C 8676   9.650   3.196   8.580  0.3049 -0.6775 -0.3552
   65MOL0     C 8677   9.657   3.070   8.662  0.2826  0.8764 -0.5651
   65MOL0     C 8678   9.614   3.092   8.809 -0.2033 -0.3255  0.0662
   65MOL0     C 8679   9.714   3.178   8.892  0.0249  0.2514  0.1181
   65MOL0     C 8680   9.677   3.178   9.040  0.6717 -0.2078  0.1034
   65MOL0     C 8681   9.732   3.292   9.120  0.0881 -0.6434 -0.6232
   65MOL0     C 8682   9.728   3.266   9.268  0.7668 -0.3883 -0.8314
   65MOL0     C 8683   9.588   3.294   9.327 -0.8945  0.3503  0.4250
   65MOL0    Cl 8684   9.554   3.460   9.316 -0.0215 -0.3646  0.0842
   65MOL0     C 8685   9.812   3.181   8.248 -0.3108  0.6248 -0.8227
   65MOL0     C 8686   9.856   3.263   8.146  0.3000  0.7482  0.9866
   65MOL0     O 8687   9.898   3.669   8.178 -0.6112 -0.3026 -0.1552
   65MOL0     C 8688   9.933   3.825   7.945  0.0556  0.3781  0.0321
   65MOL0     C 8689   9.992   3.907   7.840  1.1427 -0.0095  0.0424
   65MOL0     N 8690  10.518   3.760   7.227 -1.4685 -0.5619 -0.6676
   65MOL0     N 8691  10.525   3.648   7.158 -0.1618 -0.3006 -0.1132
   65MOL0     C 8692   9.727   2.722   7.374  0.0777 -0.5275  0.2950
   65MOL0     C 8693   9.681   2.614   7.306  0.1764  0.1436 -1.1584
   65MOL0     C 8694   9.673   2.194   7.106  0.0010  0.5588  0.4007
   65MOL0     C 8695   9.543   2.133   7.122  0.3130 -0.4430  0.3562
   65MOL0     C 8696   9.491   2.065   7.011 -0.1138  0.3832  0.1352
   65MOL0     C 8697   9.570   2.053   6.897  0.1227 -0.2011  0.4958
   65MOL0     O 8698   9.542   1.967   6.790 -1.1625  1.0688 -0.4818
   65MOL0     C 8699   9.447   1.855   6.802 -0.0164  0.0115 -0.8051
   65MOL0     C 8700   9.312   1.911   6.784  0.4830 -0.1549  0.0196
   65MOL0     C 8701   9.198   1.822   6.847 -0.2187  1.0315 -1.0547
   65MOL0     C 8702   9.181   1.693   6.769 -0.1476  0.1289 -0.4353
   65MOL0     C 8703   9.069   1.613   6.817  0.3697  0.8612  0.7704
   65MOL0     C 8704   8.977   1.543   6.851 -0.0455 -0.3705  0.4373
   65MOL0     C 8705   9.688   2.131   6.878 -0.1011 -0.2345  0.1013
   65MOL0     C 8706   9.747   2.187   6.984 -0.4101 -0.4631  0.0626
   65MOL0     C 8707   9.888   2.238   6.970  1.2557 -0.6095  0.6276
   65MOL0     H 8708   9.937   2.402   7.380  0.0646  0.1940  1.5341
   65MOL0     H 8709  10.010   2.605   7.504  1.8156 -0.2260 -0.7898
   65MOL0     H 8710   9.924   2.906   7.328 -0.7681 -1.1531  1.0505
   65MOL0     H 8711   9.946   3.024   7.454  3.6301  1.1052  0.4510
   65MOL0     H 8712  10.133   2.812   7.372 -2.3042 -1.5187  0.3389
   65MOL0     H 8713  10.139   2.876   7.538 -0.4604 -1.1317 -0.1014
   65MOL0     H 8714  10.250   3.076   7.454  1.5496 -2.0879  0.3239
   65MOL0     H 8715  10.110   3.102   7.348  0.0307 -0.8454  1.8766
   65MOL0     H 8716  10.333   2.919   7.262  0.1300  2.1746  2.7001
   65MOL0     H 8717  10.187   2.961   7.172 -0.8444 -1.1609  0.8090
   65MOL0     H 8718  10.422   3.136   7.264  2.1793  1.7236 -2.5860
   65MOL0     H 8719  10.400   3.088   7.107 -1.9935  1.7742 -1.5054
   65MOL0     H 8720  10.195   3.214   7.080  0.9399 -1.7826 -0.6479
   65MOL0     H 8721  10.204   3.298   7.234  0.7013  1.2294  0.4682
   65MOL0     H 8722  10.303   3.433   7.058  0.7071  0.2340  0.2678
   65MOL0     H 8723  10.408   3.303   7.013 -0.1781 -2.1348  0.7078
   65MOL0     H 8724  10.462   3.358   7.289  2.2011  1.4816  0.8371
   65MOL0     H 8725  10.558   3.376   7.150 -0.4128  0.7984 -2.2901
   65MOL0     H 8726  10.317   3.575   7.399  0.3508  1.0333  0.8240
   65MOL0     H 8727  10.347   3.785   7.521  0.6926  3.4959  3.6934
   65MOL0     H 8728  10.460   3.910   7.485 -1.3649  2.6666 -0.6545
   65MOL0     H 8729  10.286   3.960   7.291  1.6729 -2.6476 -1.0844
   65MOL0     H 8730  10.177   3.862   7.374  1.0146 -0.6584 -1.8541
   65MOL0     H 8731  10.149   4.093   7.440 -1.8815  0.3882  2.5289
   65MOL0     H 8732  10.320   4.099   7.508 -1.4053  0.5213  1.6847
   65MOL0     H 8733  10.171   4.079   7.698  1.5188 -1.2319  0.3841
   65MOL0     H 8734  10.250   3.935   7.681 -1.4174 -1.0803  0.3345
   65MOL0     H 8735  10.051   3.644   7.627  0.9226 -0.6440 -0.6032
   65MOL0     H 8736  10.000   3.519   7.824  2.7609  0.0970 -0.6757
   65MOL0     H 8737   9.693   3.549   8.234 -0.9514  0.3906 -1.9174
   65MOL0     H 8738   9.639   3.411   8.437 -1.7749  0.8492 -1.8680
   65MOL0     H 8739   9.706   3.284   8.614 -0.8687  0.4703 -1.2846
   65MOL0     H 8740   9.544   3.221   8.566 -0.0815 -2.9091 -1.9683
   65MOL0     H 8741   9.580   3.006   8.619 -0.8227  2.0345 -0.3595
   65MOL0     H 8742   9.757   3.026   8.660 -0.0179 -0.5197  3.8654
   65MOL0     H 8743   9.520   3.148   8.812 -0.3753 -0.4498 -1.8088
   65MOL0     H 8744   9.605   2.995   8.859  0.0087 -0.1909  0.3652
   65MOL0     H 8745   9.706   3.279   8.850  1.6138 -1.2773 -4.5084
   65MOL0     H 8746   9.818   3.148   8.884 -0.9099 -3.1045 -1.0779
   65MOL0     H 8747   9.699   3.079   9.082 -2.6280 -1.6696 -1.2849
   65MOL0     H 8748   9.569   3.172   9.058  0.4783  2.2833  0.1341
   65MOL0     H 8749   9.836   3.316   9.094 -0.9244  0.9062 -3.7844
   65MOL0     H 8750   9.677   3.383   9.093 -1.8794 -1.9748 -1.2954
   65MOL0     H 8751   9.799   3.329   9.321 -0.2106 -1.6563  2.2525
   65MOL0     H 8752   9.761   3.164   9.291  1.0699 -0.1608 -0.2465
   65MOL0     H 8753   9.504   3.233   9.293 -0.6243 -0.9271  1.9370
   65MOL0     H 8754   9.594   3.290   9.437  0.0188  1.4856  0.4376
   65MOL0     H 8755   9.827   3.073   8.254  2.7632  1.0366  1.2229
   65MOL0     H 8756   9.908   3.228   8.058 -1.9610  3.3988 -1.5923
   65MOL0     H 8757   9.888   3.873   8.031 -2.3098 -3.2310  1.0519
   65MOL0     H 8758   9.991   4.015   7.850  1.6397 -0.1662  2.2764
   65MOL0     H 8759   9.673   2.816   7.362 -1.8278 -1.6031 -0.0531
   65MOL0     H 8760   9.589   2.615   7.248  0.0139 -2.5089 -1.0641
   65MOL0     H 8761   9.485   2.147   7.213  0.3776 -0.4885  0.4050
   65MOL0     H 8762   9.401   2.004   7.015 -0.1106 -0.0759 -3.5760
   65MOL0     H 8763   9.452   1.815   6.904 -1.2093 -2.1321 -1.5325
   65MOL0     H 8764   9.475   1.773   6.736 -1.3327 -1.0980 -0.0453
   65MOL0     H 8765   9.291   1.931   6.679  3.7206  0.0967 -0.6517
   65MOL0     H 8766   9.304   2.004   6.841 -0.8111  0.0235 -0.4206
   65MOL0     H 8767   9.104   1.878   6.840  0.1039  1.9295  0.8523
   65MOL0     H 8768   9.211   1.797   6.953 -0.2296 -0.7754 -1.4595
   65MOL0     H 8769   9.167   1.725   6.665 -1.8499  0.6333 -0.0746
   65MOL0     H 8770   9.274   1.637   6.777 -0.2396 -1.0811 -5.0889
   65MOL0     H 8771   8.896   1.487   6.895  1.3506 -3.4571 -0.6254
   65MOL0     H 8772   9.725   2.139   6.777 -0.0655 -0.8828  0.0553
   65MOL0     H 8773   9.886   2.337   7.016  1.0848 -1.1663  1.8378
   65MOL0     H 8774   9.958   2.170   7.019  0.6398 -0.1716  2.1590
   65MOL0     H 8775   9.926   2.251   6.868 -2.7659 -1.2353 -1.1223
   66MOL0     O 8776   5.656  10.964   2.942 -0.0885 -0.0301 -0.4438
   66MOL0     C 8777   5.624  11.066   2.873 -0.1902  0.1443  0.8040
   66MOL0     O 8778   5.705  11.128   2.781 -0.2658  0.0360  0.0831
   66MOL0     C 8779   5.828  11.100   2.742 -0.4122  0.5453  0.5546
   66MOL0     C 8780   5.918  11.015   2.812  0.3451 -0.6349  0.4917
   66MOL0     C 8781   6.052  10.996   2.763 -0.2333 -0.9507 -0.3090
   66MOL0     C 8782   6.096  11.047   2.638 -0.3824 -0.0750 -0.9963
   66MOL0     O 8783   6.216  11.028   2.576 -0.3201 -0.1598 -0.5044
   66MOL0     C 8784   6.290  10.911   2.608 -0.4971  0.6856 -0.2050
   66MOL0     C 8785   6.361  10.856   2.481 -0.2356 -0.6254  0.2630
   66MOL0     C 8786   6.480  10.764   2.531 -0.6434 -0.0667 -0.6232
   66MOL0     C 8787   6.607  10.853   2.566 -0.7165  0.0996 -0.9312
   66MOL0     C 8788   6.721  10.761   2.607  0.1618  0.7900  0.2039
   66MOL0     C 8789   6.841  10.835   2.677 -0.0399 -0.2196 -0.2497
   66MOL0     C 8790   6.973  10.752   2.722  1.0503 -1.1184  0.0234
   66MOL0     C 8791   6.929  10.653   2.836 -0.0229  0.0045  0.8124
   66MOL0     N 8792   7.034  10.552   2.849  0.6449 -0.9829 -0.3409
   66MOL0     C 8793   7.119  10.489   2.761 -0.0803  0.1696 -0.1637
   66MOL0     C 8794   7.199  10.409   2.837  0.2197 -0.1236  0.2202
   66MOL0     C 8795   7.298  10.310   2.798 -0.4620 -0.4606  0.6907
   66MOL0     C 8796   7.436  10.355   2.765 -0.2417  0.0398  0.5048
   66MOL0     C 8797   7.434  10.464   2.660  0.0234 -0.1007 -0.7008
   66MOL0     C 8798   7.563  10.491   2.580  0.1029  1.0694  0.3010
   66MOL0     O 8799   7.592  10.632   2.582 -0.4488  0.1655 -0.0038
   66MOL0     C 8800   7.507  10.722   2.528 -0.2201  0.8331  0.1900
   66MOL0     C 8801   7.431  10.698   2.412  0.2510 -0.0960 -0.8276
   66MOL0     C 8802   7.317  10.773   2.380  0.2973  0.5369  0.6472
   66MOL0     C 8803   7.288  10.891   2.450 -0.3230 -0.5090 -0.2766
   66MOL0     C 8804   7.172  10.982   2.422 -0.4080 -0.4367 -0.4288
   66MOL0     O 8805   7.126  10.977   2.298 -0.0310  0.2240 -0.0155
   66MOL0     C 8806   7.030  11.052   2.238 -0.4212  0.5883 -0.6088
   66MOL0     C 8807   7.017  11.014   2.102 -0.2856 -0.0333 -0.0765
   66MOL0     C 8808   6.931  11.088   2.021 -0.3047  0.1504  0.5174
   66MOL0     C 8809   6.849  11.184   2.079  0.2566 -1.1067  0.3538
   66MOL0     O 8810   6.746  11.247   2.012  0.0744 -0.1846  0.5315
   66MOL0     C 8811   6.756  11.257   1.866 -1.0250  0.3437  0.5125
   66MOL0     C 8812   6.728  11.396   1.823 -0.1805 -0.3075 -0.5939
   66MOL0     C 8813   6.737  11.414   1.671 -0.6873  0.0304  0.8723
   66MOL0     C 8814   6.646  11.528   1.630  0.1096  0.0013  0.1368
   66MOL0     C 8815   6.494  11.493   1.636 -0.0255  0.0779 -0.0519
   66MOL0     C 8816   6.411  11.594   1.560 -0.8638 -0.6499 -0.3640
   66MOL0     C 8817   6.265  11.555   1.572 -0.1042 -0.2080  0.2646
   66MOL0     C 8818   6.177  11.634   1.490 -0.6320  1.0000  0.3052
   66MOL0    Cl 8819   6.008  11.588   1.543  0.1132 -0.2499 -0.2485
   66MOL0     C 8820   6.858  11.214   2.216 -0.2923 -1.2734  0.1584
   66MOL0     C 8821   6.949  11.151   2.296 -0.5503  1.4611  0.0807
   66MOL0     O 8822   7.113  11.029   2.515  0.2078  0.0606 -0.5225
   66MOL0     C 8823   7.372  10.923   2.568  0.0665  0.2389  0.2111
   66MOL0     C 8824   7.475  10.833   2.604  0.0022 -0.6624 -0.0384
   66MOL0     N 8825   7.177  10.438   2.968  0.8723  0.3063  0.7826
   66MOL0     N 8826   7.064  10.504   2.974 -0.2687  0.3263  0.2843
   66MOL0     C 8827   6.006  11.133   2.582 -0.1457 -0.8636  0.3037
   66MOL0     C 8828   5.877  11.157   2.622  0.4444 -0.1229 -0.1873
   66MOL0     C 8829   5.486  11.127   2.880 -0.3393 -0.6039 -0.6816
   66MOL0     C 8830   5.411  11.116   3.001  0.0398  0.1110  0.4899
   66MOL0     C 8831   5.276  11.158   3.005 -0.6282  0.2594 -0.3871
   66MOL0     C 8832   5.210  11.201   2.897  0.3150 -0.1553 -0.2511
   66MOL0     O 8833   5.082  11.247   2.901  0.4936 -0.1666 -0.3194
   66MOL0     C 8834   4.999  11.154   2.985 -0.1631 -0.4065 -0.7237
   66MOL0     C 8835   4.857  11.154   2.923  0.3608  0.2271  0.4743
   66MOL0     C 8836   4.796  11.281   2.969 -0.5667  1.4915  1.1092
   66MOL0     C 8837   4.653  11.301   2.930 -0.9885  0.6210  0.9280
   66MOL0     C 8838   4.559  11.205   2.961  0.7269  0.6043  0.0927
   66MOL0     C 8839   4.484  11.108   2.988 -0.2749 -1.0306  0.7019
   66MOL0     C 8840   5.279  11.200   2.772 -0.1021 -1.4074 -0.2965
   66MOL0     C 8841   5.412  11.169   2.762  0.3155 -0.1330  0.1356
   66MOL0     C 8842   5.469  11.159   2.616 -0.3360  0.3497  0.1187
   66MOL0     H 8843   5.891  10.973   2.909  0.0271  1.0044  1.1519
   66MOL0     H 8844   6.121  10.937   2.823  1.5980  1.1521 -0.2390
   66MOL0     H 8845   6.359  10.938   2.689 -2.2335  3.5041  0.4633
   66MOL0     H 8846   6.225  10.830   2.640  0.7263 -0.4967 -0.6121
   66MOL0     H 8847   6.401  10.943   2.428  2.0431 -1.6486  0.2261
   66MOL0     H 8848   6.295  10.807   2.409  0.2380 -1.5039  0.4257
   66MOL0     H 8849   6.505  10.708   2.441 -1.5610 -0.3211 -0.7302
   66MOL0     H 8850   6.447  10.686   2.600 -0.7962 -0.6907 -1.3959
   66MOL0     H 8851   6.642  10.916   2.484  2.0356  3.2207  2.2906
   66MOL0     H 8852   6.596  10.916   2.656 -2.8201  1.0149 -1.7702
   66MOL0     H 8853   6.670  10.698   2.681  1.7989 -1.9184 -0.7921
   66MOL0     H 8854   6.756  10.708   2.518  0.6842  2.4128 -0.5818
   66MOL0     H 8855   6.885  10.907   2.608 -1.1114  0.2026 -0.5112
   66MOL0     H 8856   6.802  10.886   2.765  0.7075  1.7867 -1.0205
   66MOL0     H 8857   7.053  10.820   2.752  0.1077 -0.9272  2.3371
   66MOL0     H 8858   7.028  10.721   2.632  1.4508 -0.2947 -0.0202
   66MOL0     H 8859   6.896  10.700   2.930 -3.0881 -2.3284  1.0601
   66MOL0     H 8860   6.837  10.607   2.800 -0.4543  1.5129 -0.0793
   66MOL0     H 8861   7.119  10.501   2.654  2.4934 -0.7720 -0.3394
   66MOL0     H 8862   7.308  10.238   2.880  2.1686  0.7131  1.4948
   66MOL0     H 8863   7.251  10.261   2.712  1.4235 -0.1123 -0.5999
   66MOL0     H 8864   7.493  10.378   2.855  0.6760 -0.7062  0.1313
   66MOL0     H 8865   7.491  10.276   2.712 -3.1488 -0.8098 -1.5439
   66MOL0     H 8866   7.419  10.557   2.717 -0.8816 -0.6768  0.0092
   66MOL0     H 8867   7.347  10.453   2.596 -1.5340  2.7438  0.7164
   66MOL0     H 8868   7.556  10.453   2.478  0.1749  2.9931 -0.4664
   66MOL0     H 8869   7.639  10.427   2.627 -1.6806 -0.2985  1.4391
   66MOL0     H 8870   7.447  10.606   2.355 -1.9567 -1.1320  0.1012
   66MOL0     H 8871   7.254  10.739   2.299 -0.7853  0.1357  1.6247
   66MOL0     H 8872   7.077  10.935   2.055  0.6408  0.3344  0.4651
   66MOL0     H 8873   6.935  11.062   1.916  1.7836  2.1500  0.0143
   66MOL0     H 8874   6.859  11.234   1.839 -1.2364  1.3250 -1.2247
   66MOL0     H 8875   6.696  11.182   1.812  1.8197  0.2653 -2.8677
   66MOL0     H 8876   6.636  11.430   1.870  0.7153 -0.2174  1.1687
   66MOL0     H 8877   6.805  11.461   1.866 -2.8633  4.5083 -2.2472
   66MOL0     H 8878   6.841  11.438   1.646 -0.1996 -4.0441 -1.9988
   66MOL0     H 8879   6.718  11.321   1.617 -2.6714  0.8765 -0.0203
   66MOL0     H 8880   6.670  11.554   1.526 -0.1351 -1.7341 -0.3884
   66MOL0     H 8881   6.654  11.615   1.695  3.1604  0.8121 -1.1710
   66MOL0     H 8882   6.454  11.474   1.736 -1.7389 -0.0526 -0.7392
   66MOL0     H 8883   6.464  11.405   1.578  0.3391  0.6142 -1.0745
   66MOL0     H 8884   6.428  11.692   1.606  1.8567 -0.6527 -1.1437
   66MOL0     H 8885   6.442  11.597   1.455 -4.4964 -0.5589 -1.5564
   66MOL0     H 8886   6.236  11.588   1.672 -0.8245  0.5428 -0.1839
   66MOL0     H 8887   6.256  11.447   1.562  0.1126 -0.1249 -0.9169
   66MOL0     H 8888   6.196  11.737   1.521 -0.4767  0.5960  1.6200
   66MOL0     H 8889   6.207  11.612   1.388  3.5092  0.7279  1.4047
   66MOL0     H 8890   6.788  11.287   2.254 -1.2212 -1.0476 -1.8184
   66MOL0     H 8891   6.955  11.166   2.404  1.4473  2.6571 -0.1447
   66MOL0     H 8892   7.352  11.002   2.640  0.0800  1.0699 -0.6668
   66MOL0     H 8893   7.528  10.843   2.699 -0.7679  0.4214  0.2949
   66MOL0     H 8894   6.046  11.209   2.515 -1.1470  1.0221  1.7468
   66MOL0     H 8895   5.803  11.220   2.574  1.8171  1.1511 -0.6867
   66MOL0     H 8896   5.461  11.078   3.090  0.6918 -0.2433 -0.0187
   66MOL0     H 8897   5.226  11.166   3.101 -1.2184 -2.9935 -0.2791
   66MOL0     H 8898   4.996  11.185   3.090 -3.2537  2.0089 -1.3608
   66MOL0     H 8899   5.042  11.054   2.981  1.0625 -0.2105  3.0774
   66MOL0     H 8900   4.799  11.065   2.951 -0.7809 -0.2968 -3.0604
   66MOL0     H 8901   4.856  11.155   2.814  2.3794  2.4476  0.3819
   66MOL0     H 8902   4.853  11.368   2.936  0.7612  1.4888  3.2376
   66MOL0     H 8903   4.801  11.272   3.078 -0.3152 -0.2843  0.9683
   66MOL0     H 8904   4.631  11.398   2.975 -0.0422  0.8742  0.8702
   66MOL0     H 8905   4.641  11.328   2.825 -1.1253 -0.5097  0.6387
   66MOL0     H 8906   4.422  11.022   3.000 -0.9827 -0.8985 -1.6380
   66MOL0     H 8907   5.225  11.216   2.680 -2.3070 -0.0359  1.1495
   66MOL0     H 8908   5.500  11.055   2.602  0.9027 -0.0581  4.3885
   66MOL0     H 8909   5.391  11.180   2.543 -1.1649  1.0266  1.1737
   66MOL0     H 8910   5.555  11.223   2.593 -0.1470  0.1785  0.3338
   67MOL0     O 8911   3.831   9.241   1.110  0.5104 -0.2593 -0.5707
   67MOL0     C 8912   3.874   9.352   1.077 -0.9499  0.2312  0.1468
   67MOL0     O 8913   4.002   9.384   1.077 -0.3383 -1.0823 -0.0906
   67MOL0     C 8914   4.090   9.288   1.142  1.0789 -0.5184 -0.5662
   67MOL0     C 8915   4.074   9.256   1.276  0.5949 -0.7310 -0.0092
   67MOL0     C 8916   4.158   9.162   1.334  0.4367 -0.3345 -0.4384
   67MOL0     C 8917   4.257   9.102   1.259  0.1873  0.8822 -0.7168
   67MOL0     O 8918   4.327   9.000   1.301  0.1056  0.3137  0.3470
   67MOL0     C 8919   4.323   8.947   1.439  0.2852 -0.4622  0.2883
   67MOL0     C 8920   4.435   8.841   1.448 -0.4009 -0.7950 -0.6334
   67MOL0     C 8921   4.465   8.771   1.588 -0.1505 -0.0042 -0.3142
   67MOL0     C 8922   4.585   8.672   1.599  0.5359 -0.1611 -0.1907
   67MOL0     C 8923   4.564   8.595   1.733 -0.1785 -0.0064 -0.4922
   67MOL0     C 8924   4.644   8.466   1.755  0.9165 -0.2651  0.6553
   67MOL0     C 8925   4.793   8.479   1.732  0.1892  0.2089 -0.4350
   67MOL0     C 8926   4.857   8.583   1.831 -0.0956 -0.0037  0.6993
   67MOL0     N 8927   5.001   8.593   1.812 -0.9375  0.1026  0.4846
   67MOL0     C 8928   5.094   8.550   1.896  0.5033  0.1359 -0.8281
   67MOL0     C 8929   5.212   8.594   1.851 -0.0451  0.5935  0.0206
   67MOL0     C 8930   5.331   8.607   1.946  0.3484  0.3533  0.1841
   67MOL0     C 8931   5.447   8.683   1.887  0.0553  0.6865  0.0589
   67MOL0     C 8932   5.580   8.690   1.971  0.2283 -0.5386 -0.1692
   67MOL0     C 8933   5.703   8.762   1.910  0.3659  0.1177 -0.4808
   67MOL0     O 8934   5.677   8.907   1.902  0.2447 -0.0678 -0.2349
   67MOL0     C 8935   5.774   8.992   1.871  0.2822  0.0761 -0.5656
   67MOL0     C 8936   5.752   9.127   1.899  0.1399 -1.4565  0.3456
   67MOL0     C 8937   5.859   9.221   1.881 -1.0835  1.0830 -0.5077
   67MOL0     C 8938   5.988   9.179   1.838  0.3120  0.1441  0.6155
   67MOL0     C 8939   6.105   9.265   1.838  0.7478 -0.0954  0.8815
   67MOL0     O 8940   6.235   9.216   1.813  0.0504 -0.4401  0.3875
   67MOL0     C 8941   6.348   9.289   1.839  0.2209 -0.2965  0.1612
   67MOL0     C 8942   6.356   9.370   1.953 -0.3786 -0.3564 -1.0281
   67MOL0     C 8943   6.470   9.454   1.977 -0.1925  0.6321  0.4893
   67MOL0     C 8944   6.571   9.457   1.882  0.4311  0.7208 -0.3336
   67MOL0     O 8945   6.672   9.546   1.919  0.0957  0.0002 -0.2277
   67MOL0     C 8946   6.773   9.593   1.827  0.2081 -0.2833 -0.4038
   67MOL0     C 8947   6.893   9.545   1.898 -0.4849 -0.0368  0.1502
   67MOL0     C 8948   7.021   9.527   1.819 -1.3662  1.4159 -0.8622
   67MOL0     C 8949   7.144   9.528   1.912  0.2447  0.0424 -0.5002
   67MOL0     C 8950   7.276   9.538   1.838  0.5388  0.5597 -0.1085
   67MOL0     C 8951   7.306   9.687   1.806 -1.0333 -0.1176  0.0013
   67MOL0     C 8952   7.452   9.702   1.754 -0.2891  0.0937  0.0518
   67MOL0     C 8953   7.462   9.719   1.603 -0.6144 -0.0792 -0.1876
   67MOL0    Cl 8954   7.622   9.773   1.549 -0.0772  0.0177 -0.1032
   67MOL0     C 8955   6.571   9.368   1.776 -0.4534  0.5908  0.2533
   67MOL0     C 8956   6.457   9.291   1.752 -0.2360 -0.4032  0.9438
   67MOL0     O 8957   6.080   9.380   1.852  0.1378 -0.3909 -0.8642
   67MOL0     C 8958   6.003   9.041   1.802  0.1599  0.4967 -0.2703
   67MOL0     C 8959   5.898   8.958   1.822 -0.6403  0.0331 -0.6815
   67MOL0     N 8960   5.195   8.661   1.737 -0.2668  0.3493  0.0215
   67MOL0     N 8961   5.071   8.655   1.714  0.2382  0.7009  0.6290
   67MOL0     C 8962   4.279   9.144   1.133  0.0218  0.4229  0.3406
   67MOL0     C 8963   4.197   9.236   1.070  0.3005 -0.4286  1.1806
   67MOL0     C 8964   3.790   9.439   0.997 -0.5651  0.6012  0.3422
   67MOL0     C 8965   3.849   9.553   0.936 -0.7107 -0.0080  0.4413
   67MOL0     C 8966   3.777   9.652   0.865 -0.3816 -0.0397  0.0265
   67MOL0     C 8967   3.638   9.644   0.860  0.6775 -0.3639 -0.0134
   67MOL0     O 8968   3.554   9.724   0.790 -0.0939  0.1284 -1.0853
   67MOL0     C 8969   3.609   9.797   0.681  0.5187  0.4909  0.3344
   67MOL0     C 8970   3.524   9.901   0.616 -0.0357 -0.2367 -0.1360
   67MOL0     C 8971   3.384   9.850   0.593 -0.3651 -1.0137  1.0740
   67MOL0     C 8972   3.316   9.917   0.475 -0.7410  0.2605  0.1247
   67MOL0     C 8973   3.166   9.899   0.474  0.6488 -0.8754  0.5583
   67MOL0     C 8974   3.047   9.889   0.479 -0.7062  0.0980 -0.7243
   67MOL0     C 8975   3.577   9.535   0.923 -1.0502  0.3300  0.0297
   67MOL0     C 8976   3.648   9.433   0.991  0.3273 -0.3590  0.4935
   67MOL0     C 8977   3.562   9.325   1.043  0.1051  1.7298  0.2300
   67MOL0     H 8978   4.004   9.306   1.342 -3.7434 -2.0809 -3.1751
   67MOL0     H 8979   4.143   9.122   1.434 -3.4104 -2.2802 -1.5843
   67MOL0     H 8980   4.341   9.027   1.511  2.9542 -0.9831  0.2867
   67MOL0     H 8981   4.229   8.895   1.459  1.4338 -1.7974  2.4771
   67MOL0     H 8982   4.526   8.897   1.429 -1.7748  2.9505  2.6590
   67MOL0     H 8983   4.425   8.759   1.375 -1.1968 -0.6029 -0.7472
   67MOL0     H 8984   4.370   8.722   1.612 -0.8869 -1.3949 -5.0130
   67MOL0     H 8985   4.485   8.851   1.660 -0.0663 -1.6433  1.5392
   67MOL0     H 8986   4.591   8.594   1.523 -0.8057  0.1342 -0.6321
   67MOL0     H 8987   4.683   8.720   1.605  0.9254 -0.8184 -1.0835
   67MOL0     H 8988   4.594   8.661   1.815  0.4971 -3.2403  2.0926
   67MOL0     H 8989   4.459   8.566   1.729  0.8070 -4.1597 -1.6453
   67MOL0     H 8990   4.616   8.423   1.852 -1.7087 -0.6850 -0.1972
   67MOL0     H 8991   4.602   8.396   1.683  0.2208  1.1254 -0.3279
   67MOL0     H 8992   4.822   8.496   1.628  1.6173 -1.7088 -0.4203
   67MOL0     H 8993   4.824   8.382   1.773 -5.6724 -1.4410  1.0691
   67MOL0     H 8994   4.816   8.681   1.805  2.5727  1.2687  0.9616
   67MOL0     H 8995   4.836   8.558   1.935 -0.8213 -1.3928  0.2420
   67MOL0     H 8996   5.079   8.510   1.996  0.2179  0.5795 -0.6900
   67MOL0     H 8997   5.295   8.660   2.034 -1.1500 -0.5246  0.1345
   67MOL0     H 8998   5.375   8.508   1.964  3.2836  1.2904 -1.1735
   67MOL0     H 8999   5.481   8.644   1.791  3.4165 -0.0649  1.4014
   67MOL0     H 9000   5.431   8.790   1.869  1.9631  0.8574 -0.8462
   67MOL0     H 9001   5.605   8.586   1.992 -3.2193 -1.2974  0.9514
   67MOL0     H 9002   5.545   8.737   2.064 -1.0165 -1.7888  0.0393
   67MOL0     H 9003   5.718   8.732   1.806 -1.7285  1.6276 -1.2997
   67MOL0     H 9004   5.781   8.740   1.983  0.7129 -2.6922 -1.5682
   67MOL0     H 9005   5.661   9.179   1.927  1.0712  1.6908 -1.8763
   67MOL0     H 9006   5.846   9.323   1.916 -1.6377  0.9637 -0.3458
   67MOL0     H 9007   6.275   9.363   2.025 -0.0149 -0.0352 -0.5828
   67MOL0     H 9008   6.477   9.512   2.069 -0.4958 -0.6782  1.3610
   67MOL0     H 9009   6.764   9.563   1.722  1.0711  4.7292 -2.1564
   67MOL0     H 9010   6.782   9.702   1.831  1.3151 -0.4080  1.4469
   67MOL0     H 9011   6.906   9.624   1.973  1.3850  0.6685 -0.8471
   67MOL0     H 9012   6.860   9.455   1.951  0.1890 -1.5792 -1.9148
   67MOL0     H 9013   7.018   9.430   1.769  0.7058  0.0384  1.4818
   67MOL0     H 9014   7.039   9.612   1.752 -2.6653  2.1092 -0.3700
   67MOL0     H 9015   7.134   9.434   1.968 -2.4238  2.3953  3.4742
   67MOL0     H 9016   7.129   9.610   1.983  1.5638 -1.5462  1.7153
   67MOL0     H 9017   7.253   9.489   1.743 -2.1312 -0.1420  0.8042
   67MOL0     H 9018   7.357   9.488   1.891 -1.2593 -1.1685  1.1419
   67MOL0     H 9019   7.234   9.721   1.730 -0.0133  0.3530 -0.7709
   67MOL0     H 9020   7.308   9.750   1.895  6.8259  1.0653 -0.3010
   67MOL0     H 9021   7.517   9.620   1.786  1.5922  0.9415 -1.3962
   67MOL0     H 9022   7.500   9.787   1.804 -0.4814  1.5913 -2.1589
   67MOL0     H 9023   7.439   9.629   1.545  1.4149 -0.1893 -0.9085
   67MOL0     H 9024   7.388   9.796   1.580 -0.8914  2.0678  6.0836
   67MOL0     H 9025   6.657   9.354   1.711  0.3243 -1.4370  1.6229
   67MOL0     H 9026   6.456   9.209   1.681  0.5378  0.7236 -0.4151
   67MOL0     H 9027   6.099   9.016   1.759  0.4327  2.2231 -0.7631
   67MOL0     H 9028   5.912   8.853   1.801 -1.5931 -0.4327  0.8089
   67MOL0     H 9029   4.366   9.111   1.078  1.3162  0.9080  2.0200
   67MOL0     H 9030   4.226   9.271   0.972 -0.4840 -1.0891  0.7060
   67MOL0     H 9031   3.957   9.570   0.943 -0.9751  1.3703  2.0953
   67MOL0     H 9032   3.842   9.729   0.823  1.8710  0.5193  4.0257
   67MOL0     H 9033   3.655   9.734   0.605  3.7655  2.2550  0.6274
   67MOL0     H 9034   3.701   9.843   0.719  1.4821 -1.3244  0.2770
   67MOL0     H 9035   3.579   9.939   0.529 -0.4548 -2.7727 -1.6041
   67MOL0     H 9036   3.507   9.986   0.682 -1.1616  2.4136 -3.5353
   67MOL0     H 9037   3.317   9.854   0.680 -2.0180  2.4474 -0.1678
   67MOL0     H 9038   3.400   9.743   0.581  1.9541 -0.4904 -1.3398
   67MOL0     H 9039   3.338  10.024   0.472 -3.3889  0.8562 -0.5685
   67MOL0     H 9040   3.344   9.887   0.374  1.8469  2.2524  0.1488
   67MOL0     H 9041   2.941   9.880   0.489 -0.6075 -0.9226 -0.4922
   67MOL0     H 9042   3.472   9.528   0.898 -1.1751  1.8206  0.0400
   67MOL0     H 9043   3.461   9.368   1.041 -1.1031 -0.7114  2.5950
   67MOL0     H 9044   3.571   9.241   0.975  0.0504  2.7058 -1.0162
   67MOL0     H 9045   3.576   9.277   1.141 -1.0249 -0.8685 -0.7928
   68MOL0     O 9046   4.952   3.535   3.350  0.1144  0.7753  0.4191
   68MOL0     C 9047   4.999   3.421   3.340 -0.8546 -0.2861  0.1062
   68MOL0     O 9048   4.937   3.302   3.318 -1.0526 -0.0131  0.5958
   68MOL0     C 9049   4.799   3.293   3.319 -0.1455  0.1196 -0.1345
   68MOL0     C 9050   4.735   3.195   3.393 -0.5556 -0.3190 -0.0796
   68MOL0     C 9051   4.595   3.171   3.377 -0.9206 -0.1589  0.5899
   68MOL0     C 9052   4.515   3.268   3.307  0.3617  0.2168  0.7633
   68MOL0     O 9053   4.378   3.235   3.303 -0.1276 -0.2816 -0.5405
   68MOL0     C 9054   4.310   3.284   3.187 -0.3612 -0.8406 -0.1910
   68MOL0     C 9055   4.165   3.239   3.182 -0.8555  0.2675 -0.6354
   68MOL0     C 9056   4.157   3.084   3.180 -0.1448 -0.4555 -0.1175
   68MOL0     C 9057   4.224   3.020   3.055  0.2588 -0.7445 -1.0271
   68MOL0     C 9058   4.198   2.867   3.049 -0.2741  0.7946  1.0011
   68MOL0     C 9059   4.273   2.774   3.143  0.5193  0.4492 -0.3447
   68MOL0     C 9060   4.431   2.794   3.132 -0.3737  0.5678 -0.1799
   68MOL0     C 9061   4.501   2.674   3.202 -0.2197 -0.4931  0.0574
   68MOL0     N 9062   4.641   2.700   3.195  0.3653 -0.6437  0.4870
   68MOL0     C 9063   4.715   2.690   3.083 -0.7863 -0.0949  0.8017
   68MOL0     C 9064   4.837   2.697   3.131  0.1129  0.4212  0.8226
   68MOL0     C 9065   4.960   2.675   3.050  0.1366 -0.7952 -0.2147
   68MOL0     C 9066   4.969   2.544   2.978  0.4709  0.1590  0.0105
   68MOL0     C 9067   5.115   2.525   2.939 -0.5707 -0.2396 -0.3190
   68MOL0     C 9068   5.136   2.399   2.846 -0.1310  0.0873 -0.7588
   68MOL0     O 9069   5.270   2.379   2.842  0.2478 -0.6587  0.5200
   68MOL0     C 9070   5.315   2.249   2.831 -0.3798  0.4590 -0.5303
   68MOL0     C 9071   5.268   2.149   2.743 -0.5642  0.7976 -0.5329
   68MOL0     C 9072   5.328   2.021   2.742 -0.1134 -0.9178  1.0384
   68MOL0     C 9073   5.438   1.999   2.835  0.1747  1.3682  0.2880
   68MOL0     C 9074   5.505   1.867   2.846 -0.5475 -0.1394  0.0186
   68MOL0     O 9075   5.466   1.781   2.745  0.6105 -0.1336 -0.7219
   68MOL0     C 9076   5.467   1.645   2.769  0.1178  0.2237  0.0557
   68MOL0     C 9077   5.409   1.588   2.882 -0.0534 -0.0896 -0.2537
   68MOL0     C 9078   5.424   1.449   2.902 -0.2583 -0.5264 -0.5814
   68MOL0     C 9079   5.510   1.370   2.819 -0.6537  0.1603 -0.0659
   68MOL0     O 9080   5.518   1.237   2.855  0.3163  0.2727  0.2017
   68MOL0     C 9081   5.613   1.145   2.800 -0.0774 -0.5950  0.3725
   68MOL0     C 9082   5.618   1.023   2.881 -0.5168  0.0690  0.2917
   68MOL0     C 9083   5.733   0.917   2.849  0.0296  0.0064  0.5479
   68MOL0     C 9084   5.745   0.799   2.943 -0.1450 -0.7065  0.5468
   68MOL0     C 9085   5.877   0.722   2.937 -0.7343  0.1656  0.7636
   68MOL0     C 9086   5.905   0.626   2.814  0.8719 -0.1795 -0.0836
   68MOL0     C 9087   5.958   0.703   2.686 -0.0741  0.6503  0.1439
   68MOL0     C 9088   5.963   0.612   2.560  1.2280 -0.2075 -0.2432
   68MOL0    Cl 9089   5.842   0.481   2.553  0.2556 -0.0217  0.1165
   68MOL0     C 9090   5.565   1.426   2.703  1.1373 -0.1355  0.5639
   68MOL0     C 9091   5.539   1.568   2.688  1.3206  0.5175  0.6582
   68MOL0     O 9092   5.588   1.841   2.933 -0.0693  0.3166  0.0879
   68MOL0     C 9093   5.478   2.100   2.923 -0.3088  0.0422 -0.8395
   68MOL0     C 9094   5.422   2.220   2.910 -0.9200 -1.0000  0.0562
   68MOL0     N 9095   4.835   2.717   3.270 -1.2080 -0.1865 -0.0038
   68MOL0     N 9096   4.721   2.720   3.309  0.1435 -0.1197  0.3416
   68MOL0     C 9097   4.574   3.384   3.245 -0.6230  0.4566 -1.1026
   68MOL0     C 9098   4.713   3.381   3.246  0.1904 -0.4232  0.2824
   68MOL0     C 9099   5.143   3.411   3.359 -0.4890 -0.0249  1.1719
   68MOL0     C 9100   5.225   3.504   3.293  0.2213 -0.5161  0.1051
   68MOL0     C 9101   5.361   3.516   3.310 -0.6181 -0.0580 -0.3655
   68MOL0     C 9102   5.432   3.435   3.395 -0.3795  0.7299  0.2655
   68MOL0     O 9103   5.569   3.455   3.403  0.9608 -0.0778  0.6021
   68MOL0     C 9104   5.645   3.360   3.470 -0.3259  0.0614  0.2963
   68MOL0     C 9105   5.788   3.388   3.422  0.2827 -1.3895 -0.1457
   68MOL0     C 9106   5.887   3.274   3.431  1.6898 -0.6498 -0.9536
   68MOL0     C 9107   5.962   3.261   3.299  0.4318 -0.3881 -0.2378
   68MOL0     C 9108   5.904   3.303   3.174  0.0113  0.5776  0.5838
   68MOL0     C 9109   5.865   3.343   3.068 -0.0266 -0.0981  0.3335
   68MOL0     C 9110   5.351   3.349   3.471 -0.2656  0.6096  0.3805
   68MOL0     C 9111   5.214   3.332   3.447  0.3777  0.3814 -0.5458
   68MOL0     C 9112   5.145   3.228   3.536 -0.3793 -0.6918 -0.7495
   68MOL0     H 9113   4.797   3.138   3.462  0.1988  0.2065 -0.3038
   68MOL0     H 9114   4.533   3.097   3.426  0.0818 -0.7347  1.0308
   68MOL0     H 9115   4.309   3.393   3.190  0.6452 -0.8378  2.0919
   68MOL0     H 9116   4.365   3.250   3.098  0.2016 -1.4041  0.3609
   68MOL0     H 9117   4.109   3.284   3.099 -0.5306  2.1733  0.1297
   68MOL0     H 9118   4.113   3.285   3.266 -0.3501  2.8845 -1.6315
   68MOL0     H 9119   4.049   3.067   3.180 -0.2017 -0.3179 -2.1504
   68MOL0     H 9120   4.191   3.042   3.275  0.5752  0.0990 -0.1209
   68MOL0     H 9121   4.187   3.079   2.971  2.3082  4.9424  1.5665
   68MOL0     H 9122   4.329   3.051   3.054 -0.7302  4.2121  3.4258
   68MOL0     H 9123   4.090   2.857   3.061 -0.1057 -1.7740  0.8858
   68MOL0     H 9124   4.230   2.834   2.950 -1.0354 -2.4587  1.7112
   68MOL0     H 9125   4.261   2.779   3.251 -1.2031  0.6222 -0.5088
   68MOL0     H 9126   4.233   2.679   3.105  0.7408 -0.3591  1.3531
   68MOL0     H 9127   4.460   2.886   3.182 -3.2317  0.9159  0.9918
   68MOL0     H 9128   4.462   2.792   3.027 -1.9743 -1.4728 -0.6765
   68MOL0     H 9129   4.465   2.652   3.303 -0.6965  2.4868  0.6465
   68MOL0     H 9130   4.478   2.587   3.140 -2.3400 -0.9011  1.3180
   68MOL0     H 9131   4.679   2.682   2.981 -3.1435  0.0232  1.5565
   68MOL0     H 9132   4.981   2.764   2.990  1.1119 -0.5901  0.4174
   68MOL0     H 9133   5.042   2.683   3.122  0.2779 -1.5550 -0.2916
   68MOL0     H 9134   4.930   2.469   3.047  0.2775 -1.5477 -1.8710
   68MOL0     H 9135   4.911   2.540   2.886 -1.0657 -0.7089  0.9841
   68MOL0     H 9136   5.164   2.501   3.034  0.4245  2.6865 -0.0046
   68MOL0     H 9137   5.159   2.615   2.896 -2.4732  0.2027 -1.4916
   68MOL0     H 9138   5.095   2.424   2.747  1.1203  0.7245 -1.1388
   68MOL0     H 9139   5.083   2.309   2.878  0.8083 -0.0642  0.4267
   68MOL0     H 9140   5.185   2.183   2.681 -1.0473  1.6791  0.5679
   68MOL0     H 9141   5.306   1.938   2.675 -0.7476  0.0843 -0.0247
   68MOL0     H 9142   5.333   1.653   2.925  0.0874 -1.3239  2.0189
   68MOL0     H 9143   5.389   1.406   2.995  0.8333 -2.5472 -1.0257
   68MOL0     H 9144   5.603   1.125   2.693  0.8063 -1.3646  0.4252
   68MOL0     H 9145   5.707   1.199   2.818 -1.5614  2.3044  0.0852
   68MOL0     H 9146   5.621   1.060   2.984  0.4903  0.1997  0.2270
   68MOL0     H 9147   5.519   0.977   2.871 -1.0213  1.4258 -1.4660
   68MOL0     H 9148   5.706   0.882   2.749  0.5796  1.2591 -0.0633
   68MOL0     H 9149   5.829   0.957   2.817 -1.8716  3.1962 -1.8793
   68MOL0     H 9150   5.661   0.731   2.928  1.6754 -3.3870  1.5882
   68MOL0     H 9151   5.737   0.832   3.047 -1.9227  0.6852  0.0140
   68MOL0     H 9152   5.886   0.665   3.031  0.2964 -0.5585  0.2484
   68MOL0     H 9153   5.959   0.792   2.954  1.7877 -2.1276 -1.0407
   68MOL0     H 9154   5.980   0.553   2.845 -1.5950 -2.4229  1.0038
   68MOL0     H 9155   5.812   0.575   2.789  0.5097 -0.0494  0.9670
   68MOL0     H 9156   6.063   0.728   2.699  1.1824 -4.3170  1.6440
   68MOL0     H 9157   5.906   0.796   2.659  0.3968  0.9777  0.3660
   68MOL0     H 9158   5.941   0.682   2.479  4.8339 -0.0523 -1.2697
   68MOL0     H 9159   6.064   0.574   2.544  1.4789  0.1716  0.4008
   68MOL0     H 9160   5.614   1.351   2.642 -3.4350 -2.9362 -0.2026
   68MOL0     H 9161   5.594   1.619   2.610  1.0115  3.0133  1.9465
   68MOL0     H 9162   5.552   2.082   3.000  1.5593  4.8291 -1.1483
   68MOL0     H 9163   5.457   2.296   2.979  0.8498 -1.9108  0.2106
   68MOL0     H 9164   4.527   3.460   3.183 -2.4114  0.6296  0.3887
   68MOL0     H 9165   4.766   3.455   3.187 -2.2102  0.5609 -0.7433
   68MOL0     H 9166   5.189   3.579   3.223 -3.1134  2.1515  4.1281
   68MOL0     H 9167   5.412   3.601   3.266 -1.9379  1.5892  1.1326
   68MOL0     H 9168   5.617   3.259   3.441 -1.8714  0.7296 -0.6850
   68MOL0     H 9169   5.639   3.368   3.579  0.2121 -3.8091  0.7613
   68MOL0     H 9170   5.840   3.466   3.479  0.9500 -1.0873 -1.1361
   68MOL0     H 9171   5.778   3.436   3.324 -0.5454  1.2559  1.1354
   68MOL0     H 9172   5.833   3.179   3.437  0.6022  0.0505  1.4585
   68MOL0     H 9173   5.952   3.298   3.516 -1.2520 -1.3833  1.6683
   68MOL0     H 9174   6.058   3.312   3.307  1.7492 -2.9554  2.0377
   68MOL0     H 9175   5.993   3.156   3.294  0.6668 -0.3044 -0.5575
   68MOL0     H 9176   5.825   3.390   2.981  0.4781  0.2103  0.2656
   68MOL0     H 9177   5.400   3.301   3.555  3.0909  1.6521 -0.8563
   68MOL0     H 9178   5.056   3.185   3.490 -0.3289 -2.2832  0.5332
   68MOL0     H 9179   5.199   3.132   3.546  1.9053  0.5525 -0.3976
   68MOL0     H 9180   5.111   3.268   3.632  3.6428 -0.0890  0.6393
   69MOL0     O 9181   2.473  10.036   3.080  0.0640  0.5214 -0.3276
   69MOL0     C 9182   2.414  10.065   3.189  1.0829 -0.7300 -0.4153
   69MOL0     O 9183   2.473  10.096   3.301 -0.0217 -0.4136 -0.6570
   69MOL0     C 9184   2.614  10.131   3.300 -0.0927 -0.0992 -0.1348
   69MOL0     C 9185   2.708  10.062   3.377 -0.5329 -0.2297  0.2767
   69MOL0     C 9186   2.838  10.093   3.367 -0.6416 -0.7125  0.6220
   69MOL0     C 9187   2.891  10.197   3.285  0.0321 -0.4406 -0.2146
   69MOL0     O 9188   3.027  10.208   3.288  0.0369 -0.4721  0.5977
   69MOL0     C 9189   3.076  10.336   3.253 -0.6458 -1.3966 -0.3932
   69MOL0     C 9190   3.220  10.351   3.285  0.3805  0.3405 -0.7898
   69MOL0     C 9191   3.257  10.352   3.434 -0.3926 -0.0660 -1.0785
   69MOL0     C 9192   3.245  10.500   3.490  0.5230  0.7490 -0.4746
   69MOL0     C 9193   3.324  10.509   3.622 -0.2033  0.3045  0.4869
   69MOL0     C 9194   3.297  10.649   3.694  0.3640 -0.3221 -0.3002
   69MOL0     C 9195   3.401  10.678   3.809 -0.6670 -0.7177  0.0347
   69MOL0     C 9196   3.386  10.569   3.916  0.0799  0.2662 -0.0999
   69MOL0     N 9197   3.433  10.603   4.049  0.3205 -0.4553 -0.3195
   69MOL0     C 9198   3.561  10.593   4.088 -0.0538  0.0534  0.4000
   69MOL0     C 9199   3.556  10.624   4.217  0.5915  0.5517 -0.4774
   69MOL0     C 9200   3.670  10.602   4.313  0.8297  0.1491 -0.1432
   69MOL0     C 9201   3.809  10.583   4.247 -0.6797  0.2020  0.3357
   69MOL0     C 9202   3.887  10.498   4.345 -0.2893  1.2056 -0.4346
   69MOL0     C 9203   4.026  10.468   4.307  0.7362 -0.2137  0.2576
   69MOL0     O 9204   4.102  10.426   4.421  0.6646  0.0523  0.4023
   69MOL0     C 9205   4.236  10.460   4.437 -0.5059 -0.0802 -0.6704
   69MOL0     C 9206   4.313  10.360   4.491  0.2055  0.4130 -0.2956
   69MOL0     C 9207   4.448  10.359   4.494  0.1920  0.1795 -0.5996
   69MOL0     C 9208   4.509  10.461   4.424  0.6646  0.2891  0.2035
   69MOL0     C 9209   4.655  10.473   4.409  0.3054  0.3660  0.7412
   69MOL0     O 9210   4.722  10.354   4.414  0.0002  0.2021 -0.4519
   69MOL0     C 9211   4.860  10.350   4.433  0.3903  0.0473 -1.1433
   69MOL0     C 9212   4.915  10.225   4.423  0.2145  0.9664  0.1374
   69MOL0     C 9213   5.048  10.198   4.446 -0.5897  0.8762  0.0774
   69MOL0     C 9214   5.145  10.302   4.463 -0.4958 -0.0184 -1.0859
   69MOL0     O 9215   5.275  10.273   4.488 -0.0952  1.1295 -0.7032
   69MOL0     C 9216   5.332  10.147   4.445 -0.3199  0.0844 -0.0239
   69MOL0     C 9217   5.480  10.158   4.474  0.1206 -0.2337 -0.0868
   69MOL0     C 9218   5.524  10.136   4.619  0.2414 -0.8246  0.1090
   69MOL0     C 9219   5.683  10.173   4.624  0.0376 -0.3497 -0.1696
   69MOL0     C 9220   5.759  10.117   4.746  0.6235 -0.6940 -0.5465
   69MOL0     C 9221   5.904  10.081   4.709 -0.4584  0.9300 -0.4774
   69MOL0     C 9222   5.994  10.031   4.824 -0.9305  0.8061  0.4154
   69MOL0     C 9223   6.033  10.140   4.924  1.2461  0.1244 -0.3251
   69MOL0    Cl 9224   6.109  10.089   5.065  0.3280  0.2364  0.1125
   69MOL0     C 9225   5.093  10.426   4.469  0.2658  0.1688  0.4687
   69MOL0     C 9226   4.954  10.451   4.454 -0.5008  0.3880  0.1485
   69MOL0     O 9227   4.697  10.577   4.369 -0.9101 -0.7854  0.0231
   69MOL0     C 9228   4.427  10.570   4.367 -1.1690 -0.7135  0.5074
   69MOL0     C 9229   4.294  10.572   4.372 -0.1320 -0.6203 -0.2525
   69MOL0     N 9230   3.435  10.663   4.254 -0.7519  0.9573 -0.5437
   69MOL0     N 9231   3.355  10.646   4.159 -0.0786  0.6131  0.2371
   69MOL0     C 9232   2.796  10.270   3.213  0.2164  0.8284  0.3005
   69MOL0     C 9233   2.659  10.235   3.222 -0.1510 -0.3563 -0.5928
   69MOL0     C 9234   2.261  10.052   3.200 -0.2302  0.6103  0.0908
   69MOL0     C 9235   2.198  10.119   3.297  0.4457  0.1898 -0.2003
   69MOL0     C 9236   2.062  10.136   3.309 -0.3850 -0.0009  0.2575
   69MOL0     C 9237   1.983  10.081   3.208  0.5827 -0.3336  0.7273
   69MOL0     O 9238   1.847  10.098   3.227  0.6018  0.1884 -0.6355
   69MOL0     C 9239   1.757  10.021   3.145 -0.1222 -0.4427  0.4323
   69MOL0     C 9240   1.615  10.034   3.210 -0.1499  0.8326  0.2726
   69MOL0     C 9241   1.503  10.018   3.099  0.4892  1.3175  0.6824
   69MOL0     C 9242   1.366   9.989   3.166 -0.1657  0.8337  0.1076
   69MOL0     C 9243   1.322   9.860   3.111 -0.4300  0.3007  0.4842
   69MOL0     C 9244   1.302   9.744   3.069 -0.2453 -0.2613  0.4234
   69MOL0     C 9245   2.033   9.996   3.109  0.5916 -0.5614  0.5142
   69MOL0     C 9246   2.179   9.989   3.106  0.0903 -0.1015 -0.3528
   69MOL0     C 9247   2.230   9.910   2.983  0.9524 -0.5879 -0.0138
   69MOL0     H 9248   2.681   9.979   3.441 -0.5202  1.2919  2.3556
   69MOL0     H 9249   2.914  10.055   3.434  0.0327  0.8162  0.7679
   69MOL0     H 9250   3.057  10.357   3.147  3.1818  2.9304 -0.5226
   69MOL0     H 9251   3.031  10.413   3.316 -1.7037 -1.7758 -0.6629
   69MOL0     H 9252   3.246  10.441   3.229 -0.9645  0.9643 -0.4495
   69MOL0     H 9253   3.272  10.260   3.253  1.9811  0.9582 -0.0652
   69MOL0     H 9254   3.360  10.317   3.442  0.7770  3.2445  0.2348
   69MOL0     H 9255   3.197  10.282   3.492  3.2284 -1.4216  1.3885
   69MOL0     H 9256   3.270  10.583   3.425 -0.1794  1.5089  0.2093
   69MOL0     H 9257   3.143  10.502   3.529  0.3908 -2.2806 -0.4329
   69MOL0     H 9258   3.283  10.428   3.683  1.1002 -0.3156  0.5941
   69MOL0     H 9259   3.432  10.498   3.607 -0.5068 -0.6046 -1.3284
   69MOL0     H 9260   3.312  10.720   3.613 -3.5728  1.1005 -0.0156
   69MOL0     H 9261   3.189  10.648   3.714  0.4726 -2.3597  0.4052
   69MOL0     H 9262   3.366  10.769   3.860  1.3407  0.4500 -0.5692
   69MOL0     H 9263   3.507  10.685   3.783 -0.2715  0.8335  1.7779
   69MOL0     H 9264   3.280  10.543   3.922 -0.6866  3.3817  2.9384
   69MOL0     H 9265   3.448  10.483   3.886 -0.2391 -0.0557  0.1474
   69MOL0     H 9266   3.647  10.559   4.032  1.6696  4.9676 -0.4524
   69MOL0     H 9267   3.657  10.684   4.385 -4.9754 -0.5777  0.1546
   69MOL0     H 9268   3.650  10.523   4.386  0.1486  0.3932 -0.0518
   69MOL0     H 9269   3.810  10.529   4.152  1.5510  0.2175  0.3107
   69MOL0     H 9270   3.859  10.679   4.234 -2.3997  0.9479 -1.1184
   69MOL0     H 9271   3.828  10.406   4.355 -1.8161  1.5594 -4.3484
   69MOL0     H 9272   3.888  10.552   4.440 -1.8212 -2.5407  1.9683
   69MOL0     H 9273   4.063  10.561   4.263 -2.2126  0.4081 -1.1412
   69MOL0     H 9274   4.023  10.387   4.233  0.1988  1.9621 -2.2517
   69MOL0     H 9275   4.262  10.271   4.525 -3.4742  1.3353 -2.7550
   69MOL0     H 9276   4.503  10.278   4.541 -0.5924  0.6902  1.3019
   69MOL0     H 9277   4.851  10.139   4.405 -0.4151  1.6787 -1.1263
   69MOL0     H 9278   5.088  10.098   4.438 -2.9974 -0.2079  0.7153
   69MOL0     H 9279   5.301  10.059   4.502  0.6091  1.4039  2.7230
   69MOL0     H 9280   5.319  10.130   4.338  0.3009 -1.1347  0.0798
   69MOL0     H 9281   5.546  10.100   4.409 -1.3242 -1.1719 -0.7675
   69MOL0     H 9282   5.503  10.263   4.452 -2.1169  0.1449 -0.8667
   69MOL0     H 9283   5.463  10.189   4.694  2.2408  2.1571 -0.1967
   69MOL0     H 9284   5.508  10.029   4.636 -0.7191 -0.6882  0.1497
   69MOL0     H 9285   5.688  10.282   4.632 -5.7166  0.2843 -0.7158
   69MOL0     H 9286   5.734  10.135   4.535  0.9203 -0.8021  0.5159
   69MOL0     H 9287   5.705  10.033   4.789 -0.2195  0.9064  1.7062
   69MOL0     H 9288   5.770  10.193   4.824 -0.2648 -2.9701  1.9631
   69MOL0     H 9289   5.907   9.994   4.644  2.2346 -1.2141  2.2157
   69MOL0     H 9290   5.966  10.160   4.665  1.3134 -1.1242 -1.8635
   69MOL0     H 9291   6.087   9.985   4.788 -1.8276 -0.5689 -0.2347
   69MOL0     H 9292   5.939   9.953   4.877  4.0594 -1.3090  3.0865
   69MOL0     H 9293   6.094  10.214   4.872  2.0833 -1.5284 -1.8115
   69MOL0     H 9294   5.943  10.198   4.950  0.6442  1.0659 -3.9247
   69MOL0     H 9295   5.167  10.503   4.488  3.0898 -2.1153 -0.4898
   69MOL0     H 9296   4.920  10.554   4.458 -1.3689  0.0831  1.7492
   69MOL0     H 9297   4.475  10.652   4.314  0.1108 -2.2307 -0.7797
   69MOL0     H 9298   4.240  10.645   4.314  2.1140  1.4738  0.1443
   69MOL0     H 9299   2.822  10.361   3.161  0.6152  1.5654  1.7354
   69MOL0     H 9300   2.593  10.304   3.170 -0.4495 -0.5621 -0.4932
   69MOL0     H 9301   2.258  10.156   3.380  0.9307  1.0599 -0.9143
   69MOL0     H 9302   2.015  10.202   3.382  1.4823  1.2077  0.4256
   69MOL0     H 9303   1.788   9.918   3.126  0.8985  0.4080 -3.4466
   69MOL0     H 9304   1.759  10.068   3.046  1.8326 -3.3607 -1.0639
   69MOL0     H 9305   1.606  10.111   3.287 -3.9453 -1.6461  2.6523
   69MOL0     H 9306   1.596   9.954   3.281 -0.0029  2.4990  2.3067
   69MOL0     H 9307   1.543   9.941   3.033 -1.6715  0.9703 -0.2937
   69MOL0     H 9308   1.501  10.108   3.037 -0.5081  0.4087 -0.6481
   69MOL0     H 9309   1.374   9.971   3.274  1.5984 -0.7540 -0.2318
   69MOL0     H 9310   1.282  10.058   3.157 -2.4822 -1.6575  1.2149
   69MOL0     H 9311   1.281   9.649   3.026  0.4257  0.8462 -2.6835
   69MOL0     H 9312   1.972   9.948   3.034 -1.3695 -0.3133  1.8590
   69MOL0     H 9313   2.231   9.974   2.893 -4.2797  2.9995  1.9659
   69MOL0     H 9314   2.324   9.865   3.013  1.2413 -0.3946 -0.6029
   69MOL0     H 9315   2.165   9.823   2.978  0.0134  0.0930  0.0499
   70MOL0     O 9316  11.160   3.862   6.177  0.4939  0.2764  0.0171
   70MOL0     C 9317  11.189   3.761   6.241  0.0540 -0.3035 -0.2424
   70MOL0     O 9318  11.304   3.747   6.314 -0.2424 -0.3819 -0.1910
   70MOL0     C 9319  11.414   3.832   6.285  0.1083  0.6993  0.1059
   70MOL0     C 9320  11.399   3.968   6.295 -0.3157  0.5503  1.3176
   70MOL0     C 9321  11.509   4.048   6.253 -0.0508 -0.4404 -0.4177
   70MOL0     C 9322  11.634   3.996   6.202  0.8513 -0.2976  0.4322
   70MOL0     O 9323  11.732   4.076   6.134  0.3609 -0.0483  0.0433
   70MOL0     C 9324  11.729   4.215   6.152 -0.1830 -0.0431  0.8469
   70MOL0     C 9325  11.841   4.288   6.078 -0.7957 -0.3967  0.4333
   70MOL0     C 9326  11.967   4.312   6.160 -0.7222  0.1454  0.5025
   70MOL0     C 9327  12.056   4.408   6.077 -0.6406  0.9860 -0.3391
   70MOL0     C 9328  12.155   4.482   6.170  0.0990  0.6592 -0.3571
   70MOL0     C 9329  12.238   4.580   6.083 -1.8498  0.8978 -0.7797
   70MOL0     C 9330  12.343   4.644   6.172 -0.3780  0.0442  0.4701
   70MOL0     C 9331  12.397   4.786   6.132 -0.2492 -0.1379  0.0362
   70MOL0     N 9332  12.486   4.782   6.018 -0.2837 -0.1991 -0.1131
   70MOL0     C 9333  12.570   4.679   5.983  0.1468  1.3971 -0.3183
   70MOL0     C 9334  12.674   4.723   5.915 -0.1514 -0.0778  0.2978
   70MOL0     C 9335  12.787   4.637   5.856  0.6324  1.0044  0.3335
   70MOL0     C 9336  12.920   4.657   5.918 -0.3132  0.3100 -0.1655
   70MOL0     C 9337  13.023   4.592   5.830  0.3068  0.8178  0.0307
   70MOL0     C 9338  13.163   4.584   5.895  0.3824 -0.9708 -0.4953
   70MOL0     O 9339  13.209   4.718   5.908  0.4270  0.3515  0.3202
   70MOL0     C 9340  13.340   4.756   5.918  0.7197  0.3111  0.6141
   70MOL0     C 9341  13.438   4.661   5.895 -0.1759 -0.5705 -0.1537
   70MOL0     C 9342  13.570   4.697   5.870 -0.2897 -0.0312  0.0758
   70MOL0     C 9343  13.610   4.831   5.862 -0.0375 -0.2042  0.4520
   70MOL0     C 9344  13.749   4.864   5.817 -0.9101  0.2713  0.3538
   70MOL0     O 9345  13.773   4.993   5.787 -0.0444  0.3617 -0.4119
   70MOL0     C 9346  13.900   5.035   5.769  0.5434  0.3528  0.1171
   70MOL0     C 9347  13.974   4.989   5.662  0.6217  0.2547  0.3334
   70MOL0     C 9348  14.108   5.024   5.653 -0.3293  0.4274  0.0782
   70MOL0     C 9349  14.169   5.121   5.734 -0.1651 -0.9575  0.1858
   70MOL0     O 9350  14.301   5.154   5.703  0.0130 -0.1618 -0.3939
   70MOL0     C 9351  14.357   5.262   5.772  0.1931 -0.2354  0.0190
   70MOL0     C 9352  14.500   5.297   5.712 -0.5336 -0.0548  0.0277
   70MOL0     C 9353  14.596   5.181   5.719 -0.1537 -0.7117 -0.5845
   70MOL0     C 9354  14.734   5.233   5.717 -0.2099  0.0346  0.2395
   70MOL0     C 9355  14.775   5.250   5.869 -0.1359  0.2936 -1.1814
   70MOL0     C 9356  14.914   5.313   5.878  0.1956  0.8765  0.1993
   70MOL0     C 9357  14.920   5.462   5.863 -0.3883 -0.3042 -0.4524
   70MOL0     C 9358  14.923   5.546   5.983 -0.7113  0.1712 -0.2575
   70MOL0    Cl 9359  14.776   5.539   6.096 -0.2682 -0.8990 -0.4224
   70MOL0     C 9360  14.087   5.173   5.840 -0.2211 -0.2853 -0.4709
   70MOL0     C 9361  13.960   5.125   5.859 -0.0508  1.3066 -0.2215
   70MOL0     O 9362  13.835   4.774   5.807 -0.1210  0.0029  0.2538
   70MOL0     C 9363  13.506   4.931   5.893 -0.4360  0.0853  0.4827
   70MOL0     C 9364  13.373   4.889   5.915 -0.6420  0.6223 -0.6749
   70MOL0     N 9365  12.652   4.864   5.896  0.2744  0.2292  0.9357
   70MOL0     N 9366  12.538   4.893   5.958  0.7067 -0.0721  0.2990
   70MOL0     C 9367  11.636   3.856   6.198 -0.0203 -1.1258 -1.2448
   70MOL0     C 9368  11.537   3.771   6.250 -0.1758 -0.6318 -0.3625
   70MOL0     C 9369  11.090   3.655   6.241  0.2806 -0.4519 -0.6537
   70MOL0     C 9370  10.948   3.689   6.221 -0.8721  0.1719  0.5882
   70MOL0     C 9371  10.851   3.590   6.220 -0.2316 -0.3853 -1.4249
   70MOL0     C 9372  10.893   3.452   6.252  0.3093 -0.8484 -0.5460
   70MOL0     O 9373  10.804   3.347   6.261 -0.0401 -0.0005 -0.0125
   70MOL0     C 9374  10.663   3.379   6.244  0.4055 -0.0034 -1.1759
   70MOL0     C 9375  10.590   3.242   6.269 -0.2405 -0.2611 -0.1146
   70MOL0     C 9376  10.623   3.163   6.143 -0.6338  0.5655 -0.0982
   70MOL0     C 9377  10.550   3.038   6.113  0.2462 -0.6056 -1.0702
   70MOL0     C 9378  10.408   3.066   6.102 -0.3033 -0.7202 -0.5443
   70MOL0     C 9379  10.290   3.103   6.102 -0.1774 -1.2178  0.6708
   70MOL0     C 9380  11.027   3.423   6.270 -0.2415  0.4369  0.0207
   70MOL0     C 9381  11.125   3.518   6.271  0.0420  0.4309 -0.1836
   70MOL0     C 9382  11.265   3.468   6.284 -0.2893  0.0904  0.4471
   70MOL0     H 9383  11.295   3.997   6.309 -0.7276  0.0939 -0.4771
   70MOL0     H 9384  11.501   4.156   6.254 -0.7158 -0.4762 -0.8333
   70MOL0     H 9385  11.633   4.260   6.126  0.0548 -1.2287 -2.6967
   70MOL0     H 9386  11.742   4.229   6.259  2.6519 -1.2561  0.7346
   70MOL0     H 9387  11.799   4.388   6.065 -2.3865 -0.8338  1.8554
   70MOL0     H 9388  11.870   4.236   5.986  1.5803  4.2011 -1.7537
   70MOL0     H 9389  12.015   4.218   6.190 -4.6769 -2.2080  0.1788
   70MOL0     H 9390  11.952   4.371   6.250  1.6292 -0.2888  1.2367
   70MOL0     H 9391  12.105   4.355   5.994  0.1943  0.7726  0.2775
   70MOL0     H 9392  11.989   4.488   6.044 -0.5142  1.5109  0.6318
   70MOL0     H 9393  12.103   4.533   6.252 -1.6049 -0.6397 -0.5939
   70MOL0     H 9394  12.221   4.409   6.219 -1.3777 -1.7125 -1.7253
   70MOL0     H 9395  12.283   4.522   6.002  1.3011  1.0574  0.7476
   70MOL0     H 9396  12.175   4.664   6.052 -0.1488  3.5931  2.4189
   70MOL0     H 9397  12.424   4.572   6.188  1.9476  2.4107  0.0681
   70MOL0     H 9398  12.303   4.663   6.272 -2.3544  0.2430 -0.3098
   70MOL0     H 9399  12.312   4.853   6.116 -1.4275 -2.1730 -3.2604
   70MOL0     H 9400  12.459   4.840   6.204 -0.5369  2.4100 -1.5019
   70MOL0     H 9401  12.551   4.578   6.020 -3.8487  3.4114  4.2278
   70MOL0     H 9402  12.758   4.532   5.865  2.5705  0.5622  2.2754
   70MOL0     H 9403  12.796   4.656   5.748  1.2013  1.5173  0.4621
   70MOL0     H 9404  12.945   4.762   5.934 -2.0420  0.7264  0.0134
   70MOL0     H 9405  12.917   4.610   6.017 -1.5006 -2.4432 -1.4120
   70MOL0     H 9406  13.024   4.659   5.744  0.3988 -0.8171 -1.2752
   70MOL0     H 9407  13.003   4.489   5.800  3.4510 -0.0955  0.6585
   70MOL0     H 9408  13.218   4.517   5.829  0.4036  0.3548 -1.8734
   70MOL0     H 9409  13.147   4.538   5.993 -2.2511  1.0100  0.1303
   70MOL0     H 9410  13.414   4.557   5.911 -0.1323 -1.0830 -2.9618
   70MOL0     H 9411  13.637   4.621   5.831  0.1912  1.9720 -3.5069
   70MOL0     H 9412  13.932   4.916   5.594 -0.9290 -0.9033  2.4146
   70MOL0     H 9413  14.180   4.986   5.581 -0.7613 -2.0706  0.8606
   70MOL0     H 9414  14.284   5.343   5.765 -3.4130 -3.1952 -0.1301
   70MOL0     H 9415  14.381   5.246   5.878  0.6079 -0.3102 -0.0869
   70MOL0     H 9416  14.484   5.342   5.614 -3.6331  0.6711  0.7698
   70MOL0     H 9417  14.539   5.375   5.778 -0.8188 -3.4524  4.6539
   70MOL0     H 9418  14.576   5.118   5.806  0.9792 -0.5842 -0.2205
   70MOL0     H 9419  14.582   5.120   5.630 -0.5809  0.5713 -1.4314
   70MOL0     H 9420  14.741   5.330   5.667  0.8403  1.9689  3.7893
   70MOL0     H 9421  14.802   5.163   5.667  1.9570  0.6391  2.2018
   70MOL0     H 9422  14.781   5.155   5.923 -0.9081  1.4645  1.0725
   70MOL0     H 9423  14.698   5.304   5.924 -0.7157 -1.7917  0.1713
   70MOL0     H 9424  14.958   5.289   5.975 -1.4000  2.4610  1.3786
   70MOL0     H 9425  14.978   5.271   5.800 -1.1002 -0.0140 -0.4271
   70MOL0     H 9426  14.827   5.487   5.811 -0.9896 -0.6032  0.4591
   70MOL0     H 9427  15.010   5.488   5.806  0.1281 -0.5150  0.2541
   70MOL0     H 9428  15.006   5.505   6.042 -0.6958  0.2894 -0.1951
   70MOL0     H 9429  14.940   5.650   5.953 -0.4120 -0.1266 -1.1253
   70MOL0     H 9430  14.126   5.234   5.921  0.6964 -2.1009  0.5236
   70MOL0     H 9431  13.901   5.160   5.944  0.7961 -1.6357  1.7683
   70MOL0     H 9432  13.547   5.031   5.903  1.4786 -0.4453 -1.2448
   70MOL0     H 9433  13.297   4.965   5.925 -0.2238  0.7842  1.7642
   70MOL0     H 9434  11.728   3.806   6.168  0.9717 -0.3417  0.3709
   70MOL0     H 9435  11.531   3.663   6.248 -0.4354 -0.6096 -1.8725
   70MOL0     H 9436  10.912   3.787   6.191 -1.9609 -0.7822 -1.3933
   70MOL0     H 9437  10.748   3.626   6.215  0.7532  3.1930  0.6729
   70MOL0     H 9438  10.626   3.412   6.147 -1.5010  0.0210 -0.4802
   70MOL0     H 9439  10.637   3.458   6.315  1.3303  0.6898 -1.5765
   70MOL0     H 9440  10.481   3.247   6.272 -0.5196 -0.7386 -4.2432
   70MOL0     H 9441  10.624   3.204   6.366 -0.5671 -1.3367 -0.4083
   70MOL0     H 9442  10.725   3.124   6.151 -1.6199 -1.9766  0.8619
   70MOL0     H 9443  10.628   3.228   6.055 -3.5137 -0.0238 -0.7937
   70MOL0     H 9444  10.584   2.985   6.023 -2.7283 -2.8787 -1.0158
   70MOL0     H 9445  10.564   2.969   6.197 -0.0756  0.4603 -0.1184
   70MOL0     H 9446  10.189   3.141   6.100 -0.2116 -1.2975  0.8939
   70MOL0     H 9447  11.064   3.320   6.272 -1.9899 -0.3672 -3.0615
   70MOL0     H 9448  11.298   3.516   6.376 -1.5659  0.2831  0.8268
   70MOL0     H 9449  11.275   3.359   6.295 -0.4636  0.0661  0.3659
   70MOL0     H 9450  11.317   3.505   6.195 -2.3155 -0.9524 -1.2586
   71MOL0     O 9451   6.929  10.134   2.819 -0.2635  0.0165 -0.2371
   71MOL0     C 9452   6.882  10.041   2.883  0.1762  0.2341  0.0874
   71MOL0     O 9453   6.771  10.047   2.970  0.0540 -0.2370 -0.4728
   71MOL0     C 9454   6.737  10.168   3.028  0.3873  0.4226  0.4467
   71MOL0     C 9455   6.598  10.201   3.057 -0.6531 -0.2038  0.4650
   71MOL0     C 9456   6.557  10.314   3.129  0.5860  0.5063  0.6754
   71MOL0     C 9457   6.660  10.398   3.175  0.4308 -0.0617 -0.2011
   71MOL0     O 9458   6.636  10.508   3.247 -0.5539 -0.2936 -0.0469
   71MOL0     C 9459   6.500  10.544   3.280  0.4936  0.2831 -0.5033
   71MOL0     C 9460   6.501  10.683   3.343  0.1731 -0.2286 -0.9134
   71MOL0     C 9461   6.521  10.787   3.230  0.4159 -0.1223 -0.4866
   71MOL0     C 9462   6.387  10.830   3.161 -0.3596  0.1469 -0.7575
   71MOL0     C 9463   6.408  10.910   3.024 -0.6849  0.1597  0.8232
   71MOL0     C 9464   6.467  11.058   3.053  0.0367 -0.2269  0.3033
   71MOL0     C 9465   6.473  11.151   2.933 -1.2793  0.1529  0.2670
   71MOL0     C 9466   6.334  11.191   2.871 -0.6877  0.4162  0.5388
   71MOL0     N 9467   6.252  11.277   2.953 -0.2593 -0.1400  0.4156
   71MOL0     C 9468   6.118  11.294   2.945  0.4062 -0.6187 -0.5576
   71MOL0     C 9469   6.090  11.377   3.047 -0.1705 -0.2997 -0.2193
   71MOL0     C 9470   5.948  11.391   3.092 -0.3382 -0.3418  1.0932
   71MOL0     C 9471   5.914  11.535   3.087  0.1608 -0.3080 -0.6589
   71MOL0     C 9472   5.871  11.580   2.947 -0.3300  0.3781  0.4962
   71MOL0     C 9473   5.907  11.727   2.922  0.2470 -0.0564  1.1245
   71MOL0     O 9474   5.832  11.806   3.016  0.8651  0.0473 -0.8446
   71MOL0     C 9475   5.689  11.803   3.011 -0.0995 -0.6506  0.2488
   71MOL0     C 9476   5.631  11.778   3.134  0.1518 -0.9783  0.9691
   71MOL0     C 9477   5.486  11.797   3.141  0.4262 -0.0185  0.2033
   71MOL0     C 9478   5.420  11.840   3.024  0.2643 -0.5672  0.8416
   71MOL0     C 9479   5.284  11.885   3.038 -0.0434 -0.4614 -0.1862
   71MOL0     O 9480   5.224  11.951   2.939 -0.1424 -0.3727  0.1155
   71MOL0     C 9481   5.108  12.009   2.976  0.0583 -0.4153 -1.6516
   71MOL0     C 9482   5.103  12.145   3.008  0.6515  0.6868 -0.2583
   71MOL0     C 9483   4.977  12.209   3.024 -0.3165 -0.3026 -0.5356
   71MOL0     C 9484   4.858  12.135   2.994  0.1602 -1.0592  0.1897
   71MOL0     O 9485   4.731  12.189   3.004 -0.0145 -0.2151 -0.2993
   71MOL0     C 9486   4.700  12.315   3.064 -0.1230 -1.5280  0.4135
   71MOL0     C 9487   4.703  12.427   2.964  0.3811  0.2067 -0.7036
   71MOL0     C 9488   4.592  12.412   2.849  0.1423 -0.7337  0.4252
   71MOL0     C 9489   4.448  12.379   2.901  0.2046  0.8126  0.2913
   71MOL0     C 9490   4.350  12.438   2.799  0.7025  0.2449  0.9502
   71MOL0     C 9491   4.205  12.403   2.836 -0.1206  0.1540 -0.8659
   71MOL0     C 9492   4.108  12.500   2.762 -0.3692  0.2702  0.2834
   71MOL0     C 9493   3.959  12.473   2.814  0.5587 -0.3705 -0.0962
   71MOL0    Cl 9494   3.936  12.501   2.982  0.1225  0.0145 -0.0840
   71MOL0     C 9495   4.867  12.008   2.950 -0.7351  0.4879  0.8591
   71MOL0     C 9496   4.992  11.941   2.947 -0.2972 -0.0393 -0.0008
   71MOL0     O 9497   5.224  11.865   3.144 -0.3961 -0.5509  1.0586
   71MOL0     C 9498   5.489  11.850   2.897  0.1607  1.3638  0.2128
   71MOL0     C 9499   5.623  11.845   2.890  0.6023  0.2371 -0.7247
   71MOL0     N 9500   6.203  11.409   3.119  0.0738 -0.1497  0.3248
   71MOL0     N 9501   6.303  11.354   3.057  0.3685 -0.1915 -0.0043
   71MOL0     C 9502   6.797  10.374   3.150 -0.3576  0.0404 -0.7473
   71MOL0     C 9503   6.838  10.266   3.071  0.1730 -0.8060  0.1447
   71MOL0     C 9504   6.921   9.904   2.838  0.5129 -0.5364 -0.4671
   71MOL0     C 9505   6.820   9.805   2.836 -1.3701  0.7609 -0.2841
   71MOL0     C 9506   6.845   9.670   2.803 -0.1664  0.2313 -0.0344
   71MOL0     C 9507   6.975   9.628   2.773  0.0829 -0.5722  0.1072
   71MOL0     O 9508   6.999   9.497   2.746 -0.1542  0.3097  1.1147
   71MOL0     C 9509   6.984   9.410   2.861 -0.7120 -0.6904  0.0379
   71MOL0     C 9510   7.031   9.267   2.839 -1.0032 -0.5730 -0.0976
   71MOL0     C 9511   7.011   9.168   2.965 -0.3958 -0.5632  0.1542
   71MOL0     C 9512   7.105   9.047   2.961  0.3259 -0.2280 -0.3702
   71MOL0     C 9513   7.103   8.986   3.100  0.0147  0.0724  0.6923
   71MOL0     C 9514   7.103   8.962   3.218 -0.2525  0.5939 -0.8653
   71MOL0     C 9515   7.074   9.724   2.751 -0.3283 -0.1220 -0.5061
   71MOL0     C 9516   7.049   9.859   2.784  1.0355  0.1293  0.2720
   71MOL0     C 9517   7.162   9.954   2.767  0.1651  1.1756 -0.1601
   71MOL0     H 9518   6.527  10.123   3.029  0.3367 -0.6523 -0.9046
   71MOL0     H 9519   6.450  10.324   3.149  0.2323 -0.5731 -0.5732
   71MOL0     H 9520   6.428  10.540   3.198  0.1930 -0.6734 -0.2103
   71MOL0     H 9521   6.460  10.475   3.356 -0.0130 -0.3486 -1.3286
   71MOL0     H 9522   6.589  10.691   3.407  0.3825 -0.0293 -1.2238
   71MOL0     H 9523   6.419  10.720   3.405  1.1210  0.1690  0.1255
   71MOL0     H 9524   6.593  10.751   3.155 -0.5501  0.0817 -1.5356
   71MOL0     H 9525   6.567  10.879   3.266 -1.8102  0.8955 -0.1435
   71MOL0     H 9526   6.335  10.738   3.135 -0.8334  0.5131 -1.1377
   71MOL0     H 9527   6.317  10.879   3.229 -0.9155  0.4027 -1.4947
   71MOL0     H 9528   6.491  10.868   2.966 -2.6937  3.3136 -5.2408
   71MOL0     H 9529   6.316  10.895   2.967  0.0780 -2.4956  0.0956
   71MOL0     H 9530   6.402  11.097   3.131 -0.2078 -0.7185  0.3507
   71MOL0     H 9531   6.567  11.042   3.095  1.1019 -2.7256 -2.7426
   71MOL0     H 9532   6.524  11.093   2.856 -1.5238 -2.0632  1.6904
   71MOL0     H 9533   6.534  11.238   2.957 -1.2260  0.1814  0.0355
   71MOL0     H 9534   6.363  11.246   2.782  0.0015 -1.7220 -0.6422
   71MOL0     H 9535   6.285  11.101   2.832 -0.4062  0.8551 -0.8725
   71MOL0     H 9536   6.041  11.254   2.880 -2.2234  1.7703  0.8435
   71MOL0     H 9537   5.879  11.339   3.025 -1.4295  2.1485  0.1266
   71MOL0     H 9538   5.940  11.355   3.194 -1.3862  4.4761  2.9945
   71MOL0     H 9539   5.842  11.569   3.161  1.7598  1.6333  0.0802
   71MOL0     H 9540   6.001  11.593   3.118 -1.8600  2.3623  0.3634
   71MOL0     H 9541   5.762  11.582   2.938 -0.4480  2.3473  1.8833
   71MOL0     H 9542   5.904  11.514   2.866 -1.4961 -0.0655  0.3548
   71MOL0     H 9543   5.879  11.749   2.819  0.9808 -1.1983  0.6702
   71MOL0     H 9544   6.013  11.743   2.943  0.3102  0.8262  0.2281
   71MOL0     H 9545   5.692  11.749   3.219  2.1568  1.3767  0.4467
   71MOL0     H 9546   5.436  11.782   3.237  1.9750  0.6188  1.1506
   71MOL0     H 9547   5.202  12.186   3.028 -0.1253  3.0327 -0.9337
   71MOL0     H 9548   4.984  12.310   3.065  0.0655 -1.5729  2.8276
   71MOL0     H 9549   4.602  12.304   3.111 -1.2944  2.8839 -0.5021
   71MOL0     H 9550   4.774  12.328   3.144 -2.2664  3.7088  1.9983
   71MOL0     H 9551   4.683  12.519   3.020  2.5934  0.0975  0.3825
   71MOL0     H 9552   4.803  12.431   2.919  2.2412 -1.1842  2.8717
   71MOL0     H 9553   4.588  12.506   2.793  1.8656 -1.2198 -0.6154
   71MOL0     H 9554   4.606  12.332   2.775 -3.3317  1.5259 -3.0999
   71MOL0     H 9555   4.419  12.419   2.998 -1.2690 -0.4269  0.3981
   71MOL0     H 9556   4.430  12.272   2.912 -1.4833  0.7636 -2.1187
   71MOL0     H 9557   4.373  12.400   2.699 -0.8308  2.2169 -0.2323
   71MOL0     H 9558   4.361  12.547   2.796  1.1871  0.2245 -2.7614
   71MOL0     H 9559   4.186  12.295   2.827  3.1155 -0.7454  1.3382
   71MOL0     H 9560   4.187  12.406   2.944 -0.3974 -1.6404 -0.8190
   71MOL0     H 9561   4.099  12.508   2.653 -0.7031  3.4497  0.4443
   71MOL0     H 9562   4.138  12.599   2.798  0.1991  0.0551  0.4031
   71MOL0     H 9563   3.904  12.554   2.765  2.6513  2.4022  1.7810
   71MOL0     H 9564   3.931  12.372   2.784  1.2170 -0.1504 -1.5179
   71MOL0     H 9565   4.780  11.954   2.914  0.3896 -0.0075 -1.3294
   71MOL0     H 9566   5.005  11.845   2.900  2.2022 -0.0853  0.6468
   71MOL0     H 9567   5.439  11.876   2.805 -0.5526  1.1228  0.5234
   71MOL0     H 9568   5.675  11.861   2.796 -0.1681  3.0858 -0.7829
   71MOL0     H 9569   6.872  10.435   3.198 -0.0179 -0.6928 -0.3235
   71MOL0     H 9570   6.945  10.255   3.058  0.2015  1.1388 -1.8529
   71MOL0     H 9571   6.717   9.822   2.869 -1.7278 -1.5446 -0.0783
   71MOL0     H 9572   6.760   9.602   2.809  0.8723 -1.0132  3.2491
   71MOL0     H 9573   6.880   9.402   2.894 -0.5157 -1.4042  0.4945
   71MOL0     H 9574   7.030   9.447   2.953  1.3106  4.0255 -2.4811
   71MOL0     H 9575   7.139   9.263   2.822 -0.7736  1.2958  0.6821
   71MOL0     H 9576   6.989   9.234   2.743  1.8993 -1.9999 -0.9853
   71MOL0     H 9577   6.909   9.129   2.955 -0.8839 -0.2054  2.9643
   71MOL0     H 9578   7.029   9.224   3.057 -0.6874 -0.9399  0.4447
   71MOL0     H 9579   7.080   8.969   2.889  1.5436 -0.3837 -0.6473
   71MOL0     H 9580   7.206   9.085   2.946  0.0341  0.8363  0.2168
   71MOL0     H 9581   7.114   8.940   3.322  0.9399  1.5063 -0.7720
   71MOL0     H 9582   7.171   9.691   2.715  0.4811  2.2804 -0.6917
   71MOL0     H 9583   7.140  10.012   2.677 -0.0924 -1.3152 -1.8038
   71MOL0     H 9584   7.177  10.026   2.847  0.1675 -0.3949  1.3091
   71MOL0     H 9585   7.258   9.902   2.760 -0.9102 -0.9655 -0.0491
   72MOL0     O 9586   9.777   1.946  10.582 -0.3292 -0.0675 -0.2931
   72MOL0     C 9587   9.762   1.948  10.458 -0.7245 -0.3514 -0.8654
   72MOL0     O 9588   9.843   2.004  10.371  0.9499 -0.1793 -1.1224
   72MOL0     C 9589   9.970   2.040  10.413 -0.6542 -0.3958  0.4993
   72MOL0     C 9590  10.033   2.156  10.368  0.9172  1.3467  0.0440
   72MOL0     C 9591  10.171   2.180  10.375  0.9786  0.3416  0.5462
   72MOL0     C 9592  10.254   2.091  10.442 -0.6434  0.7860  0.8654
   72MOL0     O 9593  10.388   2.097  10.455  0.0614 -0.4250  0.1707
   72MOL0     C 9594  10.457   2.217  10.408 -0.3604 -0.3152  0.3115
   72MOL0     C 9595  10.589   2.211  10.486  0.4189 -0.0950  0.5016
   72MOL0     C 9596  10.682   2.333  10.469  0.3897 -0.3529  0.0803
   72MOL0     C 9597  10.744   2.347  10.325  0.1614  0.3344  0.7748
   72MOL0     C 9598  10.823   2.470  10.302 -0.3586 -0.3700 -0.1061
   72MOL0     C 9599  10.950   2.491  10.382  0.2716  0.0944 -0.2085
   72MOL0     C 9600  11.046   2.374  10.345  0.2057 -0.7927 -0.3196
   72MOL0     C 9601  11.183   2.402  10.404 -1.2459 -0.3705 -0.4880
   72MOL0     N 9602  11.262   2.459  10.293  0.2122  0.1382  1.2433
   72MOL0     C 9603  11.322   2.586  10.283  0.2891  0.8028 -0.2772
   72MOL0     C 9604  11.416   2.583  10.185  0.4044 -0.1433 -0.4280
   72MOL0     C 9605  11.500   2.711  10.147  0.5866  0.3832  0.6176
   72MOL0     C 9606  11.651   2.711  10.166 -0.1975  0.1211  0.1396
   72MOL0     C 9607  11.703   2.588  10.088 -0.5730  0.2204 -0.8802
   72MOL0     C 9608  11.850   2.600  10.061  0.7197  0.3714  0.4442
   72MOL0     O 9609  11.882   2.729  10.021 -0.0006 -0.3641  1.0492
   72MOL0     C 9610  12.016   2.754  10.001 -1.0571  0.0025  0.6305
   72MOL0     C 9611  12.118   2.656  10.007  0.3942 -0.2261  0.1041
   72MOL0     C 9612  12.249   2.691   9.982 -0.3001  0.1795  0.5104
   72MOL0     C 9613  12.283   2.826   9.952 -0.6527  0.4137 -0.5643
   72MOL0     C 9614  12.421   2.857   9.904  0.2142 -0.2778  0.0713
   72MOL0     O 9615  12.516   2.756   9.901  0.2063  0.2499  0.0515
   72MOL0     C 9616  12.645   2.787   9.866 -0.8659  0.5939  0.5844
   72MOL0     C 9617  12.721   2.682   9.819 -1.5234  0.3919 -0.6318
   72MOL0     C 9618  12.848   2.701   9.767 -0.2641  1.3974  0.1519
   72MOL0     C 9619  12.908   2.824   9.767  0.7882 -0.8041  0.5179
   72MOL0     O 9620  13.020   2.851   9.698 -0.0033  0.2847 -0.2969
   72MOL0     C 9621  13.137   2.765   9.718  0.4222 -0.0446  0.3772
   72MOL0     C 9622  13.230   2.773   9.596 -0.7304 -0.1449 -0.2405
   72MOL0     C 9623  13.276   2.918   9.578 -0.0201 -0.8012 -0.6983
   72MOL0     C 9624  13.357   2.960   9.703  0.1765  0.5454  0.2189
   72MOL0     C 9625  13.428   3.096   9.677 -0.6537  0.6392 -0.1747
   72MOL0     C 9626  13.506   3.142   9.801  0.1045 -0.4248 -0.2478
   72MOL0     C 9627  13.575   3.285   9.785 -0.2684  0.8674  0.1733
   72MOL0     C 9628  13.472   3.395   9.810  0.2293 -0.2772 -0.2275
   72MOL0    Cl 9629  13.553   3.557   9.837 -0.0557  0.1908 -0.0845
   72MOL0     C 9630  12.839   2.933   9.816 -0.2019  0.4453 -0.1134
   72MOL0     C 9631  12.709   2.917   9.870 -1.2801  0.5712  0.5783
   72MOL0     O 9632  12.442   2.980   9.890 -0.8187  0.5028  0.1473
   72MOL0     C 9633  12.177   2.927   9.964 -0.6802  0.2513  0.1343
   72MOL0     C 9634  12.052   2.885   9.985 -0.4615 -0.6102 -0.3851
   72MOL0     N 9635  11.430   2.452  10.148  0.1968  0.3140  0.3842
   72MOL0     N 9636  11.330   2.386  10.205  0.8493  0.6434 -0.1456
   72MOL0     C 9637  10.198   1.980  10.501 -0.5006  1.1915 -0.5392
   72MOL0     C 9638  10.057   1.959  10.482  0.2019 -0.1362 -0.5788
   72MOL0     C 9639   9.619   1.898  10.418  0.2833 -0.2514  0.3138
   72MOL0     C 9640   9.521   1.877  10.519 -0.5429  0.4494 -0.2191
   72MOL0     C 9641   9.397   1.836  10.497  0.8691  0.2232 -0.7599
   72MOL0     C 9642   9.355   1.806  10.366  1.5157 -0.7898  0.2717
   72MOL0     O 9643   9.221   1.773  10.340 -0.1420 -0.1404  0.3130
   72MOL0     C 9644   9.128   1.764  10.447 -0.8390 -0.4934  0.6046
   72MOL0     C 9645   9.072   1.904  10.480 -0.1506  0.2297  0.3541
   72MOL0     C 9646   9.007   1.965  10.356 -0.1460 -0.7476  0.0445
   72MOL0     C 9647   8.937   2.095  10.401 -0.1605 -0.1159  0.5503
   72MOL0     C 9648   8.794   2.069  10.430  0.0218  0.4240  0.0553
   72MOL0     C 9649   8.689   2.048  10.486  0.9098 -0.0311  0.0468
   72MOL0     C 9650   9.450   1.829  10.266 -0.5223  0.5596 -0.2209
   72MOL0     C 9651   9.576   1.885  10.285 -0.6165 -0.4663 -0.7012
   72MOL0     C 9652   9.667   1.899  10.173  0.1275 -0.7597 -0.0786
   72MOL0     H 9653   9.984   2.230  10.305 -1.1326 -1.0279 -1.3661
   72MOL0     H 9654  10.221   2.264  10.328  0.2153  0.7021  0.3661
   72MOL0     H 9655  10.494   2.215  10.305  2.4086 -2.6830  1.2203
   72MOL0     H 9656  10.407   2.314  10.421  3.4690  1.7353  1.2811
   72MOL0     H 9657  10.637   2.116  10.463 -2.7590 -1.9136  0.7594
   72MOL0     H 9658  10.573   2.206  10.594  0.3085 -1.0923  0.4404
   72MOL0     H 9659  10.769   2.311  10.531 -1.9219 -2.4371  2.8109
   72MOL0     H 9660  10.620   2.417  10.503 -0.5280 -1.0408  0.1600
   72MOL0     H 9661  10.795   2.257  10.288 -0.0869  1.1640 -1.8357
   72MOL0     H 9662  10.666   2.363  10.250  0.7182  0.6518  0.2546
   72MOL0     H 9663  10.847   2.491  10.198 -0.3944 -3.4630 -0.8424
   72MOL0     H 9664  10.754   2.553  10.322 -0.2532 -0.6768  1.7363
   72MOL0     H 9665  11.006   2.579  10.348  2.1343 -1.5437 -1.6550
   72MOL0     H 9666  10.931   2.482  10.489  0.7768 -0.5921 -0.1729
   72MOL0     H 9667  11.049   2.364  10.236 -1.3202  0.9198 -0.5512
   72MOL0     H 9668  11.006   2.284  10.393  0.4764 -0.2158  1.0398
   72MOL0     H 9669  11.176   2.480  10.481 -0.8573 -1.7009  0.9427
   72MOL0     H 9670  11.230   2.312  10.445 -3.3882 -2.4119 -2.1908
   72MOL0     H 9671  11.310   2.678  10.339 -3.3723 -0.1720  0.8022
   72MOL0     H 9672  11.491   2.733  10.041 -0.7205 -3.6940 -0.2849
   72MOL0     H 9673  11.455   2.800  10.192 -1.6013  0.2341 -1.1479
   72MOL0     H 9674  11.693   2.801  10.120  1.2729 -0.9729 -0.7370
   72MOL0     H 9675  11.678   2.720  10.271 -3.1610 -0.0913  1.0309
   72MOL0     H 9676  11.648   2.585   9.994 -2.2253  0.6576  0.0377
   72MOL0     H 9677  11.683   2.500  10.149  1.7506  0.8820  0.9865
   72MOL0     H 9678  11.870   2.536   9.975  1.0919  1.5652 -0.3724
   72MOL0     H 9679  11.902   2.579  10.155  0.2154 -1.7442  0.3027
   72MOL0     H 9680  12.106   2.552  10.036 -0.4181 -0.8055 -2.1045
   72MOL0     H 9681  12.326   2.615   9.980 -0.8845 -0.4963 -3.4512
   72MOL0     H 9682  12.678   2.584   9.806 -2.0092  0.7768 -2.0748
   72MOL0     H 9683  12.899   2.626   9.708 -1.4770  2.7135 -2.7894
   72MOL0     H 9684  13.194   2.798   9.805  0.0893  0.6500  0.3360
   72MOL0     H 9685  13.105   2.662   9.736 -2.3112  0.6966  0.2714
   72MOL0     H 9686  13.320   2.712   9.603 -1.0460 -0.4406  1.6337
   72MOL0     H 9687  13.166   2.738   9.514  0.4979  0.4678 -1.5009
   72MOL0     H 9688  13.345   2.927   9.494  0.3548  1.0030 -0.2372
   72MOL0     H 9689  13.190   2.982   9.554  0.1632 -0.6532 -0.9650
   72MOL0     H 9690  13.427   2.881   9.732 -1.5195 -1.3492 -0.6356
   72MOL0     H 9691  13.287   2.985   9.783  2.1390 -0.0821  2.2317
   72MOL0     H 9692  13.365   3.180   9.645  0.3630  2.0152  1.2564
   72MOL0     H 9693  13.504   3.077   9.600 -1.8342  0.1728 -1.2614
   72MOL0     H 9694  13.438   3.148   9.886  0.9572  1.3658  0.3525
   72MOL0     H 9695  13.584   3.072   9.833 -0.3400  0.4986  3.2457
   72MOL0     H 9696  13.636   3.289   9.694 -1.3600 -2.1534 -0.8195
   72MOL0     H 9697  13.656   3.288   9.858 -0.1544 -3.2361  0.4563
   72MOL0     H 9698  13.406   3.413   9.724  0.3768  1.9624  0.0772
   72MOL0     H 9699  13.412   3.371   9.898  0.0630 -1.5564 -0.6662
   72MOL0     H 9700  12.871   3.034   9.795  0.3899  0.4049  0.5514
   72MOL0     H 9701  12.671   3.013   9.904  1.0407  2.0556 -0.6705
   72MOL0     H 9702  12.195   3.034   9.965  0.6409  0.0445 -0.0155
   72MOL0     H 9703  11.964   2.948   9.981 -1.2422 -1.7178 -1.6544
   72MOL0     H 9704  10.256   1.916  10.566 -3.0817 -2.0673 -1.1870
   72MOL0     H 9705  10.015   1.879  10.543  1.4544 -0.5475 -0.2248
   72MOL0     H 9706   9.535   1.895  10.625 -5.3820  2.1242  0.4077
   72MOL0     H 9707   9.327   1.833  10.580 -0.6290 -2.4534 -1.9887
   72MOL0     H 9708   9.173   1.714  10.533  0.3035  0.2466  0.4552
   72MOL0     H 9709   9.044   1.709  10.404  0.4150 -1.1044 -1.2210
   72MOL0     H 9710   9.150   1.964  10.527  1.5162 -0.3365 -1.5100
   72MOL0     H 9711   8.997   1.906  10.559  0.1762  3.0943  0.7162
   72MOL0     H 9712   8.939   1.894  10.308  1.5787 -2.5361  0.1428
   72MOL0     H 9713   9.087   1.986  10.284  0.6955  0.1173  1.1881
   72MOL0     H 9714   8.993   2.153  10.476  1.4827 -0.3258 -0.4488
   72MOL0     H 9715   8.936   2.159  10.312 -1.5410 -1.5245 -0.4760
   72MOL0     H 9716   8.589   2.034  10.522  0.3483  0.2306 -1.3467
   72MOL0     H 9717   9.428   1.800  10.164  2.6456 -2.1368 -0.2829
   72MOL0     H 9718   9.611   1.889  10.080  0.8447 -1.7370 -0.4245
   72MOL0     H 9719   9.711   1.999  10.173  0.7170 -1.0027  0.4205
   72MOL0     H 9720   9.744   1.822  10.163 -1.4053 -2.5539  1.2012
   73MOL0     O 9721   6.446   9.279   3.517 -0.2391  0.2839  0.6572
   73MOL0     C 9722   6.505   9.237   3.413 -0.1659 -0.1493 -1.3471
   73MOL0     O 9723   6.450   9.147   3.325 -0.8266  0.1263  0.3824
   73MOL0     C 9724   6.329   9.087   3.345  0.6374 -1.2763 -0.4353
   73MOL0     C 9725   6.272   9.025   3.240 -0.2810  0.4339  0.5732
   73MOL0     C 9726   6.157   8.953   3.243  0.7289 -0.9016 -0.1418
   73MOL0     C 9727   6.087   8.952   3.366 -0.9364  0.3894 -1.1468
   73MOL0     O 9728   5.976   8.879   3.367  0.5671  0.1807 -0.5428
   73MOL0     C 9729   5.848   8.927   3.422  0.1358  0.0770  0.7292
   73MOL0     C 9730   5.816   8.866   3.556 -0.1382 -0.5831 -0.1065
   73MOL0     C 9731   5.674   8.903   3.595 -0.5108  0.6142 -0.3039
   73MOL0     C 9732   5.579   8.995   3.514  0.2066  0.4048  0.1245
   73MOL0     C 9733   5.440   9.013   3.572  0.1947  0.3146  0.2478
   73MOL0     C 9734   5.334   8.908   3.529  0.7025 -0.5465  0.8897
   73MOL0     C 9735   5.204   8.942   3.602 -0.9643 -0.8196 -0.2899
   73MOL0     C 9736   5.080   8.851   3.569 -0.7261 -1.3369  0.7704
   73MOL0     N 9737   5.034   8.869   3.427  0.5473  0.5655  0.7265
   73MOL0     C 9738   4.985   8.990   3.370  0.0898  0.1793  0.9652
   73MOL0     C 9739   4.946   8.962   3.248 -0.8709  0.5691 -0.7890
   73MOL0     C 9740   4.862   9.060   3.170  0.0959 -0.4105 -1.4678
   73MOL0     C 9741   4.758   8.992   3.086 -0.1548 -0.2985  0.5096
   73MOL0     C 9742   4.653   8.913   3.173 -0.6554  0.1245  0.6351
   73MOL0     C 9743   4.598   8.779   3.118 -0.2984  0.0064  0.9927
   73MOL0     O 9744   4.490   8.724   3.195  0.1611  0.6423  0.3793
   73MOL0     C 9745   4.360   8.760   3.175  0.2909 -0.1562 -0.5789
   73MOL0     C 9746   4.279   8.777   3.288  0.9170 -0.0817  0.3530
   73MOL0     C 9747   4.147   8.826   3.269  0.4959  0.1793 -0.1477
   73MOL0     C 9748   4.093   8.861   3.142 -0.1229  0.7034 -0.4442
   73MOL0     C 9749   3.946   8.904   3.134 -0.2561 -0.2444  0.1501
   73MOL0     O 9750   3.918   8.954   3.015  0.2992 -0.1938 -0.1294
   73MOL0     C 9751   3.805   9.027   3.007 -0.4988 -0.9828  0.7308
   73MOL0     C 9752   3.723   9.011   2.898 -1.0067  0.1707 -0.0674
   73MOL0     C 9753   3.608   9.087   2.862 -1.3121  0.2875  0.4648
   73MOL0     C 9754   3.567   9.182   2.955  0.3687  0.0663 -0.0442
   73MOL0     O 9755   3.445   9.257   2.946 -0.6670  0.9785 -0.9892
   73MOL0     C 9756   3.332   9.178   2.898  1.2415 -0.1022  0.5952
   73MOL0     C 9757   3.204   9.249   2.870  0.1008  0.4102  0.2028
   73MOL0     C 9758   3.153   9.316   2.991  0.6820 -0.2534 -0.3990
   73MOL0     C 9759   3.021   9.406   2.977 -0.3336  0.4534  0.9639
   73MOL0     C 9760   2.889   9.344   2.940 -0.2108  0.5554  0.0894
   73MOL0     C 9761   2.784   9.451   2.920  0.4231 -0.0818 -0.9305
   73MOL0     C 9762   2.655   9.390   2.864  1.1295 -0.2419 -0.8627
   73MOL0     C 9763   2.557   9.505   2.809 -0.2392  0.9720 -0.4101
   73MOL0    Cl 9764   2.495   9.583   2.961 -0.3416  0.1263 -0.1200
   73MOL0     C 9765   3.639   9.189   3.075 -1.3243 -0.9112  0.8929
   73MOL0     C 9766   3.758   9.118   3.097 -0.0106 -0.5834  0.5408
   73MOL0     O 9767   3.862   8.886   3.229 -0.0346 -0.1986  0.4001
   73MOL0     C 9768   4.173   8.845   3.036 -0.3068  0.4644  0.3124
   73MOL0     C 9769   4.303   8.785   3.048  0.9065 -0.4006 -0.5223
   73MOL0     N 9770   4.986   8.828   3.226 -0.0055 -0.1197  0.5278
   73MOL0     N 9771   5.035   8.775   3.325 -0.1970 -0.5686  0.3932
   73MOL0     C 9772   6.144   9.005   3.488  0.1146  0.0367 -0.0447
   73MOL0     C 9773   6.260   9.076   3.470 -1.2142 -0.3463  0.2926
   73MOL0     C 9774   6.639   9.291   3.391 -0.8935  0.3435 -0.7334
   73MOL0     C 9775   6.661   9.426   3.387  0.0501 -0.6551  0.3641
   73MOL0     C 9776   6.793   9.473   3.347  1.2522  0.1906 -0.3757
   73MOL0     C 9777   6.889   9.382   3.310  0.2324 -0.6567 -0.6713
   73MOL0     O 9778   7.007   9.408   3.250 -0.8171 -0.1373 -0.1921
   73MOL0     C 9779   7.102   9.501   3.308  0.4685  1.2199 -0.8576
   73MOL0     C 9780   7.191   9.554   3.194  0.7410 -0.9755  0.1433
   73MOL0     C 9781   7.287   9.449   3.142 -0.0734  0.1234  0.5193
   73MOL0     C 9782   7.353   9.499   3.004 -0.9046 -0.0198  0.5947
   73MOL0     C 9783   7.396   9.377   2.930  1.1991  0.0585 -0.3400
   73MOL0     C 9784   7.410   9.271   2.878  0.2524  0.5495 -0.7734
   73MOL0     C 9785   6.872   9.251   3.322 -0.0833  0.2379 -0.0123
   73MOL0     C 9786   6.743   9.203   3.356 -0.4267 -0.1771  0.5744
   73MOL0     C 9787   6.738   9.057   3.329  0.1494  0.5895 -0.3417
   73MOL0     H 9788   6.323   9.025   3.144  1.4640 -1.3614  1.4490
   73MOL0     H 9789   6.109   8.918   3.152 -0.8083  2.6961 -0.8888
   73MOL0     H 9790   5.851   9.037   3.423 -3.6972  0.4969 -2.6318
   73MOL0     H 9791   5.774   8.896   3.347  0.2968 -1.4721  1.1867
   73MOL0     H 9792   5.883   8.901   3.635  0.2730  1.4880 -1.3206
   73MOL0     H 9793   5.821   8.757   3.553 -1.8764 -0.8113  2.1718
   73MOL0     H 9794   5.677   8.943   3.697  1.0235 -0.0522 -0.0629
   73MOL0     H 9795   5.620   8.808   3.601 -1.9110  1.3637 -0.6483
   73MOL0     H 9796   5.620   9.096   3.505 -0.6226  0.8040  0.6724
   73MOL0     H 9797   5.571   8.952   3.413 -1.2858 -0.7691  0.6957
   73MOL0     H 9798   5.442   9.023   3.681  2.2834  2.9616  0.0827
   73MOL0     H 9799   5.406   9.114   3.547  0.1583  0.6592  1.5821
   73MOL0     H 9800   5.316   8.921   3.422 -0.2928  0.4275  1.1562
   73MOL0     H 9801   5.368   8.808   3.555 -1.4137 -1.9891 -1.4354
   73MOL0     H 9802   5.180   9.048   3.588  1.3962 -0.1965 -0.0211
   73MOL0     H 9803   5.218   8.933   3.710 -1.3010 -1.9636 -0.3331
   73MOL0     H 9804   5.116   8.751   3.596  2.9438 -0.4779 -0.3675
   73MOL0     H 9805   4.995   8.869   3.635 -0.2920 -2.8031  1.7892
   73MOL0     H 9806   4.964   9.087   3.414 -1.4013  0.3338 -0.0224
   73MOL0     H 9807   4.812   9.121   3.245  0.9513 -0.6127 -0.7177
   73MOL0     H 9808   4.924   9.131   3.115  2.2753  0.6857  2.1029
   73MOL0     H 9809   4.717   9.078   3.033  0.0933 -0.9715 -0.7963
   73MOL0     H 9810   4.799   8.914   3.022 -0.1487 -1.4558  1.8663
   73MOL0     H 9811   4.583   8.986   3.214  2.0730  5.1752 -2.5960
   73MOL0     H 9812   4.708   8.877   3.260 -0.1810 -1.9629 -0.4544
   73MOL0     H 9813   4.668   8.696   3.104 -0.6532  0.1889 -3.0328
   73MOL0     H 9814   4.574   8.793   3.012  0.1881  2.4516  1.1488
   73MOL0     H 9815   4.307   8.740   3.386 -3.1848 -0.7875  1.4507
   73MOL0     H 9816   4.076   8.839   3.350 -1.2029 -1.0907 -1.3720
   73MOL0     H 9817   3.765   8.952   2.818 -1.8617  1.6930 -1.7109
   73MOL0     H 9818   3.551   9.066   2.773 -0.2466 -4.2440  0.5897
   73MOL0     H 9819   3.347   9.134   2.799  0.2745 -1.3046  0.9607
   73MOL0     H 9820   3.317   9.098   2.972  0.8642 -1.8179 -1.2623
   73MOL0     H 9821   3.215   9.315   2.784 -0.3606  1.0007  0.5920
   73MOL0     H 9822   3.125   9.177   2.846 -1.4116  0.9682  3.0782
   73MOL0     H 9823   3.121   9.240   3.064 -0.8614  1.1875  0.4918
   73MOL0     H 9824   3.234   9.372   3.038 -1.7752  1.5720  1.9904
   73MOL0     H 9825   3.049   9.477   2.898 -2.0123  0.5385  0.4001
   73MOL0     H 9826   3.004   9.454   3.073 -0.1769  0.3792  1.0294
   73MOL0     H 9827   2.848   9.270   3.010  0.6851 -1.1526 -1.1134
   73MOL0     H 9828   2.907   9.306   2.839 -0.6671  2.6239 -0.8220
   73MOL0     H 9829   2.769   9.482   3.024 -3.4121 -1.1452 -1.0098
   73MOL0     H 9830   2.813   9.535   2.857  0.2013 -1.0156 -2.3177
   73MOL0     H 9831   2.605   9.333   2.943  1.3673  3.4978  2.3266
   73MOL0     H 9832   2.676   9.322   2.782 -1.8583 -2.0992 -0.2376
   73MOL0     H 9833   2.604   9.573   2.738  0.4480 -2.0123 -3.0428
   73MOL0     H 9834   2.479   9.455   2.751  0.0618 -0.0969  0.0833
   73MOL0     H 9835   3.603   9.262   3.147 -0.9678 -0.2335  0.4015
   73MOL0     H 9836   3.825   9.151   3.176  0.0449  4.3794 -1.2580
   73MOL0     H 9837   4.125   8.864   2.940  0.3530  2.1617  0.2829
   73MOL0     H 9838   4.361   8.754   2.961 -1.1701 -2.2089 -1.3685
   73MOL0     H 9839   6.105   8.987   3.588  0.7785  2.9036  0.8209
   73MOL0     H 9840   6.311   9.110   3.559  3.5076  1.8157 -2.8100
   73MOL0     H 9841   6.581   9.499   3.399  1.5663  1.1645  0.0052
   73MOL0     H 9842   6.804   9.581   3.343 -1.7228  0.5719 -2.0452
   73MOL0     H 9843   7.150   9.446   3.389 -0.5168  0.5139 -0.7314
   73MOL0     H 9844   7.046   9.588   3.343 -2.0694 -0.7874  0.4130
   73MOL0     H 9845   7.254   9.634   3.232  2.1608 -2.8731  2.0139
   73MOL0     H 9846   7.135   9.592   3.108  3.0049 -1.8281 -1.7941
   73MOL0     H 9847   7.224   9.365   3.112 -0.3601  0.3836  0.3955
   73MOL0     H 9848   7.368   9.410   3.205  2.4976  1.1436 -1.8920
   73MOL0     H 9849   7.279   9.556   2.947  1.0863  1.6304 -0.4568
   73MOL0     H 9850   7.440   9.562   3.025  0.6511 -1.3626 -1.4918
   73MOL0     H 9851   7.409   9.168   2.847 -0.2499 -0.5923  2.6903
   73MOL0     H 9852   6.960   9.193   3.296 -1.2821 -1.2733 -0.9081
   73MOL0     H 9853   6.827   9.021   3.277  0.8147  1.5223  0.1164
   73MOL0     H 9854   6.726   8.995   3.418  1.2300 -2.5043 -2.2081
   73MOL0     H 9855   6.649   9.036   3.269  0.7196 -2.6218 -0.2158
   74MOL0     O 9856   7.742  11.424   2.682  0.7452  0.7052  0.1089
   74MOL0     C 9857   7.648  11.341   2.668  0.6405 -0.4978  0.2587
   74MOL0     O 9858   7.669  11.203   2.655 -0.1846 -0.2535 -0.5430
   74MOL0     C 9859   7.784  11.150   2.713 -0.0397  0.0581 -0.5453
   74MOL0     C 9860   7.884  11.099   2.627  0.0336 -0.1105  0.6517
   74MOL0     C 9861   8.002  11.057   2.685 -0.2369  1.1891 -0.6134
   74MOL0     C 9862   8.010  11.048   2.822 -0.4681  0.0822 -0.0045
   74MOL0     O 9863   8.130  11.037   2.880  0.2447  0.7680 -0.6031
   74MOL0     C 9864   8.155  10.907   2.933  0.3278  0.5402 -0.4630
   74MOL0     C 9865   8.296  10.910   2.990  1.0372  0.4626  0.4208
   74MOL0     C 9866   8.414  10.920   2.880  1.2177  0.5947  0.1246
   74MOL0     C 9867   8.431  10.779   2.809 -0.0181  1.1279  0.3402
   74MOL0     C 9868   8.564  10.777   2.733 -0.2584 -0.3851  0.0618
   74MOL0     C 9869   8.573  10.640   2.659  0.1136 -0.1997 -1.1961
   74MOL0     C 9870   8.686  10.640   2.556  0.7533 -0.5213  1.1352
   74MOL0     C 9871   8.694  10.497   2.493 -0.3218  0.0283  0.1389
   74MOL0     N 9872   8.726  10.393   2.588  0.0465  0.4418  0.0971
   74MOL0     C 9873   8.834  10.388   2.672  1.3015 -0.1627  0.1252
   74MOL0     C 9874   8.810  10.313   2.783 -0.4638 -0.4295 -0.1136
   74MOL0     C 9875   8.905  10.283   2.894  0.3651  0.0483 -0.6159
   74MOL0     C 9876   8.977  10.147   2.876  0.8456  1.1931  0.3066
   74MOL0     C 9877   9.015  10.087   3.003 -0.6295 -0.4942  0.2748
   74MOL0     C 9878   9.139  10.157   3.057 -0.2181 -0.3513 -0.7034
   74MOL0     O 9879   9.190  10.101   3.182 -0.2442  0.1129  0.7608
   74MOL0     C 9880   9.280  10.166   3.262 -0.0232 -0.1928  1.2432
   74MOL0     C 9881   9.275  10.140   3.400 -0.2067  0.0900 -0.4846
   74MOL0     C 9882   9.378  10.174   3.483 -1.0646  0.0026  0.0108
   74MOL0     C 9883   9.482  10.255   3.432  0.1950 -0.0645  0.8708
   74MOL0     C 9884   9.586  10.305   3.520 -0.8620 -0.0460 -0.2313
   74MOL0     O 9885   9.663  10.400   3.458  0.4497 -0.5659  0.2295
   74MOL0     C 9886   9.788  10.436   3.512  0.3087 -0.2317 -0.1113
   74MOL0     C 9887   9.862  10.388   3.627  0.9155 -0.0663  0.1299
   74MOL0     C 9888   9.987  10.432   3.664  0.8511  0.5063  0.2454
   74MOL0     C 9889  10.045  10.540   3.597 -0.5325  0.7120 -0.0608
   74MOL0     O 9890  10.174  10.578   3.636  0.0695  0.3205 -0.0178
   74MOL0     C 9891  10.241  10.663   3.555 -0.7200 -0.5560 -0.3903
   74MOL0     C 9892  10.386  10.669   3.610 -0.3274 -0.0342 -0.6207
   74MOL0     C 9893  10.412  10.726   3.756  0.7230 -0.2047  0.7995
   74MOL0     C 9894  10.547  10.677   3.824  0.3058 -1.0781 -0.4048
   74MOL0     C 9895  10.604  10.764   3.935 -0.4276  0.4052 -0.5726
   74MOL0     C 9896  10.726  10.702   4.007 -0.1560 -0.1756 -0.1698
   74MOL0     C 9897  10.770  10.778   4.135  1.6944 -0.0165  0.1801
   74MOL0     C 9898  10.870  10.692   4.221 -0.0523  0.3499 -0.9328
   74MOL0    Cl 9899  10.820  10.529   4.253 -0.2221  0.1371 -0.0614
   74MOL0     C 9900   9.965  10.602   3.493  0.6884 -0.3526 -0.8067
   74MOL0     C 9901   9.846  10.544   3.444 -0.2670 -0.0041 -0.9677
   74MOL0     O 9902   9.595  10.260   3.637  0.0730 -0.0810 -0.7074
   74MOL0     C 9903   9.488  10.290   3.293 -0.4384 -0.6164 -0.5082
   74MOL0     C 9904   9.389  10.239   3.203 -0.3148  0.4912  0.3665
   74MOL0     N 9905   8.682  10.259   2.765  0.0226  0.4486 -0.1504
   74MOL0     N 9906   8.636  10.311   2.653 -0.7232 -0.5115  0.1599
   74MOL0     C 9907   7.903  11.073   2.907  0.1371 -0.4659 -0.1615
   74MOL0     C 9908   7.790  11.137   2.854  2.2134  0.5863  0.8047
   74MOL0     C 9909   7.515  11.396   2.666  0.7969 -0.0674 -1.0673
   74MOL0     C 9910   7.429  11.323   2.579  1.0074  0.2571 -0.0951
   74MOL0     C 9911   7.296  11.371   2.555 -0.4041  0.3100 -0.1625
   74MOL0     C 9912   7.259  11.491   2.614  0.3456  0.6945  0.5613
   74MOL0     O 9913   7.124  11.533   2.602  0.0612  0.1487  0.0427
   74MOL0     C 9914   7.066  11.655   2.643  0.1781 -0.1171 -0.2958
   74MOL0     C 9915   6.949  11.722   2.558 -0.2551 -0.6023 -0.5110
   74MOL0     C 9916   6.867  11.610   2.492 -0.2728 -0.9995 -0.4882
   74MOL0     C 9917   6.747  11.565   2.580 -0.1985 -0.0339  0.1291
   74MOL0     C 9918   6.703  11.430   2.549 -0.5541 -0.1037 -0.2313
   74MOL0     C 9919   6.660  11.310   2.540  0.5837 -0.1433  0.4248
   74MOL0     C 9920   7.346  11.559   2.699 -0.6142  0.1049 -0.1207
   74MOL0     C 9921   7.475  11.519   2.724 -0.1295 -0.5355 -1.2210
   74MOL0     C 9922   7.565  11.594   2.833 -0.2444  0.4435  0.6537
   74MOL0     H 9923   7.879  11.104   2.519  0.3887 -1.5085  0.5480
   74MOL0     H 9924   8.089  11.042   2.622  0.2839  2.6669 -0.2932
   74MOL0     H 9925   8.089  10.874   3.014  0.9205  0.4220 -0.0239
   74MOL0     H 9926   8.148  10.837   2.848  0.8785  1.9214 -1.6787
   74MOL0     H 9927   8.326  10.828   3.056  0.5650  0.7586  1.0079
   74MOL0     H 9928   8.291  11.001   3.049  1.2775  1.3528 -0.8903
   74MOL0     H 9929   8.507  10.931   2.937  1.4939  0.7616 -0.3426
   74MOL0     H 9930   8.402  11.002   2.808  0.9451 -1.0399 -1.7826
   74MOL0     H 9931   8.431  10.697   2.881 -2.3855 -0.5103 -1.3798
   74MOL0     H 9932   8.344  10.758   2.747 -0.3155 -0.1893  1.1685
   74MOL0     H 9933   8.559  10.857   2.658 -3.4983 -2.0004 -1.6424
   74MOL0     H 9934   8.655  10.787   2.794  0.0589 -3.8931  0.3865
   74MOL0     H 9935   8.566  10.553   2.725 -0.8707 -0.6432 -1.8613
   74MOL0     H 9936   8.476  10.632   2.609 -0.8447 -1.0044  0.6805
   74MOL0     H 9937   8.772  10.678   2.612  0.1663 -0.5752  2.0880
   74MOL0     H 9938   8.667  10.711   2.475  0.0093 -1.2975  0.6100
   74MOL0     H 9939   8.605  10.465   2.437  2.0279 -6.0088 -0.9303
   74MOL0     H 9940   8.769  10.481   2.415 -2.2418  0.4538 -1.9262
   74MOL0     H 9941   8.929  10.438   2.652 -0.6019  3.3699 -1.0692
   74MOL0     H 9942   8.979  10.363   2.903  0.5883 -0.2241  0.0744
   74MOL0     H 9943   8.852  10.278   2.990  1.4461 -2.9558 -0.0645
   74MOL0     H 9944   8.906  10.074   2.836 -0.4127  2.0027  0.9966
   74MOL0     H 9945   9.061  10.150   2.806  1.3237  1.1987  0.8709
   74MOL0     H 9946   9.025   9.978   3.000 -2.5487 -0.7505  1.4642
   74MOL0     H 9947   8.935  10.098   3.077  1.0722 -2.3103  2.5548
   74MOL0     H 9948   9.128  10.265   3.073 -0.4955 -0.3104 -1.1709
   74MOL0     H 9949   9.221  10.152   2.985 -0.2147 -2.0545 -0.6216
   74MOL0     H 9950   9.210  10.061   3.436  2.1581 -0.5099  3.0002
   74MOL0     H 9951   9.385  10.134   3.584 -0.6675 -1.9005 -0.7274
   74MOL0     H 9952   9.820  10.300   3.675  0.3993 -2.3191 -3.9764
   74MOL0     H 9953  10.038  10.379   3.745 -0.3080  1.7804  1.8803
   74MOL0     H 9954  10.246  10.642   3.448  2.4696  3.0986 -1.2146
   74MOL0     H 9955  10.192  10.760   3.573  1.6755  0.8799 -1.0891
   74MOL0     H 9956  10.431  10.570   3.594  1.1482  0.7761 -1.7881
   74MOL0     H 9957  10.444  10.737   3.547  1.4440  0.1831  1.1568
   74MOL0     H 9958  10.406  10.834   3.745 -0.4392 -0.4900 -2.9906
   74MOL0     H 9959  10.328  10.686   3.814  0.5437 -1.8608 -0.5116
   74MOL0     H 9960  10.623  10.685   3.746  1.0711  1.6063  0.5175
   74MOL0     H 9961  10.542  10.576   3.867  1.3947 -0.3676  1.5244
   74MOL0     H 9962  10.539  10.782   4.021  2.6778  3.3952  1.3709
   74MOL0     H 9963  10.630  10.861   3.893 -0.4466  0.4052 -0.5825
   74MOL0     H 9964  10.689  10.601   4.028  1.2432 -0.5700  0.4689
   74MOL0     H 9965  10.814  10.685   3.944 -0.2483 -2.9855  0.3089
   74MOL0     H 9966  10.680  10.799   4.195  3.2624  0.6362  2.4424
   74MOL0     H 9967  10.818  10.875   4.122 -0.9918  1.2560 -1.0406
   74MOL0     H 9968  10.971  10.697   4.179  0.1798 -1.1455 -0.5943
   74MOL0     H 9969  10.885  10.749   4.314  2.3676  0.2568 -1.1838
   74MOL0     H 9970   9.989  10.697   3.446 -1.5047  1.2029  0.9988
   74MOL0     H 9971   9.795  10.586   3.358  0.8359 -1.1976 -2.2624
   74MOL0     H 9972   9.567  10.346   3.244 -1.2503  0.8819 -0.1730
   74MOL0     H 9973   9.393  10.266   3.097 -1.0309 -1.7715 -0.2961
   74MOL0     H 9974   7.894  11.075   3.015 -0.8771 -0.3895 -0.2391
   74MOL0     H 9975   7.704  11.172   2.911  2.0092 -1.3003  1.7403
   74MOL0     H 9976   7.462  11.225   2.545  0.7723  0.4427 -0.8882
   74MOL0     H 9977   7.224  11.312   2.499 -1.6714  2.6191 -1.0705
   74MOL0     H 9978   7.149  11.726   2.635 -1.3597  1.6658 -1.2455
   74MOL0     H 9979   7.033  11.642   2.746 -0.2560 -1.5800 -0.6025
   74MOL0     H 9980   6.999  11.785   2.483 -1.7371 -0.1423 -1.1410
   74MOL0     H 9981   6.889  11.781   2.627 -1.5764  2.6047 -4.0320
   74MOL0     H 9982   6.930  11.528   2.457  1.2008  0.6593 -1.9379
   74MOL0     H 9983   6.840  11.658   2.397  0.5598  0.0429 -0.2296
   74MOL0     H 9984   6.772  11.576   2.686  2.3986  0.6138 -0.4761
   74MOL0     H 9985   6.660  11.624   2.550 -0.8568 -1.3915 -0.7640
   74MOL0     H 9986   6.642  11.205   2.551 -1.2792  0.1817  0.9114
   74MOL0     H 9987   7.330  11.653   2.752  3.5529  0.0295  1.6747
   74MOL0     H 9988   7.624  11.662   2.770 -4.5374  1.1768 -3.0802
   74MOL0     H 9989   7.507  11.649   2.907  0.4149  0.6197  1.0514
   74MOL0     H 9990   7.631  11.517   2.875  2.1131  0.0910 -3.1567
   75MOL0     O 9991   2.947   9.807   6.557  0.1440  0.4987 -0.3494
   75MOL0     C 9992   2.968   9.781   6.437 -0.0975 -0.3220  0.3683
   75MOL0     O 9993   3.082   9.719   6.386 -0.5481  0.1135  0.1330
   75MOL0     C 9994   3.178   9.673   6.470 -0.7322  1.0321  0.2279
   75MOL0     C 9995   3.148   9.589   6.573 -0.0702  0.1712 -0.3764
   75MOL0     C 9996   3.248   9.544   6.657  0.3082 -0.1702  0.4890
   75MOL0     C 9997   3.377   9.565   6.627 -0.0801  0.3000 -0.3455
   75MOL0     O 9998   3.475   9.520   6.705  0.0711  0.7762  0.6408
   75MOL0     C 9999   3.455   9.493   6.849  0.4693  0.7781 -0.2438
   75MOL0     C10000   3.410   9.347   6.880  0.2033 -0.3845  0.2156
   75MOL0     C10001   3.328   9.321   7.009  0.3482 -1.0064  0.7818
   75MOL0     C10002   3.266   9.180   7.031 -0.2974 -0.5367 -0.4537
   75MOL0     C10003   3.369   9.078   7.100  0.4732  0.4355  1.1600
   75MOL0     C10004   3.295   8.949   7.127  0.4101  0.2126 -0.3478
   75MOL0     C10005   3.223   8.940   7.260  0.0862  0.3682 -0.4131
   75MOL0     C10006   3.158   8.795   7.256 -0.4466  0.8268 -0.9156
   75MOL0     N10007   3.267   8.690   7.260  0.3313 -0.7069  0.7971
   75MOL0     C10008   3.388   8.705   7.340  0.9061  0.7180  0.3256
   75MOL0     C10009   3.459   8.595   7.310  0.6274 -0.2750 -0.8386
   75MOL0     C10010   3.580   8.543   7.378  1.0474  0.4481 -0.2861
   75MOL0     C10011   3.703   8.602   7.305 -0.0901  0.0210  0.6750
   75MOL0     C10012   3.726   8.518   7.174 -0.2755  0.3813 -0.0641
   75MOL0     C10013   3.856   8.559   7.105  0.5007 -0.8492 -0.0636
   75MOL0     O10014   3.965   8.509   7.175 -0.8634 -0.2351 -0.9163
   75MOL0     C10015   4.081   8.484   7.119  0.5112  0.4314 -0.1215
   75MOL0     C10016   4.111   8.489   6.977  0.0949  0.4701  0.8420
   75MOL0     C10017   4.240   8.451   6.944  0.0657  0.2010  0.2162
   75MOL0     C10018   4.346   8.426   7.035  0.3384 -0.0754  0.2351
   75MOL0     C10019   4.488   8.397   6.993 -0.6728 -0.6667 -0.5102
   75MOL0     O10020   4.545   8.473   6.892 -0.5412 -0.3260  0.6398
   75MOL0     C10021   4.671   8.441   6.851 -1.3344 -0.0121  0.3784
   75MOL0     C10022   4.739   8.559   6.824 -0.6535  0.3717  0.1400
   75MOL0     C10023   4.869   8.551   6.760  0.1824  0.4029 -0.4532
   75MOL0     C10024   4.929   8.424   6.736  0.0299 -0.6478  0.0109
   75MOL0     O10025   5.047   8.417   6.671  0.7260  0.0867 -0.7962
   75MOL0     C10026   5.134   8.524   6.704  0.2173  0.3583  0.0740
   75MOL0     C10027   5.286   8.511   6.663  0.6499 -0.3574 -0.1320
   75MOL0     C10028   5.363   8.445   6.772  0.0302 -0.1368 -0.9644
   75MOL0     C10029   5.323   8.300   6.787 -0.7250  0.0043  0.0715
   75MOL0     C10030   5.424   8.229   6.890  0.4786  0.1255  0.5589
   75MOL0     C10031   5.369   8.236   7.029 -1.1001  0.1952 -0.4958
   75MOL0     C10032   5.246   8.152   7.066  0.9094  0.2084  0.1776
   75MOL0     C10033   5.282   8.007   7.072  0.5268  0.1300 -0.6048
   75MOL0    Cl10034   5.425   7.966   7.183  0.0299  0.0170 -0.0398
   75MOL0     C10035   4.866   8.312   6.782 -0.1506  0.6599  0.1618
   75MOL0     C10036   4.734   8.312   6.839  0.1597 -0.5340 -0.0176
   75MOL0     O10037   4.550   8.311   7.057 -0.1294  0.0030 -0.6283
   75MOL0     C10038   4.310   8.426   7.167 -0.3028  0.5669 -0.3966
   75MOL0     C10039   4.185   8.456   7.210 -0.5236 -0.1864 -0.6894
   75MOL0     N10040   3.393   8.527   7.215  0.0341 -0.5382 -0.3287
   75MOL0     N10041   3.284   8.589   7.174 -0.1340  0.2500  0.3058
   75MOL0     C10042   3.411   9.652   6.517  0.4146  1.5355 -0.7727
   75MOL0     C10043   3.308   9.700   6.437  0.7611 -0.4622  0.5360
   75MOL0     C10044   2.864   9.813   6.343 -0.5140 -0.1251 -0.3236
   75MOL0     C10045   2.885   9.746   6.212  0.1220 -0.6873  0.0349
   75MOL0     C10046   2.780   9.769   6.117 -0.1111 -0.3163  0.4337
   75MOL0     C10047   2.684   9.859   6.140  0.6388  0.1942  0.1383
   75MOL0     O10048   2.593   9.894   6.045  0.5860  0.1272 -0.4528
   75MOL0     C10049   2.566   9.811   5.935 -0.1750 -0.2126 -0.1737
   75MOL0     C10050   2.479   9.894   5.839 -0.2921 -1.2390 -0.3088
   75MOL0     C10051   2.321   9.896   5.882 -0.7571 -0.2193 -0.0266
   75MOL0     C10052   2.303   9.900   6.036 -0.1114  0.0730 -0.3097
   75MOL0     C10053   2.164   9.884   6.083  0.2090 -0.1157 -0.5505
   75MOL0     C10054   2.053   9.885   6.138  0.2767  0.2099 -0.8295
   75MOL0     C10055   2.660   9.927   6.265  0.0952  0.4408  0.0153
   75MOL0     C10056   2.749   9.897   6.369  0.1358 -0.0849 -0.0950
   75MOL0     C10057   2.722   9.969   6.502  0.3760  0.3509 -0.1506
   75MOL0     H10058   3.045   9.564   6.598  0.3549 -1.2534  0.0720
   75MOL0     H10059   3.217   9.474   6.733 -1.2699 -1.1088 -0.9347
   75MOL0     H10060   3.546   9.511   6.906  0.2420 -1.1311  0.7853
   75MOL0     H10061   3.391   9.565   6.900  0.5246  0.7878 -0.1886
   75MOL0     H10062   3.502   9.288   6.882 -0.4688 -1.4469  0.8238
   75MOL0     H10063   3.362   9.305   6.791  2.3828  0.1345 -1.2791
   75MOL0     H10064   3.239   9.383   6.993  0.9577 -0.8327 -2.9978
   75MOL0     H10065   3.390   9.340   7.097  4.3109 -3.1078 -1.2946
   75MOL0     H10066   3.177   9.199   7.092  0.5184  2.6549 -0.0755
   75MOL0     H10067   3.239   9.138   6.934 -2.8941 -0.0843  0.0047
   75MOL0     H10068   3.456   9.059   7.036 -1.5043  0.7773 -1.8694
   75MOL0     H10069   3.402   9.120   7.195 -0.5550  5.1858 -0.2976
   75MOL0     H10070   3.229   8.929   7.042  0.3983 -0.4300 -0.1915
   75MOL0     H10071   3.362   8.864   7.112 -1.0559 -1.0712  0.1753
   75MOL0     H10072   3.142   9.012   7.273  1.1675  1.3810  0.9640
   75MOL0     H10073   3.303   8.954   7.332 -0.7580  4.3773 -0.0198
   75MOL0     H10074   3.092   8.772   7.340  1.9316  1.6589  1.3095
   75MOL0     H10075   3.100   8.778   7.165  0.0982 -2.0448 -0.8307
   75MOL0     H10076   3.413   8.772   7.421 -1.4950 -1.1026  2.7454
   75MOL0     H10077   3.584   8.573   7.483  2.0178  0.5603 -0.3482
   75MOL0     H10078   3.576   8.434   7.368 -0.8094  0.5097 -0.6004
   75MOL0     H10079   3.682   8.709   7.291  1.9859  0.3999  0.0511
   75MOL0     H10080   3.792   8.591   7.367  0.2124 -1.2624  0.0478
   75MOL0     H10081   3.645   8.534   7.102 -0.9941 -0.3359  0.5603
   75MOL0     H10082   3.727   8.413   7.206  0.0405  0.7202  1.0844
   75MOL0     H10083   3.863   8.669   7.106 -0.8357 -0.7329 -0.7913
   75MOL0     H10084   3.845   8.533   6.999  0.3751  0.1141 -0.3002
   75MOL0     H10085   4.033   8.518   6.907 -1.3127  0.6645  2.4254
   75MOL0     H10086   4.261   8.455   6.837  0.5927 -0.7819  0.2776
   75MOL0     H10087   4.698   8.656   6.848  1.9855  2.3380 -2.5489
   75MOL0     H10088   4.908   8.652   6.748  0.1464  0.7579  1.9687
   75MOL0     H10089   5.107   8.608   6.639  3.8803  0.1610 -1.9343
   75MOL0     H10090   5.121   8.544   6.811 -3.7144 -0.1211 -0.1700
   75MOL0     H10091   5.306   8.452   6.573  2.4840  1.7783 -1.2253
   75MOL0     H10092   5.325   8.613   6.660  0.6365 -0.3507 -0.0628
   75MOL0     H10093   5.469   8.461   6.752  0.3274 -0.8748 -0.0370
   75MOL0     H10094   5.338   8.495   6.866 -4.2636 -3.6291  0.0789
   75MOL0     H10095   5.339   8.248   6.692 -2.1291 -1.7912  0.7825
   75MOL0     H10096   5.218   8.286   6.813 -0.6566  0.8992  0.8949
   75MOL0     H10097   5.526   8.268   6.883  0.4529  0.4104  1.5852
   75MOL0     H10098   5.425   8.123   6.865 -1.2842 -0.5337  2.9564
   75MOL0     H10099   5.447   8.207   7.100  0.6138 -2.4381 -3.2563
   75MOL0     H10100   5.354   8.345   7.037  1.1649  0.4419  1.5102
   75MOL0     H10101   5.172   8.167   6.986  1.0948 -3.6686 -0.9022
   75MOL0     H10102   5.212   8.185   7.164 -0.0712 -1.5934  0.4939
   75MOL0     H10103   5.191   7.956   7.106 -0.7201  1.2415 -2.1318
   75MOL0     H10104   5.303   7.969   6.972 -1.2489 -0.4419 -0.8002
   75MOL0     H10105   4.927   8.223   6.774 -1.2145  0.0579 -3.3754
   75MOL0     H10106   4.685   8.222   6.875 -2.1726  1.3141  1.8663
   75MOL0     H10107   4.387   8.405   7.241 -0.0359  0.5669 -0.6745
   75MOL0     H10108   4.167   8.439   7.316  0.6250  1.5443 -0.1864
   75MOL0     H10109   3.517   9.676   6.510  0.9680 -0.8821 -1.4633
   75MOL0     H10110   3.313   9.764   6.349  1.1130 -0.6723  0.4022
   75MOL0     H10111   2.961   9.672   6.190  0.3062 -0.9485  1.4349
   75MOL0     H10112   2.798   9.726   6.019 -0.3946  2.6039 -0.9807
   75MOL0     H10113   2.530   9.711   5.963 -3.8234  1.4374  1.6970
   75MOL0     H10114   2.661   9.795   5.883 -1.3786  0.0604 -2.5971
   75MOL0     H10115   2.480   9.858   5.736  0.7668  0.7370 -1.0149
   75MOL0     H10116   2.520   9.993   5.818  2.9179 -2.2074  0.8267
   75MOL0     H10117   2.287   9.801   5.840  3.2253 -0.5202 -3.1993
   75MOL0     H10118   2.260   9.977   5.841 -1.2041  0.5375  2.0232
   75MOL0     H10119   2.352   9.815   6.087  1.2868  0.2924 -1.2355
   75MOL0     H10120   2.345   9.991   6.079  2.0270 -0.8374 -0.3379
   75MOL0     H10121   1.954   9.889   6.180  1.0732  2.7869  0.9737
   75MOL0     H10122   2.569   9.985   6.280 -0.3511  0.1970 -1.5825
   75MOL0     H10123   2.817   9.998   6.548  0.4963  0.8712 -0.6977
   75MOL0     H10124   2.658  10.055   6.477 -0.4411 -0.5773 -1.3320
   75MOL0     H10125   2.669   9.907   6.575 -2.9259  4.1841  1.1301
   76MOL0     O10126  10.355   0.813   4.997  0.2084  0.6511 -0.4092
   76MOL0     C10127  10.389   0.696   4.990 -0.0946 -0.6874 -0.4831
   76MOL0     O10128  10.509   0.651   4.993 -0.1856  0.5650 -0.8201
   76MOL0     C10129  10.622   0.725   5.012  0.1005  0.3842  0.1283
   76MOL0     C10130  10.640   0.849   4.946  0.4580 -0.1377  0.4081
   76MOL0     C10131  10.768   0.911   4.960  0.1647 -0.5116  0.3445
   76MOL0     C10132  10.873   0.867   5.048  1.5406  0.4679 -0.7462
   76MOL0     O10133  10.990   0.928   5.080 -0.7241 -0.1514 -0.1107
   76MOL0     C10134  11.013   1.063   5.028 -0.3067 -0.5254 -0.1441
   76MOL0     C10135  11.147   1.126   5.061  0.1827  0.6507  0.5045
   76MOL0     C10136  11.260   1.028   5.037  0.2289  0.1517 -0.1266
   76MOL0     C10137  11.397   1.079   5.015  0.3688  0.8078  0.1399
   76MOL0     C10138  11.444   1.163   5.138 -0.2623  0.1879 -1.0831
   76MOL0     C10139  11.550   1.275   5.115 -0.2583 -0.3963  0.5769
   76MOL0     C10140  11.691   1.226   5.061 -0.8842 -0.4987 -0.2193
   76MOL0     C10141  11.788   1.349   5.031  0.5363 -0.0358  0.4845
   76MOL0     N10142  11.729   1.435   4.924 -0.4789 -0.0928 -0.1038
   76MOL0     C10143  11.680   1.385   4.799 -0.2100 -0.2107 -0.4599
   76MOL0     C10144  11.621   1.497   4.741  0.2251 -0.1536 -0.6248
   76MOL0     C10145  11.573   1.496   4.597  0.1011 -0.3787 -0.3864
   76MOL0     C10146  11.425   1.483   4.612 -0.4724 -0.3481 -0.4528
   76MOL0     C10147  11.377   1.346   4.664 -0.2776  0.3970 -0.1546
   76MOL0     C10148  11.221   1.344   4.661  0.2730  0.6113 -0.1605
   76MOL0     O10149  11.171   1.211   4.638 -0.1176  0.7536 -0.4197
   76MOL0     C10150  11.033   1.194   4.642 -0.4986 -1.4390 -0.3354
   76MOL0     C10151  10.944   1.300   4.651  0.3628  0.5090  0.7702
   76MOL0     C10152  10.808   1.274   4.645 -0.6534  0.1863 -0.6220
   76MOL0     C10153  10.756   1.149   4.636  0.7312  1.0001 -0.0332
   76MOL0     C10154  10.610   1.113   4.653 -0.3918 -0.6240  0.1311
   76MOL0     O10155  10.526   1.224   4.675  0.4801  0.3437 -0.0917
   76MOL0     C10156  10.384   1.211   4.674  0.0457  0.5211  0.8407
   76MOL0     C10157  10.320   1.097   4.717 -0.6086 -0.9564  0.7837
   76MOL0     C10158  10.184   1.079   4.699  0.5521  0.0812  0.8633
   76MOL0     C10159  10.103   1.190   4.665 -0.4634 -0.1007 -0.5997
   76MOL0     O10160   9.966   1.187   4.675 -0.0317 -0.3393  0.2248
   76MOL0     C10161   9.899   1.067   4.695  0.8411 -0.0683  0.1147
   76MOL0     C10162   9.751   1.104   4.721  0.1971 -0.0019 -1.2308
   76MOL0     C10163   9.681   0.989   4.794 -0.2710 -0.0693 -0.5626
   76MOL0     C10164   9.622   0.878   4.696  0.6310 -0.2250 -0.2685
   76MOL0     C10165   9.587   0.757   4.780 -0.1915  0.7628 -0.0743
   76MOL0     C10166   9.482   0.665   4.716 -0.1695 -0.3881 -0.1280
   76MOL0     C10167   9.432   0.556   4.813  0.2423 -0.2873  0.1406
   76MOL0     C10168   9.381   0.447   4.721 -0.2855 -0.4029  0.0402
   76MOL0    Cl10169   9.498   0.346   4.641  0.3652 -0.5745 -0.2436
   76MOL0     C10170  10.170   1.311   4.634 -0.1576 -0.6156 -0.3231
   76MOL0     C10171  10.305   1.324   4.631 -0.5300 -0.4580  0.2074
   76MOL0     O10172  10.575   1.002   4.619  0.2892 -0.1437  0.7324
   76MOL0     C10173  10.846   1.038   4.632  0.8166 -0.5680  0.1488
   76MOL0     C10174  10.983   1.063   4.639  0.5467  0.8724 -0.6036
   76MOL0     N10175  11.629   1.605   4.831 -0.4717  0.5458  0.0322
   76MOL0     N10176  11.698   1.574   4.933 -0.2773  0.7571 -0.2324
   76MOL0     C10177  10.844   0.740   5.104 -0.8643  0.3646  1.3532
   76MOL0     C10178  10.724   0.673   5.083  1.7199  0.0201 -0.0673
   76MOL0     C10179  10.275   0.609   4.969  0.3258  0.9728  0.3733
   76MOL0     C10180  10.186   0.648   4.870  0.6521  0.5481  0.9742
   76MOL0     C10181  10.058   0.583   4.845  0.3584  1.1946 -0.1204
   76MOL0     C10182  10.039   0.457   4.918 -0.2336  0.0396  0.0085
   76MOL0     O10183   9.920   0.389   4.898  0.2760 -0.6694 -1.0453
   76MOL0     C10184   9.916   0.283   4.803 -0.2910 -0.1298 -0.6241
   76MOL0     C10185   9.951   0.141   4.858  0.4086  0.8625  0.0851
   76MOL0     C10186   9.826   0.074   4.925  0.0051  0.2039 -0.2599
   76MOL0     C10187   9.849  -0.080   4.952  0.0047  0.0157 -0.1971
   76MOL0     C10188   9.759  -0.123   5.061 -1.0761  0.2407  0.3812
   76MOL0     C10189   9.695  -0.158   5.157 -0.0769  0.1058 -0.2656
   76MOL0     C10190  10.138   0.407   5.006  0.6439  0.4320 -0.4471
   76MOL0     C10191  10.249   0.486   5.034 -0.4173  0.2789 -0.2243
   76MOL0     C10192  10.343   0.436   5.147 -0.2036  0.3154  0.3053
   76MOL0     H10193  10.575   0.900   4.876 -0.4137 -1.2960  0.3507
   76MOL0     H10194  10.791   1.002   4.905 -0.6383  1.5699  3.2100
   76MOL0     H10195  11.008   1.064   4.919  0.5233 -2.5132 -0.2571
   76MOL0     H10196  10.936   1.132   5.064  1.4700  1.7572 -0.5225
   76MOL0     H10197  11.146   1.159   5.166  0.0121  0.1142  0.6750
   76MOL0     H10198  11.162   1.215   5.000  1.9141  0.9732  1.3427
   76MOL0     H10199  11.230   0.967   4.951 -0.7833  3.1957 -2.1090
   76MOL0     H10200  11.268   0.968   5.128  1.6140 -0.3280 -0.5373
   76MOL0     H10201  11.465   0.996   4.997 -0.8326  0.0173 -0.9138
   76MOL0     H10202  11.388   1.125   4.916 -1.2382 -2.4941 -1.3971
   76MOL0     H10203  11.357   1.198   5.195 -1.8202 -1.5108 -2.2751
   76MOL0     H10204  11.498   1.095   5.205 -1.3235  1.2357  0.9167
   76MOL0     H10205  11.519   1.355   5.047  2.1055 -1.2591 -1.6763
   76MOL0     H10206  11.571   1.325   5.210  0.7999 -1.9000  1.1808
   76MOL0     H10207  11.678   1.177   4.964  0.7260  0.0337 -0.7244
   76MOL0     H10208  11.751   1.158   5.122 -0.4215  0.3493  0.2894
   76MOL0     H10209  11.782   1.411   5.120 -2.7308 -1.1625  1.1871
   76MOL0     H10210  11.892   1.326   5.003  0.5434 -0.1823  0.6239
   76MOL0     H10211  11.698   1.290   4.751  1.1124 -1.0641  1.5846
   76MOL0     H10212  11.612   1.590   4.556 -1.1900  0.8095  1.0081
   76MOL0     H10213  11.617   1.423   4.529  1.7106  1.5438 -1.5423
   76MOL0     H10214  11.395   1.562   4.681  0.8235 -0.1949 -0.0567
   76MOL0     H10215  11.395   1.515   4.511  0.7019  0.3903 -0.5849
   76MOL0     H10216  11.395   1.348   4.772 -1.5928  0.8683  0.0715
   76MOL0     H10217  11.431   1.264   4.616 -0.3755  2.9184 -5.1942
   76MOL0     H10218  11.184   1.424   4.597 -0.7458  1.1485  1.0573
   76MOL0     H10219  11.201   1.373   4.765  0.6888  0.9990 -0.1820
   76MOL0     H10220  10.980   1.401   4.668 -2.9783  1.9038  0.3822
   76MOL0     H10221  10.747   1.362   4.660  1.1627  2.1440 -3.7086
   76MOL0     H10222  10.365   1.007   4.758  1.7750  0.6250  1.8883
   76MOL0     H10223  10.145   0.981   4.726  1.2691 -1.5222 -3.1536
   76MOL0     H10224   9.913   0.989   4.620  2.5109 -0.9391  1.2721
   76MOL0     H10225   9.940   1.025   4.787 -3.0461  0.2195  2.1569
   76MOL0     H10226   9.744   1.187   4.792  1.5166  0.2314 -1.3360
   76MOL0     H10227   9.701   1.136   4.629  0.8031  0.7184 -1.3197
   76MOL0     H10228   9.741   0.948   4.875 -0.6292  2.0743  0.8474
   76MOL0     H10229   9.592   1.027   4.846 -0.6179  0.1727 -1.3159
   76MOL0     H10230   9.699   0.838   4.629  1.3798 -0.8742  0.9402
   76MOL0     H10231   9.536   0.920   4.644 -1.7417 -0.1765  3.3553
   76MOL0     H10232   9.536   0.795   4.869 -0.9325 -1.6317  0.6023
   76MOL0     H10233   9.681   0.709   4.809  0.3816  1.5101 -0.6461
   76MOL0     H10234   9.397   0.727   4.685 -0.5937 -0.0393  1.6081
   76MOL0     H10235   9.528   0.623   4.627  2.0270  0.3545  0.6008
   76MOL0     H10236   9.350   0.601   4.869 -2.3799 -4.4517  0.0830
   76MOL0     H10237   9.504   0.528   4.890  1.4836  0.1516 -0.8269
   76MOL0     H10238   9.323   0.375   4.781  2.2061 -0.1165  3.0610
   76MOL0     H10239   9.310   0.492   4.651 -1.0616 -1.5081  0.0952
   76MOL0     H10240  10.106   1.399   4.626 -1.2635 -1.1142  2.1678
   76MOL0     H10241  10.354   1.419   4.614 -3.4742  1.2455  0.5345
   76MOL0     H10242  10.808   0.937   4.622 -1.0971  0.0024  1.1244
   76MOL0     H10243  11.058   0.984   4.646  0.1982  0.6440  1.1929
   76MOL0     H10244  10.916   0.691   5.168 -0.4160  0.4595  0.9212
   76MOL0     H10245  10.686   0.589   5.140 -1.5983  2.5106  1.7076
   76MOL0     H10246  10.214   0.742   4.824  1.4227 -0.8646 -1.6789
   76MOL0     H10247   9.985   0.620   4.775 -3.3868  0.3803  3.0325
   76MOL0     H10248   9.990   0.319   4.731 -0.1641  1.9964  0.4747
   76MOL0     H10249   9.813   0.275   4.769 -1.2023 -0.6084  2.0363
   76MOL0     H10250  10.036   0.130   4.925 -1.3630 -5.2976  1.9578
   76MOL0     H10251   9.980   0.076   4.775  1.5159  0.9494  0.3835
   76MOL0     H10252   9.736   0.079   4.864 -1.1354  0.7786  1.4076
   76MOL0     H10253   9.805   0.134   5.014 -0.8953  1.8700 -1.5227
   76MOL0     H10254   9.844  -0.139   4.860  2.9639  0.8295 -0.9922
   76MOL0     H10255   9.948  -0.094   4.996  1.2526  0.6031 -2.6272
   76MOL0     H10256   9.652  -0.197   5.247  2.2423 -0.5077  0.6540
   76MOL0     H10257  10.120   0.321   5.070  0.3032  0.4690 -0.4897
   76MOL0     H10258  10.444   0.413   5.113  0.2239  4.3736 -1.7848
   76MOL0     H10259  10.355   0.517   5.219 -2.5294  0.4220  0.6745
   76MOL0     H10260  10.297   0.345   5.188 -4.6663  2.5390  0.8398
   77MOL0     O10261   3.741   8.773   0.479 -0.2362 -0.2253 -0.2348
   77MOL0     C10262   3.774   8.841   0.380  0.4021  0.2081 -1.1048
   77MOL0     O10263   3.696   8.939   0.328 -1.3287 -0.4206  0.5243
   77MOL0     C10264   3.558   8.929   0.316 -0.3553  0.4270  0.2919
   77MOL0     C10265   3.478   8.811   0.327 -1.3539  0.4860 -1.0164
   77MOL0     C10266   3.333   8.834   0.324 -0.4876 -0.2075 -0.0576
   77MOL0     C10267   3.282   8.963   0.307  0.3298  0.2092  0.0924
   77MOL0     O10268   3.148   8.983   0.301 -0.5572 -0.3124 -0.8699
   77MOL0     C10269   3.092   9.023   0.428 -0.2211 -0.3760  0.6734
   77MOL0     C10270   2.947   8.983   0.425 -0.0078 -0.4208  0.3849
   77MOL0     C10271   2.923   8.837   0.466  0.5545  0.8040 -0.7515
   77MOL0     C10272   2.899   8.755   0.340 -0.7317  0.2900 -0.2204
   77MOL0     C10273   2.851   8.617   0.384 -0.0047 -0.7962  0.1065
   77MOL0     C10274   2.715   8.606   0.463  0.0110 -0.5107 -0.6810
   77MOL0     C10275   2.700   8.470   0.534 -0.0217 -0.5057  0.8211
   77MOL0     C10276   2.754   8.340   0.453 -1.0096 -0.8991 -0.1738
   77MOL0     N10277   2.645   8.273   0.385  0.0271  0.8856 -0.5962
   77MOL0     C10278   2.580   8.314   0.272 -0.2093 -0.0328  0.1448
   77MOL0     C10279   2.469   8.234   0.263 -0.2235  0.3696  0.3108
   77MOL0     C10280   2.366   8.238   0.160  0.8806 -0.2036  0.0684
   77MOL0     C10281   2.272   8.359   0.195 -0.6800 -0.2208  0.2157
   77MOL0     C10282   2.130   8.358   0.125 -0.3014  0.1730  0.3041
   77MOL0     C10283   2.114   8.397  -0.023 -0.0760  0.1573  0.1177
   77MOL0     O10284   2.187   8.303  -0.102 -0.4907  0.1807  0.0667
   77MOL0     C10285   2.189   8.317  -0.240 -1.0911 -0.6592  0.3156
   77MOL0     C10286   2.249   8.210  -0.307  0.1571  0.3157 -0.6000
   77MOL0     C10287   2.258   8.217  -0.447 -0.2300 -0.0760  0.0190
   77MOL0     C10288   2.200   8.319  -0.520 -0.1840 -0.9047  0.6004
   77MOL0     C10289   2.223   8.332  -0.661 -0.4027  0.4225  0.4965
   77MOL0     O10290   2.129   8.409  -0.720 -0.2005  0.1562 -0.8215
   77MOL0     C10291   2.110   8.399  -0.856 -0.4964 -0.6217  0.4030
   77MOL0     C10292   2.060   8.514  -0.924 -0.0908 -0.1094 -0.7059
   77MOL0     C10293   2.041   8.501  -1.057  1.5595  0.0263 -0.0241
   77MOL0     C10294   2.053   8.385  -1.130  0.5294 -0.6950  0.1392
   77MOL0     O10295   2.016   8.401  -1.259 -0.5703 -0.0186 -0.8444
   77MOL0     C10296   2.062   8.296  -1.353 -0.3513 -1.5182 -0.5926
   77MOL0     C10297   2.109   8.367  -1.473 -0.7081 -0.0866  0.7453
   77MOL0     C10298   2.108   8.284  -1.597 -0.8329 -0.0596  0.0681
   77MOL0     C10299   1.968   8.258  -1.651 -0.2937 -0.2978 -0.2277
   77MOL0     C10300   1.969   8.157  -1.776 -0.3388 -0.4195  0.0516
   77MOL0     C10301   2.036   8.216  -1.898 -0.9477  0.0518 -1.1751
   77MOL0     C10302   2.056   8.116  -2.005  0.5117  0.0737  0.9274
   77MOL0     C10303   2.131   8.173  -2.131 -0.5438  0.2373  0.8777
   77MOL0    Cl10304   2.183   8.033  -2.234  0.3444 -0.3209 -0.5532
   77MOL0     C10305   2.096   8.273  -1.064  0.8878  0.3311 -0.6774
   77MOL0     C10306   2.127   8.275  -0.928 -0.3328  0.0351  0.0660
   77MOL0     O10307   2.323   8.290  -0.714  0.0696  0.6749 -0.0102
   77MOL0     C10308   2.124   8.415  -0.446 -0.0234 -0.2927  0.8414
   77MOL0     C10309   2.127   8.415  -0.309 -1.0355 -0.1978 -0.4723
   77MOL0     N10310   2.478   8.136   0.362  0.1456 -0.7915 -0.7854
   77MOL0     N10311   2.583   8.166   0.439  0.4237  0.5890 -0.1909
   77MOL0     C10312   3.369   9.065   0.274  0.5263  0.4390  0.5550
   77MOL0     C10313   3.507   9.051   0.279 -0.7354  0.4110  0.5637
   77MOL0     C10314   3.905   8.813   0.324  0.0277  0.9245  0.8716
   77MOL0     C10315   3.951   8.678   0.325  0.1767  0.2672  0.5625
   77MOL0     C10316   4.068   8.637   0.260 -0.7206  0.2989  0.5844
   77MOL0     C10317   4.140   8.737   0.192 -1.0044  0.6633  0.6986
   77MOL0     O10318   4.250   8.711   0.118 -0.5324 -0.2918 -0.3519
   77MOL0     C10319   4.288   8.581   0.081  0.3089  0.5989 -0.4255
   77MOL0     C10320   4.395   8.597  -0.024  1.1206 -0.1552  0.2771
   77MOL0     C10321   4.458   8.467  -0.065  0.1687 -0.1097  0.5678
   77MOL0     C10322   4.551   8.487  -0.194  0.1885  0.1016 -0.8079
   77MOL0     C10323   4.692   8.537  -0.180  0.4143 -0.1885 -0.3645
   77MOL0     C10324   4.796   8.584  -0.144  0.6172  0.3763 -0.5637
   77MOL0     C10325   4.105   8.872   0.193  1.1946 -0.1621  0.8276
   77MOL0     C10326   3.980   8.908   0.256  0.0729 -0.6577 -0.8706
   77MOL0     C10327   3.947   9.060   0.249  0.0302 -0.5870 -0.1855
   77MOL0     H10328   3.521   8.712   0.335  1.9533  1.9316  1.3581
   77MOL0     H10329   3.282   8.739   0.321  1.1787 -1.3739  3.4134
   77MOL0     H10330   3.135   8.975   0.516 -1.0402 -2.2727  0.0802
   77MOL0     H10331   3.100   9.131   0.446  0.8694  0.3608 -3.1985
   77MOL0     H10332   2.909   9.011   0.326  1.8029  1.9596  0.2763
   77MOL0     H10333   2.889   9.043   0.495 -1.5264 -1.0396 -0.3015
   77MOL0     H10334   2.836   8.838   0.533  1.4150  0.2805  0.4012
   77MOL0     H10335   3.010   8.803   0.524 -1.3576  1.1117  2.5918
   77MOL0     H10336   2.830   8.815   0.280 -2.4007  0.9374  2.1973
   77MOL0     H10337   2.990   8.747   0.279 -1.3134  1.0397 -1.2092
   77MOL0     H10338   2.845   8.560   0.290  3.1584 -0.1028 -0.6408
   77MOL0     H10339   2.926   8.565   0.444  0.5271 -1.7190 -1.2813
   77MOL0     H10340   2.707   8.688   0.535  0.1826  0.5394 -1.8352
   77MOL0     H10341   2.632   8.621   0.394  0.3515 -0.1848 -1.0250
   77MOL0     H10342   2.594   8.454   0.553 -0.4439 -1.1610 -1.7520
   77MOL0     H10343   2.754   8.480   0.629  0.3248 -1.6172  0.7605
   77MOL0     H10344   2.845   8.350   0.394  1.6258 -0.5684  3.5488
   77MOL0     H10345   2.792   8.273   0.531 -1.5508 -0.6182  0.3366
   77MOL0     H10346   2.602   8.408   0.222  0.3593 -0.0681  0.3194
   77MOL0     H10347   2.390   8.233   0.054 -2.6810 -1.4398 -0.8028
   77MOL0     H10348   2.309   8.145   0.166 -0.6223  0.6993  0.5930
   77MOL0     H10349   2.254   8.364   0.302 -4.2832  0.2000 -0.2878
   77MOL0     H10350   2.329   8.450   0.174  4.9848 -2.5948  3.2956
   77MOL0     H10351   2.054   8.417   0.177 -4.9455 -3.7166 -1.3213
   77MOL0     H10352   2.083   8.261   0.143 -1.1739  0.9933  2.8528
   77MOL0     H10353   2.135   8.504  -0.036 -1.1233  0.1030 -2.8150
   77MOL0     H10354   2.009   8.389  -0.051  0.4036  0.3933 -1.9590
   77MOL0     H10355   2.282   8.120  -0.257 -0.7786 -0.7168 -1.7806
   77MOL0     H10356   2.311   8.140  -0.502  0.2494  0.1915  0.1006
   77MOL0     H10357   2.036   8.602  -0.865 -1.6489 -1.0557  0.1488
   77MOL0     H10358   2.021   8.594  -1.109  0.1613 -0.7606 -0.9518
   77MOL0     H10359   2.136   8.227  -1.311  0.2061 -1.9923 -2.2837
   77MOL0     H10360   1.968   8.243  -1.376 -0.8898 -0.7964 -0.1142
   77MOL0     H10361   2.056   8.461  -1.489  3.1539  1.7714 -2.7996
   77MOL0     H10362   2.214   8.394  -1.458  0.5755 -3.1620 -1.5152
   77MOL0     H10363   2.176   8.333  -1.668  1.6758  1.1505  3.0446
   77MOL0     H10364   2.156   8.189  -1.573  2.6424  1.4293 -0.2390
   77MOL0     H10365   1.924   8.355  -1.676 -0.5237 -0.5649 -0.8736
   77MOL0     H10366   1.897   8.214  -1.581 -2.9945  0.7386 -2.1429
   77MOL0     H10367   1.871   8.132  -1.816 -0.9303  1.7483  0.0502
   77MOL0     H10368   2.019   8.066  -1.740 -2.1359 -1.2052  0.6929
   77MOL0     H10369   1.982   8.308  -1.923  0.3378  1.2882  0.3730
   77MOL0     H10370   2.141   8.231  -1.872 -1.1322 -1.0678  0.3169
   77MOL0     H10371   1.959   8.072  -2.033  0.9600  0.9223 -2.4412
   77MOL0     H10372   2.116   8.040  -1.953  0.3695 -1.8395 -1.4811
   77MOL0     H10373   2.058   8.230  -2.190  0.0703 -0.1296 -0.2504
   77MOL0     H10374   2.220   8.232  -2.106  0.0301  0.6699 -1.8313
   77MOL0     H10375   2.113   8.180  -1.117 -0.6864 -0.0031 -0.6374
   77MOL0     H10376   2.162   8.184  -0.879  2.4053 -1.4492 -4.0910
   77MOL0     H10377   2.079   8.506  -0.484 -1.3391  0.3241  3.6088
   77MOL0     H10378   2.067   8.491  -0.260 -0.2647  2.0875 -2.8520
   77MOL0     H10379   3.332   9.166   0.258  3.3115  1.4124 -0.1477
   77MOL0     H10380   3.575   9.134   0.259  2.3473 -0.9439  4.2097
   77MOL0     H10381   3.891   8.598   0.367 -1.2046  2.2270  2.5427
   77MOL0     H10382   4.106   8.538   0.280  0.3146  0.6415  0.3849
   77MOL0     H10383   4.201   8.527   0.045  0.7697 -0.7630  0.4488
   77MOL0     H10384   4.324   8.524   0.167 -4.3445 -1.9941  0.1050
   77MOL0     H10385   4.475   8.656   0.021  0.8336 -1.0829  2.0967
   77MOL0     H10386   4.358   8.641  -0.117  0.8189  3.3394  1.8840
   77MOL0     H10387   4.379   8.397  -0.093 -1.3654  1.5366  0.6118
   77MOL0     H10388   4.515   8.428   0.020 -0.9551 -3.5720 -0.0716
   77MOL0     H10389   4.553   8.386  -0.237 -2.6232 -1.1487  1.6907
   77MOL0     H10390   4.504   8.555  -0.266 -0.0002  3.7745  2.4997
   77MOL0     H10391   4.888   8.619  -0.101  0.3606  1.2244 -0.7045
   77MOL0     H10392   4.163   8.948   0.142  0.0137 -2.3990 -4.4307
   77MOL0     H10393   4.031   9.128   0.230 -1.2685  1.1703  0.1244
   77MOL0     H10394   3.883   9.075   0.162  1.8971 -1.1246 -1.7190
   77MOL0     H10395   3.912   9.102   0.344 -0.7443  0.1484 -0.7922
   78MOL0     O10396  10.545   5.739   7.206 -0.3227 -0.2562 -0.0964
   78MOL0     C10397  10.519   5.839   7.136 -0.0488  0.1196 -0.8271
   78MOL0     O10398  10.611   5.939   7.110  0.1566  0.3178 -0.0696
   78MOL0     C10399  10.730   5.912   7.166 -0.2130  0.6348  0.0179
   78MOL0     C10400  10.826   5.857   7.078 -0.0087  0.2242 -0.4342
   78MOL0     C10401  10.951   5.816   7.124  0.3351 -0.1168 -0.1093
   78MOL0     C10402  10.985   5.837   7.260 -0.0147  0.0361  0.1748
   78MOL0     O10403  11.109   5.795   7.312 -0.3934 -0.2341 -0.4011
   78MOL0     C10404  11.193   5.894   7.376 -0.0348 -0.1746  0.0872
   78MOL0     C10405  11.285   5.815   7.460 -0.7872 -0.1205 -0.4426
   78MOL0     C10406  11.374   5.898   7.560 -0.1797 -0.0944 -0.4570
   78MOL0     C10407  11.479   5.810   7.629  0.2528 -0.0132  0.2446
   78MOL0     C10408  11.617   5.889   7.625  0.2155  0.6597  0.3874
   78MOL0     C10409  11.725   5.824   7.707 -0.0247 -0.0362 -0.5939
   78MOL0     C10410  11.861   5.888   7.687  0.0145  0.2404 -1.2679
   78MOL0     C10411  11.965   5.836   7.793  0.1707 -0.3967  0.3237
   78MOL0     N10412  12.087   5.919   7.795 -0.0066 -0.2249 -0.1906
   78MOL0     C10413  12.208   5.894   7.736  0.4692 -0.0824 -0.0291
   78MOL0     C10414  12.274   6.011   7.738  0.2661  0.5929  0.3757
   78MOL0     C10415  12.420   6.025   7.674  0.4850  0.5058  0.4892
   78MOL0     C10416  12.411   6.168   7.605  0.3965  0.5509 -0.2150
   78MOL0     C10417  12.555   6.208   7.563  0.2567  0.1797 -0.7595
   78MOL0     C10418  12.562   6.338   7.492  0.4957 -0.1245  0.3442
   78MOL0     O10419  12.700   6.386   7.498  0.3576  0.3057  0.2757
   78MOL0     C10420  12.764   6.429   7.385 -0.0866  0.9861  0.1241
   78MOL0     C10421  12.784   6.559   7.359  0.2498  0.1025  0.7878
   78MOL0     C10422  12.844   6.595   7.231 -0.5536  0.8099  0.3663
   78MOL0     C10423  12.890   6.501   7.140  0.1949  0.9997 -0.3897
   78MOL0     C10424  12.954   6.550   7.013 -0.2092 -0.3029  0.5290
   78MOL0     O10425  12.956   6.685   6.990  0.3557  0.5516 -0.3488
   78MOL0     C10426  13.033   6.725   6.887 -0.6191 -0.0430 -0.0374
   78MOL0     C10427  12.983   6.745   6.759 -1.4630 -1.0043  0.5960
   78MOL0     C10428  13.076   6.800   6.658  0.9927 -0.0716 -0.4509
   78MOL0     C10429  13.209   6.820   6.692  0.7442 -1.0014 -0.5115
   78MOL0     O10430  13.302   6.866   6.604  0.3458 -0.3190  0.7653
   78MOL0     C10431  13.271   6.860   6.462  0.1022  0.0727 -0.6356
   78MOL0     C10432  13.384   6.943   6.396  0.8349 -0.1200 -0.2342
   78MOL0     C10433  13.511   6.853   6.379  0.4363 -0.1354  0.7399
   78MOL0     C10434  13.614   6.929   6.302  0.3176  0.2980 -0.6543
   78MOL0     C10435  13.743   6.859   6.270 -0.1932 -0.4736 -0.0281
   78MOL0     C10436  13.728   6.754   6.153 -0.2356  0.3080 -0.2803
   78MOL0     C10437  13.864   6.689   6.100 -0.0451 -0.1973  0.9224
   78MOL0     C10438  13.921   6.587   6.194  0.1614  0.8466  1.1437
   78MOL0    Cl10439  14.036   6.487   6.097 -0.0499 -0.2936  0.1667
   78MOL0     C10440  13.249   6.815   6.822  0.6039 -0.0771  0.2559
   78MOL0     C10441  13.160   6.774   6.919 -0.5107  1.2438  0.7889
   78MOL0     O10442  12.997   6.468   6.933  0.0105  0.9367 -0.5768
   78MOL0     C10443  12.881   6.363   7.179 -0.4682  0.9244 -0.1087
   78MOL0     C10444  12.820   6.333   7.296  1.0603  0.0810 -0.5135
   78MOL0     N10445  12.202   6.102   7.800  0.4850 -0.3046 -0.0543
   78MOL0     N10446  12.090   6.053   7.837  0.7301 -0.0823  0.9320
   78MOL0     C10447  10.888   5.901   7.347 -0.1465  0.3206  0.2898
   78MOL0     C10448  10.768   5.937   7.304 -0.2237 -0.1286  0.0707
   78MOL0     C10449  10.377   5.871   7.085  0.1684  0.8274  0.2454
   78MOL0     C10450  10.358   6.005   7.023 -0.0676  0.8332 -1.0645
   78MOL0     C10451  10.230   6.042   6.994 -0.2162  0.1681  0.2203
   78MOL0     C10452  10.119   5.952   7.010  0.3089  0.6278  0.5180
   78MOL0     O10453   9.984   5.988   7.002  0.1456  0.2920  0.3242
   78MOL0     C10454   9.961   6.122   6.959 -1.0406  0.2675 -0.5101
   78MOL0     C10455   9.815   6.143   6.957 -0.3276  0.3042  0.5073
   78MOL0     C10456   9.762   6.270   6.885  0.5719 -0.5372 -0.1312
   78MOL0     C10457   9.611   6.265   6.919  0.4486  0.1858  0.1960
   78MOL0     C10458   9.530   6.364   6.850  1.6725 -0.1661  0.0325
   78MOL0     C10459   9.448   6.445   6.802 -0.7635  0.2616 -0.0435
   78MOL0     C10460  10.132   5.823   7.056 -0.4372  1.4296  0.6250
   78MOL0     C10461  10.263   5.781   7.094  0.1855  0.4261  0.5589
   78MOL0     C10462  10.256   5.648   7.172  0.0622  0.0779  0.3547
   78MOL0     H10463  10.825   5.835   6.972  2.2207 -0.9463 -0.2779
   78MOL0     H10464  11.026   5.773   7.060  1.6534  0.6909  0.8304
   78MOL0     H10465  11.232   5.975   7.314 -0.2114  0.1607  0.4090
   78MOL0     H10466  11.131   5.957   7.441  1.2209  1.0303  0.1713
   78MOL0     H10467  11.355   5.766   7.391 -1.6600 -2.0525 -0.0134
   78MOL0     H10468  11.232   5.729   7.502 -1.3578  0.0852 -0.7283
   78MOL0     H10469  11.310   5.947   7.634  1.4537 -0.1563  1.0787
   78MOL0     H10470  11.423   5.980   7.505  0.4869  1.0003  1.6580
   78MOL0     H10471  11.453   5.770   7.727  2.5644 -2.2144  0.0548
   78MOL0     H10472  11.491   5.715   7.576  0.4342 -0.1529  0.5349
   78MOL0     H10473  11.663   5.900   7.527 -1.4865  1.1872 -0.3752
   78MOL0     H10474  11.589   5.989   7.659  2.0128  0.7645  1.7722
   78MOL0     H10475  11.699   5.831   7.813  1.8308  4.7674 -0.2170
   78MOL0     H10476  11.739   5.719   7.678  2.6495  0.3434 -0.9204
   78MOL0     H10477  11.847   5.995   7.706  2.9707  0.5156 -0.0607
   78MOL0     H10478  11.902   5.871   7.586  1.0420  0.6995 -0.9399
   78MOL0     H10479  11.924   5.829   7.894 -1.2282 -3.7552 -0.3457
   78MOL0     H10480  11.991   5.733   7.769  1.2568 -0.2840  0.9210
   78MOL0     H10481  12.252   5.804   7.694  1.6275  0.2329  0.4575
   78MOL0     H10482  12.491   6.022   7.757  1.6132  2.0317 -0.3370
   78MOL0     H10483  12.440   5.944   7.603  2.0981  3.3185 -2.5592
   78MOL0     H10484  12.341   6.166   7.521 -1.3174  0.0938  1.1494
   78MOL0     H10485  12.379   6.236   7.684  0.7790 -0.0456  0.4670
   78MOL0     H10486  12.585   6.125   7.498  2.5766  0.3070  0.0298
   78MOL0     H10487  12.622   6.204   7.649  0.2466 -0.6467 -0.7752
   78MOL0     H10488  12.494   6.402   7.548  0.1496  0.5122 -0.7697
   78MOL0     H10489  12.514   6.334   7.394 -2.0390  2.6889  1.3266
   78MOL0     H10490  12.761   6.636   7.432 -1.3007  1.4753 -1.0482
   78MOL0     H10491  12.869   6.700   7.220 -1.2537  0.9813  0.3197
   78MOL0     H10492  12.878   6.725   6.742 -1.7772  1.3314 -0.5746
   78MOL0     H10493  13.035   6.832   6.563 -1.2920  1.6419  1.0195
   78MOL0     H10494  13.265   6.757   6.426  2.7837  0.2075 -1.7416
   78MOL0     H10495  13.182   6.915   6.432 -0.6502 -1.1860 -0.7702
   78MOL0     H10496  13.346   6.978   6.299  1.9645 -2.0818 -1.4718
   78MOL0     H10497  13.403   7.034   6.453  0.1201 -1.2301  1.9046
   78MOL0     H10498  13.550   6.816   6.474  1.0372 -0.0700  0.5274
   78MOL0     H10499  13.468   6.766   6.328 -0.5191  0.8651 -0.2028
   78MOL0     H10500  13.643   7.013   6.366 -2.7290 -0.6708  2.2721
   78MOL0     H10501  13.558   6.970   6.217  0.9086 -0.3781 -1.3864
   78MOL0     H10502  13.794   6.818   6.358 -1.8892  1.1154  1.8066
   78MOL0     H10503  13.816   6.932   6.233 -0.0310 -0.6031  0.0363
   78MOL0     H10504  13.659   6.674   6.182  1.8016 -1.6525 -0.5801
   78MOL0     H10505  13.677   6.806   6.072 -3.1191 -2.4600 -0.4104
   78MOL0     H10506  13.937   6.764   6.070 -0.6033 -0.3038 -0.8016
   78MOL0     H10507  13.832   6.648   6.004  1.5469  0.9012 -0.1288
   78MOL0     H10508  13.966   6.639   6.279 -0.4716 -2.8493  4.0244
   78MOL0     H10509  13.843   6.520   6.232  1.2385 -0.4641  1.1202
   78MOL0     H10510  13.348   6.853   6.844 -0.3694  2.8174  0.0733
   78MOL0     H10511  13.194   6.769   7.022 -1.1687 -5.4976  1.1242
   78MOL0     H10512  12.899   6.294   7.097 -1.1462  1.6405 -0.8903
   78MOL0     H10513  12.811   6.230   7.329  0.6772 -0.0165 -0.9200
   78MOL0     H10514  10.913   5.914   7.452 -0.9657  1.8592  0.3150
   78MOL0     H10515  10.700   5.977   7.379  2.1158  1.2533  1.5639
   78MOL0     H10516  10.443   6.070   7.008 -0.0761  0.8766 -0.9233
   78MOL0     H10517  10.222   6.141   6.951  2.6174  0.4504  0.1688
   78MOL0     H10518  10.020   6.137   6.868  2.2884 -2.3294  1.0102
   78MOL0     H10519  10.011   6.179   7.038  0.2892 -1.6143  0.0750
   78MOL0     H10520   9.796   6.130   7.064 -0.5758  0.0749  0.4380
   78MOL0     H10521   9.762   6.057   6.913  0.4240  0.3784 -0.5661
   78MOL0     H10522   9.779   6.270   6.777 -0.4179 -1.5380 -0.3040
   78MOL0     H10523   9.806   6.358   6.933 -2.6171  2.0954 -1.6132
   78MOL0     H10524   9.574   6.163   6.902 -0.5907  0.2321  1.9001
   78MOL0     H10525   9.590   6.283   7.025 -1.0446 -3.7965  0.7440
   78MOL0     H10526   9.389   6.517   6.750  0.1791  0.1031 -1.3735
   78MOL0     H10527  10.047   5.763   7.088  2.8881 -3.8679  0.8118
   78MOL0     H10528  10.313   5.571   7.119 -2.0653 -2.3615  1.3287
   78MOL0     H10529  10.294   5.650   7.274 -0.0030 -0.9987  0.4203
   78MOL0     H10530  10.160   5.597   7.184 -0.8504  1.5866 -0.2153
   79MOL0     O10531   1.143   7.689   5.809 -0.3103  0.1223 -0.3582
   79MOL0     C10532   1.115   7.803   5.771 -0.8975 -0.3200 -0.6755
   79MOL0     O10533   1.203   7.896   5.740 -0.2479 -0.3701  0.8131
   79MOL0     C10534   1.332   7.845   5.724  0.4982  0.7398 -0.7724
   79MOL0     C10535   1.433   7.881   5.820  0.9869  0.1128  0.4121
   79MOL0     C10536   1.571   7.844   5.803 -0.0768 -0.3579  0.1648
   79MOL0     C10537   1.606   7.779   5.690 -0.2137  0.0168  0.3907
   79MOL0     O10538   1.736   7.755   5.666 -0.4318  0.2641 -0.0070
   79MOL0     C10539   1.807   7.846   5.585  0.2754  0.0248 -0.2534
   79MOL0     C10540   1.857   7.979   5.654 -0.0941 -1.1132  0.6045
   79MOL0     C10541   1.911   7.958   5.803 -1.2039  0.5315  1.4170
   79MOL0     C10542   2.051   7.909   5.821  1.1425  0.9557 -0.2511
   79MOL0     C10543   2.153   8.009   5.780 -0.0497 -0.3558 -0.7303
   79MOL0     C10544   2.294   7.947   5.761 -0.5576  0.6208  0.3052
   79MOL0     C10545   2.393   8.042   5.706 -1.1138  0.1908 -0.1507
   79MOL0     C10546   2.360   8.068   5.561  0.8467  0.2851  0.4272
   79MOL0     N10547   2.471   8.128   5.486 -0.1162 -0.2767 -0.0993
   79MOL0     C10548   2.489   8.100   5.356 -0.2725  0.6711  0.3868
   79MOL0     C10549   2.581   8.184   5.317 -0.5985  0.9756 -0.5239
   79MOL0     C10550   2.651   8.198   5.183  0.1676  0.1138  0.4975
   79MOL0     C10551   2.797   8.236   5.208 -0.1990  0.2849 -0.2362
   79MOL0     C10552   2.864   8.234   5.072  0.5935 -0.1510  1.0547
   79MOL0     C10553   3.014   8.251   5.104 -0.8929  0.7301  0.2849
   79MOL0     O10554   3.073   8.151   5.181 -0.1495  0.4142 -0.5125
   79MOL0     C10555   3.207   8.145   5.179 -1.0784  0.3252  0.2978
   79MOL0     C10556   3.268   8.030   5.224 -0.4775  0.2020 -1.1354
   79MOL0     C10557   3.407   8.014   5.204  0.2069  0.1523  1.5477
   79MOL0     C10558   3.488   8.120   5.162 -0.9519  0.3275  0.8058
   79MOL0     C10559   3.640   8.082   5.119  0.4687 -0.2047 -0.2239
   79MOL0     O10560   3.714   7.986   5.176 -0.3263 -0.1627  0.6676
   79MOL0     C10561   3.822   7.950   5.102  0.2664 -0.8886  0.7600
   79MOL0     C10562   3.950   7.990   5.141  0.1735 -1.1612  0.7198
   79MOL0     C10563   4.061   7.961   5.062 -0.9063  0.8272 -0.0243
   79MOL0     C10564   4.042   7.913   4.929 -0.4692 -0.5828 -0.3009
   79MOL0     O10565   4.137   7.905   4.828 -0.5389 -0.1806  0.5239
   79MOL0     C10566   4.267   7.955   4.851 -0.8319  0.5188  0.3195
   79MOL0     C10567   4.351   7.939   4.722 -0.3658  0.7095  0.3908
   79MOL0     C10568   4.474   8.022   4.723  0.5105 -0.2941  0.2576
   79MOL0     C10569   4.553   7.998   4.598  0.6004  0.1139 -0.1872
   79MOL0     C10570   4.635   8.116   4.565  0.2289 -0.3028 -0.3428
   79MOL0     C10571   4.707   8.110   4.425  0.8252 -0.6906  0.1924
   79MOL0     C10572   4.605   8.137   4.309 -0.0865 -0.1449 -0.0399
   79MOL0     C10573   4.681   8.112   4.170  0.1165  0.8263  0.6650
   79MOL0    Cl10574   4.555   8.059   4.039 -0.0536 -0.2284 -0.0609
   79MOL0     C10575   3.920   7.861   4.892  0.3267  0.3072  0.1157
   79MOL0     C10576   3.808   7.879   4.981  0.6925 -0.5902  0.5347
   79MOL0     O10577   3.686   8.173   5.045 -0.3114  0.1225  0.7656
   79MOL0     C10578   3.432   8.247   5.150 -0.5182 -0.3021  0.8927
   79MOL0     C10579   3.297   8.252   5.156 -0.0718 -0.1120  0.6032
   79MOL0     N10580   2.613   8.273   5.419  0.0945  0.3376  0.1973
   79MOL0     N10581   2.554   8.226   5.520  0.9649 -1.0995 -0.1635
   79MOL0     C10582   1.514   7.740   5.592 -0.0532 -0.2964 -0.3138
   79MOL0     C10583   1.379   7.785   5.605  1.2349  0.2488  0.1442
   79MOL0     C10584   0.978   7.850   5.793  0.4245  0.5560 -0.2955
   79MOL0     C10585   0.954   7.986   5.820  0.4631 -0.2824 -0.7396
   79MOL0     C10586   0.830   8.030   5.867  0.3441 -0.0463  0.3074
   79MOL0     C10587   0.726   7.944   5.875 -0.2727  0.2311 -0.3569
   79MOL0     O10588   0.601   7.994   5.925  0.1898  0.5830  0.0975
   79MOL0     C10589   0.574   8.132   5.942  0.5088 -0.2003  0.3877
   79MOL0     C10590   0.425   8.155   5.930 -0.0476 -0.1739  0.1038
   79MOL0     C10591   0.346   8.067   6.031  0.4249  0.2925 -0.3192
   79MOL0     C10592   0.196   8.090   6.022  0.0369  0.5347 -0.6599
   79MOL0     C10593   0.141   8.092   5.892  0.2791  0.1907  0.7481
   79MOL0     C10594   0.102   8.101   5.780 -0.7827 -0.4925  0.0815
   79MOL0     C10595   0.743   7.813   5.827 -0.2328  0.3295 -0.2056
   79MOL0     C10596   0.868   7.765   5.781 -0.2709  0.2484  0.3064
   79MOL0     C10597   0.877   7.618   5.748 -0.9470  0.6537 -0.7540
   79MOL0     H10598   1.420   7.942   5.909  2.4699  2.2059 -0.7352
   79MOL0     H10599   1.648   7.865   5.876  0.8424 -3.5385  0.2552
   79MOL0     H10600   1.893   7.793   5.543 -2.4063 -2.6290 -2.8120
   79MOL0     H10601   1.755   7.884   5.497 -1.7627  0.5428  1.1213
   79MOL0     H10602   1.763   8.035   5.662  0.5245  0.1855 -0.6973
   79MOL0     H10603   1.923   8.031   5.584 -0.2730 -2.1629 -0.3845
   79MOL0     H10604   1.851   7.878   5.849 -2.2001 -0.7837 -1.8384
   79MOL0     H10605   1.898   8.054   5.853  1.1437  0.9805  1.2806
   79MOL0     H10606   2.060   7.881   5.927 -1.1944 -0.6373 -0.4097
   79MOL0     H10607   2.060   7.813   5.770 -0.6816  0.1877  0.7723
   79MOL0     H10608   2.119   8.051   5.685  2.1436 -1.5493 -2.1373
   79MOL0     H10609   2.146   8.090   5.853 -0.8228 -0.4448 -0.7021
   79MOL0     H10610   2.333   7.909   5.855 -1.7974 -1.1263  0.1444
   79MOL0     H10611   2.286   7.862   5.693  2.2987 -1.6145  2.5060
   79MOL0     H10612   2.488   7.988   5.714 -2.2104 -1.8031 -0.0858
   79MOL0     H10613   2.399   8.136   5.762 -0.0907  0.3270 -0.4652
   79MOL0     H10614   2.341   7.968   5.521 -1.6442 -0.3610  2.8577
   79MOL0     H10615   2.270   8.130   5.560  0.1126 -0.7202  1.3534
   79MOL0     H10616   2.458   8.017   5.293  1.0176  2.2328 -2.4767
   79MOL0     H10617   2.649   8.102   5.132  1.8047 -1.4008  3.0528
   79MOL0     H10618   2.599   8.278   5.129  0.9988  0.8729  0.8041
   79MOL0     H10619   2.813   8.334   5.253  2.0096 -0.2538  0.2981
   79MOL0     H10620   2.831   8.156   5.274 -1.0902 -0.7747 -1.0175
   79MOL0     H10621   2.824   8.310   5.004  0.7533 -2.3469 -1.6724
   79MOL0     H10622   2.854   8.136   5.023  1.4824  0.6842 -0.8834
   79MOL0     H10623   3.035   8.342   5.161 -2.2288  1.3393 -0.1574
   79MOL0     H10624   3.060   8.253   5.005 -0.7386  0.0703  0.3378
   79MOL0     H10625   3.205   7.949   5.259  0.0736  0.2245 -0.0591
   79MOL0     H10626   3.450   7.915   5.217  4.1626  1.4007 -0.3584
   79MOL0     H10627   3.953   8.054   5.228 -1.0839  0.0843 -0.1104
   79MOL0     H10628   4.149   8.000   5.113  1.0632 -0.3316 -2.3392
   79MOL0     H10629   4.275   8.063   4.872  1.9330  0.3842  0.3088
   79MOL0     H10630   4.320   7.909   4.935 -0.5837  2.8300  1.5301
   79MOL0     H10631   4.373   7.832   4.713  0.1729  0.7242  1.3197
   79MOL0     H10632   4.287   7.965   4.638 -0.3481  3.6308  1.1648
   79MOL0     H10633   4.432   8.122   4.733 -0.1162 -0.3994 -1.0129
   79MOL0     H10634   4.531   8.000   4.814  0.2027  0.9166  0.7547
   79MOL0     H10635   4.492   7.972   4.511  2.0503  0.5774 -1.3851
   79MOL0     H10636   4.614   7.911   4.621  0.5599  0.8266  3.0982
   79MOL0     H10637   4.699   8.146   4.649 -1.5249 -1.0173  1.3197
   79MOL0     H10638   4.566   8.200   4.555  0.3639 -0.3269 -1.6604
   79MOL0     H10639   4.779   8.192   4.436  0.6773 -0.8578  3.4637
   79MOL0     H10640   4.751   8.012   4.407  2.7874 -0.1948  1.8734
   79MOL0     H10641   4.562   8.236   4.320 -0.8921 -0.3781 -0.9778
   79MOL0     H10642   4.527   8.062   4.329 -0.6330  0.5741  0.5764
   79MOL0     H10643   4.723   8.205   4.131  2.2018 -1.0407 -1.8460
   79MOL0     H10644   4.758   8.035   4.178 -2.0615 -1.5799 -0.1167
   79MOL0     H10645   3.907   7.826   4.790 -2.4248  0.8788  0.2054
   79MOL0     H10646   3.707   7.845   4.965  0.8132 -1.4161  1.3883
   79MOL0     H10647   3.492   8.329   5.111 -2.9546  1.1648  0.0149
   79MOL0     H10648   3.263   8.351   5.128 -0.5817  0.2934  2.5002
   79MOL0     H10649   1.548   7.691   5.501 -0.8400  1.4990 -1.6634
   79MOL0     H10650   1.294   7.776   5.538  0.0544  2.2910  1.2930
   79MOL0     H10651   1.040   8.052   5.829 -0.2451  0.3796  2.5764
   79MOL0     H10652   0.829   8.129   5.913  0.0396 -1.1074  2.7248
   79MOL0     H10653   0.614   8.186   5.856  2.4899 -1.1204  0.6645
   79MOL0     H10654   0.603   8.164   6.043 -2.4760 -2.6410  2.2063
   79MOL0     H10655   0.388   8.132   5.830  2.9603  2.4088 -1.7931
   79MOL0     H10656   0.415   8.262   5.946  1.1669  0.0986 -0.8039
   79MOL0     H10657   0.390   8.081   6.130 -0.0209 -3.7899  0.6583
   79MOL0     H10658   0.357   7.960   6.013  0.8464  0.4704 -1.1174
   79MOL0     H10659   0.148   8.018   6.090 -0.0736  1.3090  0.1011
   79MOL0     H10660   0.179   8.184   6.076  2.0162  0.9880 -0.7382
   79MOL0     H10661   0.082   8.096   5.674 -0.6280 -1.4225  0.0900
   79MOL0     H10662   0.648   7.762   5.820  0.0105  0.0657 -2.3573
   79MOL0     H10663   0.952   7.600   5.670  1.7642  0.3834  1.7484
   79MOL0     H10664   0.906   7.555   5.832 -0.1655  1.0611 -0.7052
   79MOL0     H10665   0.781   7.574   5.719 -1.3775 -0.1280  1.6234
   80MOL0     O10666   0.934  11.117   7.106 -0.0271  0.0558 -0.3952
   80MOL0     C10667   0.903  11.190   7.200  1.1334 -0.8291  0.3707
   80MOL0     O10668   0.996  11.280   7.270 -0.0404  0.2867 -0.0319
   80MOL0     C10669   1.127  11.293   7.231 -0.4812 -0.1918 -0.4708
   80MOL0     C10670   1.231  11.190   7.236 -0.0494  0.4752  0.1809
   80MOL0     C10671   1.367  11.217   7.217 -0.3127  0.4878 -0.7236
   80MOL0     C10672   1.399  11.341   7.179  0.5273 -0.0025  0.8112
   80MOL0     O10673   1.525  11.387   7.153  0.4341 -0.6413 -0.8395
   80MOL0     C10674   1.630  11.296   7.121  0.2210  0.3512  0.1401
   80MOL0     C10675   1.767  11.360   7.077 -0.6998  0.9365 -0.5294
   80MOL0     C10676   1.891  11.270   7.085  0.2966 -0.2488  0.2393
   80MOL0     C10677   2.012  11.336   7.156 -0.2270  0.0694  0.1163
   80MOL0     C10678   2.128  11.237   7.177  1.5215  0.0346 -0.7354
   80MOL0     C10679   2.187  11.175   7.046 -0.1833  0.4584 -0.5685
   80MOL0     C10680   2.307  11.080   7.073  0.0338  0.6456 -0.0054
   80MOL0     C10681   2.430  11.147   7.121  0.0968  0.2897 -1.1005
   80MOL0     N10682   2.534  11.049   7.123 -0.0390 -0.1739  0.4257
   80MOL0     C10683   2.547  10.930   7.194  0.0721  0.2266 -0.0507
   80MOL0     C10684   2.660  10.875   7.151  0.5742 -0.2741 -0.0816
   80MOL0     C10685   2.722  10.747   7.213  0.3414  0.4484  0.2122
   80MOL0     C10686   2.646  10.629   7.153 -0.5583 -0.0797 -0.7153
   80MOL0     C10687   2.731  10.497   7.176 -0.3981  0.1674  0.0760
   80MOL0     C10688   2.720  10.440   7.323 -0.0965 -0.5208  0.0658
   80MOL0     O10689   2.577  10.424   7.350  0.2728  0.0687  0.1997
   80MOL0     C10690   2.534  10.344   7.452 -0.4138 -1.3342 -0.2909
   80MOL0     C10691   2.404  10.313   7.455  0.0176  0.1371 -0.4851
   80MOL0     C10692   2.353  10.236   7.557  0.2575  0.5096 -0.3963
   80MOL0     C10693   2.425  10.188   7.669 -0.6074  0.1607  0.0407
   80MOL0     C10694   2.358  10.100   7.769 -0.8992 -0.7007 -0.1592
   80MOL0     O10695   2.426  10.067   7.882 -0.7040 -0.2736  0.9001
   80MOL0     C10696   2.386   9.983   7.978 -0.2705  0.0370  0.0828
   80MOL0     C10697   2.439   9.984   8.098 -0.7285  0.2447 -0.4662
   80MOL0     C10698   2.401   9.894   8.201 -0.3032  0.1843  0.7272
   80MOL0     C10699   2.317   9.787   8.179  0.6357 -1.1525  0.1444
   80MOL0     O10700   2.280   9.702   8.278 -0.2120  0.3341  0.3715
   80MOL0     C10701   2.284   9.569   8.253  0.0901  0.2690  0.4230
   80MOL0     C10702   2.144   9.524   8.223  0.1599 -0.4081 -0.9795
   80MOL0     C10703   2.060   9.521   8.359 -0.0642  0.0105  0.4160
   80MOL0     C10704   1.925   9.591   8.332 -0.1895  1.1890 -0.7485
   80MOL0     C10705   1.824   9.511   8.248 -0.9309  0.2818  0.2046
   80MOL0     C10706   1.717   9.598   8.198 -0.2280 -0.4825  0.3953
   80MOL0     C10707   1.670   9.683   8.312 -0.7234  0.1756 -0.2283
   80MOL0     C10708   1.545   9.753   8.261  0.5586  0.7755  0.5517
   80MOL0    Cl10709   1.484   9.856   8.386  0.2390 -0.1525 -0.5751
   80MOL0     C10710   2.265   9.776   8.050 -0.7470  0.0779 -0.0245
   80MOL0     C10711   2.306   9.868   7.952 -0.7410  0.0516 -0.0208
   80MOL0     O10712   2.246  10.078   7.739 -0.2287  0.3838 -0.1008
   80MOL0     C10713   2.550  10.244   7.687  0.2017  0.4799  0.9051
   80MOL0     C10714   2.608  10.318   7.576  0.4405  0.4920 -0.2032
   80MOL0     N10715   2.707  10.955   7.048  0.0352 -0.1215  0.0115
   80MOL0     N10716   2.628  11.056   7.031 -0.8317  0.0356  0.0156
   80MOL0     C10717   1.296  11.439   7.157  0.1686  0.0946  0.4545
   80MOL0     C10718   1.161  11.409   7.174  0.1195  0.2306  0.9935
   80MOL0     C10719   0.770  11.168   7.268  0.2487 -0.3560  0.6461
   80MOL0     C10720   0.719  11.260   7.362  0.0175 -0.0532 -0.3064
   80MOL0     C10721   0.602  11.241   7.439 -0.0934  0.7520  0.8795
   80MOL0     C10722   0.525  11.122   7.424 -0.2032 -0.4505 -1.0514
   80MOL0     O10723   0.414  11.104   7.498  0.6940 -0.7804 -0.3618
   80MOL0     C10724   0.306  11.020   7.446 -0.9798  0.3087 -0.4498
   80MOL0     C10725   0.176  11.054   7.527  0.2803 -0.4772  0.9205
   80MOL0     C10726   0.141  11.210   7.534 -0.8553 -0.1512  0.5289
   80MOL0     C10727   0.114  11.286   7.400  0.7067  0.2434  0.9344
   80MOL0     C10728  -0.006  11.243   7.330  0.0356  0.0602  0.0605
   80MOL0     C10729  -0.102  11.185   7.282 -0.3375 -0.5616 -0.1191
   80MOL0     C10730   0.566  11.038   7.323  0.0706 -0.0834  0.3679
   80MOL0     C10731   0.689  11.049   7.250  0.0994  0.1488  0.2388
   80MOL0     C10732   0.718  10.940   7.154 -0.1284  0.3366 -0.4556
   80MOL0     H10733   1.200  11.093   7.271 -0.9482  0.8123  0.3490
   80MOL0     H10734   1.429  11.129   7.232 -1.0528 -0.0909 -1.0249
   80MOL0     H10735   1.651  11.226   7.202 -1.5994  1.6516  1.8214
   80MOL0     H10736   1.605  11.231   7.036 -1.1394  1.4990 -0.3701
   80MOL0     H10737   1.799  11.441   7.143 -0.7360 -0.6354  1.5064
   80MOL0     H10738   1.753  11.404   6.978 -2.0538 -2.6199 -2.0964
   80MOL0     H10739   1.925  11.240   6.985  1.0988 -0.0902  0.4584
   80MOL0     H10740   1.853  11.176   7.126 -1.3921  1.0221  1.7164
   80MOL0     H10741   2.043  11.424   7.099  0.3063 -1.2237 -1.6839
   80MOL0     H10742   1.988  11.372   7.256 -0.4501  1.1546 -0.3202
   80MOL0     H10743   2.209  11.278   7.239  0.7960 -1.5633  1.3951
   80MOL0     H10744   2.090  11.154   7.237  1.0492 -0.6077 -1.8767
   80MOL0     H10745   2.107  11.130   6.987 -0.2442  1.3373 -1.1818
   80MOL0     H10746   2.235  11.259   6.993 -0.3155  1.7568  1.2907
   80MOL0     H10747   2.338  11.016   6.989 -2.0402 -4.8645  2.8642
   80MOL0     H10748   2.281  11.010   7.154  1.2595 -0.0739 -0.2019
   80MOL0     H10749   2.457  11.234   7.061  1.2396 -1.2351 -2.9090
   80MOL0     H10750   2.421  11.192   7.221  1.2550  0.9853 -1.2858
   80MOL0     H10751   2.476  10.903   7.272 -3.0161  0.9378 -2.4261
   80MOL0     H10752   2.823  10.729   7.175  0.8654 -0.9734  2.1364
   80MOL0     H10753   2.706  10.755   7.321 -2.8949 -0.2706 -0.1103
   80MOL0     H10754   2.548  10.629   7.201  1.3582  1.1286  3.6643
   80MOL0     H10755   2.649  10.639   7.044  0.9386 -3.2978 -1.0849
   80MOL0     H10756   2.830  10.507   7.131 -0.8480  0.1148 -0.9593
   80MOL0     H10757   2.693  10.418   7.110  0.4788  0.4796 -0.8376
   80MOL0     H10758   2.762  10.518   7.387  0.6310 -0.6796 -0.2091
   80MOL0     H10759   2.779  10.348   7.331 -3.6122 -2.8024  1.9390
   80MOL0     H10760   2.336  10.346   7.377 -2.2046  1.4572  1.8556
   80MOL0     H10761   2.248  10.212   7.544  0.6830 -2.2900  0.6296
   80MOL0     H10762   2.510  10.063   8.118 -0.9812  0.6223 -1.0398
   80MOL0     H10763   2.442   9.912   8.300  1.3484  1.9936 -0.2079
   80MOL0     H10764   2.346   9.536   8.170 -2.5131 -0.1320 -1.4843
   80MOL0     H10765   2.311   9.517   8.346 -3.8840 -0.6339  1.2491
   80MOL0     H10766   2.101   9.573   8.136  0.6139  0.3941 -0.7588
   80MOL0     H10767   2.158   9.420   8.192  2.1844 -0.8555  1.1842
   80MOL0     H10768   2.049   9.418   8.394  0.0659 -0.7211 -1.5705
   80MOL0     H10769   2.109   9.566   8.446  1.9990 -1.4859  0.1063
   80MOL0     H10770   1.940   9.689   8.286  2.9185  1.0988 -0.1867
   80MOL0     H10771   1.882   9.607   8.431  2.4219  0.7167  0.5458
   80MOL0     H10772   1.784   9.418   8.291  0.6658 -0.8103 -0.5785
   80MOL0     H10773   1.875   9.470   8.161  2.8805 -1.0989  2.8199
   80MOL0     H10774   1.757   9.673   8.128  0.8178  1.3580  2.7924
   80MOL0     H10775   1.636   9.538   8.156  0.3920 -2.4635  1.8734
   80MOL0     H10776   1.736   9.767   8.336 -0.4771  0.2096 -0.9743
   80MOL0     H10777   1.641   9.619   8.396 -0.1845  0.2164 -0.0072
   80MOL0     H10778   1.565   9.813   8.172 -0.2436  0.3690  0.0880
   80MOL0     H10779   1.463   9.683   8.241  1.4409 -0.1306  0.0117
   80MOL0     H10780   2.204   9.692   8.018  1.6023 -1.1056 -1.6812
   80MOL0     H10781   2.264   9.862   7.852 -0.0121  1.0110 -0.4075
   80MOL0     H10782   2.613  10.221   7.772  2.0530 -0.4625 -0.6288
   80MOL0     H10783   2.713  10.333   7.600  0.0118 -1.3119  3.5359
   80MOL0     H10784   1.335  11.535   7.124  2.1989 -1.2485 -1.4015
   80MOL0     H10785   1.073  11.470   7.159  0.2914  0.0002 -1.3400
   80MOL0     H10786   0.773  11.353   7.373  1.2509 -0.6257 -1.2628
   80MOL0     H10787   0.567  11.311   7.515  1.2910 -0.4369  2.7203
   80MOL0     H10788   0.320  10.916   7.478  0.5055  1.1911  2.0483
   80MOL0     H10789   0.297  11.033   7.338 -2.2960 -3.1846 -0.9071
   80MOL0     H10790   0.187  11.024   7.632 -1.5671  0.6356  1.4778
   80MOL0     H10791   0.094  10.997   7.482 -0.3350  1.4169 -0.4624
   80MOL0     H10792   0.225  11.248   7.592  0.2884  0.8457 -1.7030
   80MOL0     H10793   0.061  11.232   7.605  0.9421  1.0309  2.2783
   80MOL0     H10794   0.113  11.393   7.419  1.0354  0.2016  1.2002
   80MOL0     H10795   0.188  11.265   7.321 -0.4914  0.4774 -0.2872
   80MOL0     H10796  -0.190  11.151   7.232  0.1156  1.8183 -2.7742
   80MOL0     H10797   0.510  10.948   7.300 -0.1184  0.3224 -0.7981
   80MOL0     H10798   0.824  10.917   7.163 -0.3656 -0.2059  1.5183
   80MOL0     H10799   0.658  10.851   7.179  0.6000  0.8082  3.7486
   80MOL0     H10800   0.687  10.974   7.055  1.1884  0.7880 -0.7310
   81MOL0     O10801   8.746   8.855   9.109 -1.5719 -0.7840 -0.6982
   81MOL0     C10802   8.669   8.783   9.058  0.2074 -0.0132 -0.0320
   81MOL0     O10803   8.692   8.652   9.022 -0.4664  0.7926  0.6472
   81MOL0     C10804   8.807   8.588   9.075  0.8436 -0.3076  0.8113
   81MOL0     C10805   8.895   8.514   8.996  0.8449 -0.6173  0.1807
   81MOL0     C10806   9.004   8.452   9.052 -0.7331  0.4125 -0.1218
   81MOL0     C10807   9.026   8.449   9.189  0.1630  0.9515  0.8885
   81MOL0     O10808   9.145   8.396   9.240 -0.0958 -0.1618  0.0748
   81MOL0     C10809   9.136   8.328   9.362 -0.0825  0.2681 -0.5428
   81MOL0     C10810   9.233   8.214   9.368  0.8054  0.1309 -0.2390
   81MOL0     C10811   9.387   8.251   9.347  0.1373 -0.0999  0.5658
   81MOL0     C10812   9.471   8.119   9.341 -0.2857 -0.7651  0.1216
   81MOL0     C10813   9.475   8.057   9.478  0.2703 -0.3339  0.1171
   81MOL0     C10814   9.591   7.961   9.496  0.4300 -1.0686 -0.5818
   81MOL0     C10815   9.722   8.032   9.528  0.5151 -0.1787 -0.0848
   81MOL0     C10816   9.847   7.943   9.522  0.8100 -0.5543 -0.2610
   81MOL0     N10817   9.980   8.012   9.542  0.4599  0.3646  0.5036
   81MOL0     C10818  10.016   8.149   9.550  1.1015  0.0103  0.8537
   81MOL0     C10819  10.148   8.146   9.581 -0.6921  0.2545 -0.0333
   81MOL0     C10820  10.235   8.267   9.619  0.2290 -0.2780  0.1581
   81MOL0     C10821  10.378   8.225   9.668  0.8826  0.2102 -0.0979
   81MOL0     C10822  10.458   8.334   9.723  0.1315  0.4144  0.6697
   81MOL0     C10823  10.600   8.283   9.758 -0.3444  0.4240 -0.2946
   81MOL0     O10824  10.668   8.376   9.848 -0.0602 -0.4907 -0.3609
   81MOL0     C10825  10.779   8.344   9.910 -0.4357  0.3451  0.3920
   81MOL0     C10826  10.819   8.217   9.954 -0.8918 -0.0299  0.6100
   81MOL0     C10827  10.946   8.201  10.025 -0.0699 -0.8231 -0.1967
   81MOL0     C10828  11.017   8.317  10.055  1.0320 -0.5623 -0.3919
   81MOL0     C10829  11.152   8.315  10.106  0.6796 -0.6451 -0.3735
   81MOL0     O10830  11.221   8.434  10.096 -0.1277 -0.6949 -0.0127
   81MOL0     C10831  11.339   8.451  10.167  0.5383  0.5710  0.6454
   81MOL0     C10832  11.361   8.394  10.293  0.9026 -0.3806  0.3270
   81MOL0     C10833  11.480   8.415  10.363 -0.5884 -0.1098  0.1287
   81MOL0     C10834  11.583   8.492  10.313  0.6261 -0.2585 -0.0341
   81MOL0     O10835  11.691   8.501  10.401  0.7118  0.2059  0.2630
   81MOL0     C10836  11.810   8.556  10.353 -0.2536 -0.4326  1.0067
   81MOL0     C10837  11.909   8.591  10.467 -0.7337  0.5800 -0.3857
   81MOL0     C10838  11.888   8.730  10.522 -0.6711 -0.7732  0.1014
   81MOL0     C10839  11.972   8.756  10.645  0.7207 -0.5026 -0.2376
   81MOL0     C10840  11.965   8.898  10.705 -0.4248 -1.0714  0.6311
   81MOL0     C10841  12.016   8.905  10.848 -0.3305  0.1703  0.2248
   81MOL0     C10842  12.020   9.055  10.896 -0.5056 -0.9418 -0.3764
   81MOL0     C10843  12.154   9.131  10.882 -0.2895  0.3926 -0.7376
   81MOL0    Cl10844  12.257   9.097  11.023 -0.2899 -0.4278  0.0472
   81MOL0     C10845  11.562   8.546  10.181  0.5246  0.3970  0.4451
   81MOL0     C10846  11.446   8.525  10.112  0.2051  0.0361 -0.2268
   81MOL0     O10847  11.194   8.208  10.145  0.0569  0.0535 -0.4801
   81MOL0     C10848  10.972   8.438  10.022  0.1613  0.2284  0.3577
   81MOL0     C10849  10.851   8.454   9.952  0.3493  0.8201  0.0948
   81MOL0     N10850  10.190   8.019   9.597  0.2075  0.7803 -0.8124
   81MOL0     N10851  10.093   7.941   9.574 -0.1061  0.1372  0.0533
   81MOL0     C10852   8.921   8.508   9.271 -0.4185 -0.2948  0.0837
   81MOL0     C10853   8.811   8.574   9.217 -1.0824  0.6715  0.1796
   81MOL0     C10854   8.533   8.836   9.017  0.6791  0.3445 -0.1380
   81MOL0     C10855   8.425   8.751   8.990 -0.1626  0.7163  0.4469
   81MOL0     C10856   8.297   8.786   8.950  0.9432  0.4879  0.0925
   81MOL0     C10857   8.261   8.922   8.933 -1.0277  1.0297  0.0632
   81MOL0     O10858   8.139   8.964   8.902  0.5678  0.3364 -0.2984
   81MOL0     C10859   8.097   8.948   8.766 -0.2578 -0.1925  0.4398
   81MOL0     C10860   8.153   9.070   8.683 -0.7682  1.0566 -0.0733
   81MOL0     C10861   8.067   9.189   8.714 -0.0883  0.2263  0.0404
   81MOL0     C10862   8.098   9.295   8.610 -0.1209  0.2061 -0.2641
   81MOL0     C10863   8.047   9.426   8.651 -0.4327  0.7852  0.0819
   81MOL0     C10864   8.005   9.535   8.679  0.0609 -0.0291  0.2617
   81MOL0     C10865   8.362   9.009   8.952 -0.9846 -0.3849  0.1507
   81MOL0     C10866   8.493   8.968   8.990  0.1809 -0.2213  0.1089
   81MOL0     C10867   8.592   9.089   8.986 -0.1276  0.8619  1.1000
   81MOL0     H10868   8.881   8.512   8.888 -0.7095 -0.2859  0.3469
   81MOL0     H10869   9.065   8.397   8.980  0.5659  2.0620 -0.3387
   81MOL0     H10870   9.158   8.389   9.450  2.0271 -1.4189  0.1710
   81MOL0     H10871   9.031   8.304   9.381 -0.1480  2.0654  1.9502
   81MOL0     H10872   9.206   8.134   9.298  0.4865 -1.8276  1.9861
   81MOL0     H10873   9.226   8.167   9.466  2.6567  0.6626  0.1928
   81MOL0     H10874   9.413   8.318   9.429 -1.3476  1.2081  0.0057
   81MOL0     H10875   9.390   8.289   9.245  0.6278 -0.0314  0.6020
   81MOL0     H10876   9.423   8.045   9.276 -1.1588  0.0769 -0.2244
   81MOL0     H10877   9.572   8.136   9.302 -1.2979  2.9255 -1.4052
   81MOL0     H10878   9.480   8.141   9.548 -0.0951 -1.7048  1.8581
   81MOL0     H10879   9.377   8.013   9.499  1.1268 -2.3971  0.0619
   81MOL0     H10880   9.565   7.897   9.582  0.5104  1.5733  1.5433
   81MOL0     H10881   9.586   7.897   9.408 -1.7732 -0.4612 -0.9486
   81MOL0     H10882   9.727   8.077   9.627 -0.5730  1.6939 -0.8386
   81MOL0     H10883   9.732   8.111   9.454 -3.4323  0.3086 -0.3257
   81MOL0     H10884   9.844   7.869   9.602 -1.4212  0.7055  0.9316
   81MOL0     H10885   9.852   7.895   9.424  1.8923 -2.0802  0.5140
   81MOL0     H10886   9.960   8.242   9.545  0.6328 -0.2529  1.1072
   81MOL0     H10887  10.226   8.327   9.528  0.7687  0.7899  0.7826
   81MOL0     H10888  10.184   8.322   9.698  1.3952 -0.9766  1.4358
   81MOL0     H10889  10.359   8.158   9.752  0.7019  0.2451 -0.1101
   81MOL0     H10890  10.430   8.161   9.597  1.3366 -0.6345  0.9776
   81MOL0     H10891  10.406   8.374   9.811 -2.1912 -0.3810 -0.2689
   81MOL0     H10892  10.475   8.421   9.659  2.5024  1.9234  3.1434
   81MOL0     H10893  10.662   8.273   9.669 -0.4716 -3.7575 -0.0898
   81MOL0     H10894  10.586   8.187   9.808 -2.5566 -0.1611 -1.8783
   81MOL0     H10895  10.752   8.135   9.928 -2.4986  1.8214 -1.4095
   81MOL0     H10896  10.973   8.107  10.072  0.8435  0.1902  1.4266
   81MOL0     H10897  11.279   8.344  10.343  0.4276  1.1062  1.0844
   81MOL0     H10898  11.498   8.376  10.462 -0.6385  0.9823  0.5764
   81MOL0     H10899  11.851   8.478  10.289  1.4205  0.1929  1.2760
   81MOL0     H10900  11.784   8.647  10.297  0.4248  0.6352  2.3643
   81MOL0     H10901  11.885   8.527  10.553 -1.0057  2.3331  0.9223
   81MOL0     H10902  12.014   8.572  10.445 -0.4525 -0.6836  1.6814
   81MOL0     H10903  11.910   8.809  10.450  0.6257 -1.3260 -0.1298
   81MOL0     H10904  11.785   8.748  10.554  0.5742  2.1037  3.0461
   81MOL0     H10905  12.079   8.745  10.624  1.4336  2.4207  1.3431
   81MOL0     H10906  11.939   8.678  10.715  0.4254  0.5400  0.8092
   81MOL0     H10907  11.864   8.940  10.707  0.9701  2.5713  2.0755
   81MOL0     H10908  12.021   8.971  10.646  0.7363 -1.0876  1.6766
   81MOL0     H10909  11.945   8.855  10.914 -1.7829 -0.0270 -1.4080
   81MOL0     H10910  12.118   8.866  10.863 -0.5470 -0.9131 -0.9281
   81MOL0     H10911  11.995   9.061  11.002  0.3400 -1.7008 -0.1145
   81MOL0     H10912  11.941   9.105  10.839 -0.7615 -0.0040  0.7792
   81MOL0     H10913  12.202   9.128  10.784  0.7531  2.4834 -0.3588
   81MOL0     H10914  12.145   9.239  10.895  4.0262  0.9927 -1.2036
   81MOL0     H10915  11.640   8.613  10.146  3.0225 -1.9816  1.1258
   81MOL0     H10916  11.429   8.582  10.021  0.9263  2.6878  1.1794
   81MOL0     H10917  11.024   8.532  10.039 -2.1679  1.9235 -1.1794
   81MOL0     H10918  10.815   8.556   9.942  1.7856  1.3169 -0.3477
   81MOL0     H10919   8.926   8.506   9.380  0.1889  1.2137  0.1055
   81MOL0     H10920   8.727   8.617   9.272  0.7671  3.8927  0.7171
   81MOL0     H10921   8.446   8.645   8.998 -0.5287  0.6955  1.2591
   81MOL0     H10922   8.224   8.707   8.954  0.5776  0.7916 -0.5136
   81MOL0     H10923   7.988   8.943   8.765 -0.4284  2.1353  1.6682
   81MOL0     H10924   8.139   8.856   8.725  0.3913  0.6372 -0.8134
   81MOL0     H10925   8.154   9.042   8.578  0.3861 -0.5727  0.3310
   81MOL0     H10926   8.258   9.084   8.710 -1.3003 -0.1854  3.2061
   81MOL0     H10927   8.089   9.218   8.817  1.5647  0.9163 -0.4748
   81MOL0     H10928   7.965   9.155   8.692  0.0194  1.0926 -2.0339
   81MOL0     H10929   8.206   9.308   8.599  0.1892 -2.4193 -0.8792
   81MOL0     H10930   8.065   9.266   8.510 -0.7182 -0.7561  0.2058
   81MOL0     H10931   7.963   9.631   8.702 -2.2012 -0.0637 -3.1074
   81MOL0     H10932   8.338   9.115   8.942  1.0468  0.1915  0.9737
   81MOL0     H10933   8.542   9.183   8.960 -1.3951 -0.3617 -1.2476
   81MOL0     H10934   8.620   9.098   9.091 -0.8431 -0.8710  1.4838
   81MOL0     H10935   8.675   9.084   8.916  0.1824 -0.1701  1.5144
   82MOL0     O10936   7.519   3.198   8.546  0.6156  0.3229 -0.2354
   82MOL0     C10937   7.443   3.212   8.648 -0.7496  0.4585 -0.9022
   82MOL0     O10938   7.478   3.261   8.771 -0.1624 -1.3083 -0.2727
   82MOL0     C10939   7.593   3.337   8.802 -1.4749  0.1402  0.2951
   82MOL0     C10940   7.591   3.459   8.871 -1.0097  0.5206 -0.2572
   82MOL0     C10941   7.710   3.538   8.873  0.5776 -0.9155 -0.2922
   82MOL0     C10942   7.827   3.506   8.801  0.0616 -0.2291 -0.6353
   82MOL0     O10943   7.945   3.574   8.795 -0.0809  0.3487  0.2963
   82MOL0     C10944   7.972   3.685   8.884  0.6076 -0.0096  0.8005
   82MOL0     C10945   8.097   3.765   8.853 -0.0826  0.2717  0.8242
   82MOL0     C10946   8.091   3.797   8.699 -0.3782 -0.8689  0.0426
   82MOL0     C10947   8.222   3.859   8.649  0.6627 -0.7302 -0.6120
   82MOL0     C10948   8.331   3.761   8.623 -0.9960 -0.3407 -0.9573
   82MOL0     C10949   8.441   3.823   8.548 -0.2170  0.3506  0.0595
   82MOL0     C10950   8.537   3.900   8.641  0.1285 -0.4568 -0.0629
   82MOL0     C10951   8.645   3.954   8.556 -0.4720 -0.2108 -0.0375
   82MOL0     N10952   8.745   4.033   8.626  0.0767 -1.1105  0.1620
   82MOL0     C10953   8.737   4.170   8.652  0.4153  0.3805 -0.6788
   82MOL0     C10954   8.847   4.203   8.713  0.0860  0.2646  0.0371
   82MOL0     C10955   8.884   4.327   8.786  0.0442  0.2136  0.0644
   82MOL0     C10956   8.939   4.310   8.917 -0.6408 -1.9892 -1.7694
   82MOL0     C10957   8.874   4.210   9.018  0.1448 -0.5162  0.0832
   82MOL0     C10958   8.986   4.179   9.119 -0.9316  0.2339 -0.6867
   82MOL0     O10959   8.934   4.088   9.217  0.9639  0.1800  0.3308
   82MOL0     C10960   9.003   4.063   9.333 -0.2048 -1.5268  0.2975
   82MOL0     C10961   8.928   4.008   9.433 -1.2068  0.5373 -0.1168
   82MOL0     C10962   8.981   4.008   9.566  0.7392  0.2029  0.3796
   82MOL0     C10963   9.109   4.051   9.597 -0.6914  0.5322  0.6696
   82MOL0     C10964   9.157   4.035   9.727 -0.1825 -0.2315  0.1308
   82MOL0     O10965   9.284   4.000   9.734 -0.7650  0.1038 -0.0475
   82MOL0     C10966   9.333   3.949   9.850 -0.8449 -0.2655 -0.1385
   82MOL0     C10967   9.407   4.027   9.950  0.2052 -0.8189  0.3504
   82MOL0     C10968   9.466   3.964  10.061 -0.4149 -0.3476 -0.7285
   82MOL0     C10969   9.447   3.833  10.091 -0.2354 -0.0430  0.3427
   82MOL0     O10970   9.505   3.768  10.193  0.2478  0.5395  0.0136
   82MOL0     C10971   9.507   3.836  10.320  0.6227 -0.3205 -0.6295
   82MOL0     C10972   9.524   3.745  10.442 -0.4893 -0.3012 -0.3330
   82MOL0     C10973   9.431   3.623  10.447 -0.0852  0.2638 -0.1253
   82MOL0     C10974   9.417   3.555  10.579  0.8238  0.1369  0.7642
   82MOL0     C10975   9.437   3.402  10.568  0.4091 -1.0552 -0.6456
   82MOL0     C10976   9.389   3.323  10.700  0.5472  0.2062  0.0206
   82MOL0     C10977   9.397   3.166  10.692  0.2999 -0.2136 -0.0487
   82MOL0     C10978   9.501   3.118  10.597 -0.7581  0.7564 -0.5978
   82MOL0    Cl10979   9.664   3.163  10.643  0.5596 -0.3849  0.3822
   82MOL0     C10980   9.376   3.755   9.995  0.4825 -0.1601 -0.6098
   82MOL0     C10981   9.318   3.808   9.879  0.1049 -0.3120 -0.0595
   82MOL0     O10982   9.077   4.042   9.819 -0.1896  0.3479 -0.7021
   82MOL0     C10983   9.184   4.100   9.493  0.2919 -0.2650  0.1569
   82MOL0     C10984   9.136   4.107   9.366 -0.0645 -0.4588 -0.2099
   82MOL0     N10985   8.937   4.094   8.719 -0.9171  0.0774 -0.3384
   82MOL0     N10986   8.871   3.997   8.653 -0.1460  0.0806 -0.5939
   82MOL0     C10987   7.831   3.388   8.728  0.4659 -0.7862  0.7966
   82MOL0     C10988   7.714   3.304   8.732  0.4822  0.7112  0.3962
   82MOL0     C10989   7.302   3.180   8.620  0.0225 -0.6341 -1.1993
   82MOL0     C10990   7.254   3.187   8.487 -0.2247  0.1657 -0.3980
   82MOL0     C10991   7.115   3.163   8.461 -0.2823 -0.1515 -0.0000
   82MOL0     C10992   7.025   3.145   8.569 -0.4991  0.1333  1.0196
   82MOL0     O10993   6.891   3.136   8.552 -0.0755  0.9638 -0.5883
   82MOL0     C10994   6.845   3.135   8.422 -0.1878 -0.2525  0.3799
   82MOL0     C10995   6.695   3.116   8.431 -0.1320  0.4522  0.1314
   82MOL0     C10996   6.651   2.976   8.489 -0.1686  0.1255  0.7569
   82MOL0     C10997   6.490   2.956   8.470 -0.0458 -0.3498  0.3689
   82MOL0     C10998   6.428   3.051   8.566  0.2364  0.3115  0.2457
   82MOL0     C10999   6.357   3.124   8.639  0.7972  0.2485  0.1473
   82MOL0     C11000   7.077   3.132   8.696  0.5813  1.0446 -0.0008
   82MOL0     C11001   7.214   3.150   8.725  0.2409 -0.6757  0.6205
   82MOL0     C11002   7.260   3.106   8.863 -0.2474  0.4915  0.1425
   82MOL0     H11003   7.507   3.497   8.928  3.1352  5.4167  3.6065
   82MOL0     H11004   7.702   3.628   8.933  2.0906 -0.8545 -0.1330
   82MOL0     H11005   7.879   3.743   8.880 -0.5819 -1.7992 -3.0495
   82MOL0     H11006   7.981   3.648   8.986  2.3658 -0.5111  0.4946
   82MOL0     H11007   8.179   3.695   8.872 -0.1682  0.4266  1.8202
   82MOL0     H11008   8.100   3.849   8.923 -0.8970  0.5260  0.5645
   82MOL0     H11009   8.016   3.878   8.697  1.0635  0.7194  3.2799
   82MOL0     H11010   8.064   3.709   8.639  1.0058 -0.9326 -0.5053
   82MOL0     H11011   8.203   3.913   8.556  0.7578 -0.2627 -0.3666
   82MOL0     H11012   8.248   3.928   8.730  1.9122 -1.6854 -0.1577
   82MOL0     H11013   8.386   3.721   8.709  4.2838  0.1310 -3.7270
   82MOL0     H11014   8.283   3.686   8.560 -1.3661  1.0229 -2.3546
   82MOL0     H11015   8.503   3.747   8.499  0.6410  1.6750 -0.9686
   82MOL0     H11016   8.397   3.890   8.473 -1.8352 -0.4825  0.2084
   82MOL0     H11017   8.581   3.830   8.713  0.9975 -0.7940 -0.8962
   82MOL0     H11018   8.490   3.983   8.694 -0.0741 -0.0828 -0.8148
   82MOL0     H11019   8.701   3.874   8.506 -0.1166  0.2285 -0.3527
   82MOL0     H11020   8.605   4.018   8.477  0.6580 -3.0538 -3.1805
   82MOL0     H11021   8.644   4.224   8.647  0.9065  1.2766 -0.2938
   82MOL0     H11022   8.960   4.371   8.721  2.8084  0.0748  2.9570
   82MOL0     H11023   8.792   4.386   8.790 -0.1839 -0.1025 -0.3821
   82MOL0     H11024   9.043   4.279   8.905  0.1773 -0.2961  0.2908
   82MOL0     H11025   8.946   4.409   8.963  0.1253 -3.0289  0.5086
   82MOL0     H11026   8.822   4.120   8.987 -1.5640 -1.5648  5.0381
   82MOL0     H11027   8.792   4.263   9.068  0.7869  1.3042 -0.7038
   82MOL0     H11028   9.026   4.271   9.163  0.2671 -0.9142  0.7456
   82MOL0     H11029   9.076   4.134   9.075 -1.0943  1.9754 -3.0065
   82MOL0     H11030   8.821   3.999   9.422 -1.2193 -1.2427  1.0947
   82MOL0     H11031   8.920   3.971   9.647 -0.2513 -2.0424 -1.2989
   82MOL0     H11032   9.434   4.128   9.921 -2.0955 -0.3321 -0.2816
   82MOL0     H11033   9.524   4.031  10.124 -0.4743  1.5016 -2.5465
   82MOL0     H11034   9.592   3.904  10.316  0.5896  0.2823  3.9780
   82MOL0     H11035   9.421   3.902  10.335 -0.3777 -1.8632  0.8558
   82MOL0     H11036   9.627   3.711  10.454 -1.1302 -2.2546  0.0637
   82MOL0     H11037   9.493   3.813  10.522 -0.1217  0.6989 -1.0262
   82MOL0     H11038   9.331   3.654  10.416 -0.6398 -0.8338  0.4842
   82MOL0     H11039   9.464   3.553  10.370  5.1068  0.3409  1.6796
   82MOL0     H11040   9.310   3.565  10.604  0.0673  3.4195 -2.9722
   82MOL0     H11041   9.484   3.592  10.657  1.3784 -0.2588  0.4844
   82MOL0     H11042   9.545   3.393  10.558  0.5694 -0.6950  0.6279
   82MOL0     H11043   9.385   3.357  10.483  0.4647 -1.4602 -0.4670
   82MOL0     H11044   9.455   3.360  10.779 -0.3831  1.9187  0.0544
   82MOL0     H11045   9.296   3.356  10.747  1.2997  1.9361  0.3930
   82MOL0     H11046   9.296   3.141  10.658  0.5561 -2.2095  0.5742
   82MOL0     H11047   9.415   3.117  10.788 -1.9793  0.0189  0.5699
   82MOL0     H11048   9.509   3.011  10.577  0.7041  0.7903 -0.2797
   82MOL0     H11049   9.486   3.166  10.499  0.5944  1.3641 -0.5299
   82MOL0     H11050   9.383   3.650  10.023 -0.0802  0.1673  0.8294
   82MOL0     H11051   9.264   3.736   9.818  1.3624 -2.8513  1.6342
   82MOL0     H11052   9.280   4.145   9.516 -0.7104  0.7651  2.5873
   82MOL0     H11053   9.192   4.167   9.295 -0.1035  0.6187  0.6421
   82MOL0     H11054   7.920   3.362   8.672  0.1085 -1.2377  0.4142
   82MOL0     H11055   7.722   3.216   8.669 -0.0484  0.1901  1.0441
   82MOL0     H11056   7.315   3.222   8.405 -2.7960  1.0909 -2.0358
   82MOL0     H11057   7.080   3.167   8.358 -1.7899  0.8560  0.5236
   82MOL0     H11058   6.898   3.064   8.358 -0.1582  0.5021 -0.4490
   82MOL0     H11059   6.862   3.241   8.397  2.4151 -0.3858  1.2428
   82MOL0     H11060   6.657   3.126   8.329 -0.2579 -0.8951  0.0221
   82MOL0     H11061   6.648   3.182   8.504  1.0016 -1.6975  3.0140
   82MOL0     H11062   6.677   2.969   8.595  1.5866  0.6234  0.3987
   82MOL0     H11063   6.689   2.894   8.428 -1.3747 -0.1091  0.2908
   82MOL0     H11064   6.450   2.970   8.370 -0.3025 -1.9106  0.2377
   82MOL0     H11065   6.464   2.854   8.498  0.2570  0.1217  2.6419
   82MOL0     H11066   6.290   3.185   8.696 -1.3321 -2.0044  0.2070
   82MOL0     H11067   7.002   3.110   8.771  2.0511  1.4185  1.6605
   82MOL0     H11068   7.297   3.184   8.931 -1.2719 -1.0082  2.5490
   82MOL0     H11069   7.179   3.052   8.914  0.1983  2.2726  2.9953
   82MOL0     H11070   7.347   3.043   8.848 -0.5507  0.0955  0.0321
   83MOL0     O11071  11.191   7.066   4.667 -0.0554 -0.2848 -1.0037
   83MOL0     C11072  11.103   7.088   4.576  0.0243  0.5575 -0.4886
   83MOL0     O11073  11.077   6.998   4.474  0.1177 -0.0199 -1.1271
   83MOL0     C11074  11.159   6.890   4.452  0.8864 -0.1923  0.0998
   83MOL0     C11075  11.256   6.896   4.351 -0.2641  0.1555 -0.0423
   83MOL0     C11076  11.331   6.779   4.328  0.3788  0.2964 -0.2448
   83MOL0     C11077  11.309   6.657   4.391 -0.8117  0.2843 -0.4139
   83MOL0     O11078  11.387   6.546   4.357 -0.1634 -0.3319 -0.0112
   83MOL0     C11079  11.433   6.527   4.222 -0.7586 -0.7460 -0.7638
   83MOL0     C11080  11.485   6.376   4.202  0.2653 -0.5260 -0.1086
   83MOL0     C11081  11.499   6.334   4.063 -0.8042  0.4273  0.6164
   83MOL0     C11082  11.561   6.192   4.060  0.5318 -0.2491 -0.2671
   83MOL0     C11083  11.589   6.143   3.917 -0.2212  0.5586 -0.7694
   83MOL0     C11084  11.667   6.229   3.814 -0.0145  0.5749  0.4701
   83MOL0     C11085  11.673   6.172   3.665  0.2244 -0.7007 -0.5084
   83MOL0     C11086  11.762   6.258   3.578 -0.0802  0.0049  0.9371
   83MOL0     N11087  11.917   6.239   3.587  0.8442 -0.0339 -0.4104
   83MOL0     C11088  11.988   6.150   3.506 -0.5391  0.1909  1.0551
   83MOL0     C11089  12.110   6.210   3.504 -0.3891 -0.2780  0.1983
   83MOL0     C11090  12.238   6.182   3.419  0.6042 -0.3088  0.2286
   83MOL0     C11091  12.238   6.262   3.279  0.9309 -0.7796 -0.8987
   83MOL0     C11092  12.108   6.240   3.191  0.1770  0.1385 -0.1902
   83MOL0     C11093  12.092   6.104   3.141  1.2290 -0.1436 -0.0258
   83MOL0     O11094  12.165   6.078   3.024  0.0130 -0.0689  0.7526
   83MOL0     C11095  12.195   5.949   3.010 -0.5254  0.3311  0.1145
   83MOL0     C11096  12.094   5.853   2.989 -0.3588  0.3465  0.2517
   83MOL0     C11097  12.118   5.714   2.973  0.3367  0.4645  0.0240
   83MOL0     C11098  12.254   5.674   2.973  0.0599  1.2260 -1.7952
   83MOL0     C11099  12.286   5.529   2.996  0.8194  0.4125  1.1009
   83MOL0     O11100  12.425   5.504   3.003 -0.0158 -0.5482 -0.5808
   83MOL0     C11101  12.475   5.383   2.999  0.6370 -1.1538  0.5410
   83MOL0     C11102  12.457   5.282   3.091  0.1266 -0.0910 -0.7167
   83MOL0     C11103  12.550   5.180   3.095 -0.2355 -0.1782  0.2812
   83MOL0     C11104  12.656   5.171   3.004  0.4396 -0.4212 -0.5299
   83MOL0     O11105  12.745   5.066   3.024  0.0189 -0.7628 -0.4638
   83MOL0     C11106  12.880   5.079   2.977 -0.2072  0.5075 -0.8946
   83MOL0     C11107  12.957   5.159   3.082 -0.6035 -0.0394  1.0711
   83MOL0     C11108  13.113   5.163   3.063 -0.1568 -0.6984  0.7476
   83MOL0     C11109  13.160   5.147   2.924  0.0046  0.0136  0.0700
   83MOL0     C11110  13.307   5.162   2.903 -0.3218  0.9118 -0.6390
   83MOL0     C11111  13.337   5.148   2.755  0.3759  1.0850  0.6849
   83MOL0     C11112  13.481   5.186   2.722  0.1997  0.1922  0.1377
   83MOL0     C11113  13.529   5.326   2.744 -0.7812 -0.1347 -0.2315
   83MOL0    Cl11114  13.699   5.362   2.682  0.2784 -0.3161 -0.1020
   83MOL0     C11115  12.667   5.271   2.905  0.3272  0.1437  0.0252
   83MOL0     C11116  12.573   5.378   2.906 -1.2681  0.2055  0.2180
   83MOL0     O11117  12.194   5.447   2.987  0.3173  0.9219  0.1883
   83MOL0     C11118  12.350   5.776   2.987  0.6370  1.0381  0.4694
   83MOL0     C11119  12.320   5.908   2.994  0.1718  0.2782  0.0894
   83MOL0     N11120  12.112   6.314   3.593 -0.4220 -0.4241 -0.0083
   83MOL0     N11121  12.000   6.315   3.653 -0.3354  0.2736  0.7656
   83MOL0     C11122  11.202   6.650   4.484 -0.0700 -0.1693  0.1044
   83MOL0     C11123  11.126   6.764   4.511 -0.2460  0.0330 -0.1362
   83MOL0     C11124  11.025   7.208   4.595  0.4069  0.7369 -0.7760
   83MOL0     C11125  11.038   7.290   4.708  0.0278  0.5993 -0.1773
   83MOL0     C11126  10.970   7.410   4.718 -1.1667 -0.8636 -0.4244
   83MOL0     C11127  10.887   7.459   4.615 -0.0788 -0.4039 -1.4809
   83MOL0     O11128  10.844   7.589   4.610 -0.1092  0.7518 -0.2823
   83MOL0     C11129  10.952   7.692   4.632  0.7631  0.4556 -0.4472
   83MOL0     C11130  10.883   7.822   4.672 -1.0031 -0.2495  0.6440
   83MOL0     C11131  10.840   7.904   4.540 -0.4651  0.4569 -0.9635
   83MOL0     C11132  10.953   7.989   4.491 -0.0297 -0.0968  0.2674
   83MOL0     C11133  10.903   8.099   4.398  0.2945  0.6518  0.6167
   83MOL0     C11134  10.836   8.169   4.325  0.1763  0.6616  0.4929
   83MOL0     C11135  10.851   7.372   4.518  0.1408 -0.4728  0.2868
   83MOL0     C11136  10.911   7.243   4.508  0.5390  0.1781  0.1966
   83MOL0     C11137  10.866   7.164   4.386  0.0745 -0.6123  0.5797
   83MOL0     H11138  11.278   6.991   4.305  3.1162 -0.0053  1.0149
   83MOL0     H11139  11.412   6.797   4.258  3.3731  1.3551  3.1918
   83MOL0     H11140  11.359   6.553   4.145 -0.8324 -0.6041 -0.6454
   83MOL0     H11141  11.524   6.586   4.209 -0.6963 -0.9002 -1.0438
   83MOL0     H11142  11.416   6.307   4.250  0.8637 -0.0440  1.5006
   83MOL0     H11143  11.586   6.362   4.242  0.8386 -1.3294 -1.7548
   83MOL0     H11144  11.570   6.402   4.015 -0.7994  0.6878  0.9920
   83MOL0     H11145  11.408   6.326   4.003  0.7652  2.2587 -2.2893
   83MOL0     H11146  11.657   6.202   4.112 -0.0066  2.3068  0.3643
   83MOL0     H11147  11.493   6.121   4.108  0.0250 -1.9318 -3.1674
   83MOL0     H11148  11.648   6.051   3.913 -0.1121  0.6495 -4.0089
   83MOL0     H11149  11.492   6.116   3.876 -0.4958 -0.2114  0.3397
   83MOL0     H11150  11.618   6.326   3.802  4.9366  3.1683 -1.4582
   83MOL0     H11151  11.767   6.248   3.854  0.4398 -2.2750  0.8414
   83MOL0     H11152  11.571   6.181   3.626  0.6590 -0.7181 -1.7031
   83MOL0     H11153  11.702   6.067   3.665  1.2413 -0.4352  0.0957
   83MOL0     H11154  11.720   6.251   3.477  0.0929 -0.4777  0.8930
   83MOL0     H11155  11.744   6.359   3.616 -0.1209  0.8943 -1.2807
   83MOL0     H11156  11.945   6.071   3.445  2.3628  0.4810 -1.5971
   83MOL0     H11157  12.330   6.212   3.470  1.0408  2.4869 -1.9203
   83MOL0     H11158  12.244   6.074   3.409  2.6842 -0.1903 -0.1745
   83MOL0     H11159  12.221   6.366   3.308 -0.8273 -1.3323  0.2032
   83MOL0     H11160  12.338   6.262   3.236  1.3180 -1.3494 -0.0176
   83MOL0     H11161  12.116   6.302   3.101  1.1001 -0.5797 -0.6240
   83MOL0     H11162  12.020   6.268   3.249  0.0760  1.5015 -0.9375
   83MOL0     H11163  11.986   6.095   3.117  0.8558  2.9407  0.0772
   83MOL0     H11164  12.099   6.028   3.219 -1.7811 -1.2073 -0.6684
   83MOL0     H11165  11.989   5.882   2.988 -0.6502 -0.2780 -3.6627
   83MOL0     H11166  12.024   5.661   2.965  0.0039  0.8585  1.1676
   83MOL0     H11167  12.385   5.283   3.172  0.1443 -0.0434 -0.7015
   83MOL0     H11168  12.528   5.109   3.174 -1.0587  0.9588  1.1215
   83MOL0     H11169  12.920   4.977   2.972 -2.5062 -0.5029 -0.0250
   83MOL0     H11170  12.891   5.117   2.875  1.9754  1.6475 -0.2803
   83MOL0     H11171  12.915   5.260   3.074 -0.4670 -0.1217 -3.5768
   83MOL0     H11172  12.944   5.115   3.181  0.8161  0.7357  1.6271
   83MOL0     H11173  13.163   5.249   3.109  0.4051 -2.1111  2.9661
   83MOL0     H11174  13.157   5.073   3.109  2.3045 -1.4468 -2.6611
   83MOL0     H11175  13.111   5.222   2.863 -3.5491 -1.8600  0.3768
   83MOL0     H11176  13.138   5.048   2.883  0.9373  0.2230 -0.9571
   83MOL0     H11177  13.362   5.094   2.969 -3.6899  0.2977  1.7821
   83MOL0     H11178  13.332   5.265   2.932  1.8606  0.1942  0.2034
   83MOL0     H11179  13.323   5.043   2.728  1.2965  0.9675  0.6468
   83MOL0     H11180  13.257   5.198   2.700 -1.3524 -0.7587  1.3707
   83MOL0     H11181  13.477   5.170   2.614  0.7197 -1.0354  0.2865
   83MOL0     H11182  13.546   5.115   2.774  0.2875  0.9043  1.0365
   83MOL0     H11183  13.460   5.402   2.708  2.5582  3.4582  0.3762
   83MOL0     H11184  13.535   5.341   2.852  0.7582  1.3627 -0.4891
   83MOL0     H11185  12.751   5.269   2.837  1.3135 -1.1435  1.2221
   83MOL0     H11186  12.595   5.453   2.830 -4.2841 -0.2861 -1.2861
   83MOL0     H11187  12.452   5.741   2.993  0.3937 -0.0767 -1.1022
   83MOL0     H11188  12.400   5.980   3.008 -0.0867  0.4906  0.4524
   83MOL0     H11189  11.175   6.554   4.527 -0.9449 -0.2216 -0.5315
   83MOL0     H11190  11.035   6.761   4.570 -2.5268  1.3409 -3.2690
   83MOL0     H11191  11.098   7.258   4.793 -2.1231 -0.1036  1.1603
   83MOL0     H11192  11.000   7.474   4.801 -2.0537 -0.5268 -0.3545
   83MOL0     H11193  11.021   7.708   4.548 -0.6754  0.7217 -1.6195
   83MOL0     H11194  11.015   7.664   4.717 -1.2883 -0.6066  0.8052
   83MOL0     H11195  10.948   7.874   4.742  0.9937  0.3251 -1.4869
   83MOL0     H11196  10.793   7.803   4.731 -1.4770  1.3352  0.4807
   83MOL0     H11197  10.751   7.964   4.560 -2.4612 -1.9081 -2.2232
   83MOL0     H11198  10.807   7.834   4.463  0.2210 -1.3205  0.2943
   83MOL0     H11199  11.016   8.034   4.568 -1.8084  1.8875  0.6776
   83MOL0     H11200  11.015   7.926   4.427  0.6657 -0.7219  1.5158
   83MOL0     H11201  10.762   8.224   4.271 -1.7760 -3.2593 -1.2417
   83MOL0     H11202  10.779   7.414   4.448 -1.2740 -0.5121  1.6524
   83MOL0     H11203  10.771   7.202   4.346  0.5347 -2.4439 -2.6176
   83MOL0     H11204  10.926   7.166   4.295 -0.9705  1.1101 -0.1272
   83MOL0     H11205  10.855   7.061   4.422 -0.5784 -1.2611 -1.3592
   84MOL0     O11206   6.687   8.743   0.806  0.1966  0.2571 -0.3113
   84MOL0     C11207   6.670   8.622   0.801  0.3558 -0.9592 -0.3185
   84MOL0     O11208   6.764   8.520   0.819  0.1645  0.3786  0.2913
   84MOL0     C11209   6.890   8.551   0.826 -0.7312  0.8410 -0.9316
   84MOL0     C11210   6.971   8.561   0.941 -0.8645 -0.9160  0.3446
   84MOL0     C11211   7.113   8.575   0.924  0.0090  0.1796 -0.3225
   84MOL0     C11212   7.168   8.549   0.796 -0.1754  0.6214  0.5532
   84MOL0     O11213   7.299   8.550   0.762 -0.2947  0.7119  0.5613
   84MOL0     C11214   7.399   8.478   0.853  0.3611 -0.4701  0.0809
   84MOL0     C11215   7.542   8.488   0.800  0.2129  0.1339  0.2427
   84MOL0     C11216   7.639   8.416   0.893  0.6745  0.1821  0.9581
   84MOL0     C11217   7.784   8.421   0.840 -0.0022 -0.0447 -0.1440
   84MOL0     C11218   7.867   8.421   0.977 -0.4065 -0.2151 -0.0560
   84MOL0     C11219   8.016   8.397   0.951  0.1939  0.0141  0.9334
   84MOL0     C11220   8.116   8.473   1.039  0.6033  0.4858 -0.3218
   84MOL0     C11221   8.108   8.619   1.022 -0.5920  0.1398 -0.2619
   84MOL0     N11222   8.244   8.672   1.051 -1.3446  0.5402 -0.1546
   84MOL0     C11223   8.318   8.667   1.172 -0.4491 -0.3999  0.0715
   84MOL0     C11224   8.442   8.707   1.136 -1.5016 -0.5866  0.0848
   84MOL0     C11225   8.564   8.703   1.226  0.3030 -0.0179 -1.0493
   84MOL0     C11226   8.683   8.605   1.194 -0.2642  0.5800 -0.5606
   84MOL0     C11227   8.792   8.680   1.118  0.4449 -0.2539  0.2689
   84MOL0     C11228   8.922   8.608   1.095  0.7442  1.1080  0.2983
   84MOL0     O11229   8.992   8.603   1.214  1.4538 -0.5253 -0.1532
   84MOL0     C11230   9.113   8.656   1.224  0.2582  0.7631 -1.0647
   84MOL0     C11231   9.218   8.578   1.181 -0.6056 -1.3614 -0.2891
   84MOL0     C11232   9.347   8.630   1.196  0.3051  0.0948  0.3891
   84MOL0     C11233   9.370   8.757   1.248  0.9861 -0.2379  1.0414
   84MOL0     C11234   9.493   8.830   1.232 -0.3843  0.0017 -0.4337
   84MOL0     O11235   9.595   8.764   1.182  0.0774  0.0986 -0.3382
   84MOL0     C11236   9.726   8.804   1.218  0.7312 -1.1636  0.4913
   84MOL0     C11237   9.824   8.790   1.118 -0.1052  0.1311 -0.2723
   84MOL0     C11238   9.959   8.823   1.143 -0.8430 -0.5704  0.7706
   84MOL0     C11239   9.998   8.861   1.273 -0.1392 -0.1814 -0.1848
   84MOL0     O11240  10.137   8.848   1.303  0.3422 -0.1206  0.5631
   84MOL0     C11241  10.190   8.915   1.426  1.0070 -0.4676  0.3154
   84MOL0     C11242  10.173   9.073   1.432 -0.5200  0.4025 -0.2754
   84MOL0     C11243  10.258   9.130   1.542  0.1716  0.4154  0.0723
   84MOL0     C11244  10.232   9.285   1.566 -0.3804 -0.0486 -0.1194
   84MOL0     C11245  10.300   9.333   1.684 -0.3693 -0.0264 -0.0074
   84MOL0     C11246  10.446   9.372   1.646  0.7158  0.7263  0.4956
   84MOL0     C11247  10.508   9.438   1.771  0.4729 -0.7349 -1.0074
   84MOL0     C11248  10.658   9.446   1.767 -0.1590 -1.0660 -0.2811
   84MOL0    Cl11249  10.716   9.533   1.615 -0.2643 -0.3763 -0.4804
   84MOL0     C11250   9.897   8.874   1.370 -0.4745  0.9781 -0.5423
   84MOL0     C11251   9.759   8.845   1.346 -0.8207  0.5160  0.6631
   84MOL0     O11252   9.502   8.948   1.273 -0.6933  0.0729 -0.2048
   84MOL0     C11253   9.259   8.833   1.292  0.7010 -0.1197 -0.5458
   84MOL0     C11254   9.134   8.780   1.288  0.6019  0.0851 -0.9774
   84MOL0     N11255   8.444   8.758   1.003  0.6799 -0.0962 -0.0627
   84MOL0     N11256   8.321   8.744   0.959  0.1131  0.6124  0.1770
   84MOL0     C11257   7.092   8.531   0.682  0.4246 -0.1191  0.2089
   84MOL0     C11258   6.954   8.538   0.693 -0.9334 -1.1016 -0.1858
   84MOL0     C11259   6.534   8.573   0.778 -0.5945 -0.6426  1.1963
   84MOL0     C11260   6.524   8.455   0.697 -1.1999  0.0855 -0.0976
   84MOL0     C11261   6.397   8.392   0.668 -0.3570 -0.4020 -0.3452
   84MOL0     C11262   6.283   8.442   0.712  0.0598  0.0760  0.0948
   84MOL0     O11263   6.173   8.365   0.688  0.2010  0.0165  0.4684
   84MOL0     C11264   6.043   8.425   0.704  0.7141 -0.1431 -0.4960
   84MOL0     C11265   5.924   8.354   0.640  0.2223 -0.8829  0.3274
   84MOL0     C11266   5.875   8.227   0.715 -0.6373  0.7916  0.0480
   84MOL0     C11267   5.827   8.136   0.606 -0.5362 -0.5307  0.0290
   84MOL0     C11268   5.939   8.073   0.530  0.3851  0.5923 -0.0305
   84MOL0     C11269   6.020   8.021   0.463  0.4234  1.0699  0.3752
   84MOL0     C11270   6.290   8.558   0.788  0.7110  0.3037 -0.3698
   84MOL0     C11271   6.408   8.626   0.817 -1.2841 -0.3344 -0.5452
   84MOL0     C11272   6.394   8.755   0.898  1.1472  0.9569 -0.7204
   84MOL0     H11273   6.923   8.570   1.038 -0.3936 -1.6268  0.6514
   84MOL0     H11274   7.181   8.598   1.006  0.3842  1.4353 -0.9547
   84MOL0     H11275   7.397   8.516   0.955  0.6526  1.6287 -0.6476
   84MOL0     H11276   7.376   8.371   0.851  3.8200 -1.3421  0.8891
   84MOL0     H11277   7.556   8.595   0.784 -2.0785  0.1483 -2.5825
   84MOL0     H11278   7.549   8.436   0.704  3.4779 -1.4261  1.1832
   84MOL0     H11279   7.616   8.309   0.897  2.4577 -0.3225 -0.8284
   84MOL0     H11280   7.624   8.458   0.993  2.5659 -0.1975  1.4353
   84MOL0     H11281   7.797   8.343   0.765 -3.2079  0.1483 -1.0748
   84MOL0     H11282   7.811   8.512   0.786  1.1935 -0.0968  0.3340
   84MOL0     H11283   7.847   8.519   1.020 -1.7086 -1.0122  1.2856
   84MOL0     H11284   7.846   8.342   1.050  1.8012 -0.2687  0.6045
   84MOL0     H11285   8.028   8.288   0.950  3.6038  0.2678  1.6506
   84MOL0     H11286   8.036   8.425   0.847 -1.5464  1.5152  0.9523
   84MOL0     H11287   8.217   8.439   1.016  0.0421 -0.8032 -1.0289
   84MOL0     H11288   8.093   8.448   1.143 -4.6278 -3.4748 -1.9363
   84MOL0     H11289   8.082   8.644   0.918 -1.1121 -1.1789 -0.4669
   84MOL0     H11290   8.032   8.662   1.088 -2.7659 -3.1651 -0.4251
   84MOL0     H11291   8.278   8.631   1.266 -0.0157  2.8056  1.6446
   84MOL0     H11292   8.601   8.802   1.254 -3.3389  0.8065  1.5249
   84MOL0     H11293   8.524   8.676   1.325  0.6561  0.6641 -0.7111
   84MOL0     H11294   8.732   8.583   1.289 -2.6732 -0.2399  0.5708
   84MOL0     H11295   8.646   8.508   1.159 -3.0087  0.8364  1.3208
   84MOL0     H11296   8.808   8.777   1.164  0.6229  0.3426 -1.0032
   84MOL0     H11297   8.735   8.706   1.028 -1.2442 -1.0430  1.0652
   84MOL0     H11298   8.971   8.668   1.018  2.5715 -3.4475 -2.4906
   84MOL0     H11299   8.893   8.509   1.062 -0.9750  1.1464  1.5690
   84MOL0     H11300   9.194   8.478   1.146 -3.4233 -0.1199 -2.3171
   84MOL0     H11301   9.429   8.573   1.151 -1.6054 -1.5467 -1.2182
   84MOL0     H11302   9.798   8.756   1.018 -0.0232  1.4030 -0.7493
   84MOL0     H11303  10.036   8.816   1.068 -3.6055  0.5570 -2.4123
   84MOL0     H11304  10.129   8.879   1.510  1.7726  1.2340  1.6447
   84MOL0     H11305  10.295   8.890   1.440  0.8759 -0.6148  1.0875
   84MOL0     H11306  10.209   9.127   1.344  0.6912 -1.3687 -0.9067
   84MOL0     H11307  10.067   9.095   1.452 -0.6267  0.6205 -1.0512
   84MOL0     H11308  10.230   9.069   1.628  1.2716 -1.1949 -0.6515
   84MOL0     H11309  10.367   9.122   1.536  0.2452  0.2224  1.4036
   84MOL0     H11310  10.124   9.300   1.569 -0.5677 -0.1396 -3.0254
   84MOL0     H11311  10.267   9.343   1.479 -2.1509  0.1931 -0.7015
   84MOL0     H11312  10.293   9.266   1.770  1.0589  2.8068  2.4938
   84MOL0     H11313  10.250   9.423   1.720  2.0218  0.8834  1.2528
   84MOL0     H11314  10.491   9.276   1.619  1.8563  0.7782  2.0182
   84MOL0     H11315  10.445   9.448   1.568  2.4018  0.5007  0.2061
   84MOL0     H11316  10.479   9.381   1.860 -0.9123 -0.0015 -0.9507
   84MOL0     H11317  10.450   9.530   1.785 -0.0394 -1.1671 -0.2093
   84MOL0     H11318  10.696   9.489   1.861 -0.3043 -1.5929  0.0276
   84MOL0     H11319  10.693   9.342   1.775  1.5176 -0.9147 -3.7685
   84MOL0     H11320   9.922   8.902   1.472  0.5225 -0.3501 -0.3939
   84MOL0     H11321   9.683   8.853   1.423 -0.4060 -2.6040  1.5538
   84MOL0     H11322   9.253   8.936   1.323 -0.1777  0.3475 -2.1350
   84MOL0     H11323   9.046   8.829   1.330 -0.2517 -2.5572  0.5458
   84MOL0     H11324   7.138   8.528   0.584  0.5546  4.4907 -0.1137
   84MOL0     H11325   6.884   8.535   0.610 -0.4843  1.7701 -0.7844
   84MOL0     H11326   6.616   8.405   0.668 -0.1064  2.4874 -1.0097
   84MOL0     H11327   6.394   8.297   0.616 -0.3044  0.1564 -1.3885
   84MOL0     H11328   6.057   8.530   0.675  0.4081 -0.6432 -2.5678
   84MOL0     H11329   6.023   8.432   0.811  1.1075 -4.7345  0.0656
   84MOL0     H11330   5.942   8.328   0.535 -0.0622 -2.9057  0.7234
   84MOL0     H11331   5.840   8.423   0.650 -0.1841 -0.7964 -2.6066
   84MOL0     H11332   5.792   8.262   0.777 -0.8009 -1.5880  1.2799
   84MOL0     H11333   5.950   8.171   0.772 -0.9464 -3.4048 -3.1817
   84MOL0     H11334   5.766   8.058   0.654 -0.2153 -1.7813 -1.5161
   84MOL0     H11335   5.783   8.204   0.533 -0.0853 -0.1468  0.1109
   84MOL0     H11336   6.102   7.978   0.410 -2.0656 -1.2887 -1.9229
   84MOL0     H11337   6.199   8.598   0.833  0.8061  0.0390  0.0696
   84MOL0     H11338   6.476   8.759   0.969 -1.5051 -0.0471  2.6692
   84MOL0     H11339   6.392   8.840   0.828  0.1096 -0.3802 -2.4167
   84MOL0     H11340   6.301   8.744   0.955  2.3623 -2.6831  0.8522
   85MOL0     O11341  10.690   2.409   8.636  0.2920 -0.0651  0.2640
   85MOL0     C11342  10.689   2.528   8.631  0.2920 -0.7104 -0.1686
   85MOL0     O11343  10.774   2.606   8.556 -1.1506 -0.2072  0.6441
   85MOL0     C11344  10.891   2.538   8.518 -0.4984  0.3690  0.2803
   85MOL0     C11345  10.894   2.484   8.387 -0.8199  0.7234 -0.1383
   85MOL0     C11346  11.013   2.419   8.343 -0.8022 -1.1127  0.2253
   85MOL0     C11347  11.124   2.395   8.430  0.0778  0.3278 -0.1936
   85MOL0     O11348  11.231   2.314   8.400 -0.2123  0.1799 -0.4594
   85MOL0     C11349  11.246   2.265   8.265 -0.4851 -0.2860  0.4765
   85MOL0     C11350  11.398   2.247   8.244  0.5315  0.5046  0.3960
   85MOL0     C11351  11.447   2.241   8.109  0.8256 -0.3170  0.7651
   85MOL0     C11352  11.517   2.109   8.076  0.6914  1.5517  0.3438
   85MOL0     C11353  11.545   2.088   7.922  0.3281  0.8975 -0.2545
   85MOL0     C11354  11.680   2.028   7.902 -0.0979 -0.3328  0.1804
   85MOL0     C11355  11.782   2.137   7.948 -0.6610  0.8033 -0.0843
   85MOL0     C11356  11.907   2.067   7.999 -0.1893  0.9760  0.4367
   85MOL0     N11357  12.031   2.150   8.022  0.2881  0.2049 -0.0852
   85MOL0     C11358  12.147   2.157   7.951 -0.0158  0.0547  0.1882
   85MOL0     C11359  12.237   2.202   8.038  0.3487  0.0159 -0.0809
   85MOL0     C11360  12.390   2.204   8.016  0.5674  0.3227 -0.0586
   85MOL0     C11361  12.474   2.263   8.121 -0.4612 -0.2447 -0.5625
   85MOL0     C11362  12.484   2.173   8.250  0.3365 -0.4822  0.8985
   85MOL0     C11363  12.593   2.215   8.348 -0.6176 -0.6816  0.6343
   85MOL0     O11364  12.715   2.178   8.291 -0.7331  0.6964  0.2066
   85MOL0     C11365  12.837   2.183   8.356 -0.2003 -1.3173  0.3445
   85MOL0     C11366  12.956   2.143   8.303  0.2324 -0.1653  0.7759
   85MOL0     C11367  13.081   2.163   8.360 -1.2816 -0.3326  0.7633
   85MOL0     C11368  13.091   2.236   8.482 -0.4997 -0.1954 -0.1275
   85MOL0     C11369  13.221   2.264   8.534 -0.5126 -0.2442  0.3471
   85MOL0     O11370  13.325   2.253   8.438 -0.2957  0.2047 -0.6330
   85MOL0     C11371  13.452   2.293   8.480 -0.9003 -0.1152 -0.6702
   85MOL0     C11372  13.552   2.193   8.499 -0.3854  0.7919  0.6572
   85MOL0     C11373  13.675   2.213   8.557 -0.0039 -0.5445  0.2747
   85MOL0     C11374  13.701   2.340   8.613  0.1214 -0.1402  0.6562
   85MOL0     O11375  13.808   2.354   8.697 -0.3219  0.7076  0.1062
   85MOL0     C11376  13.819   2.467   8.786 -0.0027  0.2342 -0.4248
   85MOL0     C11377  13.942   2.432   8.874  0.1191 -0.3313 -0.4190
   85MOL0     C11378  13.973   2.552   8.967 -0.3333 -0.3517 -0.2109
   85MOL0     C11379  14.113   2.553   9.038  0.2784  0.4393  1.1351
   85MOL0     C11380  14.124   2.668   9.145 -0.2642 -0.3359  0.1376
   85MOL0     C11381  14.234   2.650   9.250 -0.6199  0.9997  0.4164
   85MOL0     C11382  14.224   2.752   9.362  0.2513 -0.2697  0.6437
   85MOL0     C11383  14.335   2.737   9.467 -0.1353 -0.4365 -0.2283
   85MOL0    Cl11384  14.367   2.562   9.500 -0.0070 -0.3257 -0.6727
   85MOL0     C11385  13.603   2.438   8.606 -0.7129 -1.1117  0.5902
   85MOL0     C11386  13.483   2.416   8.528 -0.1696 -0.4037 -0.0150
   85MOL0     O11387  13.233   2.288   8.653  0.0457  0.0759  0.1588
   85MOL0     C11388  12.968   2.266   8.551 -0.1506 -0.0560 -0.0116
   85MOL0     C11389  12.845   2.239   8.481 -0.1470  0.3607  0.2014
   85MOL0     N11390  12.171   2.246   8.149 -0.3214 -0.3362  0.3587
   85MOL0     N11391  12.051   2.210   8.140 -0.7770 -0.2643  0.8644
   85MOL0     C11392  11.107   2.444   8.558 -0.6040 -0.3434 -0.1743
   85MOL0     C11393  10.994   2.522   8.602 -0.3062 -0.7345 -0.2610
   85MOL0     C11394  10.580   2.603   8.706 -0.5186  0.6635  0.2603
   85MOL0     C11395  10.556   2.738   8.681  0.0209 -0.5219  0.4331
   85MOL0     C11396  10.470   2.818   8.753 -0.2364  0.6457 -0.8813
   85MOL0     C11397  10.382   2.761   8.854  0.8674  0.1856  0.2905
   85MOL0     O11398  10.274   2.819   8.907  0.5539 -0.4739  0.5211
   85MOL0     C11399  10.250   2.955   8.885 -0.4141 -0.0355 -0.1845
   85MOL0     C11400  10.116   2.999   8.934  0.1622 -0.4455  0.3251
   85MOL0     C11401  10.064   2.938   9.066  0.4160 -0.3128  0.0797
   85MOL0     C11402  10.140   2.978   9.189  0.6124 -0.1729 -0.3500
   85MOL0     C11403  10.064   2.957   9.311 -0.9096  0.6671 -0.4923
   85MOL0     C11404   9.996   2.929   9.404 -0.0969  0.1180 -0.5372
   85MOL0     C11405  10.399   2.625   8.873  0.2000  1.4000 -0.3408
   85MOL0     C11406  10.501   2.546   8.814  0.2939  0.2246 -0.7286
   85MOL0     C11407  10.501   2.406   8.862 -0.2778 -0.3301  0.3096
   85MOL0     H11408  10.811   2.494   8.318  0.0065 -2.1912 -1.7410
   85MOL0     H11409  11.013   2.370   8.246 -0.0191  0.3929 -0.5711
   85MOL0     H11410  11.183   2.178   8.245 -0.2274 -1.2046  3.2581
   85MOL0     H11411  11.222   2.347   8.197 -0.1863  0.0341  0.7489
   85MOL0     H11412  11.431   2.159   8.300 -1.7329 -0.8933 -0.3247
   85MOL0     H11413  11.454   2.328   8.292  0.1218  1.0887 -0.1038
   85MOL0     H11414  11.518   2.319   8.079  0.7851 -1.4792 -2.7789
   85MOL0     H11415  11.361   2.251   8.042  1.1428  0.6758  0.4904
   85MOL0     H11416  11.609   2.101   8.135  0.8993 -0.9674 -0.2070
   85MOL0     H11417  11.455   2.021   8.097  1.2047  1.0121 -0.3285
   85MOL0     H11418  11.477   2.012   7.883  0.9307  0.5591 -0.6571
   85MOL0     H11419  11.534   2.178   7.860  4.2491  1.8642  0.2001
   85MOL0     H11420  11.684   1.940   7.968  0.8675  0.1888  0.8458
   85MOL0     H11421  11.693   2.001   7.797  0.7662 -0.7833  0.3932
   85MOL0     H11422  11.754   2.199   8.034 -2.0050 -2.0041  1.7024
   85MOL0     H11423  11.778   2.203   7.861 -1.8612  1.9365  0.7950
   85MOL0     H11424  11.876   2.024   8.095 -1.9157 -2.0674 -1.3451
   85MOL0     H11425  11.934   1.988   7.929  0.4025  0.0260  1.6876
   85MOL0     H11426  12.148   2.120   7.849 -2.7640  0.7741 -0.1753
   85MOL0     H11427  12.423   2.101   7.998 -1.5602 -0.4506  0.2381
   85MOL0     H11428  12.417   2.252   7.921  0.6498 -0.3084 -0.3603
   85MOL0     H11429  12.581   2.264   8.098  0.3584  0.7994  2.7622
   85MOL0     H11430  12.440   2.364   8.148 -0.7271 -1.5343  5.1729
   85MOL0     H11431  12.483   2.071   8.210 -2.0633  0.6732 -2.5207
   85MOL0     H11432  12.388   2.184   8.300 -0.4617 -2.6425 -0.0397
   85MOL0     H11433  12.573   2.168   8.445 -4.0932  2.1069  1.5039
   85MOL0     H11434  12.603   2.323   8.361  0.2364 -0.8196  1.2463
   85MOL0     H11435  12.954   2.091   8.207  2.2814 -0.0726  0.6498
   85MOL0     H11436  13.171   2.133   8.308 -0.7595 -2.0161  2.5369
   85MOL0     H11437  13.528   2.088   8.482  0.5762  0.6493  0.1393
   85MOL0     H11438  13.747   2.132   8.563 -1.9341 -2.9284 -4.3051
   85MOL0     H11439  13.832   2.551   8.718  0.3570  0.4196 -0.1328
   85MOL0     H11440  13.735   2.492   8.851  0.0252 -2.9227  1.0391
   85MOL0     H11441  13.940   2.336   8.926  2.8810  0.3989  1.2242
   85MOL0     H11442  14.024   2.420   8.802 -1.6253  0.3019 -2.6186
   85MOL0     H11443  13.948   2.643   8.912 -6.1583 -2.3365 -1.6029
   85MOL0     H11444  13.912   2.567   9.057  2.4355  3.1731  1.3228
   85MOL0     H11445  14.189   2.564   8.960 -0.9956  2.3166  0.0859
   85MOL0     H11446  14.133   2.456   9.085 -1.1035 -1.2496 -1.5420
   85MOL0     H11447  14.027   2.693   9.189 -0.5923 -2.7623  0.9474
   85MOL0     H11448  14.150   2.748   9.076  1.6588 -1.8757 -1.0206
   85MOL0     H11449  14.220   2.546   9.281 -2.4780  1.1934  0.3176
   85MOL0     H11450  14.336   2.657   9.210  0.4256 -2.5921  2.0572
   85MOL0     H11451  14.136   2.721   9.419 -1.0530  1.7974 -0.1141
   85MOL0     H11452  14.214   2.854   9.324 -0.4287 -1.0925 -1.5104
   85MOL0     H11453  14.427   2.786   9.436  0.4160 -1.9344 -1.0507
   85MOL0     H11454  14.306   2.785   9.561 -0.3767 -0.3200 -0.3619
   85MOL0     H11455  13.622   2.536   8.647 -0.8071 -1.1669  0.7686
   85MOL0     H11456  13.410   2.495   8.507  0.5220 -0.4324 -2.9887
   85MOL0     H11457  12.966   2.295   8.656 -5.1689 -0.8950  0.3443
   85MOL0     H11458  12.759   2.282   8.532 -1.7550 -2.9950  0.5643
   85MOL0     H11459  11.194   2.436   8.623 -0.5287 -0.9332 -0.3474
   85MOL0     H11460  10.979   2.568   8.699  1.0457 -0.6539 -0.0665
   85MOL0     H11461  10.613   2.787   8.603 -1.7616 -0.2584 -0.7674
   85MOL0     H11462  10.458   2.924   8.733  2.9591  0.9176 -1.9247
   85MOL0     H11463  10.252   2.974   8.778 -1.7775 -2.2696 -0.6541
   85MOL0     H11464  10.326   3.012   8.940  0.2404  0.8530 -1.9457
   85MOL0     H11465  10.046   2.985   8.852  1.8993  3.3745 -2.1275
   85MOL0     H11466  10.119   3.106   8.960  0.0027 -0.4976  0.5593
   85MOL0     H11467  10.070   2.829   9.057 -0.3164 -0.2018 -2.9619
   85MOL0     H11468   9.957   2.960   9.078  0.2951 -1.4738  1.3836
   85MOL0     H11469  10.236   2.926   9.202  0.3626 -0.7988 -0.9427
   85MOL0     H11470  10.181   3.079   9.186  0.7649 -0.1368  1.5762
   85MOL0     H11471   9.946   2.904   9.496 -0.0318  2.5283  0.2189
   85MOL0     H11472  10.316   2.575   8.922  0.4406 -0.1334 -1.4397
   85MOL0     H11473  10.487   2.402   8.970 -0.1963 -0.8284  0.3024
   85MOL0     H11474  10.421   2.362   8.802  0.2509  3.3221 -3.5584
   85MOL0     H11475  10.601   2.364   8.844 -0.6226  0.1873 -3.9379
   86MOL0     O11476   9.768   0.442  10.460  0.0419  0.2189  0.0723
   86MOL0     C11477   9.675   0.494  10.518 -0.1642 -0.0434 -0.2385
   86MOL0     O11478   9.679   0.543  10.651 -0.4317  0.7540 -0.3185
   86MOL0     C11479   9.805   0.580  10.689 -0.8827  0.3949 -0.4412
   86MOL0     C11480   9.856   0.716  10.692 -0.5162  0.0309 -0.4695
   86MOL0     C11481   9.983   0.741  10.742  0.1767  0.5136 -0.1108
   86MOL0     C11482  10.069   0.636  10.780  0.4626  0.1774 -0.2644
   86MOL0     O11483  10.193   0.674  10.831 -0.8511 -0.0670 -0.5202
   86MOL0     C11484  10.212   0.664  10.980 -0.1591  0.0207 -0.2569
   86MOL0     C11485  10.126   0.762  11.055  0.1438  0.1675  0.2715
   86MOL0     C11486  10.147   0.773  11.201 -0.1231 -0.0373 -0.6310
   86MOL0     C11487  10.082   0.894  11.256  0.5876 -0.8278 -0.1421
   86MOL0     C11488  10.126   0.902  11.406  1.2139  0.3619 -1.0081
   86MOL0     C11489  10.010   0.931  11.503 -0.4387  0.1096 -0.1790
   86MOL0     C11490   9.943   1.065  11.470 -0.2653 -0.7447  0.1734
   86MOL0     C11491   9.792   1.052  11.443  0.6709  0.3046  0.0469
   86MOL0     N11492   9.736   1.182  11.403 -0.0475 -0.4151 -0.0153
   86MOL0     C11493   9.672   1.203  11.277  0.3976 -0.7630 -0.7646
   86MOL0     C11494   9.639   1.329  11.283 -0.4188  0.2736  0.5417
   86MOL0     C11495   9.585   1.403  11.162  0.1025  0.2389  0.1530
   86MOL0     C11496   9.619   1.553  11.147 -0.0716  0.7814  0.2832
   86MOL0     C11497   9.757   1.566  11.098  0.1363 -0.1480 -0.4359
   86MOL0     C11498   9.807   1.711  11.060  0.2173  0.6397  0.3184
   86MOL0     O11499   9.871   1.719  10.930  0.9393  0.8641 -0.6975
   86MOL0     C11500   9.997   1.680  10.914  0.1400 -0.4741 -0.7726
   86MOL0     C11501  10.038   1.687  10.780 -1.2402  0.0678  0.0888
   86MOL0     C11502  10.168   1.642  10.746  0.7147  0.1993  0.1409
   86MOL0     C11503  10.245   1.576  10.838  0.2612 -0.3556  0.3008
   86MOL0     C11504  10.385   1.533  10.800  0.1076 -0.1325 -0.3196
   86MOL0     O11505  10.417   1.505  10.673  0.4224 -0.0876  0.2141
   86MOL0     C11506  10.525   1.420  10.640 -0.5303  0.4577  0.5835
   86MOL0     C11507  10.503   1.283  10.656 -0.1304 -0.7210  0.2039
   86MOL0     C11508  10.599   1.190  10.628  0.1033 -0.3273 -0.1892
   86MOL0     C11509  10.736   1.238  10.615  0.3508  0.4499  0.1478
   86MOL0     O11510  10.850   1.162  10.596  0.6476 -0.4450  0.0534
   86MOL0     C11511  10.837   1.061  10.496 -0.0646  0.4846  0.5666
   86MOL0     C11512  10.971   0.984  10.487  0.4982 -0.5914 -0.0031
   86MOL0     C11513  10.971   0.887  10.373  0.3134  0.8350  0.0924
   86MOL0     C11514  11.042   0.754  10.400 -0.5641  0.6073  0.3801
   86MOL0     C11515  10.947   0.632  10.392  0.2309  0.7108 -0.0976
   86MOL0     C11516  11.038   0.510  10.426 -0.2753 -0.0729  0.5352
   86MOL0     C11517  10.969   0.379  10.388  0.6056 -0.5998  0.3863
   86MOL0     C11518  11.046   0.242  10.398  0.0058  0.0022 -0.4816
   86MOL0    Cl11519  11.129   0.201  10.250 -0.2719  0.1897 -0.1704
   86MOL0     C11520  10.760   1.377  10.614 -0.0120 -0.0158 -0.1842
   86MOL0     C11521  10.656   1.470  10.620  0.1386  0.0326 -0.9399
   86MOL0     O11522  10.466   1.528  10.894 -0.6802 -0.2458  0.0037
   86MOL0     C11523  10.205   1.558  10.969 -0.2377 -0.6664 -0.3502
   86MOL0     C11524  10.080   1.612  11.012  0.5341  1.2488  0.5145
   86MOL0     N11525   9.680   1.384  11.401  0.1474 -0.4810 -0.2219
   86MOL0     N11526   9.726   1.295  11.484 -0.5218  0.1076  0.5962
   86MOL0     C11527  10.011   0.516  10.807  0.0111 -0.2634 -0.7720
   86MOL0     C11528   9.882   0.489  10.753  0.4190  0.3123  0.4863
   86MOL0     C11529   9.549   0.509  10.445 -0.6879 -0.3396 -0.7103
   86MOL0     C11530   9.547   0.513  10.305 -0.1241 -0.3449  0.0290
   86MOL0     C11531   9.428   0.534  10.231  0.6920  0.1200  0.5172
   86MOL0     C11532   9.303   0.546  10.296  0.2906  0.3365  0.1413
   86MOL0     O11533   9.199   0.583  10.209 -0.0470 -0.3245 -0.4451
   86MOL0     C11534   9.070   0.593  10.272  0.0979 -0.0997 -0.1442
   86MOL0     C11535   9.045   0.724  10.330 -0.1393 -0.9275  0.3447
   86MOL0     C11536   9.022   0.829  10.215 -0.3457 -0.0400 -1.6666
   86MOL0     C11537   8.958   0.961  10.251  0.1388  0.2445  0.0232
   86MOL0     C11538   8.823   0.942  10.294 -0.2443 -0.3028 -0.6995
   86MOL0     C11539   8.705   0.935  10.319  0.1134  0.1486  0.1691
   86MOL0     C11540   9.303   0.527  10.435 -0.4142  0.6708  1.1599
   86MOL0     C11541   9.425   0.500  10.500  0.7609 -0.5273 -0.2286
   86MOL0     C11542   9.397   0.429  10.630  0.6572 -0.2328 -0.6141
   86MOL0     H11543   9.787   0.792  10.657 -1.6960  0.9409  3.3389
   86MOL0     H11544  10.030   0.839  10.747  0.4644  0.3137  1.4071
   86MOL0     H11545  10.181   0.565  11.016  1.4444  0.3176  2.2322
   86MOL0     H11546  10.313   0.683  11.019 -0.8860 -0.7755  2.2537
   86MOL0     H11547  10.022   0.737  11.035  0.9855 -0.2763 -4.7475
   86MOL0     H11548  10.156   0.860  11.015 -0.4066 -0.1316 -0.9075
   86MOL0     H11549  10.253   0.774  11.228 -0.1986  0.8709 -0.3591
   86MOL0     H11550  10.106   0.680  11.242 -1.5823 -0.2742 -2.5122
   86MOL0     H11551  10.117   0.988  11.213 -2.8137 -0.0997 -1.6457
   86MOL0     H11552   9.976   0.868  11.249  0.5215 -0.1008 -2.8038
   86MOL0     H11553  10.167   0.806  11.438  0.9414  1.0357  1.5519
   86MOL0     H11554  10.205   0.977  11.411  2.4659 -0.9454 -0.4758
   86MOL0     H11555   9.937   0.850  11.493 -1.4841  1.3021 -3.0234
   86MOL0     H11556  10.038   0.941  11.609 -0.4619  4.2279 -0.4017
   86MOL0     H11557   9.979   1.114  11.379 -2.5071  3.2121  1.1820
   86MOL0     H11558   9.961   1.135  11.551  0.8533 -0.2722 -0.4607
   86MOL0     H11559   9.768   0.969  11.376  0.3031  0.9133 -0.5986
   86MOL0     H11560   9.738   1.042  11.538 -3.5680  0.6703 -2.0683
   86MOL0     H11561   9.660   1.134  11.194 -0.5325  0.6337 -1.8316
   86MOL0     H11562   9.604   1.343  11.073 -0.3908 -1.4225  1.1207
   86MOL0     H11563   9.476   1.401  11.170  0.0587  1.9599  0.4297
   86MOL0     H11564   9.549   1.585  11.069  1.0358  2.3678 -0.1052
   86MOL0     H11565   9.616   1.616  11.236  0.9448  0.1849  0.7516
   86MOL0     H11566   9.759   1.499  11.012 -1.3713 -1.4763  0.4969
   86MOL0     H11567   9.830   1.517  11.162  1.1072 -1.3587 -2.3848
   86MOL0     H11568   9.866   1.749  11.144 -1.8850 -0.1161  2.2416
   86MOL0     H11569   9.713   1.766  11.045 -0.1341 -0.6283 -3.1030
   86MOL0     H11570   9.978   1.743  10.709  0.8717  0.2222 -1.6676
   86MOL0     H11571  10.213   1.643  10.647  1.1482  2.4565  0.3058
   86MOL0     H11572  10.401   1.252  10.677  0.2040 -1.9452  0.0675
   86MOL0     H11573  10.592   1.082  10.625  2.2945 -0.5105 -2.9216
   86MOL0     H11574  10.759   0.993  10.530 -1.8818  2.2495  0.0830
   86MOL0     H11575  10.802   1.100  10.400 -3.1501 -3.5609 -0.2353
   86MOL0     H11576  11.060   1.039  10.455  0.2843 -1.3623 -2.0882
   86MOL0     H11577  10.983   0.933  10.583 -1.8249 -0.5627  0.3562
   86MOL0     H11578  10.867   0.873  10.343 -0.3972  3.5968  0.9551
   86MOL0     H11579  11.011   0.946  10.289 -1.0829  0.8869 -0.5734
   86MOL0     H11580  11.062   0.751  10.507 -5.3363 -0.3145  1.5051
   86MOL0     H11581  11.133   0.739  10.342 -2.4815 -0.4143 -2.5850
   86MOL0     H11582  10.915   0.634  10.288  0.9576  0.6067 -0.3309
   86MOL0     H11583  10.865   0.644  10.463  0.2621 -1.0219  0.2870
   86MOL0     H11584  11.137   0.522  10.381 -0.2009  1.6723  1.0688
   86MOL0     H11585  11.048   0.519  10.535 -2.3312  0.8279  0.6994
   86MOL0     H11586  10.936   0.381  10.284  1.1782 -0.0190  0.2078
   86MOL0     H11587  10.885   0.373  10.457  0.3558 -1.6109  0.0081
   86MOL0     H11588  11.115   0.225  10.481 -0.2418 -0.1680 -0.3112
   86MOL0     H11589  10.967   0.167  10.411  1.4297 -1.6733 -1.0907
   86MOL0     H11590  10.858   1.416  10.592 -0.8777  2.5152  0.1551
   86MOL0     H11591  10.671   1.577  10.615 -0.7145  0.1038 -4.1036
   86MOL0     H11592  10.269   1.503  11.038  1.0232 -0.0276 -0.9867
   86MOL0     H11593  10.042   1.603  11.113 -0.8473  2.3172  0.1100
   86MOL0     H11594  10.074   0.445  10.860  6.1146  2.9428 -2.8417
   86MOL0     H11595   9.842   0.388  10.759  0.0547  0.2884 -1.5532
   86MOL0     H11596   9.648   0.507  10.264  0.2141  1.9928  0.3512
   86MOL0     H11597   9.434   0.563  10.127 -1.1733 -0.0117  0.3437
   86MOL0     H11598   9.058   0.512  10.344 -3.3322  1.1078  0.8713
   86MOL0     H11599   9.000   0.572  10.191 -0.7430 -1.6575  0.9257
   86MOL0     H11600   9.121   0.773  10.391 -0.9598  1.4956 -0.4509
   86MOL0     H11601   8.961   0.719  10.399  1.5778  0.5939  2.7267
   86MOL0     H11602   8.960   0.788  10.135 -2.1151  1.8969 -1.3794
   86MOL0     H11603   9.120   0.852  10.172  0.7252 -1.1603  0.0240
   86MOL0     H11604   9.016   0.997  10.337  0.0659 -1.7838  0.9673
   86MOL0     H11605   8.956   1.035  10.170 -1.9520  1.8199  1.3929
   86MOL0     H11606   8.598   0.937  10.327  0.2406 -0.2423  3.5264
   86MOL0     H11607   9.211   0.513  10.490 -0.5017 -3.3257  0.3136
   86MOL0     H11608   9.353   0.501  10.700 -0.1306  0.2769 -1.6051
   86MOL0     H11609   9.310   0.365  10.615 -0.9179  1.9026 -1.2314
   86MOL0     H11610   9.480   0.380  10.682 -1.5822 -0.1724  3.3862
   87MOL0     O11611   9.727   8.137   7.221 -0.0829 -0.2029 -0.1910
   87MOL0     C11612   9.722   8.040   7.301  0.0034  0.9134 -0.4491
   87MOL0     O11613   9.829   7.992   7.381  0.0363 -0.1773  0.2278
   87MOL0     C11614   9.948   8.050   7.354 -0.3779 -0.1150 -0.1609
   87MOL0     C11615   9.980   8.177   7.410  0.0285 -0.0130  0.3619
   87MOL0     C11616  10.111   8.222   7.413 -0.2862  0.2812 -0.2050
   87MOL0     C11617  10.212   8.151   7.339 -0.6318 -0.7085  0.3348
   87MOL0     O11618  10.348   8.194   7.327 -0.9024 -0.6098 -0.5247
   87MOL0     C11619  10.403   8.311   7.395  0.3660  0.0567  0.3315
   87MOL0     C11620  10.392   8.292   7.558 -0.4194 -0.0016  0.9860
   87MOL0     C11621  10.508   8.214   7.623 -0.3307 -0.4667 -0.5640
   87MOL0     C11622  10.530   8.068   7.569 -0.0127 -0.0899 -0.0802
   87MOL0     C11623  10.624   7.987   7.672 -0.0965  0.3446 -1.0442
   87MOL0     C11624  10.667   7.837   7.639  0.5392 -0.2144  0.1598
   87MOL0     C11625  10.560   7.729   7.690  0.3698 -0.4006  0.3549
   87MOL0     C11626  10.442   7.704   7.592 -0.4632  0.1749  1.0507
   87MOL0     N11627  10.468   7.680   7.449  1.1080 -0.9682 -0.5111
   87MOL0     C11628  10.461   7.783   7.351 -0.3436  0.1279 -0.8862
   87MOL0     C11629  10.478   7.720   7.237  0.7437  0.7271 -0.9852
   87MOL0     C11630  10.469   7.777   7.103 -0.7755  0.3746 -0.5936
   87MOL0     C11631  10.555   7.890   7.083  0.2726 -0.2530  1.4824
   87MOL0     C11632  10.555   7.943   6.939 -0.0752 -0.2674  0.4372
   87MOL0     C11633  10.671   7.889   6.864  0.8178  0.4430  0.1752
   87MOL0     O11634  10.799   7.947   6.899 -0.0625  0.3408 -0.4159
   87MOL0     C11635  10.917   7.897   6.844 -0.4832  0.6155 -0.4644
   87MOL0     C11636  11.039   7.948   6.898  0.1101 -0.1131  0.6178
   87MOL0     C11637  11.160   7.898   6.853 -0.4060  0.1261  0.2386
   87MOL0     C11638  11.167   7.789   6.765  0.3347  0.4723  0.0398
   87MOL0     C11639  11.292   7.721   6.718 -0.1772 -0.3822  0.0708
   87MOL0     O11640  11.402   7.761   6.787 -0.9946  0.0173  0.1337
   87MOL0     C11641  11.525   7.693   6.759 -0.0198  0.3166 -0.6040
   87MOL0     C11642  11.641   7.768   6.737  0.4607  0.2367  0.2959
   87MOL0     C11643  11.762   7.705   6.721 -0.6492 -0.5450  0.0376
   87MOL0     C11644  11.778   7.563   6.730 -0.1051 -0.8796 -1.1245
   87MOL0     O11645  11.907   7.514   6.726 -0.4340  0.5591 -0.2481
   87MOL0     C11646  11.929   7.375   6.738 -0.7036  0.4711  0.4602
   87MOL0     C11647  11.961   7.331   6.885  0.3469 -0.2220  0.9869
   87MOL0     C11648  12.074   7.231   6.894  0.1115  0.5194 -0.9896
   87MOL0     C11649  12.115   7.183   7.036 -0.2554 -0.3945  0.5585
   87MOL0     C11650  12.245   7.098   7.027  0.8015  0.0107 -0.8398
   87MOL0     C11651  12.312   7.054   7.162  0.2747  0.0946  0.0453
   87MOL0     C11652  12.224   6.933   7.221 -0.8476  0.3296 -0.7288
   87MOL0     C11653  12.260   6.896   7.363 -0.1349 -0.1544  0.7126
   87MOL0    Cl11654  12.403   6.793   7.358 -0.0410  0.2939 -0.2354
   87MOL0     C11655  11.659   7.487   6.743 -0.0035  0.4242 -0.0865
   87MOL0     C11656  11.535   7.555   6.762 -0.0909 -0.2103 -0.9405
   87MOL0     O11657  11.289   7.649   6.619 -1.1527  0.6516  0.0957
   87MOL0     C11658  11.047   7.737   6.718 -0.7209 -0.5541 -0.8079
   87MOL0     C11659  10.923   7.792   6.754 -0.7820 -0.4592  0.6673
   87MOL0     N11660  10.489   7.580   7.265  0.2727  0.0775  0.4734
   87MOL0     N11661  10.465   7.560   7.387 -0.4831  0.2227  0.0266
   87MOL0     C11662  10.179   8.026   7.293  0.5014  0.8149  0.4914
   87MOL0     C11663  10.044   7.979   7.298 -0.4393  0.1254 -0.5846
   87MOL0     C11664   9.595   7.960   7.307 -0.6243 -0.1038  0.3400
   87MOL0     C11665   9.609   7.834   7.363  0.0176 -1.1331  0.0708
   87MOL0     C11666   9.502   7.748   7.378 -0.3230 -1.0373  0.0547
   87MOL0     C11667   9.373   7.793   7.350 -1.1063 -0.5552 -1.6336
   87MOL0     O11668   9.280   7.699   7.372  0.4297 -0.1747  0.2923
   87MOL0     C11669   9.188   7.677   7.262  0.3631  1.4005 -0.2660
   87MOL0     C11670   9.105   7.557   7.291  0.8457 -0.1963 -0.0068
   87MOL0     C11671   8.967   7.603   7.354 -0.0853 -0.7811  0.0047
   87MOL0     C11672   8.864   7.495   7.343 -1.0315 -0.1344  0.0173
   87MOL0     C11673   8.735   7.525   7.404 -0.0338 -0.2453 -0.0737
   87MOL0     C11674   8.627   7.557   7.451 -0.1760  0.3519 -0.0058
   87MOL0     C11675   9.358   7.917   7.294 -0.1022 -0.5830  0.8230
   87MOL0     C11676   9.465   8.006   7.273  0.5008 -0.3360  0.3839
   87MOL0     C11677   9.426   8.140   7.215 -0.4858  0.4260 -0.0630
   87MOL0     H11678   9.898   8.212   7.472  0.0938  0.1395  0.3624
   87MOL0     H11679  10.144   8.319   7.449  0.6379  0.1590 -0.7009
   87MOL0     H11680  10.509   8.329   7.373  0.7663 -3.1327 -0.9606
   87MOL0     H11681  10.339   8.389   7.354  1.6449  0.6826 -0.5513
   87MOL0     H11682  10.296   8.250   7.589 -0.8902 -0.1979 -0.6358
   87MOL0     H11683  10.403   8.394   7.597  1.8953  0.1864  0.0295
   87MOL0     H11684  10.494   8.211   7.732 -1.1792  0.4249 -0.6333
   87MOL0     H11685  10.596   8.276   7.601 -0.0686 -1.1779 -1.6152
   87MOL0     H11686  10.434   8.015   7.570  0.3654 -0.8545 -1.7159
   87MOL0     H11687  10.581   8.062   7.473  0.7446 -2.3982  0.4089
   87MOL0     H11688  10.715   8.047   7.669 -0.6699  1.5136  1.8685
   87MOL0     H11689  10.577   7.986   7.771  2.4982  2.1671  0.3215
   87MOL0     H11690  10.693   7.827   7.533 -0.2919  1.5119 -0.2474
   87MOL0     H11691  10.761   7.815   7.691  1.8574  2.8931 -0.6658
   87MOL0     H11692  10.519   7.762   7.786 -0.6920 -0.0808 -0.1951
   87MOL0     H11693  10.605   7.630   7.695 -2.8887 -2.0421  0.0514
   87MOL0     H11694  10.389   7.613   7.624 -0.1756 -0.1043  0.7420
   87MOL0     H11695  10.371   7.787   7.597  0.6549  1.1236  1.4647
   87MOL0     H11696  10.421   7.883   7.366 -2.5658 -0.8448  0.1596
   87MOL0     H11697  10.485   7.701   7.026 -0.4437  2.4346 -2.6856
   87MOL0     H11698  10.364   7.807   7.089 -1.0042 -1.0167 -2.1866
   87MOL0     H11699  10.525   7.970   7.150  0.2135  1.1592 -0.1575
   87MOL0     H11700  10.660   7.863   7.101  0.7627 -0.0239 -0.7328
   87MOL0     H11701  10.574   8.051   6.941  1.9816 -0.5843  0.9785
   87MOL0     H11702  10.464   7.914   6.887  1.9056 -1.6524 -2.4827
   87MOL0     H11703  10.656   7.903   6.757  3.6189 -0.2018 -0.3895
   87MOL0     H11704  10.679   7.781   6.883 -0.4053  0.0260 -1.4528
   87MOL0     H11705  11.036   8.030   6.969 -0.4543 -1.0892  1.7578
   87MOL0     H11706  11.246   7.928   6.912 -2.0591 -1.2795  3.6794
   87MOL0     H11707  11.629   7.876   6.741  1.0165  0.3096  3.9614
   87MOL0     H11708  11.849   7.769   6.716 -2.2820  1.9002  0.8309
   87MOL0     H11709  11.851   7.314   6.692  0.6728 -0.7119 -0.3938
   87MOL0     H11710  12.018   7.356   6.678 -1.3560 -1.0293 -0.0967
   87MOL0     H11711  11.974   7.410   6.958 -4.4370 -0.6587  2.7187
   87MOL0     H11712  11.862   7.304   6.924 -0.2732 -2.5928 -1.8411
   87MOL0     H11713  12.049   7.142   6.836  0.1784 -1.1335  1.3819
   87MOL0     H11714  12.164   7.272   6.846  1.8042 -2.3176 -0.4440
   87MOL0     H11715  12.034   7.127   7.084  2.3870 -3.8404  1.3990
   87MOL0     H11716  12.151   7.263   7.102  5.5110 -1.1015 -1.1778
   87MOL0     H11717  12.324   7.166   6.993  1.5286  0.2151  1.1131
   87MOL0     H11718  12.220   7.006   6.975 -2.8388  0.5645 -0.3015
   87MOL0     H11719  12.418   7.028   7.156  0.6333  1.3374  0.5671
   87MOL0     H11720  12.313   7.143   7.226  2.0252 -1.3108  2.1461
   87MOL0     H11721  12.250   6.852   7.152  0.7050  2.2212 -2.4902
   87MOL0     H11722  12.118   6.959   7.224 -0.9154  0.0639  2.2339
   87MOL0     H11723  12.289   6.978   7.430 -1.3394  0.1377  0.8991
   87MOL0     H11724  12.170   6.858   7.413 -0.5002 -1.5783 -0.9392
   87MOL0     H11725  11.658   7.378   6.745 -3.2694  0.2745 -1.9197
   87MOL0     H11726  11.444   7.495   6.772 -1.5690  2.1026  0.2945
   87MOL0     H11727  11.042   7.653   6.649  0.2475 -0.5890 -0.8487
   87MOL0     H11728  10.828   7.767   6.708 -1.4961  1.2682  1.1228
   87MOL0     H11729  10.256   7.969   7.242 -1.7209 -2.2007  0.2071
   87MOL0     H11730  10.015   7.888   7.247  0.0196  0.5951 -1.7232
   87MOL0     H11731   9.709   7.800   7.390  0.5633  1.1479  1.1639
   87MOL0     H11732   9.518   7.647   7.415 -3.4173 -0.9644  1.9833
   87MOL0     H11733   9.241   7.655   7.169  0.4970 -3.2034  0.6529
   87MOL0     H11734   9.119   7.762   7.258 -4.8492 -2.1420  2.5990
   87MOL0     H11735   9.153   7.496   7.368  3.4652  0.6479 -0.8534
   87MOL0     H11736   9.095   7.494   7.203 -0.7386  1.4758 -1.1040
   87MOL0     H11737   8.927   7.682   7.288 -0.7655 -0.6292  0.5830
   87MOL0     H11738   8.979   7.628   7.459  2.6981  2.1963 -0.8561
   87MOL0     H11739   8.846   7.477   7.237 -0.7121  0.1196 -0.0810
   87MOL0     H11740   8.905   7.413   7.402  0.1287  2.8752  3.8574
   87MOL0     H11741   8.530   7.586   7.487 -0.7246 -0.1699 -1.0217
   87MOL0     H11742   9.266   7.961   7.258  0.5350 -0.5235 -0.7870
   87MOL0     H11743   9.318   8.157   7.207 -0.6491 -1.2472 -1.9983
   87MOL0     H11744   9.475   8.221   7.270 -0.5089 -0.7959  1.8577
   87MOL0     H11745   9.461   8.151   7.112 -0.5735  0.2763 -0.1089
   88MOL0     O11746   9.508   0.370   8.838 -0.2899 -0.0652  0.2688
   88MOL0     C11747   9.399   0.333   8.793 -0.6062  0.4334 -0.0364
   88MOL0     O11748   9.305   0.418   8.742 -0.1976 -0.2219  0.2912
   88MOL0     C11749   9.306   0.549   8.778  0.2572  0.5625  0.2379
   88MOL0     C11750   9.261   0.652   8.690 -0.1474  0.1091 -1.1133
   88MOL0     C11751   9.271   0.787   8.732  0.7153 -0.7229  0.2045
   88MOL0     C11752   9.326   0.819   8.850 -0.0479 -0.2074 -1.0146
   88MOL0     O11753   9.331   0.952   8.878 -0.5477  0.5290 -0.3847
   88MOL0     C11754   9.432   0.997   8.966 -0.7687 -0.1695 -0.4545
   88MOL0     C11755   9.387   1.043   9.099  0.4493  0.0998 -0.1550
   88MOL0     C11756   9.503   1.105   9.182 -0.0096  0.5135 -0.1130
   88MOL0     C11757   9.458   1.133   9.329  0.6567 -0.3692  0.4883
   88MOL0     C11758   9.586   1.181   9.405 -0.8344  0.7765 -0.7049
   88MOL0     C11759   9.575   1.175   9.560 -0.6444  0.9524  0.5777
   88MOL0     C11760   9.685   1.258   9.631 -1.0230  0.0554  0.0131
   88MOL0     C11761   9.827   1.225   9.595 -0.0897 -0.2749  0.5095
   88MOL0     N11762   9.884   1.093   9.617 -0.5744  0.2470  0.5177
   88MOL0     C11763   9.949   1.056   9.732 -0.5105  0.2288  0.5397
   88MOL0     C11764   9.961   0.917   9.724  0.7817  0.1175 -0.3917
   88MOL0     C11765  10.021   0.823   9.827 -0.2471 -0.3552  0.4089
   88MOL0     C11766  10.169   0.848   9.847  0.1501 -0.1671  1.2884
   88MOL0     C11767  10.237   0.735   9.933  0.1391 -0.2910 -0.3482
   88MOL0     C11768  10.165   0.729  10.071 -0.2242  0.2817  0.1981
   88MOL0     O11769  10.151   0.853  10.133 -0.3451  0.4064  0.2855
   88MOL0     C11770  10.042   0.889  10.203 -0.1284  0.4336  0.1532
   88MOL0     C11771   9.973   0.805  10.273 -0.1057  0.3129  0.5394
   88MOL0     C11772   9.848   0.835  10.336  0.0811 -0.8993  0.1491
   88MOL0     C11773   9.798   0.967  10.330 -0.2578 -0.0495 -0.4363
   88MOL0     C11774   9.662   1.004  10.383  0.0050 -1.1826  0.1755
   88MOL0     O11775   9.587   0.896  10.436  0.3992 -0.0252  0.3510
   88MOL0     C11776   9.466   0.909  10.501 -0.3697 -0.0216 -0.3955
   88MOL0     C11777   9.435   0.806  10.586 -0.1197  0.0677  0.8806
   88MOL0     C11778   9.321   0.823  10.669 -0.3316  0.5228  0.1632
   88MOL0     C11779   9.247   0.935  10.677  0.2307 -0.0288  0.6043
   88MOL0     O11780   9.153   0.946  10.776  0.0432 -0.1034 -0.1156
   88MOL0     C11781   9.206   1.017  10.890  0.3697  0.2001 -0.0968
   88MOL0     C11782   9.192   0.932  11.018  1.2343  0.0000  0.1447
   88MOL0     C11783   9.268   0.800  11.022 -0.1911  0.1937 -0.0206
   88MOL0     C11784   9.281   0.754  11.169  0.6087 -0.6041 -0.8456
   88MOL0     C11785   9.383   0.641  11.184  0.7838 -0.0455  0.2799
   88MOL0     C11786   9.518   0.655  11.115 -0.3803 -0.5277  0.1576
   88MOL0     C11787   9.591   0.778  11.171  0.2905  0.1669 -0.0803
   88MOL0     C11788   9.720   0.823  11.102  0.6676  0.6613 -0.1859
   88MOL0    Cl11789   9.681   0.907  10.943 -0.0481  0.2486  0.0378
   88MOL0     C11790   9.287   1.042  10.599  0.4812  0.4250  0.2162
   88MOL0     C11791   9.387   1.029  10.503 -0.9130  0.0709  0.4896
   88MOL0     O11792   9.626   1.124  10.366 -0.0988  0.2394 -0.4773
   88MOL0     C11793   9.879   1.060  10.267  0.2891  0.3320 -0.7602
   88MOL0     C11794   9.996   1.024  10.197  0.5098 -0.1157 -0.9156
   88MOL0     N11795   9.902   0.873   9.601 -0.1768  0.7956 -0.1024
   88MOL0     N11796   9.860   0.981   9.539 -0.5141  0.5325 -0.3772
   88MOL0     C11797   9.354   0.719   8.951 -0.0653  0.0612  0.7847
   88MOL0     C11798   9.342   0.585   8.910  0.2100  0.3009 -0.3814
   88MOL0     C11799   9.361   0.192   8.780  0.1534  0.3953 -0.2351
   88MOL0     C11800   9.246   0.156   8.697  0.9944 -0.1973  0.3729
   88MOL0     C11801   9.210   0.027   8.675  0.1673 -2.0776  0.2346
   88MOL0     C11802   9.292  -0.077   8.719  0.2486  0.2929 -0.1923
   88MOL0     O11803   9.265  -0.206   8.685 -0.7120 -0.7663 -1.0017
   88MOL0     C11804   9.319  -0.251   8.561 -0.5273  0.3646 -0.3901
   88MOL0     C11805   9.219  -0.249   8.447 -0.1477 -0.4511  0.8091
   88MOL0     C11806   9.228  -0.126   8.358  0.0190 -0.6396  0.1878
   88MOL0     C11807   9.092  -0.082   8.291  0.3349 -0.3600  0.5475
   88MOL0     C11808   8.990  -0.056   8.400 -0.4994  0.8802 -0.2438
   88MOL0     C11809   8.893  -0.029   8.470 -0.5809 -0.4179  0.3206
   88MOL0     C11810   9.406  -0.053   8.803 -0.1179 -0.3247  0.1155
   88MOL0     C11811   9.441   0.083   8.834 -0.5730 -0.3188  0.2568
   88MOL0     C11812   9.560   0.093   8.930 -0.6917 -0.2163  0.2976
   88MOL0     H11813   9.215   0.618   8.598 -1.7375 -3.4412  0.8049
   88MOL0     H11814   9.224   0.858   8.666  1.8577 -0.3151 -0.1903
   88MOL0     H11815   9.507   0.917   8.967 -0.4337  0.1202 -1.1292
   88MOL0     H11816   9.484   1.083   8.922 -1.2887 -0.1556 -1.0602
   88MOL0     H11817   9.349   0.957   9.154  3.8054 -2.7869 -1.9008
   88MOL0     H11818   9.306   1.116   9.089  0.2012  0.7319  4.3034
   88MOL0     H11819   9.544   1.195   9.135 -1.8338  1.9999  0.9917
   88MOL0     H11820   9.587   1.036   9.176  1.3669  2.1774 -1.1118
   88MOL0     H11821   9.368   1.194   9.340 -0.5585 -1.7993 -1.0398
   88MOL0     H11822   9.440   1.030   9.362 -3.5285 -0.0998 -0.4814
   88MOL0     H11823   9.669   1.114   9.381 -1.8436 -1.3457  1.2715
   88MOL0     H11824   9.614   1.277   9.362  0.0331  0.2956 -1.2199
   88MOL0     H11825   9.473   1.206   9.582 -2.9666 -4.0491 -1.6308
   88MOL0     H11826   9.575   1.073   9.599  0.3998  1.0723  0.9380
   88MOL0     H11827   9.680   1.235   9.738  1.4212 -1.5915 -0.1601
   88MOL0     H11828   9.666   1.366   9.622 -0.4027  0.1644  0.0064
   88MOL0     H11829   9.833   1.253   9.490 -0.8999 -0.9749  0.2614
   88MOL0     H11830   9.894   1.293   9.648 -2.1705  1.2200  1.3608
   88MOL0     H11831   9.985   1.123   9.809  3.2621 -2.1061  1.0650
   88MOL0     H11832   9.965   0.828   9.920 -0.5721 -0.4508  0.2205
   88MOL0     H11833  10.011   0.722   9.787  3.0456 -0.3285 -0.8558
   88MOL0     H11834  10.206   0.862   9.745 -4.1202  1.4074 -0.2579
   88MOL0     H11835  10.180   0.948   9.890  1.3929  0.5946 -0.6717
   88MOL0     H11836  10.338   0.773   9.949 -1.1170  3.2366  0.0102
   88MOL0     H11837  10.226   0.634   9.891 -4.0925 -0.3667  0.4759
   88MOL0     H11838  10.211   0.654  10.135 -0.5825  1.3606  1.7699
   88MOL0     H11839  10.067   0.694  10.039 -0.3652 -1.9026  2.7344
   88MOL0     H11840  10.019   0.709  10.294 -2.1032 -0.7519  0.2949
   88MOL0     H11841   9.805   0.752  10.391 -0.2854 -1.2697 -0.6833
   88MOL0     H11842   9.508   0.726  10.593  0.2941  0.3384 -0.2070
   88MOL0     H11843   9.315   0.740  10.739  0.2217  0.5421  0.2373
   88MOL0     H11844   9.314   1.037  10.888  0.9977 -2.7360  0.4753
   88MOL0     H11845   9.140   1.099  10.918 -1.5489 -0.1790 -3.0473
   88MOL0     H11846   9.219   1.006  11.094  1.3343  0.7907 -0.6414
   88MOL0     H11847   9.087   0.906  11.032  2.2097 -3.3325  2.9336
   88MOL0     H11848   9.222   0.724  10.959  0.8999 -0.3644 -0.1785
   88MOL0     H11849   9.369   0.820  10.983 -0.0305 -0.5517  0.0037
   88MOL0     H11850   9.190   0.716  11.215  0.2006  0.1256 -1.0320
   88MOL0     H11851   9.307   0.842  11.229 -3.3990  0.0724  0.1595
   88MOL0     H11852   9.347   0.546  11.143 -2.4430 -0.4727  3.5993
   88MOL0     H11853   9.389   0.619  11.291  0.1956 -4.6971 -0.4410
   88MOL0     H11854   9.573   0.563  11.134  0.0664 -1.1275 -3.2800
   88MOL0     H11855   9.507   0.661  11.006  0.9922  0.2329  0.0347
   88MOL0     H11856   9.611   0.753  11.276  0.3348  1.2081  0.1686
   88MOL0     H11857   9.523   0.863  11.167  1.0668  0.8095  0.1042
   88MOL0     H11858   9.762   0.891  11.177 -1.0754  0.7172  0.7870
   88MOL0     H11859   9.783   0.737  11.080 -1.3545 -1.1433  0.6838
   88MOL0     H11860   9.235   1.135  10.621  1.4256  0.4793  2.4261
   88MOL0     H11861   9.408   1.123  10.454 -0.6510 -0.8224 -1.1797
   88MOL0     H11862   9.862   1.167  10.268  0.7706  0.4189  1.0165
   88MOL0     H11863  10.032   1.099  10.127  0.2239  0.2306 -0.6948
   88MOL0     H11864   9.396   0.743   9.048  0.8993  2.0246 -0.0689
   88MOL0     H11865   9.365   0.510   8.986  0.6495  1.7587  0.9909
   88MOL0     H11866   9.192   0.242   8.658  1.3733 -0.3180 -0.4501
   88MOL0     H11867   9.123   0.009   8.614 -2.2231  2.1209  1.9750
   88MOL0     H11868   9.345  -0.356   8.577  0.8116 -0.3005 -5.2441
   88MOL0     H11869   9.414  -0.200   8.539  0.9431 -2.2095 -0.3754
   88MOL0     H11870   9.120  -0.250   8.495 -0.3358 -3.3251  0.5191
   88MOL0     H11871   9.226  -0.345   8.396 -1.5492 -2.3773  3.9817
   88MOL0     H11872   9.299  -0.152   8.279  1.6969 -1.3654  1.8544
   88MOL0     H11873   9.272  -0.048   8.422 -0.3832  0.4615 -0.8362
   88MOL0     H11874   9.112   0.008   8.232  0.3226  0.1396  1.3041
   88MOL0     H11875   9.050  -0.151   8.216 -0.4963  1.7013 -0.9886
   88MOL0     H11876   8.799  -0.019   8.519 -1.0740  1.6124 -0.9515
   88MOL0     H11877   9.461  -0.141   8.835 -1.7609 -1.4986 -0.1613
   88MOL0     H11878   9.565   0.006   8.996 -0.4494 -2.5669 -2.6038
   88MOL0     H11879   9.646   0.082   8.862 -0.3969 -0.6664  0.7331
   88MOL0     H11880   9.566   0.187   8.986 -2.4867 -0.6763  1.3315
   89MOL0     O11881   7.732   6.743   2.718  0.7857  0.5507  0.0389
   89MOL0     C11882   7.820   6.672   2.668  0.9872 -0.7920  0.1786
   89MOL0     O11883   7.950   6.706   2.649  0.6921  0.1980 -0.1027
   89MOL0     C11884   7.988   6.822   2.694 -0.9114 -0.5461  0.0480
   89MOL0     C11885   8.063   6.810   2.808  1.2745 -0.5045 -0.6437
   89MOL0     C11886   8.100   6.928   2.884  0.1894 -0.0046  0.7912
   89MOL0     C11887   8.056   7.054   2.831 -0.6619 -0.2284  0.3383
   89MOL0     O11888   8.076   7.168   2.905 -0.0126 -0.7043 -0.1351
   89MOL0     C11889   8.152   7.263   2.822 -0.6135  0.4776  0.6615
   89MOL0     C11890   8.228   7.356   2.919 -0.8444  0.4349 -0.0583
   89MOL0     C11891   8.379   7.324   2.937  0.8188 -0.2295 -0.1187
   89MOL0     C11892   8.441   7.417   3.038  0.2081 -0.8084 -0.0959
   89MOL0     C11893   8.591   7.386   3.067  0.1846 -0.5611 -0.6557
   89MOL0     C11894   8.639   7.493   3.171  0.3422  0.9579 -0.2310
   89MOL0     C11895   8.790   7.490   3.190 -0.5378 -0.0500 -0.7485
   89MOL0     C11896   8.836   7.397   3.302 -0.4626  0.2632 -0.4951
   89MOL0     N11897   8.940   7.457   3.384 -0.2494  0.4524 -0.4937
   89MOL0     C11898   9.081   7.436   3.369  0.6003 -0.7633  0.2026
   89MOL0     C11899   9.137   7.487   3.480 -0.2862 -0.4709  0.9409
   89MOL0     C11900   9.280   7.467   3.524 -0.2736  0.5895 -0.1049
   89MOL0     C11901   9.390   7.525   3.428 -0.2487  0.4342 -0.2538
   89MOL0     C11902   9.387   7.677   3.451 -0.6646 -0.7097  1.0047
   89MOL0     C11903   9.472   7.714   3.571  0.2526  0.1039  0.6974
   89MOL0     O11904   9.398   7.711   3.692  0.2364 -0.4844 -0.4485
   89MOL0     C11905   9.480   7.721   3.808  0.2046 -0.5036 -0.0585
   89MOL0     C11906   9.588   7.641   3.842  0.3891 -0.0242 -0.0146
   89MOL0     C11907   9.647   7.654   3.967 -0.8649  0.1348 -0.6752
   89MOL0     C11908   9.613   7.769   4.047 -1.0506 -0.5173  0.1473
   89MOL0     C11909   9.681   7.806   4.172  0.0769 -0.2903  0.0312
   89MOL0     O11910   9.651   7.931   4.237  0.8482  0.3545 -0.0723
   89MOL0     C11911   9.734   7.964   4.338 -1.0973  0.6172  0.5019
   89MOL0     C11912   9.872   7.958   4.317  0.5101  0.4951  0.6019
   89MOL0     C11913   9.956   8.003   4.409  0.9211 -0.4927  0.6440
   89MOL0     C11914   9.904   8.057   4.528 -1.1559 -0.3726  0.0145
   89MOL0     O11915   9.999   8.108   4.612  0.3567  0.5268 -0.3268
   89MOL0     C11916   9.960   8.222   4.689  0.3063  0.2440  0.3398
   89MOL0     C11917   9.932   8.192   4.838 -0.0463 -0.2894  0.6458
   89MOL0     C11918  10.045   8.108   4.906  0.0274 -0.1819  0.8450
   89MOL0     C11919  10.152   8.183   4.983 -0.0601 -0.7355 -0.5631
   89MOL0     C11920  10.112   8.216   5.123 -1.0317 -0.7393 -1.0793
   89MOL0     C11921  10.220   8.261   5.229  0.2656  0.8854  0.3587
   89MOL0     C11922  10.153   8.290   5.368  0.6644 -0.5491 -0.2986
   89MOL0     C11923  10.262   8.328   5.459 -0.1645  0.2658 -1.1050
   89MOL0    Cl11924  10.177   8.409   5.588 -0.1084  0.4125  0.0386
   89MOL0     C11925   9.771   8.063   4.558  0.3041  0.0969 -0.1361
   89MOL0     C11926   9.685   8.010   4.461 -0.3188 -1.0336 -0.0802
   89MOL0     O11927   9.737   7.713   4.227  0.4922  0.0124  0.8113
   89MOL0     C11928   9.512   7.856   4.014  0.7886  0.0341  0.2413
   89MOL0     C11929   9.441   7.833   3.893  0.3663 -0.0042 -1.1616
   89MOL0     N11930   9.042   7.553   3.554 -0.1481  1.1609 -0.2181
   89MOL0     N11931   8.923   7.524   3.502 -0.0638 -0.5656 -0.7262
   89MOL0     C11932   7.985   7.059   2.712  0.2179 -0.0271  0.2545
   89MOL0     C11933   7.952   6.946   2.640  0.9462  0.6934 -0.5398
   89MOL0     C11934   7.766   6.542   2.624 -0.7800  0.1416  1.2401
   89MOL0     C11935   7.646   6.538   2.567  0.5236 -0.0965  0.7255
   89MOL0     C11936   7.594   6.414   2.513  0.4050 -0.6095  0.4052
   89MOL0     C11937   7.660   6.295   2.524 -0.4814  0.3797 -0.5156
   89MOL0     O11938   7.583   6.186   2.496 -0.0085  0.3303 -0.4049
   89MOL0     C11939   7.655   6.063   2.472  0.3699 -0.0220 -0.9578
   89MOL0     C11940   7.651   6.026   2.324 -0.8572  0.1390  0.0770
   89MOL0     C11941   7.509   5.992   2.282  0.4342 -0.0617 -0.4819
   89MOL0     C11942   7.457   6.069   2.158  0.8657 -0.2364  0.3984
   89MOL0     C11943   7.318   6.054   2.120 -0.1317 -0.5316 -1.2710
   89MOL0     C11944   7.199   6.065   2.092  0.3024 -0.0776 -0.6664
   89MOL0     C11945   7.791   6.305   2.578  0.1168 -0.3470  0.0147
   89MOL0     C11946   7.842   6.427   2.629 -0.3860  0.6806  0.7298
   89MOL0     C11947   7.981   6.429   2.691 -0.5042 -0.1203 -0.0239
   89MOL0     H11948   8.084   6.711   2.845 -1.3165 -0.7237  0.4906
   89MOL0     H11949   8.141   6.914   2.983 -1.8382  0.7290  1.8069
   89MOL0     H11950   8.220   7.212   2.753 -1.3033  0.7273 -0.2257
   89MOL0     H11951   8.096   7.326   2.752  1.7348 -0.5676 -2.3921
   89MOL0     H11952   8.192   7.342   3.022  0.6908 -1.6050  0.2441
   89MOL0     H11953   8.216   7.460   2.886  0.9600  0.2481 -1.4327
   89MOL0     H11954   8.437   7.340   2.846  1.5371 -0.6523  0.2544
   89MOL0     H11955   8.390   7.223   2.977 -0.6849  0.2956  1.7602
   89MOL0     H11956   8.437   7.521   3.003  4.6777 -0.0911  0.9596
   89MOL0     H11957   8.389   7.415   3.134 -0.1570 -1.8314 -0.3049
   89MOL0     H11958   8.603   7.286   3.109  1.2528 -0.2016 -0.0624
   89MOL0     H11959   8.654   7.409   2.981  0.9241  0.3580  0.1033
   89MOL0     H11960   8.611   7.589   3.127  1.9030  0.7592 -1.8156
   89MOL0     H11961   8.590   7.482   3.268  1.8947 -2.0969  0.3353
   89MOL0     H11962   8.820   7.592   3.216  1.4206 -0.7053 -0.1962
   89MOL0     H11963   8.838   7.468   3.094 -1.2226  1.3883 -1.4327
   89MOL0     H11964   8.753   7.366   3.366  1.4067 -1.1835  1.3801
   89MOL0     H11965   8.879   7.308   3.256  1.7551  1.6593 -1.2993
   89MOL0     H11966   9.139   7.382   3.295  0.2415 -2.0487  0.8324
   89MOL0     H11967   9.280   7.501   3.628 -1.5919 -3.5328  1.4337
   89MOL0     H11968   9.299   7.361   3.540 -1.8135 -0.0628 -2.1889
   89MOL0     H11969   9.486   7.475   3.441  0.1393  1.1067 -0.5128
   89MOL0     H11970   9.366   7.500   3.324 -0.6188 -0.7988  0.1178
   89MOL0     H11971   9.284   7.713   3.450 -0.9931 -1.1015 -4.1591
   89MOL0     H11972   9.436   7.720   3.363 -2.1466 -0.0615  0.4728
   89MOL0     H11973   9.505   7.817   3.557 -0.2798  0.2999  0.8486
   89MOL0     H11974   9.563   7.655   3.558 -1.0585 -1.5248 -2.2418
   89MOL0     H11975   9.619   7.557   3.781 -0.2969 -0.0904 -0.2851
   89MOL0     H11976   9.738   7.606   4.001 -0.2711 -0.2830 -2.6941
   89MOL0     H11977   9.913   7.916   4.226  1.6747 -0.5148  1.5445
   89MOL0     H11978  10.060   7.997   4.376 -0.3223 -2.1329 -3.6468
   89MOL0     H11979  10.044   8.291   4.679 -0.3155  1.1190  0.9994
   89MOL0     H11980   9.881   8.277   4.639 -0.2870 -0.3489  0.6122
   89MOL0     H11981   9.927   8.289   4.887 -0.4809  0.1119 -0.1861
   89MOL0     H11982   9.835   8.144   4.854  0.3434 -0.9759  1.0227
   89MOL0     H11983   9.993   8.046   4.979 -0.3898  0.3060  0.9646
   89MOL0     H11984  10.103   8.048   4.834 -2.3442  0.1471 -1.4961
   89MOL0     H11985  10.177   8.274   4.929  0.7948 -0.1163  0.8304
   89MOL0     H11986  10.248   8.131   4.983  0.7098  0.4836  2.1234
   89MOL0     H11987  10.068   8.131   5.175 -2.1734  1.7087  2.3537
   89MOL0     H11988  10.030   8.288   5.122 -1.0777 -0.7095  0.9561
   89MOL0     H11989  10.291   8.179   5.238  0.3692  0.6685 -1.8257
   89MOL0     H11990  10.266   8.350   5.184  0.4527  1.8219  2.3252
   89MOL0     H11991  10.092   8.207   5.406 -2.7190  1.4758 -0.9128
   89MOL0     H11992  10.095   8.382   5.361  2.3281  0.7545  1.8165
   89MOL0     H11993  10.315   8.234   5.478 -3.4891 -1.6667 -0.5124
   89MOL0     H11994  10.329   8.408   5.427 -1.1804  1.7443  0.3217
   89MOL0     H11995   9.728   8.115   4.643 -1.6361 -2.2709  0.4801
   89MOL0     H11996   9.577   8.019   4.476 -0.2946 -1.8715  0.6748
   89MOL0     H11997   9.492   7.952   4.060  2.0483  1.3932 -1.8867
   89MOL0     H11998   9.366   7.903   3.858 -0.8461 -1.2215 -1.0533
   89MOL0     H11999   7.939   7.155   2.691  0.7370  0.0285 -0.7007
   89MOL0     H12000   7.885   6.950   2.554  0.0929  1.6443  0.1529
   89MOL0     H12001   7.580   6.622   2.548 -0.3993 -0.9484  0.0752
   89MOL0     H12002   7.491   6.400   2.483  0.1818 -1.3095  1.4554
   89MOL0     H12003   7.608   5.985   2.533  3.8919 -2.4460 -1.0426
   89MOL0     H12004   7.763   6.067   2.489 -0.0447 -1.4614  3.0111
   89MOL0     H12005   7.729   5.951   2.306  0.3697  1.2741  0.5023
   89MOL0     H12006   7.684   6.110   2.261 -1.2595 -0.1030 -0.4615
   89MOL0     H12007   7.438   6.001   2.365  2.9206 -0.7133  1.8558
   89MOL0     H12008   7.505   5.887   2.252  2.2378 -0.2076 -0.3422
   89MOL0     H12009   7.463   6.176   2.180 -0.3617 -0.5283  2.4331
   89MOL0     H12010   7.520   6.049   2.070 -0.5186  2.6732 -1.4283
   89MOL0     H12011   7.095   6.073   2.070 -0.1973 -3.3708 -0.1190
   89MOL0     H12012   7.844   6.211   2.590 -0.0568 -0.2621  1.6640
   89MOL0     H12013   8.017   6.328   2.709  0.0227  0.0329 -0.1921
   89MOL0     H12014   8.040   6.478   2.613 -4.1532 -0.3110 -3.1585
   89MOL0     H12015   7.995   6.487   2.783 -0.1635 -1.2337  0.6480
   90MOL0     O12016   9.516   7.670   3.036 -0.2660  0.6986  0.0763
   90MOL0     C12017   9.570   7.774   3.062 -0.4666 -0.3594  0.7424
   90MOL0     O12018   9.658   7.805   3.164 -0.3830  0.2237 -0.7740
   90MOL0     C12019   9.707   7.713   3.252 -0.1831  0.0228  0.0010
   90MOL0     C12020   9.750   7.751   3.378  1.1358 -0.5298 -0.0413
   90MOL0     C12021   9.800   7.654   3.463  1.5192  0.5330 -0.3450
   90MOL0     C12022   9.831   7.521   3.419  0.3981  0.1283  0.9218
   90MOL0     O12023   9.869   7.427   3.505 -0.4789  0.3222 -0.8748
   90MOL0     C12024   9.781   7.313   3.522  0.0319 -0.3266 -0.2139
   90MOL0     C12025   9.847   7.225   3.634  0.8595  0.0883 -0.3564
   90MOL0     C12026   9.978   7.178   3.561 -0.0969 -0.0052 -0.0506
   90MOL0     C12027  10.054   7.076   3.642 -0.8916 -0.3585  0.7992
   90MOL0     C12028  10.096   7.121   3.778  0.0162  0.6422  0.5738
   90MOL0     C12029  10.205   7.227   3.768 -0.3010 -0.1473 -0.7454
   90MOL0     C12030  10.247   7.275   3.904 -0.5564 -0.0684 -1.5136
   90MOL0     C12031  10.291   7.419   3.905 -0.3488 -0.3801  0.4463
   90MOL0     N12032  10.441   7.429   3.930  1.7413  0.6265 -0.2703
   90MOL0     C12033  10.530   7.364   3.847 -0.5591 -0.6481 -0.0152
   90MOL0     C12034  10.649   7.381   3.915 -0.1944 -0.6559 -0.5046
   90MOL0     C12035  10.790   7.332   3.891  0.8009  0.1498  0.5339
   90MOL0     C12036  10.818   7.179   3.914 -0.8189  0.2295  1.0305
   90MOL0     C12037  10.748   7.131   4.039  0.5193  0.1597  0.6297
   90MOL0     C12038  10.773   6.988   4.070  0.4541 -0.7175 -0.3036
   90MOL0     O12039  10.911   6.972   4.101 -1.3350  0.8213  0.3522
   90MOL0     C12040  10.968   6.850   4.062  0.6273 -0.0397  0.0933
   90MOL0     C12041  10.906   6.721   4.039  0.7009 -0.3845 -0.0668
   90MOL0     C12042  10.970   6.601   4.001  0.4122 -0.5801 -0.2968
   90MOL0     C12043  11.101   6.606   3.983 -0.5057  0.6487  0.3080
   90MOL0     C12044  11.172   6.481   3.943  0.0349 -0.2475 -0.7477
   90MOL0     O12045  11.107   6.363   3.956  0.3363  0.0258 -0.5555
   90MOL0     C12046  11.136   6.254   3.876 -0.1072  0.2282  1.0994
   90MOL0     C12047  11.118   6.121   3.927 -0.8744 -0.5287 -0.5202
   90MOL0     C12048  11.148   6.013   3.841 -0.3945  0.1968  1.0658
   90MOL0     C12049  11.186   6.025   3.707  0.3557 -0.2444  0.2014
   90MOL0     O12050  11.214   5.920   3.625  0.8330 -0.1073 -0.1462
   90MOL0     C12051  11.298   5.809   3.671  0.0657  0.4155 -0.3902
   90MOL0     C12052  11.211   5.687   3.693  0.2187 -0.4687 -0.4979
   90MOL0     C12053  11.190   5.614   3.552 -0.1598  0.1955 -0.3976
   90MOL0     C12054  11.124   5.670   3.433  0.5111 -1.0701 -0.1505
   90MOL0     C12055  11.116   5.580   3.317 -0.1462 -0.5170 -0.3016
   90MOL0     C12056  11.051   5.639   3.184 -0.1991 -0.2422 -0.5884
   90MOL0     C12057  10.893   5.635   3.207 -0.1840  0.2058 -1.1925
   90MOL0     C12058  10.828   5.750   3.130 -0.0341 -0.0703 -0.2443
   90MOL0    Cl12059  10.907   5.785   2.963 -0.1276  0.0008  0.4300
   90MOL0     C12060  11.207   6.158   3.652  0.0773 -0.8419  0.6894
   90MOL0     C12061  11.171   6.267   3.732 -0.5628 -0.2145  0.5935
   90MOL0     O12062  11.278   6.502   3.884 -0.1191  0.0525  0.8123
   90MOL0     C12063  11.171   6.728   4.014  0.3116  0.3880  0.4419
   90MOL0     C12064  11.103   6.847   4.051 -0.1839 -0.6424  0.4650
   90MOL0     N12065  10.629   7.467   4.026  0.4020  0.2167 -0.5775
   90MOL0     N12066  10.504   7.493   4.031  0.0266  0.4495 -0.5687
   90MOL0     C12067   9.810   7.493   3.285 -0.1621 -0.0544 -0.2352
   90MOL0     C12068   9.750   7.585   3.198  0.5195 -0.7987  0.5012
   90MOL0     C12069   9.520   7.888   2.984 -0.1454  0.9818  0.0746
   90MOL0     C12070   9.535   8.012   3.034  0.7381 -0.1094  0.5040
   90MOL0     C12071   9.504   8.129   2.959 -0.1751  0.0955 -0.6957
   90MOL0     C12072   9.453   8.116   2.831  0.7936 -0.9703  0.9053
   90MOL0     O12073   9.408   8.225   2.751 -0.1868  0.0701 -0.6546
   90MOL0     C12074   9.386   8.353   2.823  0.2502 -0.1491 -0.0307
   90MOL0     C12075   9.413   8.455   2.719  0.1816 -0.0985 -0.9677
   90MOL0     C12076   9.395   8.598   2.769 -0.4693 -0.4249  0.5035
   90MOL0     C12077   9.505   8.684   2.697 -1.1583 -0.4199  0.5509
   90MOL0     C12078   9.493   8.817   2.757 -0.1628  0.1291  0.2392
   90MOL0     C12079   9.470   8.930   2.801 -0.0924  0.1779 -0.4100
   90MOL0     C12080   9.445   7.984   2.783 -0.4807  0.4812 -0.1687
   90MOL0     C12081   9.487   7.873   2.846 -0.3744 -0.1766 -0.0444
   90MOL0     C12082   9.476   7.742   2.769  0.6166 -0.0244 -0.2779
   90MOL0     H12083   9.731   7.854   3.405 -0.8097 -1.3714  2.0371
   90MOL0     H12084   9.815   7.672   3.569  0.7417 -1.2663  0.1102
   90MOL0     H12085   9.689   7.358   3.560  0.3049  2.5846 -2.6113
   90MOL0     H12086   9.764   7.268   3.424  0.1076  1.0045 -0.8694
   90MOL0     H12087   9.784   7.142   3.665  0.6274  1.2771  2.7092
   90MOL0     H12088   9.868   7.275   3.729 -1.0738 -1.8511  1.1777
   90MOL0     H12089  10.038   7.267   3.540 -1.4872  1.3504  1.4543
   90MOL0     H12090   9.961   7.127   3.465 -1.4906  1.7444 -0.7900
   90MOL0     H12091   9.990   6.990   3.663 -2.2794  1.2044  3.4692
   90MOL0     H12092  10.146   7.055   3.587 -0.0811 -1.9070  2.6495
   90MOL0     H12093  10.009   7.150   3.839 -0.7768 -3.2442  1.5295
   90MOL0     H12094  10.139   7.030   3.820 -1.3626 -0.6959 -0.7413
   90MOL0     H12095  10.294   7.183   3.721  1.3860  2.4134 -0.1865
   90MOL0     H12096  10.162   7.307   3.707 -1.6820 -0.9048 -0.7932
   90MOL0     H12097  10.322   7.210   3.950  0.3628  1.3694 -0.8923
   90MOL0     H12098  10.162   7.267   3.973  1.1322 -1.4950  0.5210
   90MOL0     H12099  10.247   7.473   3.820 -0.8613  0.5407  1.2694
   90MOL0     H12100  10.255   7.472   3.994  0.9542  0.8279  0.2906
   90MOL0     H12101  10.502   7.305   3.760  2.4076  1.2449 -2.4473
   90MOL0     H12102  10.825   7.363   3.792 -2.1105 -2.5670 -1.5771
   90MOL0     H12103  10.853   7.393   3.956 -1.2359  1.3487  1.4772
   90MOL0     H12104  10.802   7.117   3.826  1.1740  0.2519  0.6157
   90MOL0     H12105  10.926   7.184   3.930 -0.1930 -3.3530 -1.0267
   90MOL0     H12106  10.639   7.141   4.034  0.4867 -0.3530 -3.7731
   90MOL0     H12107  10.782   7.193   4.123  1.4133 -1.0096  1.1549
   90MOL0     H12108  10.742   6.930   3.982  0.3437 -2.4690  0.8255
   90MOL0     H12109  10.712   6.951   4.153 -0.7960  2.9002  0.5726
   90MOL0     H12110  10.800   6.711   4.060  0.7213 -1.8671 -0.5100
   90MOL0     H12111  10.911   6.509   4.001 -1.7345  0.7153  0.3017
   90MOL0     H12112  11.074   6.118   4.026 -1.6391 -1.8758 -0.8840
   90MOL0     H12113  11.130   5.912   3.876  0.9211  0.6021  3.1021
   90MOL0     H12114  11.378   5.793   3.597  0.6113  0.7433  0.1278
   90MOL0     H12115  11.343   5.842   3.764 -1.0067  3.2095 -0.7736
   90MOL0     H12116  11.251   5.631   3.779  0.5050  3.0130  1.8661
   90MOL0     H12117  11.110   5.722   3.715 -0.7245 -2.7526 -0.9987
   90MOL0     H12118  11.287   5.584   3.512  0.5550  2.6162 -0.5906
   90MOL0     H12119  11.127   5.526   3.570 -0.5033 -0.6367 -4.6197
   90MOL0     H12120  11.191   5.750   3.401  0.8534 -0.6439  1.5338
   90MOL0     H12121  11.021   5.705   3.450  0.7443 -0.9901  1.2698
   90MOL0     H12122  11.060   5.491   3.346 -1.4315  0.8098  1.5056
   90MOL0     H12123  11.222   5.553   3.306 -0.6243 -3.1113  0.8209
   90MOL0     H12124  11.086   5.740   3.164 -0.0121 -0.2839 -0.4699
   90MOL0     H12125  11.063   5.576   3.095 -2.6433  0.1395 -1.2666
   90MOL0     H12126  10.873   5.646   3.314  0.5913  2.8838 -1.2529
   90MOL0     H12127  10.856   5.538   3.173  0.6168 -0.9572  1.0361
   90MOL0     H12128  10.722   5.725   3.115  0.1703 -1.0690 -0.0702
   90MOL0     H12129  10.830   5.843   3.188 -0.0026 -1.6811  2.5285
   90MOL0     H12130  11.216   6.158   3.544  1.9963  0.9211  0.8045
   90MOL0     H12131  11.167   6.362   3.678  0.6714 -2.0731 -3.1285
   90MOL0     H12132  11.279   6.744   4.022  0.3805 -0.5911  1.9587
   90MOL0     H12133  11.163   6.938   4.055  2.0152 -2.0123  0.6807
   90MOL0     H12134   9.826   7.392   3.248  0.2076 -0.8552  1.9674
   90MOL0     H12135   9.727   7.572   3.093 -2.1884  0.9924  0.7718
   90MOL0     H12136   9.579   8.031   3.131  1.7473  2.4829 -0.3518
   90MOL0     H12137   9.523   8.226   3.004 -0.0607 -0.2074 -0.0747
   90MOL0     H12138   9.455   8.379   2.903  1.8794 -1.2384 -1.0271
   90MOL0     H12139   9.280   8.358   2.850 -0.8886 -1.6772 -3.6464
   90MOL0     H12140   9.352   8.436   2.631 -1.9003  0.6036  0.2665
   90MOL0     H12141   9.510   8.429   2.676  0.1780 -2.7445  0.4106
   90MOL0     H12142   9.406   8.611   2.877 -0.0814  1.7410  0.2535
   90MOL0     H12143   9.295   8.633   2.742  0.0663  0.7865 -0.0104
   90MOL0     H12144   9.608   8.651   2.714 -0.7743  1.6602  2.8819
   90MOL0     H12145   9.490   8.691   2.589  1.6004  1.4451  0.1770
   90MOL0     H12146   9.448   9.033   2.820  1.0363  0.9125 -2.7573
   90MOL0     H12147   9.401   7.962   2.687 -1.1314  0.8954  0.0242
   90MOL0     H12148   9.492   7.751   2.662  0.9985  1.8130 -0.0956
   90MOL0     H12149   9.536   7.657   2.804 -0.2861 -0.8977 -0.7768
   90MOL0     H12150   9.374   7.703   2.780  1.8537 -2.8324  4.7044
   91MOL0     O12151   2.100  10.588   1.179 -0.0719  0.2414  0.3776
   91MOL0     C12152   2.098  10.623   1.294 -0.1236 -0.1494  0.1947
   91MOL0     O12153   1.985  10.641   1.365  0.3860 -0.3215  0.1940
   91MOL0     C12154   1.864  10.594   1.321  0.1171 -0.4006  0.8674
   91MOL0     C12155   1.825  10.613   1.189  0.0939 -0.3083 -0.2450
   91MOL0     C12156   1.697  10.586   1.147 -1.2138  0.0713  0.0352
   91MOL0     C12157   1.605  10.537   1.239  0.8474 -0.0606 -0.2014
   91MOL0     O12158   1.478  10.500   1.201  0.3423  0.3364  0.1248
   91MOL0     C12159   1.395  10.604   1.142  0.2763  0.3359 -0.3005
   91MOL0     C12160   1.263  10.552   1.198 -0.2100 -0.2661 -0.6342
   91MOL0     C12161   1.225  10.415   1.137  0.3115 -0.2549  1.5423
   91MOL0     C12162   1.103  10.345   1.213  0.0239 -0.1529  0.0900
   91MOL0     C12163   1.050  10.211   1.152 -0.2582 -0.0522  0.1803
   91MOL0     C12164   1.112  10.097   1.246 -0.4464  0.4018 -0.4491
   91MOL0     C12165   1.108   9.961   1.166  0.8025 -1.0852  0.6431
   91MOL0     C12166   1.168   9.854   1.259 -0.0205 -0.1508 -0.1710
   91MOL0     N12167   1.314   9.841   1.233  0.7132  0.2261  0.3368
   91MOL0     C12168   1.374   9.753   1.146 -0.3484 -0.2626 -0.3615
   91MOL0     C12169   1.505   9.783   1.146 -0.1170 -0.4475  0.1038
   91MOL0     C12170   1.620   9.747   1.065  0.1277  0.0128 -0.2096
   91MOL0     C12171   1.714   9.669   1.169  0.2395 -0.3360  0.7304
   91MOL0     C12172   1.823   9.596   1.096  1.1364 -0.8716  0.4067
   91MOL0     C12173   1.924   9.533   1.187  0.4112  1.4746 -0.2203
   91MOL0     O12174   2.060   9.573   1.175 -0.0352 -0.3105  0.2177
   91MOL0     C12175   2.130   9.617   1.283  0.7278  0.0283  0.2924
   91MOL0     C12176   2.266   9.610   1.277  0.2171  0.3660 -0.4521
   91MOL0     C12177   2.341   9.627   1.393 -0.2149  0.1456 -0.3900
   91MOL0     C12178   2.283   9.676   1.516 -1.1568  0.5140  0.6161
   91MOL0     C12179   2.370   9.707   1.628  0.2459  1.4570  0.4813
   91MOL0     O12180   2.502   9.719   1.600  0.6632  0.3136 -0.2355
   91MOL0     C12181   2.585   9.759   1.710  0.0060  0.2622  0.3896
   91MOL0     C12182   2.628   9.892   1.724  0.6333 -0.9543 -0.0699
   91MOL0     C12183   2.699   9.933   1.837  0.1395  0.4107 -0.0714
   91MOL0     C12184   2.746   9.827   1.928  0.4446 -0.0901  0.3312
   91MOL0     O12185   2.830   9.851   2.030  0.4699 -0.2163 -0.6941
   91MOL0     C12186   2.902   9.977   2.021  0.8826 -0.0226 -0.4047
   91MOL0     C12187   3.004   9.979   2.142  0.1188  0.3659  1.4444
   91MOL0     C12188   3.130   9.893   2.108 -0.8705  0.9027 -0.4521
   91MOL0     C12189   3.233   9.968   2.016  0.6577 -0.1067 -0.4151
   91MOL0     C12190   3.350   9.870   2.002  0.4737 -0.1399  0.2889
   91MOL0     C12191   3.485   9.933   1.953 -0.0190 -0.8634  0.1582
   91MOL0     C12192   3.600   9.832   1.966 -0.1463  0.1444  0.8713
   91MOL0     C12193   3.713   9.844   1.858  0.4747 -0.3939 -0.6234
   91MOL0    Cl12194   3.637   9.856   1.687  0.4175  0.1494 -0.4855
   91MOL0     C12195   2.712   9.689   1.903 -0.4778 -0.8107 -0.7492
   91MOL0     C12196   2.634   9.658   1.794  0.6520  0.1745 -0.1496
   91MOL0     O12197   2.318   9.726   1.739  0.3737 -0.8186  0.0600
   91MOL0     C12198   2.145   9.696   1.516 -0.6640 -0.8094 -0.0569
   91MOL0     C12199   2.073   9.668   1.403  0.1732  0.4007  0.0639
   91MOL0     N12200   1.523   9.880   1.243 -0.0813  0.2976  0.4090
   91MOL0     N12201   1.410   9.921   1.294  0.5897  0.0271  0.1668
   91MOL0     C12202   1.641  10.507   1.370 -0.9489  0.4330 -0.5103
   91MOL0     C12203   1.767  10.538   1.413 -0.6584  0.1268  0.3274
   91MOL0     C12204   2.227  10.653   1.361  0.0598 -0.0292 -0.2257
   91MOL0     C12205   2.229  10.704   1.493 -0.9500  0.2400  0.0158
   91MOL0     C12206   2.339  10.752   1.562  0.4896  0.1388  0.2900
   91MOL0     C12207   2.465  10.725   1.511 -1.3459 -0.1455 -0.4653
   91MOL0     O12208   2.578  10.780   1.565 -0.0857  0.8057 -0.0804
   91MOL0     C12209   2.612  10.761   1.706  0.2924 -0.9730 -0.2882
   91MOL0     C12210   2.745  10.727   1.746 -0.9219  0.5084  0.0739
   91MOL0     C12211   2.756  10.689   1.897  0.2529 -0.5071  1.3192
   91MOL0     C12212   2.712  10.800   1.994  0.5374 -0.1313 -0.4715
   91MOL0     C12213   2.564  10.821   2.011 -0.8434 -0.7759  0.3345
   91MOL0     C12214   2.444  10.845   1.998  0.2887 -0.2292  0.8865
   91MOL0     C12215   2.473  10.658   1.389  0.9000  0.2550  0.7584
   91MOL0     C12216   2.361  10.630   1.306 -0.4615 -0.4238  0.4125
   91MOL0     C12217   2.383  10.572   1.168  0.6946  0.8272  0.0908
   91MOL0     H12218   1.887  10.670   1.121  0.2358  0.4393  0.4981
   91MOL0     H12219   1.674  10.628   1.050 -0.6535  1.6979  0.5684
   91MOL0     H12220   1.416  10.704   1.182  2.1825  0.2192 -0.8587
   91MOL0     H12221   1.395  10.593   1.033  0.6329  0.3595 -0.3060
   91MOL0     H12222   1.189  10.628   1.171 -1.2058 -0.6518  0.8747
   91MOL0     H12223   1.267  10.554   1.308 -0.7187 -0.3303 -0.6115
   91MOL0     H12224   1.313  10.352   1.125  0.3858  0.1967 -0.7176
   91MOL0     H12225   1.189  10.427   1.035  1.0118  2.7495  1.5642
   91MOL0     H12226   1.124  10.340   1.320 -1.5535 -2.4402  0.3725
   91MOL0     H12227   1.018  10.414   1.206 -1.4288 -1.6017  2.2022
   91MOL0     H12228   0.942  10.207   1.169 -0.0189 -1.0892  1.6750
   91MOL0     H12229   1.078  10.192   1.048 -0.1668 -1.6247  0.4762
   91MOL0     H12230   1.216  10.120   1.271 -0.8696  1.3274  0.5141
   91MOL0     H12231   1.056  10.086   1.340 -0.2027 -0.5895 -0.4109
   91MOL0     H12232   1.169   9.978   1.076  3.2305  1.4465  2.5820
   91MOL0     H12233   1.007   9.934   1.134  1.3744 -1.5225 -0.8980
   91MOL0     H12234   1.155   9.876   1.366 -1.2348 -2.7273  0.2648
   91MOL0     H12235   1.119   9.758   1.243 -0.6554 -0.3382  2.4191
   91MOL0     H12236   1.312   9.684   1.090 -1.7928  1.4149 -0.9416
   91MOL0     H12237   1.572   9.688   0.986  0.4822 -0.5706  0.0049
   91MOL0     H12238   1.673   9.832   1.020 -0.4698  0.2485 -0.4805
   91MOL0     H12239   1.750   9.744   1.240 -0.6548  2.4374 -1.5506
   91MOL0     H12240   1.656   9.597   1.228 -0.0628 -0.3296  0.4446
   91MOL0     H12241   1.880   9.670   1.039 -1.4066  0.8722  0.0045
   91MOL0     H12242   1.782   9.523   1.026  1.0700 -2.7449  2.2829
   91MOL0     H12243   1.918   9.424   1.180 -0.0698  1.4286  0.7586
   91MOL0     H12244   1.890   9.544   1.291  0.6984 -1.2056  0.2257
   91MOL0     H12245   2.314   9.577   1.185 -0.0040 -1.7051  0.1275
   91MOL0     H12246   2.448   9.623   1.377 -0.4585  1.3932 -2.6591
   91MOL0     H12247   2.591   9.958   1.647  0.7566 -2.4746 -1.4929
   91MOL0     H12248   2.722  10.038   1.853  1.2177 -0.1286  2.3631
   91MOL0     H12249   2.951   9.995   1.925  1.4771  3.4582  0.4117
   91MOL0     H12250   2.839  10.066   2.033 -1.0220 -1.2692 -0.6671
   91MOL0     H12251   3.027  10.082   2.171  1.2757  0.0071  1.8862
   91MOL0     H12252   2.957   9.929   2.226 -2.0656 -0.4908 -0.1937
   91MOL0     H12253   3.181   9.870   2.202 -1.8017  1.5786  0.2433
   91MOL0     H12254   3.100   9.792   2.078 -1.1507  0.6536  0.6325
   91MOL0     H12255   3.273  10.061   2.058 -0.7575  1.6892 -2.7416
   91MOL0     H12256   3.182  10.000   1.925 -0.3265  0.2087  0.2279
   91MOL0     H12257   3.311   9.790   1.938 -0.2028 -0.0725  0.6131
   91MOL0     H12258   3.361   9.821   2.099 -1.0406  1.3982  1.3074
   91MOL0     H12259   3.474   9.998   1.866  0.6267  1.0108  1.4009
   91MOL0     H12260   3.515  10.010   2.026  1.0833 -0.5858 -0.5676
   91MOL0     H12261   3.551   9.737   1.945 -0.2852  0.1876  1.0038
   91MOL0     H12262   3.652   9.833   2.062  0.9340 -1.7498  0.3590
   91MOL0     H12263   3.781   9.928   1.873  2.3895 -1.6432 -1.8666
   91MOL0     H12264   3.781   9.758   1.857  0.8443 -0.1379  0.7402
   91MOL0     H12265   2.760   9.613   1.964 -0.8841 -0.5989 -0.1512
   91MOL0     H12266   2.616   9.556   1.761 -0.2796 -0.7116  2.7565
   91MOL0     H12267   2.102   9.746   1.602 -1.0255 -0.5018 -0.4119
   91MOL0     H12268   1.969   9.693   1.417  0.2168  1.1172 -0.8032
   91MOL0     H12269   1.571  10.473   1.446 -0.3038  1.8987  0.8116
   91MOL0     H12270   1.779  10.532   1.521  1.3468 -1.0616  0.0919
   91MOL0     H12271   2.134  10.715   1.544 -1.0285 -1.0988  0.1841
   91MOL0     H12272   2.327  10.794   1.662  0.6312 -1.6496  1.0999
   91MOL0     H12273   2.546  10.694   1.762 -0.9093  1.0303  0.8551
   91MOL0     H12274   2.599  10.865   1.740 -0.2413 -1.2893  0.5119
   91MOL0     H12275   2.817  10.808   1.734  2.5672 -2.6507 -3.0468
   91MOL0     H12276   2.775  10.642   1.684 -2.7100 -2.0984  2.4831
   91MOL0     H12277   2.861  10.675   1.925  0.3915  0.3544  1.2779
   91MOL0     H12278   2.699  10.597   1.910  1.0656 -0.9189  2.0416
   91MOL0     H12279   2.755  10.775   2.092 -0.4873 -0.4101 -0.0793
   91MOL0     H12280   2.746  10.894   1.950 -0.9024  0.8128  0.3497
   91MOL0     H12281   2.339  10.868   2.000  0.2621 -0.3845  2.0541
   91MOL0     H12282   2.570  10.642   1.343  0.6475 -1.3784  0.7396
   91MOL0     H12283   2.355  10.467   1.162  3.0896  0.1231  0.2163
   91MOL0     H12284   2.336  10.639   1.095  0.3269  1.8837  1.2581
   91MOL0     H12285   2.489  10.573   1.140  0.4156 -1.2238 -1.2125
   92MOL0     O12286   5.037   4.640   4.421 -0.1533 -0.2593  0.6954
   92MOL0     C12287   4.929   4.679   4.373  1.0700 -0.3082 -0.9203
   92MOL0     O12288   4.903   4.724   4.243  0.1617 -0.4322  0.3182
   92MOL0     C12289   5.018   4.719   4.167 -0.7390  0.1912  0.2096
   92MOL0     C12290   5.128   4.810   4.197  0.1685  0.2592 -0.8617
   92MOL0     C12291   5.247   4.802   4.132  0.2810 -0.2527  1.7673
   92MOL0     C12292   5.261   4.723   4.016  0.3441  0.1347  1.0737
   92MOL0     O12293   5.377   4.723   3.937 -0.7226  0.2827 -0.2119
   92MOL0     C12294   5.466   4.640   3.999 -0.2651  0.3845 -0.6152
   92MOL0     C12295   5.598   4.618   3.912  0.4041 -0.5122 -1.0067
   92MOL0     C12296   5.688   4.511   3.983  0.2348  0.1648  0.1702
   92MOL0     C12297   5.831   4.519   3.943 -0.6778  0.2083  0.3157
   92MOL0     C12298   5.907   4.388   3.972 -0.5030 -0.7424  0.0704
   92MOL0     C12299   6.057   4.383   3.923 -0.0132 -0.6212  0.0209
   92MOL0     C12300   6.082   4.368   3.771  0.1167 -0.4923 -0.6387
   92MOL0     C12301   6.033   4.240   3.711  0.1801  0.4691  0.3466
   92MOL0     N12302   6.089   4.117   3.774  0.2236  0.1569  0.5865
   92MOL0     C12303   6.211   4.066   3.744 -0.5429 -0.0209 -0.5801
   92MOL0     C12304   6.215   3.951   3.815 -0.2643 -0.6946 -0.2249
   92MOL0     C12305   6.325   3.845   3.826 -0.1446 -0.1378  0.2832
   92MOL0     C12306   6.440   3.881   3.916 -0.8610 -0.5791 -0.4415
   92MOL0     C12307   6.556   3.780   3.908  0.8836  0.0199 -0.1559
   92MOL0     C12308   6.686   3.839   3.958 -0.8142 -0.4483  0.8591
   92MOL0     O12309   6.802   3.786   3.892  0.2307  0.3666 -0.8220
   92MOL0     C12310   6.922   3.766   3.954  0.5192 -0.1298 -0.6688
   92MOL0     C12311   7.023   3.738   3.871 -0.4436  0.1223 -1.2459
   92MOL0     C12312   7.148   3.686   3.920  0.1921 -0.0720 -0.2507
   92MOL0     C12313   7.175   3.681   4.061  0.5702  0.6390  0.3969
   92MOL0     C12314   7.307   3.622   4.112  0.5175 -0.7527  0.4453
   92MOL0     O12315   7.322   3.631   4.249  0.6333  0.3435 -0.0131
   92MOL0     C12316   7.449   3.637   4.291 -0.6648  0.2494 -1.3806
   92MOL0     C12317   7.551   3.722   4.230 -0.4138  0.0759 -0.4839
   92MOL0     C12318   7.684   3.712   4.276  0.5657  0.7487  0.9141
   92MOL0     C12319   7.712   3.630   4.388  0.5644  0.6882  0.3804
   92MOL0     O12320   7.842   3.625   4.427  0.6830  0.1392  0.3165
   92MOL0     C12321   7.887   3.546   4.542  0.5908  0.0342 -0.2199
   92MOL0     C12322   8.025   3.494   4.500 -0.1190  0.4807  0.5344
   92MOL0     C12323   8.087   3.402   4.591 -0.4993 -0.4109  0.2226
   92MOL0     C12324   8.112   3.459   4.733 -0.4452  0.4607 -0.4044
   92MOL0     C12325   8.145   3.360   4.851 -0.2668 -0.3093 -0.4693
   92MOL0     C12326   8.191   3.422   4.981 -0.4574 -0.6770  0.4745
   92MOL0     C12327   8.157   3.329   5.105  0.5912 -0.5894  0.5672
   92MOL0     C12328   8.278   3.309   5.196  0.0330 -0.4666 -0.1818
   92MOL0    Cl12329   8.332   3.465   5.259  0.3300 -0.2323  0.4348
   92MOL0     C12330   7.607   3.556   4.456  0.1537 -0.2074  0.4677
   92MOL0     C12331   7.474   3.559   4.401  0.1101  0.8186  0.2541
   92MOL0     O12332   7.389   3.585   4.025 -0.6223  0.6526  0.3079
   92MOL0     C12333   7.072   3.718   4.145  0.2114  0.1754 -0.0856
   92MOL0     C12334   6.945   3.752   4.097  0.5131 -0.1791  0.3723
   92MOL0     N12335   6.095   3.926   3.884 -0.0187 -0.0960 -0.7472
   92MOL0     N12336   6.018   4.028   3.862  0.0875  0.4768  0.2992
   92MOL0     C12337   5.147   4.643   3.979  0.3027  0.7761  0.4002
   92MOL0     C12338   5.030   4.633   4.056 -0.3044 -0.3412 -0.0449
   92MOL0     C12339   4.804   4.667   4.464 -1.5765  1.1254 -0.4621
   92MOL0     C12340   4.683   4.722   4.418  0.7674  0.6546  0.2547
   92MOL0     C12341   4.565   4.709   4.488  0.4752 -0.1124  0.5022
   92MOL0     C12342   4.552   4.646   4.608 -0.4216 -0.2750  0.3404
   92MOL0     O12343   4.432   4.626   4.675  0.0007  0.0550 -0.0575
   92MOL0     C12344   4.370   4.746   4.706 -0.3666  0.0456 -0.2743
   92MOL0     C12345   4.225   4.725   4.750  0.1890 -0.0846 -0.1428
   92MOL0     C12346   4.138   4.661   4.635  1.2971  0.2662  1.0887
   92MOL0     C12347   4.121   4.755   4.521  0.0507  0.0973 -1.0485
   92MOL0     C12348   4.018   4.696   4.435  0.2956 -0.7764 -0.5623
   92MOL0     C12349   3.930   4.644   4.368  0.3373  0.8983  0.1006
   92MOL0     C12350   4.681   4.597   4.656  0.7555  0.5729 -0.2079
   92MOL0     C12351   4.805   4.599   4.589  0.5558  0.5551 -0.2496
   92MOL0     C12352   4.933   4.538   4.661 -0.3363 -0.3697 -1.1096
   92MOL0     H12353   5.120   4.888   4.272 -1.4034 -1.8538  1.2963
   92MOL0     H12354   5.335   4.860   4.156  0.7020 -0.3799  0.5936
   92MOL0     H12355   5.501   4.694   4.088 -0.5423  0.1624 -0.3683
   92MOL0     H12356   5.412   4.552   4.034 -0.9063  1.3294  0.9144
   92MOL0     H12357   5.660   4.708   3.913  1.4402 -1.1935  0.1571
   92MOL0     H12358   5.566   4.576   3.816 -0.1627 -2.3641 -0.0646
   92MOL0     H12359   5.650   4.412   3.957 -1.3989 -0.0073  2.8562
   92MOL0     H12360   5.676   4.513   4.092  1.4146 -1.5144  0.3695
   92MOL0     H12361   5.828   4.541   3.836 -1.6192 -0.5077  0.1900
   92MOL0     H12362   5.879   4.611   3.979 -0.1558  0.0829 -0.0429
   92MOL0     H12363   5.908   4.371   4.080  5.4067 -0.3708  0.4279
   92MOL0     H12364   5.843   4.316   3.920 -2.4447  2.4584 -2.3218
   92MOL0     H12365   6.104   4.475   3.959  1.4308 -1.1027 -0.5971
   92MOL0     H12366   6.107   4.296   3.966  3.1267  0.1213 -1.8503
   92MOL0     H12367   6.187   4.390   3.749 -0.3193  1.7591 -0.6867
   92MOL0     H12368   6.034   4.450   3.718  0.7732  0.1940 -0.1877
   92MOL0     H12369   5.924   4.235   3.708  0.0409  1.6150 -4.0330
   92MOL0     H12370   6.074   4.247   3.610  6.2146 -2.5561  2.0911
   92MOL0     H12371   6.292   4.098   3.680  1.0343 -2.1712  0.2254
   92MOL0     H12372   6.284   3.754   3.870 -0.9445  0.7112  1.3375
   92MOL0     H12373   6.361   3.813   3.727  1.1600  1.9033  0.0283
   92MOL0     H12374   6.479   3.980   3.890  1.2119 -0.6043  2.1536
   92MOL0     H12375   6.416   3.888   4.023 -2.1631  0.1664 -0.7516
   92MOL0     H12376   6.571   3.755   3.803  2.2897  0.5884 -0.1221
   92MOL0     H12377   6.522   3.697   3.970  1.6676  1.1933  1.9715
   92MOL0     H12378   6.683   3.823   4.067 -2.3966  0.3309  0.9492
   92MOL0     H12379   6.700   3.947   3.950 -1.3130 -0.4967 -1.2126
   92MOL0     H12380   7.002   3.746   3.765  0.8268  1.4966 -1.4133
   92MOL0     H12381   7.232   3.675   3.852  1.5737  0.0758  1.3859
   92MOL0     H12382   7.534   3.779   4.139  0.8830 -0.0504 -0.8200
   92MOL0     H12383   7.759   3.772   4.226  1.6937  0.3482  2.0742
   92MOL0     H12384   7.885   3.606   4.634 -3.0604 -2.9530  1.9761
   92MOL0     H12385   7.812   3.468   4.556  1.2217 -0.5488 -0.0064
   92MOL0     H12386   8.020   3.434   4.408 -2.1255 -0.1052  0.9680
   92MOL0     H12387   8.085   3.581   4.472 -2.3435  1.5573 -1.1545
   92MOL0     H12388   8.024   3.313   4.590  1.7066 -2.2938 -4.5168
   92MOL0     H12389   8.184   3.368   4.554 -0.0570  0.7825  0.2408
   92MOL0     H12390   8.022   3.502   4.779  1.2353  2.6103  1.0769
   92MOL0     H12391   8.180   3.544   4.723 -1.1786  1.2816  1.2345
   92MOL0     H12392   8.221   3.287   4.825  0.0682 -0.2670  0.3627
   92MOL0     H12393   8.050   3.305   4.859 -1.0219  0.9517 -0.4219
   92MOL0     H12394   8.299   3.439   4.980 -0.8822  2.7233 -0.4635
   92MOL0     H12395   8.144   3.520   4.998  0.9309 -0.3754  3.1768
   92MOL0     H12396   8.125   3.228   5.077  2.3916 -0.9090 -0.5308
   92MOL0     H12397   8.071   3.369   5.160  0.6418 -0.8777  0.8561
   92MOL0     H12398   8.253   3.241   5.278  1.6956  0.0734  0.8243
   92MOL0     H12399   8.364   3.266   5.143  0.1606  0.4326 -0.7258
   92MOL0     H12400   7.601   3.501   4.550 -3.7659  2.7763  2.2585
   92MOL0     H12401   7.399   3.491   4.440  0.3822 -0.7066 -1.6988
   92MOL0     H12402   7.088   3.706   4.252  0.8827  3.3329  0.2757
   92MOL0     H12403   6.860   3.771   4.162  0.4622  2.4751 -0.3265
   92MOL0     H12404   5.157   4.574   3.896 -0.2778 -0.0196  0.9643
   92MOL0     H12405   4.949   4.567   4.026  0.3262  0.0594 -2.9188
   92MOL0     H12406   4.684   4.765   4.319 -2.2283 -1.5577 -0.9082
   92MOL0     H12407   4.479   4.756   4.441  0.8279  1.7398  1.6073
   92MOL0     H12408   4.384   4.811   4.619 -1.4986  0.3351 -0.2600
   92MOL0     H12409   4.421   4.798   4.787 -2.5634  3.1174 -0.6635
   92MOL0     H12410   4.188   4.824   4.777  1.1975 -0.1931  1.8896
   92MOL0     H12411   4.224   4.651   4.831 -0.1836  1.2284  1.0873
   92MOL0     H12412   4.049   4.626   4.689 -0.0199 -1.3399 -1.9029
   92MOL0     H12413   4.182   4.567   4.600  0.8966 -0.5064  2.5610
   92MOL0     H12414   4.085   4.851   4.558 -1.8021 -1.6943  2.3726
   92MOL0     H12415   4.218   4.761   4.471  1.9603  1.0878  2.4370
   92MOL0     H12416   3.847   4.593   4.323  0.3287  1.9666 -1.1474
   92MOL0     H12417   4.672   4.539   4.747 -0.2623 -1.4087 -1.4879
   92MOL0     H12418   4.983   4.467   4.595  0.1590 -0.3265 -0.7805
   92MOL0     H12419   5.001   4.621   4.683 -1.3460  0.6584 -1.7178
   92MOL0     H12420   4.898   4.489   4.752 -3.6379 -2.6425 -3.3208
   93MOL0     O12421   9.843   7.069   6.073 -0.0497  0.0882 -0.3795
   93MOL0     C12422   9.924   7.052   5.988 -0.8570 -0.0778 -0.0846
   93MOL0     O12423  10.060   7.021   5.996 -0.1510 -0.4509 -0.5404
   93MOL0     C12424  10.120   6.996   6.109  0.5440  0.5162 -0.3884
   93MOL0     C12425  10.206   6.894   6.132 -0.0029 -0.5183 -0.1608
   93MOL0     C12426  10.280   6.877   6.248  0.1939  0.0169 -1.1012
   93MOL0     C12427  10.276   6.967   6.344 -0.1865  0.1375 -0.1890
   93MOL0     O12428  10.360   6.965   6.443  0.4736  1.2720  0.3537
   93MOL0     C12429  10.304   6.976   6.578 -0.2654  0.0782  0.7493
   93MOL0     C12430  10.338   6.846   6.668  0.6599  0.1307  0.0739
   93MOL0     C12431  10.485   6.814   6.692 -0.0800 -0.1332  0.6951
   93MOL0     C12432  10.545   6.858   6.825 -1.2335 -0.7231  0.1566
   93MOL0     C12433  10.694   6.873   6.820 -0.1435 -0.0446 -0.2834
   93MOL0     C12434  10.758   6.733   6.819 -0.4972  0.1874  0.2484
   93MOL0     C12435  10.911   6.732   6.809 -0.4772 -1.3750  0.0252
   93MOL0     C12436  10.966   6.588   6.825 -0.0688  0.2760  0.3097
   93MOL0     N12437  11.106   6.585   6.856 -1.2847 -0.7060  0.2878
   93MOL0     C12438  11.160   6.591   6.984  0.4966 -0.3893  0.6227
   93MOL0     C12439  11.298   6.589   6.958 -0.5909 -0.0163  0.0664
   93MOL0     C12440  11.394   6.568   7.062 -0.6773 -0.6108 -0.5583
   93MOL0     C12441  11.522   6.654   7.049  0.3421 -0.1893 -0.2662
   93MOL0     C12442  11.627   6.587   6.952  0.5333  0.3366 -0.0219
   93MOL0     C12443  11.754   6.677   6.931 -0.5836  0.4856 -0.1385
   93MOL0     O12444  11.821   6.688   7.054  0.0049 -1.3874  0.0242
   93MOL0     C12445  11.910   6.593   7.092 -0.0749  1.3321  0.0080
   93MOL0     C12446  11.975   6.622   7.211  0.4982  1.0345  0.0312
   93MOL0     C12447  12.077   6.535   7.256  0.2867 -0.2665 -0.6845
   93MOL0     C12448  12.110   6.421   7.183  1.0338  0.2826 -0.5539
   93MOL0     C12449  12.228   6.342   7.220  0.3908  0.9093 -0.6857
   93MOL0     O12450  12.295   6.274   7.127  0.5434 -0.1018  0.3295
   93MOL0     C12451  12.387   6.171   7.160 -0.0068 -0.3318 -0.5003
   93MOL0     C12452  12.514   6.182   7.103  0.5255  0.0931 -0.5609
   93MOL0     C12453  12.616   6.097   7.149  0.0071 -0.8497  0.1300
   93MOL0     C12454  12.598   5.990   7.231 -0.0929  0.8128  0.3403
   93MOL0     O12455  12.701   5.895   7.250 -0.1807 -0.4319  0.2038
   93MOL0     C12456  12.678   5.779   7.329 -1.1583 -0.2587  0.5748
   93MOL0     C12457  12.811   5.711   7.344 -0.1547 -0.2209  1.1195
   93MOL0     C12458  12.811   5.579   7.415  0.9527  0.5607 -1.0811
   93MOL0     C12459  12.943   5.542   7.477  0.4152 -0.2645 -0.4694
   93MOL0     C12460  12.958   5.394   7.516  0.6435  0.8527 -0.2021
   93MOL0     C12461  12.832   5.312   7.562 -0.8175 -1.2147  0.8414
   93MOL0     C12462  12.853   5.171   7.593 -0.4510 -0.3378  0.4015
   93MOL0     C12463  12.993   5.138   7.648 -0.0231  1.0341 -0.6237
   93MOL0    Cl12464  13.024   4.954   7.632 -0.2025 -0.4967 -0.1460
   93MOL0     C12465  12.468   5.983   7.286  0.0407 -0.4855 -0.0756
   93MOL0     C12466  12.360   6.070   7.250  0.1123  1.1367  0.4645
   93MOL0     O12467  12.258   6.347   7.342 -0.0826 -0.2802  0.2782
   93MOL0     C12468  12.048   6.394   7.063  0.4880  0.3996 -0.8263
   93MOL0     C12469  11.945   6.480   7.016  0.3164  1.1189 -0.4931
   93MOL0     N12470  11.321   6.572   6.820 -0.0105 -0.9534 -0.1327
   93MOL0     N12471  11.207   6.578   6.761 -0.0829 -0.1282 -0.4614
   93MOL0     C12472  10.180   7.073   6.331  0.6109 -0.1513  0.2547
   93MOL0     C12473  10.106   7.088   6.214  0.6178  1.6399  0.2014
   93MOL0     C12474   9.859   7.064   5.855 -0.0409 -0.6945  0.7614
   93MOL0     C12475   9.910   6.993   5.749 -0.4094  0.2449  0.1694
   93MOL0     C12476   9.852   6.988   5.624 -0.0318  1.4239  0.1582
   93MOL0     C12477   9.749   7.075   5.587  0.2434  0.3214  1.3263
   93MOL0     O12478   9.702   7.054   5.456  0.0050  0.2144  0.4647
   93MOL0     C12479   9.580   7.119   5.437  0.0896 -0.9052 -0.6896
   93MOL0     C12480   9.524   7.064   5.304 -0.1850 -0.2910  0.2477
   93MOL0     C12481   9.473   6.914   5.313  1.0292 -0.4895  0.2253
   93MOL0     C12482   9.367   6.883   5.209 -0.7788 -0.4052 -0.1161
   93MOL0     C12483   9.327   6.744   5.221  0.8082  0.5645  0.5171
   93MOL0     C12484   9.299   6.630   5.247 -0.9005  1.3212  0.3318
   93MOL0     C12485   9.702   7.156   5.688 -0.6515 -0.0638  0.4122
   93MOL0     C12486   9.754   7.150   5.823 -0.4321 -1.3458 -0.0994
   93MOL0     C12487   9.677   7.244   5.913 -0.0983  0.8168  0.3420
   93MOL0     H12488  10.225   6.826   6.049  0.5983  0.0729 -0.5241
   93MOL0     H12489  10.363   6.809   6.269 -1.0360 -1.1684  0.2162
   93MOL0     H12490  10.352   7.060   6.628  0.8133  0.9569 -1.6150
   93MOL0     H12491  10.197   7.000   6.579 -1.0889 -3.0515  2.9986
   93MOL0     H12492  10.291   6.768   6.609 -0.0074 -0.8445  1.8338
   93MOL0     H12493  10.293   6.863   6.766 -0.5695  0.1137 -0.4723
   93MOL0     H12494  10.540   6.864   6.612  0.1046  1.0766  1.5506
   93MOL0     H12495  10.491   6.706   6.678 -0.1149 -0.4081  2.5565
   93MOL0     H12496  10.498   6.956   6.841  1.0387  0.0266  3.2583
   93MOL0     H12497  10.519   6.796   6.911  0.3694 -0.1965  1.0703
   93MOL0     H12498  10.725   6.941   6.740  2.4549  0.3729  0.9757
   93MOL0     H12499  10.739   6.931   6.901  1.7786 -0.5640 -0.9443
   93MOL0     H12500  10.724   6.676   6.906 -1.8519  0.0786 -0.3284
   93MOL0     H12501  10.722   6.679   6.730  0.1905 -1.1270  0.7322
   93MOL0     H12502  10.954   6.789   6.892  1.8996 -0.3356 -1.8013
   93MOL0     H12503  10.947   6.773   6.715  0.5830 -2.8674 -0.2483
   93MOL0     H12504  10.913   6.542   6.908 -0.0164 -0.5350 -0.0952
   93MOL0     H12505  10.945   6.530   6.735  1.4212 -0.0725  0.1620
   93MOL0     H12506  11.102   6.596   7.076 -0.5059 -3.1560  0.2203
   93MOL0     H12507  11.362   6.580   7.166 -0.3742 -1.5526 -0.3481
   93MOL0     H12508  11.422   6.464   7.045  1.9324 -0.1824  0.6912
   93MOL0     H12509  11.518   6.748   6.993 -0.3055 -1.6864 -2.9160
   93MOL0     H12510  11.562   6.665   7.150  0.9783  0.3628 -0.5700
   93MOL0     H12511  11.579   6.567   6.855  0.1358 -2.1008  0.6198
   93MOL0     H12512  11.657   6.486   6.982 -0.2378 -0.5461 -2.0057
   93MOL0     H12513  11.730   6.779   6.899  0.0418  0.6359 -0.1304
   93MOL0     H12514  11.822   6.637   6.855 -1.4937 -0.8148 -0.3145
   93MOL0     H12515  11.946   6.715   7.258 -0.6194 -0.0420  1.5449
   93MOL0     H12516  12.135   6.560   7.344  0.1825 -1.9364 -0.1180
   93MOL0     H12517  12.529   6.267   7.038 -0.4696  0.3226 -0.5073
   93MOL0     H12518  12.709   6.110   7.095  0.8986  0.4615  1.8997
   93MOL0     H12519  12.643   5.819   7.424 -1.5387 -0.7184  0.6345
   93MOL0     H12520  12.602   5.717   7.280 -2.9229  2.8744 -0.9985
   93MOL0     H12521  12.851   5.697   7.243 -3.1684  3.3493 -0.8379
   93MOL0     H12522  12.875   5.787   7.391  0.7063 -0.3875  0.2370
   93MOL0     H12523  12.731   5.581   7.489 -1.8392 -0.7304 -3.8274
   93MOL0     H12524  12.787   5.502   7.341 -2.0804  1.9432 -1.7089
   93MOL0     H12525  12.949   5.596   7.572  0.7124  2.9205 -2.1543
   93MOL0     H12526  13.033   5.575   7.425  1.5178 -2.2720  0.0361
   93MOL0     H12527  13.040   5.402   7.587  0.0363  1.8589  0.4135
   93MOL0     H12528  12.994   5.343   7.427  0.0104  0.5452 -0.2887
   93MOL0     H12529  12.795   5.356   7.654  1.6061 -1.1858  1.8853
   93MOL0     H12530  12.763   5.312   7.477  0.1788 -0.6250 -0.0003
   93MOL0     H12531  12.843   5.111   7.502  2.4707 -0.0923 -0.1907
   93MOL0     H12532  12.777   5.144   7.666 -0.3369  1.3842  1.1941
   93MOL0     H12533  13.080   5.184   7.600  2.4923 -3.3911 -0.8385
   93MOL0     H12534  12.985   5.179   7.749 -2.3024  1.6172 -0.9681
   93MOL0     H12535  12.454   5.913   7.367 -1.1319  1.0622  1.1189
   93MOL0     H12536  12.258   6.081   7.285 -0.5430  0.8425 -1.2079
   93MOL0     H12537  12.079   6.320   6.990 -0.4726 -0.7835 -0.0853
   93MOL0     H12538  11.885   6.451   6.931 -1.2891  0.6572  0.7395
   93MOL0     H12539  10.175   7.147   6.410  1.3791 -1.7134  1.8545
   93MOL0     H12540  10.046   7.173   6.182  0.2316  0.5856 -2.1076
   93MOL0     H12541   9.994   6.925   5.760 -0.5777 -0.2598 -1.3934
   93MOL0     H12542   9.888   6.911   5.556 -0.2605  0.7150  0.8218
   93MOL0     H12543   9.604   7.226   5.426  1.5616 -1.2841 -1.4411
   93MOL0     H12544   9.502   7.113   5.513 -1.1440  2.8663 -1.4299
   93MOL0     H12545   9.605   7.070   5.231 -0.1315  0.8776  0.3873
   93MOL0     H12546   9.444   7.129   5.267 -0.5308  0.0681  1.5520
   93MOL0     H12547   9.427   6.903   5.411 -2.2594 -0.5201 -1.2093
   93MOL0     H12548   9.562   6.852   5.298  0.8044 -1.3807  2.2770
   93MOL0     H12549   9.283   6.952   5.228  1.7590  2.4116  1.9392
   93MOL0     H12550   9.404   6.898   5.108  1.6399  0.2719  0.8107
   93MOL0     H12551   9.287   6.524   5.256  3.4131  0.2884 -2.7383
   93MOL0     H12552   9.614   7.217   5.670 -1.3915 -1.2390 -0.0634
   93MOL0     H12553   9.607   7.304   5.854 -0.6059  2.1402  2.1990
   93MOL0     H12554   9.610   7.192   5.982 -2.0066 -0.3920 -2.2589
   93MOL0     H12555   9.752   7.308   5.960  0.0036  0.2720  0.9218
   94MOL0     O12556  10.682   3.168   2.300 -0.1933 -0.2631 -0.1441
   94MOL0     C12557  10.693   3.287   2.272  0.6515  1.2890  0.0130
   94MOL0     O12558  10.779   3.366   2.331 -0.1300  0.1237 -0.1177
   94MOL0     C12559  10.894   3.300   2.369  0.2399 -0.3136  0.7263
   94MOL0     C12560  11.005   3.275   2.285 -0.2474 -0.2208 -0.7659
   94MOL0     C12561  11.125   3.209   2.328  0.5541 -0.3741 -0.6875
   94MOL0     C12562  11.146   3.183   2.468  0.2116  0.1001  0.2153
   94MOL0     O12563  11.263   3.143   2.530  0.3674 -0.4315 -0.1166
   94MOL0     C12564  11.355   3.075   2.447  0.1172  1.0660 -0.1409
   94MOL0     C12565  11.462   3.176   2.400  0.3329 -0.8001  0.6501
   94MOL0     C12566  11.592   3.102   2.354 -0.7582  0.2323  0.7209
   94MOL0     C12567  11.697   3.200   2.341 -0.1299 -0.2684  0.7173
   94MOL0     C12568  11.837   3.136   2.290 -0.0956 -1.1543  0.3231
   94MOL0     C12569  11.829   3.122   2.137  0.2053 -0.1298  0.0776
   94MOL0     C12570  11.960   3.111   2.061  0.7728  0.3321  0.1807
   94MOL0     C12571  11.935   3.078   1.918  0.9502 -0.0835 -0.8780
   94MOL0     N12572  12.051   3.109   1.836  0.2552  0.0079 -0.0699
   94MOL0     C12573  12.152   3.026   1.800 -0.1881 -0.3008  0.4561
   94MOL0     C12574  12.210   3.097   1.700  0.1146  0.2187 -0.7822
   94MOL0     C12575  12.327   3.042   1.620 -0.8261 -0.5514  0.6834
   94MOL0     C12576  12.279   3.018   1.475  0.1381 -0.0219 -0.2799
   94MOL0     C12577  12.391   2.963   1.373 -0.2036  0.1831 -0.4514
   94MOL0     C12578  12.476   3.076   1.317  0.5556  0.2705 -0.4640
   94MOL0     O12579  12.545   3.024   1.211  0.4206 -0.3723  0.2457
   94MOL0     C12580  12.634   3.098   1.141 -0.9980  0.5596 -0.5328
   94MOL0     C12581  12.703   3.031   1.036 -1.0555  0.4036  0.3637
   94MOL0     C12582  12.784   3.104   0.946  0.2744 -0.7768  0.0710
   94MOL0     C12583  12.802   3.241   0.975  0.0185 -0.7119 -0.1776
   94MOL0     C12584  12.899   3.320   0.902  0.3377 -0.0311 -0.8164
   94MOL0     O12585  12.986   3.243   0.828  0.2187 -0.7075 -0.1510
   94MOL0     C12586  13.090   3.299   0.768  0.8693 -0.3156  0.9303
   94MOL0     C12587  13.070   3.355   0.644  0.5038 -0.3288  0.3340
   94MOL0     C12588  13.175   3.418   0.572  0.2394  0.9566  0.1011
   94MOL0     C12589  13.295   3.432   0.633 -0.3915 -0.2089  0.3462
   94MOL0     O12590  13.402   3.470   0.553  0.3410  0.7257  0.1373
   94MOL0     C12591  13.542   3.445   0.596 -0.1045 -0.5791 -0.2230
   94MOL0     C12592  13.643   3.493   0.482  0.2471 -1.2347 -0.4247
   94MOL0     C12593  13.798   3.471   0.523  0.1363  0.3966 -0.5052
   94MOL0     C12594  13.884   3.547   0.423 -0.4543  0.1040 -0.2133
   94MOL0     C12595  14.035   3.533   0.469 -0.0873  0.2537  0.1798
   94MOL0     C12596  14.130   3.621   0.386 -0.5288 -1.1885  0.4945
   94MOL0     C12597  14.270   3.603   0.437 -0.3305 -0.2239 -0.1387
   94MOL0     C12598  14.381   3.664   0.353 -0.8355 -0.1356  0.1094
   94MOL0    Cl12599  14.525   3.700   0.445  0.3115  0.4448 -0.3385
   94MOL0     C12600  13.317   3.382   0.763  1.0438 -0.2447 -0.3815
   94MOL0     C12601  13.214   3.316   0.835 -0.0891 -0.0500  0.1736
   94MOL0     O12602  12.903   3.445   0.914  0.2775  0.4834 -0.0783
   94MOL0     C12603  12.738   3.312   1.081  0.2941  0.3164  0.8205
   94MOL0     C12604  12.657   3.234   1.167  0.1865  0.2700 -0.0669
   94MOL0     N12605  12.143   3.224   1.693 -0.9158  0.0792  0.2230
   94MOL0     N12606  12.060   3.228   1.775  0.7204  0.0317 -0.1098
   94MOL0     C12607  11.042   3.218   2.547 -0.1511 -0.3545 -0.7479
   94MOL0     C12608  10.921   3.272   2.499  0.4723 -0.0209  0.0070
   94MOL0     C12609  10.582   3.342   2.198 -0.5755 -0.8135  0.6621
   94MOL0     C12610  10.601   3.479   2.152  0.3340  0.2399  0.4831
   94MOL0     C12611  10.509   3.538   2.057  0.9883  0.1828 -0.3363
   94MOL0     C12612  10.383   3.472   2.021 -1.0187 -0.2865  0.4712
   94MOL0     O12613  10.291   3.510   1.933  0.9076  0.5148  0.2275
   94MOL0     C12614  10.315   3.631   1.849  0.2133 -0.4051 -0.1454
   94MOL0     C12615  10.266   3.614   1.711  0.5560 -0.1109  0.5949
   94MOL0     C12616  10.108   3.610   1.714 -0.0190  0.9703  0.5042
   94MOL0     C12617  10.040   3.577   1.575  0.8515  0.5080 -0.6828
   94MOL0     C12618  10.027   3.435   1.555  0.9286  0.8480  0.6625
   94MOL0     C12619   9.992   3.316   1.531 -0.2200  0.3330 -0.7070
   94MOL0     C12620  10.360   3.347   2.069 -0.4552 -0.4346 -0.9673
   94MOL0     C12621  10.458   3.280   2.157  0.2666  0.4427  0.2312
   94MOL0     C12622  10.413   3.141   2.211 -1.3683  0.8211  0.4913
   94MOL0     H12623  11.008   3.308   2.182  0.0406 -0.0158 -0.6922
   94MOL0     H12624  11.205   3.192   2.256  2.5532  1.6532  0.9260
   94MOL0     H12625  11.398   2.993   2.505 -2.0018 -0.2971 -0.4237
   94MOL0     H12626  11.309   3.022   2.364  0.9495  1.6944 -1.0246
   94MOL0     H12627  11.486   3.230   2.493 -2.0270  1.0526  0.3046
   94MOL0     H12628  11.409   3.238   2.327 -0.9541 -1.8941  0.6024
   94MOL0     H12629  11.581   3.067   2.251 -0.3075  1.4644  0.2320
   94MOL0     H12630  11.619   3.018   2.419  1.8897  0.1917 -0.2743
   94MOL0     H12631  11.665   3.290   2.289  2.6434 -0.6336 -1.9437
   94MOL0     H12632  11.707   3.228   2.446 -3.7745 -2.1849  1.7585
   94MOL0     H12633  11.914   3.212   2.311  1.7061 -3.1072  1.1459
   94MOL0     H12634  11.876   3.047   2.339 -0.0743  1.0110  4.6950
   94MOL0     H12635  11.758   3.046   2.101  1.0515 -0.6954 -0.4159
   94MOL0     H12636  11.781   3.218   2.116  1.5556  0.6875  0.6144
   94MOL0     H12637  12.031   3.039   2.102  1.4324  1.3588  0.8852
   94MOL0     H12638  12.009   3.207   2.077  0.9949  0.1109  0.8403
   94MOL0     H12639  11.914   2.970   1.916 -1.3895  0.3131 -1.1325
   94MOL0     H12640  11.852   3.140   1.884  0.8315 -0.0070 -0.4567
   94MOL0     H12641  12.161   2.921   1.827  1.1200  0.1928  2.1523
   94MOL0     H12642  12.407   3.117   1.614  0.2785 -1.7849 -1.1504
   94MOL0     H12643  12.365   2.955   1.676  0.2753  0.0954  0.9805
   94MOL0     H12644  12.198   2.946   1.492 -0.5855  0.8713  0.1006
   94MOL0     H12645  12.236   3.112   1.440  0.7773 -0.0450 -1.1598
   94MOL0     H12646  12.344   2.916   1.286 -0.2145  2.0890 -1.5507
   94MOL0     H12647  12.453   2.894   1.430  0.5890  2.9826  2.3606
   94MOL0     H12648  12.532   3.128   1.395  0.9142  1.8060 -1.6994
   94MOL0     H12649  12.402   3.149   1.282 -0.1419 -1.0419 -1.7984
   94MOL0     H12650  12.699   2.923   1.034 -2.4691  0.2740  3.3178
   94MOL0     H12651  12.836   3.045   0.871  2.6071 -1.0921  1.7996
   94MOL0     H12652  12.966   3.353   0.613 -0.3419  1.8666  2.6498
   94MOL0     H12653  13.164   3.450   0.469  2.5263  2.2947  0.1977
   94MOL0     H12654  13.572   3.477   0.696  0.0878 -1.9978  0.1991
   94MOL0     H12655  13.552   3.336   0.605  3.8679 -0.2070  3.0266
   94MOL0     H12656  13.636   3.433   0.391  0.8680  1.3221 -2.3030
   94MOL0     H12657  13.634   3.601   0.464  0.5752 -1.2340 -0.6036
   94MOL0     H12658  13.825   3.521   0.616  0.3722 -2.0056  0.8037
   94MOL0     H12659  13.817   3.364   0.535  0.4815 -0.1716 -4.6913
   94MOL0     H12660  13.859   3.653   0.427 -0.2070  0.1359  1.1444
   94MOL0     H12661  13.886   3.506   0.322 -1.1092 -0.0274 -0.1802
   94MOL0     H12662  14.059   3.427   0.454  0.4580  0.7234 -2.7957
   94MOL0     H12663  14.038   3.563   0.574  0.0276  1.4120 -0.1448
   94MOL0     H12664  14.127   3.573   0.288 -0.9601 -0.6368  0.2383
   94MOL0     H12665  14.104   3.727   0.382  0.4831 -0.9660 -0.8266
   94MOL0     H12666  14.295   3.497   0.446 -4.2817 -1.9454 -4.8595
   94MOL0     H12667  14.272   3.649   0.536  2.0878 -1.5927  0.5291
   94MOL0     H12668  14.426   3.618   0.264  1.4079  0.4968  0.8276
   94MOL0     H12669  14.341   3.758   0.314  0.7779 -0.4373 -2.5847
   94MOL0     H12670  13.411   3.408   0.811  0.1739 -1.3512  2.0548
   94MOL0     H12671  13.223   3.279   0.937  1.0009 -0.6076 -0.1128
   94MOL0     H12672  12.746   3.419   1.092  0.6928  0.1632  2.3352
   94MOL0     H12673  12.598   3.280   1.246  0.1016 -0.7587  0.4891
   94MOL0     H12674  11.040   3.194   2.653 -0.9472  2.9692  0.1177
   94MOL0     H12675  10.862   3.295   2.587 -0.4635  3.2237 -1.3015
   94MOL0     H12676  10.692   3.532   2.175  0.5916  0.4882 -0.9980
   94MOL0     H12677  10.535   3.638   2.024 -0.6070 -0.0090 -2.3935
   94MOL0     H12678  10.423   3.645   1.846  0.0140  1.3707  0.2784
   94MOL0     H12679  10.265   3.720   1.887 -2.1903  0.2594 -4.2344
   94MOL0     H12680  10.294   3.520   1.663  0.1097  0.5740 -1.1041
   94MOL0     H12681  10.306   3.691   1.644 -0.1717 -0.3022 -0.0735
   94MOL0     H12682  10.076   3.707   1.753 -0.9692  0.8164  0.1307
   94MOL0     H12683  10.077   3.533   1.784 -0.9468  0.7439 -0.1397
   94MOL0     H12684   9.945   3.631   1.569  1.3541  1.6246  0.7719
   94MOL0     H12685  10.102   3.612   1.492  0.7588  0.9182 -0.5774
   94MOL0     H12686   9.963   3.216   1.508  1.8948 -0.6641  0.6868
   94MOL0     H12687  10.270   3.302   2.029 -1.3977  1.0527 -0.5990
   94MOL0     H12688  10.447   3.133   2.315 -2.5447 -1.1053  0.7811
   94MOL0     H12689  10.304   3.133   2.204 -1.2309 -0.0595 -1.1665
   94MOL0     H12690  10.458   3.058   2.157 -1.9214  0.9309 -0.1521
   95MOL0     O12691   6.924   8.265   9.577 -0.8323  0.5432  0.2283
   95MOL0     C12692   6.959   8.318   9.475  0.0304 -0.9192 -0.4512
   95MOL0     O12693   7.081   8.366   9.450  0.4321  0.2201  0.6005
   95MOL0     C12694   7.170   8.388   9.552  0.1292  0.2924 -0.2257
   95MOL0     C12695   7.298   8.331   9.561 -0.3672 -0.4855  0.7037
   95MOL0     C12696   7.393   8.372   9.657 -0.0919 -1.1752  0.4609
   95MOL0     C12697   7.360   8.467   9.752  0.2329 -0.4581  0.3620
   95MOL0     O12698   7.443   8.507   9.848 -0.2372  0.0163 -0.3325
   95MOL0     C12699   7.443   8.411   9.953  0.7996 -0.8455 -0.1302
   95MOL0     C12700   7.530   8.457  10.069  0.0109  1.7811  0.2077
   95MOL0     C12701   7.677   8.493  10.019 -0.0652 -0.4231  0.4919
   95MOL0     C12702   7.762   8.369   9.977 -0.9041  0.3721 -0.2677
   95MOL0     C12703   7.890   8.409   9.910 -0.0044  0.2537 -0.1641
   95MOL0     C12704   7.955   8.285   9.838 -0.2057 -0.5611  0.4586
   95MOL0     C12705   7.937   8.144   9.913  0.0513 -0.1474  0.4459
   95MOL0     C12706   8.004   8.040   9.818  0.1883  0.3789 -0.7725
   95MOL0     N12707   8.151   8.045   9.794 -0.9100 -0.1954 -0.0127
   95MOL0     C12708   8.253   8.065   9.888  0.0871  0.5052  0.6081
   95MOL0     C12709   8.371   8.046   9.816  0.9913 -0.1385  0.1744
   95MOL0     C12710   8.506   8.082   9.857 -0.2889 -0.2744  0.0920
   95MOL0     C12711   8.618   7.976   9.841 -0.7471  0.3070  0.8547
   95MOL0     C12712   8.607   7.866   9.944 -0.1941  0.0671  0.3190
   95MOL0     C12713   8.717   7.760   9.924 -0.0278 -0.0471  0.5225
   95MOL0     O12714   8.850   7.821   9.910  0.1285 -0.7428  0.2790
   95MOL0     C12715   8.951   7.737   9.952  0.7641  0.7679 -1.3170
   95MOL0     C12716   9.049   7.776  10.049  0.1797  0.8997  0.7523
   95MOL0     C12717   9.166   7.692  10.068 -0.5973 -0.0715  0.1746
   95MOL0     C12718   9.175   7.571  10.001 -0.7052 -0.1172  0.7514
   95MOL0     C12719   9.288   7.487  10.014  0.2547 -0.2286  0.1505
   95MOL0     O12720   9.399   7.540  10.082  0.6019  1.0870  0.0094
   95MOL0     C12721   9.519   7.477  10.103 -1.0024  1.4001 -0.6912
   95MOL0     C12722   9.583   7.499  10.231  0.1518 -0.2302 -0.0223
   95MOL0     C12723   9.710   7.441  10.256  0.0824 -0.7033  0.9150
   95MOL0     C12724   9.775   7.353  10.168 -0.2446  0.7973  0.8498
   95MOL0     O12725   9.898   7.288  10.207  0.7138 -1.4280  0.5363
   95MOL0     C12726   9.933   7.276  10.347  0.9191 -0.4391 -0.5248
   95MOL0     C12727  10.052   7.372  10.379  0.4677 -0.1160  1.1306
   95MOL0     C12728  10.105   7.347  10.519 -0.1164 -0.1397 -0.1378
   95MOL0     C12729  10.259   7.372  10.520 -0.5707 -0.5432 -0.9207
   95MOL0     C12730  10.312   7.364  10.661  0.1929 -0.1298  0.9808
   95MOL0     C12731  10.452   7.401  10.668  0.0091  0.0394  0.0378
   95MOL0     C12732  10.523   7.361  10.794 -1.0702 -0.6915 -0.2915
   95MOL0     C12733  10.653   7.446  10.799 -0.2911  0.0839  0.5281
   95MOL0    Cl12734  10.772   7.443  10.668  0.0558  0.2377 -0.1638
   95MOL0     C12735   9.710   7.328  10.039  0.4793  0.3427 -1.8273
   95MOL0     C12736   9.586   7.389  10.017 -0.1883 -0.4849 -0.4263
   95MOL0     O12737   9.287   7.371   9.965 -0.3173  0.3708 -0.4052
   95MOL0     C12738   9.073   7.528   9.909 -0.0056 -1.3477 -0.4003
   95MOL0     C12739   8.968   7.616   9.886 -0.0906  0.4623 -0.7287
   95MOL0     N12740   8.337   8.030   9.678 -0.0884  0.6127 -0.0315
   95MOL0     N12741   8.210   8.022   9.677 -0.3490 -0.4046  0.3158
   95MOL0     C12742   7.232   8.528   9.741  0.0692 -0.2747 -0.2404
   95MOL0     C12743   7.144   8.481   9.651  0.1282 -0.7034 -0.2072
   95MOL0     C12744   6.861   8.315   9.358 -0.4810  0.3223 -0.5378
   95MOL0     C12745   6.899   8.380   9.234 -0.4155 -0.5915 -0.5623
   95MOL0     C12746   6.816   8.400   9.126 -0.1971 -0.1509  0.1386
   95MOL0     C12747   6.690   8.348   9.129 -0.2412  0.1058 -0.0463
   95MOL0     O12748   6.594   8.357   9.023  0.6162 -0.3608 -0.7395
   95MOL0     C12749   6.633   8.420   8.897 -0.3767 -0.4692 -0.4310
   95MOL0     C12750   6.510   8.446   8.822 -0.0037 -0.4468  0.0235
   95MOL0     C12751   6.415   8.545   8.891 -0.0800 -0.0612 -0.2913
   95MOL0     C12752   6.275   8.545   8.826  0.0913  0.1159  0.3333
   95MOL0     C12753   6.239   8.682   8.789  0.4974 -0.3622  0.5854
   95MOL0     C12754   6.188   8.785   8.747  0.6284  0.1124  0.3292
   95MOL0     C12755   6.656   8.261   9.235 -0.5852  0.1784  0.1433
   95MOL0     C12756   6.736   8.251   9.353  0.1289  0.7220 -0.2546
   95MOL0     C12757   6.678   8.171   9.465 -0.9346 -0.0524 -0.1651
   95MOL0     H12758   7.317   8.250   9.491 -0.4041  0.7224 -0.7334
   95MOL0     H12759   7.496   8.338   9.665 -0.0352 -1.0806  0.1713
   95MOL0     H12760   7.342   8.385   9.986  0.6865 -1.0532 -0.6258
   95MOL0     H12761   7.494   8.321   9.917  1.1409  0.0583 -1.9999
   95MOL0     H12762   7.524   8.378  10.144  1.7632  1.4105  0.0113
   95MOL0     H12763   7.483   8.548  10.107 -2.2234  0.6773  0.2199
   95MOL0     H12764   7.737   8.540  10.098  1.0546 -3.9788  1.9366
   95MOL0     H12765   7.670   8.559   9.932  1.7458  0.0423  0.6543
   95MOL0     H12766   7.785   8.314  10.069 -1.4484  1.5436  0.5949
   95MOL0     H12767   7.704   8.300   9.915 -0.8806  0.1501 -0.0445
   95MOL0     H12768   7.876   8.495   9.843 -0.7984  0.0012 -0.3335
   95MOL0     H12769   7.959   8.434   9.991 -1.3299 -3.5215  2.3806
   95MOL0     H12770   7.912   8.282   9.737 -0.3940 -1.2838  0.5508
   95MOL0     H12771   8.064   8.295   9.837  0.1227 -3.2547  1.1059
   95MOL0     H12772   7.833   8.115   9.932 -0.0047 -0.0121  0.3366
   95MOL0     H12773   7.981   8.164  10.011 -2.0825  0.2292  1.3965
   95MOL0     H12774   7.974   7.945   9.863 -0.9474 -0.1620 -2.5606
   95MOL0     H12775   7.955   8.053   9.721  0.0466  1.7679 -0.5436
   95MOL0     H12776   8.247   8.110   9.986 -0.4928  2.0401 -0.0963
   95MOL0     H12777   8.531   8.170   9.797 -0.7734 -1.3797 -1.7943
   95MOL0     H12778   8.502   8.112   9.963  0.4310  0.0421  0.0348
   95MOL0     H12779   8.621   7.934   9.740 -3.7599 -1.7214  1.4512
   95MOL0     H12780   8.712   8.022   9.872 -0.9235  0.8447  0.6039
   95MOL0     H12781   8.506   7.825   9.942 -0.8578  1.5934  1.1734
   95MOL0     H12782   8.606   7.920  10.039  0.6657  1.2531 -0.3163
   95MOL0     H12783   8.695   7.708   9.830 -2.3859 -3.5022  2.7535
   95MOL0     H12784   8.713   7.684  10.003  0.6584 -0.3300  0.2962
   95MOL0     H12785   9.030   7.877  10.085  0.1724  2.2631 -2.6626
   95MOL0     H12786   9.242   7.728  10.137 -0.3133  0.4853 -0.4244
   95MOL0     H12787   9.553   7.570  10.308 -2.4361 -0.4667 -0.7221
   95MOL0     H12788   9.771   7.470  10.341  0.2600  1.8863 -0.0298
   95MOL0     H12789   9.851   7.300  10.415  0.4984 -1.3042 -0.7124
   95MOL0     H12790   9.965   7.172  10.358 -1.6592 -1.1374  1.3174
   95MOL0     H12791  10.131   7.349  10.307  0.1984 -1.9565  1.3609
   95MOL0     H12792  10.021   7.475  10.358 -0.4982 -0.7927 -1.0516
   95MOL0     H12793  10.050   7.411  10.588  0.0693  0.3311 -0.4186
   95MOL0     H12794  10.093   7.241  10.542 -0.5729 -0.1706 -0.5107
   95MOL0     H12795  10.299   7.468  10.485  0.1300 -1.5719 -3.1545
   95MOL0     H12796  10.308   7.304  10.449 -0.3351  2.5821 -4.0146
   95MOL0     H12797  10.298   7.264  10.703 -3.5311  0.2850  1.0614
   95MOL0     H12798  10.258   7.432  10.728 -1.1737  0.8564 -1.0217
   95MOL0     H12799  10.507   7.340  10.595  3.8368  2.8219  0.2880
   95MOL0     H12800  10.458   7.502  10.626 -3.7845 -0.0933 -1.2035
   95MOL0     H12801  10.552   7.256  10.786 -2.1465 -0.9240 -1.4828
   95MOL0     H12802  10.461   7.374  10.883  2.0686 -1.1674  2.1213
   95MOL0     H12803  10.622   7.550  10.813 -1.5334 -0.3245  0.9636
   95MOL0     H12804  10.698   7.397  10.885 -0.6788 -2.7948 -0.7802
   95MOL0     H12805   9.750   7.260   9.965  2.1347  1.2948 -1.8531
   95MOL0     H12806   9.556   7.372   9.914 -0.9369  1.5533 -0.5945
   95MOL0     H12807   9.076   7.441   9.844  0.9994 -0.7119 -1.2503
   95MOL0     H12808   8.904   7.596   9.801  0.4392 -2.3486 -0.5671
   95MOL0     H12809   7.187   8.593   9.815  0.1057 -0.1806 -0.3013
   95MOL0     H12810   7.048   8.530   9.659  2.5128  4.8096 -0.3612
   95MOL0     H12811   7.001   8.417   9.242 -0.7407  0.3526  7.7031
   95MOL0     H12812   6.854   8.438   9.031 -3.4153  0.5536 -0.9763
   95MOL0     H12813   6.715   8.372   8.844  1.6162  0.4937  1.6000
   95MOL0     H12814   6.686   8.515   8.905  0.0614 -0.6509 -1.1164
   95MOL0     H12815   6.456   8.352   8.808  0.3747 -1.1934  2.9738
   95MOL0     H12816   6.537   8.478   8.721  1.0876 -0.9765  0.1313
   95MOL0     H12817   6.449   8.649   8.896 -0.5883  0.0695  1.0605
   95MOL0     H12818   6.391   8.512   8.993  2.1701 -0.8010  0.0427
   95MOL0     H12819   6.274   8.487   8.733  0.1988  0.7771 -0.0883
   95MOL0     H12820   6.206   8.508   8.902  2.2023  1.4038  3.0149
   95MOL0     H12821   6.140   8.877   8.722 -0.1001 -0.0924  0.9232
   95MOL0     H12822   6.555   8.223   9.221 -0.7036  0.9293 -1.2150
   95MOL0     H12823   6.634   8.244   9.534  0.0238 -0.7002  1.1926
   95MOL0     H12824   6.597   8.109   9.426  0.2111 -0.8672 -1.3393
   95MOL0     H12825   6.750   8.103   9.513 -0.3691  0.5830 -0.0930
   96MOL0     O12826   5.413   7.298   3.733 -0.0559  0.4282 -0.1039
   96MOL0     C12827   5.341   7.341   3.820 -0.0185 -0.7125  0.3727
   96MOL0     O12828   5.353   7.460   3.878 -0.0743  0.0014  1.0991
   96MOL0     C12829   5.474   7.520   3.851  0.0290  0.8729  0.8544
   96MOL0     C12830   5.494   7.588   3.727  0.3869  0.1794 -0.2016
   96MOL0     C12831   5.617   7.653   3.697  0.5038  0.5766 -0.2962
   96MOL0     C12832   5.718   7.668   3.794  0.8784 -0.0321 -0.3893
   96MOL0     O12833   5.839   7.725   3.786 -0.3230  0.2341 -0.4698
   96MOL0     C12834   5.894   7.729   3.654 -0.3083 -1.0716 -0.1202
   96MOL0     C12835   6.024   7.817   3.667 -0.3140 -0.5468 -0.7422
   96MOL0     C12836   5.986   7.967   3.683  0.0764  0.3679 -0.3910
   96MOL0     C12837   6.104   8.054   3.717 -0.0869 -0.0951 -0.3698
   96MOL0     C12838   6.168   8.015   3.855  0.6055  0.1001  0.4866
   96MOL0     C12839   6.251   8.129   3.909  1.0272  0.4124 -0.7488
   96MOL0     C12840   6.301   8.078   4.044 -0.0527  0.8516 -0.0433
   96MOL0     C12841   6.359   8.194   4.122  0.4115 -0.4870 -0.4378
   96MOL0     N12842   6.484   8.249   4.066  0.0644 -0.3890 -0.2781
   96MOL0     C12843   6.614   8.205   4.084  0.8328 -0.7142  0.4095
   96MOL0     C12844   6.692   8.280   3.998 -0.1264 -0.4966  0.3229
   96MOL0     C12845   6.840   8.292   3.983 -0.2884  0.2872 -0.2434
   96MOL0     C12846   6.883   8.270   3.833 -0.1961 -0.7048 -0.1017
   96MOL0     C12847   7.013   8.332   3.797  1.4412  0.0463 -0.3252
   96MOL0     C12848   7.124   8.324   3.900 -0.3406 -0.6123  0.4911
   96MOL0     O12849   7.134   8.191   3.955 -0.2573 -0.0586  0.8049
   96MOL0     C12850   7.259   8.142   3.991  0.5875 -0.5711 -0.1295
   96MOL0     C12851   7.357   8.219   4.054 -0.0539 -0.9451 -0.8400
   96MOL0     C12852   7.481   8.163   4.082  1.0466 -0.0130 -0.8709
   96MOL0     C12853   7.507   8.033   4.070 -0.5348 -0.8275 -0.3568
   96MOL0     C12854   7.644   7.969   4.103  0.0562  0.0662 -0.1678
   96MOL0     O12855   7.657   7.830   4.095  0.2989  0.3697 -0.4209
   96MOL0     C12856   7.778   7.786   4.154 -0.1907 -0.3512  0.3812
   96MOL0     C12857   7.905   7.784   4.079  0.2735  0.2814 -0.6843
   96MOL0     C12858   8.019   7.722   4.146 -0.6280  0.3286 -0.5010
   96MOL0     C12859   8.012   7.687   4.282  0.1707  1.4632 -0.0344
   96MOL0     O12860   8.117   7.633   4.354 -0.0222 -0.4499 -0.3238
   96MOL0     C12861   8.236   7.595   4.284  0.0906  0.4962  0.6608
   96MOL0     C12862   8.355   7.580   4.396  0.6005  0.1406  1.0792
   96MOL0     C12863   8.385   7.710   4.462  0.3671 -0.1999  0.8036
   96MOL0     C12864   8.496   7.700   4.576  0.7340 -0.4173 -0.0976
   96MOL0     C12865   8.494   7.829   4.653  0.3035  0.1199 -0.1261
   96MOL0     C12866   8.561   7.828   4.792  0.0988  0.4441  0.3799
   96MOL0     C12867   8.702   7.783   4.773 -0.6281  0.1892  0.8150
   96MOL0     C12868   8.781   7.789   4.897 -0.1228  0.7415  0.9808
   96MOL0    Cl12869   8.799   7.950   4.962  0.0529 -0.3072 -0.1553
   96MOL0     C12870   7.890   7.699   4.355  0.0735 -0.2963  1.3331
   96MOL0     C12871   7.774   7.755   4.288 -1.0475  0.6063  0.1227
   96MOL0     O12872   7.727   8.049   4.142  0.6176 -0.4458 -0.7386
   96MOL0     C12873   7.407   7.954   4.007  0.3732  0.1290 -0.3118
   96MOL0     C12874   7.282   8.007   3.968  0.1298  0.4637 -1.1471
   96MOL0     N12875   6.597   8.369   3.935  0.0892  0.0376  0.6859
   96MOL0     N12876   6.474   8.348   3.970 -0.3504  0.2718  0.0064
   96MOL0     C12877   5.693   7.614   3.930  0.1289  0.1179  0.8351
   96MOL0     C12878   5.578   7.527   3.944  0.4971 -0.4265  0.1901
   96MOL0     C12879   5.206   7.273   3.842 -0.4271  0.2609 -0.8860
   96MOL0     C12880   5.121   7.323   3.950  0.6166  0.3417  0.7777
   96MOL0     C12881   5.003   7.264   3.976 -0.6957  0.0891 -0.8369
   96MOL0     C12882   4.967   7.146   3.906 -1.2332 -0.0338  0.0762
   96MOL0     O12883   4.855   7.079   3.920  0.3973  0.3953  0.7261
   96MOL0     C12884   4.751   7.132   4.002 -0.7095  0.1757 -1.0154
   96MOL0     C12885   4.626   7.048   4.009 -0.5832 -0.5121 -0.3892
   96MOL0     C12886   4.504   7.135   4.053 -0.3108 -1.1778 -0.0018
   96MOL0     C12887   4.532   7.177   4.200 -0.7056 -0.0454  0.4941
   96MOL0     C12888   4.419   7.246   4.261 -0.0633 -0.1592  0.3418
   96MOL0     C12889   4.316   7.287   4.308  0.8846 -1.0188 -1.3874
   96MOL0     C12890   5.052   7.094   3.809 -1.0702 -0.5774 -0.2009
   96MOL0     C12891   5.169   7.155   3.770  0.0838  0.1504  0.4559
   96MOL0     C12892   5.228   7.102   3.644 -0.5892 -0.1437 -0.6496
   96MOL0     H12893   5.416   7.586   3.652 -1.1735  0.9543  1.3319
   96MOL0     H12894   5.629   7.700   3.600  0.7190  0.0488 -0.5285
   96MOL0     H12895   5.910   7.628   3.615 -0.2726 -1.2264  0.2836
   96MOL0     H12896   5.836   7.784   3.579 -1.8286 -0.1708  1.6357
   96MOL0     H12897   6.095   7.819   3.584 -0.7701 -0.9647 -1.1498
   96MOL0     H12898   6.067   7.792   3.765 -1.5512 -0.3059 -0.1107
   96MOL0     H12899   5.912   7.985   3.762  0.6955  1.6930 -0.1029
   96MOL0     H12900   5.947   8.004   3.587 -0.9373 -3.7563 -1.7981
   96MOL0     H12901   6.186   8.051   3.645  0.2298  1.9382 -0.1365
   96MOL0     H12902   6.076   8.157   3.739 -1.6742 -0.6928  0.6770
   96MOL0     H12903   6.100   7.976   3.932  0.8878  0.0740  0.7234
   96MOL0     H12904   6.235   7.930   3.836  1.4700  1.0686 -0.9997
   96MOL0     H12905   6.337   8.151   3.845  2.8507 -0.6154  1.2274
   96MOL0     H12906   6.194   8.221   3.928  1.5083  0.6279 -0.3167
   96MOL0     H12907   6.373   7.997   4.031  1.9765  2.1297  2.3460
   96MOL0     H12908   6.219   8.038   4.104 -0.3647 -1.2729 -1.7673
   96MOL0     H12909   6.283   8.271   4.140 -0.3351 -1.6676  1.8500
   96MOL0     H12910   6.379   8.169   4.226  0.8741  0.6041 -0.2552
   96MOL0     H12911   6.649   8.132   4.156  1.9802 -2.2417 -1.5985
   96MOL0     H12912   6.872   8.386   4.028 -1.2522 -0.2069  1.5245
   96MOL0     H12913   6.889   8.214   4.042  1.6168  1.3580 -0.3075
   96MOL0     H12914   6.887   8.169   3.790  0.9987 -0.3471 -0.9024
   96MOL0     H12915   6.801   8.317   3.778 -3.5086 -2.7316  2.7561
   96MOL0     H12916   6.982   8.432   3.764 -0.4049 -1.3734 -3.2739
   96MOL0     H12917   7.049   8.267   3.717  5.7936 -0.4442  1.7270
   96MOL0     H12918   7.109   8.385   3.990  0.2474 -0.9224  0.8082
   96MOL0     H12919   7.215   8.364   3.853 -0.6075 -0.1085  0.4003
   96MOL0     H12920   7.332   8.321   4.082  2.9685 -0.0296 -1.1127
   96MOL0     H12921   7.556   8.231   4.121 -0.4119  0.4512  1.3463
   96MOL0     H12922   7.901   7.811   3.974 -1.9126  1.7830 -0.2978
   96MOL0     H12923   8.111   7.723   4.089 -1.4614  0.8766 -1.8889
   96MOL0     H12924   8.218   7.492   4.253  4.6479 -1.3059  3.0815
   96MOL0     H12925   8.272   7.664   4.207  0.5751 -1.5926 -1.0876
   96MOL0     H12926   8.323   7.510   4.474 -2.9965  1.2880  0.8378
   96MOL0     H12927   8.445   7.531   4.359 -0.1061 -1.0019  0.8470
   96MOL0     H12928   8.415   7.782   4.385 -1.7732 -0.1594 -0.0596
   96MOL0     H12929   8.292   7.749   4.505 -1.0973 -2.4120 -0.1441
   96MOL0     H12930   8.597   7.674   4.544  0.0877 -1.3897 -1.4464
   96MOL0     H12931   8.452   7.625   4.643 -1.3213  0.6693 -0.1210
   96MOL0     H12932   8.390   7.860   4.671 -0.2620 -1.4096 -0.6124
   96MOL0     H12933   8.553   7.896   4.589  0.9129 -2.9548 -3.0845
   96MOL0     H12934   8.543   7.925   4.838  1.3449  0.5251  0.7369
   96MOL0     H12935   8.508   7.771   4.869  0.1232  0.0588  0.1185
   96MOL0     H12936   8.761   7.845   4.705 -0.1900 -0.7249  0.3455
   96MOL0     H12937   8.708   7.677   4.744  0.6740  0.0019  1.6659
   96MOL0     H12938   8.746   7.715   4.970  2.4896  0.5345  2.1644
   96MOL0     H12939   8.883   7.761   4.868  0.9945  2.0414  3.3737
   96MOL0     H12940   7.907   7.669   4.458 -2.5163  0.8815  2.1872
   96MOL0     H12941   7.689   7.791   4.343  1.5150  4.0726  2.1836
   96MOL0     H12942   7.419   7.846   4.005  1.4938  0.1447  1.8190
   96MOL0     H12943   7.209   7.947   3.913  1.3068  0.1426 -2.4054
   96MOL0     H12944   5.772   7.616   4.004  1.2158 -2.0202 -0.1792
   96MOL0     H12945   5.563   7.474   4.037 -1.7301 -1.2677 -0.5900
   96MOL0     H12946   5.146   7.414   4.003  0.7039  2.7152 -2.9966
   96MOL0     H12947   4.945   7.309   4.056 -0.0252 -1.1656  0.3864
   96MOL0     H12948   4.721   7.232   3.971 -2.5772  0.4435  1.4048
   96MOL0     H12949   4.793   7.138   4.103 -2.4851 -0.1107 -0.2326
   96MOL0     H12950   4.635   6.966   4.082 -2.0696  2.6833  3.8409
   96MOL0     H12951   4.611   7.005   3.910 -1.4303 -0.5494 -0.2514
   96MOL0     H12952   4.410   7.081   4.044  0.5614 -2.7261 -0.2295
   96MOL0     H12953   4.499   7.222   3.985  0.8329 -1.9363 -1.1037
   96MOL0     H12954   4.560   7.087   4.256 -1.9206 -0.7572 -0.0057
   96MOL0     H12955   4.624   7.235   4.201 -0.3291 -0.5616 -1.1973
   96MOL0     H12956   4.222   7.313   4.353  1.4549 -2.9970  1.1924
   96MOL0     H12957   5.007   7.012   3.754 -0.5880  0.4100 -2.1601
   96MOL0     H12958   5.314   7.038   3.666 -1.1136  0.1556  2.7775
   96MOL0     H12959   5.160   7.040   3.586  0.9047  0.4312 -3.1856
   96MOL0     H12960   5.251   7.193   3.586  0.4232  0.9376  1.3396
   97MOL0     O12961   1.354   8.429   7.636 -0.0017  0.3153  0.0791
   97MOL0     C12962   1.325   8.462   7.752  0.2792  0.6832 -0.7858
   97MOL0     O12963   1.405   8.449   7.866 -0.5415 -0.1981 -0.4134
   97MOL0     C12964   1.539   8.423   7.844 -0.5115 -0.1351 -1.1740
   97MOL0     C12965   1.600   8.342   7.939  0.7017 -0.3644  0.6383
   97MOL0     C12966   1.730   8.303   7.929 -0.1395  0.1983 -0.2105
   97MOL0     C12967   1.809   8.348   7.826 -0.4046  0.1965  0.2196
   97MOL0     O12968   1.933   8.291   7.813 -0.2469  0.5850  0.8308
   97MOL0     C12969   2.030   8.361   7.738 -0.2336 -0.4196 -0.1362
   97MOL0     C12970   2.168   8.297   7.746 -0.5947  1.0312  0.5824
   97MOL0     C12971   2.276   8.389   7.687  1.0686  1.0187  0.7414
   97MOL0     C12972   2.298   8.520   7.751  0.1665 -0.8819  0.1696
   97MOL0     C12973   2.417   8.595   7.700  0.8104 -0.2402  0.4196
   97MOL0     C12974   2.428   8.738   7.768  0.2129  0.2763 -0.1958
   97MOL0     C12975   2.560   8.818   7.724  0.8235  0.1473  0.0872
   97MOL0     C12976   2.586   8.941   7.819  0.2086  0.2553 -0.1469
   97MOL0     N12977   2.630   8.902   7.958 -0.3210  0.5018 -0.5169
   97MOL0     C12978   2.697   8.794   8.007 -1.3843  0.1352  0.6357
   97MOL0     C12979   2.709   8.819   8.140 -0.6796 -0.4568 -0.5042
   97MOL0     C12980   2.798   8.719   8.219 -0.0765  0.4793  1.0288
   97MOL0     C12981   2.847   8.781   8.353 -0.2819 -0.3175 -0.4044
   97MOL0     C12982   2.935   8.680   8.427  0.3512 -0.0576  0.4978
   97MOL0     C12983   3.013   8.732   8.548  0.8831  0.6350  0.1197
   97MOL0     O12984   3.118   8.638   8.581  1.0155  0.0985  0.5562
   97MOL0     C12985   3.236   8.699   8.583  0.5522 -0.4077  0.0861
   97MOL0     C12986   3.259   8.785   8.681  0.1761 -0.2315  0.4336
   97MOL0     C12987   3.376   8.855   8.680 -1.1955  0.0061  1.1171
   97MOL0     C12988   3.471   8.843   8.577 -0.1492  0.2955  0.3888
   97MOL0     C12989   3.597   8.924   8.580  0.6641 -0.0420  0.2387
   97MOL0     O12990   3.671   8.905   8.461  0.0120 -0.3231  0.1642
   97MOL0     C12991   3.794   8.970   8.459  0.8582 -0.5006 -0.2510
   97MOL0     C12992   3.804   9.105   8.457  0.3183 -0.5487  0.4413
   97MOL0     C12993   3.935   9.163   8.435 -0.1952  0.6335 -0.6447
   97MOL0     C12994   4.049   9.082   8.404 -0.5308 -0.4402  0.4834
   97MOL0     O12995   4.175   9.143   8.379  0.6538 -0.5097  0.4407
   97MOL0     C12996   4.284   9.064   8.317 -0.3762 -0.2418  0.0063
   97MOL0     C12997   4.412   9.142   8.334 -0.3548 -0.5007  1.1469
   97MOL0     C12998   4.516   9.070   8.250 -0.6605  0.3695  0.4540
   97MOL0     C12999   4.574   8.936   8.309 -0.5997 -0.3978 -0.0497
   97MOL0     C13000   4.679   8.859   8.233 -0.8775  0.2668  1.2814
   97MOL0     C13001   4.728   8.757   8.322 -0.2591 -0.8272 -0.3344
   97MOL0     C13002   4.834   8.671   8.249 -0.6389 -0.0571  0.4567
   97MOL0     C13003   4.913   8.584   8.355 -0.6317  0.6150  0.3382
   97MOL0    Cl13004   4.822   8.430   8.404 -0.3105  0.0600  0.1820
   97MOL0     C13005   4.036   8.940   8.402 -0.7056 -0.8187  0.3320
   97MOL0     C13006   3.901   8.888   8.429 -0.0754  0.6121  0.0140
   97MOL0     O13007   3.630   8.993   8.680  0.2282  0.1388  0.1444
   97MOL0     C13008   3.455   8.738   8.488 -0.1032  0.2045  0.5782
   97MOL0     C13009   3.327   8.673   8.488  0.0627 -0.0082 -0.6475
   97MOL0     N13010   2.653   8.933   8.173 -0.1823 -0.2212 -0.8477
   97MOL0     N13011   2.603   8.980   8.066 -0.0914  0.7054 -0.0173
   97MOL0     C13012   1.758   8.440   7.736 -0.5654  0.3925  1.0488
   97MOL0     C13013   1.626   8.474   7.748  1.1094 -0.0241 -1.3395
   97MOL0     C13014   1.176   8.492   7.767  0.0454  0.8360  0.0614
   97MOL0     C13015   1.084   8.415   7.691 -0.0781  1.0744 -0.5725
   97MOL0     C13016   0.944   8.429   7.701 -0.1958 -0.0263 -0.4074
   97MOL0     C13017   0.896   8.513   7.798  0.4965  0.1095  0.7518
   97MOL0     O13018   0.768   8.530   7.836 -0.3872 -0.2174 -0.1491
   97MOL0     C13019   0.664   8.512   7.734  0.5515  0.1998  0.6095
   97MOL0     C13020   0.524   8.520   7.790  0.0147 -0.3778  1.0644
   97MOL0     C13021   0.420   8.469   7.680  0.3166  0.0522  0.3274
   97MOL0     C13022   0.282   8.470   7.740 -0.1183  0.4309 -0.5301
   97MOL0     C13023   0.192   8.387   7.656 -0.3470  1.0232 -1.0326
   97MOL0     C13024   0.118   8.320   7.591 -0.0656 -0.1381  0.0675
   97MOL0     C13025   0.986   8.592   7.877  0.7394  0.0086  0.0328
   97MOL0     C13026   1.126   8.585   7.859 -0.2215  0.6737 -0.8709
   97MOL0     C13027   1.207   8.673   7.943 -0.1310  1.1235 -0.0682
   97MOL0     H13028   1.544   8.295   8.019  2.0271  0.9269  2.4077
   97MOL0     H13029   1.766   8.235   8.006 -1.7911  0.0214  0.4710
   97MOL0     H13030   2.010   8.380   7.632  1.4257  1.3655 -0.1840
   97MOL0     H13031   2.038   8.459   7.785 -2.1701 -0.7127  0.9033
   97MOL0     H13032   2.163   8.196   7.704 -5.0512  0.7902  1.1930
   97MOL0     H13033   2.190   8.287   7.852  0.4458  1.5399  0.4235
   97MOL0     H13034   2.254   8.403   7.581 -3.0413 -0.3924  1.2089
   97MOL0     H13035   2.361   8.320   7.691  0.1957 -0.6347 -3.6957
   97MOL0     H13036   2.213   8.589   7.740 -0.8965 -2.4700 -2.3481
   97MOL0     H13037   2.309   8.512   7.860 -2.2557 -1.6692  0.4124
   97MOL0     H13038   2.504   8.531   7.713  2.7152  2.3919  1.4609
   97MOL0     H13039   2.397   8.613   7.594 -1.8715 -3.3535  0.2256
   97MOL0     H13040   2.350   8.808   7.737  0.4821  0.2468 -0.9693
   97MOL0     H13041   2.429   8.719   7.876  2.8873 -0.5555 -0.3031
   97MOL0     H13042   2.546   8.848   7.620  1.7869  0.8318  0.1428
   97MOL0     H13043   2.641   8.745   7.740 -0.9209 -1.8742  0.2449
   97MOL0     H13044   2.660   9.010   7.778  0.3340  0.4671  0.4139
   97MOL0     H13045   2.494   9.001   7.823 -0.0757  0.0255 -2.3914
   97MOL0     H13046   2.739   8.713   7.948  0.3631  1.3652  0.0856
   97MOL0     H13047   2.742   8.626   8.229 -1.8086  1.4629  0.8986
   97MOL0     H13048   2.886   8.689   8.160 -0.7426  0.0287  0.2501
   97MOL0     H13049   2.898   8.876   8.332 -0.7358  0.2020  0.7725
   97MOL0     H13050   2.763   8.805   8.419 -0.5449  1.0156 -1.1815
   97MOL0     H13051   3.003   8.628   8.359 -0.6320  1.8685 -2.1287
   97MOL0     H13052   2.880   8.595   8.468  2.5635 -1.2314  1.2529
   97MOL0     H13053   2.939   8.738   8.628 -0.7925 -2.0748 -1.0968
   97MOL0     H13054   3.062   8.826   8.521  2.3145 -0.5207 -1.5332
   97MOL0     H13055   3.177   8.797   8.751 -0.9843 -2.1250 -0.5105
   97MOL0     H13056   3.402   8.919   8.764  3.3160 -0.6663  0.4623
   97MOL0     H13057   3.720   9.166   8.488 -0.5675 -1.6828  0.3440
   97MOL0     H13058   3.948   9.270   8.446  3.5620  0.1290  1.3964
   97MOL0     H13059   4.297   8.966   8.363  0.5510 -0.3966 -0.5776
   97MOL0     H13060   4.261   9.047   8.212  2.6819 -3.1585 -0.3572
   97MOL0     H13061   4.386   9.239   8.291  1.6173  0.3137  1.6421
   97MOL0     H13062   4.448   9.149   8.438  1.2603 -0.5288  0.6228
   97MOL0     H13063   4.467   9.045   8.155 -0.0797  1.6653 -0.2237
   97MOL0     H13064   4.603   9.134   8.231 -2.2095  2.8829  1.3685
   97MOL0     H13065   4.503   8.859   8.339  0.7175 -1.4581  0.4342
   97MOL0     H13066   4.625   8.966   8.401  0.0221 -2.4406  0.3215
   97MOL0     H13067   4.744   8.943   8.206 -0.0314 -0.9520 -0.6973
   97MOL0     H13068   4.646   8.817   8.137  3.4906 -1.0785  0.1439
   97MOL0     H13069   4.778   8.810   8.404 -0.8268  2.1915 -1.7859
   97MOL0     H13070   4.651   8.699   8.372 -0.5100  3.3468  5.1045
   97MOL0     H13071   4.914   8.720   8.193 -1.4485  0.2136 -0.4929
   97MOL0     H13072   4.779   8.624   8.167 -2.4681  0.8756  1.0845
   97MOL0     H13073   5.009   8.549   8.316 -0.2765  2.8304 -0.9518
   97MOL0     H13074   4.932   8.647   8.442 -2.8169 -3.3803  4.1248
   97MOL0     H13075   4.111   8.865   8.380 -1.3747 -1.2847 -0.4141
   97MOL0     H13076   3.883   8.781   8.424  1.6940  0.1278  2.2730
   97MOL0     H13077   3.524   8.717   8.407 -3.2919 -0.9645 -2.0692
   97MOL0     H13078   3.319   8.598   8.409  0.4905 -1.0492  0.2771
   97MOL0     H13079   1.811   8.492   7.657 -3.8644  2.6283  0.0799
   97MOL0     H13080   1.591   8.550   7.680  2.4674  1.6294 -0.2808
   97MOL0     H13081   1.121   8.343   7.620  0.5553  0.9032 -0.0816
   97MOL0     H13082   0.875   8.382   7.632 -0.5383  1.5406 -1.1731
   97MOL0     H13083   0.685   8.432   7.662 -0.6060 -0.4665  1.0004
   97MOL0     H13084   0.682   8.600   7.671 -1.9141 -1.0095 -2.0371
   97MOL0     H13085   0.516   8.622   7.827  3.5943  0.1656  0.7389
   97MOL0     H13086   0.510   8.456   7.878  2.6704 -1.4421  0.8239
   97MOL0     H13087   0.446   8.367   7.652  0.9717  0.3992 -0.3690
   97MOL0     H13088   0.432   8.530   7.590  2.1672  3.3028  2.5490
   97MOL0     H13089   0.286   8.443   7.846  0.5616 -0.3779 -0.7432
   97MOL0     H13090   0.246   8.572   7.749 -0.9437 -0.0457  4.4277
   97MOL0     H13091   0.043   8.275   7.529 -0.8375 -1.3970  1.8408
   97MOL0     H13092   0.952   8.669   7.946  3.0769  1.0603  0.1123
   97MOL0     H13093   1.215   8.626   8.041  0.5952  0.4528 -0.4419
   97MOL0     H13094   1.303   8.696   7.895 -1.4672  3.3147 -1.9294
   97MOL0     H13095   1.162   8.772   7.956  0.4300  1.3245  0.3544
   98MOL0     O13096   4.222   3.972   2.369 -0.2933 -0.2852 -0.1091
   98MOL0     C13097   4.260   3.852   2.392  0.1706 -0.2450 -1.0081
   98MOL0     O13098   4.342   3.821   2.493 -0.3408 -0.6036  0.0405
   98MOL0     C13099   4.377   3.912   2.586 -0.8635 -0.0476  0.3122
   98MOL0     C13100   4.509   3.931   2.606 -0.2681 -0.3818 -0.3578
   98MOL0     C13101   4.568   4.003   2.702  0.5482  0.1081 -0.6224
   98MOL0     C13102   4.487   4.062   2.796 -0.7737  0.4161  0.0836
   98MOL0     O13103   4.535   4.147   2.894 -0.3746 -0.5684 -0.0860
   98MOL0     C13104   4.489   4.110   3.029 -0.3368  0.4501 -0.9327
   98MOL0     C13105   4.595   4.017   3.105  0.8311 -0.6582 -0.4648
   98MOL0     C13106   4.588   4.014   3.254 -0.1613  0.0043 -0.2816
   98MOL0     C13107   4.722   3.949   3.302  0.8749 -0.1540 -0.2712
   98MOL0     C13108   4.697   3.871   3.437 -0.1364 -0.5702  0.2850
   98MOL0     C13109   4.610   3.742   3.417 -0.3477 -0.0534 -0.4143
   98MOL0     C13110   4.608   3.634   3.531 -0.5239 -0.4315 -0.4018
   98MOL0     C13111   4.608   3.688   3.674 -0.1539  0.0864 -0.3760
   98MOL0     N13112   4.542   3.593   3.770  0.1348  0.0761 -0.2347
   98MOL0     C13113   4.517   3.456   3.779  0.5706 -1.1649  0.0700
   98MOL0     C13114   4.443   3.435   3.889  0.5976  0.6581  0.3021
   98MOL0     C13115   4.374   3.306   3.926 -0.5244  0.3576  0.4112
   98MOL0     C13116   4.456   3.187   3.992 -0.5590 -0.1388  0.6097
   98MOL0     C13117   4.435   3.050   3.910  0.0516 -0.5982 -0.5423
   98MOL0     C13118   4.516   2.937   3.983  0.6183  0.1910  1.1764
   98MOL0     O13119   4.466   2.923   4.122  0.0011  0.1433  0.0421
   98MOL0     C13120   4.352   2.857   4.157  0.1080  0.3812  0.5768
   98MOL0     C13121   4.256   2.808   4.071  0.2266  0.5035  0.4476
   98MOL0     C13122   4.147   2.735   4.123 -0.1671  0.3938  0.2848
   98MOL0     C13123   4.139   2.699   4.261  0.1995 -0.1725  0.1364
   98MOL0     C13124   4.025   2.612   4.299  0.4088  1.0750 -0.1088
   98MOL0     O13125   4.062   2.495   4.391 -0.2280 -0.5157  0.6784
   98MOL0     C13126   3.963   2.409   4.412 -0.4221  0.8855  0.7626
   98MOL0     C13127   3.978   2.273   4.368 -0.3943 -0.1014 -0.0836
   98MOL0     C13128   3.877   2.179   4.383 -0.1779 -0.9441  0.8587
   98MOL0     C13129   3.765   2.215   4.454  0.2026  0.3711 -0.0746
   98MOL0     O13130   3.675   2.110   4.472  0.6578  0.9493  0.1812
   98MOL0     C13131   3.568   2.122   4.576 -1.5509 -0.0436 -0.5298
   98MOL0     C13132   3.449   2.071   4.500  0.7753 -1.2557  0.2821
   98MOL0     C13133   3.323   2.073   4.587  0.0275 -0.0290 -0.3009
   98MOL0     C13134   3.217   2.172   4.547 -0.7068 -0.0684 -0.2773
   98MOL0     C13135   3.098   2.164   4.641 -0.4874 -0.3795 -0.2599
   98MOL0     C13136   2.981   2.228   4.565 -0.4939 -0.4349 -0.1961
   98MOL0     C13137   2.861   2.241   4.656  0.0867  0.5982  0.0203
   98MOL0     C13138   2.896   2.311   4.790  0.4246 -0.4652  0.4361
   98MOL0    Cl13139   2.726   2.341   4.854  0.2271  0.2514 -1.0397
   98MOL0     C13140   3.747   2.352   4.489  0.2048 -0.2787  0.5860
   98MOL0     C13141   3.845   2.448   4.470  0.0604  0.3627  1.2137
   98MOL0     O13142   3.912   2.632   4.247 -0.7578  0.0467  0.1769
   98MOL0     C13143   4.238   2.753   4.349 -0.3050 -0.0633  0.5541
   98MOL0     C13144   4.349   2.822   4.291  0.1428 -0.1201  0.1553
   98MOL0     N13145   4.415   3.561   3.951  0.0918 -0.8481  1.0599
   98MOL0     N13146   4.480   3.652   3.878  0.3686 -0.1919 -0.0380
   98MOL0     C13147   4.348   4.055   2.780 -0.5812  0.7727  0.8982
   98MOL0     C13148   4.293   3.970   2.681  0.4888 -0.0700 -0.4609
   98MOL0     C13149   4.219   3.744   2.295 -0.2481 -0.3776 -0.6249
   98MOL0     C13150   4.189   3.785   2.167 -0.3435 -1.1674  0.4457
   98MOL0     C13151   4.156   3.688   2.062 -0.3402 -0.2304 -0.1923
   98MOL0     C13152   4.172   3.555   2.081 -0.5464  0.5895 -0.0152
   98MOL0     O13153   4.154   3.451   1.989 -0.4870  0.5938 -0.0687
   98MOL0     C13154   4.189   3.472   1.853 -0.3059 -1.3960 -0.3578
   98MOL0     C13155   4.173   3.348   1.781 -0.8943 -0.3033  0.3402
   98MOL0     C13156   4.029   3.320   1.737 -0.7128 -0.0564 -0.5616
   98MOL0     C13157   4.015   3.162   1.710  0.5391  0.3520 -1.2892
   98MOL0     C13158   4.101   3.098   1.610  0.3586  0.2153 -0.4015
   98MOL0     C13159   4.170   3.066   1.511  0.2531  0.1016 -0.8914
   98MOL0     C13160   4.176   3.520   2.219 -0.8221  0.0401 -0.1582
   98MOL0     C13161   4.213   3.608   2.326  0.6116  0.7414  0.2295
   98MOL0     C13162   4.227   3.540   2.464  0.0873  0.6193  1.2837
   98MOL0     H13163   4.573   3.885   2.532  0.3492 -2.2958  1.2779
   98MOL0     H13164   4.676   4.019   2.707  0.7780 -1.5143  0.3385
   98MOL0     H13165   4.472   4.202   3.085  0.5714 -0.7990  1.5617
   98MOL0     H13166   4.392   4.061   3.042 -1.6669  3.2416  0.5754
   98MOL0     H13167   4.693   4.056   3.076  0.0935  2.3061  0.6498
   98MOL0     H13168   4.594   3.915   3.067  0.1828 -0.9732  0.3682
   98MOL0     H13169   4.500   3.962   3.293 -2.0892  0.1306 -4.0213
   98MOL0     H13170   4.569   4.117   3.286 -0.5767  0.0177 -0.5540
   98MOL0     H13171   4.757   3.873   3.232  2.5505 -0.5011  0.8814
   98MOL0     H13172   4.800   4.024   3.314  1.3250 -0.6612  0.0360
   98MOL0     H13173   4.795   3.835   3.471  0.0057 -1.1327 -0.6761
   98MOL0     H13174   4.669   3.934   3.521  1.5796 -0.2570  0.6665
   98MOL0     H13175   4.507   3.777   3.408 -0.4127  0.1508  1.0314
   98MOL0     H13176   4.627   3.680   3.328  0.1361 -1.2338  0.4729
   98MOL0     H13177   4.702   3.578   3.526  1.0731  2.0868 -0.0979
   98MOL0     H13178   4.521   3.569   3.517 -2.0798  1.2374  1.0249
   98MOL0     H13179   4.707   3.718   3.709 -1.3054  1.3356  2.0513
   98MOL0     H13180   4.550   3.781   3.676 -0.2746 -0.0037  0.4259
   98MOL0     H13181   4.537   3.384   3.701  1.7955  0.7384 -1.4668
   98MOL0     H13182   4.285   3.332   3.985 -0.9046  1.5248 -0.6236
   98MOL0     H13183   4.344   3.272   3.826  1.2360 -0.2031  0.0545
   98MOL0     H13184   4.562   3.216   3.994 -1.4167  3.4375  1.1616
   98MOL0     H13185   4.428   3.172   4.096  1.4119 -2.2650  0.9153
   98MOL0     H13186   4.471   3.052   3.807  0.1651 -0.6768 -0.5046
   98MOL0     H13187   4.328   3.030   3.904 -0.1472  0.6543 -1.5207
   98MOL0     H13188   4.624   2.949   3.981  0.4948  1.3899 -0.6569
   98MOL0     H13189   4.495   2.847   3.924 -3.1894  0.9785  1.0529
   98MOL0     H13190   4.262   2.817   3.963 -1.5610  0.6651  0.3290
   98MOL0     H13191   4.073   2.696   4.054 -0.2968  0.3703  0.4384
   98MOL0     H13192   4.076   2.245   4.333  1.3245  4.0814  0.7323
   98MOL0     H13193   3.897   2.079   4.346  2.2964  0.1335 -0.9923
   98MOL0     H13194   3.608   2.064   4.659  1.3961  1.6696 -0.6001
   98MOL0     H13195   3.549   2.221   4.619 -1.9647 -1.4211  2.7357
   98MOL0     H13196   3.429   2.128   4.408  1.2992 -0.1383  0.8448
   98MOL0     H13197   3.456   1.971   4.456 -3.0670 -2.0659  1.2260
   98MOL0     H13198   3.276   1.974   4.595 -0.7648  0.4822  2.0092
   98MOL0     H13199   3.363   2.101   4.684 -0.9964  1.7377 -0.3476
   98MOL0     H13200   3.184   2.143   4.447 -2.2422  0.9275 -0.0818
   98MOL0     H13201   3.261   2.272   4.539  0.1928 -0.5813 -2.3244
   98MOL0     H13202   3.135   2.221   4.726  1.1683 -1.1130 -0.4417
   98MOL0     H13203   3.068   2.063   4.670 -2.6037 -0.1756 -1.5280
   98MOL0     H13204   3.020   2.326   4.537  0.6237 -0.5849  0.7899
   98MOL0     H13205   2.949   2.173   4.475 -0.2923 -0.4408 -0.2631
   98MOL0     H13206   2.813   2.146   4.682  2.4776 -0.7869 -0.3185
   98MOL0     H13207   2.791   2.304   4.602 -1.8957 -0.4320  1.2464
   98MOL0     H13208   2.953   2.243   4.854  0.5378 -1.3286 -0.5426
   98MOL0     H13209   2.945   2.408   4.782 -0.7419  0.1246  0.0880
   98MOL0     H13210   3.660   2.391   4.539  0.7933  3.9578 -1.1880
   98MOL0     H13211   3.827   2.549   4.504 -3.3055  0.1901  0.3137
   98MOL0     H13212   4.241   2.729   4.455  2.4270  3.8077  1.5960
   98MOL0     H13213   4.433   2.870   4.341  1.1272  3.4494 -4.2607
   98MOL0     H13214   4.284   4.108   2.851 -2.3132  0.5099 -0.4083
   98MOL0     H13215   4.184   3.969   2.682  0.3293  3.5733 -0.7096
   98MOL0     H13216   4.189   3.892   2.148  1.6315 -1.0748  0.7356
   98MOL0     H13217   4.142   3.744   1.970 -1.0651  0.5155  0.3570
   98MOL0     H13218   4.295   3.502   1.848 -0.3499 -0.4568  2.5559
   98MOL0     H13219   4.127   3.546   1.802  1.6159  0.6264  0.0647
   98MOL0     H13220   4.213   3.265   1.840 -0.4970 -0.1321  0.3135
   98MOL0     H13221   4.233   3.353   1.689  1.3222 -1.6329  1.6153
   98MOL0     H13222   3.983   3.370   1.652 -2.6838 -2.4056 -0.9927
   98MOL0     H13223   3.965   3.349   1.820 -0.9287 -0.1467 -0.6957
   98MOL0     H13224   4.046   3.115   1.804 -1.9475  1.0062 -0.0745
   98MOL0     H13225   3.910   3.134   1.699  0.4340 -0.2671  0.8232
   98MOL0     H13226   4.235   3.020   1.438  0.1825  1.2612 -1.7071
   98MOL0     H13227   4.176   3.412   2.231  3.2174 -0.7033 -4.0366
   98MOL0     H13228   4.162   3.452   2.469 -0.1156  0.4023 -2.2972
   98MOL0     H13229   4.327   3.500   2.485 -0.2890 -2.6762 -2.0329
   98MOL0     H13230   4.197   3.610   2.542 -0.1799 -2.0220  3.6973
   99MOL0     O13231   8.184   0.374   0.039  0.3614 -0.6210  0.1345
   99MOL0     C13232   8.071   0.418   0.067  0.2322 -0.3103 -0.2519
   99MOL0     O13233   7.962   0.426  -0.016 -0.5806 -0.4925 -0.4607
   99MOL0     C13234   7.970   0.374  -0.142 -0.0199  0.2164 -0.2218
   99MOL0     C13235   8.058   0.420  -0.243  0.3863 -0.7224 -0.2016
   99MOL0     C13236   8.055   0.364  -0.376 -0.0613 -0.1351  0.1834
   99MOL0     C13237   7.967   0.257  -0.414  0.8947  1.3063 -0.7219
   99MOL0     O13238   7.966   0.208  -0.546 -0.0768 -0.4087  0.3804
   99MOL0     C13239   7.839   0.187  -0.616  0.2848 -0.5437 -0.0313
   99MOL0     C13240   7.774   0.326  -0.650 -0.3055  0.7006  1.2825
   99MOL0     C13241   7.642   0.293  -0.712  0.9097 -1.0235 -0.7524
   99MOL0     C13242   7.543   0.416  -0.726 -0.2230 -0.3473  0.1135
   99MOL0     C13243   7.434   0.389  -0.831  0.2109  0.9180  1.1017
   99MOL0     C13244   7.337   0.275  -0.790 -0.8037  0.2327 -0.4661
   99MOL0     C13245   7.213   0.285  -0.882 -0.9381  0.3638  0.4342
   99MOL0     C13246   7.231   0.232  -1.031  0.3072 -0.2496 -0.1146
   99MOL0     N13247   7.228   0.082  -1.043 -0.7082  0.0162 -0.1394
   99MOL0     C13248   7.337  -0.003  -1.046  0.8425 -0.6079 -0.6461
   99MOL0     C13249   7.288  -0.131  -1.067  0.3131  0.8099  0.1633
   99MOL0     C13250   7.372  -0.259  -1.090  1.0344 -0.5313 -0.2859
   99MOL0     C13251   7.504  -0.265  -1.025 -0.1301 -0.6671  0.0207
   99MOL0     C13252   7.613  -0.186  -1.104 -0.5955  0.4847  0.0491
   99MOL0     C13253   7.723  -0.171  -0.997  0.0734  0.6951  0.6851
   99MOL0     O13254   7.845  -0.198  -1.070 -0.4399 -0.5932 -0.2040
   99MOL0     C13255   7.962  -0.192  -0.994  0.1856  0.5315 -0.1993
   99MOL0     C13256   7.972  -0.146  -0.860  0.5116 -0.7175  0.8719
   99MOL0     C13257   8.098  -0.156  -0.800  0.0113 -0.8217 -0.0850
   99MOL0     C13258   8.213  -0.227  -0.857  0.6597 -0.8871  0.1390
   99MOL0     C13259   8.325  -0.264  -0.767 -0.5190 -0.4182  1.2290
   99MOL0     O13260   8.414  -0.351  -0.820 -0.4813  0.0777 -0.1848
   99MOL0     C13261   8.520  -0.402  -0.750 -0.1394  0.9047  0.0611
   99MOL0     C13262   8.583  -0.521  -0.799  0.0777  0.3795 -0.2723
   99MOL0     C13263   8.683  -0.590  -0.729  0.6006  0.7888  1.5661
   99MOL0     C13264   8.737  -0.535  -0.615  0.0955  0.0633 -0.1454
   99MOL0     O13265   8.842  -0.579  -0.538  0.5439  0.3291 -0.2190
   99MOL0     C13266   8.926  -0.674  -0.593  0.5415 -0.9009  0.7739
   99MOL0     C13267   9.033  -0.702  -0.481  0.7375 -0.3847 -0.2852
   99MOL0     C13268   8.976  -0.790  -0.362 -0.6547 -0.4955 -0.1459
   99MOL0     C13269   9.065  -0.756  -0.242  0.7160  0.1089 -0.0475
   99MOL0     C13270   9.004  -0.845  -0.127 -0.3844  0.3563 -0.5810
   99MOL0     C13271   9.098  -0.849  -0.014 -0.5647 -1.0989 -0.5756
   99MOL0     C13272   9.206  -0.950  -0.025  0.9457 -0.0786  0.4983
   99MOL0     C13273   9.318  -0.919   0.078 -0.0350  0.1089 -0.7405
   99MOL0    Cl13274   9.480  -1.009   0.071  0.2612 -0.4411 -0.1122
   99MOL0     C13275   8.672  -0.423  -0.565  0.0695 -0.0516 -0.0485
   99MOL0     C13276   8.567  -0.360  -0.625 -0.3861  0.2218 -0.4396
   99MOL0     O13277   8.324  -0.220  -0.653  0.5629  0.5841  0.1778
   99MOL0     C13278   8.197  -0.274  -0.987  0.1962 -0.5943  0.6825
   99MOL0     C13279   8.081  -0.243  -1.053  0.7474  0.6002 -0.5110
   99MOL0     N13280   7.153  -0.117  -1.080 -0.0133  0.3477 -0.0356
   99MOL0     N13281   7.120   0.008  -1.069  0.2841  1.0678  0.4759
   99MOL0     C13282   7.889   0.210  -0.304 -0.3828 -0.2025 -0.4141
   99MOL0     C13283   7.890   0.263  -0.184 -0.4863  0.7129  0.0986
   99MOL0     C13284   8.047   0.475   0.207  0.5727  0.1916 -0.7200
   99MOL0     C13285   7.914   0.480   0.249  0.8421  0.6701 -1.1532
   99MOL0     C13286   7.880   0.541   0.370  0.0143 -0.4352  0.2912
   99MOL0     C13287   7.977   0.580   0.452  0.2179 -0.2591  0.0021
   99MOL0     O13288   7.946   0.640   0.571 -0.0420 -0.1173  0.3886
   99MOL0     C13289   7.992   0.770   0.605  0.3895  0.1589 -0.0208
   99MOL0     C13290   7.875   0.862   0.644 -0.0309 -0.3711 -0.2258
   99MOL0     C13291   7.804   0.818   0.774 -0.4615 -0.0857 -0.5299
   99MOL0     C13292   7.678   0.894   0.813 -0.2561  0.4322 -0.0760
   99MOL0     C13293   7.569   0.883   0.714 -0.0512  0.8888 -0.2744
   99MOL0     C13294   7.471   0.875   0.633  0.0224  0.2501 -1.1750
   99MOL0     C13295   8.111   0.576   0.416  0.0706  0.3921 -0.9722
   99MOL0     C13296   8.150   0.525   0.295  0.3159 -0.4161 -0.4028
   99MOL0     C13297   8.298   0.528   0.261 -0.3615  0.1639 -0.7928
   99MOL0     H13298   8.131   0.496  -0.219  0.4765 -1.0427  0.5857
   99MOL0     H13299   8.120   0.412  -0.449  3.5684 -0.2547  3.0348
   99MOL0     H13300   7.856   0.128  -0.707  1.8399  0.3157 -0.3437
   99MOL0     H13301   7.767   0.124  -0.564  0.6387 -3.0925 -2.3765
   99MOL0     H13302   7.845   0.368  -0.722 -1.3662 -0.9368 -0.8252
   99MOL0     H13303   7.769   0.396  -0.567 -1.3667  0.2513  1.6075
   99MOL0     H13304   7.588   0.227  -0.643 -2.0017 -0.2537 -2.1089
   99MOL0     H13305   7.647   0.230  -0.802  2.6081 -2.8664  0.5361
   99MOL0     H13306   7.498   0.438  -0.629 -1.0234  0.3238 -0.3937
   99MOL0     H13307   7.606   0.502  -0.750  0.3006 -0.9531 -0.7410
   99MOL0     H13308   7.375   0.481  -0.831  3.1520  2.9511  0.4351
   99MOL0     H13309   7.484   0.373  -0.926 -0.7741 -0.8524  0.8240
   99MOL0     H13310   7.392   0.181  -0.799 -2.3887 -0.8534  0.7331
   99MOL0     H13311   7.306   0.292  -0.687  1.1575 -1.3565  0.4545
   99MOL0     H13312   7.179   0.389  -0.878  2.4102  1.6443 -0.7494
   99MOL0     H13313   7.136   0.220  -0.841  0.0889 -0.4471  1.1139
   99MOL0     H13314   7.165   0.274  -1.107  2.4400  2.0696 -0.8501
   99MOL0     H13315   7.332   0.263  -1.060  0.0956  0.2815 -0.2911
   99MOL0     H13316   7.443   0.017  -1.036  0.5976 -0.4138  2.2382
   99MOL0     H13317   7.307  -0.336  -1.047  0.1867  0.1949 -0.2406
   99MOL0     H13318   7.390  -0.270  -1.197  2.6218  0.0224 -0.1087
   99MOL0     H13319   7.500  -0.237  -0.919  3.3672  0.9961 -0.1227
   99MOL0     H13320   7.531  -0.371  -1.032 -0.0097 -0.6051 -0.5174
   99MOL0     H13321   7.565  -0.089  -1.125 -1.3585  0.5167  1.7484
   99MOL0     H13322   7.642  -0.248  -1.189  0.8827  3.2402 -1.6176
   99MOL0     H13323   7.711  -0.250  -0.922 -3.2343 -0.5993 -1.0182
   99MOL0     H13324   7.723  -0.068  -0.960 -1.5075  1.9298 -2.3334
   99MOL0     H13325   7.880  -0.112  -0.814  0.8310  1.5174  0.0173
   99MOL0     H13326   8.093  -0.126  -0.695  1.6920 -1.6994  0.2796
   99MOL0     H13327   8.548  -0.566  -0.891  2.4621 -3.1931  0.3739
   99MOL0     H13328   8.722  -0.683  -0.770  0.1677  1.0172  0.6097
   99MOL0     H13329   8.886  -0.772  -0.620  0.9952 -1.2179  1.2349
   99MOL0     H13330   8.979  -0.637  -0.682  1.0051  1.7698  2.0604
   99MOL0     H13331   9.115  -0.763  -0.521 -0.8737 -2.9014 -0.0143
   99MOL0     H13332   9.076  -0.606  -0.451 -0.2077  0.4465 -1.5069
   99MOL0     H13333   8.870  -0.769  -0.348 -0.6944  0.8592 -2.0029
   99MOL0     H13334   8.988  -0.896  -0.384 -3.0549 -0.8914  0.2411
   99MOL0     H13335   9.052  -0.653  -0.209  1.9352  0.3954 -0.4187
   99MOL0     H13336   9.171  -0.771  -0.262  0.9378 -0.8090  1.6405
   99MOL0     H13337   8.993  -0.952  -0.143  2.9888 -0.2018 -0.0439
   99MOL0     H13338   8.909  -0.802  -0.093 -0.5336 -1.2283  1.1477
   99MOL0     H13339   9.131  -0.745  -0.005 -0.4379 -0.8408 -3.2412
   99MOL0     H13340   9.040  -0.874   0.076 -1.2161  1.0033 -0.3709
   99MOL0     H13341   9.249  -0.958  -0.125 -0.4190 -1.1417 -0.0315
   99MOL0     H13342   9.162  -1.047   0.001 -1.3491  0.8983  0.5257
   99MOL0     H13343   9.339  -0.812   0.078 -1.0308  0.3539  1.3140
   99MOL0     H13344   9.268  -0.941   0.173 -0.7115 -0.6885 -1.2646
   99MOL0     H13345   8.723  -0.382  -0.479  1.9281 -1.7792 -0.2414
   99MOL0     H13346   8.540  -0.271  -0.570  1.1189  1.0253 -0.9471
   99MOL0     H13347   8.284  -0.322  -1.031 -1.1903 -1.0934 -1.6963
   99MOL0     H13348   8.069  -0.265  -1.159 -2.1654  2.3875 -0.6620
   99MOL0     H13349   7.818   0.128  -0.309 -3.2711  1.9915  1.4217
   99MOL0     H13350   7.824   0.228  -0.105 -0.1030  1.0871  0.5938
   99MOL0     H13351   7.833   0.440   0.189 -0.1548  0.5562  0.2215
   99MOL0     H13352   7.773   0.551   0.389 -0.7840 -2.7305 -2.3467
   99MOL0     H13353   8.047   0.821   0.526 -2.8305  3.2664 -0.4802
   99MOL0     H13354   8.055   0.762   0.695 -0.1778  2.3324  0.6266
   99MOL0     H13355   7.802   0.847   0.564 -1.4927  1.1082  0.7637
   99MOL0     H13356   7.899   0.969   0.644 -0.5354 -0.2554  0.7418
   99MOL0     H13357   7.879   0.826   0.853  2.0549 -4.2744 -2.1527
   99MOL0     H13358   7.775   0.713   0.766  4.3337 -1.5585 -1.9066
   99MOL0     H13359   7.635   0.844   0.901 -1.9088  2.4196  0.3034
   99MOL0     H13360   7.701   0.999   0.831  1.3362  0.3345 -1.3327
   99MOL0     H13361   7.397   0.849   0.560  0.3270 -1.2719 -0.9713
   99MOL0     H13362   8.189   0.604   0.486 -1.4658 -2.2784  2.0867
   99MOL0     H13363   8.350   0.565   0.350  0.3515 -3.5075  0.5355
   99MOL0     H13364   8.329   0.427   0.233 -0.4446 -2.3323  6.1177
   99MOL0     H13365   8.335   0.599   0.188  1.4818  1.8059  1.5657
  100MOL0     O13366   8.995   7.480   6.918  1.0821 -1.0921 -0.0924
  100MOL0     C13367   9.079   7.539   6.854 -0.1767 -0.0696 -0.0289
  100MOL0     O13368   9.154   7.474   6.758  0.3896  0.8548  0.0540
  100MOL0     C13369   9.091   7.365   6.704 -0.6860 -0.0229  0.1176
  100MOL0     C13370   8.967   7.363   6.641 -0.0991 -0.1718  0.4610
  100MOL0     C13371   8.919   7.244   6.593 -0.1950 -0.2269 -0.1853
  100MOL0     C13372   8.993   7.127   6.617 -0.2260 -0.5618  1.0456
  100MOL0     O13373   8.936   7.018   6.554  0.0355  1.3009  0.1428
  100MOL0     C13374   9.032   6.932   6.493 -0.2440  0.9067  0.5494
  100MOL0     C13375   9.081   6.969   6.354 -0.0713 -0.1164  0.6811
  100MOL0     C13376   9.153   7.097   6.337 -0.0860  0.0809  0.1211
  100MOL0     C13377   9.287   7.107   6.395  0.8872  0.4639 -0.2081
  100MOL0     C13378   9.339   7.248   6.376  0.1444 -0.9477  0.0102
  100MOL0     C13379   9.470   7.274   6.436 -0.2660 -0.0128  0.0312
  100MOL0     C13380   9.582   7.212   6.364 -0.6734  0.1993  0.5759
  100MOL0     C13381   9.717   7.271   6.394 -0.3510 -0.5803 -1.5068
  100MOL0     N13382   9.775   7.260   6.532  0.6117  0.3967  0.1405
  100MOL0     C13383   9.731   7.167   6.625  0.4854 -0.0339  0.5889
  100MOL0     C13384   9.811   7.191   6.737 -0.3152  0.2286  0.0017
  100MOL0     C13385   9.810   7.123   6.877 -0.7618  0.5850  0.7470
  100MOL0     C13386   9.943   7.062   6.910 -0.1426  1.1739 -0.1144
  100MOL0     C13387   9.945   7.024   7.062 -0.2397 -0.0828 -0.2013
  100MOL0     C13388  10.061   6.940   7.086 -0.5171 -1.0644  0.0623
  100MOL0     O13389  10.160   7.034   7.128 -0.0253  0.3069 -0.0716
  100MOL0     C13390  10.290   6.984   7.137 -0.0638 -0.0929  0.4081
  100MOL0     C13391  10.320   6.848   7.151  0.2702 -0.3779 -0.4150
  100MOL0     C13392  10.453   6.808   7.178  1.0530  0.6109 -0.1579
  100MOL0     C13393  10.560   6.905   7.176  0.5182  0.2402 -0.7076
  100MOL0     C13394  10.688   6.861   7.232  0.3025  0.6655 -0.2276
  100MOL0     O13395  10.797   6.946   7.226  0.2891 -0.6641  0.2160
  100MOL0     C13396  10.916   6.903   7.273 -0.2644 -0.0171  0.2249
  100MOL0     C13397  10.926   6.870   7.399 -0.2350 -0.3155  0.1454
  100MOL0     C13398  11.047   6.848   7.463  0.5328 -0.0436 -0.6639
  100MOL0     C13399  11.165   6.821   7.391  0.1576 -0.2910  0.8648
  100MOL0     O13400  11.277   6.770   7.443 -0.6883 -0.8950  0.5364
  100MOL0     C13401  11.274   6.721   7.576 -0.1813  0.1246 -0.6881
  100MOL0     C13402  11.403   6.644   7.621 -0.0148 -0.0320  0.1637
  100MOL0     C13403  11.478   6.742   7.712  0.3659  0.4478  0.1089
  100MOL0     C13404  11.604   6.695   7.796  0.3834 -0.3035 -0.2412
  100MOL0     C13405  11.619   6.733   7.945  0.7431  0.1282 -0.5332
  100MOL0     C13406  11.751   6.700   8.018 -0.4916 -0.0093 -0.0482
  100MOL0     C13407  11.750   6.758   8.162 -0.0013 -0.5549 -0.5543
  100MOL0     C13408  11.627   6.746   8.256  0.5563 -0.2285  0.0873
  100MOL0    Cl13409  11.576   6.581   8.265  0.2835  0.0110 -0.2819
  100MOL0     C13410  11.150   6.839   7.249  0.3411  0.1447 -1.3405
  100MOL0     C13411  11.031   6.889   7.197 -0.3175  0.1121  0.2416
  100MOL0     O13412  10.694   6.749   7.283  0.5843 -0.3461  0.3652
  100MOL0     C13413  10.531   7.033   7.144  0.4790  0.0781  0.2879
  100MOL0     C13414  10.393   7.074   7.121  0.6390  0.1718  0.4943
  100MOL0     N13415   9.897   7.294   6.710 -0.4421 -0.4452  0.3557
  100MOL0     N13416   9.862   7.344   6.600 -0.0271  0.4459 -0.1417
  100MOL0     C13417   9.119   7.134   6.688  0.4858  0.0872  0.2223
  100MOL0     C13418   9.167   7.249   6.728  0.2769 -0.9552  0.3352
  100MOL0     C13419   9.113   7.676   6.889 -0.0802 -0.1968 -0.5539
  100MOL0     C13420   9.242   7.729   6.868  0.7461  0.2851 -0.2398
  100MOL0     C13421   9.274   7.858   6.911  0.2373  0.6427 -0.0003
  100MOL0     C13422   9.187   7.940   6.976  0.7502  0.5104  1.3109
  100MOL0     O13423   9.217   8.074   6.993 -0.6898  0.0331 -0.2429
  100MOL0     C13424   9.109   8.155   6.946 -0.8278 -0.2640 -0.4484
  100MOL0     C13425   9.154   8.302   6.952  0.2471 -0.3273 -0.1413
  100MOL0     C13426   9.080   8.398   6.853  1.1820  0.3186 -1.1318
  100MOL0     C13427   8.936   8.448   6.895 -0.5722  0.2487 -0.7371
  100MOL0     C13428   8.834   8.341   6.891 -0.1831  0.2485  0.7562
  100MOL0     C13429   8.763   8.243   6.894  0.1985 -0.2521 -0.0685
  100MOL0     C13430   9.058   7.885   7.000 -0.1536  1.3673  0.5602
  100MOL0     C13431   9.016   7.758   6.949  1.0150 -0.1422  0.3466
  100MOL0     C13432   8.867   7.739   6.970 -0.2871 -0.3719 -0.4190
  100MOL0     H13433   8.917   7.459   6.639  0.7732  0.3405 -2.4567
  100MOL0     H13434   8.820   7.237   6.549 -0.0862 -0.6628 -0.3711
  100MOL0     H13435   9.111   6.906   6.564  0.9171 -1.8039 -1.5398
  100MOL0     H13436   8.981   6.836   6.482  1.2418  0.0383  1.0031
  100MOL0     H13437   9.000   6.967   6.280 -0.1030 -0.3574  0.7214
  100MOL0     H13438   9.137   6.886   6.310 -0.1479 -1.5674  3.1518
  100MOL0     H13439   9.103   7.185   6.379  0.6162  0.8775 -0.6667
  100MOL0     H13440   9.164   7.110   6.229 -1.8968  1.2124  0.0297
  100MOL0     H13441   9.272   7.093   6.502  1.4390 -0.2527 -0.2109
  100MOL0     H13442   9.348   7.026   6.352 -0.9373 -0.8777 -0.4339
  100MOL0     H13443   9.340   7.282   6.272  2.5651  1.1308  0.6074
  100MOL0     H13444   9.277   7.313   6.438  2.4300  0.4821  0.9360
  100MOL0     H13445   9.483   7.382   6.436  1.7182 -0.0174 -4.5828
  100MOL0     H13446   9.481   7.238   6.539  0.8883  1.5817  0.5078
  100MOL0     H13447   9.576   7.233   6.257 -2.0274 -0.1383  0.5582
  100MOL0     H13448   9.578   7.103   6.379 -0.5751 -0.0602 -1.0950
  100MOL0     H13449   9.787   7.231   6.321  0.0247  0.1005 -1.5298
  100MOL0     H13450   9.709   7.374   6.359 -0.5390 -0.1412 -0.2356
  100MOL0     H13451   9.658   7.087   6.613  1.3826 -0.8195  0.2349
  100MOL0     H13452   9.772   7.192   6.953 -4.0905  0.3756 -0.5529
  100MOL0     H13453   9.732   7.047   6.868  2.1803 -2.6207  0.5274
  100MOL0     H13454   9.946   6.971   6.850 -1.1187  1.4807 -0.6490
  100MOL0     H13455  10.031   7.125   6.898 -1.2025  2.4314 -1.7977
  100MOL0     H13456   9.850   6.976   7.089  0.4610 -0.0916  2.5699
  100MOL0     H13457   9.942   7.114   7.124  2.1251 -1.2057  1.7424
  100MOL0     H13458  10.095   6.889   6.996 -0.5441 -1.0230  0.0289
  100MOL0     H13459  10.044   6.865   7.164  4.6886  1.3930  4.1885
  100MOL0     H13460  10.238   6.776   7.148  1.0845 -1.6210  3.0542
  100MOL0     H13461  10.467   6.700   7.186  3.0423  0.7275 -1.1920
  100MOL0     H13462  10.838   6.865   7.462  0.0120 -0.5170  0.4849
  100MOL0     H13463  11.041   6.871   7.569 -2.4389  1.1770 -0.9774
  100MOL0     H13464  11.265   6.811   7.637  1.5531  0.5234 -0.9576
  100MOL0     H13465  11.192   6.655   7.605  0.1785 -0.2250 -0.4648
  100MOL0     H13466  11.379   6.561   7.687  1.6263 -1.6502 -1.1755
  100MOL0     H13467  11.450   6.605   7.530 -3.1681 -2.0997 -0.7635
  100MOL0     H13468  11.502   6.834   7.658 -1.0745 -0.1405 -1.6056
  100MOL0     H13469  11.410   6.778   7.790 -0.3414  0.4484 -0.5057
  100MOL0     H13470  11.688   6.735   7.739  0.7346 -1.9884 -0.9826
  100MOL0     H13471  11.603   6.585   7.793 -0.5876 -0.3783  1.5391
  100MOL0     H13472  11.547   6.675   8.003  3.3498 -1.2249  1.5749
  100MOL0     H13473  11.603   6.841   7.959  1.1786  0.0751  0.4645
  100MOL0     H13474  11.764   6.592   8.021 -2.2334 -0.2299  1.5733
  100MOL0     H13475  11.831   6.753   7.964 -1.0796  0.9983  0.0404
  100MOL0     H13476  11.775   6.863   8.144  0.3959 -0.9297 -2.4417
  100MOL0     H13477  11.835   6.725   8.222  2.1741  0.3490 -2.9390
  100MOL0     H13478  11.658   6.788   8.352 -0.2994 -0.8887  0.6704
  100MOL0     H13479  11.556   6.823   8.225 -0.1971 -0.0057  2.2224
  100MOL0     H13480  11.234   6.813   7.185 -0.2664  0.9955 -2.5174
  100MOL0     H13481  11.018   6.913   7.092 -3.0501  2.5231  1.0050
  100MOL0     H13482  10.612   7.103   7.131 -0.7399  1.4748 -0.0650
  100MOL0     H13483  10.367   7.174   7.088  0.8198  0.6205  1.6488
  100MOL0     H13484   9.160   7.035   6.700  0.2453  0.0118  0.4280
  100MOL0     H13485   9.261   7.253   6.781 -1.9769 -0.1720  4.7179
  100MOL0     H13486   9.320   7.664   6.830  0.4066 -1.2889  1.6280
  100MOL0     H13487   9.376   7.890   6.896  0.0480  1.0051 -0.5609
  100MOL0     H13488   9.025   8.147   7.016  1.1111 -1.0883  1.9086
  100MOL0     H13489   9.076   8.135   6.843 -0.8684  3.6606 -1.3689
  100MOL0     H13490   9.257   8.304   6.915 -0.4893 -1.9787 -2.5010
  100MOL0     H13491   9.151   8.351   7.050  1.3486  1.0693 -0.7637
  100MOL0     H13492   9.062   8.345   6.759  0.1072  1.5895 -1.6841
  100MOL0     H13493   9.146   8.483   6.835  1.2000 -0.4517 -6.2048
  100MOL0     H13494   8.953   8.495   6.993 -0.6172 -1.2405  0.0123
  100MOL0     H13495   8.900   8.530   6.832 -0.7667  1.3020  0.6761
  100MOL0     H13496   8.708   8.150   6.893  0.5268 -0.4505  0.3618
  100MOL0     H13497   8.985   7.949   7.050 -0.6968  0.4307  0.9952
  100MOL0     H13498   8.839   7.676   6.885  2.4775 -3.6353  0.8640
  100MOL0     H13499   8.849   7.686   7.064  0.2634 -1.2237 -0.7868
  100MOL0     H13500   8.812   7.833   6.981 -1.5778 -1.3585  3.1993
  101MOL0     O13501   6.129   4.938   0.091 -0.3133 -1.1073  0.3011
  101MOL0     C13502   6.218   4.879   0.152 -0.4302 -0.5570 -0.3813
  101MOL0     O13503   6.330   4.934   0.193  0.3063 -0.4101  0.4516
  101MOL0     C13504   6.339   5.074   0.196  0.8555 -0.2473  0.0635
  101MOL0     C13505   6.443   5.133   0.129 -0.0679  0.2523  0.4035
  101MOL0     C13506   6.455   5.272   0.147  0.7473  0.2745  0.3805
  101MOL0     C13507   6.359   5.353   0.222 -0.6752 -0.0237  1.0105
  101MOL0     O13508   6.380   5.487   0.223 -0.1837  0.1146  0.6263
  101MOL0     C13509   6.271   5.568   0.279 -0.2216 -0.2662 -0.5981
  101MOL0     C13510   6.288   5.716   0.236 -0.7519  0.1361  0.2598
  101MOL0     C13511   6.294   5.736   0.085 -0.4801  0.5927  0.2890
  101MOL0     C13512   6.182   5.654   0.006  0.4216  0.7631 -0.9270
  101MOL0     C13513   6.228   5.535  -0.066  0.5038 -0.6357 -0.3632
  101MOL0     C13514   6.112   5.464  -0.126 -0.1455  0.5703  0.9028
  101MOL0     C13515   6.134   5.315  -0.111  0.0763  0.0477  0.2123
  101MOL0     C13516   6.263   5.263  -0.170 -0.4760  0.4200  0.4141
  101MOL0     N13517   6.268   5.268  -0.316  0.3810  0.6874  0.2335
  101MOL0     C13518   6.187   5.191  -0.386  0.7830 -0.5853 -0.9584
  101MOL0     C13519   6.237   5.197  -0.511  0.0539  0.9392  0.1447
  101MOL0     C13520   6.182   5.107  -0.615 -0.7749  0.2009 -0.3652
  101MOL0     C13521   6.216   4.969  -0.591  0.3500  0.3956  0.3654
  101MOL0     C13522   6.175   4.875  -0.702 -0.0671 -1.1250  0.6830
  101MOL0     C13523   6.025   4.846  -0.693  0.0269  0.0634 -0.2618
  101MOL0     O13524   5.974   4.746  -0.775  0.4568  0.7294 -0.3964
  101MOL0     C13525   5.843   4.706  -0.765  0.6771  0.0811  0.4065
  101MOL0     C13526   5.751   4.780  -0.688 -0.5104  0.5791  0.7099
  101MOL0     C13527   5.623   4.742  -0.680  0.2534  0.4955  0.0109
  101MOL0     C13528   5.577   4.631  -0.751 -0.2880  0.6982  0.0783
  101MOL0     C13529   5.436   4.603  -0.728  1.1183  0.0470  0.4300
  101MOL0     O13530   5.378   4.496  -0.796 -0.2032 -1.2417 -0.4194
  101MOL0     C13531   5.252   4.453  -0.756  0.2703 -0.3526  0.1411
  101MOL0     C13532   5.142   4.473  -0.844 -0.3348 -0.1063 -0.4960
  101MOL0     C13533   5.012   4.420  -0.809 -0.2257  0.6196  0.6273
  101MOL0     C13534   4.990   4.358  -0.681 -0.0550  0.2065 -0.7517
  101MOL0     O13535   4.872   4.296  -0.634  0.1231  0.4575  0.9957
  101MOL0     C13536   4.762   4.264  -0.724 -0.2382 -0.0285  0.4789
  101MOL0     C13537   4.751   4.106  -0.748  0.3309 -0.4320 -0.6752
  101MOL0     C13538   4.876   4.049  -0.832 -0.3045  0.6405 -0.0557
  101MOL0     C13539   4.865   3.900  -0.829  0.7561  0.4861  0.0657
  101MOL0     C13540   4.999   3.833  -0.844  0.9170 -0.5960  0.5415
  101MOL0     C13541   4.990   3.684  -0.826  0.2219 -0.0487  0.0377
  101MOL0     C13542   4.938   3.616  -0.963 -0.1010 -0.0420 -0.2834
  101MOL0     C13543   5.050   3.631  -1.071 -0.9203  0.4732  0.9223
  101MOL0    Cl13544   4.981   3.576  -1.230  0.1381  0.6935  0.1187
  101MOL0     C13545   5.103   4.349  -0.592  0.4792 -0.7244 -0.0555
  101MOL0     C13546   5.223   4.396  -0.633 -0.4111  0.5563 -0.4339
  101MOL0     O13547   5.365   4.674  -0.663 -0.0233 -0.5056 -0.1038
  101MOL0     C13548   5.664   4.554  -0.831  0.4283  0.3698 -0.2511
  101MOL0     C13549   5.792   4.596  -0.846 -0.3314 -0.5266  0.1893
  101MOL0     N13550   6.343   5.288  -0.514  0.6605 -1.0655  0.3533
  101MOL0     N13551   6.354   5.333  -0.398 -0.1296  0.6369 -0.2399
  101MOL0     C13552   6.252   5.285   0.286  0.8043  0.1864  0.4405
  101MOL0     C13553   6.242   5.151   0.265 -1.0907  0.7500  0.3295
  101MOL0     C13554   6.210   4.734   0.169 -0.0375  0.6860 -0.0296
  101MOL0     C13555   6.330   4.666   0.194  0.2353  0.1044  0.3688
  101MOL0     C13556   6.327   4.533   0.232 -0.2942  0.5396 -0.6074
  101MOL0     C13557   6.207   4.458   0.245  0.6042 -0.9823  0.6451
  101MOL0     O13558   6.217   4.338   0.291 -0.5453  0.5777 -0.1768
  101MOL0     C13559   6.110   4.291   0.366 -1.2688 -0.6139 -0.0819
  101MOL0     C13560   6.152   4.186   0.462 -0.6638  0.2626 -0.0425
  101MOL0     C13561   6.030   4.122   0.536 -0.0415 -0.7323  0.3449
  101MOL0     C13562   6.051   3.999   0.627 -0.4011 -0.5473 -0.2450
  101MOL0     C13563   6.118   4.033   0.758  0.1527  0.8722  0.8697
  101MOL0     C13564   6.156   4.040   0.871 -1.2318 -0.0449 -0.8334
  101MOL0     C13565   6.089   4.531   0.213  0.0601  0.0019  0.8874
  101MOL0     C13566   6.089   4.665   0.173  0.2661  0.5421 -0.1625
  101MOL0     C13567   5.946   4.727   0.155  0.1524  0.5520 -0.2393
  101MOL0     H13568   6.524   5.074   0.089  0.7778  1.4844  0.2451
  101MOL0     H13569   6.535   5.326   0.097  0.0048  2.4277  1.3981
  101MOL0     H13570   6.176   5.537   0.237 -0.5403 -0.7585  0.4477
  101MOL0     H13571   6.265   5.554   0.388  2.6136  0.2109 -0.2986
  101MOL0     H13572   6.382   5.754   0.276 -0.5030 -2.2545  2.1759
  101MOL0     H13573   6.214   5.775   0.291 -0.5445 -0.0915  0.7847
  101MOL0     H13574   6.389   5.703   0.043 -1.4031 -0.7564 -0.8481
  101MOL0     H13575   6.283   5.843   0.068 -0.6908  0.3244 -1.3658
  101MOL0     H13576   6.100   5.626   0.073  1.2012  1.0972  0.1819
  101MOL0     H13577   6.142   5.718  -0.074  0.1198 -0.9697 -2.2257
  101MOL0     H13578   6.298   5.566  -0.145 -0.4821  0.2409 -0.9257
  101MOL0     H13579   6.282   5.475   0.008 -0.6530  0.3479  1.3502
  101MOL0     H13580   6.014   5.488  -0.083 -1.6919 -1.3165 -1.3306
  101MOL0     H13581   6.086   5.494  -0.228 -3.1453 -1.0779  1.0595
  101MOL0     H13582   6.054   5.273  -0.172  0.4623  2.2409 -1.9606
  101MOL0     H13583   6.132   5.270  -0.011  1.8722 -3.1112 -1.0177
  101MOL0     H13584   6.349   5.317  -0.129  0.1654  1.5884 -2.2750
  101MOL0     H13585   6.265   5.158  -0.138  0.6639  0.0067 -0.9132
  101MOL0     H13586   6.104   5.139  -0.341 -0.6037  1.8961 -0.4479
  101MOL0     H13587   6.074   5.119  -0.613 -0.7614  0.5227 -1.3586
  101MOL0     H13588   6.226   5.140  -0.709  3.7193  0.0326  1.4080
  101MOL0     H13589   6.323   4.956  -0.572  0.2639 -0.8063  0.0895
  101MOL0     H13590   6.156   4.948  -0.502 -0.9033  1.0863 -0.2862
  101MOL0     H13591   6.222   4.778  -0.690  1.6349 -0.5267 -0.6616
  101MOL0     H13592   6.200   4.906  -0.804 -4.1436  0.8786  0.0761
  101MOL0     H13593   5.973   4.937  -0.726 -0.0345  0.2025  0.2084
  101MOL0     H13594   5.996   4.832  -0.588 -0.9473  0.0228 -0.5201
  101MOL0     H13595   5.781   4.863  -0.624  1.6662 -1.6709  2.8428
  101MOL0     H13596   5.547   4.808  -0.639  0.6642  1.5498 -0.8851
  101MOL0     H13597   5.167   4.525  -0.936  2.2434 -0.0124  0.1787
  101MOL0     H13598   4.940   4.430  -0.889  0.6389 -0.1346 -0.2605
  101MOL0     H13599   4.674   4.308  -0.676 -0.3630 -0.6678  0.8447
  101MOL0     H13600   4.767   4.313  -0.822  1.3944 -1.3897 -0.1802
  101MOL0     H13601   4.729   4.062  -0.651 -0.0371 -0.8619 -0.9503
  101MOL0     H13602   4.656   4.081  -0.796 -0.0467 -0.2192 -0.0586
  101MOL0     H13603   4.884   4.086  -0.935  2.7888  2.0523  0.5499
  101MOL0     H13604   4.958   4.083  -0.767 -0.5887  0.0481  0.6281
  101MOL0     H13605   4.796   3.871  -0.908  0.9106 -0.3452  0.2255
  101MOL0     H13606   4.817   3.875  -0.733 -2.1309 -0.8792 -1.5852
  101MOL0     H13607   5.065   3.882  -0.773  0.3090  3.3451 -1.3337
  101MOL0     H13608   5.037   3.864  -0.942 -2.5910  1.0198 -0.4704
  101MOL0     H13609   5.085   3.633  -0.810 -1.1032 -3.4686 -1.8228
  101MOL0     H13610   4.917   3.657  -0.749  0.7119  3.9159  2.1442
  101MOL0     H13611   4.838   3.654  -0.987 -0.4049 -0.4043  0.3888
  101MOL0     H13612   4.923   3.508  -0.950 -2.2790  0.3475  0.9925
  101MOL0     H13613   5.079   3.736  -1.086 -1.1834  1.0485  3.7683
  101MOL0     H13614   5.139   3.577  -1.039  0.0377  1.7864  0.5896
  101MOL0     H13615   5.087   4.302  -0.495 -1.2937 -3.5583 -1.5822
  101MOL0     H13616   5.305   4.375  -0.564  0.6417 -1.1078 -2.0914
  101MOL0     H13617   5.628   4.474  -0.895 -0.6929  1.3224 -0.8368
  101MOL0     H13618   5.865   4.551  -0.913 -0.1710  0.4423 -0.3178
  101MOL0     H13619   6.170   5.329   0.342 -0.7965 -1.8621 -0.1966
  101MOL0     H13620   6.164   5.098   0.319  0.3217 -0.4560  1.2661
  101MOL0     H13621   6.428   4.710   0.205  0.6501 -1.1554  2.3101
  101MOL0     H13622   6.420   4.483   0.256 -0.5272  0.0587 -0.6987
  101MOL0     H13623   6.040   4.244   0.296  0.1288 -1.6965 -0.8176
  101MOL0     H13624   6.054   4.369   0.418  0.7131 -0.8806  2.6604
  101MOL0     H13625   6.225   4.225   0.533 -0.0365 -1.0965  0.0918
  101MOL0     H13626   6.202   4.114   0.396  1.7514  0.9184  0.9594
  101MOL0     H13627   5.971   4.068   0.461 -0.2278 -1.2818  0.8732
  101MOL0     H13628   5.968   4.194   0.591 -0.4196 -0.1199 -0.8510
  101MOL0     H13629   5.959   3.940   0.631  0.1541 -1.5784 -1.7382
  101MOL0     H13630   6.119   3.930   0.577 -1.6955 -1.5473 -0.7062
  101MOL0     H13631   6.187   4.044   0.974 -0.3117 -3.6086 -0.8637
  101MOL0     H13632   5.996   4.475   0.209  0.4178 -0.5869  0.6599
  101MOL0     H13633   5.948   4.799   0.073 -1.1893  0.2571 -0.5469
  101MOL0     H13634   5.875   4.649   0.128 -1.7708  2.6567 -1.6186
  101MOL0     H13635   5.909   4.772   0.248 -0.0238  0.6156 -0.3416
  102MOL0     O13636   1.104   8.724   6.779  0.6755 -0.2912  0.2192
  102MOL0     C13637   1.021   8.759   6.690 -0.1872  0.2088 -0.2935
  102MOL0     O13638   1.057   8.847   6.590 -0.0694 -0.3466 -0.1248
  102MOL0     C13639   1.183   8.860   6.537 -0.3831 -0.2078 -0.0053
  102MOL0     C13640   1.236   8.785   6.436  0.3965  0.5771 -0.5148
  102MOL0     C13641   1.368   8.798   6.397  0.3681 -0.7558  0.5176
  102MOL0     C13642   1.456   8.873   6.466 -0.2118  0.5942 -0.1707
  102MOL0     O13643   1.584   8.876   6.413 -0.6672 -0.2545 -0.2039
  102MOL0     C13644   1.681   8.952   6.489 -0.4736 -0.6223  0.2087
  102MOL0     C13645   1.822   8.926   6.432 -0.3036  0.7110 -0.6344
  102MOL0     C13646   1.831   8.953   6.286 -0.3028 -0.7257  0.4523
  102MOL0     C13647   1.960   8.924   6.217  0.1045 -0.5595 -0.0412
  102MOL0     C13648   2.072   9.017   6.270 -0.4268 -0.7106 -0.8328
  102MOL0     C13649   2.192   8.979   6.183 -0.2428  0.1524  0.1396
  102MOL0     C13650   2.315   9.077   6.221  1.4811 -0.9452 -0.2935
  102MOL0     C13651   2.374   9.069   6.361 -0.7747 -0.0101  0.1663
  102MOL0     N13652   2.505   9.007   6.383 -0.3831 -0.3625  0.3567
  102MOL0     C13653   2.619   9.036   6.325 -0.3775 -0.1536  0.5115
  102MOL0     C13654   2.711   8.971   6.406 -0.6130  0.5037 -0.5495
  102MOL0     C13655   2.855   8.995   6.442  0.2588  0.3942 -0.2216
  102MOL0     C13656   2.869   9.060   6.587  0.0437  0.7395 -0.4932
  102MOL0     C13657   3.006   9.136   6.607 -0.0356  0.1278  0.2244
  102MOL0     C13658   3.129   9.047   6.642  0.1130  0.5647  0.2005
  102MOL0     O13659   3.255   9.116   6.654 -0.3904 -0.3816 -0.1693
  102MOL0     C13660   3.376   9.056   6.678  0.2515 -0.5038  1.0435
  102MOL0     C13661   3.496   9.127   6.660  0.6087  0.0094  0.4313
  102MOL0     C13662   3.615   9.063   6.699  0.2732  0.1589 -0.4424
  102MOL0     C13663   3.625   8.945   6.756  0.4595  0.1740 -0.0811
  102MOL0     C13664   3.754   8.898   6.811 -0.3897 -0.5692 -0.3696
  102MOL0     O13665   3.873   8.975   6.789  0.7574  0.5211  0.1185
  102MOL0     C13666   3.976   8.954   6.880  0.1679 -0.7158  0.9372
  102MOL0     C13667   3.974   9.022   7.009  0.0966 -0.0651 -0.2315
  102MOL0     C13668   4.073   8.991   7.099 -0.7974 -0.6170  0.8129
  102MOL0     C13669   4.168   8.896   7.068  0.3129  0.4030 -1.1271
  102MOL0     O13670   4.255   8.876   7.178  0.6654 -0.2300 -0.7763
  102MOL0     C13671   4.360   8.785   7.160  0.0664 -0.9562 -0.5715
  102MOL0     C13672   4.466   8.829   7.065  0.1604 -0.7043  0.0950
  102MOL0     C13673   4.502   8.971   7.096 -0.7830  0.7440 -0.1336
  102MOL0     C13674   4.597   9.025   6.997 -0.4868  0.4071  0.0910
  102MOL0     C13675   4.671   9.155   7.032  0.0092 -0.3039 -1.3704
  102MOL0     C13676   4.829   9.148   7.003  0.6105 -0.0068 -0.4663
  102MOL0     C13677   4.878   9.129   6.862 -1.1284  0.5730 -0.7195
  102MOL0     C13678   5.021   9.175   6.849 -0.0826 -0.1455  1.1037
  102MOL0    Cl13679   5.067   9.190   6.675  0.2143  0.0648 -0.3650
  102MOL0     C13680   4.168   8.828   6.947  0.6378  0.4260  0.2585
  102MOL0     C13681   4.073   8.866   6.848  0.0826 -0.6685  0.0163
  102MOL0     O13682   3.751   8.802   6.884 -1.6802 -0.0252 -0.2302
  102MOL0     C13683   3.508   8.877   6.773  0.2448 -0.2039  0.2386
  102MOL0     C13684   3.390   8.927   6.725 -0.8514 -0.3565 -0.1820
  102MOL0     N13685   2.643   8.891   6.491 -0.6777 -0.0517 -0.5088
  102MOL0     N13686   2.520   8.923   6.488  0.1877  0.5064 -0.4790
  102MOL0     C13687   1.403   8.956   6.564  0.2122  0.2521 -0.0133
  102MOL0     C13688   1.268   8.946   6.597  0.0975 -0.6150  0.6465
  102MOL0     C13689   0.882   8.695   6.682  0.7353 -0.6640  0.1835
  102MOL0     C13690   0.794   8.763   6.599  0.3884 -0.0478  0.7144
  102MOL0     C13691   0.656   8.731   6.580 -1.1562 -0.1766 -0.4440
  102MOL0     C13692   0.617   8.611   6.632  0.0799  0.8493 -0.2384
  102MOL0     O13693   0.498   8.541   6.619  0.6091 -0.4641 -0.0549
  102MOL0     C13694   0.388   8.618   6.563 -0.5154  0.3762 -0.3154
  102MOL0     C13695   0.338   8.727   6.656 -1.1603 -0.1680 -0.5485
  102MOL0     C13696   0.243   8.813   6.581 -0.0223 -0.6097  0.2708
  102MOL0     C13697   0.118   8.732   6.548 -0.0460 -0.1412 -0.1260
  102MOL0     C13698   0.027   8.832   6.495  0.1114  0.5911 -0.6629
  102MOL0     C13699  -0.060   8.906   6.455  0.5718  0.1365  0.0743
  102MOL0     C13700   0.702   8.544   6.721 -0.4329 -0.1692  0.6121
  102MOL0     C13701   0.833   8.588   6.748  0.8194 -0.2131  0.1682
  102MOL0     C13702   0.910   8.509   6.847  0.3782 -0.1803  0.0146
  102MOL0     H13703   1.170   8.702   6.412 -0.6327  1.1411  0.3006
  102MOL0     H13704   1.415   8.746   6.314  0.1999  0.6063 -0.4698
  102MOL0     H13705   1.665   9.060   6.500 -1.9104 -0.8784  0.8605
  102MOL0     H13706   1.688   8.907   6.588  1.2930  0.2698  0.5336
  102MOL0     H13707   1.831   8.817   6.433 -1.5670  0.5562 -2.0509
  102MOL0     H13708   1.900   8.983   6.484  3.7364  0.4377 -5.5751
  102MOL0     H13709   1.808   9.055   6.254 -0.3629 -1.2984 -1.4790
  102MOL0     H13710   1.754   8.897   6.231  1.3598 -0.1648 -2.7123
  102MOL0     H13711   1.995   8.822   6.240  0.6662 -0.4613 -0.4262
  102MOL0     H13712   1.948   8.944   6.110  1.7678 -1.5295 -0.4423
  102MOL0     H13713   2.041   9.122   6.260  0.0080 -0.4696  0.2819
  102MOL0     H13714   2.088   8.990   6.375  0.5622 -0.9016 -1.0317
  102MOL0     H13715   2.225   8.877   6.204 -0.1168 -0.3689 -2.3228
  102MOL0     H13716   2.176   8.977   6.075  0.5523 -0.5104  0.0215
  102MOL0     H13717   2.265   9.174   6.211 -1.9199 -2.6604 -1.6394
  102MOL0     H13718   2.390   9.071   6.141  1.8129  1.5681 -0.2658
  102MOL0     H13719   2.389   9.175   6.383  0.1827  0.2638 -1.5904
  102MOL0     H13720   2.300   9.030   6.431  0.7015  2.9836  3.7715
  102MOL0     H13721   2.653   9.115   6.259  0.1645  0.6650  1.7249
  102MOL0     H13722   2.915   8.903   6.444 -0.1886  0.1110  0.6377
  102MOL0     H13723   2.906   9.071   6.382 -1.0236  0.2174 -1.6182
  102MOL0     H13724   2.785   9.131   6.594 -2.2455 -1.5802 -2.5004
  102MOL0     H13725   2.859   8.979   6.660  1.9064  1.0346  0.1496
  102MOL0     H13726   2.994   9.194   6.698 -0.7612 -1.6840  1.3379
  102MOL0     H13727   3.028   9.199   6.520  1.9706  0.6335  1.0442
  102MOL0     H13728   3.136   8.969   6.566  1.3478 -1.9809  2.7512
  102MOL0     H13729   3.103   8.991   6.733  1.3500 -1.9279 -0.8740
  102MOL0     H13730   3.500   9.235   6.646  0.5467 -0.3016 -2.6372
  102MOL0     H13731   3.707   9.120   6.690 -0.6081  1.3570 -2.6766
  102MOL0     H13732   3.896   9.093   7.034 -0.9184 -1.1069 -0.3478
  102MOL0     H13733   4.070   9.049   7.191 -1.2954  0.2753  0.2534
  102MOL0     H13734   4.409   8.772   7.258 -1.4878 -2.2751  0.0736
  102MOL0     H13735   4.329   8.683   7.134  2.0713 -2.1917  1.4527
  102MOL0     H13736   4.560   8.773   7.068  1.3356  0.8881 -3.0762
  102MOL0     H13737   4.418   8.828   6.967  1.3950 -1.3909 -0.5179
  102MOL0     H13738   4.423   9.047   7.100  0.1961  1.9530 -2.1566
  102MOL0     H13739   4.535   8.965   7.200  0.1236  1.6013 -0.3676
  102MOL0     H13740   4.538   9.028   6.905 -0.6638 -0.8153  0.1446
  102MOL0     H13741   4.677   8.950   6.993  1.0750  2.0775 -1.3261
  102MOL0     H13742   4.653   9.179   7.137 -1.5764 -2.6879 -0.9996
  102MOL0     H13743   4.637   9.242   6.975 -1.6632 -0.8531 -1.2829
  102MOL0     H13744   4.872   9.246   7.026  3.4951 -1.0667 -0.7923
  102MOL0     H13745   4.875   9.073   7.068 -1.1882  1.7011  3.0336
  102MOL0     H13746   4.807   9.159   6.785 -0.3069  1.3347 -1.1938
  102MOL0     H13747   4.881   9.020   6.851  2.2377  0.5199 -0.2540
  102MOL0     H13748   5.018   9.272   6.901  0.6758 -0.6964  2.2184
  102MOL0     H13749   5.095   9.114   6.901 -1.2494 -2.0968  0.5627
  102MOL0     H13750   4.230   8.749   6.905  2.3123  1.6389  0.3983
  102MOL0     H13751   4.053   8.803   6.763  0.4241 -0.6457 -0.0835
  102MOL0     H13752   3.512   8.774   6.807  0.8233  0.4100  2.1489
  102MOL0     H13753   3.306   8.859   6.718 -1.3279  0.1834  0.1905
  102MOL0     H13754   1.465   9.028   6.616  1.8440  0.0062 -1.5155
  102MOL0     H13755   1.232   9.023   6.664  0.4540  2.9980 -2.8894
  102MOL0     H13756   0.830   8.848   6.541 -0.9012 -1.4967 -2.4422
  102MOL0     H13757   0.598   8.796   6.515  1.4184  0.4460 -2.2772
  102MOL0     H13758   0.326   8.530   6.547  3.4901 -2.3059 -3.0589
  102MOL0     H13759   0.414   8.656   6.464  0.4927 -1.8746 -0.9878
  102MOL0     H13760   0.423   8.781   6.699 -1.6911  1.2825 -1.2593
  102MOL0     H13761   0.289   8.689   6.746  2.7271  0.9527  2.2995
  102MOL0     H13762   0.292   8.864   6.498  0.4900 -1.8867 -0.2334
  102MOL0     H13763   0.211   8.885   6.657  2.8842 -0.7837  1.7735
  102MOL0     H13764   0.127   8.663   6.463  0.4992 -0.4992  0.2165
  102MOL0     H13765   0.069   8.681   6.632 -1.0607 -1.1909 -1.3142
  102MOL0     H13766  -0.117   8.959   6.382  1.2500  0.8947  0.0830
  102MOL0     H13767   0.666   8.454   6.771  0.7603 -0.5268  0.8501
  102MOL0     H13768   0.860   8.416   6.877  2.6705 -0.5796  2.9481
  102MOL0     H13769   1.006   8.478   6.804 -0.0583  0.8160 -1.7987
  102MOL0     H13770   0.927   8.565   6.939 -0.9618 -2.8181  2.0246
  103MOL0     O13771  11.270   2.525   0.070  0.3736 -0.6940 -0.4001
  103MOL0     C13772  11.323   2.521   0.185 -0.1654 -0.2739 -0.0628
  103MOL0     O13773  11.451   2.489   0.216 -0.1826 -0.0480  0.0616
  103MOL0     C13774  11.552   2.490   0.124 -0.4023 -0.1465 -0.1420
  103MOL0     C13775  11.547   2.499  -0.015  0.0303  0.2516  0.6998
  103MOL0     C13776  11.673   2.517  -0.081 -0.2515 -0.0079  0.7525
  103MOL0     C13777  11.800   2.502  -0.026  0.4659  0.4935  0.2865
  103MOL0     O13778  11.927   2.518  -0.083  0.7102  0.1848 -0.4145
  103MOL0     C13779  11.979   2.656  -0.040  0.8229  0.5365  0.3955
  103MOL0     C13780  12.130   2.649  -0.083  0.2145  0.0303 -0.3854
  103MOL0     C13781  12.205   2.734   0.021 -0.0640 -0.2629 -0.3846
  103MOL0     C13782  12.338   2.783  -0.030  0.7002  0.2254  0.4046
  103MOL0     C13783  12.429   2.803   0.091 -0.0795 -0.3044 -0.1783
  103MOL0     C13784  12.573   2.834   0.052  0.5874 -0.2402 -0.6809
  103MOL0     C13785  12.655   2.854   0.175  0.3910  1.0386 -0.0718
  103MOL0     C13786  12.777   2.946   0.152  0.3730  0.5123 -0.6486
  103MOL0     N13787  12.874   2.946   0.044  0.2824 -0.7258 -0.9387
  103MOL0     C13788  13.007   2.943   0.055  0.0894  0.5578  1.1772
  103MOL0     C13789  13.056   2.979  -0.072  0.6634 -1.0668  1.1704
  103MOL0     C13790  13.200   3.008  -0.119  1.1618  0.5889 -0.5182
  103MOL0     C13791  13.278   2.878  -0.135 -0.8276  0.0998 -0.5382
  103MOL0     C13792  13.410   2.918  -0.206  0.0561 -0.9967 -0.0764
  103MOL0     C13793  13.510   2.807  -0.225  0.5640  0.1817 -0.3377
  103MOL0     O13794  13.615   2.837  -0.316 -0.3905 -0.4388 -0.3889
  103MOL0     C13795  13.739   2.853  -0.266 -0.1258  0.1079 -0.3132
  103MOL0     C13796  13.777   2.981  -0.236 -0.6962 -0.7820  0.5304
  103MOL0     C13797  13.910   3.013  -0.177 -0.4868  0.6862  0.2471
  103MOL0     C13798  13.987   2.900  -0.138 -0.2638 -0.1442  0.2567
  103MOL0     C13799  14.120   2.926  -0.083  0.9833  0.1011 -0.9640
  103MOL0     O13800  14.175   3.048  -0.098 -0.4275 -0.1942 -0.1707
  103MOL0     C13801  14.297   3.076  -0.049 -0.4454  0.1333  0.1391
  103MOL0     C13802  14.398   3.143  -0.133  0.5379 -0.0662 -0.3286
  103MOL0     C13803  14.516   3.193  -0.069 -0.5972  0.2034  0.1737
  103MOL0     C13804  14.539   3.170   0.066 -0.2287 -0.0172 -0.5500
  103MOL0     O13805  14.659   3.199   0.116 -0.3095 -0.1456 -0.3645
  103MOL0     C13806  14.672   3.291   0.230  0.5199  0.4351 -0.3878
  103MOL0     C13807  14.819   3.317   0.252 -0.6662 -1.1670  0.5680
  103MOL0     C13808  14.853   3.369   0.395 -0.5670 -0.0693 -0.6746
  103MOL0     C13809  14.832   3.523   0.414  0.2505 -1.0258 -0.2729
  103MOL0     C13810  14.898   3.593   0.536 -0.0888 -0.2568 -0.1349
  103MOL0     C13811  15.054   3.605   0.534  0.0537 -0.5431 -0.3834
  103MOL0     C13812  15.090   3.699   0.648  0.5104 -0.6310  0.2024
  103MOL0     C13813  15.244   3.716   0.672 -0.2608  0.0756  0.1660
  103MOL0    Cl13814  15.295   3.860   0.767  0.3817  0.2339  0.0286
  103MOL0     C13815  14.451   3.104   0.142 -0.7368  0.1155 -0.9760
  103MOL0     C13816  14.337   3.057   0.085  0.8691 -0.1266  0.3807
  103MOL0     O13817  14.186   2.821  -0.048 -0.3913 -0.9010  0.3589
  103MOL0     C13818  13.942   2.769  -0.162  0.4658  0.3885  1.0403
  103MOL0     C13819  13.826   2.745  -0.238  0.2269 -0.6390 -0.2552
  103MOL0     N13820  12.948   3.001  -0.153  0.0762  0.2382 -0.2770
  103MOL0     N13821  12.839   2.983  -0.081 -0.8051  0.4080 -0.2808
  103MOL0     C13822  11.803   2.484   0.113 -0.0414  1.1819 -0.1397
  103MOL0     C13823  11.681   2.481   0.183  0.3400  1.1878  0.1738
  103MOL0     C13824  11.223   2.536   0.298  0.7583 -0.0353 -0.2473
  103MOL0     C13825  11.096   2.475   0.283  0.9059  0.3945  0.0505
  103MOL0     C13826  11.008   2.463   0.390 -0.3203  0.6419  0.5604
  103MOL0     C13827  11.033   2.526   0.509 -0.4062 -0.2660 -0.6270
  103MOL0     O13828  10.926   2.528   0.598 -0.0941 -0.4020  0.2745
  103MOL0     C13829  10.965   2.541   0.734  0.4868 -0.7820  0.2998
  103MOL0     C13830  10.853   2.465   0.811 -0.2555  0.7759 -0.7723
  103MOL0     C13831  10.828   2.325   0.768  0.6864 -0.0696  0.1472
  103MOL0     C13832  10.709   2.316   0.670  0.1735 -0.2484  0.5683
  103MOL0     C13833  10.687   2.179   0.618 -0.6712 -0.1252 -0.8395
  103MOL0     C13834  10.653   2.067   0.591  0.8630 -0.2356  0.6411
  103MOL0     C13835  11.160   2.600   0.518  0.5303  0.7173 -0.3808
  103MOL0     C13836  11.256   2.593   0.419 -0.9868  0.7422  0.5538
  103MOL0     C13837  11.392   2.634   0.460  0.2945  0.5170  0.5537
  103MOL0     H13838  11.453   2.499  -0.070  2.2416  0.7754 -3.5215
  103MOL0     H13839  11.667   2.528  -0.189  2.5068 -0.1214  0.5057
  103MOL0     H13840  11.929   2.731  -0.102 -2.4932 -1.9456 -0.2411
  103MOL0     H13841  11.956   2.674   0.065  1.7509 -0.0926  0.7235
  103MOL0     H13842  12.156   2.654  -0.189  0.0971 -3.9086 -0.7626
  103MOL0     H13843  12.171   2.549  -0.067  1.5437  0.5334 -0.5511
  103MOL0     H13844  12.217   2.673   0.111  1.6024 -0.3638 -0.6553
  103MOL0     H13845  12.136   2.812   0.055  0.9597  0.0789  0.9821
  103MOL0     H13846  12.372   2.702  -0.095  3.7242  1.1049  0.7277
  103MOL0     H13847  12.321   2.876  -0.085  1.6530  0.0703 -0.1766
  103MOL0     H13848  12.397   2.891   0.148 -0.3478  0.4303 -1.4328
  103MOL0     H13849  12.414   2.719   0.159 -0.7387  0.3549  0.5062
  103MOL0     H13850  12.615   2.748  -0.002  1.6252 -0.1540 -0.0402
  103MOL0     H13851  12.572   2.916  -0.021 -0.7920  0.2739 -0.1079
  103MOL0     H13852  12.694   2.764   0.223 -2.5745  0.0536  0.6673
  103MOL0     H13853  12.595   2.905   0.252  3.3299  1.1582  2.3384
  103MOL0     H13854  12.732   3.046   0.150 -1.4768 -0.2539  0.1609
  103MOL0     H13855  12.833   2.936   0.245  1.2093 -1.8191 -1.3571
  103MOL0     H13856  13.072   2.927   0.141 -0.4120 -1.5461  1.2248
  103MOL0     H13857  13.187   3.065  -0.211 -4.3486  0.6176 -0.0657
  103MOL0     H13858  13.251   3.082  -0.057  3.1184 -0.7152 -0.4787
  103MOL0     H13859  13.286   2.823  -0.041  1.5563  0.0690 -0.7083
  103MOL0     H13860  13.223   2.818  -0.208 -1.5020 -0.5391  0.4669
  103MOL0     H13861  13.457   3.005  -0.159 -1.6656 -1.1934  2.1985
  103MOL0     H13862  13.392   2.958  -0.306  1.5901  1.5915  0.5870
  103MOL0     H13863  13.456   2.721  -0.266  2.5067 -1.2780  0.0526
  103MOL0     H13864  13.552   2.779  -0.128 -1.5785  1.3012  1.0019
  103MOL0     H13865  13.721   3.068  -0.268 -1.1662 -1.5924 -0.9489
  103MOL0     H13866  13.932   3.118  -0.165  0.3614  0.7505 -1.5371
  103MOL0     H13867  14.361   3.148  -0.235 -1.8458 -2.9599  0.2682
  103MOL0     H13868  14.598   3.225  -0.132 -0.3767 -2.4377 -1.0354
  103MOL0     H13869  14.628   3.389   0.212 -0.0531  0.0038 -1.4800
  103MOL0     H13870  14.628   3.252   0.322 -0.6898  4.5386  0.9866
  103MOL0     H13871  14.869   3.220   0.241  1.4909 -0.3500  2.5142
  103MOL0     H13872  14.857   3.390   0.179  0.2319  0.1626  2.3016
  103MOL0     H13873  14.794   3.312   0.468 -0.5882 -0.4967 -1.0199
  103MOL0     H13874  14.953   3.324   0.402  0.6870  2.5525 -0.4300
  103MOL0     H13875  14.725   3.538   0.425  0.4679 -0.5707  1.3837
  103MOL0     H13876  14.863   3.571   0.320  2.7230 -1.7822  0.0662
  103MOL0     H13877  14.873   3.538   0.627 -0.6642 -2.2355 -1.4186
  103MOL0     H13878  14.855   3.694   0.533 -3.0241 -1.3570  0.7920
  103MOL0     H13879  15.103   3.509   0.548  2.7899  0.5321 -1.9298
  103MOL0     H13880  15.095   3.660   0.450 -1.3284  2.2583  0.6406
  103MOL0     H13881  15.044   3.663   0.741 -1.4985 -4.2479 -1.9850
  103MOL0     H13882  15.055   3.798   0.617  0.4469 -0.3663  1.0945
  103MOL0     H13883  15.288   3.634   0.729  0.3390  0.4948  0.3199
  103MOL0     H13884  15.291   3.735   0.575  0.0037  2.5464  0.6872
  103MOL0     H13885  14.476   3.085   0.246 -1.2635  1.2600 -0.6261
  103MOL0     H13886  14.269   3.003   0.150 -1.0291 -0.7350 -1.9560
  103MOL0     H13887  13.999   2.685  -0.124 -0.7043 -0.5879  0.6668
  103MOL0     H13888  13.790   2.646  -0.265 -1.9242 -1.3957  4.3945
  103MOL0     H13889  11.894   2.469   0.170 -1.6414  2.0319  2.8156
  103MOL0     H13890  11.685   2.466   0.291 -0.9700 -0.0356  0.0811
  103MOL0     H13891  11.069   2.422   0.192 -2.6468 -1.0058  1.7300
  103MOL0     H13892  10.922   2.398   0.376  1.0234 -0.5760 -3.0341
  103MOL0     H13893  10.965   2.648   0.760  6.5722 -0.6041  1.0118
  103MOL0     H13894  11.063   2.497   0.751  0.6708 -0.4064  0.2279
  103MOL0     H13895  10.756   2.516   0.809 -0.3538  0.6597  0.3226
  103MOL0     H13896  10.875   2.460   0.918 -0.7819 -1.7842 -0.7105
  103MOL0     H13897  10.803   2.260   0.853  2.8598  0.6252  1.3929
  103MOL0     H13898  10.908   2.263   0.725 -1.2553 -4.9842  2.7516
  103MOL0     H13899  10.618   2.347   0.723 -0.6751 -1.8746  0.1307
  103MOL0     H13900  10.731   2.383   0.585  1.1928  1.3130  1.9889
  103MOL0     H13901  10.606   1.971   0.580 -1.9257  1.1652 -0.8286
  103MOL0     H13902  11.175   2.644   0.617  0.9365 -1.2260  0.4561
  103MOL0     H13903  11.456   2.546   0.464 -2.9938 -2.1502 -0.5260
  103MOL0     H13904  11.428   2.707   0.387  3.2744  1.7320  3.0201
  103MOL0     H13905  11.390   2.688   0.555 -3.2500  2.4847 -0.4413
  104MOL0     O13906   3.044   4.266   7.812 -0.5202 -0.2545  0.2375
  104MOL0     C13907   3.099   4.382   7.801  0.8346  0.6091 -0.8819
  104MOL0     O13908   3.232   4.404   7.788  0.4727 -0.2562 -0.5942
  104MOL0     C13909   3.325   4.308   7.793  0.8325  0.6643  0.5003
  104MOL0     C13910   3.425   4.326   7.881 -0.1784 -1.0154  0.4773
  104MOL0     C13911   3.536   4.238   7.889 -0.1527 -0.0332  0.0992
  104MOL0     C13912   3.535   4.118   7.806 -0.6532 -0.0288  0.4049
  104MOL0     O13913   3.642   4.027   7.802  0.4946 -0.7395  0.6983
  104MOL0     C13914   3.687   3.988   7.938 -0.3263  1.6585 -0.0193
  104MOL0     C13915   3.753   3.856   7.947  0.0427  0.3390 -0.3977
  104MOL0     C13916   3.658   3.748   7.884 -0.0018 -0.4116 -0.4488
  104MOL0     C13917   3.731   3.613   7.918 -0.0822 -0.0029 -0.2844
  104MOL0     C13918   3.661   3.490   7.851 -0.6455 -0.0233  0.2575
  104MOL0     C13919   3.701   3.348   7.907  0.0931 -0.5625 -0.1031
  104MOL0     C13920   3.854   3.322   7.901 -1.0667  0.3509 -0.4077
  104MOL0     C13921   3.863   3.168   7.852 -0.4127 -0.1174  0.0925
  104MOL0     N13922   3.862   3.157   7.714  0.3021  0.3438 -0.1836
  104MOL0     C13923   3.744   3.156   7.641  0.0550  0.1450 -0.8026
  104MOL0     C13924   3.776   3.113   7.516 -0.5888 -0.0319  0.0912
  104MOL0     C13925   3.683   3.094   7.397  0.2579  0.2862  0.0931
  104MOL0     C13926   3.643   3.231   7.355  0.0380  0.8647  0.5685
  104MOL0     C13927   3.528   3.223   7.240 -0.2205  0.2318  0.0858
  104MOL0     C13928   3.454   3.357   7.211 -0.5898  0.3357 -0.1391
  104MOL0     O13929   3.384   3.401   7.327  0.5332 -0.7280 -0.0609
  104MOL0     C13930   3.284   3.493   7.306  0.3458  0.4356  0.3053
  104MOL0     C13931   3.224   3.516   7.184  0.4363 -0.2125  0.3658
  104MOL0     C13932   3.121   3.611   7.174  0.4778 -0.0158  0.6955
  104MOL0     C13933   3.080   3.693   7.283  0.5483  0.1266  0.6961
  104MOL0     C13934   2.960   3.778   7.269  0.4006 -0.7481  0.3037
  104MOL0     O13935   2.930   3.860   7.370  0.0156 -0.1263 -0.5112
  104MOL0     C13936   2.797   3.892   7.394  0.5639  0.1224  0.2023
  104MOL0     C13937   2.778   4.020   7.439  0.3219 -0.4393 -0.2744
  104MOL0     C13938   2.650   4.069   7.473  0.3582  1.0811  0.5468
  104MOL0     C13939   2.534   3.996   7.444 -1.1507  0.6886  0.1343
  104MOL0     O13940   2.408   4.041   7.460 -0.4848  0.6036 -0.2185
  104MOL0     C13941   2.384   4.148   7.551 -0.2300  0.7914 -0.2833
  104MOL0     C13942   2.232   4.168   7.548  0.0917  0.1704  0.2415
  104MOL0     C13943   2.173   4.290   7.473 -0.2221  1.0003  0.0992
  104MOL0     C13944   2.199   4.287   7.328  0.5007  0.2758  0.2394
  104MOL0     C13945   2.122   4.374   7.238  0.1389  0.0177  0.2629
  104MOL0     C13946   2.164   4.359   7.091 -1.1846 -0.7018  0.2337
  104MOL0     C13947   2.063   4.429   7.007  0.6823  0.6861  0.2053
  104MOL0     C13948   2.086   4.427   6.856 -0.7962 -0.8617  1.2052
  104MOL0    Cl13949   2.220   4.529   6.814 -0.1052 -0.1919 -0.2969
  104MOL0     C13950   2.555   3.867   7.401 -0.4786  0.0940  0.8532
  104MOL0     C13951   2.684   3.811   7.385  0.1417  1.3208  0.4767
  104MOL0     O13952   2.893   3.770   7.168  0.9576  0.0139 -0.2357
  104MOL0     C13953   3.150   3.677   7.401  0.1183  0.3294 -0.5695
  104MOL0     C13954   3.251   3.585   7.412 -0.9614  0.5337  1.0577
  104MOL0     N13955   3.918   3.102   7.514  0.0665 -0.2899  0.1072
  104MOL0     N13956   3.963   3.128   7.632 -0.4726  1.0488 -0.3182
  104MOL0     C13957   3.436   4.099   7.715 -0.8578  0.5438  0.2307
  104MOL0     C13958   3.328   4.190   7.712 -0.8470  0.0238 -0.2129
  104MOL0     C13959   3.018   4.500   7.812  1.1495 -0.1212 -0.9094
  104MOL0     C13960   3.074   4.622   7.852 -0.3198  0.3917  0.2020
  104MOL0     C13961   3.002   4.729   7.885  0.3243 -0.2445  0.2326
  104MOL0     C13962   2.864   4.733   7.872  0.9022 -0.6796  0.3093
  104MOL0     O13963   2.787   4.838   7.904 -0.1746 -0.1858 -0.0690
  104MOL0     C13964   2.704   4.819   8.019  0.3764 -0.2794  0.2745
  104MOL0     C13965   2.551   4.830   7.984 -0.1173 -0.2575  0.4088
  104MOL0     C13966   2.526   4.954   7.897 -0.7995 -0.4348 -0.1679
  104MOL0     C13967   2.377   4.990   7.892  0.0732 -0.7171  0.3175
  104MOL0     C13968   2.350   5.077   7.772  0.2628  0.1399  0.7420
  104MOL0     C13969   2.349   5.132   7.664  0.0362  0.8363  0.1212
  104MOL0     C13970   2.804   4.621   7.814  0.0051 -0.1789 -0.9266
  104MOL0     C13971   2.877   4.502   7.781  0.8483  0.2275  0.1697
  104MOL0     C13972   2.799   4.396   7.725  0.4398  0.2292  0.1613
  104MOL0     H13973   3.413   4.410   7.948 -0.7118  0.7995 -1.7788
  104MOL0     H13974   3.618   4.261   7.955 -2.8212  1.3235  3.2358
  104MOL0     H13975   3.755   4.066   7.974  0.4093  1.2095 -0.4171
  104MOL0     H13976   3.602   3.984   8.007  0.2674 -2.0495  0.6913
  104MOL0     H13977   3.769   3.833   8.052 -2.8243 -0.8190 -0.1255
  104MOL0     H13978   3.850   3.857   7.896  0.5814 -0.9002  0.5588
  104MOL0     H13979   3.642   3.764   7.777 -2.1945  1.0132  0.0439
  104MOL0     H13980   3.556   3.732   7.920  0.0010 -4.1416 -1.6852
  104MOL0     H13981   3.836   3.612   7.888 -0.1861  2.0985 -0.9035
  104MOL0     H13982   3.734   3.601   8.026 -0.2978 -0.7805 -0.3577
  104MOL0     H13983   3.554   3.505   7.867 -0.7052  0.1716 -0.2779
  104MOL0     H13984   3.697   3.486   7.747  1.4863  0.9746  0.9067
  104MOL0     H13985   3.677   3.331   8.013  1.3576  0.8040  0.4426
  104MOL0     H13986   3.643   3.268   7.859 -0.1743 -0.3817 -0.0839
  104MOL0     H13987   3.890   3.341   8.002  0.3924  2.8864 -1.3203
  104MOL0     H13988   3.917   3.379   7.833  1.2328 -0.9113  0.5662
  104MOL0     H13989   3.952   3.114   7.885  2.3041  1.5659 -3.7892
  104MOL0     H13990   3.784   3.108   7.899 -0.9931 -0.0424 -0.7792
  104MOL0     H13991   3.648   3.176   7.687  0.8207  1.3324  0.3402
  104MOL0     H13992   3.738   3.055   7.311 -2.8871  0.3430 -2.1408
  104MOL0     H13993   3.603   3.027   7.429  2.7829 -2.3657  1.3137
  104MOL0     H13994   3.599   3.281   7.441  0.5647 -0.6010  1.7294
  104MOL0     H13995   3.729   3.288   7.320 -1.9070  2.1988 -2.4824
  104MOL0     H13996   3.458   3.148   7.277  1.0706 -1.5704 -0.9272
  104MOL0     H13997   3.562   3.176   7.146 -2.5375 -1.0995 -0.1469
  104MOL0     H13998   3.393   3.335   7.123 -0.2610 -0.0502 -0.2734
  104MOL0     H13999   3.526   3.438   7.199 -1.4139  1.3953  1.5935
  104MOL0     H14000   3.234   3.447   7.101  0.4086 -1.6722  1.5280
  104MOL0     H14001   3.060   3.617   7.084  1.1614  4.6008  0.3055
  104MOL0     H14002   2.870   4.076   7.457  0.9211 -1.9681  1.9444
  104MOL0     H14003   2.643   4.170   7.511 -1.1832  1.1736  0.0822
  104MOL0     H14004   2.434   4.123   7.645  1.3129 -4.8786 -2.1700
  104MOL0     H14005   2.431   4.244   7.526 -0.4929  0.6298 -1.4720
  104MOL0     H14006   2.186   4.075   7.513  1.8486 -0.7573  0.3228
  104MOL0     H14007   2.200   4.177   7.652 -0.5927 -0.6380  0.1141
  104MOL0     H14008   2.065   4.273   7.478 -0.0922  0.2472  0.5029
  104MOL0     H14009   2.202   4.390   7.507  1.4870  0.7502 -0.5333
  104MOL0     H14010   2.182   4.184   7.294  2.7690  0.0090 -0.2113
  104MOL0     H14011   2.307   4.296   7.317  0.6228  1.7383  2.2642
  104MOL0     H14012   2.128   4.482   7.257 -0.1167  0.7899 -3.3659
  104MOL0     H14013   2.015   4.351   7.246 -0.4919  2.4489 -0.3617
  104MOL0     H14014   2.266   4.397   7.085 -0.3913 -2.0837  2.9989
  104MOL0     H14015   2.171   4.256   7.054  0.2217 -0.3058 -0.6863
  104MOL0     H14016   2.045   4.532   7.038 -3.2375  0.2211 -0.0299
  104MOL0     H14017   1.972   4.370   7.017  2.0537 -1.2167  2.2748
  104MOL0     H14018   2.109   4.325   6.823 -1.6676 -1.5357  2.5458
  104MOL0     H14019   1.998   4.463   6.802  2.1954  2.9755 -1.6445
  104MOL0     H14020   2.467   3.807   7.381 -0.4887 -0.5053  2.4732
  104MOL0     H14021   2.720   3.715   7.350  0.6209  2.1928 -1.5777
  104MOL0     H14022   3.121   3.738   7.487 -1.4873 -0.9186 -0.1956
  104MOL0     H14023   3.312   3.575   7.501  3.1902 -0.0963 -1.5741
  104MOL0     H14024   3.447   4.018   7.644 -3.3085  0.3747 -0.0235
  104MOL0     H14025   3.251   4.176   7.637  0.0685 -0.7289 -1.0314
  104MOL0     H14026   3.182   4.633   7.859 -0.1761 -0.8561  0.0488
  104MOL0     H14027   3.054   4.813   7.931  1.6788  0.0847 -1.7857
  104MOL0     H14028   2.732   4.893   8.094  0.1677 -0.1638  0.2391
  104MOL0     H14029   2.729   4.725   8.070  2.6699 -0.9061 -1.8105
  104MOL0     H14030   2.500   4.856   8.078 -2.4079 -1.0928 -0.5275
  104MOL0     H14031   2.506   4.742   7.936 -1.3395  0.7247 -0.3051
  104MOL0     H14032   2.559   4.930   7.795  2.0838 -3.8974  1.3475
  104MOL0     H14033   2.577   5.042   7.936  1.1603 -0.8578 -1.5854
  104MOL0     H14034   2.318   4.899   7.879 -1.2746  0.3393 -1.5301
  104MOL0     H14035   2.347   5.041   7.984 -0.7209 -0.6926  0.0570
  104MOL0     H14036   2.344   5.177   7.567 -1.7662 -1.7843 -1.1290
  104MOL0     H14037   2.699   4.645   7.802  0.8060  3.2805 -1.9586
  104MOL0     H14038   2.782   4.320   7.802 -3.1953  0.1510 -0.5272
  104MOL0     H14039   2.697   4.428   7.700  0.5636  4.6176  3.9526
  104MOL0     H14040   2.842   4.347   7.638 -2.4265 -2.1675 -0.0800
  105MOL0     O14041   7.698   3.166   0.730  0.7824 -0.3422  0.1806
  105MOL0     C14042   7.712   3.280   0.769  0.7534  0.3609  0.2679
  105MOL0     O14043   7.615   3.365   0.818  0.8170  0.0917  0.5624
  105MOL0     C14044   7.508   3.304   0.877 -0.8739 -1.4051 -0.0517
  105MOL0     C14045   7.412   3.255   0.794 -0.3359  0.8482 -0.5544
  105MOL0     C14046   7.296   3.198   0.843  0.2209  0.1541 -0.1075
  105MOL0     C14047   7.283   3.186   0.984  0.4077 -0.5997 -0.6998
  105MOL0     O14048   7.175   3.128   1.043  0.3448  0.4718  0.3185
  105MOL0     C14049   7.082   3.062   0.958  0.4737  0.2966 -0.1860
  105MOL0     C14050   7.026   2.941   1.034  0.1960  0.1290 -0.2127
  105MOL0     C14051   7.125   2.826   1.022  0.2171  0.4985 -0.7672
  105MOL0     C14052   7.080   2.715   1.125  0.6442  0.3476 -0.6960
  105MOL0     C14053   6.951   2.645   1.086  0.4908 -0.5247  0.2755
  105MOL0     C14054   6.937   2.513   1.154  0.3369 -0.2157  0.1510
  105MOL0     C14055   6.921   2.525   1.305 -0.3642 -0.4595 -0.1169
  105MOL0     C14056   6.794   2.593   1.349 -0.6588 -0.2824  0.5873
  105MOL0     N14057   6.790   2.570   1.492  0.2619 -0.1778  0.1445
  105MOL0     C14058   6.707   2.466   1.541  0.6600 -0.4626  0.1339
  105MOL0     C14059   6.720   2.476   1.679 -0.4280  0.6401 -0.4353
  105MOL0     C14060   6.660   2.377   1.774 -0.6763 -0.0198  0.1182
  105MOL0     C14061   6.513   2.400   1.787  0.1838 -1.0778  0.4269
  105MOL0     C14062   6.437   2.357   1.901 -0.3016 -0.4597 -1.0827
  105MOL0     C14063   6.299   2.417   1.905  0.2732  0.5381 -0.5248
  105MOL0     O14064   6.241   2.394   1.775  0.6074  0.4395 -0.0122
  105MOL0     C14065   6.114   2.443   1.743 -0.2814  0.4635 -0.3904
  105MOL0     C14066   6.066   2.429   1.609 -0.9211  0.0118  0.1594
  105MOL0     C14067   5.930   2.451   1.570 -0.0200 -0.3304 -0.9187
  105MOL0     C14068   5.850   2.521   1.656 -0.2575  0.0509  0.2456
  105MOL0     C14069   5.710   2.563   1.630  0.6527  0.6992 -0.8867
  105MOL0     O14070   5.635   2.489   1.535  0.6394 -0.2629 -0.5928
  105MOL0     C14071   5.503   2.516   1.507  0.4562 -0.5024 -1.2488
  105MOL0     C14072   5.465   2.561   1.381  0.6773  0.0733  0.4666
  105MOL0     C14073   5.323   2.590   1.349 -0.2158 -0.3374 -0.2476
  105MOL0     C14074   5.232   2.558   1.443 -0.1303  0.4067 -0.8658
  105MOL0     O14075   5.096   2.577   1.423 -0.6248 -0.1537  0.3578
  105MOL0     C14076   5.050   2.699   1.355 -0.3236 -0.3873  0.0284
  105MOL0     C14077   4.911   2.657   1.328  0.1848 -0.0783  0.1680
  105MOL0     C14078   4.850   2.778   1.256 -0.2809 -0.0672 -0.6457
  105MOL0     C14079   4.700   2.775   1.306  0.0940 -0.1134  0.2216
  105MOL0     C14080   4.622   2.644   1.270 -0.2738  0.4311 -0.5030
  105MOL0     C14081   4.466   2.654   1.283 -0.4413  0.0902  0.1049
  105MOL0     C14082   4.398   2.520   1.303 -0.0726  0.3498  0.6704
  105MOL0     C14083   4.419   2.437   1.172  0.0337  0.1790 -0.2968
  105MOL0    Cl14084   4.297   2.494   1.058 -0.0588  0.0807  0.3171
  105MOL0     C14085   5.274   2.502   1.566  0.4600  1.0211  0.9090
  105MOL0     C14086   5.412   2.494   1.607  0.9100 -0.7797 -0.1685
  105MOL0     O14087   5.678   2.667   1.681  0.8396  0.4280 -0.3822
  105MOL0     C14088   5.904   2.561   1.782  0.6478  0.1715  0.4509
  105MOL0     C14089   6.026   2.512   1.827  0.1860  0.1479 -0.0666
  105MOL0     N14090   6.807   2.587   1.704  0.1220  0.8153 -0.4225
  105MOL0     N14091   6.847   2.633   1.594 -0.4850 -0.0658  0.2068
  105MOL0     C14092   7.386   3.229   1.072 -0.1546  0.5134  0.3969
  105MOL0     C14093   7.493   3.295   1.017 -0.1443 -0.4837  0.3109
  105MOL0     C14094   7.851   3.323   0.764  0.5617 -0.5802 -0.5966
  105MOL0     C14095   7.896   3.402   0.867 -0.0329 -0.4020 -0.6074
  105MOL0     C14096   8.023   3.466   0.873  0.6560 -0.1907  0.2966
  105MOL0     C14097   8.108   3.450   0.762  0.0789  0.5173  0.4643
  105MOL0     O14098   8.227   3.517   0.754  0.4463 -0.2771  0.0595
  105MOL0     C14099   8.209   3.662   0.753 -0.0830  0.5099 -1.0481
  105MOL0     C14100   8.341   3.735   0.737 -0.7585 -0.3472  0.8956
  105MOL0     C14101   8.395   3.707   0.598 -0.0974  0.2827 -0.7055
  105MOL0     C14102   8.516   3.782   0.556 -0.1835 -0.4798  0.3515
  105MOL0     C14103   8.480   3.930   0.534 -0.2107 -0.4725 -0.2993
  105MOL0     C14104   8.457   4.050   0.507  0.2508  0.3811  1.1788
  105MOL0     C14105   8.065   3.368   0.655 -0.0877  0.3124 -1.0402
  105MOL0     C14106   7.948   3.292   0.661  0.3897 -0.2164  0.5771
  105MOL0     C14107   7.918   3.197   0.549  0.1855 -0.1100  0.4519
  105MOL0     H14108   7.427   3.253   0.686 -1.2248 -1.4070 -0.7011
  105MOL0     H14109   7.219   3.162   0.775  0.2815  0.8049 -0.5350
  105MOL0     H14110   7.011   3.138   0.923  2.6807  1.8218 -1.6591
  105MOL0     H14111   7.129   3.010   0.874  0.2560  0.8004 -0.6283
  105MOL0     H14112   6.935   2.913   0.981 -2.0443  0.2425  3.2596
  105MOL0     H14113   6.994   2.967   1.135  0.2934  0.9300 -0.3791
  105MOL0     H14114   7.220   2.874   1.049 -0.5401  1.3710  0.4617
  105MOL0     H14115   7.134   2.780   0.923 -1.6814 -0.0923 -0.6945
  105MOL0     H14116   7.157   2.638   1.124  0.4418  0.0938  0.6629
  105MOL0     H14117   7.070   2.757   1.226  3.4267  1.4948 -0.8313
  105MOL0     H14118   6.868   2.709   1.117  1.0346 -0.1719  1.0298
  105MOL0     H14119   6.943   2.630   0.978 -1.6747  0.4674  0.2443
  105MOL0     H14120   6.854   2.453   1.114  0.3055 -1.9991  2.6670
  105MOL0     H14121   7.034   2.465   1.144  0.8318  0.3639  1.8444
  105MOL0     H14122   7.008   2.575   1.348 -0.6726  1.4679 -1.5886
  105MOL0     H14123   6.918   2.424   1.347 -1.4569  0.1200  1.2904
  105MOL0     H14124   6.797   2.702   1.334 -1.0303 -0.5299 -1.6264
  105MOL0     H14125   6.702   2.561   1.299  0.8525  0.9019 -3.3041
  105MOL0     H14126   6.658   2.389   1.482 -0.5126  0.8829 -0.7052
  105MOL0     H14127   6.693   2.281   1.735  0.9877  1.0439 -1.2355
  105MOL0     H14128   6.694   2.392   1.877 -3.5820 -4.4321  2.0391
  105MOL0     H14129   6.491   2.507   1.778 -0.5357 -1.3985 -3.7659
  105MOL0     H14130   6.465   2.348   1.704 -4.0736  1.0572  1.2614
  105MOL0     H14131   6.483   2.378   1.998 -0.6801 -2.3484 -0.4496
  105MOL0     H14132   6.442   2.248   1.893  1.8779 -0.4596 -0.4281
  105MOL0     H14133   6.294   2.521   1.939 -0.8711 -0.1816  1.7443
  105MOL0     H14134   6.253   2.360   1.986  0.8576  0.3785 -0.2943
  105MOL0     H14135   6.120   2.375   1.532 -4.3702  0.3399 -2.7416
  105MOL0     H14136   5.893   2.425   1.471 -1.9411 -3.3200  0.4363
  105MOL0     H14137   5.545   2.558   1.307  0.2749 -2.1305  0.0363
  105MOL0     H14138   5.300   2.622   1.248  0.6034  0.5747 -0.1568
  105MOL0     H14139   5.056   2.790   1.415 -0.4449 -0.2838 -0.1153
  105MOL0     H14140   5.113   2.725   1.269  2.4409  3.0717  2.7610
  105MOL0     H14141   4.919   2.568   1.266  0.4153  0.1193 -0.0889
  105MOL0     H14142   4.867   2.632   1.425 -2.7744 -3.0064 -1.7244
  105MOL0     H14143   4.905   2.871   1.270  0.2520 -0.4555 -0.1433
  105MOL0     H14144   4.852   2.770   1.147  3.6289 -0.0785 -0.7075
  105MOL0     H14145   4.651   2.863   1.264  1.6611  1.3961  1.4166
  105MOL0     H14146   4.688   2.793   1.413 -2.5300 -1.4235  0.2381
  105MOL0     H14147   4.660   2.563   1.333 -0.0625  0.6096 -0.3978
  105MOL0     H14148   4.644   2.623   1.165 -3.1938  1.1897 -1.3669
  105MOL0     H14149   4.442   2.718   1.369 -3.2254 -0.5499 -0.1035
  105MOL0     H14150   4.423   2.708   1.198 -0.6495 -0.8220 -0.3804
  105MOL0     H14151   4.293   2.547   1.316 -0.0025  0.5978  0.7267
  105MOL0     H14152   4.424   2.459   1.390  1.0853 -0.9305 -0.5197
  105MOL0     H14153   4.523   2.443   1.139  0.0807  4.4701 -0.0165
  105MOL0     H14154   4.401   2.330   1.177 -0.6519  0.3362  0.9034
  105MOL0     H14155   5.200   2.475   1.640  2.9700  1.0390  3.6090
  105MOL0     H14156   5.450   2.459   1.703 -0.1438  1.2329  1.0515
  105MOL0     H14157   5.868   2.637   1.852  1.3414  0.2555  0.7205
  105MOL0     H14158   6.066   2.542   1.924  1.3342  0.5679 -0.6476
  105MOL0     H14159   7.386   3.213   1.179 -0.4960  1.3996  0.5339
  105MOL0     H14160   7.570   3.328   1.086 -0.5228 -1.4923  1.2457
  105MOL0     H14161   7.834   3.424   0.954  1.1463 -0.5202  0.2961
  105MOL0     H14162   8.046   3.536   0.953  0.7820  1.2724 -0.9753
  105MOL0     H14163   8.162   3.684   0.849  1.0579 -0.8425 -0.1508
  105MOL0     H14164   8.132   3.688   0.679 -0.3932  2.3939 -0.1268
  105MOL0     H14165   8.410   3.684   0.805  0.7288 -0.1813 -0.4288
  105MOL0     H14166   8.330   3.843   0.740 -1.5634 -0.1021 -3.6096
  105MOL0     H14167   8.328   3.717   0.512  2.5199 -2.0289 -3.2431
  105MOL0     H14168   8.427   3.602   0.598  0.5849  0.4718  0.4334
  105MOL0     H14169   8.591   3.777   0.635  0.3845  1.0359 -0.0476
  105MOL0     H14170   8.556   3.738   0.464  2.8528 -1.3766  1.9766
  105MOL0     H14171   8.429   4.153   0.502 -1.0907  0.0328  1.1646
  105MOL0     H14172   8.129   3.355   0.569  0.9811  2.6905 -0.6758
  105MOL0     H14173   7.813   3.196   0.521  0.9091 -0.0300 -2.5213
  105MOL0     H14174   7.976   3.228   0.462 -0.9893  1.8499  0.3062
  105MOL0     H14175   7.934   3.094   0.583 -2.1059  0.4787  3.8550
  106MOL0     O14176   9.878   1.435   2.831  0.2687 -0.2920  0.8234
  106MOL0     C14177   9.823   1.466   2.720  0.5127  0.0204 -0.1877
  106MOL0     O14178   9.780   1.377   2.626  0.6391  0.0545  0.1989
  106MOL0     C14179   9.761   1.253   2.660 -0.0576  0.0172 -0.0386
  106MOL0     C14180   9.635   1.197   2.657  0.0503  0.1751  0.1641
  106MOL0     C14181   9.612   1.068   2.699 -0.5873  0.0887  0.0787
  106MOL0     C14182   9.719   0.976   2.732  0.6970  0.0405 -0.3063
  106MOL0     O14183   9.696   0.843   2.752  0.6518 -0.0731 -0.7078
  106MOL0     C14184   9.794   0.743   2.779  0.4182  0.3670  0.1034
  106MOL0     C14185   9.793   0.710   2.930  0.5182  0.3316  0.1146
  106MOL0     C14186   9.667   0.621   2.973 -0.1974 -1.1374  0.1951
  106MOL0     C14187   9.699   0.591   3.122 -0.0907 -0.5035 -0.8391
  106MOL0     C14188   9.569   0.541   3.199  0.8593  1.0868  0.2709
  106MOL0     C14189   9.512   0.413   3.131  0.1077 -0.5808  0.1300
  106MOL0     C14190   9.614   0.295   3.131 -0.3057  0.1673  0.7008
  106MOL0     C14191   9.555   0.171   3.065  0.9459  0.0900 -0.5942
  106MOL0     N14192   9.504   0.192   2.930 -0.1629  0.2808 -0.2903
  106MOL0     C14193   9.571   0.225   2.809  0.6275 -1.2152 -0.7186
  106MOL0     C14194   9.478   0.232   2.707  0.8603  0.0988 -0.4254
  106MOL0     C14195   9.490   0.270   2.552  0.2726 -0.4188 -0.2569
  106MOL0     C14196   9.490   0.419   2.521 -0.7596  0.0875  1.3700
  106MOL0     C14197   9.519   0.471   2.378 -0.2113 -0.3769  0.2929
  106MOL0     C14198   9.502   0.617   2.361 -0.5355  0.1017  1.4645
  106MOL0     O14199   9.606   0.683   2.438  0.8870  0.3483 -0.2312
  106MOL0     C14200   9.633   0.816   2.411 -0.3447 -0.8923 -0.5077
  106MOL0     C14201   9.767   0.849   2.403  0.1170  0.5556 -0.5205
  106MOL0     C14202   9.804   0.977   2.376  0.7882 -1.1236  0.2871
  106MOL0     C14203   9.702   1.083   2.357  0.1341  0.6957 -0.2260
  106MOL0     C14204   9.729   1.224   2.319 -0.0447 -0.9156 -0.2458
  106MOL0     O14205   9.847   1.263   2.261  0.2699 -0.0719  0.6691
  106MOL0     C14206   9.889   1.388   2.217  0.5649  0.1463  0.6477
  106MOL0     C14207   9.841   1.513   2.252  0.8057 -0.0040 -1.0319
  106MOL0     C14208   9.905   1.627   2.219 -0.6649  0.3892 -0.0607
  106MOL0     C14209  10.015   1.622   2.134 -0.3634 -0.8759 -0.4216
  106MOL0     O14210  10.079   1.730   2.085 -0.5147 -0.4494 -0.6485
  106MOL0     C14211  10.006   1.842   2.043  0.0574  0.0011 -0.0117
  106MOL0     C14212   9.959   1.814   1.900 -0.3841  0.1790  0.1283
  106MOL0     C14213   9.875   1.930   1.857  0.3847  0.4562  0.5784
  106MOL0     C14214   9.847   1.914   1.712  0.9136 -0.2210  0.4100
  106MOL0     C14215   9.777   2.034   1.648 -0.4413 -0.1392  0.5813
  106MOL0     C14216   9.739   2.005   1.493  0.3267 -0.3801 -0.3463
  106MOL0     C14217   9.862   1.989   1.401 -0.0760  0.3639  0.3464
  106MOL0     C14218   9.830   1.963   1.256  0.5471  0.1954 -0.3909
  106MOL0    Cl14219   9.979   2.015   1.163  0.4703  0.2512 -0.0653
  106MOL0     C14220  10.060   1.494   2.089  0.2253 -1.2340 -0.6773
  106MOL0     C14221  10.000   1.373   2.135 -0.3664  0.6335  0.1864
  106MOL0     O14222   9.630   1.297   2.323  0.0574 -0.5820 -0.1486
  106MOL0     C14223   9.563   1.044   2.364 -1.0741  0.8678  0.2269
  106MOL0     C14224   9.533   0.909   2.382  0.1366 -0.9592 -0.4243
  106MOL0     N14225   9.360   0.198   2.777  0.3566 -0.1451 -0.1114
  106MOL0     N14226   9.378   0.174   2.898 -0.5674  0.2387  0.1396
  106MOL0     C14227   9.852   1.038   2.740  0.2019 -0.1356 -0.4980
  106MOL0     C14228   9.869   1.176   2.707 -0.8007  0.1007 -0.0646
  106MOL0     C14229   9.801   1.606   2.698 -0.7308  0.4995  0.9326
  106MOL0     C14230   9.697   1.641   2.607 -0.5200 -0.6353 -0.0030
  106MOL0     C14231   9.666   1.776   2.585 -1.1168  0.2684  0.4456
  106MOL0     C14232   9.735   1.876   2.651  0.1231 -0.7887  0.6382
  106MOL0     O14233   9.716   2.009   2.631  0.8489  0.0375  0.1488
  106MOL0     C14234   9.643   2.059   2.523 -0.1024 -0.2365  0.2580
  106MOL0     C14235   9.723   2.055   2.396 -1.0658  0.1975 -0.3772
  106MOL0     C14236   9.666   2.130   2.283  0.2337 -0.6055  0.7408
  106MOL0     C14237   9.733   2.094   2.148  0.3434 -0.1994 -0.0416
  106MOL0     C14238   9.679   2.164   2.034 -0.5072  0.0757 -0.9990
  106MOL0     C14239   9.629   2.215   1.936  0.3464  1.1562  1.1332
  106MOL0     C14240   9.829   1.839   2.744 -0.0377 -0.3807 -0.1919
  106MOL0     C14241   9.873   1.716   2.767 -0.2085 -0.0932  0.5965
  106MOL0     C14242   9.992   1.703   2.857 -0.5024 -0.4662 -0.6433
  106MOL0     H14243   9.556   1.267   2.629  0.4922  1.5974  2.2121
  106MOL0     H14244   9.513   1.026   2.686 -0.4327 -1.1502  2.3910
  106MOL0     H14245   9.767   0.653   2.723 -1.0778  2.6017 -3.1009
  106MOL0     H14246   9.891   0.779   2.743  0.9784  0.6281  1.8137
  106MOL0     H14247   9.797   0.799   2.993  0.0492 -0.4080  1.2244
  106MOL0     H14248   9.886   0.657   2.956  1.2264  2.9033  3.7038
  106MOL0     H14249   9.657   0.533   2.909  1.6095 -1.6782  0.5999
  106MOL0     H14250   9.579   0.685   2.958  0.0778 -0.5812  0.8996
  106MOL0     H14251   9.793   0.538   3.141  1.3013  2.7986  3.2753
  106MOL0     H14252   9.722   0.693   3.157 -0.6708 -0.2385 -1.2160
  106MOL0     H14253   9.576   0.509   3.303 -2.1199  2.3849  0.9481
  106MOL0     H14254   9.490   0.616   3.199 -2.8082 -2.4779  0.9480
  106MOL0     H14255   9.425   0.388   3.192  1.1157 -0.2162  1.7721
  106MOL0     H14256   9.483   0.440   3.029 -0.9300  0.7969  0.7579
  106MOL0     H14257   9.640   0.274   3.235  3.1590 -0.6355 -0.1976
  106MOL0     H14258   9.702   0.315   3.070 -1.8192 -0.7763 -1.9414
  106MOL0     H14259   9.636   0.099   3.053  1.1897  0.2119  0.2271
  106MOL0     H14260   9.473   0.136   3.129 -0.0277  2.5205 -0.3833
  106MOL0     H14261   9.673   0.258   2.798  0.4092  1.1831  2.5798
  106MOL0     H14262   9.580   0.213   2.529  0.3714 -0.0914 -0.7011
  106MOL0     H14263   9.405   0.229   2.496  1.3329 -0.9548 -1.5249
  106MOL0     H14264   9.390   0.457   2.546 -0.7542  0.1734  1.2625
  106MOL0     H14265   9.566   0.463   2.586 -0.6740 -0.3259  1.5476
  106MOL0     H14266   9.443   0.419   2.318 -0.3644 -0.8712  0.9109
  106MOL0     H14267   9.616   0.443   2.336 -0.3072  0.8137 -0.8162
  106MOL0     H14268   9.401   0.650   2.388 -0.5453  2.4979 -1.0907
  106MOL0     H14269   9.530   0.643   2.259 -0.1672 -1.3624  1.1671
  106MOL0     H14270   9.836   0.766   2.411 -2.1972 -1.6406 -1.7074
  106MOL0     H14271   9.908   1.002   2.357  0.2840  2.0066  1.1393
  106MOL0     H14272   9.762   1.518   2.325  0.4376 -1.3584 -1.3033
  106MOL0     H14273   9.861   1.720   2.256 -1.4032  1.1097 -2.5653
  106MOL0     H14274   9.931   1.871   2.118  0.6266  3.4041 -0.5938
  106MOL0     H14275  10.067   1.933   2.040 -0.5480  0.5864  2.4718
  106MOL0     H14276  10.045   1.797   1.835  0.7734  0.4126  1.5340
  106MOL0     H14277   9.898   1.723   1.899  2.7515 -2.1752  1.8011
  106MOL0     H14278   9.782   1.912   1.911 -0.6527  2.1093 -0.5604
  106MOL0     H14279   9.902   2.034   1.877  0.2606  0.2279  2.0489
  106MOL0     H14280   9.781   1.829   1.694 -2.3581  2.2639 -0.2543
  106MOL0     H14281   9.942   1.901   1.659  1.6650 -0.3563  1.7191
  106MOL0     H14282   9.828   2.130   1.660 -1.2595  0.7843 -2.4411
  106MOL0     H14283   9.675   2.050   1.684 -1.0144  1.4909 -1.5896
  106MOL0     H14284   9.681   1.914   1.476 -1.3713  0.5965 -0.0087
  106MOL0     H14285   9.673   2.085   1.458  1.4813  1.0037  0.5129
  106MOL0     H14286   9.924   1.906   1.437 -1.4938 -0.9883 -0.2072
  106MOL0     H14287   9.919   2.082   1.411 -0.2274  0.6467 -1.2297
  106MOL0     H14288   9.813   1.855   1.250  0.8727 -0.1077  2.5632
  106MOL0     H14289   9.740   2.016   1.226  0.5670  0.7742  0.5348
  106MOL0     H14290  10.140   1.494   2.017  1.0223  0.4710  0.1569
  106MOL0     H14291  10.018   1.273   2.096  0.2876  0.2747  1.3590
  106MOL0     H14292   9.481   1.113   2.345  0.1431  1.4633 -3.6853
  106MOL0     H14293   9.432   0.874   2.397  0.4783 -1.1541  1.6312
  106MOL0     H14294   9.942   0.985   2.767  0.6190  0.7175 -0.1805
  106MOL0     H14295   9.968   1.218   2.719 -0.2927 -0.5461 -1.7560
  106MOL0     H14296   9.641   1.558   2.566 -2.0072  1.0930 -1.6777
  106MOL0     H14297   9.586   1.791   2.514  1.0779  0.7106 -2.0796
  106MOL0     H14298   9.628   2.165   2.545  1.4920  0.2547 -0.8707
  106MOL0     H14299   9.547   2.009   2.506 -0.6546  1.1352 -0.8639
  106MOL0     H14300   9.754   1.952   2.373  2.2390  1.3905 -1.9263
  106MOL0     H14301   9.816   2.107   2.421 -1.3308 -0.3682  1.9846
  106MOL0     H14302   9.696   2.235   2.295  1.3305 -0.6978 -1.0029
  106MOL0     H14303   9.557   2.132   2.275  0.2200 -1.4706  0.5995
  106MOL0     H14304   9.841   2.100   2.162  0.2640  2.1851 -0.0706
  106MOL0     H14305   9.712   1.989   2.123 -0.5027  0.3654 -1.8659
  106MOL0     H14306   9.577   2.279   1.866 -0.6157  0.4313  1.1624
  106MOL0     H14307   9.879   1.926   2.784  0.4979 -0.0090 -1.6123
  106MOL0     H14308  10.060   1.788   2.866 -1.0693 -0.1715  1.6540
  106MOL0     H14309   9.967   1.682   2.961  1.9073  0.5941  0.2303
  106MOL0     H14310  10.054   1.619   2.824  0.3218 -0.3655  0.5898
  107MOL0     O14311   2.219  10.238   2.474 -1.2509 -0.8061 -0.4534
  107MOL0     C14312   2.146  10.329   2.427 -0.5452  0.1591  0.1978
  107MOL0     O14313   2.193  10.442   2.367  0.4368  0.2450 -0.1340
  107MOL0     C14314   2.328  10.460   2.353 -0.4513 -0.2776 -0.0476
  107MOL0     C14315   2.415  10.380   2.273  1.6875  0.2880 -0.1896
  107MOL0     C14316   2.547  10.419   2.244 -0.2255 -0.3488 -0.9903
  107MOL0     C14317   2.597  10.542   2.293  0.2151  0.2989  0.0889
  107MOL0     O14318   2.729  10.581   2.276  0.1117 -0.3109 -0.9893
  107MOL0     C14319   2.820  10.482   2.330 -0.4436  0.5901 -1.5211
  107MOL0     C14320   2.947  10.533   2.408  0.3139  0.1289 -0.2002
  107MOL0     C14321   3.033  10.399   2.448 -0.0439 -0.2019 -0.9026
  107MOL0     C14322   3.165  10.448   2.505 -0.5443 -0.3348  0.4071
  107MOL0     C14323   3.280  10.344   2.542 -0.7424  0.5695  0.5932
  107MOL0     C14324   3.322  10.280   2.406  0.7688 -0.1939  0.1053
  107MOL0     C14325   3.460  10.218   2.404 -0.0828 -0.1976 -0.4108
  107MOL0     C14326   3.501  10.142   2.274  0.2051 -0.2782 -0.3420
  107MOL0     N14327   3.634  10.075   2.290 -0.3873 -0.2121  0.5269
  107MOL0     C14328   3.645   9.944   2.322  0.9799 -0.3154 -0.0108
  107MOL0     C14329   3.774   9.908   2.305 -1.1876  0.9811 -0.6391
  107MOL0     C14330   3.839   9.779   2.333 -0.2435  0.7734 -0.1763
  107MOL0     C14331   3.851   9.696   2.203 -0.1606  1.0917 -0.4996
  107MOL0     C14332   3.920   9.559   2.224  0.2732  1.0939 -0.0880
  107MOL0     C14333   4.057   9.544   2.298  0.2478 -0.1889 -0.4029
  107MOL0     O14334   4.163   9.566   2.206  0.7415  0.3412  0.1040
  107MOL0     C14335   4.285   9.602   2.259  0.1175  0.2381  1.0449
  107MOL0     C14336   4.368   9.683   2.182  0.2010 -0.4773 -0.4705
  107MOL0     C14337   4.505   9.712   2.221  0.3947 -0.3600  0.6102
  107MOL0     C14338   4.551   9.654   2.336 -0.8875 -0.6231 -0.5549
  107MOL0     C14339   4.687   9.678   2.381 -1.0090 -0.1666 -0.8591
  107MOL0     O14340   4.759   9.764   2.314 -0.3945  0.0103 -0.4735
  107MOL0     C14341   4.893   9.764   2.335  0.5321  0.1700  0.3259
  107MOL0     C14342   4.982   9.751   2.230 -0.6822  0.1876  0.9083
  107MOL0     C14343   5.118   9.761   2.254  1.0040  0.3459 -0.7606
  107MOL0     C14344   5.170   9.779   2.388 -0.0895  0.5722  0.4743
  107MOL0     O14345   5.305   9.759   2.423  0.0511 -0.1832  0.5266
  107MOL0     C14346   5.386   9.702   2.322 -0.5197  0.8308 -0.2006
  107MOL0     C14347   5.515   9.647   2.390 -0.1759 -0.0124 -0.3371
  107MOL0     C14348   5.612   9.581   2.284  0.0786 -0.0745  1.0351
  107MOL0     C14349   5.691   9.475   2.355 -1.2685 -0.3138 -0.3606
  107MOL0     C14350   5.818   9.433   2.269  0.3460  0.4034 -0.4614
  107MOL0     C14351   5.910   9.363   2.373  0.3609  0.2623  0.0074
  107MOL0     C14352   6.046   9.342   2.303 -0.0145  0.2691  0.3793
  107MOL0     C14353   6.163   9.304   2.402  0.5979  0.0243  0.7099
  107MOL0    Cl14354   6.121   9.181   2.524 -0.1589 -0.1377  0.5742
  107MOL0     C14355   5.076   9.810   2.488 -0.8178  0.0372  0.0086
  107MOL0     C14356   4.943   9.811   2.462  0.1877  0.3070 -0.8211
  107MOL0     O14357   4.725   9.626   2.490  0.3815  0.0713  0.0454
  107MOL0     C14358   4.469   9.571   2.416 -0.4391  0.6751  0.3177
  107MOL0     C14359   4.343   9.541   2.375 -0.6128 -0.6204  0.4342
  107MOL0     N14360   3.833  10.012   2.228  0.2453  0.3775  0.3862
  107MOL0     N14361   3.746  10.112   2.223  0.3555  0.2727  0.1642
  107MOL0     C14362   2.514  10.617   2.372 -0.0741  0.2038 -0.1644
  107MOL0     C14363   2.383  10.576   2.404  0.6687 -0.2530 -0.0777
  107MOL0     C14364   1.999  10.304   2.437  0.7076 -0.1196 -0.2022
  107MOL0     C14365   1.947  10.214   2.534 -0.3366 -0.5254 -0.3571
  107MOL0     C14366   1.813  10.176   2.532 -0.2699 -0.9978  0.1937
  107MOL0     C14367   1.725  10.230   2.434  0.4447 -0.2588 -0.8229
  107MOL0     O14368   1.588  10.216   2.429  0.6889  0.2753  0.0497
  107MOL0     C14369   1.526  10.158   2.540 -0.4003  0.1841 -0.0482
  107MOL0     C14370   1.362  10.153   2.519  0.4463 -0.8752 -0.2498
  107MOL0     C14371   1.306  10.302   2.496 -0.4912  0.1908 -0.9433
  107MOL0     C14372   1.153  10.310   2.475 -0.4934  0.3349  0.5653
  107MOL0     C14373   1.103  10.259   2.342 -0.1066 -0.2608 -0.5948
  107MOL0     C14374   1.056  10.237   2.237 -0.1566  0.1270  0.2683
  107MOL0     C14375   1.772  10.305   2.334 -0.1112 -0.1004 -0.4793
  107MOL0     C14376   1.904  10.352   2.335 -0.0050 -0.4131 -0.0111
  107MOL0     C14377   1.940  10.461   2.231  0.0203 -0.3838  0.2504
  107MOL0     H14378   2.376  10.295   2.218 -2.3235  0.2154  2.3891
  107MOL0     H14379   2.615  10.350   2.195  3.7714  0.8234  2.3780
  107MOL0     H14380   2.771  10.421   2.406  0.8965  2.1964  0.7620
  107MOL0     H14381   2.862  10.416   2.254 -0.6229 -0.5720 -0.6431
  107MOL0     H14382   2.901  10.581   2.495 -2.8014 -1.5729 -0.7634
  107MOL0     H14383   2.995  10.610   2.347  1.9123  3.6593  4.8649
  107MOL0     H14384   3.061  10.338   2.361 -0.7989  0.7272 -1.8355
  107MOL0     H14385   2.977  10.349   2.528  0.0424 -0.4309 -0.9859
  107MOL0     H14386   3.205  10.520   2.434  1.7111 -1.3078  0.6104
  107MOL0     H14387   3.131  10.497   2.597 -1.3450 -3.3893  1.8959
  107MOL0     H14388   3.365  10.399   2.584  0.1013 -0.0809 -0.2152
  107MOL0     H14389   3.247  10.276   2.621 -0.9032  1.0264  0.9249
  107MOL0     H14390   3.240  10.221   2.364 -1.5467  3.4784 -0.9637
  107MOL0     H14391   3.337  10.361   2.334  1.8098 -0.8424 -0.4425
  107MOL0     H14392   3.466  10.137   2.477  0.5349 -0.4525 -0.7312
  107MOL0     H14393   3.531  10.296   2.432  2.6315 -2.7558  0.4495
  107MOL0     H14394   3.421  10.072   2.247 -1.6579  1.8461 -0.6340
  107MOL0     H14395   3.507  10.223   2.201  0.7710 -1.4341 -1.6267
  107MOL0     H14396   3.560   9.891   2.363  0.2272  0.4436 -0.5552
  107MOL0     H14397   3.933   9.792   2.387 -0.4007  0.6777  0.1211
  107MOL0     H14398   3.781   9.718   2.403  0.1233  0.3130 -0.2704
  107MOL0     H14399   3.751   9.677   2.164 -0.0500 -2.3854  0.6022
  107MOL0     H14400   3.902   9.762   2.132 -2.8289  2.3663 -1.3353
  107MOL0     H14401   3.922   9.504   2.129  1.4478  1.7843 -0.4883
  107MOL0     H14402   3.844   9.505   2.282  1.0112  0.6803  0.5136
  107MOL0     H14403   4.074   9.450   2.352  5.1154  0.4156 -0.3692
  107MOL0     H14404   4.070   9.631   2.364  1.4046  0.9747 -2.0674
  107MOL0     H14405   4.338   9.723   2.086 -2.4745 -0.5932  0.2497
  107MOL0     H14406   4.569   9.780   2.166 -2.6036  1.5157 -0.8030
  107MOL0     H14407   4.942   9.737   2.130 -1.9016 -1.3688  1.5622
  107MOL0     H14408   5.188   9.752   2.173  0.3901 -1.1533 -1.1461
  107MOL0     H14409   5.339   9.617   2.272 -0.1065  1.2463 -1.3205
  107MOL0     H14410   5.395   9.777   2.244 -2.0561 -0.7604 -2.0012
  107MOL0     H14411   5.561   9.728   2.448  0.2283  0.5488 -1.4079
  107MOL0     H14412   5.474   9.578   2.464 -0.8644 -0.5651 -1.2135
  107MOL0     H14413   5.552   9.534   2.205  0.8120 -0.9972  1.0214
  107MOL0     H14414   5.676   9.661   2.246  0.7614 -0.7764  0.6925
  107MOL0     H14415   5.628   9.389   2.381 -2.9500  1.0685  0.4119
  107MOL0     H14416   5.719   9.512   2.454 -1.3875 -2.2522  0.4560
  107MOL0     H14417   5.859   9.525   2.225  2.5798 -0.4896 -0.3568
  107MOL0     H14418   5.786   9.369   2.186  1.0065  1.1438 -1.3148
  107MOL0     H14419   5.917   9.415   2.469 -1.0597 -0.8078  0.7362
  107MOL0     H14420   5.863   9.268   2.402 -1.6111  0.9924 -0.6185
  107MOL0     H14421   6.067   9.436   2.252  2.7479 -0.8606 -0.7951
  107MOL0     H14422   6.030   9.270   2.222 -1.2863  1.4402 -0.4420
  107MOL0     H14423   6.241   9.271   2.334 -1.2885  1.6104 -2.4301
  107MOL0     H14424   6.205   9.395   2.445 -2.2920  2.5007 -1.3108
  107MOL0     H14425   5.111   9.817   2.590 -1.4737 -0.1795  0.2515
  107MOL0     H14426   4.878   9.820   2.548  1.4179  0.8114  0.0778
  107MOL0     H14427   4.507   9.525   2.507 -0.0035  0.3733 -0.0134
  107MOL0     H14428   4.273   9.473   2.422 -3.2012  1.1531 -0.6099
  107MOL0     H14429   2.549  10.711   2.413 -0.4950  1.6949 -2.9326
  107MOL0     H14430   2.319  10.637   2.466 -1.6877 -0.6257 -2.0098
  107MOL0     H14431   2.008  10.177   2.615 -0.2432  0.0108 -0.1771
  107MOL0     H14432   1.788  10.103   2.608  1.7795 -0.5349  1.4069
  107MOL0     H14433   1.559  10.208   2.632 -0.2227  1.7695 -0.9553
  107MOL0     H14434   1.553  10.052   2.536 -2.1710 -0.2549 -1.2576
  107MOL0     H14435   1.306  10.110   2.603  3.7960 -1.4329  1.9022
  107MOL0     H14436   1.344  10.098   2.427  1.4105 -0.1053 -0.9235
  107MOL0     H14437   1.350  10.349   2.408  0.7246 -1.3910 -1.2099
  107MOL0     H14438   1.332  10.349   2.591 -0.6402 -0.8052 -0.3921
  107MOL0     H14439   1.102  10.249   2.550 -0.6946 -0.4926 -0.2248
  107MOL0     H14440   1.124  10.414   2.497  0.5618  0.5663  0.9404
  107MOL0     H14441   1.014  10.206   2.144  1.7337 -3.2948  0.3951
  107MOL0     H14442   1.704  10.347   2.261 -0.8436  0.9873  0.7970
  107MOL0     H14443   2.033  10.444   2.176 -1.0066 -0.0903 -1.6758
  107MOL0     H14444   1.866  10.463   2.150  0.5762 -0.7860 -0.2797
  107MOL0     H14445   1.944  10.560   2.276  4.4733  0.7790 -2.1328
  108MOL0     O14446   9.748   8.267  10.010  0.0407  0.2226  0.0758
  108MOL0     C14447   9.761   8.258   9.891  0.3241  0.1758 -0.2869
  108MOL0     O14448   9.879   8.212   9.828 -0.3874  0.1154 -0.4619
  108MOL0     C14449   9.995   8.189   9.901 -0.0119  0.6229 -0.4499
  108MOL0     C14450  10.060   8.305   9.961 -0.6496  0.4742  0.5617
  108MOL0     C14451  10.182   8.291  10.024  0.0062 -1.1136 -0.0700
  108MOL0     C14452  10.238   8.163  10.030 -0.7437 -0.3785  0.3357
  108MOL0     O14453  10.351   8.138  10.094  1.0802 -0.3847  0.7992
  108MOL0     C14454  10.419   8.246  10.157 -0.3111  0.1338 -1.1779
  108MOL0     C14455  10.529   8.172  10.228 -1.0554 -0.4215  0.1250
  108MOL0     C14456  10.631   8.270  10.296  0.2325  0.0711 -0.0504
  108MOL0     C14457  10.750   8.196  10.353  0.3152  0.4462  0.5963
  108MOL0     C14458  10.865   8.282  10.397 -0.1401  0.5179  0.8064
  108MOL0     C14459  10.977   8.201  10.472 -0.5961 -0.2995  0.0955
  108MOL0     C14460  10.942   8.186  10.623  0.2259 -0.3119  0.2350
  108MOL0     C14461  11.051   8.120  10.709  0.3232 -0.7348  0.8444
  108MOL0     N14462  11.167   8.210  10.735  0.0455 -0.3154 -0.1756
  108MOL0     C14463  11.305   8.196  10.704 -0.0809 -0.0627 -0.3910
  108MOL0     C14464  11.360   8.297  10.775 -0.1268  0.5967  0.3709
  108MOL0     C14465  11.509   8.341  10.763 -0.0027  0.0532  0.0642
  108MOL0     C14466  11.584   8.306  10.887 -1.2061 -0.1115  0.3944
  108MOL0     C14467  11.668   8.425  10.929  0.0756  0.2169 -0.2144
  108MOL0     C14468  11.778   8.468  10.830  0.1001  0.1747  0.1905
  108MOL0     O14469  11.904   8.408  10.866 -0.6563  0.1396 -0.1859
  108MOL0     C14470  11.999   8.488  10.926  0.7212 -0.1160  0.2005
  108MOL0     C14471  12.115   8.518  10.861  0.1416  0.3488 -0.0915
  108MOL0     C14472  12.215   8.591  10.918 -0.7506 -0.9515 -0.0052
  108MOL0     C14473  12.198   8.647  11.054  0.1124 -1.0021 -0.3105
  108MOL0     C14474  12.300   8.734  11.119 -0.2114 -0.3259 -0.1848
  108MOL0     O14475  12.286   8.797  11.239  0.5267 -0.3176  0.0835
  108MOL0     C14476  12.384   8.882  11.290  0.3103  0.3260  0.8415
  108MOL0     C14477  12.372   9.020  11.301  0.1437  0.4582  0.4257
  108MOL0     C14478  12.474   9.105  11.350 -0.3007  0.1399 -0.1561
  108MOL0     C14479  12.588   9.056  11.399 -0.4765  0.7855  0.1202
  108MOL0     O14480  12.672   9.154  11.453  0.1178 -0.4926  0.7402
  108MOL0     C14481  12.802   9.117  11.492 -0.4344  0.6706 -0.4317
  108MOL0     C14482  12.885   9.243  11.529 -0.2338 -0.2797  0.2589
  108MOL0     C14483  13.028   9.196  11.572  0.1499  0.1499  0.5139
  108MOL0     C14484  13.115   9.149  11.455  0.3543  0.2893  0.1262
  108MOL0     C14485  13.260   9.126  11.496  0.0254 -0.0788 -0.3787
  108MOL0     C14486  13.347   9.099  11.367  0.1565  0.0418 -0.3421
  108MOL0     C14487  13.366   9.225  11.284  0.5610  0.9839 -0.5416
  108MOL0     C14488  13.488   9.207  11.191 -0.8389 -0.3651  0.6776
  108MOL0    Cl14489  13.635   9.243  11.286  0.3407 -0.0456 -0.0404
  108MOL0     C14490  12.599   8.920  11.391  0.7276 -0.2768 -0.0428
  108MOL0     C14491  12.507   8.835  11.335  0.1441 -0.2277 -0.3958
  108MOL0     O14492  12.406   8.738  11.059  0.6251 -0.7523  0.1205
  108MOL0     C14493  12.085   8.607  11.126  0.6640  0.3476  0.1574
  108MOL0     C14494  11.990   8.519  11.064 -0.6092 -1.7632 -0.4145
  108MOL0     N14495  11.265   8.359  10.859 -0.0337  0.1033 -0.1614
  108MOL0     N14496  11.146   8.315  10.825 -0.0078  0.3423 -0.5383
  108MOL0     C14497  10.170   8.047   9.978  0.6993 -0.4227  0.6852
  108MOL0     C14498  10.054   8.059   9.906 -0.4593  0.3621 -0.4680
  108MOL0     C14499   9.661   8.345   9.805 -0.3442  0.6553  0.0980
  108MOL0     C14500   9.700   8.358   9.674 -0.3262 -0.6152 -0.7543
  108MOL0     C14501   9.643   8.454   9.586 -0.2152 -0.5024 -0.5351
  108MOL0     C14502   9.541   8.533   9.633 -1.1211  0.2251  0.2471
  108MOL0     O14503   9.489   8.624   9.546 -0.2610  0.2993 -0.0929
  108MOL0     C14504   9.421   8.740   9.581  0.0506  0.3361 -0.3784
  108MOL0     C14505   9.276   8.696   9.588  0.3430 -0.3195  0.4270
  108MOL0     C14506   9.169   8.814   9.565  0.4474  0.0783  0.2978
  108MOL0     C14507   9.025   8.752   9.547 -0.3228  0.3209  0.1386
  108MOL0     C14508   8.983   8.710   9.688 -0.3288 -0.2269 -0.3138
  108MOL0     C14509   8.941   8.687   9.798  0.7136 -1.4050  0.6149
  108MOL0     C14510   9.496   8.520   9.764  0.1319 -0.1661 -0.2429
  108MOL0     C14511   9.547   8.419   9.845 -0.0470 -0.6875  0.5729
  108MOL0     C14512   9.492   8.408   9.979  0.7295  0.4486  0.2146
  108MOL0     H14513  10.002   8.396   9.952 -2.7878 -1.0182 -3.1998
  108MOL0     H14514  10.226   8.371  10.083  0.2174 -1.9069  0.8996
  108MOL0     H14515  10.457   8.316  10.082  0.3813  1.3491  0.2627
  108MOL0     H14516  10.365   8.307  10.229 -1.5977 -0.7973 -1.3192
  108MOL0     H14517  10.586   8.108  10.160 -0.8603  0.8241 -0.9302
  108MOL0     H14518  10.482   8.109  10.304 -2.2677 -0.8046 -0.9123
  108MOL0     H14519  10.575   8.315  10.379 -0.4937 -1.2067  0.1724
  108MOL0     H14520  10.648   8.349  10.223 -2.5187  1.6980  0.9311
  108MOL0     H14521  10.716   8.149  10.446 -0.1585  0.5483  0.4769
  108MOL0     H14522  10.787   8.124  10.280  4.8938  3.5057 -0.5814
  108MOL0     H14523  10.902   8.329  10.305 -1.3665  2.4479  1.2197
  108MOL0     H14524  10.822   8.356  10.465  1.3871  0.3983  1.9226
  108MOL0     H14525  10.999   8.108  10.420  0.5793 -1.1933  2.0941
  108MOL0     H14526  11.078   8.242  10.472  0.5685 -2.9771  1.3848
  108MOL0     H14527  10.851   8.125  10.622 -0.1678  0.2550  0.9849
  108MOL0     H14528  10.905   8.278  10.668 -3.0445 -0.2353 -2.1721
  108MOL0     H14529  11.017   8.086  10.808  2.5780  1.2964  2.4083
  108MOL0     H14530  11.096   8.032  10.662 -0.4870 -1.6686  1.7456
  108MOL0     H14531  11.353   8.125  10.638  0.5962  0.7485 -0.7770
  108MOL0     H14532  11.557   8.275  10.690 -0.4032 -1.5306  1.1902
  108MOL0     H14533  11.512   8.448  10.743  2.0998  0.0532  0.1743
  108MOL0     H14534  11.526   8.270  10.972  0.1949 -0.2956  1.3122
  108MOL0     H14535  11.653   8.225  10.864 -1.8955 -1.2584  2.1687
  108MOL0     H14536  11.713   8.402  11.026  1.1238 -0.6810 -0.8937
  108MOL0     H14537  11.609   8.513  10.958 -0.7883 -0.7151  0.9189
  108MOL0     H14538  11.796   8.575  10.837  1.4786  0.1791 -2.2223
  108MOL0     H14539  11.750   8.443  10.727 -3.3441 -0.6071  1.1658
  108MOL0     H14540  12.129   8.465  10.767  0.8994 -0.0325  0.2237
  108MOL0     H14541  12.297   8.620  10.853 -1.9594  0.9341 -0.7650
  108MOL0     H14542  12.286   9.070  11.256  0.7207  1.0383 -0.0463
  108MOL0     H14543  12.449   9.210  11.358 -0.2931  0.1252  0.0709
  108MOL0     H14544  12.811   9.044  11.572  1.0069 -2.8260 -3.4782
  108MOL0     H14545  12.851   9.066  11.409  0.1555  1.0829 -0.3454
  108MOL0     H14546  12.887   9.315  11.446  0.1964 -0.1191  0.4037
  108MOL0     H14547  12.842   9.301  11.611 -1.9463 -0.3917 -0.5143
  108MOL0     H14548  13.075   9.285  11.612 -1.3609  0.9804  0.5229
  108MOL0     H14549  13.026   9.118  11.650 -1.4593 -1.0826 -0.6749
  108MOL0     H14550  13.108   9.223  11.376  0.4248  0.4271  0.2497
  108MOL0     H14551  13.076   9.052  11.423  0.0827  0.4038  0.1114
  108MOL0     H14552  13.268   9.042  11.566 -0.0205 -1.7140 -2.2431
  108MOL0     H14553  13.302   9.213  11.548 -0.6243  1.2127 -1.9384
  108MOL0     H14554  13.449   9.070  11.394  0.9662  2.1367 -1.0321
  108MOL0     H14555  13.291   9.022  11.311  2.4796  0.2516 -3.1884
  108MOL0     H14556  13.369   9.312  11.350  0.5017  0.1529  0.5728
  108MOL0     H14557  13.282   9.240  11.216 -0.1414  0.6996  0.2542
  108MOL0     H14558  13.500   9.107  11.148  1.3860  1.5500 -3.7495
  108MOL0     H14559  13.471   9.261  11.098  0.6914 -1.3271 -0.2124
  108MOL0     H14560  12.681   8.860  11.430  1.0513  0.6901  0.8145
  108MOL0     H14561  12.525   8.729  11.318  1.1102 -0.2065  0.3748
  108MOL0     H14562  12.059   8.629  11.229 -3.7871 -0.0270 -0.6749
  108MOL0     H14563  11.909   8.484  11.127  0.2690  1.5450  2.9561
  108MOL0     H14564  10.227   7.955   9.990  0.1884 -1.5181 -3.5422
  108MOL0     H14565  10.009   7.978   9.850  0.4568  0.1840 -0.9632
  108MOL0     H14566   9.777   8.295   9.630  1.5948  0.6462  0.6499
  108MOL0     H14567   9.678   8.468   9.484  0.8867 -0.7619 -0.2143
  108MOL0     H14568   9.436   8.823   9.513  2.2420 -0.1376 -0.5408
  108MOL0     H14569   9.439   8.778   9.682 -1.3865  0.7452 -0.2477
  108MOL0     H14570   9.255   8.664   9.690 -1.4815  2.2877  0.9805
  108MOL0     H14571   9.262   8.621   9.510  0.4244  1.5315 -1.4823
  108MOL0     H14572   9.194   8.849   9.465  0.5635 -1.7233 -0.3421
  108MOL0     H14573   9.170   8.894   9.640  1.0296 -2.4358  3.1864
  108MOL0     H14574   8.963   8.835   9.513 -0.1487  0.4508  0.1359
  108MOL0     H14575   9.015   8.670   9.474  0.1646  0.9004 -0.5993
  108MOL0     H14576   8.903   8.657   9.893 -2.3794  0.7834  0.1983
  108MOL0     H14577   9.414   8.572   9.813 -0.8598 -2.9434  1.3128
  108MOL0     H14578   9.550   8.483  10.034  1.0107  1.0843 -0.9000
  108MOL0     H14579   9.399   8.465   9.986  2.5391  3.5937  0.4964
  108MOL0     H14580   9.476   8.312  10.029 -0.9026 -1.0886 -2.9217
  109MOL0     O14581  10.323   9.031   7.903 -0.0185 -0.3051 -0.0075
  109MOL0     C14582  10.239   9.015   7.991  0.2254 -0.1601 -0.3846
  109MOL0     O14583  10.268   8.982   8.120  0.1757 -0.3522  0.0311
  109MOL0     C14584  10.394   8.966   8.154  0.0515 -0.1036 -0.0154
  109MOL0     C14585  10.432   8.858   8.236 -0.1539 -0.2990  0.1626
  109MOL0     C14586  10.561   8.843   8.274  1.1056 -0.5162  0.1994
  109MOL0     C14587  10.658   8.941   8.254 -1.0297 -0.3008  1.0921
  109MOL0     O14588  10.788   8.908   8.301  0.8547  0.3068 -0.1368
  109MOL0     C14589  10.892   8.996   8.268  0.8741 -0.4685  0.2786
  109MOL0     C14590  11.020   8.934   8.340 -0.2111 -0.3223  0.2966
  109MOL0     C14591  11.057   8.786   8.303 -0.4322 -0.8550  0.1346
  109MOL0     C14592  11.112   8.777   8.160  1.0781  0.1457 -0.0613
  109MOL0     C14593  11.111   8.634   8.103 -0.2257 -0.9239  0.1390
  109MOL0     C14594  11.115   8.635   7.950 -0.5163 -0.9440  0.5207
  109MOL0     C14595  11.139   8.506   7.881  0.5944 -0.5903 -1.1161
  109MOL0     C14596  11.025   8.400   7.877 -0.7461 -0.1787  1.1678
  109MOL0     N14597  11.058   8.263   7.831  0.6213 -0.5475 -0.2022
  109MOL0     C14598  11.150   8.177   7.882  0.4724  0.2879 -0.2155
  109MOL0     C14599  11.131   8.058   7.821 -0.1265 -0.5123 -0.4388
  109MOL0     C14600  11.215   7.933   7.825 -0.8979  0.5712  0.1237
  109MOL0     C14601  11.242   7.874   7.688 -0.2182 -0.7366  0.0512
  109MOL0     C14602  11.372   7.793   7.697  0.4202 -0.0677 -0.7657
  109MOL0     C14603  11.404   7.720   7.566 -0.2255  0.1162  0.4379
  109MOL0     O14604  11.523   7.643   7.575  0.0039  0.2797  0.2313
  109MOL0     C14605  11.639   7.717   7.559 -0.0965  0.6429 -0.0419
  109MOL0     C14606  11.756   7.645   7.584  1.9095 -1.3989 -0.4174
  109MOL0     C14607  11.880   7.712   7.592 -0.5948 -0.2223  0.2820
  109MOL0     C14608  11.893   7.853   7.566  0.8697  0.4715 -0.1261
  109MOL0     C14609  12.021   7.927   7.579 -0.2938  0.3039 -0.7289
  109MOL0     O14610  12.134   7.852   7.607 -0.7901  0.6032  0.3021
  109MOL0     C14611  12.259   7.908   7.614 -0.4349  0.4031 -0.4240
  109MOL0     C14612  12.317   7.915   7.739 -0.4606 -1.3571 -0.1278
  109MOL0     C14613  12.452   7.957   7.756 -0.0896 -0.7136 -0.7741
  109MOL0     C14614  12.520   8.009   7.646  0.3107  0.0222  0.2067
  109MOL0     O14615  12.647   8.042   7.666 -0.1886 -0.0763  0.0219
  109MOL0     C14616  12.726   7.928   7.664  0.6628  1.1246  0.6558
  109MOL0     C14617  12.870   7.961   7.642  1.1332 -0.0059 -0.6419
  109MOL0     C14618  12.970   7.840   7.647  0.3400  0.0060  0.8839
  109MOL0     C14619  12.907   7.707   7.614  0.3817  0.4838  0.1821
  109MOL0     C14620  13.021   7.606   7.588  0.1407  0.3668  0.1470
  109MOL0     C14621  12.964   7.464   7.611 -0.8316 -0.0479 -0.6495
  109MOL0     C14622  12.962   7.437   7.766  0.6579 -1.3418 -0.0938
  109MOL0     C14623  12.855   7.331   7.785 -0.6791 -0.2870  1.0189
  109MOL0    Cl14624  12.688   7.383   7.761  0.0119  0.4655  0.0806
  109MOL0     C14625  12.462   8.014   7.525 -0.6510 -0.4805  0.3874
  109MOL0     C14626  12.332   7.955   7.494 -0.0173 -0.4444 -0.8144
  109MOL0     O14627  12.013   8.047   7.564  0.0837  0.7454 -0.2726
  109MOL0     C14628  11.778   7.915   7.520  0.4712  0.0681  0.3260
  109MOL0     C14629  11.653   7.855   7.522 -0.2731 -0.3150 -0.1086
  109MOL0     N14630  11.010   8.071   7.744  0.1301  0.4955  0.1908
  109MOL0     N14631  10.975   8.194   7.751 -0.5157 -0.5566 -0.0504
  109MOL0     C14632  10.620   9.053   8.177 -0.0011  0.5575 -0.2854
  109MOL0     C14633  10.487   9.067   8.135  0.3858 -0.1582 -0.0695
  109MOL0     C14634  10.094   9.017   7.946 -0.1246 -0.5378 -0.5962
  109MOL0     C14635   9.999   8.988   8.052  0.3754  0.4312  0.4374
  109MOL0     C14636   9.865   8.999   8.032  0.5754  0.6052  0.7559
  109MOL0     C14637   9.818   9.018   7.898 -0.2826 -0.0504 -0.8371
  109MOL0     O14638   9.689   9.022   7.866  0.1496 -0.2143 -0.1604
  109MOL0     C14639   9.633   8.900   7.808  0.2186  0.3912 -0.3850
  109MOL0     C14640   9.522   8.955   7.718  0.2579 -0.0487 -1.0029
  109MOL0     C14641   9.450   8.855   7.631  1.1912 -0.2254  0.6662
  109MOL0     C14642   9.299   8.883   7.603 -0.2324  0.2367  0.5393
  109MOL0     C14643   9.278   9.029   7.585 -0.4977 -0.3020  0.5246
  109MOL0     C14644   9.271   9.143   7.550 -0.3642 -0.3788 -0.0172
  109MOL0     C14645   9.908   9.049   7.796  0.4244  0.4844 -0.2480
  109MOL0     C14646  10.042   9.053   7.816 -0.5470 -0.5512  0.5117
  109MOL0     C14647  10.126   9.071   7.696  0.0618  0.4449 -0.8775
  109MOL0     H14648  10.362   8.785   8.277 -0.0594 -0.2938  0.3337
  109MOL0     H14649  10.583   8.759   8.339  0.6114 -2.3807 -1.9102
  109MOL0     H14650  10.915   9.015   8.163  0.5216  3.0559  0.6933
  109MOL0     H14651  10.864   9.100   8.291 -0.7745 -0.4550 -1.4917
  109MOL0     H14652  11.016   8.941   8.449  2.9632 -1.0441  0.5319
  109MOL0     H14653  11.101   9.000   8.308 -0.1887 -1.1555 -1.4805
  109MOL0     H14654  10.965   8.727   8.310  0.0074 -1.5488  0.1268
  109MOL0     H14655  11.137   8.755   8.370  0.2383 -0.5543 -0.5162
  109MOL0     H14656  11.052   8.842   8.095 -0.9266 -0.7797  0.7844
  109MOL0     H14657  11.215   8.813   8.149  0.6707  1.7936  1.1509
  109MOL0     H14658  11.187   8.565   8.140  1.2039 -0.4071 -1.6967
  109MOL0     H14659  11.018   8.579   8.122 -0.2660 -0.2023  2.1922
  109MOL0     H14660  11.033   8.691   7.903 -0.4145  1.2525  2.7418
  109MOL0     H14661  11.203   8.695   7.925  0.1152 -2.7916 -2.0053
  109MOL0     H14662  11.227   8.456   7.922 -0.1593 -2.4996 -1.7572
  109MOL0     H14663  11.166   8.535   7.779  1.5597 -2.0527 -1.3091
  109MOL0     H14664  10.993   8.380   7.979 -2.7855 -0.3852  0.5357
  109MOL0     H14665  10.936   8.438   7.826  0.0110  2.0004  1.3552
  109MOL0     H14666  11.229   8.200   7.953 -0.1386 -1.0965  0.9717
  109MOL0     H14667  11.310   7.945   7.878 -0.9145 -0.6104  0.4583
  109MOL0     H14668  11.165   7.849   7.875 -1.6691  0.8455 -0.1733
  109MOL0     H14669  11.156   7.813   7.658 -3.3173  2.2661  2.0172
  109MOL0     H14670  11.261   7.963   7.627  0.9303 -1.5156 -0.7566
  109MOL0     H14671  11.369   7.713   7.772  0.3499  1.1939  0.6226
  109MOL0     H14672  11.452   7.863   7.724  0.1323  1.2239 -3.0684
  109MOL0     H14673  11.401   7.789   7.481 -0.1316 -3.4791 -2.7192
  109MOL0     H14674  11.316   7.657   7.548 -1.4828  1.9001  0.0414
  109MOL0     H14675  11.754   7.540   7.613 -2.9335 -0.2948  4.9981
  109MOL0     H14676  11.964   7.658   7.633 -2.3646 -2.1014  1.6131
  109MOL0     H14677  12.253   7.873   7.816 -3.6967  0.8628 -1.3376
  109MOL0     H14678  12.481   7.982   7.858 -2.6692  1.2285 -0.4217
  109MOL0     H14679  12.710   7.858   7.747 -0.0996 -0.4603 -0.7540
  109MOL0     H14680  12.701   7.878   7.570  1.1924  2.3439 -0.1568
  109MOL0     H14681  12.873   8.009   7.544  2.3329 -1.3919 -1.3287
  109MOL0     H14682  12.908   8.024   7.723  1.2225  0.4164 -1.0093
  109MOL0     H14683  13.048   7.852   7.571  0.3089 -0.5313  0.7635
  109MOL0     H14684  13.030   7.821   7.736 -0.0190 -1.5974  0.8162
  109MOL0     H14685  12.847   7.709   7.523 -1.4085 -3.1009  1.1166
  109MOL0     H14686  12.841   7.669   7.693 -0.3787  0.6966 -0.3415
  109MOL0     H14687  13.108   7.626   7.651  0.0277  2.6347 -0.3503
  109MOL0     H14688  13.067   7.618   7.489  2.4122  4.5744  1.4800
  109MOL0     H14689  12.869   7.459   7.557 -1.2396 -2.0344  0.1436
  109MOL0     H14690  13.032   7.395   7.561 -0.4884  0.2845 -0.6400
  109MOL0     H14691  12.933   7.526   7.823  2.6796 -1.1174  0.6784
  109MOL0     H14692  13.062   7.400   7.791 -0.4458 -4.4962  0.0991
  109MOL0     H14693  12.870   7.253   7.709 -1.1309 -1.6616  2.2918
  109MOL0     H14694  12.858   7.293   7.887 -0.3902  0.7467  1.4062
  109MOL0     H14695  12.528   8.055   7.449  1.9315  0.6224  2.9846
  109MOL0     H14696  12.263   7.952   7.410  1.0573 -0.3379 -1.7263
  109MOL0     H14697  11.783   8.019   7.489  4.9463 -0.4131 -1.2264
  109MOL0     H14698  11.567   7.914   7.492 -0.5987 -0.1240  1.1508
  109MOL0     H14699  10.674   9.140   8.143 -2.2545  2.7111  1.2811
  109MOL0     H14700  10.454   9.156   8.082  1.2953  0.8932  1.0478
  109MOL0     H14701  10.029   8.962   8.153  1.8218 -0.7819 -0.2642
  109MOL0     H14702   9.798   8.968   8.111 -1.7899  0.2463 -1.2886
  109MOL0     H14703   9.586   8.831   7.878 -1.1512 -0.6697 -2.2462
  109MOL0     H14704   9.701   8.844   7.743  0.7379 -0.1474  0.6106
  109MOL0     H14705   9.572   9.037   7.666  2.6975  0.1293  1.3744
  109MOL0     H14706   9.450   9.007   7.783  2.9059  3.6629 -0.7484
  109MOL0     H14707   9.462   8.761   7.685  0.4811  1.5902  4.3710
  109MOL0     H14708   9.504   8.847   7.536 -0.2437 -1.2436 -0.0888
  109MOL0     H14709   9.267   8.831   7.513  1.1412  1.5821 -0.7843
  109MOL0     H14710   9.246   8.846   7.692 -0.3617 -0.0198  0.3572
  109MOL0     H14711   9.263   9.235   7.497 -1.4649 -1.7044 -2.3207
  109MOL0     H14712   9.864   9.073   7.700 -1.1797  1.5938  0.7211
  109MOL0     H14713  10.165   9.172   7.709 -1.4623  1.4329 -3.1755
  109MOL0     H14714  10.208   9.000   7.680  0.6395  1.4735 -2.8338
  109MOL0     H14715  10.059   9.069   7.609 -0.5461 -0.8551 -0.3987
  110MOL0     O14716   7.416   2.684   2.427 -0.1501 -0.3996 -0.0072
  110MOL0     C14717   7.366   2.614   2.343 -0.0043 -0.3724  0.1457
  110MOL0     O14718   7.241   2.626   2.308  0.3803  0.2166  0.9778
  110MOL0     C14719   7.146   2.699   2.375  0.7724  0.2120 -0.0504
  110MOL0     C14720   7.046   2.749   2.292  0.1642  0.2385  0.0958
  110MOL0     C14721   6.943   2.827   2.343 -0.1285  0.6139 -0.2612
  110MOL0     C14722   6.946   2.850   2.479 -0.5078 -0.6706  0.4686
  110MOL0     O14723   6.839   2.923   2.526 -0.1494  0.1876 -0.0545
  110MOL0     C14724   6.766   2.849   2.617  0.1561 -0.3543 -0.7587
  110MOL0     C14725   6.659   2.937   2.678  0.9436  0.3005 -0.6139
  110MOL0     C14726   6.604   2.861   2.808  0.4988  0.4387 -0.1141
  110MOL0     C14727   6.518   2.957   2.895  0.0172  0.6276  0.0619
  110MOL0     C14728   6.364   2.934   2.898  0.4767  0.1442  1.0092
  110MOL0     C14729   6.312   3.029   3.014 -0.4943  0.7061 -1.1561
  110MOL0     C14730   6.158   3.033   3.039 -0.6570  0.5835 -0.1744
  110MOL0     C14731   6.081   2.896   3.058  0.4763  0.0201  0.5735
  110MOL0     N14732   6.113   2.836   3.191  0.1887  0.4769  0.2802
  110MOL0     C14733   6.232   2.778   3.216  1.0410 -0.3041  0.5869
  110MOL0     C14734   6.226   2.737   3.343 -0.4403 -0.3054  0.9241
  110MOL0     C14735   6.324   2.658   3.410 -0.6337 -0.0796 -0.6311
  110MOL0     C14736   6.305   2.505   3.386  0.1724  0.1581  0.2366
  110MOL0     C14737   6.389   2.424   3.487 -0.1491 -0.8581  0.0049
  110MOL0     C14738   6.540   2.415   3.461 -0.0684  1.3004  0.1943
  110MOL0     O14739   6.553   2.373   3.326  0.5079 -0.8035 -0.2534
  110MOL0     C14740   6.670   2.321   3.281 -0.2403 -0.1947  0.2446
  110MOL0     C14741   6.655   2.230   3.182  0.7095  0.3401 -0.5026
  110MOL0     C14742   6.753   2.147   3.130  0.0312  0.5216  0.6416
  110MOL0     C14743   6.885   2.164   3.187  0.7928  0.4441  0.8112
  110MOL0     C14744   7.003   2.083   3.136  0.4189 -0.6006 -0.3767
  110MOL0     O14745   6.983   1.992   3.039  0.4475  0.4505  0.5562
  110MOL0     C14746   7.096   1.948   2.977  0.1405 -0.1340  0.2861
  110MOL0     C14747   7.093   1.975   2.839 -0.2922  0.3010  0.3407
  110MOL0     C14748   7.191   1.913   2.753  0.9725  1.1508  0.5711
  110MOL0     C14749   7.296   1.837   2.813 -0.1415 -0.2742 -0.0355
  110MOL0     O14750   7.392   1.800   2.729  0.3926  0.7973 -0.1189
  110MOL0     C14751   7.485   1.701   2.781 -0.1673 -0.2731  1.0637
  110MOL0     C14752   7.564   1.642   2.664  0.3698  0.2520 -0.3726
  110MOL0     C14753   7.482   1.586   2.545  0.0925 -0.3928 -0.4536
  110MOL0     C14754   7.577   1.531   2.433 -0.1528 -0.4833  0.2906
  110MOL0     C14755   7.514   1.444   2.321 -0.1167 -0.0945  0.3279
  110MOL0     C14756   7.622   1.357   2.263  0.2097  0.6413 -0.3650
  110MOL0     C14757   7.584   1.234   2.187  0.3168  0.4263  1.3416
  110MOL0     C14758   7.562   1.113   2.275 -0.1863 -0.9427  0.1026
  110MOL0    Cl14759   7.550   0.970   2.181 -0.2107  0.0891 -0.0081
  110MOL0     C14760   7.290   1.811   2.955  0.1015  0.7324 -0.1170
  110MOL0     C14761   7.189   1.865   3.037  0.1770  0.3575  0.1745
  110MOL0     O14762   7.115   2.116   3.184  0.3916  0.1090  0.4026
  110MOL0     C14763   6.899   2.260   3.293  0.6989  0.8199  0.0280
  110MOL0     C14764   6.788   2.331   3.346  0.3263 -0.1204  0.9290
  110MOL0     N14765   6.095   2.755   3.385  0.6795 -0.5473  0.0761
  110MOL0     N14766   6.023   2.824   3.296 -0.0683 -0.1215 -0.4790
  110MOL0     C14767   7.045   2.805   2.564  0.3520 -0.2456  0.6010
  110MOL0     C14768   7.142   2.718   2.515  0.4971 -0.0117  0.0571
  110MOL0     C14769   7.452   2.513   2.276 -0.0032  0.7178 -0.2943
  110MOL0     C14770   7.390   2.426   2.183 -0.0537 -0.2213 -0.4556
  110MOL0     C14771   7.459   2.339   2.100  0.5905  0.5108 -0.4201
  110MOL0     C14772   7.593   2.323   2.114 -0.3116  0.4755 -0.1364
  110MOL0     O14773   7.665   2.242   2.029 -0.1841 -0.0929 -0.3450
  110MOL0     C14774   7.624   2.232   1.891  0.4454 -0.3737  0.1724
  110MOL0     C14775   7.666   2.352   1.801  0.3298  1.0003 -0.0101
  110MOL0     C14776   7.817   2.340   1.761  0.1161  0.2618  0.4413
  110MOL0     C14777   7.903   2.316   1.881  0.9025  0.1567 -0.2805
  110MOL0     C14778   8.043   2.330   1.865 -0.7540  0.5642 -0.0398
  110MOL0     C14779   8.163   2.353   1.862 -0.1149  0.5704  1.0346
  110MOL0     C14780   7.657   2.401   2.208  0.0032 -0.2530 -0.3058
  110MOL0     C14781   7.590   2.497   2.296  1.0624 -0.1522  0.2332
  110MOL0     C14782   7.685   2.580   2.375  0.8439 -0.5014  0.4272
  110MOL0     H14783   7.049   2.737   2.184 -1.6258  0.1510  0.0352
  110MOL0     H14784   6.876   2.867   2.268  0.0852  1.0845 -0.2062
  110MOL0     H14785   6.719   2.772   2.555  3.1617 -0.9495 -2.4847
  110MOL0     H14786   6.826   2.799   2.694  1.4513  0.7928 -0.9839
  110MOL0     H14787   6.591   2.953   2.594 -0.1702 -0.4823  0.0982
  110MOL0     H14788   6.709   3.031   2.702 -1.1614  0.8125  2.3873
  110MOL0     H14789   6.681   2.825   2.878 -1.6350 -1.6848  1.2998
  110MOL0     H14790   6.553   2.769   2.779 -2.3377  1.3556  1.6077
  110MOL0     H14791   6.554   2.935   2.996 -0.4073 -1.1443 -0.1398
  110MOL0     H14792   6.544   3.062   2.881 -0.3761  0.6348 -0.6190
  110MOL0     H14793   6.316   2.964   2.804  1.9049  1.1778  0.5669
  110MOL0     H14794   6.348   2.827   2.908  0.2212  0.0912  0.1360
  110MOL0     H14795   6.353   2.993   3.109 -2.1565 -0.8750 -0.9951
  110MOL0     H14796   6.347   3.132   2.995  3.0922  0.4650  2.6381
  110MOL0     H14797   6.103   3.092   2.966 -0.2823 -0.1387 -1.0701
  110MOL0     H14798   6.143   3.076   3.138 -3.7917 -2.0093  0.6458
  110MOL0     H14799   5.972   2.909   3.057 -0.0527 -3.3653  0.3054
  110MOL0     H14800   6.097   2.815   2.986  1.2935 -0.3219  1.1276
  110MOL0     H14801   6.321   2.766   3.155  0.7121 -1.4260  0.3088
  110MOL0     H14802   6.424   2.684   3.374 -0.0749 -0.4004  0.6667
  110MOL0     H14803   6.311   2.678   3.517 -2.1906 -2.8483 -0.2017
  110MOL0     H14804   6.200   2.475   3.374  0.9757 -1.7899 -3.8322
  110MOL0     H14805   6.341   2.490   3.284 -0.1631 -2.9852  0.4867
  110MOL0     H14806   6.353   2.320   3.488 -0.6162 -0.7091 -0.6014
  110MOL0     H14807   6.385   2.473   3.584 -2.4902 -1.1135  0.1112
  110MOL0     H14808   6.574   2.337   3.529  0.8679 -0.3509 -2.0553
  110MOL0     H14809   6.598   2.506   3.480  0.8140  1.1238 -1.4671
  110MOL0     H14810   6.555   2.229   3.139  0.1966 -2.3895  0.5407
  110MOL0     H14811   6.749   2.075   3.048  3.0999  0.2820  0.5879
  110MOL0     H14812   7.010   2.025   2.791  0.4083 -1.8028 -3.5324
  110MOL0     H14813   7.187   1.935   2.647  0.4263 -0.6418  0.1837
  110MOL0     H14814   7.545   1.748   2.860 -1.1914  2.0792  0.5293
  110MOL0     H14815   7.422   1.625   2.828  0.6599  0.5873  3.7500
  110MOL0     H14816   7.634   1.720   2.633  2.3070 -1.0881  0.3918
  110MOL0     H14817   7.618   1.557   2.707 -1.2122  0.0984  1.4327
  110MOL0     H14818   7.414   1.510   2.583 -0.6378  0.5428  0.1559
  110MOL0     H14819   7.415   1.660   2.499  0.5047 -0.8422 -1.8311
  110MOL0     H14820   7.665   1.479   2.473  0.6938  0.1255 -0.7292
  110MOL0     H14821   7.614   1.620   2.380  0.5658 -1.7395 -1.4051
  110MOL0     H14822   7.480   1.501   2.234  1.1270 -0.8645 -0.7130
  110MOL0     H14823   7.424   1.393   2.356  1.4044 -2.4006  1.1433
  110MOL0     H14824   7.680   1.421   2.195  0.9078 -1.2577 -1.6374
  110MOL0     H14825   7.697   1.326   2.337 -1.0116  0.6901  0.9354
  110MOL0     H14826   7.667   1.218   2.118  1.6477  2.4777  2.3688
  110MOL0     H14827   7.491   1.246   2.131  0.9364  0.7223  0.3560
  110MOL0     H14828   7.636   1.093   2.353 -0.3926 -2.0359  0.0448
  110MOL0     H14829   7.464   1.130   2.320  0.7505 -0.7864  2.1936
  110MOL0     H14830   7.361   1.749   3.009  0.2965  0.1154 -1.0536
  110MOL0     H14831   7.198   1.862   3.145  1.6221  2.3111  0.1721
  110MOL0     H14832   6.996   2.277   3.340  0.3052  1.1703  0.7301
  110MOL0     H14833   6.798   2.400   3.430  2.2180  0.7399  0.0556
  110MOL0     H14834   7.052   2.839   2.667 -0.1642 -1.6691  1.1387
  110MOL0     H14835   7.221   2.684   2.582  1.4190 -3.2462 -2.4573
  110MOL0     H14836   7.283   2.418   2.165 -0.1106 -1.5872  0.3467
  110MOL0     H14837   7.394   2.288   2.030  1.2964  1.4004 -1.7723
  110MOL0     H14838   7.520   2.202   1.880  1.6727 -4.7283 -1.7912
  110MOL0     H14839   7.677   2.143   1.856  3.4123  1.3423 -0.1035
  110MOL0     H14840   7.646   2.441   1.862  1.4814  0.0495  1.8650
  110MOL0     H14841   7.606   2.368   1.711  0.9303  2.9746 -0.1013
  110MOL0     H14842   7.841   2.432   1.707  2.0735 -0.5254 -0.1159
  110MOL0     H14843   7.820   2.256   1.691  0.4670  1.6634 -1.2867
  110MOL0     H14844   7.869   2.393   1.952 -2.7953  0.8804 -2.5450
  110MOL0     H14845   7.892   2.214   1.917 -0.5896  0.8308  1.3342
  110MOL0     H14846   8.268   2.372   1.865 -0.6163  4.0562  1.2675
  110MOL0     H14847   7.764   2.383   2.203  0.1111  0.5980 -1.5504
  110MOL0     H14848   7.681   2.684   2.338 -2.7567 -0.7520 -0.1886
  110MOL0     H14849   7.645   2.576   2.476 -4.4870 -1.8910 -1.4339
  110MOL0     H14850   7.784   2.536   2.364  0.2659 -2.0010  1.0625
  111MOL0     O14851   5.247   0.608   1.626  0.6054  1.4391  0.1637
  111MOL0     C14852   5.198   0.550   1.728 -0.7858 -0.8980  0.2715
  111MOL0     O14853   5.201   0.602   1.858  0.6879  0.9697 -1.0438
  111MOL0     C14854   5.190   0.733   1.892  0.2402 -0.0393 -0.9160
  111MOL0     C14855   5.242   0.763   2.016  0.8307  0.4166 -0.1729
  111MOL0     C14856   5.255   0.895   2.055 -0.4140 -0.6139  0.2242
  111MOL0     C14857   5.213   1.003   1.975 -0.0595  0.6038  0.1449
  111MOL0     O14858   5.264   1.128   2.011 -0.3947  0.0330 -0.4896
  111MOL0     C14859   5.237   1.253   1.929  0.2258 -0.8371  0.6273
  111MOL0     C14860   5.343   1.260   1.817  1.2027 -0.0350  0.0941
  111MOL0     C14861   5.326   1.397   1.755 -0.6102 -0.3758  1.0514
  111MOL0     C14862   5.403   1.420   1.624 -1.8142 -0.0242 -0.3832
  111MOL0     C14863   5.378   1.564   1.562 -0.1715  0.2530  0.0910
  111MOL0     C14864   5.423   1.567   1.423 -0.1845 -0.3834 -0.2678
  111MOL0     C14865   5.393   1.705   1.361 -0.2156  0.7182 -0.3766
  111MOL0     C14866   5.425   1.713   1.218 -0.8314  0.4377  0.4821
  111MOL0     N14867   5.406   1.849   1.180  0.5456 -0.5920 -0.4404
  111MOL0     C14868   5.290   1.903   1.129  0.3705  0.5616  0.1825
  111MOL0     C14869   5.321   2.026   1.074 -0.1137  0.1307  0.5049
  111MOL0     C14870   5.223   2.101   0.987 -0.6077 -1.0807 -0.6800
  111MOL0     C14871   5.285   2.182   0.878  0.1016  0.2731  0.3928
  111MOL0     C14872   5.410   2.268   0.903  0.7250 -0.1196  0.6119
  111MOL0     C14873   5.392   2.364   1.028  0.0224 -1.0242  0.1140
  111MOL0     O14874   5.484   2.479   1.030  0.6666 -0.6550 -0.2905
  111MOL0     C14875   5.617   2.475   1.075 -0.9659  1.0302  0.1279
  111MOL0     C14876   5.693   2.591   1.068  0.6193 -0.1208  0.5138
  111MOL0     C14877   5.823   2.598   1.105 -0.9020  0.7433  0.2290
  111MOL0     C14878   5.883   2.487   1.175  0.7991  0.4767  0.3411
  111MOL0     C14879   6.026   2.506   1.218  0.7805  0.7411 -0.3137
  111MOL0     O14880   6.083   2.636   1.207 -0.1711  0.2662  0.2772
  111MOL0     C14881   6.210   2.668   1.265 -0.0356 -0.0326  0.4732
  111MOL0     C14882   6.316   2.707   1.180  1.3118 -0.1861 -0.2835
  111MOL0     C14883   6.424   2.774   1.239 -0.5948  0.4347 -0.4882
  111MOL0     C14884   6.441   2.785   1.378 -0.2683 -1.3324 -1.0024
  111MOL0     O14885   6.553   2.861   1.419  0.4112 -0.3247  0.6743
  111MOL0     C14886   6.580   2.871   1.564  0.5888  0.4169  0.4647
  111MOL0     C14887   6.664   2.993   1.587 -0.3523 -0.1038 -0.2724
  111MOL0     C14888   6.799   2.984   1.505  0.5399  0.6788  0.4352
  111MOL0     C14889   6.866   3.124   1.518 -1.3505 -0.9158  0.1701
  111MOL0     C14890   6.990   3.126   1.433  0.3750 -0.4192 -0.5808
  111MOL0     C14891   7.103   3.024   1.474 -0.8063 -0.0190 -0.0836
  111MOL0     C14892   7.185   3.068   1.600 -0.1734 -0.1597  0.2220
  111MOL0     C14893   7.336   3.066   1.590 -0.6171 -1.1922  0.0246
  111MOL0    Cl14894   7.412   2.905   1.556 -0.2956 -0.3905 -0.0937
  111MOL0     C14895   6.341   2.726   1.463 -0.0049 -0.8654 -0.1388
  111MOL0     C14896   6.223   2.667   1.399 -0.5735  0.2392 -0.5512
  111MOL0     O14897   6.069   2.412   1.280 -0.0189 -0.4812 -1.1007
  111MOL0     C14898   5.806   2.366   1.182 -0.6310  0.3262  0.5242
  111MOL0     C14899   5.669   2.362   1.148 -0.0103  0.7801  0.4678
  111MOL0     N14900   5.461   2.050   1.092  0.1958 -0.4298 -0.0033
  111MOL0     N14901   5.510   1.940   1.155  1.0505 -0.4372  0.4330
  111MOL0     C14902   5.154   0.970   1.859 -0.6080 -0.2348 -0.0545
  111MOL0     C14903   5.142   0.839   1.819 -0.5305 -1.2624  1.4217
  111MOL0     C14904   5.143   0.416   1.725  0.3687  0.0846 -0.3351
  111MOL0     C14905   5.038   0.393   1.819 -0.5175 -0.4590 -0.1401
  111MOL0     C14906   4.986   0.267   1.840  0.7232 -0.7167 -0.4014
  111MOL0     C14907   5.031   0.164   1.766 -0.6513  1.2110  0.0817
  111MOL0     O14908   4.967   0.043   1.793 -0.8418 -0.5030 -0.2043
  111MOL0     C14909   4.949  -0.056   1.687  0.1483 -0.8933 -0.2363
  111MOL0     C14910   4.969  -0.194   1.740  0.7819 -0.4243 -0.4749
  111MOL0     C14911   4.853  -0.228   1.836  0.4915 -0.1892  0.2320
  111MOL0     C14912   4.883  -0.329   1.947 -0.6213  0.4565 -0.2733
  111MOL0     C14913   4.980  -0.278   2.044  0.1185 -0.5311  1.3266
  111MOL0     C14914   5.057  -0.222   2.117 -0.5649 -0.3851  0.0272
  111MOL0     C14915   5.130   0.180   1.665 -0.1984 -0.8505 -0.1767
  111MOL0     C14916   5.188   0.312   1.641 -0.3784 -0.4009  0.1600
  111MOL0     C14917   5.268   0.332   1.512 -1.3413  0.6410 -1.0211
  111MOL0     H14918   5.270   0.685   2.085 -0.9724  0.5790  0.7918
  111MOL0     H14919   5.306   0.910   2.149 -0.2246 -1.9054  0.3374
  111MOL0     H14920   5.138   1.250   1.883  0.6629 -0.8894 -0.3260
  111MOL0     H14921   5.251   1.340   1.994  2.9814  0.0401 -0.9910
  111MOL0     H14922   5.308   1.184   1.746  0.0110  0.6021 -0.0197
  111MOL0     H14923   5.442   1.228   1.850  1.0699 -0.8278 -0.2387
  111MOL0     H14924   5.374   1.464   1.826  3.8459 -4.4635  2.4562
  111MOL0     H14925   5.221   1.417   1.734 -0.6669 -0.1544  1.5418
  111MOL0     H14926   5.510   1.408   1.642 -2.1526 -1.9119  0.6809
  111MOL0     H14927   5.373   1.344   1.551 -1.4244  0.9870 -1.6246
  111MOL0     H14928   5.269   1.571   1.571 -0.6181 -3.9005 -0.0128
  111MOL0     H14929   5.417   1.645   1.624  0.3466  0.9545 -1.1338
  111MOL0     H14930   5.532   1.557   1.413  0.3028  3.1505  0.2337
  111MOL0     H14931   5.373   1.489   1.364 -0.0077  0.6961 -1.9211
  111MOL0     H14932   5.456   1.777   1.415 -0.7758  0.2456  0.9419
  111MOL0     H14933   5.287   1.731   1.373 -1.4872 -2.6484 -2.6971
  111MOL0     H14934   5.531   1.687   1.206 -0.8358  1.1805 -1.3866
  111MOL0     H14935   5.365   1.644   1.159 -0.1833  1.0209 -0.8946
  111MOL0     H14936   5.195   1.852   1.128 -0.1428  1.4853 -0.6652
  111MOL0     H14937   5.170   2.018   0.938 -1.4677 -2.2312  1.9983
  111MOL0     H14938   5.150   2.160   1.043 -1.7429 -2.3356 -0.7823
  111MOL0     H14939   5.305   2.112   0.796  1.4801 -0.4121  1.2693
  111MOL0     H14940   5.208   2.246   0.834 -2.2514 -0.6329  2.9330
  111MOL0     H14941   5.406   2.329   0.812 -1.3000 -2.1752 -0.8043
  111MOL0     H14942   5.506   2.215   0.899  0.9656  0.3786 -2.3894
  111MOL0     H14943   5.382   2.306   1.120 -0.8434 -1.2856 -0.1419
  111MOL0     H14944   5.298   2.418   1.015  0.5029  0.1348  1.2082
  111MOL0     H14945   5.658   2.669   1.001 -0.4358 -1.1829 -0.2083
  111MOL0     H14946   5.875   2.690   1.080 -1.2672  2.1950  4.0877
  111MOL0     H14947   6.310   2.701   1.072  0.0460  0.1992 -0.2464
  111MOL0     H14948   6.508   2.812   1.182  0.4795  1.6858  1.7712
  111MOL0     H14949   6.490   2.875   1.626 -0.9951 -2.4635 -1.4405
  111MOL0     H14950   6.645   2.790   1.598  0.0049 -0.2480  0.0150
  111MOL0     H14951   6.613   3.084   1.552  1.6302  1.3797  0.4871
  111MOL0     H14952   6.676   3.006   1.694 -1.7005  0.2336 -0.1448
  111MOL0     H14953   6.863   2.907   1.549 -1.0707 -1.3882 -0.6544
  111MOL0     H14954   6.780   2.951   1.403  0.4905  0.3730  0.5426
  111MOL0     H14955   6.905   3.133   1.620  0.7858  1.7264 -0.7616
  111MOL0     H14956   6.804   3.210   1.491  2.2821  1.6764 -0.5823
  111MOL0     H14957   7.038   3.223   1.444  2.5696 -1.6798  2.4533
  111MOL0     H14958   6.967   3.116   1.327  1.6867  2.8432 -1.2761
  111MOL0     H14959   7.055   2.926   1.487 -0.1028 -0.5459 -1.2688
  111MOL0     H14960   7.172   3.011   1.390 -0.3004 -1.7601  0.5509
  111MOL0     H14961   7.154   3.008   1.686  4.6494  0.9430  3.1102
  111MOL0     H14962   7.163   3.174   1.618 -0.2592  0.3023 -2.2958
  111MOL0     H14963   7.383   3.139   1.523 -2.3757  1.2748  1.2974
  111MOL0     H14964   7.370   3.111   1.684  1.5813 -1.2561 -0.6684
  111MOL0     H14965   6.343   2.733   1.571 -1.6146 -2.4528  0.0290
  111MOL0     H14966   6.153   2.622   1.469  0.5071 -4.1374 -1.9603
  111MOL0     H14967   5.845   2.272   1.220 -1.1932  0.3374  1.1415
  111MOL0     H14968   5.619   2.267   1.160  1.3707  0.1275  1.3403
  111MOL0     H14969   5.122   1.057   1.802  0.7276 -0.7337 -1.6601
  111MOL0     H14970   5.106   0.830   1.717  0.9617 -1.9975  0.9207
  111MOL0     H14971   4.998   0.465   1.889 -2.2564 -1.2162 -0.2988
  111MOL0     H14972   4.921   0.250   1.925  1.0555  0.1412  0.0447
  111MOL0     H14973   5.024  -0.046   1.609  2.5720 -2.9581  1.6651
  111MOL0     H14974   4.849  -0.039   1.646 -0.6102 -1.1745  1.3922
  111MOL0     H14975   5.066  -0.204   1.789  0.0910 -0.7587  0.8612
  111MOL0     H14976   4.955  -0.250   1.647 -2.8177  1.1797 -1.0838
  111MOL0     H14977   4.778  -0.277   1.773  0.5537  2.0945 -1.8055
  111MOL0     H14978   4.807  -0.138   1.878 -1.5058  0.0843 -2.2737
  111MOL0     H14979   4.788  -0.353   1.995 -1.8563  1.8167 -1.8942
  111MOL0     H14980   4.931  -0.421   1.911  1.9892  0.4348  2.8143
  111MOL0     H14981   5.117  -0.179   2.194 -1.5522 -0.7223  1.0053
  111MOL0     H14982   5.163   0.096   1.606 -1.6512 -2.0109  0.5898
  111MOL0     H14983   5.323   0.243   1.483  3.1200  3.7279 -3.1866
  111MOL0     H14984   5.197   0.356   1.432 -2.5840 -0.6150 -0.3337
  111MOL0     H14985   5.342   0.413   1.515  0.0387 -0.5605 -1.3381
  112MOL0     O14986   8.491   6.977   2.187  0.4832  0.0072  0.3422
  112MOL0     C14987   8.560   6.979   2.087 -0.2919  0.7426  0.4024
  112MOL0     O14988   8.518   7.032   1.964 -0.6136 -0.1131 -0.2796
  112MOL0     C14989   8.387   7.070   1.951 -0.6803 -0.1828 -0.7659
  112MOL0     C14990   8.362   7.196   1.932  0.3559 -0.2887  0.3967
  112MOL0     C14991   8.233   7.245   1.895 -0.7412 -0.0904 -0.0333
  112MOL0     C14992   8.130   7.150   1.892 -0.8631  0.5124 -0.6149
  112MOL0     O14993   8.026   7.221   1.839 -0.3626 -0.3720 -0.0334
  112MOL0     C14994   7.900   7.170   1.879  0.4183 -0.2132  0.7150
  112MOL0     C14995   7.796   7.247   1.813  0.0060 -0.6285  0.0462
  112MOL0     C14996   7.812   7.405   1.812  0.1168  0.4600  0.6482
  112MOL0     C14997   7.850   7.461   1.951 -0.7099 -0.5911  0.0457
  112MOL0     C14998   7.870   7.618   1.944  0.0664 -0.0874  0.4428
  112MOL0     C14999   7.972   7.649   2.057  0.0101  0.3953  0.6981
  112MOL0     C15000   7.906   7.640   2.199  0.4882 -0.6158  0.2304
  112MOL0     C15001   8.024   7.647   2.285 -0.3013 -0.0051 -1.5003
  112MOL0     N15002   8.068   7.511   2.325 -0.3579  0.9594 -0.6281
  112MOL0     C15003   8.155   7.428   2.260 -0.4201  0.2309 -0.8474
  112MOL0     C15004   8.177   7.319   2.337  1.2752 -1.0351 -0.6160
  112MOL0     C15005   8.260   7.202   2.303  0.7596  0.4708  0.0848
  112MOL0     C15006   8.334   7.143   2.425  1.2897 -0.6717 -0.2142
  112MOL0     C15007   8.424   7.247   2.494  0.1309  0.1514 -0.2906
  112MOL0     C15008   8.508   7.170   2.595 -0.2292  0.3260  1.0066
  112MOL0     O15009   8.587   7.261   2.665 -0.0213  0.6921  0.3829
  112MOL0     C15010   8.689   7.204   2.741 -0.5340  0.4771 -0.2295
  112MOL0     C15011   8.798   7.289   2.760 -0.2656 -0.2503 -0.0526
  112MOL0     C15012   8.904   7.254   2.842 -0.1436 -1.0392  0.1138
  112MOL0     C15013   8.909   7.125   2.900 -0.4194  0.5165  0.2723
  112MOL0     C15014   9.003   7.089   3.003 -0.4633  0.6433  0.1295
  112MOL0     O15015   9.032   6.955   3.008 -0.4001 -0.1372 -0.0115
  112MOL0     C15016   9.123   6.893   3.096 -0.3284 -0.0453 -0.0168
  112MOL0     C15017   9.089   6.758   3.136 -0.6512 -0.6015  0.3298
  112MOL0     C15018   9.167   6.680   3.218 -0.2515  1.1016  0.5297
  112MOL0     C15019   9.280   6.739   3.272  1.0154  0.5477  0.1831
  112MOL0     O15020   9.366   6.669   3.349  0.8944  0.7430  0.5845
  112MOL0     C15021   9.350   6.519   3.347 -0.8288 -0.5688 -0.0878
  112MOL0     C15022   9.443   6.449   3.454 -0.2726 -0.1938  0.2313
  112MOL0     C15023   9.596   6.453   3.420  0.0819  0.0569  0.2594
  112MOL0     C15024   9.637   6.351   3.311  0.7157 -0.0347 -0.1426
  112MOL0     C15025   9.772   6.367   3.250 -0.0617  0.2471  0.3433
  112MOL0     C15026   9.880   6.377   3.353 -0.2798 -0.5342 -0.2416
  112MOL0     C15027  10.014   6.430   3.311 -0.2355  0.0705 -0.5251
  112MOL0     C15028  10.090   6.342   3.218 -0.6984 -0.6166  0.3428
  112MOL0    Cl15029  10.179   6.212   3.312 -0.1554  0.3770  0.0401
  112MOL0     C15030   9.313   6.875   3.250  0.3008  0.2943 -0.7220
  112MOL0     C15031   9.231   6.953   3.163  0.2317  0.1566 -0.6740
  112MOL0     O15032   9.042   7.171   3.083  0.2139 -0.0472 -0.5763
  112MOL0     C15033   8.806   7.035   2.860  0.2756  0.0648 -0.1586
  112MOL0     C15034   8.687   7.077   2.793 -1.3983  0.3531 -1.0261
  112MOL0     N15035   8.105   7.346   2.454 -0.2290  0.5718  0.8348
  112MOL0     N15036   8.047   7.462   2.452 -0.0022  0.0237  0.9214
  112MOL0     C15037   8.153   7.022   1.930 -0.2552  0.1771 -1.0957
  112MOL0     C15038   8.283   6.976   1.960 -0.6071  0.4173 -0.4266
  112MOL0     C15039   8.703   6.941   2.098 -0.2638 -0.7071 -0.3003
  112MOL0     C15040   8.773   6.902   1.980  0.5273 -0.0488 -0.7167
  112MOL0     C15041   8.899   6.848   1.988  0.8973 -0.5779 -0.5833
  112MOL0     C15042   8.965   6.819   2.108  0.6007  0.0695  0.9086
  112MOL0     O15043   9.089   6.772   2.090  0.7091  0.8602 -0.1854
  112MOL0     C15044   9.182   6.759   2.201  0.3637  0.1059 -0.0752
  112MOL0     C15045   9.249   6.887   2.216  0.1081 -0.1814  0.6013
  112MOL0     C15046   9.380   6.877   2.293  0.3120  0.3752  1.2548
  112MOL0     C15047   9.452   7.011   2.292  0.1848  0.1086  0.1985
  112MOL0     C15048   9.599   6.993   2.308  0.8312  0.3804  0.1061
  112MOL0     C15049   9.716   6.978   2.320  0.0987 -0.1548  0.8763
  112MOL0     C15050   8.904   6.868   2.221  0.5084 -0.7196 -0.2135
  112MOL0     C15051   8.770   6.924   2.224  0.5300  0.3292 -0.3234
  112MOL0     C15052   8.714   6.969   2.353  0.0677  0.0245 -0.6549
  112MOL0     H15053   8.442   7.269   1.926  0.8032 -0.6716  1.3717
  112MOL0     H15054   8.235   7.349   1.866  0.0218  0.2266  1.1057
  112MOL0     H15055   7.883   7.067   1.845 -2.1009  0.7244 -1.1437
  112MOL0     H15056   7.877   7.180   1.985  0.8438  1.8941  0.6531
  112MOL0     H15057   7.699   7.230   1.860  1.1793 -0.1392  2.8794
  112MOL0     H15058   7.797   7.201   1.714  1.5490 -1.6747  0.5016
  112MOL0     H15059   7.718   7.453   1.787  0.1580 -0.0264 -0.5363
  112MOL0     H15060   7.876   7.435   1.728 -0.8764  0.2679 -0.1937
  112MOL0     H15061   7.772   7.448   2.027 -0.9260  0.7077  0.0814
  112MOL0     H15062   7.948   7.422   1.977 -1.0042  0.0542  2.3498
  112MOL0     H15063   7.908   7.653   1.848 -2.7457 -1.6311 -1.3757
  112MOL0     H15064   7.778   7.672   1.970 -1.1209 -2.5985  1.8387
  112MOL0     H15065   8.046   7.571   2.034 -0.9098  0.0223 -1.2261
  112MOL0     H15066   8.017   7.747   2.039 -1.2881  0.7465 -0.8449
  112MOL0     H15067   7.851   7.549   2.222  1.4678 -0.8833  1.5797
  112MOL0     H15068   7.837   7.723   2.219 -0.1710 -1.1809  0.3165
  112MOL0     H15069   8.109   7.699   2.238  1.3366 -0.5429  0.7074
  112MOL0     H15070   8.001   7.708   2.373 -2.8273 -2.5176 -0.2609
  112MOL0     H15071   8.182   7.443   2.156 -0.5576  1.8111 -0.6828
  112MOL0     H15072   8.186   7.131   2.265  1.4344  1.4207 -3.3553
  112MOL0     H15073   8.330   7.216   2.219  0.4934  2.7528  0.1695
  112MOL0     H15074   8.262   7.107   2.499 -0.0250  0.9391 -0.6497
  112MOL0     H15075   8.395   7.058   2.394  1.8750  0.1236 -1.3339
  112MOL0     H15076   8.378   7.328   2.551 -0.4877  1.4991 -2.5601
  112MOL0     H15077   8.507   7.276   2.429 -0.8477  0.9152 -1.2420
  112MOL0     H15078   8.567   7.092   2.546 -1.5642  0.1144 -0.3398
  112MOL0     H15079   8.449   7.118   2.672  0.2436 -0.0207  1.1344
  112MOL0     H15080   8.797   7.382   2.703  0.7031  0.7806  1.5291
  112MOL0     H15081   8.984   7.322   2.868 -1.0166  0.3618 -0.7165
  112MOL0     H15082   9.018   6.716   3.065 -3.1456  2.4326  0.8379
  112MOL0     H15083   9.129   6.580   3.234 -1.1785  1.2356 -0.7104
  112MOL0     H15084   9.255   6.472   3.372  0.7490 -3.3493  1.0965
  112MOL0     H15085   9.372   6.491   3.243 -0.8191  2.0109 -0.8573
  112MOL0     H15086   9.429   6.500   3.550 -2.7787 -0.9352  0.3366
  112MOL0     H15087   9.408   6.348   3.477 -1.8656 -0.6119 -3.2729
  112MOL0     H15088   9.629   6.555   3.398  0.3891 -0.0500  0.2225
  112MOL0     H15089   9.659   6.426   3.506  0.2597  0.9682  0.4333
  112MOL0     H15090   9.567   6.361   3.227  0.6113  4.3131  0.2529
  112MOL0     H15091   9.628   6.247   3.346 -0.3789 -0.0262 -0.3490
  112MOL0     H15092   9.786   6.463   3.199 -0.3836  0.5675  0.8556
  112MOL0     H15093   9.793   6.291   3.174  1.0084  0.9476 -0.0894
  112MOL0     H15094   9.864   6.440   3.442  2.6113 -1.3937  1.0131
  112MOL0     H15095   9.902   6.279   3.395 -1.3751 -2.2538 -3.3578
  112MOL0     H15096  10.075   6.443   3.401  0.7261 -0.9209 -1.0097
  112MOL0     H15097   9.994   6.525   3.261 -0.6756  0.2323 -0.0538
  112MOL0     H15098  10.027   6.292   3.144  1.5163  1.8056 -3.5149
  112MOL0     H15099  10.157   6.399   3.152 -2.0965  2.0342  1.0643
  112MOL0     H15100   9.403   6.917   3.294 -1.8322  3.9360  0.5619
  112MOL0     H15101   9.268   7.050   3.133  1.6745 -0.0033  0.4713
  112MOL0     H15102   8.816   6.932   2.893  4.7209  0.6302  0.9433
  112MOL0     H15103   8.604   7.009   2.776 -0.2729 -1.5869  0.7421
  112MOL0     H15104   8.074   6.948   1.933 -0.0183 -0.0683  0.6908
  112MOL0     H15105   8.306   6.873   1.985  1.5045  1.2535  1.3603
  112MOL0     H15106   8.717   6.901   1.888 -0.4231 -0.4895 -0.1460
  112MOL0     H15107   8.952   6.831   1.895  0.7380  2.5552 -1.3294
  112MOL0     H15108   9.251   6.676   2.185 -0.7611 -1.8265  3.7842
  112MOL0     H15109   9.137   6.736   2.298 -2.1227  1.5902 -0.7868
  112MOL0     H15110   9.187   6.962   2.267 -0.4717  1.3121 -2.0757
  112MOL0     H15111   9.262   6.936   2.119 -0.9602  1.0925  1.0706
  112MOL0     H15112   9.447   6.806   2.243 -1.9264  0.4438 -2.1159
  112MOL0     H15113   9.371   6.831   2.392  1.7595 -0.4842  1.0228
  112MOL0     H15114   9.433   7.070   2.201  2.6386  1.9414  0.7550
  112MOL0     H15115   9.415   7.077   2.370 -1.2975  0.3853 -0.6897
  112MOL0     H15116   9.820   6.966   2.344  0.2982 -0.4099 -0.0386
  112MOL0     H15117   8.954   6.871   2.317  2.5670 -2.5035 -1.1541
  112MOL0     H15118   8.651   6.896   2.405  2.9007 -2.2289 -0.1170
  112MOL0     H15119   8.801   6.994   2.414  0.6649  0.6899 -1.7392
  112MOL0     H15120   8.657   7.062   2.346 -0.7222 -0.5553 -2.7820
  113MOL0     O15121   6.678   8.173   7.392  0.0664 -0.2499 -0.9368
  113MOL0     C15122   6.678   8.047   7.391 -0.1938 -0.2781 -0.0254
  113MOL0     O15123   6.568   7.968   7.388  1.4001  0.5500 -0.4827
  113MOL0     C15124   6.446   8.027   7.414  0.0512  0.3396 -0.0206
  113MOL0     C15125   6.410   8.058   7.545  0.0618 -0.0308  0.7344
  113MOL0     C15126   6.280   8.090   7.577 -0.2270  0.6963 -0.0271
  113MOL0     C15127   6.183   8.102   7.480  0.7734 -0.8731 -0.4352
  113MOL0     O15128   6.059   8.139   7.529  0.5271 -0.9157  0.5382
  113MOL0     C15129   5.970   8.195   7.429  0.0105  0.4213 -0.1397
  113MOL0     C15130   5.842   8.252   7.504 -1.6830 -0.4017  0.6224
  113MOL0     C15131   5.765   8.342   7.389  0.2072  0.1192  0.7777
  113MOL0     C15132   5.620   8.369   7.424  0.5696 -1.5559 -0.1781
  113MOL0     C15133   5.571   8.484   7.345  0.7002 -0.3842  0.7180
  113MOL0     C15134   5.434   8.540   7.374  0.6628  0.3968 -0.0794
  113MOL0     C15135   5.325   8.429   7.376  0.7743 -0.1387  0.5274
  113MOL0     C15136   5.182   8.487   7.385  0.2479 -0.7473  0.3180
  113MOL0     N15137   5.161   8.535   7.520  0.8151 -0.5678  0.3577
  113MOL0     C15138   5.161   8.465   7.637 -0.8268 -1.2356  0.4782
  113MOL0     C15139   5.096   8.544   7.723  0.1944 -0.0068 -0.6521
  113MOL0     C15140   5.077   8.492   7.866  0.1803 -0.7862  0.4878
  113MOL0     C15141   4.952   8.565   7.927 -0.1697  0.2240 -0.9590
  113MOL0     C15142   4.830   8.506   7.855  0.1508  0.3553  0.5942
  113MOL0     C15143   4.697   8.495   7.926  0.3830 -0.4170  0.6229
  113MOL0     O15144   4.659   8.635   7.927  0.4147 -0.6338 -0.0583
  113MOL0     C15145   4.529   8.666   7.946 -0.2084  0.7343 -0.1309
  113MOL0     C15146   4.497   8.789   7.901  0.1085  0.0218  0.8433
  113MOL0     C15147   4.375   8.851   7.924 -0.7689  0.5013 -1.2335
  113MOL0     C15148   4.273   8.784   7.992 -0.3259 -0.7411 -0.5389
  113MOL0     C15149   4.145   8.855   8.032 -0.2145 -0.7241  1.2665
  113MOL0     O15150   4.121   8.953   7.947  0.1140  0.3805  0.1171
  113MOL0     C15151   3.992   9.014   7.949  0.2653  0.4046 -0.1719
  113MOL0     C15152   3.954   9.067   7.826  0.1423 -0.2789 -0.6962
  113MOL0     C15153   3.843   9.150   7.819 -0.4041 -0.0996 -0.8843
  113MOL0     C15154   3.759   9.177   7.930  0.1411  0.6575  0.4174
  113MOL0     O15155   3.656   9.267   7.928 -1.3606 -0.0534 -0.5728
  113MOL0     C15156   3.590   9.304   7.805  0.0387 -0.9493 -0.3308
  113MOL0     C15157   3.461   9.359   7.856 -0.1120 -0.7634 -0.4294
  113MOL0     C15158   3.364   9.257   7.903  0.0845  0.3254  0.2944
  113MOL0     C15159   3.239   9.334   7.961  0.6247 -0.4027 -0.0794
  113MOL0     C15160   3.153   9.404   7.853 -0.1353  0.4421 -0.4447
  113MOL0     C15161   3.048   9.491   7.923  0.0301  0.1241 -0.2384
  113MOL0     C15162   2.936   9.538   7.838 -0.1666 -0.8097  0.6141
  113MOL0     C15163   2.982   9.597   7.701 -1.0036 -0.3475 -0.6233
  113MOL0    Cl15164   2.843   9.638   7.602 -0.0483 -0.0179  0.3420
  113MOL0     C15165   3.791   9.114   8.046 -0.5721  0.0999  0.7437
  113MOL0     C15166   3.911   9.032   8.062  0.3975 -0.4703 -0.1200
  113MOL0     O15167   4.069   8.802   8.107 -0.4922  0.2801 -0.2785
  113MOL0     C15168   4.303   8.658   8.039 -0.3736 -0.3514  0.8002
  113MOL0     C15169   4.429   8.597   8.010 -1.4169 -0.1957  0.2036
  113MOL0     N15170   5.056   8.661   7.659  1.3118 -1.0879  0.5866
  113MOL0     N15171   5.098   8.661   7.533 -0.0014  0.5463  0.2622
  113MOL0     C15172   6.220   8.085   7.348 -1.2162  0.4241  0.3001
  113MOL0     C15173   6.349   8.046   7.317  0.2009  0.1900 -0.5858
  113MOL0     C15174   6.803   7.986   7.354  0.0835  0.5851 -0.8436
  113MOL0     C15175   6.799   7.880   7.267  0.0196  0.1604 -0.3241
  113MOL0     C15176   6.926   7.820   7.222  0.1037  0.3673 -0.1739
  113MOL0     C15177   7.047   7.871   7.269 -0.7012 -0.0655 -0.3562
  113MOL0     O15178   7.166   7.823   7.221 -0.5591  0.4008 -0.0815
  113MOL0     C15179   7.218   7.904   7.110 -0.2282 -0.3562 -0.3619
  113MOL0     C15180   7.357   7.974   7.141  0.1517 -0.5722 -1.5429
  113MOL0     C15181   7.474   7.879   7.142  0.1043  0.4090  0.4675
  113MOL0     C15182   7.610   7.952   7.151  0.3005  0.2020 -0.7540
  113MOL0     C15183   7.635   8.002   7.288 -0.4248 -0.2668  0.0396
  113MOL0     C15184   7.650   8.020   7.405  0.0583  0.3446 -0.4151
  113MOL0     C15185   7.047   7.978   7.349  0.1974 -0.8904 -0.0926
  113MOL0     C15186   6.926   8.034   7.392  0.6363  0.0033 -0.3345
  113MOL0     C15187   6.942   8.146   7.500  0.6023  0.5360  0.5679
  113MOL0     H15188   6.487   8.039   7.619 -0.9068  1.2388  2.1180
  113MOL0     H15189   6.247   8.097   7.680 -1.4389  0.4530 -0.3860
  113MOL0     H15190   6.013   8.278   7.373  0.5625  1.2408  1.4367
  113MOL0     H15191   5.935   8.113   7.365 -2.4804  1.4761 -0.2184
  113MOL0     H15192   5.866   8.314   7.591  3.3617  0.0766 -0.7927
  113MOL0     H15193   5.771   8.170   7.522 -0.9103 -1.1107  0.4876
  113MOL0     H15194   5.774   8.308   7.285  0.7286 -1.9567  1.4661
  113MOL0     H15195   5.817   8.438   7.397 -0.3112  0.7708 -2.3608
  113MOL0     H15196   5.565   8.281   7.390 -0.1358 -0.0932 -3.0560
  113MOL0     H15197   5.592   8.389   7.528 -2.5336  2.9690 -1.5569
  113MOL0     H15198   5.642   8.562   7.375  1.5537 -1.7444  2.4225
  113MOL0     H15199   5.575   8.468   7.237  1.1976  3.3147  0.0531
  113MOL0     H15200   5.431   8.590   7.472  2.1839 -1.0733  0.7533
  113MOL0     H15201   5.398   8.613   7.301  4.0783  1.7745 -0.5275
  113MOL0     H15202   5.346   8.344   7.443 -3.7033 -1.8375  0.0968
  113MOL0     H15203   5.337   8.391   7.274 -2.5399 -1.3035  0.4635
  113MOL0     H15204   5.167   8.562   7.307 -2.1882 -1.5460 -0.0847
  113MOL0     H15205   5.112   8.404   7.368  0.8716 -1.3352  0.6027
  113MOL0     H15206   5.194   8.364   7.661 -0.0311 -0.6518  2.0098
  113MOL0     H15207   5.076   8.382   7.869  2.3107 -0.9325 -1.3628
  113MOL0     H15208   5.164   8.514   7.928  2.4094 -3.4258 -1.4349
  113MOL0     H15209   4.944   8.542   8.034 -1.4109  0.9049 -0.8806
  113MOL0     H15210   4.955   8.674   7.919 -0.5679  0.0949 -4.1694
  113MOL0     H15211   4.846   8.406   7.813 -4.6486 -0.1226 -0.6183
  113MOL0     H15212   4.820   8.563   7.762  0.2534  1.9382  1.5106
  113MOL0     H15213   4.700   8.459   8.029 -0.5991  1.9015  1.5359
  113MOL0     H15214   4.619   8.436   7.876 -1.0038  0.4335  1.7156
  113MOL0     H15215   4.575   8.847   7.851  1.1305 -2.1123 -0.1668
  113MOL0     H15216   4.351   8.947   7.879  2.1687  2.0354  0.2069
  113MOL0     H15217   4.019   9.061   7.740  0.3059 -1.0438 -0.5217
  113MOL0     H15218   3.820   9.207   7.730 -0.7680  0.0508 -0.6950
  113MOL0     H15219   3.642   9.390   7.762 -0.4905 -0.7416 -0.5719
  113MOL0     H15220   3.566   9.230   7.728 -0.2939 -0.1954 -0.9757
  113MOL0     H15221   3.484   9.421   7.943  1.9190  0.2250 -1.5998
  113MOL0     H15222   3.425   9.422   7.775  2.2374  0.5715 -0.5098
  113MOL0     H15223   3.326   9.195   7.822  1.1024  0.4037 -0.2593
  113MOL0     H15224   3.420   9.193   7.972  1.9813  1.0813 -0.4890
  113MOL0     H15225   3.276   9.402   8.039 -1.5469 -1.5692  2.1316
  113MOL0     H15226   3.176   9.260   8.011  1.5157 -0.5748  0.8163
  113MOL0     H15227   3.101   9.325   7.798  0.2210  1.5288 -2.4421
  113MOL0     H15228   3.213   9.461   7.781 -0.7587  2.0698  0.2854
  113MOL0     H15229   3.007   9.437   8.009  2.3013  2.7770  2.7924
  113MOL0     H15230   3.098   9.573   7.975 -2.0104  0.6324  1.0271
  113MOL0     H15231   2.883   9.615   7.895  2.4874  1.0274  0.7987
  113MOL0     H15232   2.865   9.456   7.826  0.9994 -1.5979 -1.4157
  113MOL0     H15233   3.049   9.683   7.715  0.6481 -1.3186 -2.1499
  113MOL0     H15234   3.036   9.523   7.641 -0.9114  0.4932 -1.6045
  113MOL0     H15235   3.721   9.142   8.124 -2.2555  0.4022 -0.8025
  113MOL0     H15236   3.937   8.984   8.156  1.2968 -1.2203 -0.7423
  113MOL0     H15237   4.222   8.602   8.085  0.0642 -2.6891 -1.1094
  113MOL0     H15238   4.448   8.495   8.042  1.3937  0.6500  1.5931
  113MOL0     H15239   6.146   8.100   7.271 -1.0596  1.1004  0.2763
  113MOL0     H15240   6.382   8.014   7.218  0.6532  0.2667 -0.4617
  113MOL0     H15241   6.704   7.841   7.230 -0.1581 -0.6792  0.9650
  113MOL0     H15242   6.927   7.745   7.144  3.0169  0.0844  0.0250
  113MOL0     H15243   7.144   7.982   7.089 -0.8308  0.1353  3.0634
  113MOL0     H15244   7.232   7.843   7.020 -0.1140 -1.9224  0.6748
  113MOL0     H15245   7.347   8.031   7.235 -0.4123  0.8256 -2.4171
  113MOL0     H15246   7.381   8.046   7.062  4.1262  0.3232  0.2410
  113MOL0     H15247   7.461   7.825   7.047 -0.9625  0.3901  0.6062
  113MOL0     H15248   7.476   7.804   7.221  0.9818 -1.2804 -1.0764
  113MOL0     H15249   7.686   7.882   7.114  1.0101  2.4472 -3.9394
  113MOL0     H15250   7.612   8.042   7.089 -1.2144  0.4117 -0.5284
  113MOL0     H15251   7.656   8.032   7.511  0.4872  0.5900 -0.4659
  113MOL0     H15252   7.134   8.034   7.381 -0.9017  0.6878  0.2252
  113MOL0     H15253   6.876   8.131   7.586 -1.8748 -3.2299 -1.6627
  113MOL0     H15254   7.047   8.141   7.529  0.4064 -0.7802  1.1512
  113MOL0     H15255   6.916   8.242   7.455 -1.9015  0.5278  1.7986
  114MOL0     O15256   7.722   8.163   5.287  0.0096  0.2694  0.0084
  114MOL0     C15257   7.747   8.104   5.181  0.5059 -0.2878 -0.8352
  114MOL0     O15258   7.752   7.968   5.172  0.4001 -0.2326  0.3950
  114MOL0     C15259   7.741   7.885   5.287  1.2376  0.1563  0.0585
  114MOL0     C15260   7.844   7.796   5.306  0.3223 -0.3251  0.8268
  114MOL0     C15261   7.846   7.724   5.423  0.2274  0.4762  0.2012
  114MOL0     C15262   7.744   7.733   5.522 -0.1217  0.9420  0.4988
  114MOL0     O15263   7.760   7.651   5.632 -0.0591 -0.3416  0.1756
  114MOL0     C15264   7.675   7.677   5.741 -0.0304  0.5673 -0.2782
  114MOL0     C15265   7.719   7.581   5.849  0.5475  0.5334 -0.3827
  114MOL0     C15266   7.868   7.596   5.900  0.5971  0.9478  0.9216
  114MOL0     C15267   7.894   7.740   5.931 -0.1776 -0.2266 -0.2868
  114MOL0     C15268   8.036   7.769   5.972 -0.1358 -0.1604  0.3853
  114MOL0     C15269   8.129   7.806   5.856 -0.9461  0.0443  0.4657
  114MOL0     C15270   8.273   7.834   5.909  0.0971 -0.0621 -0.7890
  114MOL0     C15271   8.343   7.732   6.002 -0.1528 -0.0497  0.6258
  114MOL0     N15272   8.489   7.779   6.012  0.3811  0.1751 -0.4754
  114MOL0     C15273   8.547   7.857   6.107 -0.4272 -0.3054 -0.5009
  114MOL0     C15274   8.668   7.878   6.062 -0.3404  1.3915  0.1505
  114MOL0     C15275   8.752   7.977   6.134 -0.7223  0.3865 -0.3658
  114MOL0     C15276   8.900   7.981   6.082  0.5067  0.1938 -0.3004
  114MOL0     C15277   8.975   7.853   6.136  0.1785  0.6781  0.9089
  114MOL0     C15278   9.128   7.861   6.101 -0.3778 -0.5480 -0.2666
  114MOL0     O15279   9.178   7.979   6.143  0.1437 -0.6887  0.3156
  114MOL0     C15280   9.312   8.011   6.139 -0.0307 -0.8123  0.2898
  114MOL0     C15281   9.404   7.935   6.062 -0.6549  0.1058  0.2182
  114MOL0     C15282   9.543   7.958   6.068  0.3624  0.7794 -0.1385
  114MOL0     C15283   9.586   8.078   6.120  0.4597  0.7924  0.1327
  114MOL0     C15284   9.736   8.097   6.123  0.5679  0.3074  0.6893
  114MOL0     O15285   9.764   8.218   6.164  0.0359 -0.5937  0.0969
  114MOL0     C15286   9.893   8.239   6.180 -0.2219 -0.1556  0.3955
  114MOL0     C15287   9.977   8.283   6.074 -0.4634 -0.1262  0.4401
  114MOL0     C15288  10.110   8.321   6.097  0.4994 -0.4919  0.2793
  114MOL0     C15289  10.157   8.323   6.231  1.2681  0.4663 -0.3039
  114MOL0     O15290  10.293   8.342   6.255 -0.0580 -0.7982 -0.1146
  114MOL0     C15291  10.350   8.247   6.349  0.2899  0.2045  0.0802
  114MOL0     C15292  10.495   8.263   6.363 -0.4044 -1.1097 -0.5834
  114MOL0     C15293  10.577   8.234   6.237  0.3780 -0.2155  0.9012
  114MOL0     C15294  10.726   8.263   6.246 -0.6174  0.5026  0.3740
  114MOL0     C15295  10.790   8.231   6.115  0.4911  0.2048  0.9160
  114MOL0     C15296  10.928   8.290   6.119  0.4884  0.1242 -0.2699
  114MOL0     C15297  11.013   8.213   6.024 -0.4929 -0.0381 -0.2370
  114MOL0     C15298  11.157   8.261   6.023  0.6614 -0.3412  0.2377
  114MOL0    Cl15299  11.177   8.438   5.957  0.0741  0.3972 -0.4141
  114MOL0     C15300  10.068   8.297   6.332 -0.0196  0.5995  0.0103
  114MOL0     C15301   9.938   8.260   6.309  0.1073  0.7106 -0.9025
  114MOL0     O15302   9.816   8.012   6.086  0.5407  0.6198  0.0539
  114MOL0     C15303   9.496   8.167   6.176  0.3719 -0.2114 -0.4779
  114MOL0     C15304   9.368   8.124   6.200  1.0941  0.1546 -0.0624
  114MOL0     N15305   8.684   7.838   5.935  0.2343 -0.7449  0.2303
  114MOL0     N15306   8.568   7.773   5.900 -0.3573 -1.0645 -0.0121
  114MOL0     C15307   7.637   7.824   5.501  0.4218 -0.0342 -0.8829
  114MOL0     C15308   7.637   7.897   5.380  0.0326  0.2631 -0.2932
  114MOL0     C15309   7.780   8.194   5.072  0.0055  0.5721  0.2124
  114MOL0     C15310   7.867   8.302   5.106 -0.2636  0.6387  0.4932
  114MOL0     C15311   7.929   8.389   5.012 -0.0987  0.7390 -0.3245
  114MOL0     C15312   7.897   8.359   4.871 -0.6408 -0.0406 -0.6361
  114MOL0     O15313   7.940   8.438   4.766 -0.1641 -0.2702 -0.4571
  114MOL0     C15314   8.064   8.501   4.789 -0.0263  0.6050  0.2929
  114MOL0     C15315   8.115   8.554   4.652 -0.3583  0.6317 -0.8548
  114MOL0     C15316   8.242   8.477   4.603  0.7044  0.4602  0.3030
  114MOL0     C15317   8.361   8.496   4.685 -0.0884  0.4556  0.6189
  114MOL0     C15318   8.465   8.397   4.653  0.5424  0.3321 -0.3624
  114MOL0     C15319   8.559   8.316   4.625  0.5373 -0.4555  0.1503
  114MOL0     C15320   7.819   8.249   4.828  0.8604  0.2433 -1.1570
  114MOL0     C15321   7.757   8.163   4.929 -0.0659 -0.2584 -0.9420
  114MOL0     C15322   7.659   8.056   4.883 -0.7706  0.4848  0.1422
  114MOL0     H15323   7.926   7.784   5.235  1.8910 -2.3224  2.8357
  114MOL0     H15324   7.925   7.654   5.447  0.4140  0.4415 -0.4847
  114MOL0     H15325   7.674   7.783   5.768  2.3862  0.5888 -0.0929
  114MOL0     H15326   7.571   7.658   5.715 -0.8916  2.5997  1.3411
  114MOL0     H15327   7.721   7.478   5.812 -1.1386 -0.0083  0.8674
  114MOL0     H15328   7.652   7.590   5.935  1.9920  0.5183  0.7765
  114MOL0     H15329   7.942   7.549   5.834  0.9702 -2.0334  3.2373
  114MOL0     H15330   7.872   7.550   5.999  1.3736  2.0290  1.3966
  114MOL0     H15331   7.887   7.808   5.845  0.4920 -0.7813 -0.7922
  114MOL0     H15332   7.826   7.776   6.008 -2.0667 -0.9629 -1.5415
  114MOL0     H15333   8.027   7.853   6.041 -0.4606  2.2957 -2.4636
  114MOL0     H15334   8.072   7.685   6.033 -0.8675 -0.8756 -0.1399
  114MOL0     H15335   8.131   7.726   5.781 -1.1714  0.3958  0.0787
  114MOL0     H15336   8.097   7.899   5.807 -0.8700  1.6724  3.3099
  114MOL0     H15337   8.273   7.927   5.966  0.3726 -1.0462  0.8975
  114MOL0     H15338   8.345   7.855   5.829  1.2732 -2.7103 -0.5482
  114MOL0     H15339   8.288   7.744   6.095 -2.9010  1.5980 -1.0468
  114MOL0     H15340   8.345   7.638   5.946 -2.1380  2.7401 -5.0129
  114MOL0     H15341   8.511   7.900   6.200  1.6749 -0.7672  0.5846
  114MOL0     H15342   8.705   8.075   6.118 -1.5942 -0.0354 -0.4052
  114MOL0     H15343   8.747   7.966   6.243 -0.3388 -0.4342 -0.4291
  114MOL0     H15344   8.910   7.985   5.973  0.5067  0.4466 -0.2931
  114MOL0     H15345   8.942   8.076   6.116 -2.2173  2.4887 -2.7362
  114MOL0     H15346   8.935   7.759   6.097 -3.1683  2.1942  0.2814
  114MOL0     H15347   8.962   7.839   6.244 -6.8864 -1.1281  0.3310
  114MOL0     H15348   9.132   7.873   5.992  0.3791 -2.4651 -0.4994
  114MOL0     H15349   9.178   7.776   6.149 -2.4090  0.6473  4.5297
  114MOL0     H15350   9.372   7.846   6.008  1.0940 -0.9449  0.8378
  114MOL0     H15351   9.610   7.876   6.044 -0.5930  0.2445 -1.0347
  114MOL0     H15352   9.927   8.288   5.978 -1.2936 -3.3998  0.5788
  114MOL0     H15353  10.175   8.348   6.015  0.7364 -0.2834  0.5350
  114MOL0     H15354  10.308   8.275   6.446  0.3439  1.8611 -0.3339
  114MOL0     H15355  10.325   8.150   6.305  2.4811  0.1571 -1.2074
  114MOL0     H15356  10.509   8.362   6.407  0.8441 -2.3329  2.0148
  114MOL0     H15357  10.526   8.194   6.442  0.2191 -2.1692 -1.7167
  114MOL0     H15358  10.568   8.129   6.207  0.1604  0.4189 -1.4415
  114MOL0     H15359  10.550   8.301   6.155  1.7147  1.5092  1.8023
  114MOL0     H15360  10.765   8.206   6.332  1.4805 -3.4698 -2.8397
  114MOL0     H15361  10.727   8.369   6.273  0.6557  0.6282 -0.0732
  114MOL0     H15362  10.734   8.283   6.037 -1.6575 -2.1771  0.7314
  114MOL0     H15363  10.783   8.123   6.096 -2.8677  0.5030 -0.3573
  114MOL0     H15364  10.921   8.393   6.081 -0.9670  0.0814 -0.1732
  114MOL0     H15365  10.958   8.284   6.224 -0.9351 -0.1178  0.1563
  114MOL0     H15366  10.979   8.201   5.920 -2.2481  2.2890 -0.0303
  114MOL0     H15367  11.005   8.111   6.061 -3.5768 -0.2063 -1.0717
  114MOL0     H15368  11.213   8.270   6.116  2.9044  1.6035 -1.1849
  114MOL0     H15369  11.215   8.192   5.961  0.6427 -0.1223 -0.0294
  114MOL0     H15370  10.100   8.313   6.434  0.1400  0.0398  0.0517
  114MOL0     H15371   9.871   8.239   6.392 -1.0128 -1.9456 -2.3318
  114MOL0     H15372   9.538   8.258   6.219  4.0326 -2.6418  1.7237
  114MOL0     H15373   9.308   8.182   6.270  3.4057 -0.4989  2.6424
  114MOL0     H15374   7.568   7.853   5.579 -3.0848 -0.9553 -3.4320
  114MOL0     H15375   7.556   7.966   5.358  0.0195  0.4819  0.4159
  114MOL0     H15376   7.892   8.339   5.205 -0.7289  1.8332  0.1795
  114MOL0     H15377   7.985   8.478   5.037  2.2936 -0.7416 -0.1237
  114MOL0     H15378   8.137   8.427   4.823  0.6920  2.6038  3.5244
  114MOL0     H15379   8.051   8.581   4.863 -2.8350  0.4707  0.0527
  114MOL0     H15380   8.119   8.662   4.666 -2.0524  0.4712  1.3610
  114MOL0     H15381   8.042   8.539   4.572 -0.1488 -1.1121 -0.7578
  114MOL0     H15382   8.265   8.494   4.498  4.2003 -1.2678  0.6566
  114MOL0     H15383   8.223   8.369   4.608 -0.5652  0.7176  3.3897
  114MOL0     H15384   8.394   8.597   4.659 -3.9818  0.9824 -3.2558
  114MOL0     H15385   8.352   8.490   4.794  0.1630  0.5410  0.6453
  114MOL0     H15386   8.630   8.243   4.594 -0.5564 -2.3045  1.7756
  114MOL0     H15387   7.799   8.247   4.722 -2.0551  0.7695 -0.6917
  114MOL0     H15388   7.558   8.098   4.896 -2.0783 -2.0756 -0.9596
  114MOL0     H15389   7.682   8.032   4.779 -0.7865  2.0931 -0.2468
  114MOL0     H15390   7.667   7.961   4.937 -0.0638 -1.0574 -2.5154
  115MOL0     O15391   2.913   2.321   8.883 -0.8843 -0.5902  0.0232
  115MOL0     C15392   2.913   2.215   8.944 -0.7426  0.6701 -0.0684
  115MOL0     O15393   3.010   2.165   9.022 -0.2552 -0.3451 -0.2171
  115MOL0     C15394   3.113   2.232   9.079  0.5713  0.3093 -0.1515
  115MOL0     C15395   3.235   2.168   9.094 -0.2209  0.0936  0.2224
  115MOL0     C15396   3.337   2.236   9.155  0.3399 -0.1231  0.4673
  115MOL0     C15397   3.332   2.372   9.205  0.4788 -0.7294 -0.3184
  115MOL0     O15398   3.435   2.437   9.271  0.4709  0.2300 -0.4178
  115MOL0     C15399   3.539   2.353   9.322 -0.4149 -0.0184 -0.4276
  115MOL0     C15400   3.632   2.447   9.403  0.3125  0.4867 -0.1550
  115MOL0     C15401   3.589   2.518   9.536  0.3026  0.4699  0.5661
  115MOL0     C15402   3.582   2.428   9.660  0.5287 -0.3625  0.4360
  115MOL0     C15403   3.715   2.395   9.738  0.4180 -0.1617 -0.3255
  115MOL0     C15404   3.807   2.282   9.674  0.0816 -0.1826  0.0729
  115MOL0     C15405   3.903   2.236   9.788  0.1259 -0.3894 -0.0819
  115MOL0     C15406   4.041   2.177   9.751  0.3982 -0.6006  0.4332
  115MOL0     N15407   4.117   2.143   9.875 -0.0659 -0.3434 -0.5627
  115MOL0     C15408   4.106   2.037   9.961 -0.2008  0.0070 -0.8287
  115MOL0     C15409   4.226   2.006  10.017  0.5024 -0.1831 -1.5798
  115MOL0     C15410   4.237   1.909  10.134  0.4672  0.4247  0.1549
  115MOL0     C15411   4.242   1.765  10.091  0.4611  0.6962 -0.5098
  115MOL0     C15412   4.383   1.749  10.030 -0.3990  0.4485  0.0794
  115MOL0     C15413   4.387   1.621   9.956  0.8848  0.5544  0.0470
  115MOL0     O15414   4.508   1.626   9.870  0.6495 -1.0236  0.4589
  115MOL0     C15415   4.632   1.585   9.899 -0.3501 -0.4093  0.1984
  115MOL0     C15416   4.672   1.565  10.032 -0.3744  0.0104 -0.1367
  115MOL0     C15417   4.805   1.558  10.062 -0.9551  0.0947  0.2273
  115MOL0     C15418   4.905   1.562   9.967 -0.9900  0.3701  0.2713
  115MOL0     C15419   5.047   1.544  10.005 -0.0469  1.3035  1.0645
  115MOL0     O15420   5.085   1.516  10.131  0.6494 -0.5237  0.1212
  115MOL0     C15421   5.215   1.536  10.163 -0.9795  0.2872 -0.4995
  115MOL0     C15422   5.269   1.663  10.168 -0.9864 -0.1235  0.1356
  115MOL0     C15423   5.405   1.679  10.203  0.7101 -0.0314 -0.2486
  115MOL0     C15424   5.483   1.578  10.246  0.0843  0.9204  0.0931
  115MOL0     O15425   5.617   1.583  10.289 -0.1064  0.5278  0.4636
  115MOL0     C15426   5.686   1.700  10.259  0.5750 -0.6670  0.6196
  115MOL0     C15427   5.837   1.685  10.291  0.2958 -0.1605 -0.8340
  115MOL0     C15428   5.906   1.586  10.199 -0.1362  0.9042 -0.2034
  115MOL0     C15429   6.031   1.550  10.275  0.6561  0.3266 -0.7165
  115MOL0     C15430   6.121   1.450  10.190 -0.1859 -0.9281 -0.3357
  115MOL0     C15431   6.245   1.394  10.266 -0.1209 -0.3486  0.7179
  115MOL0     C15432   6.323   1.296  10.176  0.3127 -0.5125 -0.2833
  115MOL0     C15433   6.449   1.228  10.237 -0.1777 -0.1651 -0.5525
  115MOL0    Cl15434   6.428   1.157  10.407  0.2135  0.5356  0.2444
  115MOL0     C15435   5.427   1.448  10.238  0.0488  0.1627  0.4491
  115MOL0     C15436   5.293   1.432  10.201 -0.5241 -0.7606 -0.4351
  115MOL0     O15437   5.117   1.551   9.909 -0.6223 -0.3733 -0.6246
  115MOL0     C15438   4.861   1.571   9.833 -0.8581 -0.5612  0.0796
  115MOL0     C15439   4.721   1.583   9.800  0.2467  0.4382 -0.2066
  115MOL0     N15440   4.311   2.105   9.978 -0.0577  0.1659 -0.4447
  115MOL0     N15441   4.254   2.173   9.890  0.3378 -0.0953  1.0127
  115MOL0     C15442   3.202   2.437   9.185 -0.1418 -0.0489  0.2706
  115MOL0     C15443   3.100   2.371   9.121 -0.1968  0.5338  0.7929
  115MOL0     C15444   2.789   2.138   8.929  0.1911 -0.7011  0.8869
  115MOL0     C15445   2.716   2.123   9.044 -0.1626  0.6838 -0.9879
  115MOL0     C15446   2.591   2.067   9.043 -0.8192  0.0575 -0.1003
  115MOL0     C15447   2.543   2.012   8.923  0.3387 -0.2836 -0.4429
  115MOL0     O15448   2.422   1.954   8.931  0.1487  0.0191 -0.1704
  115MOL0     C15449   2.333   1.970   8.816  0.0606  0.8896 -0.3249
  115MOL0     C15450   2.201   1.925   8.878  0.2094  0.7548  0.8275
  115MOL0     C15451   2.093   1.926   8.764  0.2087  0.0209 -0.1252
  115MOL0     C15452   1.998   1.804   8.758  0.3466 -0.4792  0.7003
  115MOL0     C15453   2.065   1.679   8.714  0.5808 -0.1075 -0.0259
  115MOL0     C15454   2.104   1.574   8.672 -0.8329 -0.0383  0.4989
  115MOL0     C15455   2.623   2.015   8.809 -0.0043  0.3013  0.5808
  115MOL0     C15456   2.754   2.077   8.805  0.4442 -0.7630  0.0308
  115MOL0     C15457   2.831   2.096   8.677  0.7093 -0.7350 -0.2214
  115MOL0     H15458   3.231   2.062   9.071 -2.5355  0.0219  0.7282
  115MOL0     H15459   3.427   2.179   9.172  1.1643  0.3495 -1.8409
  115MOL0     H15460   3.490   2.276   9.382  1.5716 -0.3169  0.8741
  115MOL0     H15461   3.596   2.307   9.241 -0.9217 -0.1412 -0.7245
  115MOL0     H15462   3.663   2.530   9.339  2.2270  3.3959  4.0434
  115MOL0     H15463   3.728   2.396   9.406  0.2610  0.2634 -1.5134
  115MOL0     H15464   3.486   2.551   9.518  1.0238  1.2102 -2.8627
  115MOL0     H15465   3.647   2.606   9.564 -0.0155  0.8736 -0.0145
  115MOL0     H15466   3.523   2.472   9.741  1.4661 -0.9545  1.4837
  115MOL0     H15467   3.528   2.337   9.633  1.6617 -0.6024 -1.1276
  115MOL0     H15468   3.787   2.476   9.750  1.6861 -1.3601  0.4512
  115MOL0     H15469   3.689   2.351   9.835  2.5023 -1.9204 -0.4803
  115MOL0     H15470   3.742   2.200   9.641 -0.8252 -0.5540  2.5359
  115MOL0     H15471   3.857   2.306   9.581 -3.1299  0.3331 -1.6792
  115MOL0     H15472   3.854   2.171   9.862 -0.2362  1.8457  1.7533
  115MOL0     H15473   3.929   2.315   9.859  2.7581 -4.3824  3.9757
  115MOL0     H15474   4.025   2.095   9.682 -2.0890 -0.3366  0.6034
  115MOL0     H15475   4.102   2.243   9.689 -0.6882 -0.6580 -0.7339
  115MOL0     H15476   4.016   1.984   9.991  1.6734 -1.6521  2.4081
  115MOL0     H15477   4.323   1.940  10.194  0.3516 -1.2710  1.2685
  115MOL0     H15478   4.146   1.910  10.194 -0.8486 -1.0452 -1.6799
  115MOL0     H15479   4.239   1.693  10.174 -1.4134  1.8003  0.4510
  115MOL0     H15480   4.162   1.737  10.023 -0.2999  0.6731  0.3723
  115MOL0     H15481   4.457   1.740  10.110 -0.8497  0.2365  0.4802
  115MOL0     H15482   4.402   1.823   9.952  0.0150 -2.4304 -2.7402
  115MOL0     H15483   4.297   1.602   9.898 -0.4384  1.1401  1.8027
  115MOL0     H15484   4.394   1.544  10.033 -2.0368  0.7201  0.5713
  115MOL0     H15485   4.609   1.585  10.118  0.0563 -2.7104  0.9168
  115MOL0     H15486   4.850   1.553  10.161 -0.4360 -4.8831  0.0046
  115MOL0     H15487   5.217   1.754  10.142  0.6208  0.3040 -1.8231
  115MOL0     H15488   5.440   1.782  10.201 -2.7962  1.3610  2.1409
  115MOL0     H15489   5.673   1.732  10.155  3.0708 -1.1422  0.0759
  115MOL0     H15490   5.642   1.782  10.316 -1.9809 -0.7859 -1.0087
  115MOL0     H15491   5.878   1.782  10.261 -0.2715  0.8600  1.4257
  115MOL0     H15492   5.848   1.667  10.398  0.7643  0.3444 -0.7906
  115MOL0     H15493   5.858   1.490  10.175  1.1045  0.5258 -1.2679
  115MOL0     H15494   5.924   1.635  10.103  0.2461  1.6047  0.2180
  115MOL0     H15495   6.011   1.499  10.369  1.1009  0.8149 -0.3456
  115MOL0     H15496   6.091   1.640  10.296  2.7582 -1.2188  0.2339
  115MOL0     H15497   6.150   1.516  10.108  0.1089  2.7998  2.5041
  115MOL0     H15498   6.056   1.371  10.151  0.2703 -0.2546 -2.5468
  115MOL0     H15499   6.311   1.479  10.288  0.0048  0.8144 -3.3425
  115MOL0     H15500   6.214   1.346  10.359 -2.0142 -0.2452  0.1804
  115MOL0     H15501   6.352   1.339  10.080  1.9002 -1.9700 -0.5039
  115MOL0     H15502   6.250   1.218  10.149  1.2970 -0.6902 -2.6831
  115MOL0     H15503   6.472   1.145  10.169 -0.4780  1.4082 -2.6641
  115MOL0     H15504   6.521   1.310  10.239 -2.7641  2.2572  1.6347
  115MOL0     H15505   5.481   1.359  10.271 -2.4752 -0.6148  2.8230
  115MOL0     H15506   5.249   1.333  10.194 -0.6951 -0.5872 -2.2007
  115MOL0     H15507   4.932   1.566   9.751  1.1407  0.1832  1.6931
  115MOL0     H15508   4.686   1.593   9.697  0.0726 -6.1692 -1.2281
  115MOL0     H15509   3.189   2.540   9.218  0.9896  0.0829  0.3428
  115MOL0     H15510   3.003   2.419   9.118  0.8665  2.8781  1.7279
  115MOL0     H15511   2.749   2.165   9.138 -0.8349 -2.3272  0.7272
  115MOL0     H15512   2.531   2.074   9.133 -1.6425  0.9460 -0.6950
  115MOL0     H15513   2.364   1.909   8.730  3.3528  2.1646 -0.2010
  115MOL0     H15514   2.332   2.073   8.779 -1.2673  0.9870 -0.0380
  115MOL0     H15515   2.171   1.994   8.957 -0.5433  1.5552 -0.1194
  115MOL0     H15516   2.199   1.822   8.915 -0.8822  0.9408  1.3385
  115MOL0     H15517   2.143   1.936   8.667 -0.3827  2.9369 -0.2137
  115MOL0     H15518   2.020   2.007   8.772 -1.0354 -1.0377 -0.2192
  115MOL0     H15519   1.954   1.787   8.857  0.4348 -1.6952  0.5520
  115MOL0     H15520   1.911   1.814   8.693  0.9364 -1.1084 -0.2226
  115MOL0     H15521   2.114   1.474   8.637 -2.6096  0.5239 -1.9174
  115MOL0     H15522   2.583   1.957   8.726 -0.1552  3.6827 -1.9489
  115MOL0     H15523   2.918   2.029   8.671 -0.0780 -1.8973  0.8378
  115MOL0     H15524   2.758   2.072   8.600  1.4362 -2.1988 -0.4829
  115MOL0     H15525   2.861   2.201   8.668 -1.7981  0.0614 -0.0083
  116MOL0     O15526   0.923   2.063   6.266  0.1784 -0.3400  0.3532
  116MOL0     C15527   0.989   1.984   6.203  0.3092 -0.2712  0.3421
  116MOL0     O15528   1.126   1.996   6.193 -0.5345  0.2494  0.6231
  116MOL0     C15529   1.196   2.090   6.263  0.2423 -0.3682  0.1883
  116MOL0     C15530   1.261   2.045   6.383  0.3995 -0.8129 -0.3013
  116MOL0     C15531   1.334   2.141   6.449  0.6797 -0.0643  0.0719
  116MOL0     C15532   1.365   2.271   6.391  0.8265 -1.0768 -0.0986
  116MOL0     O15533   1.451   2.361   6.448 -0.5321 -0.7248  0.3263
  116MOL0     C15534   1.399   2.445   6.553 -0.0556  0.9649 -0.0210
  116MOL0     C15535   1.515   2.516   6.615 -0.3048 -0.3710 -0.3838
  116MOL0     C15536   1.586   2.626   6.520  0.9309  0.1441  0.6269
  116MOL0     C15537   1.714   2.679   6.573  1.3897 -0.6196 -0.8533
  116MOL0     C15538   1.788   2.763   6.468 -0.0421 -0.9898 -0.2292
  116MOL0     C15539   1.712   2.894   6.448 -0.2989 -0.1456 -0.1833
  116MOL0     C15540   1.804   2.996   6.383  0.2245  0.7043  0.0119
  116MOL0     C15541   1.820   2.973   6.234  0.5561 -0.1266  0.1474
  116MOL0     N15542   1.892   3.083   6.169  0.3259  0.0358 -0.1331
  116MOL0     C15543   2.009   3.131   6.220  0.1874  0.3116 -1.1094
  116MOL0     C15544   2.041   3.223   6.127 -1.2944 -1.1008 -0.9414
  116MOL0     C15545   2.152   3.325   6.135  0.3483 -0.3359  0.4212
  116MOL0     C15546   2.203   3.374   6.000 -0.3750 -1.1827  0.6420
  116MOL0     C15547   2.313   3.487   6.033  0.0419  0.3423  0.4167
  116MOL0     C15548   2.388   3.534   5.911  0.2124  0.7881 -0.3291
  116MOL0     O15549   2.307   3.585   5.807  0.1234 -0.3674  0.2701
  116MOL0     C15550   2.385   3.640   5.711 -0.2116  0.6020 -0.1245
  116MOL0     C15551   2.426   3.772   5.716  0.4057  0.3218 -0.4243
  116MOL0     C15552   2.510   3.820   5.616  0.4670 -0.4729 -0.3445
  116MOL0     C15553   2.555   3.746   5.509  0.1520 -0.3538  0.9085
  116MOL0     C15554   2.648   3.807   5.410 -0.9158 -0.0039  0.3372
  116MOL0     O15555   2.693   3.934   5.426 -0.7253 -0.1707 -0.1156
  116MOL0     C15556   2.761   4.003   5.326  0.2195  0.1167 -0.0445
  116MOL0     C15557   2.713   4.130   5.304  0.0207  0.2236  1.0944
  116MOL0     C15558   2.773   4.204   5.194  0.3667  0.5522 -0.2593
  116MOL0     C15559   2.882   4.160   5.127 -0.4435  0.3582 -0.2101
  116MOL0     O15560   2.918   4.238   5.016  0.4532  0.2185 -0.5196
  116MOL0     C15561   3.060   4.252   5.003  0.1415 -0.3908  0.7276
  116MOL0     C15562   3.135   4.345   5.105 -0.1859  0.1689  0.6448
  116MOL0     C15563   3.074   4.494   5.100  0.2698  0.2276 -0.4244
  116MOL0     C15564   3.187   4.588   5.143  0.8098  0.4520  0.0424
  116MOL0     C15565   3.128   4.726   5.171  0.0094 -0.0017 -0.4764
  116MOL0     C15566   3.242   4.827   5.194 -0.2781 -0.2781  0.2195
  116MOL0     C15567   3.198   4.975   5.223 -0.4965 -0.1380  0.3274
  116MOL0     C15568   3.321   5.076   5.218  0.6433 -0.0145  0.1024
  116MOL0    Cl15569   3.352   5.127   5.389  0.0462  0.2249  0.2152
  116MOL0     C15570   2.942   4.040   5.166 -0.0856 -0.2734 -0.0300
  116MOL0     C15571   2.878   3.955   5.252  0.7800  0.1671 -0.1304
  116MOL0     O15572   2.673   3.739   5.312  0.6796  0.6142  0.0018
  116MOL0     C15573   2.509   3.612   5.502  0.8912 -0.5806  0.5692
  116MOL0     C15574   2.432   3.565   5.606  0.1955 -0.3176 -0.1400
  116MOL0     N15575   1.953   3.220   6.022 -0.2892 -0.7364 -0.3013
  116MOL0     N15576   1.876   3.133   6.040  0.9830 -0.3926 -0.0640
  116MOL0     C15577   1.302   2.312   6.268  0.4036 -0.3662 -0.8229
  116MOL0     C15578   1.219   2.215   6.210  0.1692 -0.0398  0.3399
  116MOL0     C15579   0.921   1.866   6.147  0.6549  0.2538  0.1450
  116MOL0     C15580   0.824   1.798   6.224  0.1866  0.2686 -0.8194
  116MOL0     C15581   0.749   1.694   6.170  0.1357 -0.9209 -0.3022
  116MOL0     C15582   0.759   1.665   6.030  0.2707 -0.3798 -0.6034
  116MOL0     O15583   0.670   1.589   5.963  0.3210  0.3358  0.2773
  116MOL0     C15584   0.564   1.523   6.028  0.7199  0.1008  0.0700
  116MOL0     C15585   0.481   1.431   5.927  0.0671  0.3281 -0.1757
  116MOL0     C15586   0.437   1.504   5.796  0.2404 -0.8853  0.4109
  116MOL0     C15587   0.312   1.447   5.732 -0.1426 -0.4994 -0.4094
  116MOL0     C15588   0.339   1.319   5.669  0.6651  0.0362 -0.0662
  116MOL0     C15589   0.366   1.211   5.622 -0.2938 -0.5112 -0.7548
  116MOL0     C15590   0.857   1.732   5.958 -0.9044  0.0360 -0.1930
  116MOL0     C15591   0.947   1.822   6.011  0.5581 -0.4347 -0.3486
  116MOL0     C15592   1.056   1.873   5.923 -0.5129  0.0658 -0.1828
  116MOL0     H15593   1.239   1.947   6.423  0.1690 -0.2220  1.1046
  116MOL0     H15594   1.362   2.122   6.552 -1.3693 -0.2178  0.6482
  116MOL0     H15595   1.324   2.513   6.512  1.1653  1.7900 -0.9443
  116MOL0     H15596   1.348   2.380   6.625  1.4261 -0.2432 -0.0164
  116MOL0     H15597   1.598   2.454   6.648  0.4209  0.8029  0.0619
  116MOL0     H15598   1.472   2.566   6.702  1.3839  0.0238  0.2575
  116MOL0     H15599   1.520   2.710   6.494 -1.2309 -2.2280 -2.2505
  116MOL0     H15600   1.601   2.565   6.431  0.6143 -0.5094  1.0188
  116MOL0     H15601   1.695   2.751   6.654  1.1703 -1.3287 -0.2579
  116MOL0     H15602   1.782   2.608   6.621  2.0158 -0.5863 -1.6892
  116MOL0     H15603   1.884   2.793   6.512 -1.2934  0.1853  1.9206
  116MOL0     H15604   1.808   2.716   6.372 -3.5601 -1.0287 -1.0755
  116MOL0     H15605   1.622   2.879   6.387  0.3205 -1.0748 -0.8869
  116MOL0     H15606   1.679   2.931   6.546 -1.0048 -3.0156  0.7510
  116MOL0     H15607   1.904   2.997   6.428  2.2043  0.5779 -3.9602
  116MOL0     H15608   1.773   3.101   6.392 -0.3337  0.6824 -1.3635
  116MOL0     H15609   1.864   2.874   6.218 -0.7927 -0.7083 -0.1226
  116MOL0     H15610   1.725   2.960   6.181  2.4637  0.3004 -3.7055
  116MOL0     H15611   2.035   3.113   6.324 -2.1763  1.9247 -0.1405
  116MOL0     H15612   2.097   3.406   6.186 -1.9670 -0.3287 -1.8645
  116MOL0     H15613   2.236   3.302   6.201  0.4091  0.1267  0.5159
  116MOL0     H15614   2.238   3.292   5.936  0.3915  0.8845 -1.7116
  116MOL0     H15615   2.129   3.417   5.934 -0.1783 -0.8856  0.6117
  116MOL0     H15616   2.381   3.433   6.099 -1.7184 -3.9326 -0.9765
  116MOL0     H15617   2.258   3.573   6.072  1.3850  2.2826 -1.6528
  116MOL0     H15618   2.425   3.442   5.865 -0.6669 -0.1442  0.7785
  116MOL0     H15619   2.475   3.596   5.936  1.5416 -1.8631  2.2030
  116MOL0     H15620   2.400   3.843   5.794  0.3834 -0.9582  0.7563
  116MOL0     H15621   2.545   3.923   5.625  3.0613 -1.2651 -0.3376
  116MOL0     H15622   2.620   4.169   5.343 -1.9818 -0.5352 -2.4665
  116MOL0     H15623   2.718   4.295   5.175  1.6167  1.5787  0.8777
  116MOL0     H15624   3.121   4.162   5.003  1.2811  0.3373 -0.4911
  116MOL0     H15625   3.071   4.308   4.910  1.5221 -0.1310  1.0386
  116MOL0     H15626   3.129   4.301   5.204  1.3560 -2.1266 -0.2120
  116MOL0     H15627   3.237   4.355   5.066 -0.9278  0.7051 -1.3199
  116MOL0     H15628   3.036   4.514   5.000 -1.8311 -1.9650 -0.1621
  116MOL0     H15629   2.986   4.496   5.166  0.2481 -1.2746 -0.3723
  116MOL0     H15630   3.271   4.586   5.073 -0.2894 -1.7636 -1.3153
  116MOL0     H15631   3.245   4.553   5.229  0.4858  1.9017  0.8829
  116MOL0     H15632   3.069   4.734   5.263  0.1117 -4.2739  0.1571
  116MOL0     H15633   3.070   4.751   5.082  2.4305 -1.3638 -2.5425
  116MOL0     H15634   3.300   4.790   5.278  0.3335  0.9215  0.3463
  116MOL0     H15635   3.300   4.818   5.101  2.0474  3.0188  1.1652
  116MOL0     H15636   3.140   4.962   5.315 -2.6161 -0.6298 -1.0166
  116MOL0     H15637   3.128   5.004   5.145 -1.9043 -0.8214  1.2974
  116MOL0     H15638   3.416   5.043   5.176  0.1674  2.5171 -3.3651
  116MOL0     H15639   3.296   5.164   5.159  0.9156  0.0308  0.0556
  116MOL0     H15640   3.032   3.996   5.123  0.4007  0.8512 -0.2036
  116MOL0     H15641   2.906   3.853   5.277  5.2815  1.5649  1.4878
  116MOL0     H15642   2.527   3.549   5.416  1.7673  0.8923 -0.3756
  116MOL0     H15643   2.406   3.459   5.605 -0.6000 -0.1283 -0.9275
  116MOL0     H15644   1.326   2.407   6.222 -1.4164 -0.2641 -1.6336
  116MOL0     H15645   1.179   2.256   6.118 -3.2964  1.6463  2.4141
  116MOL0     H15646   0.819   1.823   6.329  2.7475 -1.0941 -0.3076
  116MOL0     H15647   0.675   1.647   6.234  2.0726  1.2308  3.9289
  116MOL0     H15648   0.498   1.594   6.078  0.7026 -0.0792  0.3071
  116MOL0     H15649   0.604   1.458   6.107  2.1868  0.1826 -0.5762
  116MOL0     H15650   0.391   1.394   5.978 -0.1311 -0.3982 -1.0224
  116MOL0     H15651   0.541   1.347   5.891 -2.5042 -1.5611 -0.3946
  116MOL0     H15652   0.519   1.510   5.725  0.7174 -0.4952  0.9886
  116MOL0     H15653   0.405   1.606   5.819  1.5998 -0.1800 -0.6853
  116MOL0     H15654   0.239   1.417   5.808 -0.3510 -1.2671 -0.9000
  116MOL0     H15655   0.252   1.511   5.668 -2.1417 -2.5643 -0.7355
  116MOL0     H15656   0.405   1.119   5.584 -3.0130 -1.5392 -1.3173
  116MOL0     H15657   0.876   1.708   5.854  2.5620  1.4271 -0.0379
  116MOL0     H15658   1.067   1.981   5.935 -0.7462  0.2673 -1.6549
  116MOL0     H15659   1.152   1.821   5.933  1.3762  3.3707  0.4040
  116MOL0     H15660   1.044   1.857   5.816  0.7702  0.0990 -0.3485
  117MOL0     O15661   9.459   0.693   7.516  0.3509 -0.2909  0.2157
  117MOL0     C15662   9.477   0.789   7.581  0.3116 -0.3941  0.1523
  117MOL0     O15663   9.603   0.861   7.597  0.1937 -0.0809  0.3961
  117MOL0     C15664   9.725   0.803   7.563 -0.0619  0.2251 -0.7456
  117MOL0     C15665   9.751   0.662   7.532 -0.2194  0.2223  0.1569
  117MOL0     C15666   9.882   0.621   7.510 -0.6026  0.2250  0.3210
  117MOL0     C15667   9.989   0.712   7.505  0.6857  0.3286 -0.2074
  117MOL0     O15668  10.111   0.662   7.475 -0.4554  0.4749  0.1769
  117MOL0     C15669  10.197   0.760   7.415  0.4811  0.6813  0.2830
  117MOL0     C15670  10.157   0.781   7.270 -0.8858 -0.9101  0.0071
  117MOL0     C15671  10.262   0.877   7.205  0.9993  0.0169  0.0588
  117MOL0     C15672  10.232   1.017   7.249 -0.3860 -0.4310 -0.1419
  117MOL0     C15673  10.320   1.126   7.185  0.3874  0.8037  0.4982
  117MOL0     C15674  10.273   1.268   7.217 -0.4987  0.3322 -0.3426
  117MOL0     C15675  10.323   1.379   7.122  0.1235  0.0521  0.4569
  117MOL0     C15676  10.479   1.390   7.137  0.0664  0.1182 -0.2979
  117MOL0     N15677  10.551   1.483   7.050  0.3711 -0.1970 -0.7412
  117MOL0     C15678  10.689   1.488   7.051 -0.2421  1.1391 -0.2905
  117MOL0     C15679  10.713   1.599   6.979 -0.8825 -0.6390 -0.2659
  117MOL0     C15680  10.855   1.659   6.962 -0.1626 -0.3433  0.2000
  117MOL0     C15681  10.892   1.656   6.808  0.5045 -0.0222 -0.4096
  117MOL0     C15682  10.938   1.519   6.770  0.1576 -0.1381 -0.1523
  117MOL0     C15683  11.052   1.506   6.664  0.0842  0.2274  0.0137
  117MOL0     O15684  11.163   1.562   6.733 -0.4085  0.4698  0.3631
  117MOL0     C15685  11.286   1.497   6.735 -0.2013  0.2287  0.4560
  117MOL0     C15686  11.329   1.375   6.672  0.0917  0.4473  0.5757
  117MOL0     C15687  11.461   1.328   6.685 -0.5964 -0.1797 -0.3315
  117MOL0     C15688  11.554   1.396   6.757 -0.8582  0.3909  0.2610
  117MOL0     C15689  11.689   1.336   6.775 -1.0545  0.6232 -0.4828
  117MOL0     O15690  11.705   1.202   6.783 -0.4343 -0.1326  0.1334
  117MOL0     C15691  11.832   1.142   6.776 -0.0549 -0.1078  0.1306
  117MOL0     C15692  11.918   1.173   6.881 -0.6295 -0.2170  0.0273
  117MOL0     C15693  12.046   1.117   6.880 -0.2610 -0.9207  0.6202
  117MOL0     C15694  12.084   1.034   6.776  0.3167  0.5573 -0.5724
  117MOL0     O15695  12.192   0.963   6.756 -0.5261 -0.6541  0.4029
  117MOL0     C15696  12.305   0.974   6.840  0.4301 -0.2193 -0.0672
  117MOL0     C15697  12.304   0.904   6.980  0.1411  0.0866 -0.2383
  117MOL0     C15698  12.299   0.754   6.945 -0.5259 -0.0094 -0.3133
  117MOL0     C15699  12.307   0.670   7.080  0.9081 -0.2065 -0.2557
  117MOL0     C15700  12.437   0.682   7.156  0.0448 -0.2807  1.2521
  117MOL0     C15701  12.558   0.616   7.091  0.3834  0.9594  0.8085
  117MOL0     C15702  12.686   0.650   7.163  0.2874  0.5545 -0.5780
  117MOL0     C15703  12.799   0.569   7.089  0.0421  0.0618  0.5177
  117MOL0    Cl15704  12.948   0.567   7.178  0.4420 -0.5237 -0.2055
  117MOL0     C15705  11.993   1.008   6.672 -0.6082  0.5521 -0.2798
  117MOL0     C15706  11.870   1.064   6.668 -0.2803 -0.3262  0.0780
  117MOL0     O15707  11.778   1.411   6.780 -0.0435 -0.4804  0.1952
  117MOL0     C15708  11.512   1.522   6.801  0.1567 -0.3458  1.0000
  117MOL0     C15709  11.383   1.570   6.794 -0.2516  0.7313  0.4074
  117MOL0     N15710  10.595   1.658   6.945  0.5143 -0.1494 -0.0480
  117MOL0     N15711  10.501   1.593   6.989 -0.5750  0.6616  0.0337
  117MOL0     C15712   9.964   0.848   7.538  0.5073  0.3786 -0.5112
  117MOL0     C15713   9.835   0.889   7.571  0.0631  0.4439 -0.0303
  117MOL0     C15714   9.366   0.854   7.656  0.4551  0.4851  0.3962
  117MOL0     C15715   9.393   0.932   7.772 -0.7778  0.0214 -0.3534
  117MOL0     C15716   9.300   0.975   7.852  0.3603 -0.4943 -0.1600
  117MOL0     C15717   9.163   0.963   7.820 -0.1363 -0.2718 -0.0345
  117MOL0     O15718   9.065   1.021   7.892 -0.4163  0.4626  0.2900
  117MOL0     C15719   9.069   1.023   8.042  0.4642  0.3458  0.1604
  117MOL0     C15720   9.067   0.871   8.091 -0.1332 -0.6006  0.2486
  117MOL0     C15721   9.092   0.847   8.239 -0.5568 -0.0846  1.3825
  117MOL0     C15722   9.229   0.897   8.291  0.7193 -0.3820 -0.4588
  117MOL0     C15723   9.317   0.795   8.322  0.2743  0.1200 -0.0062
  117MOL0     C15724   9.388   0.693   8.343 -0.0337 -0.9106 -0.1821
  117MOL0     C15725   9.132   0.889   7.705 -0.5398  0.7439  0.3793
  117MOL0     C15726   9.227   0.833   7.623 -0.2875 -0.2145 -0.7875
  117MOL0     C15727   9.173   0.771   7.500 -0.1769  0.1342 -0.2903
  117MOL0     H15728   9.673   0.587   7.532  0.6785 -0.8069 -2.5276
  117MOL0     H15729   9.903   0.514   7.511  2.1495  0.6795 -0.5673
  117MOL0     H15730  10.213   0.857   7.463  0.8754  0.3819  0.7807
  117MOL0     H15731  10.297   0.716   7.429 -0.5567 -1.2659  2.1971
  117MOL0     H15732  10.054   0.818   7.270 -1.3997 -2.1595 -2.1139
  117MOL0     H15733  10.152   0.689   7.211  1.9565 -0.9549 -0.3025
  117MOL0     H15734  10.249   0.881   7.097 -2.0092  1.3628  0.3754
  117MOL0     H15735  10.365   0.848   7.230  1.5163  1.1627 -0.6303
  117MOL0     H15736  10.136   1.051   7.211 -1.1234 -0.2793  1.7346
  117MOL0     H15737  10.241   1.035   7.357 -1.3319 -0.7621 -0.0020
  117MOL0     H15738  10.426   1.108   7.203 -0.0914 -2.0264  1.0375
  117MOL0     H15739  10.313   1.117   7.076 -1.2134 -3.7801  0.7401
  117MOL0     H15740  10.164   1.281   7.219 -0.4839  1.1127 -2.2430
  117MOL0     H15741  10.303   1.300   7.317 -1.1193  0.4893 -0.2035
  117MOL0     H15742  10.288   1.481   7.143 -1.5050 -0.2756 -0.5318
  117MOL0     H15743  10.298   1.361   7.018 -1.8363 -1.4246  1.1263
  117MOL0     H15744  10.490   1.416   7.243 -2.3692  2.9798 -0.5985
  117MOL0     H15745  10.524   1.291   7.127 -1.6652 -0.7217 -0.0814
  117MOL0     H15746  10.762   1.430   7.106  0.7252  2.6495  0.0536
  117MOL0     H15747  10.853   1.756   7.010 -0.3085 -0.6414  0.8027
  117MOL0     H15748  10.930   1.610   7.024  2.2270  1.5582 -1.0540
  117MOL0     H15749  10.813   1.694   6.742 -1.4006  0.1675  1.8726
  117MOL0     H15750  10.978   1.723   6.797 -1.1431  2.2181 -0.3134
  117MOL0     H15751  10.863   1.450   6.731 -0.5956  0.5772 -0.0118
  117MOL0     H15752  10.976   1.474   6.862 -0.3553  1.6391  0.9777
  117MOL0     H15753  11.033   1.559   6.570 -0.2482  0.1361  0.0297
  117MOL0     H15754  11.067   1.404   6.629  0.2276 -0.8482  2.9422
  117MOL0     H15755  11.264   1.310   6.614  3.1259 -1.0934 -1.3608
  117MOL0     H15756  11.486   1.227   6.651 -2.1281 -0.0031 -2.1587
  117MOL0     H15757  11.888   1.237   6.963  0.7734  0.0020  0.3968
  117MOL0     H15758  12.115   1.149   6.957  1.2934  0.9599 -1.4055
  117MOL0     H15759  12.391   0.930   6.788  2.3125  0.6286  2.1192
  117MOL0     H15760  12.332   1.079   6.857  0.2745  0.3229 -2.6474
  117MOL0     H15761  12.396   0.926   7.034  2.0864  0.2015 -3.3291
  117MOL0     H15762  12.214   0.933   7.035 -0.2931 -2.2848  0.4015
  117MOL0     H15763  12.213   0.714   6.891 -0.1814  0.0253 -0.8955
  117MOL0     H15764  12.380   0.730   6.875 -0.9500  0.8142 -1.1051
  117MOL0     H15765  12.289   0.563   7.061  1.1267 -0.0105 -1.7037
  117MOL0     H15766  12.223   0.701   7.143  1.4317 -0.7677  0.7439
  117MOL0     H15767  12.439   0.627   7.251  0.6991 -0.3547  1.2000
  117MOL0     H15768  12.448   0.788   7.182 -0.9602 -0.1048  0.9975
  117MOL0     H15769  12.534   0.509   7.092  1.8177  0.6233  1.7174
  117MOL0     H15770  12.573   0.644   6.986  2.3302 -1.6062  0.3153
  117MOL0     H15771  12.677   0.628   7.270 -1.0652  0.8767 -0.6169
  117MOL0     H15772  12.700   0.758   7.154  0.0480  0.9725  2.7358
  117MOL0     H15773  12.765   0.466   7.076  0.1646 -0.0599  1.1147
  117MOL0     H15774  12.814   0.614   6.991 -0.4634  0.8204  0.7765
  117MOL0     H15775  12.014   0.944   6.587  0.0602  0.1753  0.1588
  117MOL0     H15776  11.807   1.033   6.585 -0.5630 -0.2098  0.2473
  117MOL0     H15777  11.582   1.588   6.852 -0.6613  2.2383 -0.9634
  117MOL0     H15778  11.350   1.656   6.851 -1.2608  1.3216 -1.0144
  117MOL0     H15779  10.043   0.921   7.554  2.3699 -1.2848 -1.5587
  117MOL0     H15780   9.808   0.990   7.597 -0.5156  1.4019 -3.7635
  117MOL0     H15781   9.492   0.956   7.809 -0.5943 -0.1536 -0.7237
  117MOL0     H15782   9.336   1.040   7.932  0.0249 -0.5276  0.0188
  117MOL0     H15783   8.983   1.080   8.077 -0.5300 -0.1079 -1.4575
  117MOL0     H15784   9.161   1.073   8.075 -0.4615  0.6060  2.5698
  117MOL0     H15785   9.143   0.814   8.036 -1.7798 -2.8044  0.1457
  117MOL0     H15786   8.966   0.835   8.074 -0.4318 -0.7661  2.1300
  117MOL0     H15787   9.092   0.743   8.272 -0.8514  0.2869  2.6195
  117MOL0     H15788   9.018   0.903   8.297 -1.2648  0.1223  0.3085
  117MOL0     H15789   9.290   0.954   8.220  3.8940  0.9837  3.0567
  117MOL0     H15790   9.215   0.971   8.371  1.3854 -1.0696  0.3046
  117MOL0     H15791   9.434   0.597   8.361 -0.1814 -1.4477 -2.2880
  117MOL0     H15792   9.028   0.872   7.681 -0.5630  1.3242  0.0439
  117MOL0     H15793   9.219   0.824   7.416  1.4717  0.5201  0.8211
  117MOL0     H15794   9.202   0.665   7.497 -1.3490 -0.2193 -0.0431
  117MOL0     H15795   9.065   0.783   7.483 -0.0210 -2.0182 -3.7664
  118MOL0     O15796   5.326   3.752   0.285 -0.2927 -0.3200  0.3273
  118MOL0     C15797   5.442   3.793   0.305  0.3505 -0.4825  0.8466
  118MOL0     O15798   5.546   3.775   0.218  0.6200  0.0714 -0.5123
  118MOL0     C15799   5.516   3.692   0.114  0.6956  0.9071 -0.3315
  118MOL0     C15800   5.529   3.553   0.119 -0.0081 -0.4129 -0.2372
  118MOL0     C15801   5.503   3.467   0.006 -0.0177  0.5055 -0.0734
  118MOL0     C15802   5.447   3.526  -0.111  0.5383 -0.1296  0.3595
  118MOL0     O15803   5.420   3.454  -0.224  0.1038  0.3904  0.0885
  118MOL0     C15804   5.407   3.308  -0.200 -0.0178 -0.5586  0.1145
  118MOL0     C15805   5.346   3.248  -0.324  0.2482  0.7702 -0.3768
  118MOL0     C15806   5.450   3.229  -0.435 -0.6104  0.8518  0.0319
  118MOL0     C15807   5.381   3.149  -0.549  0.0721  0.7304 -0.4138
  118MOL0     C15808   5.481   3.098  -0.655  0.0142  0.3677 -0.9920
  118MOL0     C15809   5.405   3.011  -0.756  0.9277  0.1724 -0.2075
  118MOL0     C15810   5.360   2.873  -0.711 -0.0458 -0.6749 -0.2975
  118MOL0     C15811   5.273   2.810  -0.811 -0.4588 -0.6295 -0.3362
  118MOL0     N15812   5.229   2.673  -0.776 -0.1680 -0.0459  0.2224
  118MOL0     C15813   5.314   2.578  -0.729  0.2691  0.0254  0.5499
  118MOL0     C15814   5.239   2.465  -0.731  0.5190  0.5794  0.5402
  118MOL0     C15815   5.259   2.339  -0.661 -0.2088 -0.3394 -0.3013
  118MOL0     C15816   5.396   2.327  -0.600 -0.3532  0.3058 -0.1340
  118MOL0     C15817   5.420   2.188  -0.536 -1.3509  0.0305 -0.1887
  118MOL0     C15818   5.543   2.191  -0.439 -0.3475  1.1512 -0.1837
  118MOL0     O15819   5.651   2.246  -0.507 -0.8979  0.4626 -0.0734
  118MOL0     C15820   5.721   2.166  -0.587 -0.0265  0.0597  0.3057
  118MOL0     C15821   5.821   2.233  -0.658 -0.2291 -1.2249  0.1808
  118MOL0     C15822   5.912   2.173  -0.745  0.3863  0.3762  0.0914
  118MOL0     C15823   5.893   2.034  -0.767  0.1031  0.2410 -0.7099
  118MOL0     C15824   5.992   1.959  -0.843  0.2656 -0.1235  0.5514
  118MOL0     O15825   6.095   2.035  -0.890 -0.6141 -0.4942  0.9332
  118MOL0     C15826   6.175   1.965  -0.975 -0.6595  0.6639  0.5154
  118MOL0     C15827   6.202   2.019  -1.102  0.1086  0.0954 -0.9215
  118MOL0     C15828   6.271   1.946  -1.194  0.1118 -0.1167  0.7675
  118MOL0     C15829   6.326   1.816  -1.173 -0.0460 -0.7298  0.6041
  118MOL0     O15830   6.384   1.738  -1.270 -0.0679 -0.3045 -0.0313
  118MOL0     C15831   6.436   1.807  -1.390  0.6137  0.0874 -0.2131
  118MOL0     C15832   6.564   1.737  -1.422  0.0349  0.5097 -0.5581
  118MOL0     C15833   6.528   1.619  -1.505  0.1082 -0.1602  0.9119
  118MOL0     C15834   6.648   1.535  -1.540 -0.6092 -0.2201  0.4676
  118MOL0     C15835   6.698   1.462  -1.414  0.2388 -0.6672 -0.3755
  118MOL0     C15836   6.804   1.358  -1.449 -0.1851 -0.2622 -0.1948
  118MOL0     C15837   6.842   1.270  -1.338  0.5407 -0.7015  0.6096
  118MOL0     C15838   6.932   1.152  -1.390  0.0826  0.2584 -0.0949
  118MOL0    Cl15839   7.098   1.199  -1.423 -0.3144  0.5270  0.0231
  118MOL0     C15840   6.324   1.772  -1.041  0.1578 -0.6859 -1.1969
  118MOL0     C15841   6.239   1.838  -0.948  0.0033  0.1385 -0.0588
  118MOL0     O15842   5.969   1.843  -0.857  0.7148 -0.1925 -0.1841
  118MOL0     C15843   5.789   1.964  -0.700  0.0938  0.0144  0.4566
  118MOL0     C15844   5.705   2.029  -0.610 -0.2874 -0.5933  0.0570
  118MOL0     N15845   5.121   2.499  -0.810  0.0878  0.0157  0.1080
  118MOL0     N15846   5.113   2.623  -0.829 -0.2756  1.1526  0.8175
  118MOL0     C15847   5.438   3.669  -0.113 -0.3411  0.6240  0.0418
  118MOL0     C15848   5.473   3.747  -0.001 -0.0330  0.3577 -0.6203
  118MOL0     C15849   5.476   3.881   0.418  0.4387 -0.8610 -0.8294
  118MOL0     C15850   5.588   3.963   0.412  0.3986 -0.2738  0.5992
  118MOL0     C15851   5.609   4.068   0.506 -0.7807  0.2284 -0.5279
  118MOL0     C15852   5.535   4.073   0.625  0.0061 -0.3525 -0.3096
  118MOL0     O15853   5.547   4.169   0.717 -0.4444  0.4525  0.5625
  118MOL0     C15854   5.681   4.164   0.785  0.2718 -0.2945  0.3933
  118MOL0     C15855   5.718   4.036   0.867 -0.7261  1.1987 -1.3816
  118MOL0     C15856   5.603   3.987   0.961 -0.1617 -0.4986 -0.2157
  118MOL0     C15857   5.551   4.084   1.066  0.9510  0.1921  0.1060
  118MOL0     C15858   5.648   4.135   1.157  0.1824 -0.8706 -0.0063
  118MOL0     C15859   5.748   4.169   1.220 -1.1539 -0.4090  0.6288
  118MOL0     C15860   5.432   3.986   0.636  0.0639 -0.3242  0.3886
  118MOL0     C15861   5.401   3.884   0.541 -0.8915 -0.2781  0.0629
  118MOL0     C15862   5.297   3.777   0.577 -0.6164  0.4426 -0.4851
  118MOL0     H15863   5.565   3.509   0.211 -4.0655 -3.5111  0.1931
  118MOL0     H15864   5.515   3.360   0.022  0.9549  0.7364  0.8118
  118MOL0     H15865   5.504   3.257  -0.197 -0.5734 -1.8394 -1.6985
  118MOL0     H15866   5.343   3.289  -0.114 -1.3349  0.4383 -0.6184
  118MOL0     H15867   5.264   3.306  -0.367  0.9610  1.2615 -1.0870
  118MOL0     H15868   5.306   3.154  -0.286  1.8339  0.1535 -0.1693
  118MOL0     H15869   5.530   3.167  -0.394 -1.1393  0.8297  1.0815
  118MOL0     H15870   5.496   3.320  -0.475 -0.1730  0.0500 -1.3555
  118MOL0     H15871   5.337   3.060  -0.502  2.0170  0.8966  1.9556
  118MOL0     H15872   5.299   3.210  -0.587 -0.2331  2.6466  2.8827
  118MOL0     H15873   5.524   3.182  -0.712  1.1809 -0.3093 -1.1578
  118MOL0     H15874   5.552   3.029  -0.608 -2.1332 -1.1439  0.1958
  118MOL0     H15875   5.313   3.066  -0.781  1.2140  1.1170  0.7741
  118MOL0     H15876   5.472   3.013  -0.843  0.1176  1.4394 -0.8481
  118MOL0     H15877   5.308   2.878  -0.616  0.1508  0.8900 -0.2456
  118MOL0     H15878   5.450   2.813  -0.695  1.0646  0.8483 -0.5239
  118MOL0     H15879   5.179   2.866  -0.808  0.0282  0.1844 -0.0457
  118MOL0     H15880   5.313   2.805  -0.913 -0.3887 -0.6000 -0.3094
  118MOL0     H15881   5.413   2.601  -0.690 -0.2920  0.5497  1.7099
  118MOL0     H15882   5.181   2.341  -0.584  2.1898 -1.4223  2.3132
  118MOL0     H15883   5.249   2.263  -0.739 -0.5052 -0.9033  0.2783
  118MOL0     H15884   5.474   2.343  -0.675 -2.2374  2.1043 -1.8256
  118MOL0     H15885   5.396   2.391  -0.511 -3.2821  0.5092 -0.1908
  118MOL0     H15886   5.432   2.121  -0.622 -2.6917 -3.0016  1.7876
  118MOL0     H15887   5.330   2.159  -0.480 -0.6877  0.8144  1.3288
  118MOL0     H15888   5.562   2.091  -0.398  0.7355  1.8784  1.1708
  118MOL0     H15889   5.524   2.245  -0.346 -2.1505 -0.6947  0.6132
  118MOL0     H15890   5.823   2.341  -0.645 -2.0529 -0.9928 -1.0141
  118MOL0     H15891   5.996   2.228  -0.786 -0.5937  1.9530  0.0889
  118MOL0     H15892   6.153   2.110  -1.134 -1.3013 -0.1497  0.4461
  118MOL0     H15893   6.278   1.998  -1.289 -0.2476  1.4735  1.5691
  118MOL0     H15894   6.366   1.812  -1.474  0.5942  1.1949 -0.1439
  118MOL0     H15895   6.467   1.910  -1.371 -1.5805  0.7838 -0.1522
  118MOL0     H15896   6.627   1.793  -1.491 -0.9638  0.5638 -1.4521
  118MOL0     H15897   6.624   1.723  -1.332  1.0312  0.5084 -1.2077
  118MOL0     H15898   6.457   1.557  -1.449 -2.5443  1.7100 -0.1530
  118MOL0     H15899   6.484   1.654  -1.599 -1.4116 -1.0595  1.2656
  118MOL0     H15900   6.720   1.604  -1.586  1.5464 -1.2012  2.2134
  118MOL0     H15901   6.635   1.458  -1.616  3.2881  1.2308 -1.9353
  118MOL0     H15902   6.613   1.406  -1.375 -1.7307  0.7742 -2.3415
  118MOL0     H15903   6.733   1.526  -1.332 -1.8710 -1.8034  1.5201
  118MOL0     H15904   6.765   1.299  -1.533 -1.8242  3.8050 -2.5714
  118MOL0     H15905   6.896   1.407  -1.482  0.4872 -1.5180 -0.2489
  118MOL0     H15906   6.746   1.236  -1.297  1.4235 -0.3720  3.1201
  118MOL0     H15907   6.881   1.327  -1.253 -1.3462  2.3281 -0.3884
  118MOL0     H15908   6.928   1.073  -1.314  1.7097 -1.9930 -2.2044
  118MOL0     H15909   6.892   1.105  -1.480 -1.9997 -3.1388  2.3695
  118MOL0     H15910   6.369   1.677  -1.018 -1.2443 -0.9384  0.7730
  118MOL0     H15911   6.208   1.781  -0.861  0.1588 -4.3799 -2.6854
  118MOL0     H15912   5.780   1.857  -0.716 -0.4320 -0.0211  0.9593
  118MOL0     H15913   5.627   1.970  -0.562 -0.4491 -1.3378 -1.0649
  118MOL0     H15914   5.409   3.736  -0.193 -0.9051 -0.1265 -0.3838
  118MOL0     H15915   5.463   3.853  -0.023 -1.8500  0.2741 -0.3710
  118MOL0     H15916   5.649   3.964   0.322 -2.2902  0.3283 -1.3317
  118MOL0     H15917   5.689   4.140   0.494 -1.5361  0.9974 -1.0127
  118MOL0     H15918   5.692   4.253   0.848 -2.0942  1.0036 -0.8883
  118MOL0     H15919   5.760   4.187   0.714 -0.7094 -1.9179 -1.3046
  118MOL0     H15920   5.811   4.044   0.924 -0.5180 -3.0488 -0.7784
  118MOL0     H15921   5.740   3.962   0.789  2.2883  0.9442 -0.4202
  118MOL0     H15922   5.650   3.903   1.013  0.2705 -0.2221 -0.1593
  118MOL0     H15923   5.522   3.964   0.891 -2.9402  4.4200  0.9063
  118MOL0     H15924   5.504   4.172   1.020  2.3088  2.7248  3.1386
  118MOL0     H15925   5.476   4.032   1.127  0.7308  2.2829  1.7355
  118MOL0     H15926   5.835   4.179   1.283  0.8484  1.0545 -2.1650
  118MOL0     H15927   5.365   3.988   0.721  2.0431 -1.2856  2.0800
  118MOL0     H15928   5.308   3.759   0.684 -3.2762  1.8200  0.1056
  118MOL0     H15929   5.195   3.814   0.564  0.4498  2.8221 -2.9347
  118MOL0     H15930   5.309   3.682   0.524  1.1502  0.1842  0.2962
  119MOL0     O15931   9.248   2.285   3.521  0.0814 -0.1683  0.2642
  119MOL0     C15932   9.325   2.382   3.520  0.5035 -0.1638  0.0662
  119MOL0     O15933   9.381   2.432   3.405 -0.4564 -0.1766 -0.2375
  119MOL0     C15934   9.322   2.406   3.275 -0.6164  0.9524  0.5018
  119MOL0     C15935   9.407   2.414   3.162  0.3526  0.1019 -1.0189
  119MOL0     C15936   9.357   2.405   3.036  0.2105  0.1362  0.4316
  119MOL0     C15937   9.213   2.395   3.014  0.6195  0.0750 -1.3923
  119MOL0     O15938   9.155   2.403   2.895  0.0878  0.1201  0.1447
  119MOL0     C15939   9.229   2.417   2.776  0.0997  0.8541  0.4104
  119MOL0     C15940   9.325   2.300   2.742 -0.1208  0.1519  0.1849
  119MOL0     C15941   9.278   2.232   2.610  0.0712 -0.1386  0.0280
  119MOL0     C15942   9.321   2.310   2.487 -0.9383  0.5560 -0.4772
  119MOL0     C15943   9.228   2.290   2.367  0.9914  0.7594 -0.8482
  119MOL0     C15944   9.242   2.402   2.267 -0.9037  1.5076 -0.2351
  119MOL0     C15945   9.387   2.418   2.219 -0.6810  0.9669  0.6146
  119MOL0     C15946   9.379   2.531   2.114  0.8748 -0.2889  0.0674
  119MOL0     N15947   9.507   2.593   2.096 -0.4588 -0.0965 -0.3369
  119MOL0     C15948   9.574   2.683   2.172 -0.6442 -1.0322  0.0733
  119MOL0     C15949   9.701   2.688   2.121 -0.7451  0.4750  0.0734
  119MOL0     C15950   9.808   2.738   2.217  0.1163  0.2115 -0.0166
  119MOL0     C15951   9.941   2.762   2.150 -0.3683 -0.3243  0.7450
  119MOL0     C15952  10.044   2.817   2.252  0.5380 -0.3859 -0.2747
  119MOL0     C15953  10.189   2.805   2.203  0.7184  0.2611 -0.5474
  119MOL0     O15954  10.274   2.832   2.306  0.0899  0.0780 -1.1230
  119MOL0     C15955  10.409   2.808   2.308 -0.1900 -0.2726  0.4208
  119MOL0     C15956  10.486   2.773   2.198 -0.5811 -0.8153  0.7156
  119MOL0     C15957  10.628   2.747   2.219 -1.6314 -0.7801  0.6584
  119MOL0     C15958  10.691   2.766   2.340  0.2509  0.6377  0.3558
  119MOL0     C15959  10.833   2.745   2.362  0.0019  0.3656  1.0239
  119MOL0     O15960  10.864   2.749   2.496 -0.3060  0.1268 -0.2847
  119MOL0     C15961  10.992   2.705   2.529 -0.1988  0.4219  0.3835
  119MOL0     C15962  11.086   2.785   2.589 -1.0772  0.6677  0.6120
  119MOL0     C15963  11.218   2.751   2.610 -0.0580  1.0182  0.2039
  119MOL0     C15964  11.261   2.621   2.602 -0.2690  0.0351 -0.3555
  119MOL0     O15965  11.392   2.584   2.627  0.6833  0.3358  0.8253
  119MOL0     C15966  11.420   2.450   2.654 -0.9284 -1.0868 -0.6918
  119MOL0     C15967  11.523   2.438   2.761 -0.0588 -1.0229 -1.1838
  119MOL0     C15968  11.663   2.484   2.714  0.3894 -0.2215  0.7250
  119MOL0     C15969  11.768   2.408   2.795  1.2836 -0.3617  0.3894
  119MOL0     C15970  11.902   2.472   2.760 -0.9033  0.2395  0.2464
  119MOL0     C15971  11.968   2.402   2.638 -0.8136  0.1482  0.3930
  119MOL0     C15972  12.105   2.467   2.581  0.1333 -0.5446  0.6553
  119MOL0     C15973  12.194   2.371   2.504  0.4887  0.8559  0.5491
  119MOL0    Cl15974  12.250   2.236   2.607  0.1754  0.4604  0.1348
  119MOL0     C15975  11.173   2.530   2.547  0.2772  1.0044 -0.9614
  119MOL0     C15976  11.037   2.574   2.511  0.0425  0.4824 -1.4215
  119MOL0     O15977  10.908   2.714   2.273 -1.0908  0.0058 -0.2177
  119MOL0     C15978  10.607   2.797   2.442  0.0638  0.1210 -0.5465
  119MOL0     C15979  10.472   2.821   2.429 -0.4615 -0.1116  0.2388
  119MOL0     N15980   9.708   2.620   2.000  0.0693 -0.4432 -0.4183
  119MOL0     N15981   9.591   2.563   1.989  0.1430 -0.0940 -0.1149
  119MOL0     C15982   9.128   2.381   3.123  0.8777  0.3250 -0.3495
  119MOL0     C15983   9.178   2.403   3.256 -0.2109  0.2226  0.6943
  119MOL0     C15984   9.380   2.419   3.651 -1.3680  0.1861 -0.4192
  119MOL0     C15985   9.348   2.333   3.765 -0.7227  0.1304  0.2220
  119MOL0     C15986   9.404   2.359   3.896  0.1541 -0.6174  0.8969
  119MOL0     C15987   9.482   2.478   3.910 -0.5335 -0.3965  0.1130
  119MOL0     O15988   9.533   2.473   4.034 -0.2813  0.3939  0.2528
  119MOL0     C15989   9.634   2.562   4.068  0.2061  0.2607 -0.7533
  119MOL0     C15990   9.564   2.692   4.108 -0.3966 -0.9440  0.3171
  119MOL0     C15991   9.455   2.672   4.209 -0.3647 -0.3236  0.3291
  119MOL0     C15992   9.423   2.805   4.285  0.0964  0.3969 -0.4848
  119MOL0     C15993   9.540   2.851   4.371  0.3834 -0.7010  0.1048
  119MOL0     C15994   9.632   2.883   4.444  0.0964  0.5570  0.2567
  119MOL0     C15995   9.513   2.565   3.806 -0.1219 -0.0462  0.8521
  119MOL0     C15996   9.455   2.536   3.675 -0.5297 -0.2512 -1.0465
  119MOL0     C15997   9.479   2.644   3.573  0.1675 -0.5736  0.3474
  119MOL0     H15998   9.511   2.414   3.194 -0.6707  0.5941  2.7517
  119MOL0     H15999   9.418   2.417   2.947  0.8462  1.0662  0.9772
  119MOL0     H16000   9.161   2.434   2.692 -1.4709 -1.1343  1.1842
  119MOL0     H16001   9.286   2.510   2.786 -0.1806  1.0224  0.4656
  119MOL0     H16002   9.325   2.227   2.824 -1.4640  0.9516  0.9295
  119MOL0     H16003   9.426   2.340   2.731 -0.6033  1.5973  0.6809
  119MOL0     H16004   9.171   2.212   2.608 -0.3083  1.5771  1.2542
  119MOL0     H16005   9.325   2.133   2.602  0.5386 -0.0209  1.0250
  119MOL0     H16006   9.329   2.416   2.516  0.6502  0.1291  0.7988
  119MOL0     H16007   9.425   2.287   2.465 -0.6570  0.7343  0.6096
  119MOL0     H16008   9.254   2.192   2.326 -0.1014 -1.0064  2.3529
  119MOL0     H16009   9.122   2.276   2.391  1.1112 -0.2998 -0.8784
  119MOL0     H16010   9.176   2.380   2.183  0.1757 -1.2237 -0.4936
  119MOL0     H16011   9.206   2.496   2.309 -2.0497  1.3716 -0.8723
  119MOL0     H16012   9.438   2.329   2.183  0.2102  0.9592  1.8485
  119MOL0     H16013   9.458   2.458   2.291 -0.2945  3.1770 -0.8796
  119MOL0     H16014   9.343   2.494   2.017 -1.3863 -2.3933  1.6059
  119MOL0     H16015   9.306   2.610   2.136  1.5140 -0.1237  1.7286
  119MOL0     H16016   9.541   2.706   2.273  0.1471 -2.0010  0.5797
  119MOL0     H16017   9.767   2.830   2.260 -1.3173 -0.3053 -0.2028
  119MOL0     H16018   9.816   2.662   2.296  1.1068 -1.8012 -1.9513
  119MOL0     H16019   9.980   2.667   2.113 -0.9265  0.5766 -2.4663
  119MOL0     H16020   9.928   2.833   2.068 -0.4641 -2.2539 -0.9971
  119MOL0     H16021  10.043   2.746   2.335  0.8663 -0.3467 -0.2350
  119MOL0     H16022  10.021   2.911   2.302  0.5824 -1.9221  2.8577
  119MOL0     H16023  10.198   2.881   2.124 -1.4076 -0.0593 -1.1752
  119MOL0     H16024  10.211   2.707   2.159 -0.1384  0.6023 -1.8171
  119MOL0     H16025  10.440   2.762   2.101 -1.7906  1.4776  0.9513
  119MOL0     H16026  10.684   2.711   2.133 -2.0080 -1.5830  0.7354
  119MOL0     H16027  11.055   2.887   2.610  1.9659  1.5801  1.0224
  119MOL0     H16028  11.289   2.827   2.640  0.3339 -0.4645  3.4133
  119MOL0     H16029  11.332   2.401   2.697 -1.2063  0.5014  0.6549
  119MOL0     H16030  11.458   2.406   2.561  3.6610  1.3646 -0.2785
  119MOL0     H16031  11.496   2.495   2.851  0.3573 -1.7467 -0.5818
  119MOL0     H16032  11.534   2.330   2.773  2.2855 -0.7503 -0.4616
  119MOL0     H16033  11.681   2.470   2.607 -2.4194  5.2719 -0.8308
  119MOL0     H16034  11.669   2.592   2.730 -3.1947 -0.0147  1.3475
  119MOL0     H16035  11.775   2.301   2.772 -0.9922 -0.0945 -2.0853
  119MOL0     H16036  11.739   2.423   2.899 -0.2379 -0.5627  0.0230
  119MOL0     H16037  11.964   2.452   2.848  0.6307 -3.0604 -1.4092
  119MOL0     H16038  11.895   2.581   2.759 -0.2924  0.2801 -0.5542
  119MOL0     H16039  11.991   2.297   2.660 -0.1981  0.4461  1.2406
  119MOL0     H16040  11.891   2.399   2.561 -0.7007  0.5673  0.2580
  119MOL0     H16041  12.160   2.512   2.664  2.8809 -0.9830 -0.8284
  119MOL0     H16042  12.083   2.541   2.503 -2.4373 -1.8281  0.0510
  119MOL0     H16043  12.143   2.321   2.421  0.8786 -1.0743  1.4074
  119MOL0     H16044  12.283   2.426   2.471 -1.1956  3.1111 -0.4288
  119MOL0     H16045  11.199   2.430   2.515 -2.0060  0.7377 -2.1909
  119MOL0     H16046  10.960   2.506   2.476  0.6533 -1.0629  0.0973
  119MOL0     H16047  10.643   2.816   2.543 -0.9314  1.4701 -0.4266
  119MOL0     H16048  10.405   2.858   2.506 -2.4997  0.4033 -1.6853
  119MOL0     H16049   9.022   2.374   3.102  0.9210  0.2558 -0.5555
  119MOL0     H16050   9.111   2.399   3.341 -2.0429  1.3270 -0.6237
  119MOL0     H16051   9.294   2.240   3.752  0.5869 -0.5758 -0.3986
  119MOL0     H16052   9.389   2.282   3.972 -2.2240  0.0054  1.1388
  119MOL0     H16053   9.716   2.575   3.997 -0.2132  5.0347 -0.6806
  119MOL0     H16054   9.677   2.516   4.158  0.3223  1.4071 -0.2047
  119MOL0     H16055   9.508   2.746   4.030  0.2269 -0.1336  0.4210
  119MOL0     H16056   9.641   2.762   4.140 -0.4901 -0.1033 -1.1714
  119MOL0     H16057   9.486   2.589   4.273 -0.4897 -0.5116  0.1468
  119MOL0     H16058   9.365   2.640   4.155  0.9842 -0.7998 -1.7505
  119MOL0     H16059   9.396   2.876   4.206 -0.9982  0.2726 -0.2313
  119MOL0     H16060   9.337   2.783   4.348  1.2206  0.0259  0.9646
  119MOL0     H16061   9.717   2.897   4.508  1.0628 -0.4402 -0.7738
  119MOL0     H16062   9.571   2.654   3.825  0.5032 -0.2664  0.0085
  119MOL0     H16063   9.382   2.675   3.533  1.1072  2.7890  0.3800
  119MOL0     H16064   9.536   2.726   3.618 -2.0625 -0.1122  2.5618
  119MOL0     H16065   9.548   2.609   3.496  1.3307  1.5591  0.3710
  120MOL0     O16066   4.900   1.928  10.759  0.4624  1.0818  0.1138
  120MOL0     C16067   4.923   2.021  10.680 -0.4269 -0.1525  0.8665
  120MOL0     O16068   5.043   2.047  10.625  0.2836 -0.2588 -0.7951
  120MOL0     C16069   5.147   1.954  10.654  0.3528 -1.1221  0.7470
  120MOL0     C16070   5.179   1.867  10.546 -0.8278 -0.4837 -0.1475
  120MOL0     C16071   5.289   1.779  10.560 -0.6570  0.1703 -0.2948
  120MOL0     C16072   5.353   1.766  10.695 -0.3231  0.4934 -0.0717
  120MOL0     O16073   5.462   1.686  10.718 -0.1981  0.5293  0.3443
  120MOL0     C16074   5.506   1.592  10.625  0.2251 -0.1967 -0.4533
  120MOL0     C16075   5.606   1.507  10.699 -0.6908 -0.7477 -0.8936
  120MOL0     C16076   5.750   1.569  10.725  0.2968 -0.0085 -0.0218
  120MOL0     C16077   5.851   1.456  10.748 -0.3812 -0.4380 -0.4641
  120MOL0     C16078   5.993   1.533  10.751 -1.0193  0.4830  0.3406
  120MOL0     C16079   6.107   1.426  10.725  1.0546 -0.3362  0.3761
  120MOL0     C16080   6.241   1.502  10.704 -0.0282  0.4412 -0.0313
  120MOL0     C16081   6.346   1.396  10.678  0.5029 -0.1285  0.5871
  120MOL0     N16082   6.480   1.456  10.650 -0.0920 -1.0663  0.3962
  120MOL0     C16083   6.534   1.474  10.526  0.8348  0.6248  0.0953
  120MOL0     C16084   6.642   1.547  10.535  0.9004 -0.2092 -0.1947
  120MOL0     C16085   6.718   1.611  10.423 -0.1310  0.4445  0.7367
  120MOL0     C16086   6.741   1.762  10.452 -0.1015  0.6302  0.4934
  120MOL0     C16087   6.852   1.838  10.373 -0.0598 -0.5646 -0.0806
  120MOL0     C16088   6.865   1.979  10.425  0.0517  0.4096 -0.2624
  120MOL0     O16089   6.948   2.057  10.345 -0.0471 -0.2472  0.2090
  120MOL0     C16090   7.052   2.134  10.386  0.5323 -0.1437 -0.3944
  120MOL0     C16091   7.148   2.177  10.293  0.3139 -1.1105 -0.5052
  120MOL0     C16092   7.251   2.260  10.340 -0.7087  0.1555  0.7988
  120MOL0     C16093   7.264   2.310  10.466  0.4050 -0.0038 -0.9365
  120MOL0     C16094   7.378   2.397  10.508  0.4519  0.2439 -0.3913
  120MOL0     O16095   7.504   2.362  10.467 -0.6223  0.2537  0.5765
  120MOL0     C16096   7.615   2.425  10.513  0.4819  0.3307  0.4284
  120MOL0     C16097   7.633   2.460  10.646 -0.3232 -0.2376  0.4897
  120MOL0     C16098   7.755   2.536  10.683  0.0527  0.4646  0.3913
  120MOL0     C16099   7.850   2.574  10.584  0.1233  0.5597  0.6174
  120MOL0     O16100   7.955   2.642  10.621 -0.0342  0.0634 -0.0620
  120MOL0     C16101   8.060   2.654  10.519 -0.6482  0.1195 -0.9463
  120MOL0     C16102   8.181   2.699  10.602 -0.1866  0.0525 -0.4844
  120MOL0     C16103   8.303   2.710  10.503 -0.7102 -0.1556  0.0863
  120MOL0     C16104   8.333   2.867  10.471 -0.2118  0.8216  0.4276
  120MOL0     C16105   8.404   2.884  10.332  0.1179 -0.5642  0.2787
  120MOL0     C16106   8.516   2.795  10.286 -0.5098  0.3654  0.5066
  120MOL0     C16107   8.587   2.818  10.153 -0.0131  0.4233 -0.1680
  120MOL0     C16108   8.685   2.712  10.121 -0.7500  0.4016  0.1083
  120MOL0    Cl16109   8.798   2.735   9.973  0.2600 -0.0890 -0.6516
  120MOL0     C16110   7.821   2.531  10.454  0.0218  0.5188 -0.3472
  120MOL0     C16111   7.715   2.453  10.423  0.0227  0.4083 -0.4240
  120MOL0     O16112   7.352   2.493  10.578 -0.0838 -0.1020  0.0028
  120MOL0     C16113   7.161   2.267  10.556 -0.9244  0.7090  0.3110
  120MOL0     C16114   7.059   2.180  10.519 -1.4706 -0.1812  0.0003
  120MOL0     N16115   6.657   1.571  10.670  0.0429 -0.5097  0.0340
  120MOL0     N16116   6.564   1.514  10.740  1.0810  0.2673  0.1540
  120MOL0     C16117   5.317   1.859  10.789 -0.0816 -0.1665  0.2408
  120MOL0     C16118   5.220   1.954  10.771 -0.0950  0.0846  0.2062
  120MOL0     C16119   4.818   2.123  10.661 -0.7934  0.3140 -0.2679
  120MOL0     C16120   4.856   2.253  10.613  0.0511 -0.1077  0.1085
  120MOL0     C16121   4.752   2.346  10.571 -0.0901  0.4683 -0.1435
  120MOL0     C16122   4.608   2.329  10.598 -0.5489  0.8240  0.5782
  120MOL0     O16123   4.526   2.434  10.555  0.1606  0.8684 -0.2781
  120MOL0     C16124   4.389   2.431  10.606  0.9589  0.1483 -0.6446
  120MOL0     C16125   4.320   2.569  10.578 -0.0121  0.3689 -0.2586
  120MOL0     C16126   4.319   2.605  10.430 -0.1673 -0.7438  0.4702
  120MOL0     C16127   4.232   2.720  10.384 -0.7459 -0.6760  0.0423
  120MOL0     C16128   4.267   2.775  10.253  0.3961 -0.2529 -0.2313
  120MOL0     C16129   4.292   2.830  10.153 -0.6578  0.0549  0.5420
  120MOL0     C16130   4.576   2.198  10.637  0.9131  0.2203 -0.2857
  120MOL0     C16131   4.673   2.098  10.665  0.1677 -0.1959 -0.3394
  120MOL0     C16132   4.621   1.959  10.679 -1.1948 -0.2194 -0.2616
  120MOL0     H16133   5.140   1.883  10.446 -2.3057  0.9249  0.6073
  120MOL0     H16134   5.319   1.710  10.483  0.3640 -1.4449  1.4713
  120MOL0     H16135   5.419   1.529  10.605 -0.8665 -0.0457  3.0549
  120MOL0     H16136   5.544   1.641  10.535 -0.4757 -0.7972 -1.0893
  120MOL0     H16137   5.621   1.413  10.644  0.1780 -1.1118 -0.0666
  120MOL0     H16138   5.559   1.480  10.794 -1.3059 -1.1291 -1.2982
  120MOL0     H16139   5.749   1.633  10.813 -0.8864 -0.5604  0.3804
  120MOL0     H16140   5.781   1.637  10.644 -1.8884  1.3186  0.1852
  120MOL0     H16141   5.840   1.417  10.849  0.2983  0.5986  0.0246
  120MOL0     H16142   5.828   1.378  10.674 -3.0348  0.5427 -0.8167
  120MOL0     H16143   5.991   1.607  10.671  0.6218  0.6288  0.3807
  120MOL0     H16144   6.010   1.590  10.843  1.0213 -2.2803  1.8499
  120MOL0     H16145   6.116   1.365  10.815  1.3106  0.6044  1.0011
  120MOL0     H16146   6.086   1.362  10.639 -2.2000  1.7637 -0.5888
  120MOL0     H16147   6.259   1.570  10.788  3.0274  2.7771 -2.3938
  120MOL0     H16148   6.232   1.558  10.611 -1.3416  1.8807  0.9027
  120MOL0     H16149   6.360   1.324  10.760  0.0237 -1.7108 -0.6852
  120MOL0     H16150   6.305   1.348  10.590  0.4254 -0.2213  0.6740
  120MOL0     H16151   6.491   1.439  10.433  3.5039  1.3009 -1.5078
  120MOL0     H16152   6.817   1.565  10.421 -0.5614 -0.8527  3.7058
  120MOL0     H16153   6.664   1.613  10.328 -0.4070 -0.7272  0.8620
  120MOL0     H16154   6.647   1.805  10.417 -0.2726 -2.0225 -2.9514
  120MOL0     H16155   6.755   1.778  10.559 -2.2369  1.8092  0.6412
  120MOL0     H16156   6.821   1.844  10.268  0.4823  2.8427 -0.1894
  120MOL0     H16157   6.951   1.792  10.377  0.2969  0.0662 -1.0643
  120MOL0     H16158   6.903   1.964  10.526 -0.5615 -1.7035 -0.2980
  120MOL0     H16159   6.774   2.038  10.437  2.0226  4.2650 -2.4374
  120MOL0     H16160   7.145   2.150  10.188  1.6072 -2.1564 -0.3045
  120MOL0     H16161   7.328   2.290  10.269  0.6367  1.0064  2.5437
  120MOL0     H16162   7.570   2.433  10.731  3.3120  0.8000  3.8230
  120MOL0     H16163   7.767   2.556  10.789  0.3886  1.9102  0.1003
  120MOL0     H16164   8.087   2.560  10.471  3.4011  0.1276  0.9034
  120MOL0     H16165   8.030   2.725  10.441 -1.2138  0.7305 -0.2030
  120MOL0     H16166   8.165   2.792  10.658 -0.4807 -1.4176  2.0322
  120MOL0     H16167   8.195   2.627  10.683 -0.5793 -1.9084 -2.0795
  120MOL0     H16168   8.389   2.672  10.559  0.0021  1.0883 -0.1404
  120MOL0     H16169   8.287   2.662  10.405  3.3883 -0.0837 -0.7649
  120MOL0     H16170   8.373   2.905  10.565  0.1832 -1.5748  1.2902
  120MOL0     H16171   8.244   2.932  10.471  0.9869  2.5423  1.5683
  120MOL0     H16172   8.432   2.988  10.314 -0.0720 -0.4968  0.3756
  120MOL0     H16173   8.320   2.863  10.265  0.3392 -1.7495  0.3500
  120MOL0     H16174   8.590   2.803  10.366  0.2328 -2.6970  0.2359
  120MOL0     H16175   8.485   2.691  10.279 -0.3590  0.1813  2.1957
  120MOL0     H16176   8.632   2.917  10.165  1.9221 -0.4560  0.1693
  120MOL0     H16177   8.507   2.815  10.078  1.6259  1.9898 -2.0831
  120MOL0     H16178   8.750   2.703  10.210 -0.3169 -2.7594 -0.4060
  120MOL0     H16179   8.645   2.610  10.120 -0.1483  0.0107  3.4826
  120MOL0     H16180   7.889   2.563  10.376  2.9177 -2.2915  0.7789
  120MOL0     H16181   7.693   2.430  10.319 -3.1450 -0.3618  0.2953
  120MOL0     H16182   7.168   2.307  10.657  0.7065  1.7520 -0.1866
  120MOL0     H16183   6.985   2.146  10.591  0.2638 -0.7473  1.5836
  120MOL0     H16184   5.366   1.858  10.886  0.3296 -2.4010  0.0631
  120MOL0     H16185   5.188   2.024  10.848 -4.3130  0.7460 -1.8255
  120MOL0     H16186   4.960   2.280  10.600  0.4655 -1.0653  1.2896
  120MOL0     H16187   4.771   2.448  10.541 -0.6994 -0.1933 -3.0184
  120MOL0     H16188   4.392   2.417  10.715  2.3680  0.8253 -0.5764
  120MOL0     H16189   4.336   2.344  10.568  1.6365 -0.3038 -0.5823
  120MOL0     H16190   4.360   2.649  10.640 -1.4100  0.3834  0.6851
  120MOL0     H16191   4.217   2.551  10.612  0.0983 -3.3928 -1.4690
  120MOL0     H16192   4.298   2.523  10.360  1.3139 -1.7008  1.0944
  120MOL0     H16193   4.425   2.631  10.418 -0.0427 -0.6768  1.6684
  120MOL0     H16194   4.128   2.688  10.379 -0.4779 -1.4294 -1.1078
  120MOL0     H16195   4.237   2.804  10.455 -1.3299 -0.2867 -0.3629
  120MOL0     H16196   4.320   2.890  10.069  1.5329 -2.3139 -0.5778
  120MOL0     H16197   4.472   2.175  10.655  0.7607  2.5462  2.4659
  120MOL0     H16198   4.512   1.955  10.684 -1.1430 -0.0347  2.4318
  120MOL0     H16199   4.651   1.898  10.594  1.7137  0.3190  0.2428
  120MOL0     H16200   4.666   1.925  10.773 -0.5727  2.3609  0.4840
  121MOL0     O16201   6.793   2.274   3.650 -0.0475  0.3021 -0.1249
  121MOL0     C16202   6.830   2.181   3.720 -0.6525 -0.4838 -0.3328
  121MOL0     O16203   6.769   2.117   3.825  0.5650  0.4027  0.5283
  121MOL0     C16204   6.650   2.170   3.851  0.0358 -0.3570 -0.3305
  121MOL0     C16205   6.538   2.133   3.770 -0.7711 -0.5253  0.0745
  121MOL0     C16206   6.411   2.186   3.785  0.2028  0.4693  0.4794
  121MOL0     C16207   6.394   2.273   3.891 -0.2200 -0.3854 -0.0833
  121MOL0     O16208   6.287   2.359   3.888  0.2724 -0.1088 -0.6945
  121MOL0     C16209   6.187   2.353   3.785 -0.5586  0.0968  0.5610
  121MOL0     C16210   6.089   2.457   3.825  0.2018 -0.3985  0.0459
  121MOL0     C16211   5.967   2.449   3.728 -0.8388 -0.7693 -0.3514
  121MOL0     C16212   5.878   2.564   3.780 -0.0103  0.1975 -0.0974
  121MOL0     C16213   5.737   2.564   3.710  0.6681  0.2515 -0.0199
  121MOL0     C16214   5.754   2.613   3.570 -0.3056 -0.3511 -0.7009
  121MOL0     C16215   5.619   2.629   3.513  0.4091 -0.0378 -0.6503
  121MOL0     C16216   5.614   2.691   3.372  0.0029 -0.5185 -0.2869
  121MOL0     N16217   5.670   2.600   3.274  1.1462  0.9473  0.3065
  121MOL0     C16218   5.806   2.581   3.251  0.6377  0.4967 -0.1511
  121MOL0     C16219   5.802   2.507   3.139 -0.2016 -0.1359  0.2676
  121MOL0     C16220   5.913   2.451   3.065  0.3651  1.5021 -0.8644
  121MOL0     C16221   5.993   2.356   3.159 -0.0527 -0.5286 -0.6205
  121MOL0     C16222   5.914   2.237   3.228 -0.2053 -0.3717 -0.5687
  121MOL0     C16223   5.983   2.196   3.365 -0.3433  0.0789 -0.4277
  121MOL0     O16224   6.120   2.188   3.351  0.4403 -0.3200 -0.0511
  121MOL0     C16225   6.206   2.088   3.394 -0.0962 -0.3470  0.4793
  121MOL0     C16226   6.335   2.095   3.344 -0.5026 -0.6438 -0.6655
  121MOL0     C16227   6.436   2.012   3.381  0.5390 -0.1866 -1.0582
  121MOL0     C16228   6.412   1.911   3.473 -0.1608  0.3310 -0.1434
  121MOL0     C16229   6.531   1.827   3.513  0.2410 -1.0694  0.9484
  121MOL0     O16230   6.661   1.892   3.502  0.1061  0.2292  0.5213
  121MOL0     C16231   6.764   1.803   3.524 -0.5409  0.0343 -0.1358
  121MOL0     C16232   6.786   1.769   3.653 -0.3558  0.3798 -0.2852
  121MOL0     C16233   6.903   1.691   3.681 -0.2087  0.2680  0.0588
  121MOL0     C16234   6.997   1.653   3.579  0.2106  0.9884 -0.3769
  121MOL0     O16235   7.107   1.590   3.609 -0.0760  0.3210 -0.2545
  121MOL0     C16236   7.123   1.454   3.560 -0.0033  0.1869  0.0062
  121MOL0     C16237   7.196   1.368   3.649  0.3531  0.4474  0.2023
  121MOL0     C16238   7.336   1.407   3.684  0.1087  0.1696  0.0628
  121MOL0     C16239   7.391   1.344   3.818  0.5370 -0.7815  0.3771
  121MOL0     C16240   7.531   1.401   3.848  0.2775 -0.1319 -0.3763
  121MOL0     C16241   7.600   1.343   3.969 -0.2000  0.4719 -0.7606
  121MOL0     C16242   7.724   1.424   4.010  0.0496 -0.1579 -0.1272
  121MOL0     C16243   7.822   1.343   4.097  0.8675  0.1746  0.5846
  121MOL0    Cl16244   7.904   1.470   4.186  0.5145  0.3555 -0.3177
  121MOL0     C16245   6.961   1.693   3.446  0.3298 -0.6236  0.5344
  121MOL0     C16246   6.845   1.767   3.422  0.3351  0.6110 -0.4853
  121MOL0     O16247   6.509   1.709   3.550  0.3247 -0.5693  0.1829
  121MOL0     C16248   6.273   1.890   3.520 -0.9814  0.1566  0.6590
  121MOL0     C16249   6.180   1.984   3.478 -0.0891  0.2685 -0.0666
  121MOL0     N16250   5.669   2.489   3.100 -0.2471  0.9428  0.8550
  121MOL0     N16251   5.593   2.542   3.182 -0.1011 -0.4535  0.2879
  121MOL0     C16252   6.495   2.306   3.980 -0.1145 -0.6703 -0.2413
  121MOL0     C16253   6.627   2.261   3.953 -1.1848  0.1602  0.2063
  121MOL0     C16254   6.964   2.139   3.686  0.0360 -0.6391  0.7285
  121MOL0     C16255   6.982   2.077   3.554 -0.3676 -0.4732 -0.1196
  121MOL0     C16256   7.112   2.044   3.505 -0.1808 -0.6999  0.0342
  121MOL0     C16257   7.225   2.076   3.573  0.1861  0.2082 -0.2514
  121MOL0     O16258   7.347   2.037   3.533 -0.3309  0.7241 -0.8913
  121MOL0     C16259   7.445   2.144   3.534  0.0085 -0.6687  0.6916
  121MOL0     C16260   7.546   2.106   3.422 -0.4942 -0.4375 -0.3523
  121MOL0     C16261   7.485   2.093   3.281  0.6655  0.4485 -0.6382
  121MOL0     C16262   7.495   1.952   3.220 -0.4260  0.7092  0.6935
  121MOL0     C16263   7.623   1.890   3.192 -0.4284 -0.5973 -0.5683
  121MOL0     C16264   7.737   1.849   3.174 -0.0043  0.1070 -0.2048
  121MOL0     C16265   7.209   2.123   3.699  1.2414  0.5689  0.9528
  121MOL0     C16266   7.076   2.166   3.751  0.0606  0.7413 -1.6504
  121MOL0     C16267   7.058   2.230   3.886 -0.2338 -0.1984 -0.1212
  121MOL0     H16268   6.562   2.067   3.687  0.5229  1.4897 -1.2673
  121MOL0     H16269   6.338   2.166   3.707  0.7370  0.7543 -0.1124
  121MOL0     H16270   6.212   2.355   3.679 -1.2658  1.0487  0.4038
  121MOL0     H16271   6.143   2.255   3.806 -1.6672  0.5529  0.4130
  121MOL0     H16272   6.142   2.552   3.816  1.1148 -0.7153  1.6510
  121MOL0     H16273   6.057   2.445   3.929 -2.0344 -2.2031 -0.7687
  121MOL0     H16274   5.906   2.359   3.740 -1.7780 -0.0572  0.3881
  121MOL0     H16275   5.995   2.482   3.628  0.9357  1.1711  0.7076
  121MOL0     H16276   5.856   2.563   3.888 -0.1666  2.1290 -0.0808
  121MOL0     H16277   5.927   2.660   3.764 -0.3742  0.5052  0.5829
  121MOL0     H16278   5.686   2.467   3.709 -2.0042  1.5842  0.1166
  121MOL0     H16279   5.665   2.629   3.760 -1.4694 -1.8589 -0.1441
  121MOL0     H16280   5.802   2.708   3.547 -0.2453 -0.2201 -0.0580
  121MOL0     H16281   5.803   2.542   3.503  3.4317  2.5492 -1.3421
  121MOL0     H16282   5.555   2.693   3.575 -1.9511 -1.0015 -1.9590
  121MOL0     H16283   5.567   2.534   3.501 -1.6924  0.9388  0.1353
  121MOL0     H16284   5.513   2.719   3.338  0.1882 -0.8393 -1.1298
  121MOL0     H16285   5.676   2.781   3.370 -0.8882  0.1004 -1.4115
  121MOL0     H16286   5.890   2.607   3.313  0.8721  0.1820 -0.3326
  121MOL0     H16287   5.870   2.388   2.987 -2.6986 -0.0356  1.7704
  121MOL0     H16288   5.978   2.521   3.013  0.8404  2.8012  1.3644
  121MOL0     H16289   6.067   2.311   3.092  0.1243 -1.2850  0.0685
  121MOL0     H16290   6.045   2.418   3.233 -1.3835 -1.0881  0.8413
  121MOL0     H16291   5.936   2.148   3.170  5.1429 -0.8445  1.5555
  121MOL0     H16292   5.809   2.267   3.239  0.1764  0.6900  0.5242
  121MOL0     H16293   5.943   2.095   3.381  0.5215  0.0872  2.0759
  121MOL0     H16294   5.960   2.262   3.449  1.4608  0.6719 -0.3595
  121MOL0     H16295   6.352   2.180   3.278 -3.4478  1.9411  1.5798
  121MOL0     H16296   6.537   2.044   3.362  0.1061  2.5996  0.7753
  121MOL0     H16297   6.715   1.810   3.724  0.6059  2.7863 -0.6008
  121MOL0     H16298   6.933   1.674   3.784 -1.9357 -0.7841  0.4302
  121MOL0     H16299   7.024   1.417   3.533 -0.3621  2.5123 -2.2339
  121MOL0     H16300   7.174   1.471   3.465 -1.6401 -2.6538 -1.5052
  121MOL0     H16301   7.137   1.370   3.741  1.2075  2.4750  0.7623
  121MOL0     H16302   7.199   1.268   3.605  0.4706  1.8356 -3.2307
  121MOL0     H16303   7.401   1.389   3.597  0.7819 -0.5362  0.6970
  121MOL0     H16304   7.339   1.515   3.702  1.0202 -0.0267  1.1890
  121MOL0     H16305   7.400   1.236   3.806  0.9013 -1.2284  3.8194
  121MOL0     H16306   7.330   1.364   3.906  1.6276  0.9416  0.7981
  121MOL0     H16307   7.539   1.510   3.846  3.8853 -0.2755 -2.1968
  121MOL0     H16308   7.595   1.360   3.770  2.1974  0.5981  0.7450
  121MOL0     H16309   7.535   1.349   4.056 -0.4082  0.8326 -0.9381
  121MOL0     H16310   7.626   1.238   3.957 -2.3483 -0.1404 -0.4686
  121MOL0     H16311   7.684   1.506   4.071  1.6538 -0.3887  1.2827
  121MOL0     H16312   7.770   1.476   3.926 -2.0957  0.5842 -0.9297
  121MOL0     H16313   7.768   1.277   4.166  2.0893  1.4828  2.8877
  121MOL0     H16314   7.883   1.277   4.035  1.1786 -0.4817  1.5715
  121MOL0     H16315   7.023   1.677   3.358 -0.1990  1.7759 -0.3432
  121MOL0     H16316   6.810   1.806   3.327 -0.1942 -0.5976 -0.8050
  121MOL0     H16317   6.246   1.809   3.587  2.1291 -2.2506 -0.7555
  121MOL0     H16318   6.080   1.961   3.513  0.5473  1.1364  2.5178
  121MOL0     H16319   6.464   2.349   4.075 -3.7980 -2.9018 -0.2356
  121MOL0     H16320   6.706   2.296   4.019 -0.8457 -2.4008  1.2778
  121MOL0     H16321   6.899   2.065   3.485  0.7594  0.0919 -1.6029
  121MOL0     H16322   7.132   2.004   3.406  2.4224  0.8041 -0.1396
  121MOL0     H16323   7.511   2.162   3.619  3.8605  1.1355 -2.3185
  121MOL0     H16324   7.396   2.239   3.511  0.5140 -0.5319  0.1427
  121MOL0     H16325   7.595   2.011   3.444 -3.8402 -2.3570 -0.4268
  121MOL0     H16326   7.611   2.194   3.421 -3.8469  2.2907 -0.9660
  121MOL0     H16327   7.535   2.155   3.206  2.5617  1.1260  1.0933
  121MOL0     H16328   7.379   2.120   3.277  0.3007 -0.3194  2.1301
  121MOL0     H16329   7.439   1.882   3.283  1.2748 -0.8642  0.5714
  121MOL0     H16330   7.452   1.947   3.120  1.1932 -0.7821  0.0271
  121MOL0     H16331   7.837   1.811   3.163  0.8769  1.8736  1.0906
  121MOL0     H16332   7.301   2.129   3.756 -0.0943 -1.6131  3.5810
  121MOL0     H16333   6.999   2.322   3.874 -0.0457 -0.1086 -0.3757
  121MOL0     H16334   7.014   2.160   3.957  0.7933  0.0766  0.8150
  121MOL0     H16335   7.153   2.265   3.929 -0.1488 -1.5600  0.8299
  122MOL0     O16336   8.568   1.727  11.339  0.2758  0.3218  0.0767
  122MOL0     C16337   8.539   1.845  11.320  0.5714 -0.1214  0.1135
  122MOL0     O16338   8.463   1.894  11.217 -0.7193  0.9393  0.4032
  122MOL0     C16339   8.467   1.824  11.101 -0.5423  0.0684 -0.3922
  122MOL0     C16340   8.587   1.829  11.024 -0.0614  0.6823 -0.2447
  122MOL0     C16341   8.606   1.756  10.907  0.1601 -0.2318  0.3966
  122MOL0     C16342   8.509   1.658  10.878  0.0378 -0.2371  0.2235
  122MOL0     O16343   8.535   1.574  10.773 -0.1694  0.0608 -0.1153
  122MOL0     C16344   8.442   1.458  10.745 -0.2965  0.3717 -0.0226
  122MOL0     C16345   8.498   1.366  10.639 -0.5557  0.5751 -0.4804
  122MOL0     C16346   8.403   1.256  10.592 -0.0194 -0.1216  0.2077
  122MOL0     C16347   8.424   1.208  10.446  0.3145 -0.2209 -0.5281
  122MOL0     C16348   8.316   1.108  10.414  0.8883  1.2373  0.4063
  122MOL0     C16349   8.309   1.083  10.266  0.1657 -0.5511  0.5181
  122MOL0     C16350   8.181   1.011  10.230 -0.2892  0.1385 -0.2230
  122MOL0     C16351   8.181   0.954  10.091 -0.4782  0.3707 -0.0933
  122MOL0     N16352   8.105   1.057  10.012  0.2881 -0.2759  0.6372
  122MOL0     C16353   8.132   1.189   9.987 -0.3260  0.0108 -0.6706
  122MOL0     C16354   8.031   1.232   9.909 -0.5497  0.0275  0.6259
  122MOL0     C16355   8.008   1.364   9.856 -0.5497 -0.6649 -0.1052
  122MOL0     C16356   7.880   1.427   9.910  0.3607  0.7013  0.6527
  122MOL0     C16357   7.864   1.574   9.863  0.2980 -0.2029 -0.1222
  122MOL0     C16358   7.740   1.625   9.930  0.5323 -0.2148 -0.1291
  122MOL0     O16359   7.616   1.568   9.875  0.0861  0.3782  0.6669
  122MOL0     C16360   7.505   1.575   9.959 -0.1802  0.4505 -0.4586
  122MOL0     C16361   7.478   1.684  10.041  1.2016  0.3398 -0.5306
  122MOL0     C16362   7.371   1.681  10.126 -0.5162  0.3252  0.3526
  122MOL0     C16363   7.308   1.557  10.145  0.4291 -0.5861 -0.0981
  122MOL0     C16364   7.205   1.552  10.251 -1.4511 -0.0655 -0.0251
  122MOL0     O16365   7.177   1.424  10.273 -0.1736  0.2082  0.9705
  122MOL0     C16366   7.124   1.370  10.385 -0.9728 -0.4816 -0.0399
  122MOL0     C16367   7.065   1.440  10.487 -0.6286 -0.3118 -0.5678
  122MOL0     C16368   6.996   1.372  10.581 -0.4705  0.2612 -0.4872
  122MOL0     C16369   6.994   1.224  10.584 -0.0600 -0.9422  0.3132
  122MOL0     O16370   6.927   1.151  10.664 -0.1724  0.8715 -0.7672
  122MOL0     C16371   6.834   1.205  10.750 -0.0357 -0.1269 -0.9538
  122MOL0     C16372   6.762   1.090  10.825  0.1783 -0.8203  0.1562
  122MOL0     C16373   6.679   1.118  10.947 -0.1765 -0.0252 -0.8788
  122MOL0     C16374   6.533   1.092  10.925  0.1797  0.1961 -0.1323
  122MOL0     C16375   6.444   1.126  11.038  0.2823 -0.5988 -0.0167
  122MOL0     C16376   6.299   1.103  11.007 -0.0046 -0.5240  0.5756
  122MOL0     C16377   6.209   1.181  11.102 -0.2479 -0.1477 -0.1122
  122MOL0     C16378   6.094   1.094  11.144 -0.3169  0.0922  0.7986
  122MOL0    Cl16379   5.988   1.048  11.000 -0.2468  0.6015  0.2684
  122MOL0     C16380   7.073   1.154  10.487 -0.6762  0.3755 -0.4613
  122MOL0     C16381   7.139   1.231  10.392  0.0106 -0.7780  0.1061
  122MOL0     O16382   7.180   1.644  10.318 -0.3469  0.2621  0.2942
  122MOL0     C16383   7.345   1.443  10.069  0.4633  0.5836 -0.6545
  122MOL0     C16384   7.449   1.456   9.975  0.1267  0.2712  0.6566
  122MOL0     N16385   7.950   1.119   9.891  0.4152 -0.4353 -0.5324
  122MOL0     N16386   7.988   1.018   9.954 -0.2193 -0.7774  0.2944
  122MOL0     C16387   8.400   1.643  10.968  0.0010  0.1465  0.3492
  122MOL0     C16388   8.378   1.723  11.076  0.6837 -0.0032 -1.1248
  122MOL0     C16389   8.568   1.947  11.422 -0.6922  1.0735 -0.6822
  122MOL0     C16390   8.679   2.036  11.404 -0.0268 -0.2939 -0.3630
  122MOL0     C16391   8.716   2.135  11.501 -0.4146  0.1733  0.5238
  122MOL0     C16392   8.634   2.144  11.612  0.9237 -0.0085  0.0070
  122MOL0     O16393   8.678   2.240  11.701  0.2399 -0.0245  0.0841
  122MOL0     C16394   8.592   2.292  11.800  0.3135 -0.1576  0.3433
  122MOL0     C16395   8.627   2.429  11.837  0.5255 -0.4180 -0.7372
  122MOL0     C16396   8.609   2.523  11.716 -0.2269  0.2197  0.4658
  122MOL0     C16397   8.635   2.667  11.767  0.4847  0.1487 -0.7127
  122MOL0     C16398   8.773   2.680  11.819  0.8398 -0.4415  0.5169
  122MOL0     C16399   8.888   2.703  11.851  0.6094 -0.6187  0.3645
  122MOL0     C16400   8.524   2.056  11.629 -0.3343  0.1194 -0.6084
  122MOL0     C16401   8.494   1.951  11.543  1.2486 -0.1521  0.4038
  122MOL0     C16402   8.364   1.863  11.562 -0.2701 -0.4384  0.6069
  122MOL0     H16403   8.664   1.899  11.056  2.6847 -0.2182 -4.2650
  122MOL0     H16404   8.697   1.771  10.849 -0.1128 -0.5128 -0.1077
  122MOL0     H16405   8.404   1.388  10.820 -1.6092 -0.2797 -1.2392
  122MOL0     H16406   8.348   1.498  10.706 -0.1553  1.2071  0.4649
  122MOL0     H16407   8.592   1.329  10.681 -0.3116 -0.0395 -1.5473
  122MOL0     H16408   8.530   1.427  10.554  0.4859 -0.5352 -0.9040
  122MOL0     H16409   8.304   1.300  10.599  0.3241  0.7273 -0.1033
  122MOL0     H16410   8.398   1.176  10.666 -2.6886  0.1442  0.4019
  122MOL0     H16411   8.408   1.300  10.389 -1.7275 -0.4263 -0.3612
  122MOL0     H16412   8.521   1.164  10.421  0.5526 -0.5498  0.8783
  122MOL0     H16413   8.310   1.015  10.470 -0.9390  1.5725  0.8324
  122MOL0     H16414   8.220   1.151  10.445 -0.4291 -0.0350 -1.6707
  122MOL0     H16415   8.316   1.178  10.212  2.5828 -1.6460 -1.2419
  122MOL0     H16416   8.395   1.022  10.238 -0.9764 -0.9894 -2.3461
  122MOL0     H16417   8.095   1.077  10.245 -1.7100 -1.7274  0.2025
  122MOL0     H16418   8.167   0.934  10.306  1.2433  0.4022  0.3649
  122MOL0     H16419   8.276   0.917  10.053  0.1225  0.9346  0.8469
  122MOL0     H16420   8.117   0.865  10.101  0.2016  0.1137  2.8832
  122MOL0     H16421   8.206   1.249  10.039  1.8602 -4.0905  1.4310
  122MOL0     H16422   8.097   1.422   9.882  0.9075 -1.3746 -3.0958
  122MOL0     H16423   7.994   1.360   9.748 -0.8075 -2.0882 -0.0378
  122MOL0     H16424   7.790   1.375   9.875  1.2552 -0.9292  0.6576
  122MOL0     H16425   7.868   1.415  10.018 -2.4025 -0.2863  0.3075
  122MOL0     H16426   7.845   1.576   9.755 -2.7254  1.5231  0.3402
  122MOL0     H16427   7.951   1.631   9.895  0.0660 -0.0777  0.2911
  122MOL0     H16428   7.730   1.733   9.917  2.6021  0.1902  1.1374
  122MOL0     H16429   7.759   1.601  10.035  0.9709 -2.7857 -0.7173
  122MOL0     H16430   7.527   1.780  10.031 -0.0282  1.1010  0.5130
  122MOL0     H16431   7.352   1.774  10.180  1.4334  2.1407 -1.8492
  122MOL0     H16432   7.070   1.547  10.501 -0.1364 -0.4570  0.4735
  122MOL0     H16433   6.959   1.435  10.661  6.3053  2.5841  1.5246
  122MOL0     H16434   6.870   1.278  10.824 -0.1481  0.8317 -1.8212
  122MOL0     H16435   6.763   1.261  10.688  1.7278  1.5664 -1.5389
  122MOL0     H16436   6.711   1.032  10.748  1.1171  0.5654 -1.5794
  122MOL0     H16437   6.851   1.037  10.859 -1.1610 -1.3406  3.1453
  122MOL0     H16438   6.721   1.049  11.021  3.9359  2.1818 -0.8722
  122MOL0     H16439   6.695   1.221  10.982  0.7084  0.3586 -2.3454
  122MOL0     H16440   6.521   0.985  10.905 -4.4595  0.2093  1.2871
  122MOL0     H16441   6.496   1.150  10.839  2.9180 -0.5271 -1.9102
  122MOL0     H16442   6.458   1.230  11.071 -2.6158 -0.2547  0.3565
  122MOL0     H16443   6.471   1.056  11.118  2.7015 -0.2443 -0.4396
  122MOL0     H16444   6.279   1.121  10.901  0.0503 -2.2802  0.2499
  122MOL0     H16445   6.281   0.996  11.015 -0.0768 -0.4422  1.5845
  122MOL0     H16446   6.170   1.272  11.054  2.0620  2.3913  2.4257
  122MOL0     H16447   6.270   1.224  11.182  0.0115  0.1874 -0.4769
  122MOL0     H16448   6.149   1.008  11.184  1.3557 -0.1744 -1.8141
  122MOL0     H16449   6.038   1.149  11.220  0.9123  1.8521  0.5051
  122MOL0     H16450   7.070   1.046  10.486  0.1005  0.3547 -1.9341
  122MOL0     H16451   7.209   1.191  10.320  2.5385  2.4817  0.5345
  122MOL0     H16452   7.304   1.343  10.082  1.2911  0.3499  0.3466
  122MOL0     H16453   7.479   1.373   9.912  0.6759  0.3478  0.8069
  122MOL0     H16454   8.328   1.563  10.960  1.7260 -1.6304  1.6561
  122MOL0     H16455   8.295   1.692  11.139  2.8244 -1.6969  1.0699
  122MOL0     H16456   8.736   2.035  11.311  2.2046 -0.1485  0.9280
  122MOL0     H16457   8.794   2.203  11.467 -0.5876 -0.4996 -1.3545
  122MOL0     H16458   8.581   2.232  11.891 -0.0433 -0.2067  0.2695
  122MOL0     H16459   8.489   2.293  11.764 -0.5628 -1.2183  2.6049
  122MOL0     H16460   8.731   2.432  11.870  0.3915  1.2133 -0.4204
  122MOL0     H16461   8.563   2.464  11.918  1.4259 -1.3097  0.4019
  122MOL0     H16462   8.508   2.524  11.676 -0.5269 -1.1455  1.1599
  122MOL0     H16463   8.678   2.490  11.638 -0.1872 -2.7104  1.6091
  122MOL0     H16464   8.641   2.749  11.695  1.4476  4.9924  4.2160
  122MOL0     H16465   8.562   2.697  11.843  1.3245  0.7620 -0.1393
  122MOL0     H16466   8.991   2.723  11.874  0.6424  0.2755 -0.4860
  122MOL0     H16467   8.468   2.070  11.721  0.5157  0.8821 -0.1833
  122MOL0     H16468   8.367   1.814  11.660  3.1370  0.7908  1.2529
  122MOL0     H16469   8.274   1.925  11.551  0.2646  0.6285  1.9334
  122MOL0     H16470   8.346   1.778  11.496 -0.7155 -1.3445  1.8530
  123MOL0     O16471   0.206   5.138  10.123  0.0643 -0.7378  0.8110
  123MOL0     C16472   0.267   5.051  10.188  0.3477 -0.2430  0.6141
  123MOL0     O16473   0.229   5.008  10.309 -0.4665 -0.2533  0.0798
  123MOL0     C16474   0.132   5.081  10.370  0.0149  0.3648  0.5148
  123MOL0     C16475   0.179   5.135  10.490 -0.9008 -0.6303 -0.1670
  123MOL0     C16476   0.109   5.228  10.564  0.2975  0.2931 -0.1188
  123MOL0     C16477  -0.016   5.266  10.521  0.7553 -0.2692 -0.0303
  123MOL0     O16478  -0.088   5.350  10.595  0.5410 -0.5696  0.0087
  123MOL0     C16479  -0.224   5.389  10.557 -0.0881 -0.1087  0.2048
  123MOL0     C16480  -0.301   5.472  10.659 -0.5288 -0.1741 -0.4685
  123MOL0     C16481  -0.449   5.488  10.621  0.3561  0.1685 -0.4036
  123MOL0     C16482  -0.525   5.595  10.709 -0.1841  0.4670  0.0394
  123MOL0     C16483  -0.671   5.614  10.676  0.1985  0.0468  0.1184
  123MOL0     C16484  -0.708   5.759  10.722 -0.1190 -0.4077  0.3415
  123MOL0     C16485  -0.841   5.792  10.648  0.4253  0.3637  0.0976
  123MOL0     C16486  -0.869   5.927  10.699 -0.6804 -0.1766 -0.1001
  123MOL0     N16487  -0.989   5.968  10.620 -0.1355 -0.1791  0.8492
  123MOL0     C16488  -1.114   5.905  10.601  0.2693  0.6203 -0.5186
  123MOL0     C16489  -1.193   5.996  10.534 -0.5688  0.0332 -0.3968
  123MOL0     C16490  -1.334   5.964  10.487  0.3794 -1.0532  0.8573
  123MOL0     C16491  -1.436   5.974  10.602  1.1358 -0.0282 -0.4467
  123MOL0     C16492  -1.543   6.089  10.591  0.1033 -0.6886  0.3401
  123MOL0     C16493  -1.642   6.132  10.698  0.8722 -0.0051  0.4280
  123MOL0     O16494  -1.719   6.019  10.747  0.4442 -0.0675 -0.2501
  123MOL0     C16495  -1.841   6.014  10.686  0.6861 -0.2276 -1.1692
  123MOL0     C16496  -1.948   6.067  10.765  0.4354 -0.7691  0.1679
  123MOL0     C16497  -2.082   6.066  10.722  0.0890  1.0257 -0.0496
  123MOL0     C16498  -2.111   6.018  10.593 -0.1712 -0.3570  0.7770
  123MOL0     C16499  -2.250   6.014  10.550  0.2111  0.3514  0.3639
  123MOL0     O16500  -2.354   6.006  10.640  0.1323  0.4830 -0.0419
  123MOL0     C16501  -2.476   6.029  10.575 -0.5409 -0.3086 -1.2567
  123MOL0     C16502  -2.573   5.935  10.586 -0.5249 -0.3745  0.5169
  123MOL0     C16503  -2.697   5.962  10.535 -0.5108  0.7135 -0.3320
  123MOL0     C16504  -2.723   6.077  10.471  0.3049  0.2474  0.2956
  123MOL0     O16505  -2.843   6.093  10.404 -0.8303 -0.5484  0.7191
  123MOL0     C16506  -2.931   6.180  10.472 -0.0429 -0.3909  0.5282
  123MOL0     C16507  -3.024   6.250  10.370 -0.1784  0.1578 -0.1037
  123MOL0     C16508  -3.123   6.152  10.320  0.6001  0.4328  0.6631
  123MOL0     C16509  -3.232   6.234  10.244  0.1660 -0.6944  0.6123
  123MOL0     C16510  -3.328   6.161  10.151 -1.3281 -0.1427 -0.3252
  123MOL0     C16511  -3.385   6.261  10.062 -0.1588  0.0174 -0.0594
  123MOL0     C16512  -3.475   6.204   9.959  0.5998  0.4403  0.6375
  123MOL0     C16513  -3.619   6.166  10.005 -0.0675 -0.2144  0.4096
  123MOL0    Cl16514  -3.642   6.037  10.143  0.4560 -0.0693 -0.1468
  123MOL0     C16515  -2.628   6.182  10.461 -0.1083 -0.2920 -0.3526
  123MOL0     C16516  -2.503   6.156  10.523 -0.4347 -0.2452  0.1569
  123MOL0     O16517  -2.261   6.022  10.426  0.5766 -0.3534  0.7967
  123MOL0     C16518  -2.003   5.956  10.523  1.2664  0.2748  0.1923
  123MOL0     C16519  -1.876   5.943  10.572 -0.0321 -1.0639 -0.2918
  123MOL0     N16520  -1.111   6.101  10.501  0.3772 -0.3267  0.0441
  123MOL0     N16521  -0.989   6.086  10.550 -0.0750 -0.1124  0.0210
  123MOL0     C16522  -0.066   5.208  10.397 -0.6317  0.1203  0.6133
  123MOL0     C16523   0.004   5.121  10.317  0.3675 -0.4774 -1.3100
  123MOL0     C16524   0.372   4.975  10.126 -0.3728 -0.4179 -0.0335
  123MOL0     C16525   0.363   4.833  10.145 -0.3369 -0.7035 -0.1604
  123MOL0     C16526   0.469   4.761  10.088 -0.0931 -0.4015 -0.1183
  123MOL0     C16527   0.576   4.820  10.021 -0.2548 -0.1994 -0.3242
  123MOL0     O16528   0.677   4.758   9.966  1.0782  0.3431  0.7558
  123MOL0     C16529   0.731   4.645  10.037  0.1356 -0.3592  0.9356
  123MOL0     C16530   0.822   4.567   9.951 -0.6811 -0.7399 -0.3812
  123MOL0     C16531   0.946   4.646   9.911 -0.8387 -0.0024 -0.0713
  123MOL0     C16532   1.037   4.557   9.839 -0.2152 -0.1527 -0.2108
  123MOL0     C16533   1.146   4.642   9.786 -0.5326  1.5686 -0.3980
  123MOL0     C16534   1.244   4.708   9.756  0.2067 -0.3399 -0.2983
  123MOL0     C16535   0.566   4.952   9.986 -0.3761 -0.5372 -0.4265
  123MOL0     C16536   0.469   5.038  10.039 -0.3892 -1.1156 -0.3175
  123MOL0     C16537   0.497   5.187  10.016  1.2674  0.6818  0.8418
  123MOL0     H16538   0.280   5.112  10.520 -1.0228 -0.1617  0.6210
  123MOL0     H16539   0.163   5.273  10.646  1.3343  0.1016 -0.6843
  123MOL0     H16540  -0.230   5.448  10.465 -2.4533  2.9874  2.1436
  123MOL0     H16541  -0.279   5.296  10.538 -1.5119  0.8254 -0.4825
  123MOL0     H16542  -0.265   5.574  10.677  1.0385 -0.9245  0.9831
  123MOL0     H16543  -0.298   5.420  10.755 -2.1665 -2.7000 -1.6935
  123MOL0     H16544  -0.500   5.393  10.640  0.6844 -0.1048 -0.8739
  123MOL0     H16545  -0.458   5.513  10.515  1.3509  2.8332  0.0745
  123MOL0     H16546  -0.510   5.569  10.814 -2.9111 -1.9882 -0.0293
  123MOL0     H16547  -0.470   5.688  10.696 -2.2242  1.7567  0.1029
  123MOL0     H16548  -0.694   5.607  10.569 -1.7083  1.0066  0.4168
  123MOL0     H16549  -0.730   5.543  10.735  1.5220 -2.4535 -1.3864
  123MOL0     H16550  -0.736   5.760  10.828  0.4525  0.2147  0.4957
  123MOL0     H16551  -0.641   5.841  10.693 -1.7655  0.3764 -1.4060
  123MOL0     H16552  -0.915   5.722  10.688 -0.3833  1.5828  0.7545
  123MOL0     H16553  -0.841   5.786  10.539  0.4289  5.3636 -0.3749
  123MOL0     H16554  -0.892   5.931  10.806 -2.0716 -1.3304 -0.3218
  123MOL0     H16555  -0.787   5.995  10.674 -1.1547  0.0311 -1.1222
  123MOL0     H16556  -1.148   5.804  10.626 -1.6030  1.9402  2.9259
  123MOL0     H16557  -1.368   6.034  10.410 -1.0418 -1.3817  1.1544
  123MOL0     H16558  -1.333   5.861  10.450 -3.3717 -0.9534  0.0967
  123MOL0     H16559  -1.486   5.879  10.623 -0.2694  1.2445  2.5720
  123MOL0     H16560  -1.394   5.994  10.702 -0.9884  1.0297  0.2987
  123MOL0     H16561  -1.596   6.066  10.498  1.6572 -1.1755 -0.4509
  123MOL0     H16562  -1.490   6.184  10.583 -0.7177 -0.3877 -2.9199
  123MOL0     H16563  -1.709   6.211  10.662 -1.4961 -1.7552  0.7284
  123MOL0     H16564  -1.583   6.175  10.779 -1.6536  1.0059  1.8464
  123MOL0     H16565  -1.924   6.113  10.860 -1.9872  3.0214 -0.8283
  123MOL0     H16566  -2.170   6.102  10.776  0.2524  2.4381 -0.6798
  123MOL0     H16567  -2.564   5.843  10.642 -2.0656 -0.7856  0.1355
  123MOL0     H16568  -2.775   5.890  10.559 -0.1597 -1.2933 -4.4150
  123MOL0     H16569  -2.990   6.110  10.531 -0.4924 -1.1231 -0.7372
  123MOL0     H16570  -2.872   6.254  10.527 -0.1971  0.5054 -0.4747
  123MOL0     H16571  -3.080   6.324  10.428 -2.0702 -1.8421  0.7751
  123MOL0     H16572  -2.959   6.294  10.293 -0.3588  2.2901  0.8800
  123MOL0     H16573  -3.074   6.087  10.247  0.3308 -0.2479  1.0840
  123MOL0     H16574  -3.154   6.081  10.397  3.4647 -4.7355 -2.4014
  123MOL0     H16575  -3.172   6.295  10.176 -1.3360 -0.3523 -0.4489
  123MOL0     H16576  -3.273   6.304  10.318  3.3157 -0.6035  2.4681
  123MOL0     H16577  -3.400   6.101  10.209  0.0223  0.5189  2.1843
  123MOL0     H16578  -3.270   6.088  10.093  1.4340  1.4995  0.2053
  123MOL0     H16579  -3.445   6.339  10.109 -0.8190 -0.0503 -0.7662
  123MOL0     H16580  -3.307   6.315  10.009  0.1505 -3.0598 -3.0910
  123MOL0     H16581  -3.417   6.122   9.915  0.9490  1.0272 -0.0250
  123MOL0     H16582  -3.486   6.270   9.872  0.1047 -0.8635 -0.3308
  123MOL0     H16583  -3.669   6.259  10.034  1.0895  0.3518  0.6463
  123MOL0     H16584  -3.660   6.118   9.916 -3.1492  3.1298 -0.2192
  123MOL0     H16585  -2.655   6.277  10.417 -1.4387 -0.0197  0.9422
  123MOL0     H16586  -2.436   6.241  10.533 -0.4882 -0.1420 -0.3234
  123MOL0     H16587  -2.022   5.911  10.426  0.4688  0.6291  0.1847
  123MOL0     H16588  -1.804   5.884  10.516 -1.4091 -1.0475 -2.1860
  123MOL0     H16589  -0.159   5.231  10.346 -0.0340 -0.2419 -0.7030
  123MOL0     H16590  -0.046   5.091  10.225 -0.2756 -0.9797 -0.8097
  123MOL0     H16591   0.291   4.786  10.211 -0.2334 -1.0212 -0.2688
  123MOL0     H16592   0.469   4.653  10.101  3.2998 -0.7828 -2.1823
  123MOL0     H16593   0.656   4.580  10.083 -2.2242  0.4521 -1.4413
  123MOL0     H16594   0.799   4.687  10.111  1.6120 -0.5351 -0.2807
  123MOL0     H16595   0.772   4.540   9.858 -1.3988  2.0560 -0.9111
  123MOL0     H16596   0.844   4.474  10.003 -3.3807 -0.3926  1.5946
  123MOL0     H16597   0.986   4.677  10.008 -0.5156 -1.8049  0.3933
  123MOL0     H16598   0.929   4.735   9.849 -1.2954  0.6370  0.9424
  123MOL0     H16599   1.072   4.484   9.913 -0.6650  1.6001  1.8462
  123MOL0     H16600   0.991   4.510   9.751 -2.8994  0.9300  0.4990
  123MOL0     H16601   1.339   4.749   9.727  0.6760 -0.8870  0.4163
  123MOL0     H16602   0.640   4.995   9.919 -2.0570  3.2852 -0.1112
  123MOL0     H16603   0.501   5.209   9.909  1.4793 -3.2283 -0.0714
  123MOL0     H16604   0.433   5.260  10.067 -2.0026 -0.8791 -0.7266
  123MOL0     H16605   0.597   5.206  10.058  1.1585  2.4949  0.3868
  124MOL0     O16606   2.562   6.021   3.155 -0.8417  0.5381 -1.0663
  124MOL0     C16607   2.577   6.113   3.074  0.0752 -0.0449  0.4304
  124MOL0     O16608   2.483   6.190   3.028  0.6191  0.0858  0.7619
  124MOL0     C16609   2.351   6.153   3.028 -0.4064 -0.5444 -0.9184
  124MOL0     C16610   2.263   6.257   3.059  0.1288 -1.0939  0.0964
  124MOL0     C16611   2.124   6.245   3.045  0.7319 -0.4902  0.3867
  124MOL0     C16612   2.074   6.118   3.016 -0.2674 -0.5296  0.4914
  124MOL0     O16613   1.938   6.094   3.001  0.1308  0.3403 -0.1846
  124MOL0     C16614   1.868   6.111   3.125  0.7584 -0.3026  0.5919
  124MOL0     C16615   1.723   6.077   3.103  1.0116  0.1956 -0.6411
  124MOL0     C16616   1.648   6.194   3.039  0.4789  0.0972 -0.8970
  124MOL0     C16617   1.496   6.164   3.001 -0.8104  0.4467 -0.0821
  124MOL0     C16618   1.408   6.292   2.992  0.2163  0.4685 -0.0345
  124MOL0     C16619   1.455   6.400   2.891  0.4939  0.0621  0.2293
  124MOL0     C16620   1.377   6.534   2.899 -0.3461 -0.3476 -0.3156
  124MOL0     C16621   1.455   6.659   2.847 -0.5182 -0.2588 -0.2828
  124MOL0     N16622   1.384   6.784   2.868 -0.1319  0.2004 -0.1232
  124MOL0     C16623   1.420   6.895   2.934 -0.4986 -0.8905 -0.3032
  124MOL0     C16624   1.316   6.982   2.918 -1.0582 -0.7807  0.1038
  124MOL0     C16625   1.307   7.125   2.970 -0.0688  0.0387 -0.5569
  124MOL0     C16626   1.316   7.231   2.852 -0.6524  0.0299 -0.2294
  124MOL0     C16627   1.314   7.378   2.904 -0.0407  0.1209  0.6378
  124MOL0     C16628   1.451   7.413   2.937  0.3565 -0.4072 -0.2167
  124MOL0     O16629   1.452   7.541   2.993 -0.0468  0.0613 -0.4751
  124MOL0     C16630   1.563   7.623   2.995 -0.1305 -0.1984  0.1758
  124MOL0     C16631   1.567   7.712   3.104  0.4545 -0.2831  0.4109
  124MOL0     C16632   1.682   7.795   3.121  0.1446  0.1974  0.8624
  124MOL0     C16633   1.796   7.788   3.040 -0.0039 -0.5902  0.1145
  124MOL0     C16634   1.912   7.876   3.052 -0.5948 -0.1164 -0.3015
  124MOL0     O16635   1.896   7.992   3.120  0.0879  0.0125 -0.1864
  124MOL0     C16636   2.014   8.065   3.135  0.3187  1.0782 -0.6127
  124MOL0     C16637   2.008   8.208   3.135  0.7461 -0.3733  0.0461
  124MOL0     C16638   2.120   8.288   3.157 -0.2168  0.2745  0.9953
  124MOL0     C16639   2.239   8.228   3.191 -0.5560 -0.3155  0.4296
  124MOL0     O16640   2.353   8.305   3.218  0.3153  0.0924  0.5787
  124MOL0     C16641   2.390   8.411   3.136 -0.0628 -0.8781  1.0866
  124MOL0     C16642   2.532   8.459   3.161 -0.8133 -0.1118  0.5783
  124MOL0     C16643   2.640   8.382   3.094 -0.0332 -0.5208  0.5284
  124MOL0     C16644   2.774   8.456   3.084  0.5550 -0.0055  0.4228
  124MOL0     C16645   2.883   8.367   3.030  0.5796 -0.2733  0.3219
  124MOL0     C16646   3.025   8.427   3.038 -0.2186  0.0030 -0.8640
  124MOL0     C16647   3.036   8.552   2.948 -0.8739  0.3564 -0.1791
  124MOL0     C16648   3.190   8.586   2.968  0.1148  0.3970  0.5886
  124MOL0    Cl16649   3.215   8.648   3.147 -0.7691  0.1393  0.3349
  124MOL0     C16650   2.245   8.089   3.203 -0.6345 -0.0416  0.6906
  124MOL0     C16651   2.134   8.015   3.168  0.1697 -0.7925 -0.5938
  124MOL0     O16652   2.003   7.856   2.981  0.3980 -0.3284 -0.9500
  124MOL0     C16653   1.798   7.684   2.947  0.2078  0.5550 -0.0191
  124MOL0     C16654   1.690   7.607   2.921 -0.0721 -0.4940  0.1218
  124MOL0     N16655   1.211   6.904   2.867  0.7784 -0.7738 -0.0939
  124MOL0     N16656   1.252   6.788   2.854 -0.0196 -0.0727  0.5956
  124MOL0     C16657   2.157   6.009   2.996 -0.5968  0.0960  0.4190
  124MOL0     C16658   2.297   6.023   3.008  0.4784  0.5296  0.4721
  124MOL0     C16659   2.718   6.157   3.052  0.8164 -0.5206  1.0166
  124MOL0     C16660   2.811   6.131   3.148 -0.9172  0.4674 -0.0571
  124MOL0     C16661   2.947   6.169   3.124  0.1214 -0.0579 -0.6546
  124MOL0     C16662   2.985   6.240   3.012  0.3771 -0.0226  0.9026
  124MOL0     O16663   3.105   6.291   3.004 -0.1974  0.7080  0.0032
  124MOL0     C16664   3.126   6.434   2.996 -0.2594 -0.7215 -0.0825
  124MOL0     C16665   3.270   6.467   2.963 -0.5312  0.5823  0.0844
  124MOL0     C16666   3.340   6.517   3.083 -0.5822  0.0049  1.6081
  124MOL0     C16667   3.383   6.400   3.178 -0.9009 -0.0747 -0.5845
  124MOL0     C16668   3.486   6.320   3.113 -1.2032 -0.0829 -0.4472
  124MOL0     C16669   3.568   6.262   3.046  0.3953  0.4775  0.4870
  124MOL0     C16670   2.887   6.276   2.922  0.2023  0.0375 -0.2453
  124MOL0     C16671   2.756   6.237   2.936  0.2120  1.2356 -0.6376
  124MOL0     C16672   2.661   6.267   2.820  0.2119  0.6351  0.4512
  124MOL0     H16673   2.293   6.359   3.082 -2.1669  0.0092 -1.2966
  124MOL0     H16674   2.057   6.329   3.052  0.7359  0.1431 -4.1903
  124MOL0     H16675   1.906   6.035   3.193  0.3499 -1.0415  0.0033
  124MOL0     H16676   1.882   6.210   3.169  0.1259  0.2233 -0.3484
  124MOL0     H16677   1.672   6.038   3.192  1.8184  2.0576  0.6909
  124MOL0     H16678   1.722   5.989   3.038 -1.2238 -0.9960  0.8922
  124MOL0     H16679   1.696   6.228   2.947  1.6626  0.9702  0.0068
  124MOL0     H16680   1.651   6.283   3.102  4.7045  0.3744 -1.2587
  124MOL0     H16681   1.491   6.113   2.905 -0.1865 -1.4560  0.8612
  124MOL0     H16682   1.454   6.101   3.079  0.7681 -1.5957 -0.8100
  124MOL0     H16683   1.304   6.265   2.972  0.9124 -1.1099 -1.7766
  124MOL0     H16684   1.424   6.332   3.092  1.1649 -0.0444  0.0304
  124MOL0     H16685   1.560   6.422   2.915  0.1920 -0.0122  1.6653
  124MOL0     H16686   1.452   6.357   2.790 -0.5868  2.3056 -0.7472
  124MOL0     H16687   1.365   6.557   3.005  1.0735 -0.6060 -0.0791
  124MOL0     H16688   1.278   6.529   2.852 -1.1356 -1.5782  1.3704
  124MOL0     H16689   1.556   6.665   2.887 -1.2876  0.1850  1.7432
  124MOL0     H16690   1.466   6.659   2.738  0.1943 -0.5483 -0.2174
  124MOL0     H16691   1.509   6.932   2.983 -1.1464 -0.9102  0.9159
  124MOL0     H16692   1.221   7.140   3.035  0.3947  0.5856 -0.0506
  124MOL0     H16693   1.394   7.150   3.032  0.1207 -0.0002 -0.8068
  124MOL0     H16694   1.404   7.207   2.791  0.4910 -0.6258  1.5898
  124MOL0     H16695   1.224   7.221   2.793 -1.1955 -2.2282  0.8829
  124MOL0     H16696   1.251   7.391   2.992  0.5566 -3.8657  1.8248
  124MOL0     H16697   1.281   7.452   2.830  1.9631  0.9564  0.5380
  124MOL0     H16698   1.520   7.406   2.852  2.4965  0.4298  1.3680
  124MOL0     H16699   1.480   7.352   3.023 -0.1563  1.4281  1.3312
  124MOL0     H16700   1.473   7.729   3.155 -0.6521  0.4797 -1.7665
  124MOL0     H16701   1.680   7.869   3.200 -0.2375  1.3393 -0.2042
  124MOL0     H16702   1.913   8.245   3.098  1.3205 -0.3075 -1.4065
  124MOL0     H16703   2.110   8.395   3.145 -0.0523  0.1454 -0.5319
  124MOL0     H16704   2.387   8.365   3.036 -1.5528 -0.8220  1.0900
  124MOL0     H16705   2.315   8.490   3.142 -0.2168 -0.4738 -2.9122
  124MOL0     H16706   2.538   8.562   3.126 -0.8941  1.2735  4.2595
  124MOL0     H16707   2.545   8.459   3.269 -0.6028 -1.0522  0.5649
  124MOL0     H16708   2.663   8.294   3.156  1.0695  0.0082  0.8992
  124MOL0     H16709   2.606   8.352   2.995  0.3434  4.2131 -1.2437
  124MOL0     H16710   2.808   8.505   3.175 -2.2257 -1.3481  2.3081
  124MOL0     H16711   2.749   8.538   3.016  2.0613  1.1842  1.2530
  124MOL0     H16712   2.850   8.347   2.927 -1.3369  1.5324  0.5130
  124MOL0     H16713   2.887   8.265   3.071  0.9482 -0.9999 -1.4166
  124MOL0     H16714   3.057   8.449   3.140 -3.2849  0.2244  0.1520
  124MOL0     H16715   3.083   8.340   3.007 -1.6454 -0.7168 -1.6354
  124MOL0     H16716   2.976   8.631   2.993 -0.6408  1.1631 -1.2710
  124MOL0     H16717   3.006   8.532   2.845 -0.4920 -2.4903  0.1627
  124MOL0     H16718   3.253   8.499   2.952 -1.8200 -0.6189 -2.3577
  124MOL0     H16719   3.212   8.662   2.892  0.4418 -1.5928 -1.4124
  124MOL0     H16720   2.336   8.046   3.244 -0.6923  0.1601  1.0323
  124MOL0     H16721   2.147   7.909   3.190  0.8413 -0.5794  0.1021
  124MOL0     H16722   1.891   7.665   2.895 -0.7970  0.5998 -1.9375
  124MOL0     H16723   1.689   7.529   2.846 -2.7593 -1.1336  0.7226
  124MOL0     H16724   2.116   5.915   2.960  0.0420  0.5897 -1.7414
  124MOL0     H16725   2.353   5.932   2.988  1.0136  0.4250  2.2765
  124MOL0     H16726   2.797   6.069   3.236  2.0384 -0.5577 -0.1938
  124MOL0     H16727   3.020   6.135   3.197 -0.5300 -0.7552 -0.3201
  124MOL0     H16728   3.100   6.476   3.094  0.8574  0.1822 -0.1461
  124MOL0     H16729   3.058   6.467   2.917 -2.1551  0.2624  1.8422
  124MOL0     H16730   3.263   6.552   2.894 -5.0297 -0.9093 -1.6496
  124MOL0     H16731   3.313   6.385   2.905 -0.7344  3.0721 -3.9816
  124MOL0     H16732   3.283   6.594   3.136 -0.4978  2.4271 -1.4873
  124MOL0     H16733   3.426   6.574   3.047 -1.1850 -0.9452 -1.7402
  124MOL0     H16734   3.437   6.452   3.258  2.0198 -1.2489 -1.6503
  124MOL0     H16735   3.305   6.338   3.224 -1.4395  0.7490 -0.3609
  124MOL0     H16736   3.632   6.196   2.990  0.6809  1.4587 -0.3960
  124MOL0     H16737   2.905   6.346   2.841 -0.9694  1.0126  0.3141
  124MOL0     H16738   2.605   6.180   2.784  0.9390 -1.4425  3.8494
  124MOL0     H16739   2.598   6.349   2.854  2.3091  3.6105 -2.2320
  124MOL0     H16740   2.712   6.293   2.727  0.0961 -1.2709 -0.1954
  125MOL0     O16741   3.028   8.536   1.248 -0.2905  0.1157 -0.2072
  125MOL0     C16742   3.087   8.523   1.359 -0.4133  0.4052  0.5022
  125MOL0     O16743   3.048   8.453   1.462  0.3206 -0.1212  0.0344
  125MOL0     C16744   2.933   8.380   1.446 -0.3704  0.2037  0.0873
  125MOL0     C16745   2.936   8.242   1.447 -0.8100 -0.1484 -0.0540
  125MOL0     C16746   2.818   8.170   1.446  0.1125 -0.4500 -0.4144
  125MOL0     C16747   2.695   8.230   1.442 -0.4617  0.5137 -0.0343
  125MOL0     O16748   2.587   8.149   1.468  0.0601 -0.4719  1.1018
  125MOL0     C16749   2.450   8.201   1.490 -0.3191 -0.7025 -0.0446
  125MOL0     C16750   2.361   8.218   1.369 -0.1963 -0.0274 -0.6801
  125MOL0     C16751   2.214   8.275   1.382  0.4727 -0.1204  0.8702
  125MOL0     C16752   2.120   8.148   1.386 -0.6737  0.1814  0.1536
  125MOL0     C16753   1.984   8.181   1.433 -0.1608  0.3973 -0.1226
  125MOL0     C16754   1.879   8.069   1.400  0.5798  0.0564 -0.1554
  125MOL0     C16755   1.729   8.116   1.429 -0.3704  0.2492  0.2407
  125MOL0     C16756   1.704   8.131   1.577 -0.8248 -0.4852  0.2704
  125MOL0     N16757   1.621   8.025   1.631 -0.1098  0.1472  1.0054
  125MOL0     C16758   1.500   7.979   1.580 -0.2128  0.3927  0.0394
  125MOL0     C16759   1.448   7.896   1.680  0.5936  0.0350  0.9945
  125MOL0     C16760   1.307   7.842   1.675 -0.5711  0.3031 -0.5121
  125MOL0     C16761   1.254   7.791   1.817  0.5044 -0.1271  0.4682
  125MOL0     C16762   1.141   7.689   1.785  0.0878  0.4152  0.8045
  125MOL0     C16763   1.135   7.574   1.887  0.4676 -0.6166  0.0437
  125MOL0     O16764   1.065   7.632   2.001 -0.8517 -0.2829 -0.2494
  125MOL0     C16765   1.053   7.544   2.109 -0.3520 -0.0118  0.2990
  125MOL0     C16766   1.108   7.418   2.135 -0.4297  0.5849 -0.7334
  125MOL0     C16767   1.077   7.352   2.254  0.1264 -0.9978 -0.7400
  125MOL0     C16768   0.985   7.406   2.349 -0.6913  0.2352  0.0043
  125MOL0     C16769   0.980   7.345   2.489 -0.1596  0.1746  0.5646
  125MOL0     O16770   0.869   7.376   2.566 -0.2709 -0.2897  0.2676
  125MOL0     C16771   0.876   7.337   2.693 -0.8648  0.3968 -0.0143
  125MOL0     C16772   0.873   7.194   2.732  0.4404  0.1849  0.0581
  125MOL0     C16773   0.895   7.164   2.865 -1.7823 -0.4434  0.2932
  125MOL0     C16774   0.924   7.261   2.971 -0.6976 -0.2605  0.0076
  125MOL0     O16775   0.937   7.210   3.101  0.3358  0.0013 -0.1675
  125MOL0     C16776   0.947   7.290   3.224 -0.2924  0.0799 -0.1324
  125MOL0     C16777   1.087   7.294   3.282  0.1215 -0.2020  0.1407
  125MOL0     C16778   1.116   7.185   3.381  0.8486 -0.4436 -0.0554
  125MOL0     C16779   1.272   7.203   3.403  1.0273  0.2454 -0.5517
  125MOL0     C16780   1.318   7.103   3.513 -0.0756  0.7885 -0.3973
  125MOL0     C16781   1.474   7.107   3.521 -0.5454 -0.1051  0.0885
  125MOL0     C16782   1.537   7.228   3.586 -0.0838  0.4812  0.3161
  125MOL0     C16783   1.691   7.249   3.543  0.0300  0.6412  0.7762
  125MOL0    Cl16784   1.806   7.155   3.642 -0.1645 -0.0649  0.1101
  125MOL0     C16785   0.923   7.392   2.929 -0.1441 -0.3499  0.2125
  125MOL0     C16786   0.889   7.435   2.794 -0.3063  0.8479  0.4459
  125MOL0     O16787   1.061   7.260   2.518 -1.0442 -0.1506  0.2990
  125MOL0     C16788   0.928   7.533   2.315  0.1372  0.8290 -0.5222
  125MOL0     C16789   0.968   7.600   2.200  0.2017  0.8258  0.1209
  125MOL0     N16790   1.530   7.920   1.792  0.1293  0.8256  0.2619
  125MOL0     N16791   1.634   7.988   1.762  0.3011  0.0882 -0.2855
  125MOL0     C16792   2.693   8.367   1.416  0.0560  0.0190 -0.4018
  125MOL0     C16793   2.808   8.444   1.429 -0.2816  0.0625 -1.0475
  125MOL0     C16794   3.214   8.601   1.399  1.1517  0.0525  0.2764
  125MOL0     C16795   3.273   8.589   1.526  0.3064 -0.3171  1.2846
  125MOL0     C16796   3.391   8.664   1.558 -0.3381  1.3638  0.2572
  125MOL0     C16797   3.453   8.746   1.459  0.0727  0.0347  1.2464
  125MOL0     O16798   3.550   8.830   1.497 -0.3732  0.2955  0.1554
  125MOL0     C16799   3.678   8.779   1.469 -0.6082 -0.5127 -0.1405
  125MOL0     C16800   3.782   8.813   1.586 -0.6225 -0.1726  0.0312
  125MOL0     C16801   3.916   8.739   1.567  0.0541 -0.3098  0.5707
  125MOL0     C16802   3.897   8.589   1.578  0.7048  0.0450 -0.0482
  125MOL0     C16803   4.028   8.526   1.596 -1.0078 -0.5640  0.1998
  125MOL0     C16804   4.143   8.477   1.614  1.2844  0.3264  0.0932
  125MOL0     C16805   3.386   8.747   1.335  0.3170  0.2514 -0.1838
  125MOL0     C16806   3.273   8.679   1.305 -0.2136 -0.2003  0.2991
  125MOL0     C16807   3.234   8.685   1.158 -0.8626  0.4373 -0.0506
  125MOL0     H16808   3.027   8.184   1.451  0.3265  1.5822  0.4364
  125MOL0     H16809   2.851   8.071   1.473  2.8878  0.6958  0.7423
  125MOL0     H16810   2.405   8.129   1.559  2.7845 -0.2510  2.7484
  125MOL0     H16811   2.449   8.299   1.538  0.3965 -1.3839  1.4311
  125MOL0     H16812   2.366   8.124   1.314  2.3195 -0.0861 -0.4505
  125MOL0     H16813   2.403   8.297   1.307 -1.0133  0.1716 -0.9950
  125MOL0     H16814   2.182   8.341   1.301  1.0626  1.9248  2.2334
  125MOL0     H16815   2.213   8.338   1.472 -2.1331  0.6904  0.3675
  125MOL0     H16816   2.109   8.100   1.288  2.4944 -1.8870  0.6642
  125MOL0     H16817   2.171   8.076   1.450  1.6952  0.1455 -1.6294
  125MOL0     H16818   1.987   8.204   1.540  0.2777 -0.9746  0.1708
  125MOL0     H16819   1.950   8.270   1.379 -1.5305 -1.2581 -2.1502
  125MOL0     H16820   1.873   8.049   1.293  0.1355  1.6557 -0.4575
  125MOL0     H16821   1.904   7.979   1.457  1.3290  0.6749  0.5159
  125MOL0     H16822   1.662   8.041   1.385 -0.1919 -0.1985  0.7196
  125MOL0     H16823   1.709   8.212   1.381  1.4320  0.6813  0.2807
  125MOL0     H16824   1.800   8.142   1.629 -2.2163  0.1871  2.8852
  125MOL0     H16825   1.653   8.226   1.591  1.0054  0.5186  0.4446
  125MOL0     H16826   1.454   7.999   1.483  0.9837 -0.2194 -0.6756
  125MOL0     H16827   1.246   7.919   1.629  0.5388  2.1191  0.9076
  125MOL0     H16828   1.313   7.758   1.604  0.3103  0.4622 -0.6384
  125MOL0     H16829   1.339   7.741   1.864 -0.5023  0.6234  3.3426
  125MOL0     H16830   1.221   7.866   1.891  0.2258  0.9959 -0.7559
  125MOL0     H16831   1.156   7.638   1.690 -1.6075 -2.3417  1.9044
  125MOL0     H16832   1.043   7.737   1.789 -0.0743  0.0397  1.4764
  125MOL0     H16833   1.239   7.550   1.911  0.8689 -0.2485 -1.2605
  125MOL0     H16834   1.086   7.485   1.848  2.7352 -1.0138 -2.1803
  125MOL0     H16835   1.181   7.378   2.065 -0.5820  1.5740 -1.4906
  125MOL0     H16836   1.130   7.258   2.262  2.4356  0.3819  3.6752
  125MOL0     H16837   0.863   7.106   2.669 -0.8352  0.4805 -0.1780
  125MOL0     H16838   0.908   7.063   2.903  0.8831  0.6168  2.5044
  125MOL0     H16839   0.918   7.389   3.187  1.7140 -0.7980 -4.9058
  125MOL0     H16840   0.874   7.250   3.294  2.1875 -1.8266  1.5404
  125MOL0     H16841   1.156   7.277   3.199 -0.2264 -0.0098 -0.1920
  125MOL0     H16842   1.104   7.396   3.317 -2.0907  0.7258 -1.2529
  125MOL0     H16843   1.073   7.226   3.473  4.8909  0.6133  1.6228
  125MOL0     H16844   1.076   7.086   3.359 -0.0691 -0.3825  1.2261
  125MOL0     H16845   1.305   7.305   3.427  1.9563  0.2348 -1.6401
  125MOL0     H16846   1.322   7.180   3.308  1.4140  0.6760 -0.4636
  125MOL0     H16847   1.275   7.010   3.474  0.1865  0.8447 -0.8343
  125MOL0     H16848   1.273   7.127   3.609  1.5662  0.3871  0.5198
  125MOL0     H16849   1.505   7.022   3.583 -0.8501  1.0557  1.9064
  125MOL0     H16850   1.526   7.095   3.426  0.1810 -0.8838  0.5718
  125MOL0     H16851   1.544   7.223   3.695  0.0933 -1.8942  0.2530
  125MOL0     H16852   1.483   7.317   3.550  0.8024  1.2060  0.7392
  125MOL0     H16853   1.697   7.227   3.436 -1.7145 -0.7126  0.9088
  125MOL0     H16854   1.720   7.354   3.552 -2.8684  1.5769  0.3324
  125MOL0     H16855   0.960   7.473   2.992  0.1590 -2.3028  2.6969
  125MOL0     H16856   0.905   7.539   2.769  1.7268  0.2093 -1.2195
  125MOL0     H16857   0.860   7.576   2.388  0.6107  2.5891 -1.0813
  125MOL0     H16858   0.924   7.699   2.188 -2.7809 -0.3504  0.5175
  125MOL0     H16859   2.603   8.427   1.408  0.2340  0.7989  2.2131
  125MOL0     H16860   2.813   8.552   1.428  1.8272  0.0217 -0.4626
  125MOL0     H16861   3.231   8.522   1.600 -0.0460 -4.0306 -1.9509
  125MOL0     H16862   3.427   8.666   1.660  0.9490 -2.5876  0.0230
  125MOL0     H16863   3.708   8.818   1.372  2.9609  0.3498  1.1268
  125MOL0     H16864   3.678   8.672   1.449  1.1267 -0.6040  0.1873
  125MOL0     H16865   3.728   8.783   1.677 -2.3595 -0.0406 -0.9138
  125MOL0     H16866   3.809   8.918   1.600  2.3791 -0.7957 -0.3639
  125MOL0     H16867   3.995   8.762   1.639 -0.9968 -2.3884  2.5573
  125MOL0     H16868   3.940   8.759   1.462 -1.2529 -0.5335  0.2112
  125MOL0     H16869   3.849   8.567   1.674  2.6434  1.2347  1.2515
  125MOL0     H16870   3.834   8.548   1.498 -0.0604 -2.1256  1.5772
  125MOL0     H16871   4.245   8.446   1.622  2.8313  3.6177 -3.2824
  125MOL0     H16872   3.423   8.814   1.258  2.7345 -0.8739 -0.0665
  125MOL0     H16873   3.144   8.741   1.134 -0.0473  1.7570 -0.0995
  125MOL0     H16874   3.305   8.731   1.089 -2.2907 -1.4785 -2.9757
  125MOL0     H16875   3.231   8.581   1.125 -1.4858  0.3932  0.1208
  126MOL0     O16876   2.374   5.291   4.269 -0.3371 -0.9049 -0.5547
  126MOL0     C16877   2.369   5.210   4.169 -0.3893 -0.0718  0.1776
  126MOL0     O16878   2.466   5.195   4.068  0.3508  0.3411 -0.4780
  126MOL0     C16879   2.553   5.294   4.045 -0.2502 -1.1184 -0.4313
  126MOL0     C16880   2.545   5.404   3.952  0.1687  0.3456  0.2299
  126MOL0     C16881   2.645   5.490   3.915 -0.1381 -0.2931 -0.0019
  126MOL0     C16882   2.766   5.481   3.993  0.6630 -0.4544  0.2717
  126MOL0     O16883   2.872   5.572   3.987 -0.5110 -0.2280 -0.6942
  126MOL0     C16884   2.844   5.707   3.946  0.2768  0.4768  0.3358
  126MOL0     C16885   2.898   5.752   3.808 -0.8369  0.2677  0.3569
  126MOL0     C16886   3.043   5.708   3.780  0.4673  0.8424  1.1896
  126MOL0     C16887   3.082   5.780   3.660 -0.6519  0.8336 -0.1572
  126MOL0     C16888   3.217   5.724   3.611 -1.8861 -0.0317  1.1309
  126MOL0     C16889   3.326   5.734   3.707 -0.4395 -0.3710 -0.0075
  126MOL0     C16890   3.448   5.675   3.636 -0.1422 -0.1084  0.5148
  126MOL0     C16891   3.555   5.647   3.734  1.1606 -0.1461 -0.4624
  126MOL0     N16892   3.604   5.763   3.800  0.0343 -0.3787 -0.9540
  126MOL0     C16893   3.667   5.875   3.749  0.5107  0.3480 -0.1020
  126MOL0     C16894   3.656   5.979   3.834  0.4147  0.0241  0.1648
  126MOL0     C16895   3.676   6.123   3.788 -0.9508 -0.2127  0.0184
  126MOL0     C16896   3.807   6.157   3.717  0.0202 -0.3032 -0.1914
  126MOL0     C16897   3.913   6.151   3.820 -0.2824 -0.0906 -0.2138
  126MOL0     C16898   4.053   6.207   3.764  0.3472  0.3676 -0.2635
  126MOL0     O16899   4.046   6.350   3.759 -0.0125 -0.2975  0.2614
  126MOL0     C16900   4.151   6.418   3.704 -0.3166 -0.7326 -0.2070
  126MOL0     C16901   4.143   6.551   3.655  0.1581  0.2898 -0.6789
  126MOL0     C16902   4.247   6.628   3.602  1.0789  0.4008 -0.5553
  126MOL0     C16903   4.373   6.566   3.587  0.3890 -0.7097  0.8222
  126MOL0     C16904   4.481   6.635   3.515 -0.2417 -0.7523  0.2379
  126MOL0     O16905   4.460   6.773   3.476 -0.4523 -0.5329 -0.2789
  126MOL0     C16906   4.567   6.828   3.406 -0.4445  0.4623  1.4934
  126MOL0     C16907   4.544   6.858   3.270 -0.1511  0.4363 -0.2923
  126MOL0     C16908   4.649   6.912   3.191  0.7596 -0.1580 -0.5891
  126MOL0     C16909   4.775   6.932   3.235  0.2436  0.4466 -0.2353
  126MOL0     O16910   4.873   6.981   3.149  0.6997 -0.3245  1.1537
  126MOL0     C16911   5.001   7.018   3.209  0.1603 -0.1947 -0.1093
  126MOL0     C16912   5.089   7.053   3.086 -0.1511  0.0262 -0.1498
  126MOL0     C16913   5.238   7.098   3.124  0.8754 -0.4635  1.2340
  126MOL0     C16914   5.329   6.996   3.187 -0.0508  0.0073  0.8569
  126MOL0     C16915   5.460   7.061   3.222 -0.0077  0.0969 -0.0178
  126MOL0     C16916   5.457   7.158   3.345 -0.5826 -0.4047 -0.4500
  126MOL0     C16917   5.577   7.243   3.345  1.2384  0.5524 -0.5440
  126MOL0     C16918   5.571   7.346   3.456  0.5131 -0.2381  0.3293
  126MOL0    Cl16919   5.718   7.455   3.457 -0.1348  0.1147 -0.9624
  126MOL0     C16920   4.800   6.895   3.371 -0.6032 -0.1014 -0.7585
  126MOL0     C16921   4.696   6.846   3.454  0.0071 -1.1394  0.2673
  126MOL0     O16922   4.575   6.560   3.484  0.6850  0.5877 -0.2224
  126MOL0     C16923   4.385   6.433   3.632 -1.0455 -0.5937  0.0357
  126MOL0     C16924   4.275   6.365   3.689 -0.7422  0.4174  0.1828
  126MOL0     N16925   3.570   5.935   3.937 -0.3852 -0.1952 -0.0275
  126MOL0     N16926   3.542   5.808   3.918  0.1323 -0.2397 -0.3278
  126MOL0     C16927   2.769   5.387   4.098 -1.6199 -0.4299 -0.3014
  126MOL0     C16928   2.670   5.289   4.115 -0.3347  0.4905  0.1338
  126MOL0     C16929   2.260   5.111   4.159  0.1935  0.1702  0.0344
  126MOL0     C16930   2.268   5.008   4.061  0.4133  0.2303 -0.0404
  126MOL0     C16931   2.164   4.919   4.044  0.0100 -0.2832 -1.1089
  126MOL0     C16932   2.042   4.918   4.122  0.8127  0.8090 -0.0433
  126MOL0     O16933   1.949   4.816   4.099  0.5516  0.3599  0.0715
  126MOL0     C16934   1.869   4.802   4.213 -0.5605  0.2592 -0.1129
  126MOL0     C16935   1.810   4.662   4.216 -0.1270  0.5443 -0.1424
  126MOL0     C16936   1.906   4.544   4.181 -1.0544  0.1057 -0.2909
  126MOL0     C16937   2.021   4.544   4.282 -0.4162 -0.2379  0.7831
  126MOL0     C16938   2.000   4.504   4.423  0.5086 -0.3239 -0.4721
  126MOL0     C16939   1.965   4.477   4.537 -0.2328 -0.1174  0.5230
  126MOL0     C16940   2.028   5.030   4.207 -0.1935  0.4512 -0.2642
  126MOL0     C16941   2.133   5.127   4.228 -0.2110 -0.0306  0.0862
  126MOL0     C16942   2.100   5.237   4.338  0.2332  0.3364  0.0858
  126MOL0     H16943   2.455   5.403   3.891  1.8567 -2.0140 -2.4587
  126MOL0     H16944   2.619   5.563   3.839 -0.2117 -1.2429 -0.9162
  126MOL0     H16945   2.737   5.731   3.947 -0.0960 -0.9342 -1.3917
  126MOL0     H16946   2.896   5.765   4.022  1.2298 -0.7859  0.6832
  126MOL0     H16947   2.884   5.860   3.816 -4.5518  0.0338 -1.1240
  126MOL0     H16948   2.832   5.717   3.728 -1.9707 -2.4512  2.3223
  126MOL0     H16949   3.055   5.600   3.775 -0.7210  0.7405  0.0220
  126MOL0     H16950   3.102   5.729   3.869 -0.3279 -2.1056  2.5023
  126MOL0     H16951   2.999   5.760   3.592 -0.2664 -1.8867  0.0760
  126MOL0     H16952   3.100   5.887   3.677  0.8022  0.2529  2.4826
  126MOL0     H16953   3.208   5.620   3.579 -0.2689  0.6020 -1.7180
  126MOL0     H16954   3.249   5.783   3.524  0.4425  1.3132  2.7911
  126MOL0     H16955   3.346   5.841   3.722  2.2645 -0.9267  0.7868
  126MOL0     H16956   3.305   5.683   3.801 -2.6761 -1.1142 -0.8335
  126MOL0     H16957   3.478   5.748   3.561  1.3312 -0.8913  0.2986
  126MOL0     H16958   3.435   5.581   3.581  2.1546  0.0473 -0.4004
  126MOL0     H16959   3.523   5.582   3.816 -1.1737  1.8943  0.3783
  126MOL0     H16960   3.637   5.610   3.672  0.4506 -3.3981  0.3291
  126MOL0     H16961   3.716   5.883   3.652  2.1856  0.3863  0.7221
  126MOL0     H16962   3.592   6.153   3.726 -0.4038 -1.7109 -1.5384
  126MOL0     H16963   3.673   6.178   3.883 -2.5932  1.8770 -1.1561
  126MOL0     H16964   3.837   6.088   3.637 -1.4190  1.1505 -2.0685
  126MOL0     H16965   3.789   6.253   3.669 -4.0096 -0.3090  0.9653
  126MOL0     H16966   3.945   6.048   3.839  0.6381  0.0996 -0.6705
  126MOL0     H16967   3.883   6.198   3.914 -0.6600 -1.7846  0.5445
  126MOL0     H16968   4.067   6.165   3.663 -0.4469 -0.1312 -0.1792
  126MOL0     H16969   4.140   6.168   3.818 -0.2627 -3.8094 -1.8615
  126MOL0     H16970   4.040   6.579   3.672 -0.0502 -1.4688  1.4422
  126MOL0     H16971   4.239   6.733   3.575  1.5254  1.6640  3.4919
  126MOL0     H16972   4.442   6.846   3.235 -0.4661 -1.1415  1.0236
  126MOL0     H16973   4.637   6.935   3.086 -0.8618  2.0982  0.0261
  126MOL0     H16974   4.985   7.108   3.270 -0.7304 -0.8335  0.6306
  126MOL0     H16975   5.035   6.933   3.269  1.4582  0.9678  0.8664
  126MOL0     H16976   5.090   6.961   3.028 -2.7773 -0.4348  0.3907
  126MOL0     H16977   5.037   7.129   3.028  2.1036  0.6164 -1.5295
  126MOL0     H16978   5.284   7.140   3.033 -0.6516  0.5732  0.8955
  126MOL0     H16979   5.237   7.183   3.193 -1.4267 -1.9023  3.0865
  126MOL0     H16980   5.358   6.911   3.125  0.5041 -0.1656  1.3498
  126MOL0     H16981   5.295   6.963   3.286 -1.9173  2.7905  1.2661
  126MOL0     H16982   5.491   7.118   3.134 -2.0278  1.1462 -0.1064
  126MOL0     H16983   5.534   6.984   3.248 -1.0267 -0.5599  1.0098
  126MOL0     H16984   5.363   7.214   3.338 -0.8020 -0.2950  2.2504
  126MOL0     H16985   5.453   7.091   3.432  1.0933 -0.9398 -0.7577
  126MOL0     H16986   5.572   7.293   3.248 -3.0629  1.5228 -0.0550
  126MOL0     H16987   5.666   7.181   3.352  0.3917 -0.6140  0.4471
  126MOL0     H16988   5.479   7.403   3.439  0.1861 -1.2819 -1.6197
  126MOL0     H16989   5.555   7.302   3.555  2.7468 -1.4580  0.2064
  126MOL0     H16990   4.902   6.904   3.405 -0.3501 -1.0384 -1.2514
  126MOL0     H16991   4.705   6.848   3.562 -4.4622  2.0782  0.8636
  126MOL0     H16992   4.475   6.375   3.622  0.5158  0.9572  3.4756
  126MOL0     H16993   4.301   6.269   3.734 -0.5395  1.1956  1.7935
  126MOL0     H16994   2.862   5.393   4.154 -0.4332 -1.8654 -2.0050
  126MOL0     H16995   2.696   5.206   4.180 -1.0039  0.6959  0.6776
  126MOL0     H16996   2.353   4.993   3.995 -1.6284 -1.2680 -2.5171
  126MOL0     H16997   2.187   4.845   3.967 -1.3884 -3.1774  1.0396
  126MOL0     H16998   1.783   4.869   4.211 -0.1899  0.7324 -0.4379
  126MOL0     H16999   1.937   4.814   4.298 -0.3014  5.3403 -0.6997
  126MOL0     H17000   1.736   4.663   4.136 -1.0475  1.0766  0.6993
  126MOL0     H17001   1.761   4.633   4.310 -2.2997  2.9113 -0.4511
  126MOL0     H17002   1.947   4.557   4.080 -1.9933  0.8641 -0.5890
  126MOL0     H17003   1.842   4.456   4.175 -4.5090  2.2947  1.6111
  126MOL0     H17004   2.093   4.481   4.230 -0.4762  0.8410 -0.6563
  126MOL0     H17005   2.074   4.639   4.295  0.8914 -0.8118 -0.2258
  126MOL0     H17006   1.938   4.455   4.638 -2.6053 -0.2486 -0.0754
  126MOL0     H17007   1.938   5.053   4.264  2.0669  4.6488  2.0661
  126MOL0     H17008   1.997   5.225   4.372  0.4235 -2.7228 -0.0795
  126MOL0     H17009   2.163   5.215   4.425 -0.0487 -1.9412 -0.2236
  126MOL0     H17010   2.115   5.339   4.303 -1.7197  0.2672 -1.1266
  127MOL0     O17011   2.486   5.376   1.522  0.3298  0.4177  0.1458
  127MOL0     C17012   2.442   5.415   1.412  0.0153  0.2236 -0.3505
  127MOL0     O17013   2.483   5.524   1.347  0.4735  0.1318 -0.0247
  127MOL0     C17014   2.593   5.589   1.398  0.3581  0.0575  0.7951
  127MOL0     C17015   2.706   5.521   1.451 -0.2807 -0.7962  0.0166
  127MOL0     C17016   2.809   5.587   1.518  0.1433  0.7233  0.5678
  127MOL0     C17017   2.807   5.724   1.528  0.0717  0.3552 -0.1443
  127MOL0     O17018   2.915   5.775   1.598  0.1195 -0.6701  0.1827
  127MOL0     C17019   2.896   5.893   1.693  0.1799 -0.1783  0.8561
  127MOL0     C17020   3.026   5.977   1.697  0.3734 -0.9217 -0.2169
  127MOL0     C17021   3.067   6.051   1.575 -0.3554  0.8321 -0.6351
  127MOL0     C17022   3.159   6.172   1.603  0.2749 -0.1448 -0.6960
  127MOL0     C17023   3.204   6.223   1.468  0.6265  0.1434  0.0080
  127MOL0     C17024   3.115   6.333   1.401 -0.6187 -0.6340 -0.4283
  127MOL0     C17025   3.188   6.430   1.302  0.7230 -0.0398 -0.7708
  127MOL0     C17026   3.286   6.360   1.208 -1.0518 -0.3879 -0.2100
  127MOL0     N17027   3.355   6.454   1.119 -0.2760  0.0623 -0.2773
  127MOL0     C17028   3.293   6.547   1.044  0.3672 -0.1020 -0.9083
  127MOL0     C17029   3.397   6.613   0.982  0.8736  0.2343  0.4193
  127MOL0     C17030   3.387   6.738   0.888 -0.2439  0.3768 -0.0273
  127MOL0     C17031   3.486   6.743   0.774  0.0571  0.9633 -0.5155
  127MOL0     C17032   3.516   6.894   0.740  0.6485  1.2116  0.3298
  127MOL0     C17033   3.629   6.962   0.824 -0.0463  1.2064  1.0097
  127MOL0     O17034   3.754   6.939   0.750 -1.1357 -0.6574  0.0335
  127MOL0     C17035   3.877   6.977   0.806  0.4933 -1.3954  0.6282
  127MOL0     C17036   3.887   7.071   0.910  1.2019 -0.6516 -0.4422
  127MOL0     C17037   4.010   7.113   0.960  0.5817 -0.2547 -0.8905
  127MOL0     C17038   4.132   7.077   0.894 -0.0571 -0.6097 -0.4299
  127MOL0     C17039   4.255   7.143   0.937 -0.9440  0.8149 -0.0832
  127MOL0     O17040   4.367   7.106   0.873  0.4707 -0.3105 -0.0609
  127MOL0     C17041   4.491   7.140   0.931 -0.6486  0.7578  0.2040
  127MOL0     C17042   4.597   7.035   0.922 -0.2149 -1.0920 -1.3646
  127MOL0     C17043   4.722   7.067   0.960  0.2466  0.7991  0.4404
  127MOL0     C17044   4.752   7.193   1.002 -0.5479  0.3821 -0.1783
  127MOL0     O17045   4.879   7.225   1.019  0.0332  0.0532 -0.0130
  127MOL0     C17046   4.954   7.164   1.125  0.4906  0.1088 -0.0980
  127MOL0     C17047   4.978   7.261   1.239  0.1056  0.2898  0.6425
  127MOL0     C17048   5.050   7.385   1.196 -0.3985 -0.1682  0.1159
  127MOL0     C17049   5.194   7.372   1.139 -1.1481  0.1249 -0.1566
  127MOL0     C17050   5.247   7.512   1.102 -0.3209  0.3550  0.1774
  127MOL0     C17051   5.280   7.602   1.215  0.1248  0.2305 -0.3651
  127MOL0     C17052   5.351   7.732   1.176  0.0762  0.0148  0.8481
  127MOL0     C17053   5.265   7.835   1.089  0.1491 -0.0326 -0.6834
  127MOL0    Cl17054   5.305   7.793   0.911 -0.4731  0.1672 -0.2840
  127MOL0     C17055   4.653   7.284   1.031  0.6126  0.5703 -0.1704
  127MOL0     C17056   4.520   7.268   0.987  0.0745 -0.7429 -0.9224
  127MOL0     O17057   4.247   7.208   1.037 -0.0681 -0.0134 -0.9200
  127MOL0     C17058   4.125   6.996   0.780 -0.3856  0.3087 -0.3469
  127MOL0     C17059   3.998   6.942   0.745  0.1543 -0.0393  0.2034
  127MOL0     N17060   3.510   6.550   1.022  0.2070 -0.2362 -0.0216
  127MOL0     N17061   3.485   6.463   1.109 -0.4879  0.3977 -0.3099
  127MOL0     C17062   2.691   5.790   1.491 -0.1470 -1.1220  0.2755
  127MOL0     C17063   2.590   5.729   1.418  0.6731 -0.4207 -0.7879
  127MOL0     C17064   2.316   5.354   1.357 -0.4061  0.2217  0.2928
  127MOL0     C17065   2.290   5.392   1.226  0.5705  0.0474  0.5974
  127MOL0     C17066   2.176   5.335   1.159  0.1334  0.1053 -0.4133
  127MOL0     C17067   2.086   5.242   1.222 -0.7926  0.2690  0.1893
  127MOL0     O17068   1.973   5.184   1.169 -1.0158  0.5831 -0.5286
  127MOL0     C17069   1.918   5.240   1.053 -0.6786 -1.2570  1.0980
  127MOL0     C17070   1.918   5.140   0.928 -0.6967  0.7793 -0.6961
  127MOL0     C17071   2.065   5.113   0.888  1.0655  0.2736 -0.8892
  127MOL0     C17072   2.087   4.981   0.816  0.1616 -0.2538  0.7934
  127MOL0     C17073   2.017   4.976   0.682  0.1211 -0.0877 -0.6526
  127MOL0     C17074   1.962   4.945   0.581  0.2449 -0.2126  0.6349
  127MOL0     C17075   2.129   5.190   1.345  0.2537  0.0510 -0.5830
  127MOL0     C17076   2.236   5.246   1.412 -0.1466 -0.0012 -1.1952
  127MOL0     C17077   2.276   5.167   1.543 -0.3814  0.1054  0.1805
  127MOL0     H17078   2.697   5.413   1.457  2.1050 -1.0178  4.2796
  127MOL0     H17079   2.887   5.520   1.553 -0.5332 -1.5230 -1.8805
  127MOL0     H17080   2.817   5.960   1.658  0.6418 -0.4734 -0.8127
  127MOL0     H17081   2.856   5.856   1.788 -4.3541 -1.8179 -1.3780
  127MOL0     H17082   3.109   5.909   1.720  1.7051  1.6879  3.9276
  127MOL0     H17083   3.011   6.049   1.778 -0.8260 -0.7147 -0.6060
  127MOL0     H17084   2.982   6.090   1.518  1.0133  1.7667 -2.1575
  127MOL0     H17085   3.106   5.981   1.500 -0.4701 -1.1886  1.1241
  127MOL0     H17086   3.116   6.251   1.665  0.2062 -1.2837  0.7793
  127MOL0     H17087   3.247   6.145   1.662  1.1887  0.7604 -1.6103
  127MOL0     H17088   3.299   6.275   1.487 -0.8126  3.1175 -0.3479
  127MOL0     H17089   3.230   6.145   1.397 -1.6491 -0.7289  0.0619
  127MOL0     H17090   3.036   6.278   1.350 -0.0179 -0.5437 -1.4702
  127MOL0     H17091   3.078   6.401   1.479  1.0724  2.5237 -2.1743
  127MOL0     H17092   3.240   6.504   1.364  1.0391 -0.0104 -1.0636
  127MOL0     H17093   3.110   6.474   1.240  2.7096  1.1062 -2.6383
  127MOL0     H17094   3.364   6.329   1.277 -1.7281  0.7091  1.0948
  127MOL0     H17095   3.245   6.274   1.154  2.4912 -1.1927 -1.8933
  127MOL0     H17096   3.186   6.566   1.041 -0.3246 -3.1653  0.2736
  127MOL0     H17097   3.286   6.734   0.846 -1.6147 -1.7166  3.0862
  127MOL0     H17098   3.390   6.824   0.955 -3.4472 -0.8064  1.9041
  127MOL0     H17099   3.578   6.690   0.802 -0.5982  0.0298 -0.0896
  127MOL0     H17100   3.439   6.697   0.687  0.0491  1.6279 -0.8705
  127MOL0     H17101   3.416   6.933   0.760 -0.6625 -2.0433  0.7015
  127MOL0     H17102   3.534   6.912   0.634  2.3636 -0.7840  0.2074
  127MOL0     H17103   3.623   6.916   0.924 -0.4085  0.1360  0.5186
  127MOL0     H17104   3.619   7.070   0.835 -2.8210  1.3418 -1.6015
  127MOL0     H17105   3.799   7.112   0.958  2.8144  2.9456 -0.2425
  127MOL0     H17106   4.009   7.187   1.040 -3.3397 -0.1955 -0.7965
  127MOL0     H17107   4.576   6.936   0.883  0.0139 -1.3932 -0.7351
  127MOL0     H17108   4.807   6.999   0.954 -1.6254 -1.6276 -0.2129
  127MOL0     H17109   4.901   7.080   1.170 -1.0701  0.4946 -1.1305
  127MOL0     H17110   5.048   7.124   1.086  0.3488  0.1809 -0.5172
  127MOL0     H17111   4.882   7.296   1.276  1.4210  2.0531  2.6078
  127MOL0     H17112   5.036   7.211   1.317  2.3460  0.8482 -0.5614
  127MOL0     H17113   4.996   7.441   1.119 -1.5930 -1.1672  0.2051
  127MOL0     H17114   5.062   7.446   1.286  0.0237 -2.1474  1.4569
  127MOL0     H17115   5.194   7.311   1.049 -2.6049 -1.7231  1.0242
  127MOL0     H17116   5.269   7.328   1.205  2.8123  1.1972 -3.5118
  127MOL0     H17117   5.171   7.570   1.048  0.1531  3.3567  2.4746
  127MOL0     H17118   5.332   7.494   1.035  1.8909  0.4219  2.8059
  127MOL0     H17119   5.194   7.624   1.278  0.9697  2.4277  0.1244
  127MOL0     H17120   5.352   7.544   1.274 -0.6504  0.7900  1.1962
  127MOL0     H17121   5.442   7.714   1.118  0.0880  0.2478  0.7923
  127MOL0     H17122   5.384   7.780   1.269  0.9521  0.0502  0.5345
  127MOL0     H17123   5.162   7.807   1.111  0.7368 -2.2322 -0.4964
  127MOL0     H17124   5.295   7.932   1.129 -0.1577  0.0704 -0.6980
  127MOL0     H17125   4.687   7.377   1.076  3.5492 -1.0469  1.2313
  127MOL0     H17126   4.466   7.361   0.999  2.1068  0.1756  2.5939
  127MOL0     H17127   4.205   6.964   0.713 -2.0144 -0.1155 -2.1759
  127MOL0     H17128   4.003   6.891   0.650  2.4201  1.0838 -0.3421
  127MOL0     H17129   2.681   5.897   1.508 -1.9775 -0.7724 -2.3140
  127MOL0     H17130   2.494   5.775   1.400 -0.2732 -1.1924  1.9017
  127MOL0     H17131   2.342   5.462   1.162 -3.8554  2.2763 -0.9236
  127MOL0     H17132   2.153   5.371   1.060 -0.3515  0.5147 -0.1584
  127MOL0     H17133   1.944   5.345   1.034 -1.3582 -1.2073  0.3828
  127MOL0     H17134   1.809   5.242   1.067 -0.6595 -4.2774  2.4035
  127MOL0     H17135   1.872   5.182   0.838  1.0195  1.2312 -1.3939
  127MOL0     H17136   1.859   5.051   0.953 -1.1298  2.3583  5.2929
  127MOL0     H17137   2.114   5.094   0.984 -0.6225 -0.7629 -0.1818
  127MOL0     H17138   2.120   5.193   0.839  1.2049 -0.8832 -2.6881
  127MOL0     H17139   2.194   4.964   0.804  0.5362  1.4065  1.5360
  127MOL0     H17140   2.033   4.896   0.859 -0.9869 -0.3008 -0.6370
  127MOL0     H17141   1.918   4.919   0.487  0.2267  1.5328  0.1226
  127MOL0     H17142   2.063   5.121   1.397 -0.6492  1.7058  0.5771
  127MOL0     H17143   2.245   5.226   1.630  0.9640  0.3323  0.5336
  127MOL0     H17144   2.228   5.068   1.550  3.1420 -1.6747  1.8736
  127MOL0     H17145   2.380   5.134   1.543 -0.5394 -0.4985  1.8262
  128MOL0     O17146   9.902   2.176   4.395  0.2402  0.2727  0.1176
  128MOL0     C17147   9.791   2.195   4.422 -0.1444 -0.5905  0.0179
  128MOL0     O17148   9.692   2.194   4.332  0.3409  0.1826 -0.2743
  128MOL0     C17149   9.709   2.172   4.200  0.2587  0.3413 -0.2040
  128MOL0     C17150   9.605   2.092   4.149 -0.8498 -0.1613  0.2179
  128MOL0     C17151   9.612   2.055   4.013 -0.3988  0.4137 -0.4239
  128MOL0     C17152   9.722   2.101   3.927 -0.5944 -0.0156  0.7674
  128MOL0     O17153   9.716   2.054   3.796  0.5837  0.1363 -0.1964
  128MOL0     C17154   9.769   2.142   3.696 -0.0395  0.2284  0.6559
  128MOL0     C17155   9.763   2.081   3.557  0.6373  0.7723  0.6332
  128MOL0     C17156   9.824   1.940   3.536 -0.1135  0.1217  0.4489
  128MOL0     C17157   9.792   1.882   3.402  0.5457 -0.2091 -0.2014
  128MOL0     C17158   9.832   1.735   3.385 -0.4027  0.5824  0.0780
  128MOL0     C17159   9.810   1.692   3.242 -0.4138  0.4860  0.1986
  128MOL0     C17160   9.853   1.553   3.226  1.3659  0.4948 -0.4272
  128MOL0     C17161  10.011   1.535   3.213  0.1035  0.4710  0.4247
  128MOL0     N17162  10.064   1.497   3.339 -1.0269 -0.4258  0.0205
  128MOL0     C17163  10.046   1.375   3.402  0.3125 -0.1461  0.1884
  128MOL0     C17164  10.136   1.383   3.501 -0.1429  0.5061  0.5005
  128MOL0     C17165  10.162   1.269   3.604 -0.3887 -0.2468 -0.7255
  128MOL0     C17166  10.215   1.135   3.542 -0.4253  0.5537  0.0226
  128MOL0     C17167  10.367   1.135   3.526  0.5290 -0.1483  0.1187
  128MOL0     C17168  10.421   1.040   3.421 -0.3377  0.0084 -0.4756
  128MOL0     O17169  10.428   1.116   3.301  0.1533  0.7242  0.3580
  128MOL0     C17170  10.544   1.168   3.265 -0.7045 -0.0334  0.8524
  128MOL0     C17171  10.658   1.082   3.247  0.4166  0.0179 -0.5160
  128MOL0     C17172  10.779   1.132   3.209 -0.3618 -0.7560 -0.0089
  128MOL0     C17173  10.794   1.266   3.193 -0.7189 -0.2978  0.0835
  128MOL0     C17174  10.922   1.324   3.134 -0.7795 -0.2721  0.2933
  128MOL0     O17175  10.916   1.452   3.088  0.0183  0.1410  0.6366
  128MOL0     C17176  11.026   1.513   3.029 -0.5226 -0.5317  0.5223
  128MOL0     C17177  11.132   1.570   3.107  0.1087 -0.4655  0.2280
  128MOL0     C17178  11.217   1.663   3.049 -0.6512 -0.1673 -0.2394
  128MOL0     C17179  11.211   1.696   2.911 -0.2954 -0.4809 -0.4578
  128MOL0     O17180  11.303   1.789   2.863 -0.2624  0.2132 -0.3954
  128MOL0     C17181  11.243   1.874   2.766 -0.2866  0.1818  0.3355
  128MOL0     C17182  11.354   1.983   2.721 -0.2380 -0.2252 -0.2943
  128MOL0     C17183  11.463   1.920   2.630 -0.7882 -0.1811 -0.3833
  128MOL0     C17184  11.552   2.034   2.589  0.0380  0.1361  0.6184
  128MOL0     C17185  11.680   1.975   2.531 -0.2232  0.1507  0.0864
  128MOL0     C17186  11.775   2.087   2.498 -0.9606 -1.0558 -0.9025
  128MOL0     C17187  11.724   2.167   2.372  0.3831  0.3757  0.0854
  128MOL0     C17188  11.845   2.233   2.317 -0.7217 -0.2390 -0.2855
  128MOL0    Cl17189  11.792   2.353   2.194 -0.0038  0.1379 -0.5219
  128MOL0     C17190  11.123   1.611   2.830 -0.1277 -0.3342 -0.4076
  128MOL0     C17191  11.027   1.523   2.892 -0.1171  0.4154 -0.3165
  128MOL0     O17192  11.021   1.253   3.131  0.2252 -0.3575 -0.3566
  128MOL0     C17193  10.686   1.349   3.208  0.3456 -0.4864  0.5496
  128MOL0     C17194  10.559   1.298   3.239  0.7880 -0.7930 -0.7772
  128MOL0     N17195  10.209   1.496   3.496  0.1132 -0.9284  0.0503
  128MOL0     N17196  10.165   1.562   3.399  0.6537 -0.8622 -0.0899
  128MOL0     C17197   9.812   2.196   3.982 -0.6204  0.4944 -0.0396
  128MOL0     C17198   9.806   2.227   4.112  0.1253 -0.2006 -0.0534
  128MOL0     C17199   9.754   2.221   4.571 -0.8682 -0.2365 -0.2958
  128MOL0     C17200   9.860   2.214   4.667 -0.3409  0.4386  0.1828
  128MOL0     C17201   9.834   2.240   4.803  0.0788  0.4444  0.8128
  128MOL0     C17202   9.709   2.268   4.840  0.3994  0.7640 -0.0381
  128MOL0     O17203   9.664   2.282   4.970 -0.7744 -0.3422  0.7252
  128MOL0     C17204   9.710   2.184   5.061 -0.4831 -0.7496 -0.3021
  128MOL0     C17205   9.643   2.047   5.026 -0.3037 -0.3852  0.1823
  128MOL0     C17206   9.623   1.959   5.144  0.2891  0.1549  0.1154
  128MOL0     C17207   9.620   1.812   5.117  0.6560  0.9467 -1.2452
  128MOL0     C17208   9.501   1.783   5.034 -0.3229  0.1056 -0.3365
  128MOL0     C17209   9.405   1.743   4.978  0.3885 -0.8495 -0.4006
  128MOL0     C17210   9.605   2.280   4.748  0.7306  0.3470 -0.5314
  128MOL0     C17211   9.635   2.261   4.617  0.2626 -0.2090 -0.5285
  128MOL0     C17212   9.532   2.316   4.527  0.5407  0.1281  0.0852
  128MOL0     H17213   9.532   2.061   4.224 -1.1330 -2.7573 -1.0403
  128MOL0     H17214   9.525   2.002   3.976 -2.0296  0.5166  2.9629
  128MOL0     H17215   9.701   2.228   3.698 -2.0272 -1.2150  3.7170
  128MOL0     H17216   9.870   2.167   3.730  0.4284 -3.8434  2.8601
  128MOL0     H17217   9.790   2.152   3.478  2.0618 -3.1387 -2.7732
  128MOL0     H17218   9.654   2.073   3.549  0.3813  2.2476  2.1440
  128MOL0     H17219   9.785   1.861   3.602  2.3043 -3.6694 -2.2465
  128MOL0     H17220   9.933   1.936   3.549  0.0347 -0.4430 -0.8112
  128MOL0     H17221   9.683   1.894   3.391  0.3306 -0.5787  1.3513
  128MOL0     H17222   9.843   1.937   3.323  1.1794 -0.0279  0.3278
  128MOL0     H17223   9.936   1.727   3.416  0.3939  0.8224 -2.3761
  128MOL0     H17224   9.776   1.671   3.455 -0.0982  2.8292  2.5585
  128MOL0     H17225   9.702   1.699   3.232 -0.5589  0.5565  1.6875
  128MOL0     H17226   9.870   1.762   3.182  0.9221  0.2484  1.2106
  128MOL0     H17227   9.799   1.516   3.138  1.2524 -3.2209  1.0229
  128MOL0     H17228   9.818   1.484   3.303  2.2003  0.7754  0.2173
  128MOL0     H17229  10.024   1.456   3.139 -0.0461  0.1297  0.7611
  128MOL0     H17230  10.054   1.625   3.167 -2.6609  0.8785 -1.6178
  128MOL0     H17231   9.991   1.284   3.380 -2.0786  0.7424  2.0884
  128MOL0     H17232  10.230   1.304   3.682 -1.5713  0.9914 -0.2197
  128MOL0     H17233  10.067   1.249   3.654 -0.9310  3.1819 -0.1224
  128MOL0     H17234  10.195   1.046   3.603  3.7058  1.4662  3.2077
  128MOL0     H17235  10.172   1.124   3.442  0.5909  4.1180 -0.9259
  128MOL0     H17236  10.401   1.106   3.626  1.7968 -1.2193 -0.5882
  128MOL0     H17237  10.396   1.240   3.521  2.5019 -0.2546  4.5303
  128MOL0     H17238  10.358   0.950   3.421 -0.1983 -0.1423 -2.3029
  128MOL0     H17239  10.514   1.003   3.465 -1.3080  0.1094  1.7655
  128MOL0     H17240  10.657   0.975   3.264 -1.2521  0.3320  1.8644
  128MOL0     H17241  10.862   1.065   3.191  0.1584 -0.6641  1.9009
  128MOL0     H17242  11.131   1.566   3.216 -1.1349  0.3994  0.2711
  128MOL0     H17243  11.280   1.722   3.114  2.1095 -0.7213 -2.2462
  128MOL0     H17244  11.211   1.816   2.679  1.2308 -1.0838  0.5652
  128MOL0     H17245  11.155   1.922   2.808  1.4308  2.9852  1.0239
  128MOL0     H17246  11.304   2.071   2.680 -0.9875 -0.1844  0.6735
  128MOL0     H17247  11.402   2.010   2.816 -0.6375  0.1901 -0.2119
  128MOL0     H17248  11.518   1.843   2.685 -0.0028 -0.0235 -0.9200
  128MOL0     H17249  11.415   1.856   2.555  2.7013 -5.2239  1.1564
  128MOL0     H17250  11.581   2.102   2.670 -0.5425  0.9038  0.2015
  128MOL0     H17251  11.497   2.096   2.517  1.3412  0.6697  0.0465
  128MOL0     H17252  11.657   1.911   2.446 -0.3830 -0.9931  0.9640
  128MOL0     H17253  11.733   1.910   2.601  1.5279  0.6407 -0.7074
  128MOL0     H17254  11.783   2.153   2.585  1.0147 -1.3393 -0.8259
  128MOL0     H17255  11.874   2.046   2.477 -1.5333 -1.0967 -4.1038
  128MOL0     H17256  11.650   2.245   2.393  0.5526  0.2529  1.1746
  128MOL0     H17257  11.688   2.099   2.294 -0.3156  2.5105 -1.5687
  128MOL0     H17258  11.897   2.292   2.394 -0.3536 -0.3798 -0.4230
  128MOL0     H17259  11.906   2.152   2.276  1.1826  0.2838  1.3144
  128MOL0     H17260  11.114   1.626   2.723  1.4224 -0.8231 -0.6300
  128MOL0     H17261  10.956   1.469   2.830  1.7109 -1.0209 -1.2569
  128MOL0     H17262  10.688   1.457   3.192  0.9822 -0.6879 -0.9170
  128MOL0     H17263  10.478   1.366   3.260  1.4610 -0.0433 -0.5517
  128MOL0     H17264   9.903   2.233   3.937  0.0733  0.9737  1.6899
  128MOL0     H17265   9.890   2.277   4.160 -1.0976  1.0418  0.8730
  128MOL0     H17266   9.960   2.184   4.638 -0.1925  2.8309 -2.1667
  128MOL0     H17267   9.906   2.227   4.884 -2.6586 -0.0376  3.3306
  128MOL0     H17268   9.678   2.206   5.164 -2.3130  1.2571 -1.2095
  128MOL0     H17269   9.819   2.192   5.063 -0.5669  1.3109 -1.1844
  128MOL0     H17270   9.714   2.002   4.956  1.9605  3.0747 -0.0133
  128MOL0     H17271   9.545   2.078   4.989  0.2988  2.0650  0.4406
  128MOL0     H17272   9.528   1.975   5.197  0.2972 -0.4506  0.3131
  128MOL0     H17273   9.707   1.978   5.212  1.2304 -2.5569 -0.2092
  128MOL0     H17274   9.707   1.780   5.059  0.0703 -2.1052 -0.5916
  128MOL0     H17275   9.613   1.747   5.204 -2.8832  2.1780 -0.4064
  128MOL0     H17276   9.309   1.720   4.936  0.3189  2.0409 -2.1279
  128MOL0     H17277   9.506   2.299   4.786  1.5127 -0.0693  1.9156
  128MOL0     H17278   9.579   2.385   4.456 -0.4457  0.3548 -0.3576
  128MOL0     H17279   9.487   2.233   4.472  1.4476 -3.6440  4.4269
  128MOL0     H17280   9.453   2.369   4.581 -1.1737  2.1442 -3.9292
  129MOL0     O17281   6.291   9.127   0.597  0.1571 -0.6577  0.2360
  129MOL0     C17282   6.297   9.249   0.584 -0.6320 -0.4614 -0.2839
  129MOL0     O17283   6.196   9.342   0.614 -0.8360  0.4423 -0.2229
  129MOL0     C17284   6.099   9.298   0.696 -0.5585 -0.7341  0.6199
  129MOL0     C17285   6.095   9.348   0.825 -0.4205  0.0348  0.3664
  129MOL0     C17286   5.980   9.326   0.903  0.1531  0.6451  0.0025
  129MOL0     C17287   5.867   9.263   0.858 -0.8834  0.1327 -0.6119
  129MOL0     O17288   5.761   9.243   0.948 -0.0372 -0.4014  0.2862
  129MOL0     C17289   5.641   9.306   0.909 -0.0660 -0.2578 -0.3040
  129MOL0     C17290   5.555   9.323   1.040  0.1939  0.3704  0.3800
  129MOL0     C17291   5.423   9.393   0.988 -0.0363  1.3125  0.5858
  129MOL0     C17292   5.327   9.432   1.103 -0.0585 -0.7689 -0.0042
  129MOL0     C17293   5.225   9.548   1.071 -0.1979  0.3450 -0.8664
  129MOL0     C17294   5.118   9.498   0.969 -0.3449 -0.4684 -0.9644
  129MOL0     C17295   5.009   9.612   0.957 -0.1682 -1.5406  0.2544
  129MOL0     C17296   5.049   9.742   0.874  0.5709 -0.3020 -0.0133
  129MOL0     N17297   5.111   9.712   0.740  0.4356  0.6716  0.3756
  129MOL0     C17298   5.232   9.649   0.729 -0.6072  0.1145  0.2664
  129MOL0     C17299   5.247   9.639   0.589 -0.0221 -0.5351  0.8011
  129MOL0     C17300   5.358   9.571   0.524 -1.0330 -0.4866 -0.8880
  129MOL0     C17301   5.327   9.433   0.491 -0.4129  0.0126  0.5633
  129MOL0     C17302   5.445   9.350   0.443 -0.1012  0.5053  0.0351
  129MOL0     C17303   5.584   9.377   0.506 -0.8926  0.1093 -0.1110
  129MOL0     O17304   5.682   9.269   0.507  0.0470 -0.2443  0.0750
  129MOL0     C17305   5.727   9.213   0.388  0.3472 -0.1476  0.1745
  129MOL0     C17306   5.720   9.281   0.270  0.3777  0.4256  0.0371
  129MOL0     C17307   5.770   9.217   0.155  0.2826  0.7108 -0.4810
  129MOL0     C17308   5.816   9.084   0.152 -0.4752  0.2435  0.3453
  129MOL0     C17309   5.842   9.027   0.014 -0.6464 -1.1401 -0.4167
  129MOL0     O17310   5.926   8.915   0.007 -0.0159  0.3765  0.1420
  129MOL0     C17311   5.948   8.841  -0.098 -0.0300  0.3151 -0.6731
  129MOL0     C17312   5.898   8.855  -0.228  0.1032  0.6930  0.5085
  129MOL0     C17313   5.913   8.747  -0.325 -0.5125  0.4860  0.0930
  129MOL0     C17314   6.002   8.637  -0.299  0.2588  0.2266 -1.2467
  129MOL0     O17315   6.025   8.552  -0.396 -0.6625  0.3615 -0.3177
  129MOL0     C17316   6.109   8.438  -0.384 -0.3107  0.0646 -0.5588
  129MOL0     C17317   6.064   8.329  -0.476  0.5510  0.3987  0.3947
  129MOL0     C17318   6.135   8.197  -0.470 -0.5594 -0.1047  0.1285
  129MOL0     C17319   6.126   8.099  -0.591 -0.1667 -0.0173 -0.3522
  129MOL0     C17320   6.202   7.964  -0.554 -0.3969 -0.1522  0.4769
  129MOL0     C17321   6.281   7.884  -0.676  0.9576 -0.1136 -0.0183
  129MOL0     C17322   6.235   7.737  -0.675 -0.2281 -0.6621  0.2239
  129MOL0     C17323   6.304   7.653  -0.785 -0.1265 -0.1513 -0.2856
  129MOL0    Cl17324   6.314   7.474  -0.730  0.4252  0.3776  0.3950
  129MOL0     C17325   6.059   8.634  -0.163 -0.0867 -0.2067  0.8654
  129MOL0     C17326   6.034   8.724  -0.072  0.1669 -0.3376 -0.0602
  129MOL0     O17327   5.795   9.081  -0.087  0.0309  0.9078  0.1811
  129MOL0     C17328   5.821   9.015   0.274 -1.0247 -0.9469 -1.0268
  129MOL0     C17329   5.775   9.080   0.391  0.1104  0.1313  0.0590
  129MOL0     N17330   5.136   9.695   0.528 -0.0048 -0.1871 -0.3717
  129MOL0     N17331   5.058   9.743   0.620 -0.1351 -0.8279  0.8750
  129MOL0     C17332   5.872   9.204   0.728 -0.3243  0.0713 -0.2698
  129MOL0     C17333   5.993   9.213   0.656 -0.9354  0.2318  0.1455
  129MOL0     C17334   6.419   9.308   0.515  0.4873  0.7992 -0.4833
  129MOL0     C17335   6.422   9.440   0.466 -0.2657  0.0876 -0.5086
  129MOL0     C17336   6.537   9.500   0.416 -0.6680 -0.2336  0.3477
  129MOL0     C17337   6.658   9.434   0.413 -0.0283  0.4159 -0.0548
  129MOL0     O17338   6.768   9.496   0.361  0.1188  0.5984  1.1683
  129MOL0     C17339   6.837   9.413   0.259  0.1215 -0.3145  0.3147
  129MOL0     C17340   6.934   9.498   0.183 -0.7767  0.4429  0.2321
  129MOL0     C17341   7.052   9.554   0.266  0.1025 -0.3256 -1.3680
  129MOL0     C17342   7.155   9.440   0.299 -0.0196 -0.4279 -0.1452
  129MOL0     C17343   7.223   9.384   0.184  0.4380 -0.8061  0.6282
  129MOL0     C17344   7.293   9.335   0.096 -0.4909 -0.5674 -0.1770
  129MOL0     C17345   6.660   9.300   0.462 -0.6200 -0.5018  0.4502
  129MOL0     C17346   6.542   9.233   0.507  0.0460 -0.0991  0.3070
  129MOL0     C17347   6.562   9.095   0.546  0.0392  0.5366  0.1939
  129MOL0     H17348   6.179   9.410   0.853 -0.4585  1.4348 -2.2672
  129MOL0     H17349   5.968   9.373   1.000 -3.3549  0.2815 -0.1350
  129MOL0     H17350   5.654   9.408   0.873 -0.6995  0.6597  1.9158
  129MOL0     H17351   5.589   9.241   0.837  4.0613  1.1510 -5.1628
  129MOL0     H17352   5.607   9.387   1.112  0.8386  3.0328 -2.2160
  129MOL0     H17353   5.533   9.228   1.088  1.2819 -0.3163 -0.4300
  129MOL0     H17354   5.374   9.325   0.918  0.1173  1.9152 -0.1228
  129MOL0     H17355   5.449   9.479   0.925 -1.7072 -0.1561 -2.3037
  129MOL0     H17356   5.275   9.347   1.148  1.3279 -1.4593  0.3402
  129MOL0     H17357   5.394   9.473   1.179 -3.4003  0.4630  2.5077
  129MOL0     H17358   5.170   9.573   1.163 -2.5767  0.2523 -2.1866
  129MOL0     H17359   5.285   9.633   1.036 -0.2379  0.6587 -0.2048
  129MOL0     H17360   5.144   9.461   0.870  1.4433 -0.9467 -0.3488
  129MOL0     H17361   5.063   9.415   1.015 -2.5618  1.8974  1.0539
  129MOL0     H17362   4.964   9.651   1.049 -0.0887  1.2292 -0.7698
  129MOL0     H17363   4.916   9.573   0.914 -3.1412  4.6777 -0.2081
  129MOL0     H17364   4.953   9.787   0.848 -1.3902 -1.8071  3.8710
  129MOL0     H17365   5.111   9.816   0.926 -0.5405  2.1007 -1.9268
  129MOL0     H17366   5.301   9.620   0.807  0.2594  0.8025 -0.2178
  129MOL0     H17367   5.378   9.622   0.429  0.3255 -0.0719 -0.4019
  129MOL0     H17368   5.445   9.587   0.588  0.7574  2.0338 -3.6721
  129MOL0     H17369   5.292   9.382   0.581 -1.2766  2.0853  1.4794
  129MOL0     H17370   5.251   9.455   0.416  1.4359  1.7124 -0.9295
  129MOL0     H17371   5.460   9.378   0.339  0.6617 -0.2554 -0.0684
  129MOL0     H17372   5.415   9.245   0.448 -1.2315  0.8029 -0.2482
  129MOL0     H17373   5.564   9.400   0.611  0.0484 -0.2083  0.1535
  129MOL0     H17374   5.635   9.463   0.463  3.9656 -1.2810  2.1325
  129MOL0     H17375   5.680   9.382   0.274 -0.1569  0.1755  3.1174
  129MOL0     H17376   5.751   9.265   0.059  0.0202 -1.2557 -1.4621
  129MOL0     H17377   5.834   8.936  -0.261 -1.0328  0.2848  1.6180
  129MOL0     H17378   5.865   8.747  -0.422 -2.9603  0.2662  1.2375
  129MOL0     H17379   6.212   8.469  -0.403  0.1677 -1.5627 -0.7783
  129MOL0     H17380   6.107   8.403  -0.280 -2.3507 -0.9720 -0.8984
  129MOL0     H17381   5.959   8.314  -0.450  1.2082 -1.6787  2.0700
  129MOL0     H17382   6.089   8.375  -0.572  0.1732  1.9711  1.0252
  129MOL0     H17383   6.240   8.225  -0.455  0.5896 -0.0615 -5.5823
  129MOL0     H17384   6.095   8.154  -0.378  2.8081 -1.3162  1.1825
  129MOL0     H17385   6.164   8.146  -0.682 -0.3362 -0.1108 -0.4735
  129MOL0     H17386   6.019   8.077  -0.603  0.0033 -2.0489  1.4290
  129MOL0     H17387   6.132   7.902  -0.498  0.4082  1.0505  3.0375
  129MOL0     H17388   6.276   7.996  -0.479  1.4316 -1.1778 -0.8002
  129MOL0     H17389   6.265   7.935  -0.771 -0.8683  0.8764  0.7696
  129MOL0     H17390   6.389   7.891  -0.656  0.8499 -0.7453  0.8323
  129MOL0     H17391   6.129   7.734  -0.699  0.2732  2.6991 -3.2998
  129MOL0     H17392   6.252   7.694  -0.576 -2.0013 -0.1994  0.7561
  129MOL0     H17393   6.261   7.675  -0.883 -0.0144  0.7985 -0.1311
  129MOL0     H17394   6.409   7.683  -0.795 -0.3811  0.7019 -0.4649
  129MOL0     H17395   6.130   8.556  -0.135  1.0123  1.4190  2.9143
  129MOL0     H17396   6.074   8.715   0.028 -1.1838 -4.4975  0.2953
  129MOL0     H17397   5.858   8.914   0.265 -0.0258 -0.8308  1.1846
  129MOL0     H17398   5.782   9.037   0.490 -0.4208  1.0348  0.5035
  129MOL0     H17399   5.790   9.150   0.681 -2.4062  0.6546  2.4635
  129MOL0     H17400   6.003   9.163   0.560 -2.4677 -0.1148  0.1305
  129MOL0     H17401   6.337   9.505   0.451  0.6267  0.9608 -1.9901
  129MOL0     H17402   6.529   9.600   0.375 -1.7040  0.7754  2.8432
  129MOL0     H17403   6.771   9.386   0.176 -0.5799  1.7106  0.1592
  129MOL0     H17404   6.884   9.326   0.305  1.9764  1.2119  1.4444
  129MOL0     H17405   6.880   9.589   0.154 -1.2097  0.2009  0.2685
  129MOL0     H17406   6.965   9.457   0.087 -0.3880  1.0191  0.1039
  129MOL0     H17407   7.008   9.606   0.352  0.4325  0.5587 -1.7204
  129MOL0     H17408   7.116   9.629   0.220  2.0833  0.1671  1.8597
  129MOL0     H17409   7.223   9.480   0.374 -0.9319 -0.1980  0.5846
  129MOL0     H17410   7.103   9.357   0.348  0.0054 -1.5361 -1.8784
  129MOL0     H17411   7.356   9.279   0.031 -1.0828 -0.2707 -1.0221
  129MOL0     H17412   6.753   9.245   0.470 -2.7799 -4.4450  1.1672
  129MOL0     H17413   6.480   9.025   0.527  0.0138  0.6786 -0.2326
  129MOL0     H17414   6.640   9.042   0.491 -0.1490 -0.3143  0.7299
  129MOL0     H17415   6.573   9.083   0.654 -2.5824 -0.6885  0.3952
  130MOL0     O17416   3.442   0.114  10.628  0.4605  0.0235 -0.2710
  130MOL0     C17417   3.353   0.195  10.667 -0.8955  0.2483  0.9248
  130MOL0     O17418   3.343   0.244  10.791  0.1253 -0.7464 -0.0821
  130MOL0     C17419   3.444   0.260  10.883  0.0881 -0.1773 -0.6107
  130MOL0     C17420   3.580   0.273  10.849  0.3756  0.5993 -0.5095
  130MOL0     C17421   3.679   0.289  10.945  0.1732  0.3023 -0.5604
  130MOL0     C17422   3.647   0.276  11.088  0.4406  0.1135  0.2946
  130MOL0     O17423   3.747   0.262  11.173 -0.2462 -0.6449 -1.1517
  130MOL0     C17424   3.727   0.201  11.307  0.2787 -0.2564  0.5061
  130MOL0     C17425   3.857   0.170  11.393 -0.2387  0.8352 -0.2677
  130MOL0     C17426   3.950   0.053  11.340  0.5638 -0.2420 -0.3805
  130MOL0     C17427   3.893  -0.083  11.392  0.2457 -0.5699 -0.0502
  130MOL0     C17428   4.014  -0.177  11.442  0.2084  0.5775  0.6539
  130MOL0     C17429   4.093  -0.213  11.321 -0.1864  1.2641  0.0731
  130MOL0     C17430   4.231  -0.248  11.358 -0.2061  0.0377 -0.1735
  130MOL0     C17431   4.305  -0.287  11.227  0.8187 -0.0854 -0.5471
  130MOL0     N17432   4.443  -0.329  11.249  0.2978 -0.0096  0.4890
  130MOL0     C17433   4.498  -0.447  11.208 -0.6166  0.5152  0.5718
  130MOL0     C17434   4.609  -0.454  11.288  0.0866 -1.2004 -0.2031
  130MOL0     C17435   4.708  -0.558  11.299 -0.6342 -0.0363 -0.2083
  130MOL0     C17436   4.825  -0.537  11.190 -0.2890 -0.0628  0.8700
  130MOL0     C17437   4.932  -0.648  11.196  0.0235 -0.6096 -1.1825
  130MOL0     C17438   5.054  -0.607  11.112 -0.1055  0.1456 -0.4507
  130MOL0     O17439   5.020  -0.558  10.985  0.3141  0.2858  0.1517
  130MOL0     C17440   5.119  -0.536  10.892 -0.5858 -0.4368  0.2043
  130MOL0     C17441   5.106  -0.426  10.801  0.0766 -0.7017 -0.3829
  130MOL0     C17442   5.212  -0.385  10.716 -0.0364  0.2303 -1.2286
  130MOL0     C17443   5.336  -0.462  10.721  0.4353  0.7225 -0.3893
  130MOL0     C17444   5.462  -0.419  10.653 -0.3935 -1.0577 -0.0610
  130MOL0     O17445   5.455  -0.372  10.522 -0.4322  0.6015  0.3359
  130MOL0     C17446   5.561  -0.336  10.446  0.0084 -0.3292 -0.3974
  130MOL0     C17447   5.519  -0.306  10.306 -0.8855  0.3143 -0.9231
  130MOL0     C17448   5.616  -0.265  10.218 -0.5203  0.0549 -0.5891
  130MOL0     C17449   5.752  -0.256  10.253  0.0108 -0.0731  0.1965
  130MOL0     O17450   5.840  -0.206  10.158 -0.6541 -0.1224 -0.8008
  130MOL0     C17451   5.978  -0.255  10.177  0.6434 -0.7287  1.0058
  130MOL0     C17452   6.058  -0.253  10.048 -0.3364  0.7865  0.2905
  130MOL0     C17453   6.038  -0.135   9.964 -0.3018  0.1081  0.0588
  130MOL0     C17454   6.127  -0.143   9.838  0.3190  0.5102  0.1191
  130MOL0     C17455   6.078  -0.056   9.719  0.2092  0.0879 -0.4347
  130MOL0     C17456   6.157  -0.088   9.593 -0.4973  0.5022 -0.4655
  130MOL0     C17457   6.131   0.013   9.479 -0.9954 -0.1178 -0.3704
  130MOL0     C17458   6.006  -0.012   9.395 -0.2965 -0.6139  0.2831
  130MOL0    Cl17459   6.039  -0.106   9.252 -0.2636  0.0369 -0.2284
  130MOL0     C17460   5.789  -0.289  10.385 -0.2082 -0.3545  1.0481
  130MOL0     C17461   5.697  -0.331  10.480 -0.5658 -0.1288  0.2177
  130MOL0     O17462   5.570  -0.433  10.718  0.2713 -0.2190 -0.1631
  130MOL0     C17463   5.347  -0.580  10.801  0.6723 -0.3343  0.7305
  130MOL0     C17464   5.234  -0.615  10.883 -0.6845  0.0010  0.7334
  130MOL0     N17465   4.630  -0.344  11.357  0.1304 -0.6921  0.8794
  130MOL0     N17466   4.536  -0.269  11.337  0.0868  0.2619  0.3270
  130MOL0     C17467   3.509   0.256  11.122  0.2220 -0.0306 -1.0851
  130MOL0     C17468   3.414   0.256  11.018 -0.7068  0.4064  0.1022
  130MOL0     C17469   3.245   0.227  10.571  0.0618 -0.4920 -0.2843
  130MOL0     C17470   3.217   0.360  10.538  0.1295 -1.3420  0.1156
  130MOL0     C17471   3.123   0.392  10.435  0.5392 -0.5024  0.7677
  130MOL0     C17472   3.064   0.289  10.367  0.5310  0.1927  0.4981
  130MOL0     O17473   2.982   0.312  10.260  0.0029  0.3481  0.5191
  130MOL0     C17474   2.936   0.212  10.173 -0.2463 -0.7526  0.0205
  130MOL0     C17475   2.854   0.284  10.063 -0.5418  0.0431 -0.6323
  130MOL0     C17476   2.769   0.187   9.972  0.4417  0.5680  0.6108
  130MOL0     C17477   2.658   0.256   9.896 -0.1764  0.0659 -0.1781
  130MOL0     C17478   2.590   0.166   9.804 -0.5600 -0.6055 -0.0868
  130MOL0     C17479   2.543   0.088   9.720  0.7975 -0.4735 -0.1476
  130MOL0     C17480   3.089   0.160  10.416  0.1983 -0.4700 -0.7777
  130MOL0     C17481   3.172   0.127  10.516  0.1761 -0.2130 -0.6581
  130MOL0     C17482   3.188  -0.024  10.557 -0.2851 -0.5246 -0.1880
  130MOL0     H17483   3.615   0.281  10.746  0.4053  0.6943 -0.4929
  130MOL0     H17484   3.780   0.301  10.907  0.4880  0.1391  0.2127
  130MOL0     H17485   3.660   0.255  11.376  0.9629 -2.3609  2.9941
  130MOL0     H17486   3.682   0.104  11.282  2.0744 -1.3736  1.4492
  130MOL0     H17487   3.832   0.148  11.498  0.7032  0.2460 -0.1590
  130MOL0     H17488   3.910   0.264  11.410 -2.8602  1.9759  2.9314
  130MOL0     H17489   4.045   0.080  11.386 -0.1048  2.0607 -0.2161
  130MOL0     H17490   3.963   0.043  11.232  1.8357 -0.7481 -0.1961
  130MOL0     H17491   3.822  -0.074  11.475 -1.8633 -0.0942 -1.7968
  130MOL0     H17492   3.837  -0.133  11.312 -0.8714 -0.6348  0.7556
  130MOL0     H17493   4.079  -0.126  11.514  5.0413 -2.8552 -0.7850
  130MOL0     H17494   3.980  -0.272  11.484 -0.8517 -0.2155 -1.8282
  130MOL0     H17495   4.041  -0.296  11.274  2.0583 -0.2412  0.1148
  130MOL0     H17496   4.088  -0.128  11.253 -0.1134  1.3991  0.2352
  130MOL0     H17497   4.239  -0.340  11.416  2.0413  0.0732 -0.3132
  130MOL0     H17498   4.272  -0.163  11.413  0.2453  0.7838 -1.6045
  130MOL0     H17499   4.246  -0.365  11.178  1.5457 -1.1504  0.2385
  130MOL0     H17500   4.301  -0.204  11.155 -2.3904 -1.4781 -2.1855
  130MOL0     H17501   4.458  -0.517  11.136 -0.1269 -0.0674  0.8568
  130MOL0     H17502   4.766  -0.550  11.392  2.8122  3.0264 -2.3323
  130MOL0     H17503   4.652  -0.651  11.289 -0.8753 -0.0301  0.8774
  130MOL0     H17504   4.778  -0.530  11.091  0.0646 -0.1905  0.6936
  130MOL0     H17505   4.878  -0.444  11.209  0.4272  0.3031 -2.3404
  130MOL0     H17506   4.886  -0.744  11.168 -1.1826 -1.3018  2.6004
  130MOL0     H17507   4.967  -0.654  11.299  1.7849 -1.3496 -1.7848
  130MOL0     H17508   5.122  -0.692  11.107 -0.1356  0.0897  0.0270
  130MOL0     H17509   5.108  -0.539  11.178  1.1319 -3.0158  2.0162
  130MOL0     H17510   5.010  -0.380  10.782 -0.5047 -2.3499 -1.6401
  130MOL0     H17511   5.209  -0.295  10.655  2.5976  0.5370 -1.0000
  130MOL0     H17512   5.417  -0.318  10.269 -1.6938 -0.9791  1.4891
  130MOL0     H17513   5.585  -0.234  10.120 -1.0076 -0.8503 -0.7337
  130MOL0     H17514   6.015  -0.186  10.254 -3.2400  2.2958  0.4765
  130MOL0     H17515   5.984  -0.355  10.223  3.2728  0.7289  4.2422
  130MOL0     H17516   6.163  -0.260  10.079  0.5547  2.6756 -1.9589
  130MOL0     H17517   6.020  -0.337   9.989 -1.1448  1.2553  0.1271
  130MOL0     H17518   5.933  -0.120   9.939 -0.8527 -1.6487  1.1695
  130MOL0     H17519   6.075  -0.046  10.017  1.1720  0.5890 -1.6473
  130MOL0     H17520   6.143  -0.244   9.798 -0.6321 -0.6946  2.5581
  130MOL0     H17521   6.221  -0.100   9.873 -0.5400  2.4415  0.1907
  130MOL0     H17522   6.095   0.047   9.751 -0.5089 -0.7993  3.2797
  130MOL0     H17523   5.970  -0.072   9.713 -0.3222  1.6046  2.8306
  130MOL0     H17524   6.262  -0.096   9.625 -0.6132 -2.3675 -0.4864
  130MOL0     H17525   6.142  -0.187   9.549  1.7719 -0.0623 -0.1126
  130MOL0     H17526   6.216   0.014   9.410 -1.0195 -0.8967 -0.4233
  130MOL0     H17527   6.136   0.112   9.523  5.0775  0.0547 -0.6583
  130MOL0     H17528   5.921  -0.048   9.455 -1.8636  1.8866 -0.2626
  130MOL0     H17529   5.970   0.084   9.355 -3.3827 -1.2177  1.2715
  130MOL0     H17530   5.893  -0.277  10.416 -0.0544  1.1946  0.0073
  130MOL0     H17531   5.742  -0.350  10.577 -0.8754 -0.8307  0.2304
  130MOL0     H17532   5.440  -0.636  10.796  1.8676  1.5529  0.8338
  130MOL0     H17533   5.246  -0.701  10.949 -1.6159  0.9181  2.1650
  130MOL0     H17534   3.480   0.255  11.226 -0.7329  2.5394 -1.2499
  130MOL0     H17535   3.307   0.245  11.030 -0.1680 -2.4859  4.2297
  130MOL0     H17536   3.273   0.435  10.592 -0.7150 -0.4054 -0.2700
  130MOL0     H17537   3.097   0.496  10.420  0.9610 -0.5307 -0.2661
  130MOL0     H17538   2.877   0.134  10.222 -1.4631  0.3137  0.2963
  130MOL0     H17539   3.021   0.157  10.130  1.0994  3.7167 -3.8640
  130MOL0     H17540   2.914   0.348   9.998  1.3060 -1.9034 -0.9710
  130MOL0     H17541   2.783   0.350  10.112  1.6879  1.7039  0.5268
  130MOL0     H17542   2.699   0.131  10.035 -1.4536  0.2238 -1.6672
  130MOL0     H17543   2.821   0.120   9.903 -2.3012 -1.6138  0.5036
  130MOL0     H17544   2.579   0.295   9.961 -0.9616 -2.2161  0.3567
  130MOL0     H17545   2.696   0.348   9.850 -0.4572  1.1370  1.6619
  130MOL0     H17546   2.522   0.045   9.624 -1.4467  0.6461 -0.2254
  130MOL0     H17547   3.032   0.083  10.365  0.0725  0.9549 -2.8836
  130MOL0     H17548   3.260  -0.053  10.480  1.8117  0.9678  1.0908
  130MOL0     H17549   3.218  -0.044  10.661  1.7195  1.4174 -0.3346
  130MOL0     H17550   3.096  -0.079  10.534  0.9049 -3.6139  1.7709
  131MOL0     O17551   5.152   6.511   5.959  0.3963 -0.0589  0.9219
  131MOL0     C17552   5.061   6.461   5.893  0.1325 -0.7206  0.5377
  131MOL0     O17553   5.022   6.522   5.768  0.2585  0.2208  0.2150
  131MOL0     C17554   5.095   6.617   5.709  0.3730 -0.3620  0.5577
  131MOL0     C17555   5.043   6.752   5.725 -0.4326 -0.2197  0.8859
  131MOL0     C17556   5.109   6.857   5.663 -0.1873  0.2353 -0.6858
  131MOL0     C17557   5.231   6.834   5.603  0.5098 -0.6029 -0.5450
  131MOL0     O17558   5.304   6.952   5.560  1.2261  0.0892  0.2249
  131MOL0     C17559   5.331   6.958   5.423  0.5106  0.8128  0.6384
  131MOL0     C17560   5.479   7.023   5.416 -0.2781 -0.0348 -0.2099
  131MOL0     C17561   5.583   6.918   5.466  0.0688  0.0479 -0.0600
  131MOL0     C17562   5.733   6.938   5.414  0.3054 -0.4121  0.8415
  131MOL0     C17563   5.818   6.820   5.461  0.2393  0.4286 -0.1811
  131MOL0     C17564   5.971   6.843   5.439 -0.4286 -0.4919  0.2399
  131MOL0     C17565   6.006   6.856   5.287 -0.3409  0.5685  0.2124
  131MOL0     C17566   5.979   6.730   5.200 -0.0596  0.1882 -0.1257
  131MOL0     N17567   6.054   6.748   5.080 -1.1679 -0.6629  0.5696
  131MOL0     C17568   6.121   6.650   5.015 -0.8703  0.4804 -0.4705
  131MOL0     C17569   6.170   6.711   4.898  0.1948 -0.0699 -0.4396
  131MOL0     C17570   6.233   6.624   4.792 -0.2902 -0.5848  0.2384
  131MOL0     C17571   6.313   6.693   4.679 -0.0464 -0.1338 -0.1909
  131MOL0     C17572   6.444   6.750   4.734 -0.4806  0.1421 -0.6586
  131MOL0     C17573   6.498   6.880   4.664 -0.2423  0.1771  1.2473
  131MOL0     O17574   6.500   6.844   4.526  0.0728  0.4552 -0.4449
  131MOL0     C17575   6.540   6.928   4.433  1.2050 -0.2743 -0.3518
  131MOL0     C17576   6.579   6.860   4.317  0.0846 -0.0576  0.4739
  131MOL0     C17577   6.620   6.927   4.204  0.2151 -0.6531  0.2561
  131MOL0     C17578   6.627   7.065   4.212 -0.0807  0.3060  0.9759
  131MOL0     C17579   6.682   7.133   4.089 -0.6081 -0.7352  0.5353
  131MOL0     O17580   6.778   7.071   4.022  0.7255 -0.0744 -0.1224
  131MOL0     C17581   6.819   7.105   3.892 -0.0450 -0.9460 -0.5619
  131MOL0     C17582   6.935   7.040   3.838 -0.6965  0.2282  0.2432
  131MOL0     C17583   6.982   7.077   3.710 -0.4003 -0.1576 -0.1424
  131MOL0     C17584   6.906   7.158   3.627  0.6759  0.3535 -0.3132
  131MOL0     O17585   6.941   7.189   3.497 -0.7101 -0.5482 -0.3094
  131MOL0     C17586   7.059   7.267   3.475 -0.4290 -0.6423  0.2339
  131MOL0     C17587   7.026   7.414   3.430 -0.4331  0.7613  0.0263
  131MOL0     C17588   7.157   7.453   3.362 -0.0862 -0.1542  0.6809
  131MOL0     C17589   7.164   7.605   3.333 -0.5088  0.2741 -0.0784
  131MOL0     C17590   7.312   7.650   3.335  0.5391  0.3649  0.4797
  131MOL0     C17591   7.389   7.587   3.219  0.1559  0.5197 -0.1358
  131MOL0     C17592   7.527   7.657   3.187  0.1219 -0.0635  0.0166
  131MOL0     C17593   7.595   7.601   3.063 -0.4967 -0.4249 -0.0868
  131MOL0    Cl17594   7.640   7.433   3.088 -0.0317 -0.5041 -0.1629
  131MOL0     C17595   6.785   7.210   3.681  0.3965  1.0182  0.3378
  131MOL0     C17596   6.745   7.196   3.812  0.7501 -0.6558  0.0252
  131MOL0     O17597   6.656   7.251   4.070 -0.3025 -0.1284  0.4006
  131MOL0     C17598   6.589   7.131   4.324  0.3977 -0.1289  0.1055
  131MOL0     C17599   6.548   7.062   4.438 -0.0139  0.9966 -0.4937
  131MOL0     N17600   6.140   6.846   4.908 -0.4257  0.3475  0.5398
  131MOL0     N17601   6.083   6.866   5.018  0.0925 -0.2288  0.9075
  131MOL0     C17602   5.267   6.697   5.580 -0.2999  0.1675  0.1160
  131MOL0     C17603   5.214   6.591   5.642  0.3493  0.3448 -0.1605
  131MOL0     C17604   4.987   6.344   5.957 -0.5244  0.2513 -0.2511
  131MOL0     C17605   4.873   6.303   5.892  1.0290  0.4251  0.0315
  131MOL0     C17606   4.801   6.190   5.924  0.0097 -0.4239  0.0365
  131MOL0     C17607   4.840   6.112   6.033  0.2438 -0.6609  0.6036
  131MOL0     O17608   4.787   5.989   6.057  0.7094 -0.5766 -0.1192
  131MOL0     C17609   4.677   5.939   5.976  0.8290 -1.1300 -0.1174
  131MOL0     C17610   4.634   5.811   6.043  0.0690 -0.5313  0.6437
  131MOL0     C17611   4.756   5.709   6.058  0.1962 -0.3988 -1.0433
  131MOL0     C17612   4.705   5.571   6.073  0.5957  0.4471  0.5380
  131MOL0     C17613   4.629   5.551   6.195 -0.3041 -1.4327 -0.1134
  131MOL0     C17614   4.583   5.523   6.298 -1.5120 -0.8171 -1.1807
  131MOL0     C17615   4.953   6.155   6.101 -0.7062  0.0220 -0.0664
  131MOL0     C17616   5.029   6.267   6.069  0.7759 -1.0749  1.1456
  131MOL0     C17617   5.163   6.283   6.155  0.3209  0.0924 -0.5299
  131MOL0     H17618   4.955   6.772   5.785 -1.9579  0.1047 -1.3487
  131MOL0     H17619   5.056   6.952   5.669 -0.5493  0.1152 -1.8257
  131MOL0     H17620   5.316   6.859   5.379  2.2074  0.8555 -0.1202
  131MOL0     H17621   5.266   7.024   5.365 -2.1013 -0.6051  1.7688
  131MOL0     H17622   5.490   7.119   5.468  0.1828  0.4745 -1.2276
  131MOL0     H17623   5.496   7.046   5.311  0.8863  1.4333  0.2621
  131MOL0     H17624   5.553   6.823   5.421 -1.0479  1.0625 -1.5065
  131MOL0     H17625   5.585   6.911   5.576  2.3406  0.6870  0.0058
  131MOL0     H17626   5.724   6.936   5.305 -0.5224 -1.5033  0.9123
  131MOL0     H17627   5.771   7.039   5.432 -0.6600  0.3557 -1.0912
  131MOL0     H17628   5.792   6.811   5.567  2.3354 -0.5468  0.3213
  131MOL0     H17629   5.782   6.733   5.405 -3.5802  3.1528 -2.4160
  131MOL0     H17630   6.009   6.931   5.492 -0.6966  0.9106 -1.7833
  131MOL0     H17631   6.031   6.757   5.469  2.3189  0.6973 -1.5140
  131MOL0     H17632   6.111   6.883   5.273  0.3661 -2.3696 -0.9499
  131MOL0     H17633   5.947   6.936   5.242 -1.5891  0.5900  1.8011
  131MOL0     H17634   6.002   6.640   5.257 -0.1853  0.4533  0.3481
  131MOL0     H17635   5.874   6.744   5.172 -0.0375 -1.0576 -0.9192
  131MOL0     H17636   6.111   6.544   5.040  2.7519 -0.2974 -1.6467
  131MOL0     H17637   6.304   6.552   4.835  0.8041  1.0678  1.3507
  131MOL0     H17638   6.152   6.573   4.739 -0.9574  2.2956 -1.7286
  131MOL0     H17639   6.336   6.613   4.607  2.2519 -2.1533  2.5261
  131MOL0     H17640   6.250   6.771   4.639 -0.2998 -0.0863  0.2931
  131MOL0     H17641   6.524   6.678   4.752 -1.1020  0.0923  2.5506
  131MOL0     H17642   6.435   6.793   4.834  2.9753 -0.0636 -0.1521
  131MOL0     H17643   6.597   6.917   4.692  0.2823 -0.1782 -0.0515
  131MOL0     H17644   6.423   6.958   4.677 -1.7754 -0.8371 -0.7342
  131MOL0     H17645   6.585   6.751   4.311  0.9066  0.0756 -3.1242
  131MOL0     H17646   6.647   6.871   4.114 -0.2044  1.4536 -1.2532
  131MOL0     H17647   6.977   6.972   3.911  0.0430  1.0978  0.6559
  131MOL0     H17648   7.076   7.042   3.670 -0.4543 -0.2052 -0.2284
  131MOL0     H17649   7.117   7.268   3.568 -0.0100 -1.0116 -0.0210
  131MOL0     H17650   7.118   7.227   3.392  1.4085  2.0900  0.0681
  131MOL0     H17651   6.944   7.403   3.358  0.8359 -0.2642 -1.3093
  131MOL0     H17652   7.001   7.485   3.510 -0.8968 -0.5748  1.1041
  131MOL0     H17653   7.245   7.419   3.417  1.0175 -0.9028 -1.4024
  131MOL0     H17654   7.168   7.408   3.263 -1.1139  0.0664  0.4598
  131MOL0     H17655   7.102   7.664   3.402 -1.8484 -0.8111 -0.3160
  131MOL0     H17656   7.125   7.626   3.233  1.0762  3.2707 -0.1769
  131MOL0     H17657   7.358   7.636   3.433 -1.6801  2.5901  1.9672
  131MOL0     H17658   7.318   7.758   3.323  0.3335  0.4558  1.1438
  131MOL0     H17659   7.398   7.480   3.240 -1.0257  0.6151  0.9708
  131MOL0     H17660   7.331   7.582   3.127 -0.9466  3.7500  0.2526
  131MOL0     H17661   7.604   7.653   3.264  1.4546  2.6075 -1.0625
  131MOL0     H17662   7.512   7.764   3.175  3.1311  0.4355 -0.0426
  131MOL0     H17663   7.533   7.623   2.975 -2.0018 -0.6552  0.8662
  131MOL0     H17664   7.688   7.653   3.039  0.0477 -0.5672  1.5649
  131MOL0     H17665   6.722   7.270   3.616  1.8900  0.5484 -1.6228
  131MOL0     H17666   6.645   7.232   3.838  0.0373 -1.9226 -0.8429
  131MOL0     H17667   6.594   7.239   4.335  0.4870 -0.1906  0.7391
  131MOL0     H17668   6.522   7.125   4.522  3.9900  1.2519  0.7503
  131MOL0     H17669   5.360   6.704   5.525 -0.4660  1.2484 -0.0558
  131MOL0     H17670   5.261   6.493   5.647  4.3280  2.0530 -0.6078
  131MOL0     H17671   4.851   6.355   5.799  2.9539 -0.0555 -0.7421
  131MOL0     H17672   4.726   6.167   5.849  0.7302 -0.2936 -0.7408
  131MOL0     H17673   4.719   5.927   5.876  0.9535 -1.1856 -0.0595
  131MOL0     H17674   4.593   6.009   5.971  3.1483  2.3769  3.6602
  131MOL0     H17675   4.559   5.773   5.973  3.0434 -1.9887 -2.0405
  131MOL0     H17676   4.576   5.827   6.134 -0.9275 -0.7043  0.0544
  131MOL0     H17677   4.808   5.740   6.148  1.0506  0.0326 -1.6711
  131MOL0     H17678   4.822   5.707   5.970  0.0559 -0.7279 -1.1442
  131MOL0     H17679   4.643   5.550   5.985  1.5570 -0.3822  0.0370
  131MOL0     H17680   4.793   5.506   6.078  2.0641  2.2242 -0.9666
  131MOL0     H17681   4.550   5.483   6.391  0.6831 -0.1619 -0.0489
  131MOL0     H17682   4.992   6.098   6.186  0.1243  2.3566  1.2159
  131MOL0     H17683   5.187   6.389   6.163  0.8708  0.1753 -2.7503
  131MOL0     H17684   5.141   6.243   6.255 -1.7231  0.9633 -0.5879
  131MOL0     H17685   5.246   6.227   6.112  1.3836 -0.7475  2.3308
  132MOL0     O17686   3.275   9.990   8.475  0.4432 -0.0607  0.4191
  132MOL0     C17687   3.380  10.017   8.420  0.5923 -0.3993  0.2655
  132MOL0     O17688   3.396  10.003   8.281  0.1016  0.0446 -0.9301
  132MOL0     C17689   3.294   9.986   8.193  0.4472 -0.3507  1.1030
  132MOL0     C17690   3.163  10.022   8.222  1.6175 -0.0491 -0.1555
  132MOL0     C17691   3.066   9.973   8.139  0.5329 -0.3247  0.5387
  132MOL0     C17692   3.090   9.921   8.011 -0.2262  0.4130 -0.9847
  132MOL0     O17693   2.998   9.903   7.905  0.5094  0.3442 -0.4660
  132MOL0     C17694   2.861   9.956   7.924 -0.7782 -0.4529  0.6559
  132MOL0     C17695   2.779   9.942   7.797  0.0380  0.3544  0.7464
  132MOL0     C17696   2.836  10.020   7.673  0.5568  0.8841 -0.4107
  132MOL0     C17697   2.771  10.004   7.539  1.0364  0.1368 -0.4366
  132MOL0     C17698   2.855  10.051   7.421  0.3286  0.2726  0.0627
  132MOL0     C17699   2.793  10.030   7.277 -0.0353  0.4526 -0.1373
  132MOL0     C17700   2.856  10.101   7.158 -0.2660  0.5071  0.1569
  132MOL0     C17701   2.769  10.070   7.025  0.5415  0.0467 -0.0607
  132MOL0     N17702   2.819  10.136   6.907  0.4061 -0.3882  0.1061
  132MOL0     C17703   2.936  10.087   6.857 -0.4057  0.0562 -0.5679
  132MOL0     C17704   2.986  10.184   6.771 -0.6039  0.7482 -0.4015
  132MOL0     C17705   3.113  10.186   6.691 -0.6100  0.5557 -0.3580
  132MOL0     C17706   3.221  10.095   6.774  0.4341 -0.1553  0.8635
  132MOL0     C17707   3.366  10.132   6.739  1.1528  0.0695  0.2839
  132MOL0     C17708   3.456  10.017   6.799  0.2431 -0.3195  0.2782
  132MOL0     O17709   3.425   9.990   6.940  0.1513  0.3502 -0.3061
  132MOL0     C17710   3.514   9.925   7.019  0.8021  0.8112  0.2147
  132MOL0     C17711   3.626   9.862   6.973 -0.0370 -0.2452 -0.2639
  132MOL0     C17712   3.704   9.784   7.061  0.5749  1.0705  0.6628
  132MOL0     C17713   3.664   9.749   7.186 -1.1271  0.2665 -0.6756
  132MOL0     C17714   3.732   9.640   7.268  0.1357  0.1334  0.1332
  132MOL0     O17715   3.851   9.600   7.227 -0.4814 -0.6244  0.2024
  132MOL0     C17716   3.924   9.507   7.306 -0.1774 -0.3035 -0.2405
  132MOL0     C17717   4.046   9.544   7.360  0.0527 -0.1130 -0.4239
  132MOL0     C17718   4.127   9.457   7.426  0.6978  0.5932 -0.6372
  132MOL0     C17719   4.090   9.325   7.462  0.6119  0.0277  0.5232
  132MOL0     O17720   4.178   9.240   7.533 -0.3289  0.7138  0.7874
  132MOL0     C17721   4.243   9.129   7.470  1.1700  0.3587 -0.4893
  132MOL0     C17722   4.391   9.152   7.477  0.1344 -0.5638 -0.2087
  132MOL0     C17723   4.470   9.022   7.505  0.7366 -0.3845  0.4168
  132MOL0     C17724   4.615   9.064   7.521  0.3166  0.0417 -1.0739
  132MOL0     C17725   4.701   8.931   7.510 -0.7291 -0.5205  0.2309
  132MOL0     C17726   4.852   8.949   7.527  0.3388 -0.0771 -0.3352
  132MOL0     C17727   4.931   9.003   7.401  0.5720 -0.1155 -0.4808
  132MOL0     C17728   5.081   9.017   7.411  0.7610  0.6550 -0.2395
  132MOL0    Cl17729   5.157   9.075   7.264 -0.6360 -0.0686  0.2260
  132MOL0     C17730   3.965   9.277   7.394 -0.3648  0.5046  0.5439
  132MOL0     C17731   3.889   9.372   7.322  0.2382  0.7966 -0.4301
  132MOL0     O17732   3.675   9.601   7.365 -0.6172  0.0271 -0.4780
  132MOL0     C17733   3.551   9.812   7.230 -0.0196  0.0009  0.4518
  132MOL0     C17734   3.469   9.900   7.148 -0.2291  0.0618  0.7567
  132MOL0     N17735   2.884  10.282   6.769 -0.4939  0.4516 -0.2633
  132MOL0     N17736   2.805  10.264   6.867 -0.1503  0.5258 -0.1840
  132MOL0     C17737   3.220   9.890   7.983  0.2301 -0.0291 -0.1528
  132MOL0     C17738   3.322   9.915   8.074  0.1168 -1.0834  0.3673
  132MOL0     C17739   3.503  10.033   8.499 -0.2135  0.3572 -0.4354
  132MOL0     C17740   3.625  10.017   8.439  0.2248 -0.2989  0.8119
  132MOL0     C17741   3.747  10.041   8.505 -0.3584  0.1847  0.6339
  132MOL0     C17742   3.740  10.069   8.644 -0.6953  0.6547  0.2670
  132MOL0     O17743   3.859  10.085   8.714 -0.0980  0.1125 -0.2961
  132MOL0     C17744   3.886   9.990   8.815 -0.3539 -0.0652 -0.1708
  132MOL0     C17745   4.018   9.909   8.791  0.0384  0.6995  0.0949
  132MOL0     C17746   4.141   9.993   8.772 -0.3614 -0.0287  1.2704
  132MOL0     C17747   4.262   9.899   8.802  0.3171 -1.1596 -0.3508
  132MOL0     C17748   4.382   9.986   8.803  0.1264  0.1873 -0.4309
  132MOL0     C17749   4.488  10.043   8.789 -0.3868  0.5313  0.2944
  132MOL0     C17750   3.620  10.105   8.701 -0.3172 -0.3953  0.1867
  132MOL0     C17751   3.498  10.091   8.634  0.4828 -0.1972 -0.1020
  132MOL0     C17752   3.375  10.167   8.692  0.4788 -0.6991  0.3895
  132MOL0     H17753   3.146  10.094   8.301 -1.3294  1.1888 -1.7522
  132MOL0     H17754   2.963  10.002   8.159 -0.1127 -3.0011  1.5750
  132MOL0     H17755   2.823   9.900   8.010 -3.0501 -1.4418 -0.8990
  132MOL0     H17756   2.868  10.064   7.944 -0.8926 -0.5396  1.1709
  132MOL0     H17757   2.681   9.987   7.815 -0.0947  0.4763 -0.2366
  132MOL0     H17758   2.774   9.837   7.767 -0.6916  0.8045 -0.7926
  132MOL0     H17759   2.937   9.981   7.660  0.4906  1.0400 -1.4937
  132MOL0     H17760   2.827  10.125   7.702 -1.7430  0.9776 -1.2214
  132MOL0     H17761   2.737   9.901   7.525  0.0857  0.5028 -1.0000
  132MOL0     H17762   2.671  10.048   7.534 -0.4739 -2.6754  1.8282
  132MOL0     H17763   2.874  10.158   7.434 -2.6995  1.3047 -2.5837
  132MOL0     H17764   2.951  10.000   7.423 -0.3889 -1.1876 -1.0143
  132MOL0     H17765   2.790   9.924   7.250  2.9020  0.8028 -2.3432
  132MOL0     H17766   2.688  10.059   7.289  0.2852  0.8136  2.4290
  132MOL0     H17767   2.954  10.055   7.141 -1.0437 -0.4556 -1.9939
  132MOL0     H17768   2.865  10.209   7.173 -1.1614  0.4387  1.3818
  132MOL0     H17769   2.759   9.961   7.018 -2.2176  0.2943 -1.1687
  132MOL0     H17770   2.669  10.112   7.042  0.9568  1.0677 -0.0504
  132MOL0     H17771   2.988   9.995   6.881  1.5955  0.2017 -3.7449
  132MOL0     H17772   3.091  10.146   6.592 -0.9629 -0.5661  0.1621
  132MOL0     H17773   3.145  10.290   6.674  1.9908 -0.0587  0.2823
  132MOL0     H17774   3.208  10.128   6.877  1.2789  1.4695  0.5044
  132MOL0     H17775   3.194   9.990   6.764 -1.8352  0.2779  1.9237
  132MOL0     H17776   3.397  10.226   6.784 -1.4805  0.4402  1.5243
  132MOL0     H17777   3.383  10.138   6.631 -1.4169 -4.0885 -0.6060
  132MOL0     H17778   3.561  10.046   6.794 -0.0770  0.8606  0.2008
  132MOL0     H17779   3.440   9.928   6.738 -1.1136 -1.4436  2.1666
  132MOL0     H17780   3.643   9.857   6.866  0.0426 -1.9764 -0.1961
  132MOL0     H17781   3.797   9.735   7.036 -0.2319  0.6873 -1.9345
  132MOL0     H17782   4.077   9.644   7.332 -0.9257 -0.7704 -4.5433
  132MOL0     H17783   4.225   9.485   7.465  1.4024 -0.9108 -1.2330
  132MOL0     H17784   4.215   9.038   7.524  4.1248 -0.9386 -0.9489
  132MOL0     H17785   4.213   9.114   7.367  4.1388 -0.6868 -1.3108
  132MOL0     H17786   4.421   9.186   7.378  0.8363 -0.5257  0.0162
  132MOL0     H17787   4.419   9.227   7.552  0.9031  2.0097 -2.8894
  132MOL0     H17788   4.432   8.972   7.595  1.9603  0.9178  1.7160
  132MOL0     H17789   4.459   8.959   7.416 -0.1016  0.0572  0.1892
  132MOL0     H17790   4.620   9.103   7.622  2.5419  0.6962 -1.3799
  132MOL0     H17791   4.655   9.131   7.444 -0.0481 -0.3603 -1.6269
  132MOL0     H17792   4.679   8.867   7.424 -1.7675 -0.8597  0.7297
  132MOL0     H17793   4.672   8.866   7.594 -1.1856 -0.2501  0.2873
  132MOL0     H17794   4.884   9.016   7.607 -1.5538  1.5203 -0.8127
  132MOL0     H17795   4.894   8.856   7.565 -0.7884  0.1760  1.6531
  132MOL0     H17796   4.891   9.103   7.386 -1.6545 -0.6590  1.2630
  132MOL0     H17797   4.904   8.938   7.317  0.4878  2.7580 -2.8193
  132MOL0     H17798   5.103   9.075   7.502 -0.6664 -0.2552  0.7257
  132MOL0     H17799   5.116   8.919   7.446  0.8418  1.7190  3.0296
  132MOL0     H17800   3.944   9.170   7.395  0.0968  0.4110  1.1881
  132MOL0     H17801   3.791   9.340   7.289 -0.1193  2.6880 -1.3469
  132MOL0     H17802   3.509   9.783   7.326  1.7374 -0.3104  1.1622
  132MOL0     H17803   3.371   9.939   7.177 -0.6087 -2.2397  2.9190
  132MOL0     H17804   3.240   9.868   7.878  2.3091  1.5759 -0.1481
  132MOL0     H17805   3.426   9.895   8.051  0.0712  0.3061 -1.2251
  132MOL0     H17806   3.624   9.990   8.334 -0.2964  0.3993  0.6241
  132MOL0     H17807   3.842  10.010   8.462 -0.0026  1.9565  0.0518
  132MOL0     H17808   3.804   9.917   8.814 -0.4048 -0.0091 -0.1526
  132MOL0     H17809   3.878  10.041   8.911 -1.9224 -2.0381  0.8250
  132MOL0     H17810   4.024   9.842   8.705  1.4007  0.9220 -0.0135
  132MOL0     H17811   4.035   9.835   8.870 -0.9752 -0.0837 -0.3921
  132MOL0     H17812   4.146  10.078   8.841  1.0398 -0.4883  1.7592
  132MOL0     H17813   4.146  10.034   8.670  1.3656  0.1968  1.4187
  132MOL0     H17814   4.255   9.844   8.896 -1.1209  0.8191  0.7760
  132MOL0     H17815   4.262   9.825   8.721 -0.4865 -0.1244 -1.3212
  132MOL0     H17816   4.578  10.101   8.801 -0.7452  1.1089  0.2519
  132MOL0     H17817   3.610  10.144   8.801 -2.3600  1.1314 -0.5504
  132MOL0     H17818   3.412  10.216   8.782  0.0061 -1.5753  1.0789
  132MOL0     H17819   3.330  10.235   8.618 -2.0646 -2.4641  0.1752
  132MOL0     H17820   3.297  10.100   8.728  1.2631 -1.1699  1.2574
  133MOL0     O17821   7.142   2.782   4.666 -0.5157  0.2337  0.2999
  133MOL0     C17822   7.152   2.727   4.771 -0.0138  0.7371 -0.3806
  133MOL0     O17823   7.265   2.680   4.827 -0.1435  0.1361 -0.0367
  133MOL0     C17824   7.387   2.713   4.772 -0.5321 -0.2087  0.0798
  133MOL0     C17825   7.499   2.721   4.853 -0.8502  0.5653  0.5312
  133MOL0     C17826   7.634   2.738   4.812 -0.1702 -0.0746 -0.3962
  133MOL0     C17827   7.657   2.762   4.678  0.2601  0.4422  0.5257
  133MOL0     O17828   7.794   2.787   4.648  1.4001  0.0943  0.3515
  133MOL0     C17829   7.845   2.726   4.529  0.2297 -0.4778 -1.2630
  133MOL0     C17830   7.812   2.584   4.507  0.2364 -0.0331 -1.2978
  133MOL0     C17831   7.837   2.545   4.368 -0.3536  0.4547  0.2522
  133MOL0     C17832   7.972   2.471   4.351 -0.8406 -0.3898  0.0156
  133MOL0     C17833   8.116   2.530   4.388  0.0599  0.1029  0.0729
  133MOL0     C17834   8.169   2.651   4.304 -0.0142  0.3276  0.2928
  133MOL0     C17835   8.200   2.606   4.162 -0.3646 -0.2257 -0.2773
  133MOL0     C17836   8.202   2.730   4.065 -0.4443 -0.8014  0.2431
  133MOL0     N17837   8.076   2.791   4.034 -0.3363  0.5276  0.3392
  133MOL0     C17838   7.950   2.746   4.062  0.0451  0.0348  0.9535
  133MOL0     C17839   7.868   2.838   4.004  0.3868 -0.3386  0.0991
  133MOL0     C17840   7.724   2.847   3.992  1.0924  1.7127 -0.2102
  133MOL0     C17841   7.698   2.820   3.840 -0.4102 -0.8736  0.4927
  133MOL0     C17842   7.564   2.876   3.788  0.9199 -0.4467 -0.0512
  133MOL0     C17843   7.442   2.796   3.824  0.7331 -0.0851 -0.2259
  133MOL0     O17844   7.439   2.782   3.969  0.0748  0.0086  0.0587
  133MOL0     C17845   7.323   2.807   4.037 -0.1057 -0.2569 -0.4981
  133MOL0     C17846   7.198   2.842   3.981 -0.3218 -0.4002 -0.4912
  133MOL0     C17847   7.088   2.871   4.062  0.1555  0.2724 -0.7950
  133MOL0     C17848   7.103   2.865   4.203  0.0988 -0.5011  0.1570
  133MOL0     C17849   6.995   2.904   4.291  0.4830 -0.1782  0.3995
  133MOL0     O17850   6.871   2.920   4.245 -0.3698 -0.4139 -0.0029
  133MOL0     C17851   6.756   2.948   4.313  0.4452  0.2656 -0.3862
  133MOL0     C17852   6.641   2.875   4.291 -0.4036  0.0137  0.3993
  133MOL0     C17853   6.527   2.904   4.368 -0.7776  0.3386 -0.4483
  133MOL0     C17854   6.528   3.011   4.468  0.0271  0.0379 -0.0874
  133MOL0     O17855   6.416   3.042   4.540 -0.2136 -0.4411  0.1866
  133MOL0     C17856   6.292   2.980   4.531 -0.6869 -0.5425  0.3218
  133MOL0     C17857   6.204   3.043   4.642 -0.4428 -0.3242  0.0757
  133MOL0     C17858   6.088   2.961   4.688  0.3189  0.0430  0.0654
  133MOL0     C17859   6.128   2.820   4.748  0.5865 -0.1812 -0.8874
  133MOL0     C17860   6.004   2.746   4.801 -0.0893  0.2771 -0.0396
  133MOL0     C17861   6.030   2.608   4.876 -0.2731 -0.1516  0.8493
  133MOL0     C17862   5.913   2.543   4.944 -0.0972 -0.0075  0.5466
  133MOL0     C17863   5.829   2.442   4.844 -0.3295 -0.8912 -0.4864
  133MOL0    Cl17864   5.731   2.348   4.951 -0.0375  0.6996 -0.5130
  133MOL0     C17865   6.638   3.085   4.481 -0.5865  0.4241  0.5477
  133MOL0     C17866   6.756   3.053   4.404 -0.2196 -0.2674 -0.6325
  133MOL0     O17867   7.031   2.924   4.404 -0.0123 -0.6659  0.1914
  133MOL0     C17868   7.226   2.825   4.260 -0.5265 -0.6267  0.4491
  133MOL0     C17869   7.339   2.800   4.174  0.4802  0.6623 -0.8456
  133MOL0     N17870   7.955   2.931   3.952 -0.3617  0.1537  0.5103
  133MOL0     N17871   8.081   2.901   3.955 -0.3561  0.1784 -0.8985
  133MOL0     C17872   7.546   2.765   4.586  0.3039 -0.3234 -0.1822
  133MOL0     C17873   7.418   2.738   4.633 -1.1584 -0.0493 -0.1361
  133MOL0     C17874   7.024   2.673   4.837  0.7890  0.4878  0.1265
  133MOL0     C17875   7.044   2.584   4.946  0.5031  0.0898 -0.1279
  133MOL0     C17876   6.942   2.530   5.019  0.0654 -0.7760  0.2492
  133MOL0     C17877   6.805   2.571   4.993 -0.3418  0.0089 -0.2457
  133MOL0     O17878   6.687   2.533   5.053  0.0293 -0.7945  0.0066
  133MOL0     C17879   6.691   2.407   5.109  0.0138  0.6311 -0.0126
  133MOL0     C17880   6.545   2.358   5.141  1.2121  0.2884 -0.1104
  133MOL0     C17881   6.478   2.332   4.999  0.5076 -0.8532  0.4191
  133MOL0     C17882   6.335   2.287   5.017  0.0510 -0.7299  0.3099
  133MOL0     C17883   6.257   2.392   5.081  0.1993  0.0886 -0.3403
  133MOL0     C17884   6.191   2.476   5.139 -0.1569 -0.1006 -1.0132
  133MOL0     C17885   6.788   2.665   4.893 -0.1514  0.2329  0.9598
  133MOL0     C17886   6.894   2.722   4.818 -0.2512  0.0204  0.3163
  133MOL0     C17887   6.873   2.837   4.720 -0.2256 -0.9810  0.7462
  133MOL0     H17888   7.480   2.723   4.960 -0.0511  2.2753  0.6722
  133MOL0     H17889   7.712   2.738   4.887 -1.9668  1.5626  1.6291
  133MOL0     H17890   7.791   2.786   4.455 -0.4469  2.8199  1.6507
  133MOL0     H17891   7.952   2.741   4.512  0.1217 -0.6655 -2.1882
  133MOL0     H17892   7.708   2.558   4.527 -0.9061  4.0655 -0.9660
  133MOL0     H17893   7.861   2.523   4.584 -2.1371  0.0028  0.3660
  133MOL0     H17894   7.824   2.627   4.298  0.8920 -0.8129 -1.5729
  133MOL0     H17895   7.765   2.470   4.333  0.5286  0.1724 -1.0478
  133MOL0     H17896   7.961   2.392   4.426 -1.6444  1.7414  2.3014
  133MOL0     H17897   7.970   2.435   4.248 -3.1049  0.8678 -0.4746
  133MOL0     H17898   8.114   2.564   4.492 -1.4681  1.2999 -0.3036
  133MOL0     H17899   8.191   2.451   4.396 -1.0504 -0.7839  3.4469
  133MOL0     H17900   8.098   2.733   4.292  1.8718  1.8697 -1.1946
  133MOL0     H17901   8.252   2.702   4.354  0.0730  1.6278 -1.0850
  133MOL0     H17902   8.124   2.540   4.119 -1.2889  0.5540  0.1416
  133MOL0     H17903   8.299   2.558   4.166 -1.4960 -2.6483  1.0976
  133MOL0     H17904   8.257   2.805   4.123 -2.5854 -0.8900  2.5203
  133MOL0     H17905   8.261   2.691   3.981 -1.5275 -0.1856 -0.8266
  133MOL0     H17906   7.921   2.662   4.124 -1.8442 -1.9991 -2.3806
  133MOL0     H17907   7.670   2.774   4.052 -4.8008  4.3597 -1.5517
  133MOL0     H17908   7.697   2.947   4.028  1.1054  0.9170  2.1387
  133MOL0     H17909   7.777   2.885   3.801 -1.0504 -0.2499  0.2240
  133MOL0     H17910   7.721   2.717   3.812  1.9085 -1.1423  2.9272
  133MOL0     H17911   7.563   2.888   3.680 -0.9737 -3.2389 -0.4320
  133MOL0     H17912   7.548   2.973   3.838  1.0779  0.1159 -1.0748
  133MOL0     H17913   7.447   2.691   3.792 -0.9250 -0.9943  2.2710
  133MOL0     H17914   7.357   2.845   3.776 -0.7269 -1.4504  0.8646
  133MOL0     H17915   7.184   2.843   3.874  1.9304  2.9841 -0.8902
  133MOL0     H17916   6.996   2.892   4.008 -0.3943  0.1714  0.0676
  133MOL0     H17917   6.630   2.800   4.213 -1.3780  1.1615 -0.6046
  133MOL0     H17918   6.434   2.850   4.351 -1.6865  1.9699 -0.9059
  133MOL0     H17919   6.259   3.000   4.429  3.4737  2.1025 -0.7405
  133MOL0     H17920   6.315   2.874   4.547  4.7338  0.0626 -1.4660
  133MOL0     H17921   6.271   3.064   4.725 -0.6647 -0.7579  0.3696
  133MOL0     H17922   6.153   3.136   4.617  1.0045 -0.0403 -2.0806
  133MOL0     H17923   6.033   3.016   4.765 -0.0961  1.3217 -1.0871
  133MOL0     H17924   6.020   2.952   4.603  0.5144 -0.1576 -0.0714
  133MOL0     H17925   6.203   2.828   4.827  2.3359  0.7635 -2.5321
  133MOL0     H17926   6.172   2.754   4.672  3.0181 -3.8897  3.2487
  133MOL0     H17927   5.932   2.737   4.719  1.6766 -5.0766 -1.3648
  133MOL0     H17928   5.957   2.807   4.878  1.0899 -1.7668  2.4301
  133MOL0     H17929   6.074   2.538   4.805 -0.9512  2.1558 -2.0336
  133MOL0     H17930   6.103   2.627   4.956 -0.1154  0.9140  0.4702
  133MOL0     H17931   5.858   2.629   4.983  1.1304  0.2610  1.7415
  133MOL0     H17932   5.940   2.471   5.022 -0.3059 -2.6086 -1.6161
  133MOL0     H17933   5.769   2.494   4.769 -2.3096 -0.6918  1.1579
  133MOL0     H17934   5.895   2.371   4.792 -1.5459  0.4592 -4.2440
  133MOL0     H17935   6.649   3.160   4.558 -1.1722 -1.0242  2.1088
  133MOL0     H17936   6.850   3.107   4.415 -0.0294 -0.7232  0.0402
  133MOL0     H17937   7.233   2.838   4.368  2.8781 -1.2532  0.4200
  133MOL0     H17938   7.439   2.780   4.210  0.5102 -1.2877 -1.8337
  133MOL0     H17939   7.578   2.803   4.489 -0.4068 -0.2659 -0.3969
  133MOL0     H17940   7.348   2.747   4.550 -1.3852 -1.7317 -0.1551
  133MOL0     H17941   7.136   2.535   4.977 -1.4697 -2.6104  1.9284
  133MOL0     H17942   6.963   2.458   5.097 -0.5233  0.7513  1.8643
  133MOL0     H17943   6.745   2.410   5.204  1.2282  1.3273 -0.6863
  133MOL0     H17944   6.747   2.344   5.039  0.3099 -0.0471  0.8137
  133MOL0     H17945   6.485   2.431   5.196  1.9297 -0.8128  2.2811
  133MOL0     H17946   6.552   2.262   5.194 -0.5878 -1.4243 -2.7275
  133MOL0     H17947   6.537   2.261   4.939  0.4456 -0.5056 -0.0624
  133MOL0     H17948   6.479   2.421   4.935  0.3548 -0.8619  0.4030
  133MOL0     H17949   6.304   2.244   4.922  0.4830 -1.4832  0.5069
  133MOL0     H17950   6.340   2.206   5.090 -0.1277 -1.5065 -0.5326
  133MOL0     H17951   6.136   2.546   5.197  1.4093  0.9878 -0.7645
  133MOL0     H17952   6.689   2.697   4.862 -0.1155  0.1698  0.7817
  133MOL0     H17953   6.895   2.792   4.623  0.3181 -2.2533  1.4296
  133MOL0     H17954   6.765   2.853   4.724 -0.1398 -0.6746  2.8532
  133MOL0     H17955   6.932   2.929   4.732  1.4284 -1.7434 -1.0279
  134MOL0     O17956   8.153   0.421   7.694  0.0934 -0.8382 -0.5483
  134MOL0     C17957   8.190   0.461   7.810 -0.9141  0.0820  0.1822
  134MOL0     O17958   8.324   0.461   7.844 -0.4429 -0.0393 -0.3863
  134MOL0     C17959   8.412   0.398   7.760  0.7442  0.1929  0.5475
  134MOL0     C17960   8.446   0.445   7.630  0.1350 -0.1002  0.5634
  134MOL0     C17961   8.528   0.379   7.542 -0.7063  0.0056 -0.7856
  134MOL0     C17962   8.595   0.256   7.584 -0.1184  0.2488 -0.2071
  134MOL0     O17963   8.675   0.202   7.488 -0.2158 -0.3244  0.3637
  134MOL0     C17964   8.795   0.131   7.533 -0.3112 -0.2728  0.5672
  134MOL0     C17965   8.765  -0.016   7.526 -0.2569  0.0155 -0.4623
  134MOL0     C17966   8.742  -0.065   7.383  0.1033  0.1901 -0.3551
  134MOL0     C17967   8.752  -0.218   7.353 -0.7013 -0.1657  0.3682
  134MOL0     C17968   8.674  -0.253   7.232 -0.7791 -0.1744 -0.5973
  134MOL0     C17969   8.672  -0.404   7.196 -0.1302 -0.1182  0.3081
  134MOL0     C17970   8.799  -0.449   7.114  0.1860 -0.5305  0.4726
  134MOL0     C17971   8.899  -0.536   7.191 -0.0960 -0.3863  0.5086
  134MOL0     N17972   8.844  -0.663   7.229 -0.3355  0.6661 -0.5544
  134MOL0     C17973   8.822  -0.768   7.139  0.4871 -0.1049 -1.0710
  134MOL0     C17974   8.739  -0.854   7.206 -0.3217  0.2642 -0.0251
  134MOL0     C17975   8.703  -0.988   7.149  0.4732  0.3246 -0.4084
  134MOL0     C17976   8.569  -0.975   7.070  0.4600 -1.0819  0.1532
  134MOL0     C17977   8.464  -0.887   7.144 -0.4413  0.1657  0.7459
  134MOL0     C17978   8.322  -0.912   7.096 -0.0589  0.0245  0.6194
  134MOL0     O17979   8.308  -0.827   6.983 -0.8040  0.6192  0.2499
  134MOL0     C17980   8.198  -0.849   6.901  0.7417 -0.7193  0.4426
  134MOL0     C17981   8.206  -0.791   6.771  0.1934  0.1434  0.3685
  134MOL0     C17982   8.103  -0.795   6.680  2.2325  0.3502  0.3396
  134MOL0     C17983   7.980  -0.865   6.723  0.7369 -0.1395  1.3213
  134MOL0     C17984   7.854  -0.852   6.639  0.3059 -0.4476  0.3254
  134MOL0     O17985   7.846  -0.753   6.538 -0.0891  1.0744 -0.0317
  134MOL0     C17986   7.744  -0.764   6.443  0.4301 -0.4095 -0.8429
  134MOL0     C17987   7.700  -0.659   6.384  1.8985 -1.2610  0.7799
  134MOL0     C17988   7.586  -0.658   6.295 -0.5823 -0.2405  0.0343
  134MOL0     C17989   7.544  -0.777   6.245  0.4622 -0.0879  1.5140
  134MOL0     O17990   7.435  -0.791   6.160  0.0304 -0.5683  0.1532
  134MOL0     C17991   7.362  -0.668   6.126 -0.7781  0.7039  0.2319
  134MOL0     C17992   7.228  -0.716   6.056  0.3774  0.2095 -0.5260
  134MOL0     C17993   7.123  -0.614   6.050  0.7399 -0.4303 -0.5703
  134MOL0     C17994   6.996  -0.666   5.968 -0.6425  0.1272 -0.6232
  134MOL0     C17995   6.905  -0.757   6.056 -0.5889 -0.2583  0.4007
  134MOL0     C17996   6.786  -0.814   5.973  0.1518  0.2961 -0.3131
  134MOL0     C17997   6.674  -0.850   6.073 -0.5802  0.3505  0.8720
  134MOL0     C17998   6.550  -0.894   5.989 -0.2140 -0.5752 -0.0657
  134MOL0    Cl17999   6.423  -0.920   6.105  0.3354  0.0995  0.1150
  134MOL0     C18000   7.613  -0.889   6.290  0.0733 -0.1864  0.6652
  134MOL0     C18001   7.712  -0.889   6.391 -0.2432 -0.9459 -1.2302
  134MOL0     O18002   7.760  -0.930   6.667  0.3067  0.4623 -0.2410
  134MOL0     C18003   7.977  -0.923   6.848 -0.0225 -1.2378  1.0927
  134MOL0     C18004   8.081  -0.913   6.933  0.8336  0.7965 -0.0482
  134MOL0     N18005   8.719  -0.798   7.330  0.4910  0.4863  0.4534
  134MOL0     N18006   8.784  -0.688   7.344  0.2959  0.0925  0.4728
  134MOL0     C18007   8.562   0.210   7.715  0.5173  0.4768 -0.1456
  134MOL0     C18008   8.464   0.280   7.797 -1.4693  1.0389 -1.1507
  134MOL0     C18009   8.097   0.530   7.904  1.2618  0.5873 -0.5181
  134MOL0     C18010   7.969   0.573   7.861  0.0608  0.6324 -0.9428
  134MOL0     C18011   7.880   0.632   7.949  0.1246 -0.2542 -0.4100
  134MOL0     C18012   7.918   0.664   8.079  1.4607  0.6447  1.4718
  134MOL0     O18013   7.821   0.745   8.143  0.0132  0.3227  0.6151
  134MOL0     C18014   7.878   0.837   8.237 -0.2074  0.2745 -0.8789
  134MOL0     C18015   7.839   0.978   8.191 -0.3355 -0.3062  0.3071
  134MOL0     C18016   7.902   1.090   8.285  0.3758  0.0253  0.0818
  134MOL0     C18017   7.846   1.092   8.430 -0.0607  0.3038 -0.0795
  134MOL0     C18018   7.892   1.195   8.523 -0.2916 -0.1784 -0.7231
  134MOL0     C18019   7.946   1.266   8.607 -0.5289  0.7969  0.1870
  134MOL0     C18020   8.042   0.621   8.127 -0.2207 -0.3183  0.2410
  134MOL0     C18021   8.130   0.561   8.039  0.7231  0.1303  0.0718
  134MOL0     C18022   8.260   0.531   8.104  0.2999  0.1759 -1.5984
  134MOL0     H18023   8.414   0.544   7.598  0.3130 -1.1261 -3.2147
  134MOL0     H18024   8.547   0.412   7.441 -0.6965 -0.0001 -0.7856
  134MOL0     H18025   8.874   0.150   7.460 -2.5722  0.0780 -1.9423
  134MOL0     H18026   8.813   0.161   7.637  2.4037  0.8819 -0.1438
  134MOL0     H18027   8.682  -0.049   7.589 -0.6542 -0.5425 -1.2529
  134MOL0     H18028   8.845  -0.074   7.572 -2.9169 -0.8916  3.5267
  134MOL0     H18029   8.819  -0.014   7.324 -0.7861  0.7313 -1.0824
  134MOL0     H18030   8.650  -0.027   7.337  1.0863  0.5686 -2.1177
  134MOL0     H18031   8.853  -0.238   7.319 -1.0081  0.4612 -0.9919
  134MOL0     H18032   8.728  -0.282   7.438  0.4109  0.3107  1.0660
  134MOL0     H18033   8.570  -0.219   7.237 -0.5423  1.0284 -2.6033
  134MOL0     H18034   8.711  -0.204   7.142 -0.5257 -0.7837 -0.8291
  134MOL0     H18035   8.662  -0.473   7.280 -1.3946 -1.6265 -1.0243
  134MOL0     H18036   8.585  -0.433   7.136 -0.1413 -0.8066  0.6391
  134MOL0     H18037   8.843  -0.364   7.061 -1.1135 -2.3037 -3.8707
  134MOL0     H18038   8.759  -0.507   7.030 -0.3057  1.0798 -0.4499
  134MOL0     H18039   8.995  -0.532   7.139 -1.2526 -1.7687 -1.9278
  134MOL0     H18040   8.910  -0.482   7.285 -0.9104 -0.7221  0.8059
  134MOL0     H18041   8.849  -0.770   7.034  3.6626  1.5726 -0.4252
  134MOL0     H18042   8.788  -1.013   7.085  2.2382  4.3359  0.0171
  134MOL0     H18043   8.689  -1.063   7.227  4.8136  1.1167  1.4843
  134MOL0     H18044   8.600  -0.945   6.969 -1.4677  0.0915 -0.1536
  134MOL0     H18045   8.518  -1.070   7.052 -2.1043  0.3491 -0.6822
  134MOL0     H18046   8.496  -0.783   7.132  0.7650 -0.0205  2.0940
  134MOL0     H18047   8.467  -0.911   7.250 -0.2661 -0.7683  0.5358
  134MOL0     H18048   8.249  -0.874   7.168 -1.7887  0.4490 -1.2932
  134MOL0     H18049   8.306  -1.019   7.080  2.1201 -0.2998  0.3002
  134MOL0     H18050   8.294  -0.735   6.741 -1.1931  1.2322 -1.8852
  134MOL0     H18051   8.104  -0.747   6.583  1.3481 -0.6127 -0.1651
  134MOL0     H18052   7.735  -0.563   6.421  1.1917 -0.2168 -1.1589
  134MOL0     H18053   7.541  -0.566   6.259 -0.7891 -0.8454 -1.3266
  134MOL0     H18054   7.333  -0.612   6.215 -1.2900 -1.7188  1.6915
  134MOL0     H18055   7.423  -0.605   6.061  2.1750 -1.3201  0.8027
  134MOL0     H18056   7.243  -0.744   5.951 -4.1524  0.1144 -1.3621
  134MOL0     H18057   7.179  -0.794   6.115 -0.8120 -1.1708 -3.1426
  134MOL0     H18058   7.091  -0.590   6.152 -0.0969  1.7405 -1.2715
  134MOL0     H18059   7.167  -0.522   6.010  1.9325 -0.2766  0.9881
  134MOL0     H18060   7.028  -0.722   5.880  2.6578 -0.6203  0.8816
  134MOL0     H18061   6.932  -0.579   5.948 -3.5184 -0.9116  2.9416
  134MOL0     H18062   6.879  -0.687   6.135  3.9359  0.9553  1.1093
  134MOL0     H18063   6.969  -0.836   6.098  0.8683  0.3035 -0.6746
  134MOL0     H18064   6.750  -0.735   5.906  0.9493  0.1744 -0.9101
  134MOL0     H18065   6.821  -0.897   5.910  3.5778  2.9805 -2.3240
  134MOL0     H18066   6.661  -0.761   6.135 -0.9784  2.9605 -2.5928
  134MOL0     H18067   6.707  -0.941   6.123  0.5913  0.5741  0.5463
  134MOL0     H18068   6.512  -0.815   5.924 -1.7822 -0.8960  0.4131
  134MOL0     H18069   6.563  -0.974   5.916  0.3315 -1.4879  1.0048
  134MOL0     H18070   7.580  -0.985   6.249 -1.1561  0.9540 -1.1568
  134MOL0     H18071   7.775  -0.972   6.423 -0.1079  0.6811  3.5331
  134MOL0     H18072   7.881  -0.960   6.883 -0.6766 -0.3092  0.3501
  134MOL0     H18073   8.067  -0.954   7.032 -3.8671  0.4153 -0.6133
  134MOL0     H18074   8.604   0.118   7.756 -1.2653 -0.8120 -1.0493
  134MOL0     H18075   8.451   0.230   7.892  1.6583  0.0490 -1.1215
  134MOL0     H18076   7.951   0.566   7.754  0.3966 -2.6438 -0.8848
  134MOL0     H18077   7.780   0.650   7.910 -1.0673 -2.4301  1.3751
  134MOL0     H18078   7.988   0.834   8.237 -0.1740 -0.5542 -3.2863
  134MOL0     H18079   7.835   0.820   8.336  0.0029 -1.4095 -1.0382
  134MOL0     H18080   7.731   0.990   8.178 -0.1236  2.1460  0.2621
  134MOL0     H18081   7.886   0.986   8.092  1.2978 -0.5255  1.0350
  134MOL0     H18082   7.878   1.188   8.243 -2.8148 -1.5780 -2.3048
  134MOL0     H18083   8.009   1.072   8.293  0.1245 -0.6811  3.1538
  134MOL0     H18084   7.738   1.101   8.434  0.1470  4.1958  2.2969
  134MOL0     H18085   7.888   0.997   8.463  0.7199  0.8219  0.4814
  134MOL0     H18086   8.006   1.322   8.677 -0.0478 -2.1511  2.3059
  134MOL0     H18087   8.064   0.646   8.230 -0.2354  1.3982 -0.1445
  134MOL0     H18088   8.264   0.555   8.210 -1.0791 -0.0362 -1.4718
  134MOL0     H18089   8.263   0.423   8.085 -2.0422 -0.1879 -0.3369
  134MOL0     H18090   8.343   0.576   8.048  1.3675 -2.0162 -1.8604
  135MOL0     O18091   1.611   9.838   5.314 -0.1889  0.0549  0.4097
  135MOL0     C18092   1.691   9.783   5.389 -0.7987  0.3999 -0.2099
  135MOL0     O18093   1.655   9.729   5.509 -0.0351  0.7711  0.7475
  135MOL0     C18094   1.533   9.750   5.561 -0.1215 -0.2199 -0.0938
  135MOL0     C18095   1.499   9.878   5.599 -0.4035 -0.8104  0.1519
  135MOL0     C18096   1.378   9.892   5.670  0.4427 -0.2539  0.0945
  135MOL0     C18097   1.301   9.785   5.717  0.9461 -0.3924 -0.4643
  135MOL0     O18098   1.186   9.821   5.778  0.5857  0.6187 -0.6799
  135MOL0     C18099   1.079   9.725   5.786  0.3343  0.8347 -0.0184
  135MOL0     C18100   0.948   9.788   5.847  0.1414 -0.3347  0.6064
  135MOL0     C18101   0.907   9.925   5.785  0.6569  0.0788 -1.0842
  135MOL0     C18102   0.772   9.968   5.848  0.1246 -0.0285 -0.2842
  135MOL0     C18103   0.745  10.117   5.848 -0.1057  1.1117 -0.5570
  135MOL0     C18104   0.718  10.186   5.714 -0.1201 -0.2186  0.0206
  135MOL0     C18105   0.576  10.142   5.653 -0.8958  0.3361 -0.1687
  135MOL0     C18106   0.534  10.195   5.520  0.0664  0.2238 -0.0269
  135MOL0     N18107   0.621  10.145   5.414  1.0072  0.4666  0.1339
  135MOL0     C18108   0.744  10.190   5.376 -0.8011  0.1794  0.7015
  135MOL0     C18109   0.790  10.095   5.298  1.0520 -0.1785  0.4311
  135MOL0     C18110   0.925  10.112   5.239 -0.3117  0.0860  0.0912
  135MOL0     C18111   1.029  10.071   5.346  0.6397 -0.0729  0.1853
  135MOL0     C18112   1.175  10.061   5.282 -0.3252 -0.3804  0.4802
  135MOL0     C18113   1.225  10.208   5.259 -0.5417  0.5790  0.2407
  135MOL0     O18114   1.258  10.262   5.381 -0.4031 -0.0238 -0.9823
  135MOL0     C18115   1.382  10.271   5.422 -0.5891  0.0189 -0.7512
  135MOL0     C18116   1.408  10.373   5.511 -0.2505  0.5302 -0.5339
  135MOL0     C18117   1.542  10.402   5.549  0.2142 -0.5430 -0.7113
  135MOL0     C18118   1.642  10.322   5.488  0.5674  0.0156 -0.4533
  135MOL0     C18119   1.777  10.363   5.504  0.4516  0.1131 -0.6526
  135MOL0     O18120   1.789  10.502   5.553 -0.8600  0.2808  0.2378
  135MOL0     C18121   1.915  10.549   5.546  0.5100 -0.1923 -0.6498
  135MOL0     C18122   1.978  10.575   5.425  0.2731 -0.3387  0.5392
  135MOL0     C18123   2.114  10.618   5.422 -0.8068  0.2695  0.2423
  135MOL0     C18124   2.181  10.636   5.538 -0.4911  0.2062  0.3045
  135MOL0     O18125   2.311  10.673   5.537 -0.4160 -0.1940 -0.5028
  135MOL0     C18126   2.397  10.600   5.628 -0.7223  0.0313  0.1122
  135MOL0     C18127   2.539  10.647   5.605  0.4240 -0.0763  0.0752
  135MOL0     C18128   2.609  10.572   5.484 -0.5378  0.7741  0.1052
  135MOL0     C18129   2.754  10.594   5.493 -0.7080 -0.2298 -0.0217
  135MOL0     C18130   2.802  10.570   5.353  0.0436  0.6243  0.8039
  135MOL0     C18131   2.945  10.626   5.343 -0.0315 -0.0535 -0.5751
  135MOL0     C18132   3.001  10.601   5.201 -0.3196 -0.8567 -0.3730
  135MOL0     C18133   3.140  10.664   5.182 -0.5287  0.4367  0.0762
  135MOL0    Cl18134   3.142  10.839   5.219 -0.1409  0.2628  0.5931
  135MOL0     C18135   2.114  10.619   5.660  0.9296 -0.2049  0.4259
  135MOL0     C18136   1.981  10.573   5.665 -0.7169 -0.2705 -0.4571
  135MOL0     O18137   1.869  10.297   5.476 -0.2439  0.4535  0.1036
  135MOL0     C18138   1.621  10.214   5.400 -0.3444  0.0288  0.2700
  135MOL0     C18139   1.485  10.196   5.368  0.3631 -0.0469  0.3466
  135MOL0     N18140   0.696   9.990   5.291 -0.8381 -0.1031 -0.2939
  135MOL0     N18141   0.600  10.023   5.368  0.1809  0.2192  1.0041
  135MOL0     C18142   1.342   9.661   5.680  0.4665  0.3936  0.4873
  135MOL0     C18143   1.454   9.644   5.593  0.0039 -0.2375  0.8857
  135MOL0     C18144   1.837   9.767   5.339 -0.0701 -0.2610 -0.3231
  135MOL0     C18145   1.873   9.845   5.223 -0.3663  0.5586 -0.5181
  135MOL0     C18146   2.004   9.844   5.185 -0.3696 -0.1781  0.1100
  135MOL0     C18147   2.108   9.781   5.259 -1.5960  1.3238 -0.1237
  135MOL0     O18148   2.236   9.812   5.219  0.5510 -0.4142 -0.3778
  135MOL0     C18149   2.340   9.841   5.314  0.1484  0.5929 -0.0488
  135MOL0     C18150   2.362   9.987   5.346  0.7883  0.2381 -0.8219
  135MOL0     C18151   2.428  10.023   5.485  0.1565 -0.3280  0.7276
  135MOL0     C18152   2.439  10.175   5.521 -0.7725 -1.0619 -0.2357
  135MOL0     C18153   2.302  10.234   5.526  0.6635  1.4434 -0.2264
  135MOL0     C18154   2.186  10.276   5.509  0.8094 -0.5354  0.3199
  135MOL0     C18155   2.075   9.700   5.370 -0.1896  0.3593  0.8143
  135MOL0     C18156   1.942   9.691   5.407  0.5323  0.5719  0.1843
  135MOL0     C18157   1.916   9.599   5.517  0.3336  0.4230  0.4123
  135MOL0     H18158   1.562   9.963   5.571 -1.0699 -0.1019  0.7573
  135MOL0     H18159   1.334   9.991   5.680 -0.4774 -0.5188 -0.9515
  135MOL0     H18160   1.053   9.701   5.683 -0.5357 -1.2094  0.6234
  135MOL0     H18161   1.105   9.636   5.845 -0.0519  0.4446 -0.4261
  135MOL0     H18162   0.972   9.791   5.954  2.3975 -2.0472  0.2329
  135MOL0     H18163   0.862   9.721   5.837  0.1258  0.0315 -5.7627
  135MOL0     H18164   0.898   9.919   5.676  1.7574  1.5167 -1.2791
  135MOL0     H18165   0.987   9.989   5.822  2.0393 -1.5403 -1.1958
  135MOL0     H18166   0.685   9.913   5.812 -1.5277  2.2694 -0.0166
  135MOL0     H18167   0.768   9.945   5.954 -1.7406 -0.5182 -0.4297
  135MOL0     H18168   0.661  10.121   5.918 -0.6830 -0.0820 -1.1340
  135MOL0     H18169   0.827  10.167   5.900  0.4966 -1.9168  1.7249
  135MOL0     H18170   0.701  10.290   5.740 -2.7605  0.1255 -2.5899
  135MOL0     H18171   0.804  10.178   5.647  0.3741  4.2718 -0.1548
  135MOL0     H18172   0.501  10.180   5.723  0.4605  2.6566  0.1596
  135MOL0     H18173   0.566  10.034   5.644 -1.3273  0.3039  0.6246
  135MOL0     H18174   0.428  10.168   5.511  0.4753 -0.8826 -2.2334
  135MOL0     H18175   0.536  10.304   5.524 -0.5145  0.2105  0.9145
  135MOL0     H18176   0.794  10.283   5.399 -2.8857  1.0059  2.1937
  135MOL0     H18177   0.943  10.036   5.162 -0.7670 -1.8549  1.7943
  135MOL0     H18178   0.945  10.213   5.204  0.1922  1.8045  4.6596
  135MOL0     H18179   1.020  10.132   5.436 -2.1550 -0.8218  0.5079
  135MOL0     H18180   1.004   9.970   5.381  0.2845  0.3429  1.1649
  135MOL0     H18181   1.177  10.006   5.187  1.8610  3.7433 -2.1774
  135MOL0     H18182   1.251  10.014   5.345  2.2443  1.6375 -0.8903
  135MOL0     H18183   1.154  10.271   5.205  2.4632  3.5815 -0.5060
  135MOL0     H18184   1.316  10.209   5.198 -1.0751 -2.6281 -0.8404
  135MOL0     H18185   1.330  10.443   5.540  0.1103  0.6418  0.2006
  135MOL0     H18186   1.570  10.472   5.627  2.3249 -0.2916 -1.6124
  135MOL0     H18187   1.923  10.559   5.333  0.2403 -0.7665  0.6313
  135MOL0     H18188   2.157  10.637   5.324 -0.7836 -1.0453 -0.0191
  135MOL0     H18189   2.376  10.599   5.735  0.2190  0.7238  0.3211
  135MOL0     H18190   2.391  10.494   5.602 -0.3649 -0.3534  1.5276
  135MOL0     H18191   2.553  10.754   5.587  0.0097 -0.5988 -4.4723
  135MOL0     H18192   2.585  10.613   5.698 -1.1512 -2.0658  0.1981
  135MOL0     H18193   2.590  10.465   5.495 -2.1290  1.2011  1.9919
  135MOL0     H18194   2.569  10.595   5.384 -1.4911 -1.1444 -0.0111
  135MOL0     H18195   2.807  10.529   5.564  0.1236  0.1785 -0.2700
  135MOL0     H18196   2.769  10.697   5.526  0.8673  0.0785 -1.5831
  135MOL0     H18197   2.748  10.617   5.271  1.7138 -2.3179 -2.2256
  135MOL0     H18198   2.799  10.462   5.337  1.4401  0.8825 -1.7880
  135MOL0     H18199   2.930  10.729   5.379  0.1991 -1.0257  2.6474
  135MOL0     H18200   3.003  10.572   5.419  0.9697  1.0400 -0.5265
  135MOL0     H18201   2.938  10.644   5.122  0.3650  1.0033  0.0230
  135MOL0     H18202   3.006  10.493   5.185  0.3028 -0.9789  0.5582
  135MOL0     H18203   3.199  10.611   5.258 -0.6726  0.3527  0.1305
  135MOL0     H18204   3.193  10.640   5.089  0.2828 -1.9087  1.0789
  135MOL0     H18205   2.161  10.636   5.757 -1.8705  2.2021  1.4928
  135MOL0     H18206   1.936  10.561   5.764  1.0696  0.3556  0.4783
  135MOL0     H18207   1.702  10.158   5.357 -2.2983 -3.6504  0.9406
  135MOL0     H18208   1.474  10.110   5.303  1.4392  0.0838 -0.0266
  135MOL0     H18209   1.290   9.571   5.711  0.1608 -1.9041 -5.4130
  135MOL0     H18210   1.477   9.539   5.581 -2.3324 -0.6938 -0.2046
  135MOL0     H18211   1.793   9.899   5.174 -1.3330 -1.7687 -1.6603
  135MOL0     H18212   2.037   9.906   5.102  2.1813  1.7302  2.3701
  135MOL0     H18213   2.431   9.797   5.272  0.5692 -2.3133  3.4504
  135MOL0     H18214   2.308   9.797   5.409 -4.0263  5.1441  1.0295
  135MOL0     H18215   2.263  10.033   5.351  0.4749 -0.5272  0.4731
  135MOL0     H18216   2.420  10.032   5.265  1.2332 -0.3299 -0.8273
  135MOL0     H18217   2.529   9.979   5.487  0.0821 -1.5254 -5.2292
  135MOL0     H18218   2.368   9.976   5.564 -1.1792  1.0038  0.5272
  135MOL0     H18219   2.493  10.179   5.616 -0.4283 -0.0609 -0.4715
  135MOL0     H18220   2.493  10.230   5.444  1.6169 -0.9089  1.4694
  135MOL0     H18221   2.097  10.334   5.501  1.4237  0.2421 -1.2942
  135MOL0     H18222   2.145   9.635   5.422 -2.8363 -4.4611 -1.0237
  135MOL0     H18223   1.993   9.524   5.537  0.8768  0.5228 -1.1860
  135MOL0     H18224   1.899   9.655   5.610 -0.8188 -1.2020  1.2379
  135MOL0     H18225   1.831   9.536   5.490  0.6030  0.0183  0.4986
  136MOL0     O18226   9.506   0.757   6.056 -0.2838  0.5955  0.2026
  136MOL0     C18227   9.487   0.648   6.121 -0.7516 -0.1862 -0.6842
  136MOL0     O18228   9.593   0.558   6.166  0.2272 -0.0365 -0.1788
  136MOL0     C18229   9.709   0.628   6.171 -0.6991 -0.4233 -0.4330
  136MOL0     C18230   9.764   0.680   6.294 -0.0473 -1.2212  1.2823
  136MOL0     C18231   9.890   0.746   6.294  1.2158  0.5160 -0.9431
  136MOL0     C18232   9.959   0.763   6.171  0.0630 -0.4814 -0.9410
  136MOL0     O18233  10.086   0.829   6.191 -0.6319 -0.3379  0.0572
  136MOL0     C18234  10.160   0.846   6.071  0.0455 -0.8500 -0.1805
  136MOL0     C18235  10.298   0.909   6.113  0.1869  0.3796  0.2475
  136MOL0     C18236  10.287   1.051   6.171  0.1720 -0.1535  0.2475
  136MOL0     C18237  10.426   1.118   6.192 -0.5914 -0.1878 -0.5462
  136MOL0     C18238  10.480   1.183   6.071  0.2427  0.7663  1.4464
  136MOL0     C18239  10.613   1.244   6.108  0.4480  0.9398 -1.3344
  136MOL0     C18240  10.659   1.313   5.983 -0.4811 -0.3664 -0.1999
  136MOL0     C18241  10.807   1.357   5.983 -0.5432  0.7918  0.2840
  136MOL0     N18242  10.855   1.431   6.102  0.5989 -0.2891 -0.2970
  136MOL0     C18243  10.786   1.533   6.154  0.0538  0.1127  0.4545
  136MOL0     C18244  10.817   1.560   6.288  0.1852 -0.1279 -0.4078
  136MOL0     C18245  10.744   1.646   6.385 -0.6133 -0.0450  0.3261
  136MOL0     C18246  10.629   1.563   6.449  0.4434  1.2415 -0.0690
  136MOL0     C18247  10.540   1.651   6.530  0.2438  0.5459  0.1305
  136MOL0     C18248  10.431   1.583   6.604  1.3366 -0.2493 -0.1098
  136MOL0     O18249  10.348   1.523   6.499 -0.7960 -0.0994 -0.4053
  136MOL0     C18250  10.258   1.420   6.536 -0.0174 -0.2331 -0.1453
  136MOL0     C18251  10.222   1.397   6.674  0.4201 -0.0684 -0.0213
  136MOL0     C18252  10.127   1.287   6.701  0.2503 -0.9575 -0.0526
  136MOL0     C18253  10.079   1.201   6.601  0.3894 -0.1315  0.9491
  136MOL0     C18254   9.989   1.087   6.642 -0.6647  0.1428 -0.0352
  136MOL0     O18255   9.999   1.049   6.775  0.2553 -0.7622  0.5797
  136MOL0     C18256   9.901   0.977   6.835  0.7049 -0.2110 -0.1368
  136MOL0     C18257   9.928   0.906   6.953 -0.0025  0.8120  0.1776
  136MOL0     C18258   9.823   0.847   7.022 -0.4466 -1.1371 -0.4439
  136MOL0     C18259   9.688   0.863   6.985 -0.2608 -0.2601 -0.2879
  136MOL0     O18260   9.580   0.853   7.066  0.4988 -0.3556 -0.2778
  136MOL0     C18261   9.575   0.729   7.145  0.2340  0.9856 -0.2733
  136MOL0     C18262   9.426   0.713   7.184  0.1353 -0.2063  0.2559
  136MOL0     C18263   9.336   0.704   7.062 -0.3391  0.4251  0.2872
  136MOL0     C18264   9.190   0.684   7.112  0.9248 -0.1661  0.5831
  136MOL0     C18265   9.163   0.529   7.132 -0.1180 -0.4102  0.0431
  136MOL0     C18266   9.029   0.496   7.073  0.7466 -0.3963 -1.1108
  136MOL0     C18267   8.987   0.353   7.065 -0.3103  0.0756  0.4582
  136MOL0     C18268   9.002   0.300   7.212  0.4780 -0.1961  0.6462
  136MOL0    Cl18269   8.914   0.390   7.323  0.2295  0.0164 -0.3096
  136MOL0     C18270   9.662   0.944   6.877  0.3179 -0.1267 -0.5200
  136MOL0     C18271   9.766   0.999   6.805 -0.0152  0.0800 -0.0489
  136MOL0     O18272   9.918   1.035   6.555 -0.2422 -0.3706 -0.4772
  136MOL0     C18273  10.125   1.232   6.467  0.3023  0.0321 -0.2671
  136MOL0     C18274  10.203   1.341   6.443 -0.1112  0.3244  0.9824
  136MOL0     N18275  10.905   1.457   6.319 -0.1431  0.3577 -0.9092
  136MOL0     N18276  10.930   1.388   6.211  0.3404 -0.1366 -0.5899
  136MOL0     C18277   9.910   0.708   6.050  1.3002  0.4980  1.1822
  136MOL0     C18278   9.786   0.645   6.049  0.4410  0.7952  0.5223
  136MOL0     C18279   9.353   0.608   6.137  0.6666 -0.4796  0.6767
  136MOL0     C18280   9.257   0.689   6.076  0.3838  0.6053  0.2925
  136MOL0     C18281   9.123   0.665   6.080 -0.3475 -0.8104  0.2165
  136MOL0     C18282   9.069   0.558   6.141  0.6082 -0.6780 -0.5359
  136MOL0     O18283   8.935   0.523   6.126 -0.5806  0.5469 -0.8694
  136MOL0     C18284   8.831   0.606   6.189 -0.7316  0.0265  0.1160
  136MOL0     C18285   8.708   0.624   6.102  0.2038  0.2536  0.4826
  136MOL0     C18286   8.648   0.484   6.075  0.3513 -0.3274 -0.7264
  136MOL0     C18287   8.505   0.490   6.008 -0.2471 -0.1606 -0.1039
  136MOL0     C18288   8.402   0.523   6.113 -1.0079  0.2806  0.7787
  136MOL0     C18289   8.328   0.568   6.194  0.7870  0.0469 -0.2519
  136MOL0     C18290   9.163   0.479   6.204 -0.2198  0.3430 -0.6490
  136MOL0     C18291   9.304   0.503   6.215  0.0369 -0.8782 -0.1121
  136MOL0     C18292   9.396   0.413   6.285  0.1514  0.2717 -0.8934
  136MOL0     H18293   9.704   0.688   6.384 -1.7449 -2.0797  0.2883
  136MOL0     H18294   9.934   0.783   6.386 -2.1333  2.1651  0.1568
  136MOL0     H18295  10.178   0.749   6.024  1.1605 -1.5166  1.5028
  136MOL0     H18296  10.105   0.918   6.011 -0.2548 -1.9534 -1.2733
  136MOL0     H18297  10.368   0.901   6.029 -2.4489  0.7553 -2.1420
  136MOL0     H18298  10.332   0.848   6.197  0.0800  2.5169  1.9207
  136MOL0     H18299  10.237   1.040   6.268 -1.4561 -0.1207 -0.5584
  136MOL0     H18300  10.220   1.114   6.111  0.4426 -1.5335 -1.5804
  136MOL0     H18301  10.419   1.202   6.262 -0.1606  2.0473 -3.0151
  136MOL0     H18302  10.496   1.046   6.234 -3.8725 -3.2290  0.1884
  136MOL0     H18303  10.497   1.108   5.993 -2.6903  0.9378  0.5493
  136MOL0     H18304  10.399   1.251   6.044 -0.0858 -0.4484 -0.8311
  136MOL0     H18305  10.599   1.317   6.187  1.8138  2.8035 -2.7245
  136MOL0     H18306  10.689   1.172   6.141  0.1216 -0.3414 -3.2126
  136MOL0     H18307  10.604   1.405   5.960 -4.9956 -1.9087  2.9037
  136MOL0     H18308  10.642   1.244   5.899 -0.4343 -0.6495  0.0196
  136MOL0     H18309  10.866   1.265   5.976 -2.5347 -0.7525  2.4121
  136MOL0     H18310  10.825   1.421   5.896 -3.2650  2.6744  0.9643
  136MOL0     H18311  10.713   1.594   6.102 -1.3549 -2.1671 -0.4304
  136MOL0     H18312  10.814   1.679   6.462  2.0013  0.5593 -2.1284
  136MOL0     H18313  10.705   1.735   6.335  1.2209  0.6187  0.0037
  136MOL0     H18314  10.570   1.513   6.372  0.8978 -0.5389  0.6898
  136MOL0     H18315  10.670   1.479   6.505  0.0007  0.6164 -0.6596
  136MOL0     H18316  10.506   1.726   6.459  0.8155  0.9314  0.2575
  136MOL0     H18317  10.610   1.692   6.603  0.4462  2.8080 -1.2614
  136MOL0     H18318  10.378   1.668   6.650 -1.1828 -3.4488  3.5841
  136MOL0     H18319  10.470   1.519   6.683 -1.1989 -0.9282  0.7122
  136MOL0     H18320  10.256   1.467   6.750  1.4913 -0.1402 -0.4208
  136MOL0     H18321  10.092   1.263   6.801  1.0990 -0.5150  0.3547
  136MOL0     H18322  10.029   0.885   6.984 -0.2887  0.4026  0.8523
  136MOL0     H18323   9.852   0.795   7.113  0.3448  0.6413  0.3684
  136MOL0     H18324   9.603   0.638   7.090  0.7685  1.1308 -0.2503
  136MOL0     H18325   9.650   0.736   7.225  0.6749 -0.4115 -0.5322
  136MOL0     H18326   9.419   0.621   7.243  1.5741  0.5503  1.6707
  136MOL0     H18327   9.397   0.793   7.253  3.8893  0.9046  0.7987
  136MOL0     H18328   9.338   0.801   7.011 -2.3554  0.4233  0.1222
  136MOL0     H18329   9.364   0.627   6.990  1.8161  1.2055  0.2254
  136MOL0     H18330   9.119   0.732   7.044  1.9473  0.7965  0.1581
  136MOL0     H18331   9.179   0.742   7.204  1.4779 -2.0076  1.8773
  136MOL0     H18332   9.185   0.493   7.233 -0.6058 -1.8050 -0.3278
  136MOL0     H18333   9.233   0.469   7.074  0.9168 -1.0999  1.9444
  136MOL0     H18334   8.951   0.555   7.122 -0.1975 -0.5296 -2.3998
  136MOL0     H18335   9.018   0.531   6.970 -0.7210 -1.1165 -1.2217
  136MOL0     H18336   9.053   0.299   6.998  0.1652  3.7644 -2.3387
  136MOL0     H18337   8.887   0.337   7.023  0.4948 -5.6587 -0.0611
  136MOL0     H18338   8.952   0.203   7.215  1.8887 -0.9386  3.1688
  136MOL0     H18339   9.104   0.295   7.253  0.3156  1.7325  1.3938
  136MOL0     H18340   9.562   0.970   6.845 -0.4671 -0.6173  1.3864
  136MOL0     H18341   9.747   1.076   6.731 -0.3252  0.3007  0.2596
  136MOL0     H18342  10.089   1.169   6.386  0.1820 -2.2849  1.4816
  136MOL0     H18343  10.224   1.358   6.338 -0.9027  0.3401  0.8182
  136MOL0     H18344   9.971   0.716   5.960  0.2321 -2.2443  0.0837
  136MOL0     H18345   9.743   0.611   5.956  0.9429  2.0574 -0.1881
  136MOL0     H18346   9.280   0.785   6.030  2.1947 -0.9201 -2.2801
  136MOL0     H18347   9.055   0.744   6.049 -0.1176  0.0078  1.6941
  136MOL0     H18348   8.870   0.705   6.211 -4.3256  1.8101 -0.8468
  136MOL0     H18349   8.807   0.547   6.279  0.3556 -2.1456 -0.9353
  136MOL0     H18350   8.726   0.675   6.007 -1.0183 -1.3400 -0.6584
  136MOL0     H18351   8.635   0.689   6.151  0.4109  2.1460 -1.5504
  136MOL0     H18352   8.629   0.434   6.170 -0.5365  0.5097 -0.4484
  136MOL0     H18353   8.710   0.433   6.000 -0.4992  2.1615 -3.3047
  136MOL0     H18354   8.509   0.565   5.928  2.0762 -2.8008 -2.7486
  136MOL0     H18355   8.478   0.396   5.958  0.5517  0.5639 -2.0113
  136MOL0     H18356   8.276   0.596   6.284  1.9838  0.0801  0.4473
  136MOL0     H18357   9.110   0.400   6.257 -3.7068  3.6102  1.3097
  136MOL0     H18358   9.330   0.357   6.351 -1.6588  0.9694 -2.0509
  136MOL0     H18359   9.456   0.342   6.227 -1.1027 -1.4512 -0.1501
  136MOL0     H18360   9.456   0.480   6.347 -1.6614  3.9119 -2.7444
  137MOL0     O18361   5.775   0.824   8.772  0.2113  0.6073  0.1211
  137MOL0     C18362   5.768   0.745   8.869 -0.3858  0.6396  1.1636
  137MOL0     O18363   5.870   0.698   8.937 -0.4040  0.5607 -0.7460
  137MOL0     C18364   5.996   0.747   8.915 -0.3271  0.2270  0.5750
  137MOL0     C18365   6.070   0.717   8.797  0.2034 -1.7002 -0.5023
  137MOL0     C18366   6.203   0.751   8.796  0.2819  0.2399 -0.2154
  137MOL0     C18367   6.264   0.836   8.893  0.1829 -0.0888 -0.6653
  137MOL0     O18368   6.392   0.885   8.895 -0.4744 -0.2502  0.4583
  137MOL0     C18369   6.497   0.820   8.835  0.5752  0.7622 -0.4554
  137MOL0     C18370   6.636   0.874   8.889  1.3472  0.3251  0.7325
  137MOL0     C18371   6.751   0.784   8.847 -0.0935 -0.0251  0.2865
  137MOL0     C18372   6.889   0.833   8.905  0.7364  0.6854 -0.2246
  137MOL0     C18373   6.995   0.717   8.908  0.0491  0.1852 -0.4619
  137MOL0     C18374   7.123   0.743   8.972  0.2451  0.4425 -0.3071
  137MOL0     C18375   7.208   0.617   8.994 -0.4723 -0.4470  0.5250
  137MOL0     C18376   7.275   0.560   8.875 -0.0576  0.1259  1.0378
  137MOL0     N18377   7.388   0.635   8.819  0.1427  0.1807  0.4603
  137MOL0     C18378   7.390   0.739   8.729 -0.4570  0.1999  0.9783
  137MOL0     C18379   7.521   0.779   8.721  0.1545 -0.1428 -1.0600
  137MOL0     C18380   7.582   0.882   8.633 -0.8089  0.2169 -0.8661
  137MOL0     C18381   7.518   1.026   8.646 -0.2334 -0.1193  0.0348
  137MOL0     C18382   7.561   1.081   8.784  0.6924  0.1736 -0.2251
  137MOL0     C18383   7.541   1.232   8.812  0.2416  0.3076 -0.3179
  137MOL0     O18384   7.618   1.308   8.721 -0.1165  0.0644 -0.4928
  137MOL0     C18385   7.625   1.441   8.756  0.0929 -0.1665 -0.5006
  137MOL0     C18386   7.556   1.497   8.865  0.2874 -0.3193  0.2875
  137MOL0     C18387   7.570   1.633   8.883 -0.6404 -0.0959  0.0068
  137MOL0     C18388   7.650   1.717   8.803 -1.7292  0.0844 -0.9949
  137MOL0     C18389   7.667   1.860   8.828  0.6164  0.3480  0.0461
  137MOL0     O18390   7.562   1.930   8.880  0.6446  1.1050 -0.0365
  137MOL0     C18391   7.597   2.044   8.954  1.3662 -0.0505  0.9835
  137MOL0     C18392   7.502   2.144   8.955 -0.7423 -0.4434 -0.3422
  137MOL0     C18393   7.508   2.245   9.043 -0.3383  0.1277 -0.6141
  137MOL0     C18394   7.617   2.259   9.138 -0.0340 -0.7458 -0.1180
  137MOL0     O18395   7.635   2.366   9.225 -0.1165  0.3571 -0.3398
  137MOL0     C18396   7.537   2.468   9.221  0.0078 -0.6094 -0.2118
  137MOL0     C18397   7.566   2.589   9.312  0.0512  0.0476 -0.1634
  137MOL0     C18398   7.709   2.640   9.303 -0.9611  0.8033 -0.5136
  137MOL0     C18399   7.749   2.686   9.165 -0.2050  0.4796  0.8219
  137MOL0     C18400   7.887   2.749   9.159  0.1261  0.1957  0.0147
  137MOL0     C18401   8.005   2.660   9.189 -0.8278  1.0355 -0.3639
  137MOL0     C18402   8.137   2.743   9.213  0.3687 -0.6880  0.3347
  137MOL0     C18403   8.152   2.852   9.112  0.4519  0.4332 -0.3256
  137MOL0    Cl18404   8.315   2.909   9.116  0.1284 -0.2524 -0.4386
  137MOL0     C18405   7.725   2.160   9.136  0.2735 -0.1370 -0.4840
  137MOL0     C18406   7.703   2.060   9.049 -0.3372 -0.5050  0.4065
  137MOL0     O18407   7.774   1.906   8.790  0.2456 -0.6932 -0.5339
  137MOL0     C18408   7.708   1.660   8.694  0.6643 -0.0283  0.5249
  137MOL0     C18409   7.693   1.522   8.666  0.2419  0.6629  0.5710
  137MOL0     N18410   7.587   0.711   8.830  0.5141 -0.1122  1.0562
  137MOL0     N18411   7.512   0.623   8.885 -0.3953 -0.0063  0.3027
  137MOL0     C18412   6.184   0.864   9.004  0.2116  0.5218 -0.2358
  137MOL0     C18413   6.050   0.820   9.018 -0.1339  0.8582  0.0535
  137MOL0     C18414   5.639   0.678   8.907  0.4071  0.3196 -0.9986
  137MOL0     C18415   5.571   0.623   8.792 -0.3143 -1.5628 -0.7907
  137MOL0     C18416   5.451   0.561   8.813 -0.1492 -0.3921  0.0465
  137MOL0     C18417   5.383   0.565   8.941 -0.3411 -0.3503  0.2953
  137MOL0     O18418   5.252   0.522   8.935 -0.1676  0.0603 -0.6627
  137MOL0     C18419   5.173   0.533   9.055 -0.1845 -1.1727 -0.0561
  137MOL0     C18420   5.197   0.411   9.142 -0.6921 -0.6104 -0.4152
  137MOL0     C18421   5.213   0.274   9.059 -0.3645 -0.8073  0.1604
  137MOL0     C18422   5.210   0.166   9.164 -0.0631  0.8457  0.0065
  137MOL0     C18423   5.077   0.138   9.218 -0.0306  0.3723 -0.5623
  137MOL0     C18424   4.959   0.116   9.247  0.3784 -0.0004  0.6023
  137MOL0     C18425   5.452   0.622   9.044  0.5924  1.1650  1.1740
  137MOL0     C18426   5.579   0.669   9.034 -0.0646 -0.2269 -0.9012
  137MOL0     C18427   5.648   0.722   9.154 -0.5093 -0.3694 -0.1429
  137MOL0     H18428   6.031   0.666   8.710 -0.0149 -0.2658 -1.2825
  137MOL0     H18429   6.261   0.729   8.707 -0.7458 -1.7577 -0.4452
  137MOL0     H18430   6.486   0.713   8.858  2.1283  0.7099  0.1875
  137MOL0     H18431   6.490   0.835   8.727 -4.6624 -4.0644 -1.2339
  137MOL0     H18432   6.629   0.890   8.997  0.5130 -2.7526  1.2214
  137MOL0     H18433   6.649   0.968   8.835 -2.1172  0.4579 -0.1345
  137MOL0     H18434   6.774   0.783   8.740 -0.8894  2.3540  0.0287
  137MOL0     H18435   6.734   0.682   8.883  0.0349  0.0112  0.4502
  137MOL0     H18436   6.923   0.915   8.841 -0.2216 -0.7034 -2.6342
  137MOL0     H18437   6.867   0.856   9.010 -2.9386 -2.3106 -0.1433
  137MOL0     H18438   6.941   0.630   8.947 -3.4587  1.2898 -2.4199
  137MOL0     H18439   7.008   0.680   8.806  0.0498 -2.3617  0.3788
  137MOL0     H18440   7.190   0.801   8.908  1.4063 -1.0317 -0.5076
  137MOL0     H18441   7.109   0.808   9.059 -2.2389 -0.9648  0.4744
  137MOL0     H18442   7.151   0.541   9.049 -2.3848  0.2614 -0.4047
  137MOL0     H18443   7.278   0.650   9.071 -2.3293  0.1397  2.0354
  137MOL0     H18444   7.302   0.459   8.908 -0.1657  0.0915  1.0187
  137MOL0     H18445   7.197   0.556   8.798  1.6832 -1.3940 -0.7626
  137MOL0     H18446   7.310   0.781   8.670  0.1807 -1.4885 -1.2459
  137MOL0     H18447   7.689   0.890   8.654 -0.3486 -1.7944 -2.1563
  137MOL0     H18448   7.566   0.856   8.528 -0.5458 -3.1939 -0.1597
  137MOL0     H18449   7.551   1.088   8.561  3.2689 -3.4220 -1.2763
  137MOL0     H18450   7.408   1.019   8.649 -0.1344 -1.2813  2.0817
  137MOL0     H18451   7.663   1.052   8.814  0.4539  0.9524  1.4908
  137MOL0     H18452   7.497   1.030   8.858 -0.3831  0.1208 -1.1721
  137MOL0     H18453   7.567   1.263   8.914 -0.1586  0.7840 -0.3563
  137MOL0     H18454   7.436   1.262   8.803  0.5689  1.2679 -1.1456
  137MOL0     H18455   7.502   1.437   8.938 -1.8664  0.3620 -0.6786
  137MOL0     H18456   7.525   1.678   8.971  0.8005  2.0594 -0.3013
  137MOL0     H18457   7.415   2.146   8.890 -0.5772 -2.5158 -0.6907
  137MOL0     H18458   7.430   2.321   9.036 -1.0066 -0.6348 -1.6209
  137MOL0     H18459   7.512   2.512   9.123  0.5978  2.9368  1.0850
  137MOL0     H18460   7.447   2.430   9.269 -0.5319 -0.2210 -0.8931
  137MOL0     H18461   7.497   2.671   9.287 -1.7836 -1.6250 -0.8308
  137MOL0     H18462   7.570   2.556   9.416 -0.1698 -1.9261 -0.7412
  137MOL0     H18463   7.727   2.719   9.377 -1.4523 -0.4601  1.0061
  137MOL0     H18464   7.782   2.564   9.333 -0.6054  2.0927  2.1337
  137MOL0     H18465   7.680   2.764   9.130 -0.0972 -0.3970 -1.5022
  137MOL0     H18466   7.739   2.608   9.089 -0.9803  0.3570  1.0474
  137MOL0     H18467   7.875   2.831   9.231 -1.6596  0.4592 -0.5384
  137MOL0     H18468   7.901   2.795   9.061 -0.9672 -1.0076 -0.7371
  137MOL0     H18469   7.981   2.602   9.278 -2.9114  0.6539 -1.0965
  137MOL0     H18470   8.012   2.588   9.106 -1.8684 -1.4769  1.5755
  137MOL0     H18471   8.220   2.673   9.204  2.2412  0.8463  3.5937
  137MOL0     H18472   8.152   2.777   9.316  2.1037  1.3576 -0.4972
  137MOL0     H18473   8.144   2.829   9.005  2.1303 -0.8913 -0.2023
  137MOL0     H18474   8.081   2.930   9.138  0.1669 -0.6470  2.5030
  137MOL0     H18475   7.813   2.163   9.199  0.0959  1.0371 -0.2774
  137MOL0     H18476   7.770   1.975   9.044  0.2912  0.0342 -3.0988
  137MOL0     H18477   7.768   1.714   8.621  2.1992 -0.0509  1.7146
  137MOL0     H18478   7.747   1.474   8.584 -2.4187  1.2759 -1.7000
  137MOL0     H18479   6.231   0.911   9.089 -0.4444  2.1012 -0.7148
  137MOL0     H18480   5.997   0.827   9.112  0.8928  0.8399  0.6513
  137MOL0     H18481   5.611   0.640   8.693 -2.8847  3.4570 -1.2352
  137MOL0     H18482   5.394   0.521   8.729  1.4058  0.4792 -1.4597
  137MOL0     H18483   5.070   0.530   9.018 -0.2927 -0.0932  0.1271
  137MOL0     H18484   5.202   0.625   9.107 -0.3667 -2.0319  1.6370
  137MOL0     H18485   5.119   0.417   9.218  1.5558  2.3905  1.9075
  137MOL0     H18486   5.293   0.417   9.192  0.9939 -3.3487 -3.0173
  137MOL0     H18487   5.308   0.268   9.004 -0.2287  0.1068  0.2795
  137MOL0     H18488   5.136   0.265   8.983  0.8285 -0.3322 -1.1491
  137MOL0     H18489   5.255   0.077   9.119  0.0194  0.2719  1.2005
  137MOL0     H18490   5.277   0.197   9.244  1.1755 -1.0099 -0.2621
  137MOL0     H18491   4.852   0.110   9.251  0.1476  1.3824 -1.7857
  137MOL0     H18492   5.403   0.623   9.140  1.7407  2.5563  1.7837
  137MOL0     H18493   5.751   0.756   9.144 -0.8826  1.0563  0.5931
  137MOL0     H18494   5.589   0.793   9.213  0.8155 -0.4754  1.3362
  137MOL0     H18495   5.665   0.631   9.212  2.9119 -0.1932 -0.6765
  138MOL0     O18496   7.949   3.597   6.115  0.0973 -0.0024  0.8406
  138MOL0     C18497   7.871   3.696   6.114  0.5709 -0.2624  0.9332
  138MOL0     O18498   7.918   3.825   6.118  0.2738  0.0501  0.7051
  138MOL0     C18499   8.051   3.841   6.145  0.5704  0.0084  0.0635
  138MOL0     C18500   8.145   3.817   6.044 -0.2841 -0.5255  0.1288
  138MOL0     C18501   8.281   3.838   6.069 -0.2529 -0.1452 -0.6426
  138MOL0     C18502   8.327   3.872   6.200 -0.3877  0.8762 -0.5914
  138MOL0     O18503   8.459   3.892   6.232  0.2751 -0.0692 -0.5168
  138MOL0     C18504   8.554   3.842   6.144 -0.0040  0.3618  0.3396
  138MOL0     C18505   8.693   3.878   6.206  0.3953 -0.1306  0.1465
  138MOL0     C18506   8.807   3.816   6.116  0.6148  1.3626 -0.3004
  138MOL0     C18507   8.951   3.883   6.137  1.0648  0.0470  0.0762
  138MOL0     C18508   8.978   4.015   6.056 -0.0796  0.8406 -1.0511
  138MOL0     C18509   8.995   3.990   5.903  0.4985 -0.1949  0.2637
  138MOL0     C18510   9.095   3.878   5.855 -0.0256  0.4221 -0.2356
  138MOL0     C18511   9.233   3.904   5.919  0.9021 -0.3205  0.7273
  138MOL0     N18512   9.336   3.833   5.847  0.6122  0.2294  0.7438
  138MOL0     C18513   9.387   3.854   5.721  0.0048  0.4249  0.0382
  138MOL0     C18514   9.494   3.777   5.710  0.3845 -0.5983 -0.4987
  138MOL0     C18515   9.584   3.765   5.592  0.5603  0.0316  0.4613
  138MOL0     C18516   9.682   3.884   5.565 -0.0857 -0.0872 -0.0905
  138MOL0     C18517   9.763   3.933   5.684 -0.0151 -0.0502 -0.2419
  138MOL0     C18518   9.870   4.045   5.647 -0.5568 -0.9362 -0.1058
  138MOL0     O18519   9.811   4.169   5.595  0.6056  0.4837  0.1358
  138MOL0     C18520   9.896   4.262   5.545 -0.0903 -1.1425 -0.2787
  138MOL0     C18521   9.851   4.365   5.462 -0.5775 -0.4810 -0.8330
  138MOL0     C18522   9.937   4.467   5.417  0.6471 -0.1933  0.5119
  138MOL0     C18523  10.079   4.459   5.445 -0.2835 -0.2502 -0.5221
  138MOL0     C18524  10.176   4.554   5.392 -0.0687  0.1667  0.5808
  138MOL0     O18525  10.312   4.523   5.389 -0.1218 -0.6490  0.2549
  138MOL0     C18526  10.396   4.618   5.325 -0.6761  0.0603  0.1319
  138MOL0     C18527  10.502   4.685   5.384  0.7865 -0.1037  0.9262
  138MOL0     C18528  10.587   4.782   5.306  0.2083  0.2322  0.2439
  138MOL0     C18529  10.567   4.802   5.170 -1.0693  0.2562 -0.2616
  138MOL0     O18530  10.656   4.881   5.091  0.1204 -0.3610  0.3014
  138MOL0     C18531  10.630   4.906   4.954 -0.0102  0.7286 -0.2054
  138MOL0     C18532  10.516   5.000   4.942  0.2309 -0.0932  0.7838
  138MOL0     C18533  10.524   5.129   5.022  0.3507 -0.7502 -0.8289
  138MOL0     C18534  10.427   5.243   4.992  0.3777  0.0101 -0.3475
  138MOL0     C18535  10.457   5.379   5.058 -0.7617  0.2951 -0.4558
  138MOL0     C18536  10.397   5.382   5.197  0.0631 -0.7923 -0.2244
  138MOL0     C18537  10.417   5.526   5.247 -0.7235 -0.5363 -0.3838
  138MOL0     C18538  10.332   5.641   5.189  0.4334  0.5957  0.4335
  138MOL0    Cl18539  10.371   5.785   5.273  0.2660 -0.1175 -0.2498
  138MOL0     C18540  10.454   4.738   5.122  0.0236 -0.6399 -0.2205
  138MOL0     C18541  10.374   4.648   5.195 -1.2546  0.0537  1.0475
  138MOL0     O18542  10.128   4.662   5.350  0.3772  0.6038 -0.2620
  138MOL0     C18543  10.117   4.354   5.525  0.1516 -1.1754 -0.8277
  138MOL0     C18544  10.032   4.258   5.575  0.8041 -0.7686  0.3722
  138MOL0     N18545   9.493   3.703   5.827 -0.2192 -0.5281 -0.4979
  138MOL0     N18546   9.398   3.728   5.908  0.0136  0.2378  0.8258
  138MOL0     C18547   8.229   3.898   6.295  0.7045  0.5788 -0.2926
  138MOL0     C18548   8.089   3.882   6.269 -0.6983  0.6514 -0.2483
  138MOL0     C18549   7.717   3.667   6.111 -0.3684 -0.1462 -0.3488
  138MOL0     C18550   7.668   3.549   6.052  0.3246 -0.0380  0.0005
  138MOL0     C18551   7.532   3.526   6.047  0.2633 -0.1273 -0.1154
  138MOL0     C18552   7.440   3.614   6.092  0.2322  0.2481 -0.7288
  138MOL0     O18553   7.302   3.591   6.093 -0.2512  0.0498  0.4345
  138MOL0     C18554   7.232   3.652   5.980  0.5388 -0.2727 -0.2660
  138MOL0     C18555   7.093   3.631   6.011  0.7806  0.0522 -0.2388
  138MOL0     C18556   7.055   3.474   5.987  0.8828 -1.5910 -0.0906
  138MOL0     C18557   6.931   3.435   6.058 -0.1435  0.8635 -0.4512
  138MOL0     C18558   6.831   3.543   6.057 -0.1726  0.1785  0.2539
  138MOL0     C18559   6.749   3.634   6.054  0.4996 -0.6734 -0.1295
  138MOL0     C18560   7.487   3.742   6.131  0.7247  0.6717 -0.1952
  138MOL0     C18561   7.618   3.762   6.150 -1.1744 -0.8983  0.2575
  138MOL0     C18562   7.662   3.887   6.215  0.1304 -0.6841  0.0080
  138MOL0     H18563   8.110   3.787   5.946 -2.4183  1.0021  0.3433
  138MOL0     H18564   8.361   3.806   6.003  1.1086 -0.0034  0.8944
  138MOL0     H18565   8.543   3.733   6.137 -2.4338  0.5888 -0.3550
  138MOL0     H18566   8.546   3.892   6.047 -3.1052 -1.0289 -0.2348
  138MOL0     H18567   8.688   3.836   6.307 -4.6366 -0.5106  0.0224
  138MOL0     H18568   8.700   3.986   6.222  3.0367 -0.0086 -1.3826
  138MOL0     H18569   8.773   3.820   6.013 -1.2559  3.6382  0.3166
  138MOL0     H18570   8.813   3.709   6.136 -2.0340  0.7694 -2.1565
  138MOL0     H18571   8.954   3.906   6.244  1.7616  0.3343  0.0047
  138MOL0     H18572   9.024   3.807   6.108 -1.5832 -1.5772 -2.9167
  138MOL0     H18573   8.891   4.076   6.079 -0.9562 -0.2907 -1.2895
  138MOL0     H18574   9.062   4.068   6.102  0.7926 -0.8533 -0.5902
  138MOL0     H18575   8.894   3.962   5.872  0.6664 -0.1207 -0.3661
  138MOL0     H18576   9.017   4.082   5.848  2.3387  1.3059  3.2746
  138MOL0     H18577   9.101   3.890   5.747 -3.2915 -0.2240 -0.5924
  138MOL0     H18578   9.073   3.772   5.872  0.2222  0.4070  0.0005
  138MOL0     H18579   9.251   4.012   5.920  1.2138 -0.3402 -0.7128
  138MOL0     H18580   9.228   3.883   6.026  0.4649  0.7274  0.9264
  138MOL0     H18581   9.339   3.935   5.667  1.4762  0.0500 -1.9250
  138MOL0     H18582   9.633   3.668   5.605 -2.2626 -1.6028 -0.1726
  138MOL0     H18583   9.520   3.747   5.505  0.3596 -1.1846  0.8424
  138MOL0     H18584   9.748   3.851   5.485 -2.0471 -0.1000 -1.8126
  138MOL0     H18585   9.624   3.970   5.530  1.0247  0.6409 -0.1876
  138MOL0     H18586   9.814   3.859   5.745  0.7500  0.0930 -0.6801
  138MOL0     H18587   9.680   3.971   5.745 -1.9244 -0.3132 -2.5236
  138MOL0     H18588   9.947   4.006   5.580  0.8569  0.1909  0.7807
  138MOL0     H18589   9.917   4.069   5.743 -0.2469 -1.5573 -0.1005
  138MOL0     H18590   9.746   4.371   5.436 -1.1196  0.0752  1.2609
  138MOL0     H18591   9.904   4.548   5.351 -0.6912 -1.5892 -0.6101
  138MOL0     H18592  10.519   4.670   5.490 -1.3366 -0.0750  1.3017
  138MOL0     H18593  10.676   4.829   5.347  0.1337  0.8649 -0.3166
  138MOL0     H18594  10.719   4.957   4.918  0.3609 -1.1571 -2.1783
  138MOL0     H18595  10.621   4.811   4.900  3.2657  0.6704 -0.8680
  138MOL0     H18596  10.512   5.026   4.836 -0.9149 -0.6110  0.6845
  138MOL0     H18597  10.417   4.970   4.977 -0.7408  2.2855  0.2390
  138MOL0     H18598  10.509   5.112   5.129 -0.9304  3.0010 -0.2477
  138MOL0     H18599  10.622   5.173   5.005 -0.0163  0.3737 -0.1327
  138MOL0     H18600  10.322   5.231   5.022  0.3143  3.5961  1.3616
  138MOL0     H18601  10.433   5.253   4.883  1.5631 -1.2516 -0.4227
  138MOL0     H18602  10.407   5.458   5.002 -1.0045 -0.9364 -2.0706
  138MOL0     H18603  10.566   5.384   5.060 -0.7317 -0.2805 -0.4118
  138MOL0     H18604  10.291   5.356   5.189 -0.3876  1.3089 -2.8082
  138MOL0     H18605  10.449   5.314   5.265  0.6340  0.3935  0.5514
  138MOL0     H18606  10.524   5.549   5.239 -0.8380  1.1087  1.7645
  138MOL0     H18607  10.393   5.519   5.354  1.1154  1.9170  0.3089
  138MOL0     H18608  10.347   5.656   5.081 -0.4940  1.7261  0.4388
  138MOL0     H18609  10.225   5.619   5.193  0.0658  2.0059 -0.6197
  138MOL0     H18610  10.438   4.734   5.015 -3.4947 -2.1885  0.2381
  138MOL0     H18611  10.306   4.586   5.138 -2.2706  2.6271 -0.7621
  138MOL0     H18612  10.219   4.351   5.561 -0.1182 -0.0797  0.0809
  138MOL0     H18613  10.078   4.184   5.640 -0.5413  0.7464  3.2349
  138MOL0     H18614   8.273   3.924   6.391  2.7650  1.1316 -1.3249
  138MOL0     H18615   8.021   3.907   6.350 -0.8263 -0.0171 -0.1404
  138MOL0     H18616   7.725   3.460   6.026  0.8958 -0.2518  1.7996
  138MOL0     H18617   7.496   3.434   6.003  0.8521 -1.1673  1.4720
  138MOL0     H18618   7.252   3.596   5.888 -1.0243 -5.1513  2.0118
  138MOL0     H18619   7.262   3.755   5.961 -4.3073  1.5458  0.4824
  138MOL0     H18620   7.035   3.700   5.949 -1.4332 -1.7470 -0.3174
  138MOL0     H18621   7.069   3.653   6.115 -1.1490 -3.8682  0.3181
  138MOL0     H18622   7.139   3.408   6.012  2.6179  1.0799  1.6335
  138MOL0     H18623   7.041   3.465   5.879 -1.2986  0.8973 -0.1143
  138MOL0     H18624   6.883   3.345   6.017 -3.3365  2.1970  0.0105
  138MOL0     H18625   6.959   3.401   6.158 -0.1435 -1.4737 -1.1880
  138MOL0     H18626   6.694   3.725   6.043 -0.2458 -1.3260 -2.2221
  138MOL0     H18627   7.410   3.805   6.173 -0.6020 -0.4403 -0.8693
  138MOL0     H18628   7.573   3.939   6.252  0.1021 -0.2765 -0.6145
  138MOL0     H18629   7.727   3.862   6.299  2.7319 -1.4237 -2.0893
  138MOL0     H18630   7.717   3.951   6.145  1.8416 -0.4574  1.4902
  139MOL0     O18631   0.372   8.421   9.435  0.5358 -0.4946  0.0755
  139MOL0     C18632   0.407   8.532   9.459  0.4026 -1.1686 -0.6827
  139MOL0     O18633   0.472   8.617   9.366  0.4037 -0.3841 -0.7426
  139MOL0     C18634   0.475   8.578   9.237 -0.5542  0.3209  0.1971
  139MOL0     C18635   0.355   8.551   9.170 -0.4315 -0.3710  0.2113
  139MOL0     C18636   0.357   8.509   9.034 -0.7915  1.4475 -0.5094
  139MOL0     C18637   0.485   8.495   8.961  0.0022  0.0562 -0.1545
  139MOL0     O18638   0.491   8.476   8.828  0.2257  0.4689  0.6200
  139MOL0     C18639   0.386   8.383   8.776 -0.3540 -0.4771  0.0182
  139MOL0     C18640   0.443   8.301   8.655  0.6649 -0.7970  0.3702
  139MOL0     C18641   0.330   8.238   8.586 -0.3866  0.1547  0.0446
  139MOL0     C18642   0.242   8.320   8.490  0.7383 -0.3653 -0.8346
  139MOL0     C18643   0.117   8.245   8.449  0.5979 -0.2372  0.3326
  139MOL0     C18644   0.035   8.196   8.573  0.6047  0.0817  0.9051
  139MOL0     C18645  -0.104   8.149   8.544 -0.0036 -0.0430 -0.4861
  139MOL0     C18646  -0.147   8.048   8.648 -1.1829 -0.2776  0.4337
  139MOL0     N18647  -0.087   7.921   8.623  0.0730  0.2643 -0.1819
  139MOL0     C18648   0.025   7.867   8.683  0.8320 -0.2740 -0.2148
  139MOL0     C18649   0.042   7.749   8.621  0.0423 -1.2410  0.5758
  139MOL0     C18650   0.124   7.639   8.678 -0.1680  0.1022  0.1103
  139MOL0     C18651   0.256   7.637   8.608  0.2093  0.0888 -0.1260
  139MOL0     C18652   0.246   7.571   8.474  0.7078  0.3685  0.6617
  139MOL0     C18653   0.393   7.577   8.412 -0.8308  0.0333  1.2271
  139MOL0     O18654   0.491   7.512   8.498 -0.2607  0.4242 -0.0604
  139MOL0     C18655   0.622   7.509   8.459  0.3640 -0.0758  0.7356
  139MOL0     C18656   0.703   7.430   8.541 -0.4225  0.0766 -0.0157
  139MOL0     C18657   0.839   7.416   8.514 -0.7348 -0.1778 -0.6110
  139MOL0     C18658   0.900   7.491   8.411  0.8914  0.2165 -0.6310
  139MOL0     C18659   1.049   7.489   8.390 -0.0301  0.9006  0.6311
  139MOL0     O18660   1.122   7.409   8.467 -0.3896  0.5102  0.6227
  139MOL0     C18661   1.253   7.443   8.490 -0.8332  0.3729 -0.3157
  139MOL0     C18662   1.304   7.469   8.621 -0.3273 -0.3803  0.5212
  139MOL0     C18663   1.434   7.489   8.651  0.2775 -1.3021  0.2327
  139MOL0     C18664   1.530   7.497   8.544  0.1720 -0.4299 -0.1252
  139MOL0     O18665   1.662   7.535   8.576 -0.5549  0.1037 -0.7855
  139MOL0     C18666   1.675   7.648   8.669 -0.8519  1.2156  0.2702
  139MOL0     C18667   1.800   7.719   8.645 -1.4598  1.1597  0.6151
  139MOL0     C18668   1.798   7.848   8.725  0.1186 -0.3883  0.2786
  139MOL0     C18669   1.936   7.900   8.741  0.1953  0.0603 -0.1130
  139MOL0     C18670   1.938   8.019   8.845 -0.5259  0.1371 -0.9953
  139MOL0     C18671   1.847   8.132   8.810  0.2409  0.6608 -0.1312
  139MOL0     C18672   1.845   8.257   8.898  0.1446  0.7949  1.6228
  139MOL0     C18673   1.767   8.226   9.029 -0.5823  0.6197  0.6443
  139MOL0    Cl18674   1.784   8.345   9.155  0.1111  0.3528  0.1819
  139MOL0     C18675   1.491   7.462   8.418 -0.6744 -0.0480 -0.8541
  139MOL0     C18676   1.360   7.435   8.390  0.5955 -0.5381 -0.6693
  139MOL0     O18677   1.099   7.568   8.312 -0.7635 -0.3324 -0.0178
  139MOL0     C18678   0.817   7.564   8.314  0.2125  0.6669 -0.3779
  139MOL0     C18679   0.676   7.571   8.344  0.0601  0.0921 -0.0302
  139MOL0     N18680  -0.063   7.735   8.523  0.7614  0.5010  0.1397
  139MOL0     N18681  -0.148   7.830   8.538 -0.6828  0.3572  0.5450
  139MOL0     C18682   0.598   8.542   9.032 -0.1560 -0.8843  0.6511
  139MOL0     C18683   0.598   8.579   9.164  0.2328  0.3440  0.2182
  139MOL0     C18684   0.410   8.579   9.602  0.4449  0.3680  0.6292
  139MOL0     C18685   0.513   8.669   9.625  0.4289 -0.0034 -0.4329
  139MOL0     C18686   0.514   8.738   9.746  0.4583  0.0365 -0.6083
  139MOL0     C18687   0.427   8.705   9.851 -0.5496  0.1067 -0.0816
  139MOL0     O18688   0.430   8.765   9.979  0.1167  0.3719  0.3752
  139MOL0     C18689   0.325   8.853  10.009 -1.0343 -0.1776 -0.3413
  139MOL0     C18690   0.317   8.972   9.909  0.2525 -0.3914  0.2734
  139MOL0     C18691   0.446   9.062   9.930  0.4563  0.5696 -1.1592
  139MOL0     C18692   0.440   9.176   9.835  0.2502 -0.1077  1.1950
  139MOL0     C18693   0.562   9.256   9.846  0.6799 -0.6458  0.3115
  139MOL0     C18694   0.669   9.307   9.882  0.0002 -0.4071  0.2526
  139MOL0     C18695   0.326   8.604   9.825 -0.4066 -0.1822 -0.1654
  139MOL0     C18696   0.310   8.548   9.700 -0.6217 -0.7628 -0.5651
  139MOL0     C18697   0.202   8.447   9.690  0.4016 -0.1710  0.0824
  139MOL0     H18698   0.256   8.550   9.215 -0.8852 -1.4057 -0.7592
  139MOL0     H18699   0.268   8.496   8.973 -1.7238 -1.9230  1.2720
  139MOL0     H18700   0.372   8.302   8.849  0.7343 -2.5919 -1.9821
  139MOL0     H18701   0.293   8.431   8.745 -1.8968 -4.5238 -2.4441
  139MOL0     H18702   0.525   8.236   8.686  0.4404 -1.3530 -0.1830
  139MOL0     H18703   0.492   8.374   8.590  5.8078 -2.0341  2.4341
  139MOL0     H18704   0.272   8.193   8.667  0.4577  2.0578  1.7681
  139MOL0     H18705   0.384   8.163   8.526  0.3189 -0.4832  1.4427
  139MOL0     H18706   0.213   8.414   8.537  0.8194 -1.9352  2.6397
  139MOL0     H18707   0.294   8.349   8.398 -1.6172 -0.9881 -2.4618
  139MOL0     H18708   0.050   8.310   8.392  1.7366  3.3929  2.7900
  139MOL0     H18709   0.131   8.166   8.375 -0.0017 -1.6473  1.6560
  139MOL0     H18710   0.086   8.106   8.611  0.5168  0.5730  2.2182
  139MOL0     H18711   0.027   8.271   8.652 -0.7544 -1.5243  2.3720
  139MOL0     H18712  -0.104   8.104   8.445 -1.1394  1.0112 -0.9898
  139MOL0     H18713  -0.176   8.231   8.543 -0.5032 -0.3337  2.4723
  139MOL0     H18714  -0.117   8.089   8.745  0.2538 -0.4133  0.0618
  139MOL0     H18715  -0.254   8.023   8.653 -0.7599 -2.0262  2.7769
  139MOL0     H18716   0.088   7.908   8.760 -0.4843  1.6733 -0.1046
  139MOL0     H18717   0.143   7.670   8.781 -0.4498  0.2072  0.1315
  139MOL0     H18718   0.062   7.549   8.676 -1.9944  1.3126 -1.4406
  139MOL0     H18719   0.287   7.740   8.590 -0.0863  0.4216  1.1989
  139MOL0     H18720   0.341   7.589   8.658 -0.2859 -1.6106 -0.8346
  139MOL0     H18721   0.174   7.608   8.400  0.7251 -1.3524 -0.2758
  139MOL0     H18722   0.217   7.467   8.493 -0.8215  0.9300  1.5213
  139MOL0     H18723   0.411   7.684   8.407 -0.4975  0.0901  2.9656
  139MOL0     H18724   0.390   7.536   8.311  1.1486 -1.3741  1.6932
  139MOL0     H18725   0.653   7.374   8.619 -0.0205 -2.0117 -1.1762
  139MOL0     H18726   0.896   7.351   8.579 -0.3667 -0.4456 -1.1999
  139MOL0     H18727   1.236   7.473   8.705 -0.5037  1.6177  0.3334
  139MOL0     H18728   1.463   7.496   8.756 -2.9325 -0.2513  1.1578
  139MOL0     H18729   1.594   7.721   8.671 -0.3724  1.8116 -0.9637
  139MOL0     H18730   1.675   7.604   8.770  0.6218 -3.1247 -1.3976
  139MOL0     H18731   1.884   7.656   8.676 -1.2540  1.2718  0.2878
  139MOL0     H18732   1.817   7.745   8.540 -0.6845  0.8818  0.6650
  139MOL0     H18733   1.735   7.917   8.668 -0.8409 -1.9245 -0.5948
  139MOL0     H18734   1.744   7.839   8.820  1.2859  2.6555  1.3415
  139MOL0     H18735   1.988   7.928   8.649  0.7765  1.2577  0.5498
  139MOL0     H18736   2.001   7.823   8.783 -0.5114  0.4069  1.7061
  139MOL0     H18737   2.036   8.069   8.849 -1.3818  1.8184 -0.0938
  139MOL0     H18738   1.924   7.961   8.937 -0.7341  1.0185 -0.4605
  139MOL0     H18739   1.883   8.165   8.713  3.4388  2.0850  1.3814
  139MOL0     H18740   1.746   8.089   8.818 -0.3107  1.9477  0.1083
  139MOL0     H18741   1.789   8.325   8.833 -3.9517 -2.7732  0.9984
  139MOL0     H18742   1.948   8.289   8.916  0.8192 -0.5997  0.3757
  139MOL0     H18743   1.659   8.212   9.036 -0.7885  1.8190  0.1408
  139MOL0     H18744   1.809   8.131   9.063  3.6894  2.1300  0.2709
  139MOL0     H18745   1.564   7.467   8.337  1.8507  0.3176  1.3262
  139MOL0     H18746   1.326   7.403   8.292 -2.0931 -2.7425  0.8570
  139MOL0     H18747   0.866   7.602   8.226  2.1887 -0.5730  0.1188
  139MOL0     H18748   0.639   7.625   8.257  2.7284  0.8941 -0.7790
  139MOL0     H18749   0.689   8.570   8.981 -1.2936  0.8019 -0.5966
  139MOL0     H18750   0.679   8.617   9.226 -1.0583  1.9604  0.9928
  139MOL0     H18751   0.602   8.684   9.564  2.2379 -0.4003  1.9307
  139MOL0     H18752   0.588   8.812   9.774  0.5081  0.3457 -1.5010
  139MOL0     H18753   0.323   8.887  10.113 -0.0145  0.2276 -0.4458
  139MOL0     H18754   0.232   8.795  10.006 -1.3917  0.3849 -0.3102
  139MOL0     H18755   0.230   9.038   9.924  1.9459  2.0536 -0.1012
  139MOL0     H18756   0.301   8.935   9.808  0.2735  0.7050 -0.1445
  139MOL0     H18757   0.538   9.009   9.906  2.3764  2.5068  1.4285
  139MOL0     H18758   0.461   9.102  10.030  1.1754  1.7218 -1.7102
  139MOL0     H18759   0.431   9.144   9.731  2.2785  2.4312  0.1192
  139MOL0     H18760   0.364   9.252   9.858  1.0383  0.6365  1.4325
  139MOL0     H18761   0.758   9.346   9.928 -1.5646 -0.7760  3.9185
  139MOL0     H18762   0.268   8.563   9.907  2.1552  1.5469  2.7554
  139MOL0     H18763   0.163   8.435   9.589 -1.6114  3.6652  0.2272
  139MOL0     H18764   0.242   8.351   9.722  3.6703  0.5533 -1.3482
  139MOL0     H18765   0.117   8.471   9.754  0.6813 -0.0496  0.4155
  140MOL0     O18766   0.879   2.952   0.366  0.0993  0.3373  0.1240
  140MOL0     C18767   0.759   2.969   0.388 -0.6043 -0.6436  1.0885
  140MOL0     O18768   0.694   3.091   0.393  0.4534 -0.2359  0.6816
  140MOL0     C18769   0.773   3.206   0.377  0.0567  0.6770 -0.7998
  140MOL0     C18770   0.878   3.231   0.463 -0.4712 -0.6358  0.3772
  140MOL0     C18771   0.959   3.342   0.449  0.6808  0.5529  0.3251
  140MOL0     C18772   0.937   3.428   0.336 -0.8631 -0.4343 -0.5655
  140MOL0     O18773   1.019   3.537   0.331 -0.5236 -0.2616  0.7879
  140MOL0     C18774   0.988   3.637   0.235  0.4854  0.1846  1.1508
  140MOL0     C18775   1.060   3.760   0.290  0.6545  0.4553 -0.3227
  140MOL0     C18776   1.204   3.730   0.328  0.5552 -0.3136 -0.1443
  140MOL0     C18777   1.287   3.866   0.317  0.2697 -0.5143  0.0538
  140MOL0     C18778   1.406   3.873   0.402 -0.8230 -0.6486 -0.2883
  140MOL0     C18779   1.517   3.773   0.356 -0.4900 -0.4642  0.2232
  140MOL0     C18780   1.547   3.757   0.209 -0.4145  0.2497 -0.5646
  140MOL0     C18781   1.605   3.880   0.146 -0.4945 -0.0253 -0.4289
  140MOL0     N18782   1.749   3.873   0.149  0.1165 -0.0804 -0.3250
  140MOL0     C18783   1.818   3.931   0.245 -0.9376  0.2290  0.1414
  140MOL0     C18784   1.945   3.900   0.214 -0.6306 -0.5699 -0.2453
  140MOL0     C18785   2.065   3.935   0.295  0.2376 -0.2084  0.4207
  140MOL0     C18786   2.148   4.036   0.217 -1.0132  0.4483 -0.0850
  140MOL0     C18787   2.274   3.961   0.164  0.6029  0.2063 -0.0212
  140MOL0     C18788   2.396   4.004   0.238 -0.1828 -0.0625 -0.2059
  140MOL0     O18789   2.425   4.140   0.212  0.0116 -0.6981  0.5966
  140MOL0     C18790   2.512   4.196   0.294  0.6885  0.4093  0.2346
  140MOL0     C18791   2.631   4.144   0.339  0.8762  0.2892 -0.2804
  140MOL0     C18792   2.713   4.223   0.419  0.4352 -0.5590  0.6611
  140MOL0     C18793   2.666   4.347   0.462 -0.5431  0.3598 -0.7874
  140MOL0     C18794   2.757   4.432   0.545  0.6500 -0.4831  0.1263
  140MOL0     O18795   2.882   4.400   0.569  0.0568 -0.1290 -0.4090
  140MOL0     C18796   2.944   4.464   0.676  0.0198  0.8205 -0.0287
  140MOL0     C18797   2.891   4.453   0.815 -0.6733  0.0831  0.5080
  140MOL0     C18798   2.963   4.512   0.920  0.0405 -0.5441 -0.9670
  140MOL0     C18799   3.085   4.579   0.890  0.2540 -0.4691  0.7880
  140MOL0     O18800   3.162   4.633   0.986  0.1498 -0.4570 -0.4189
  140MOL0     C18801   3.243   4.534   1.050 -0.0935  0.4063 -1.0137
  140MOL0     C18802   3.363   4.595   1.115  0.2847 -0.0598 -0.8303
  140MOL0     C18803   3.460   4.665   1.018 -1.0386  0.1169  0.4878
  140MOL0     C18804   3.571   4.731   1.086 -0.2356  0.3990  1.4458
  140MOL0     C18805   3.658   4.803   0.982 -0.1164 -0.3924 -0.5440
  140MOL0     C18806   3.798   4.833   1.040 -0.5644  0.4847 -0.0609
  140MOL0     C18807   3.874   4.913   0.934  0.0780 -0.4447 -0.2019
  140MOL0     C18808   4.019   4.938   0.974  0.5372  0.3309  0.1954
  140MOL0    Cl18809   4.107   4.781   0.960 -0.1430 -0.1397 -0.0892
  140MOL0     C18810   3.142   4.583   0.763  0.3828 -0.1630  0.6185
  140MOL0     C18811   3.069   4.529   0.659 -0.5353  0.2630  0.7237
  140MOL0     O18812   2.697   4.525   0.597  0.5217 -0.2863 -0.7038
  140MOL0     C18813   2.546   4.398   0.416  0.5024 -0.2023 -0.5252
  140MOL0     C18814   2.462   4.321   0.338  0.2847 -0.1890  0.3079
  140MOL0     N18815   1.954   3.825   0.101 -0.2362  0.1774  0.3175
  140MOL0     N18816   1.837   3.817   0.057 -0.1760  0.1554 -0.2875
  140MOL0     C18817   0.837   3.392   0.237 -0.6170 -0.1711 -0.7341
  140MOL0     C18818   0.751   3.284   0.269  0.0361 -0.3194  0.0237
  140MOL0     C18819   0.681   2.851   0.403  1.1114  0.4075  0.5279
  140MOL0     C18820   0.547   2.862   0.384  0.4245 -0.9585  0.8294
  140MOL0     C18821   0.456   2.759   0.402 -0.4186  0.5753 -1.2520
  140MOL0     C18822   0.490   2.635   0.442 -0.1519 -0.2138  0.2978
  140MOL0     O18823   0.389   2.545   0.474  0.8176  0.2204  0.1360
  140MOL0     C18824   0.402   2.458   0.585  0.0876 -0.2125  0.5567
  140MOL0     C18825   0.298   2.339   0.577  0.3139  0.0203 -0.6737
  140MOL0     C18826   0.164   2.380   0.643  0.9272 -0.0323  0.0226
  140MOL0     C18827   0.038   2.314   0.592 -0.7336  0.1217  0.3473
  140MOL0     C18828   0.041   2.165   0.625  0.2821 -0.5492  0.0048
  140MOL0     C18829   0.026   2.042   0.639  0.2638 -0.7357 -0.0356
  140MOL0     C18830   0.623   2.612   0.453  0.1823 -0.0643 -0.3311
  140MOL0     C18831   0.724   2.715   0.440 -0.6235  0.0201  0.2911
  140MOL0     C18832   0.863   2.668   0.462  0.0610  0.3107  0.4279
  140MOL0     H18833   0.910   3.162   0.540 -0.4249 -0.5222  0.4599
  140MOL0     H18834   1.038   3.361   0.521  0.8113 -0.5511  0.4890
  140MOL0     H18835   1.022   3.609   0.134 -0.2360 -0.0106  0.9561
  140MOL0     H18836   0.881   3.657   0.230  0.0853 -1.4891  2.1727
  140MOL0     H18837   1.003   3.787   0.380  3.0030 -2.6823  2.3291
  140MOL0     H18838   1.055   3.848   0.224 -0.0233  1.0758  0.5318
  140MOL0     H18839   1.260   3.659   0.265  0.3381 -1.1261  0.5622
  140MOL0     H18840   1.206   3.693   0.431  0.8152  2.4169  0.9216
  140MOL0     H18841   1.311   3.890   0.213 -0.7637  0.7637  0.0806
  140MOL0     H18842   1.212   3.943   0.341  0.4260 -0.0750 -0.8325
  140MOL0     H18843   1.452   3.971   0.390 -3.1532  0.3489 -1.7665
  140MOL0     H18844   1.385   3.852   0.508  3.8771  0.1718  1.0085
  140MOL0     H18845   1.608   3.789   0.415 -0.1039 -1.3032 -0.1315
  140MOL0     H18846   1.487   3.670   0.377  0.9513 -0.4684  2.5948
  140MOL0     H18847   1.457   3.731   0.153 -0.4134 -0.9976 -0.0019
  140MOL0     H18848   1.613   3.672   0.191 -2.2581 -1.4647  0.3992
  140MOL0     H18849   1.586   3.880   0.038  0.0227  3.9387 -0.7020
  140MOL0     H18850   1.570   3.978   0.180 -0.5275  0.7227 -2.4701
  140MOL0     H18851   1.789   3.991   0.331  1.8254  1.9578 -0.0224
  140MOL0     H18852   2.052   3.974   0.396  1.6707 -1.3325  1.0734
  140MOL0     H18853   2.131   3.849   0.314  2.9845  1.1985 -1.9473
  140MOL0     H18854   2.109   4.080   0.125 -0.7817  1.4197  0.2687
  140MOL0     H18855   2.180   4.118   0.282 -0.2778 -0.2251  0.4157
  140MOL0     H18856   2.298   3.984   0.059 -0.3755  0.6017 -0.1684
  140MOL0     H18857   2.264   3.852   0.167 -1.0386  0.1896 -2.4455
  140MOL0     H18858   2.477   3.944   0.195  0.3372  2.3304 -2.8201
  140MOL0     H18859   2.393   3.981   0.345 -0.6201  0.7064 -0.0457
  140MOL0     H18860   2.658   4.048   0.295 -0.9028 -0.5021  0.2793
  140MOL0     H18861   2.806   4.179   0.451  0.6952  0.4738  1.3759
  140MOL0     H18862   2.802   4.396   0.842 -1.1932 -0.3583 -1.9531
  140MOL0     H18863   2.929   4.506   1.023  0.7330 -1.7030 -0.7932
  140MOL0     H18864   3.185   4.486   1.129  0.4669  3.9643  1.8531
  140MOL0     H18865   3.270   4.460   0.974 -1.9865 -0.6425 -0.7277
  140MOL0     H18866   3.337   4.670   1.190  0.5279  0.3420 -1.1435
  140MOL0     H18867   3.423   4.514   1.158  1.8534  0.0277 -2.6851
  140MOL0     H18868   3.497   4.590   0.947 -1.0456  0.3887  0.1922
  140MOL0     H18869   3.403   4.734   0.954  1.4614  1.7179 -0.1421
  140MOL0     H18870   3.634   4.653   1.128  0.3216 -1.4334 -2.3575
  140MOL0     H18871   3.536   4.802   1.162 -0.2904  0.3502  1.4661
  140MOL0     H18872   3.598   4.887   0.945 -0.7234 -0.9688 -0.8911
  140MOL0     H18873   3.676   4.741   0.894 -0.8247 -0.7458 -0.4554
  140MOL0     H18874   3.790   4.892   1.132  1.5016 -0.9880  1.1294
  140MOL0     H18875   3.856   4.744   1.066 -0.1511  0.9193  0.5329
  140MOL0     H18876   3.826   5.011   0.923 -2.0088 -1.6161 -2.5330
  140MOL0     H18877   3.870   4.853   0.842 -2.4751 -1.2804  0.3804
  140MOL0     H18878   4.077   5.008   0.913 -0.6185  1.7826  0.6831
  140MOL0     H18879   4.026   4.973   1.077 -0.9991  1.5873 -0.0849
  140MOL0     H18880   3.239   4.627   0.743  0.6032 -0.5191  0.8804
  140MOL0     H18881   3.117   4.526   0.562 -1.4391  2.1289  0.1727
  140MOL0     H18882   2.505   4.490   0.454  1.2416 -0.4531  0.9578
  140MOL0     H18883   2.366   4.369   0.321 -0.5106 -1.7099  0.3974
  140MOL0     H18884   0.831   3.455   0.149  0.7249  0.5973 -0.3120
  140MOL0     H18885   0.679   3.257   0.193 -0.6108 -1.6985  1.0878
  140MOL0     H18886   0.497   2.956   0.363 -0.2976 -1.2256  1.3013
  140MOL0     H18887   0.352   2.774   0.374 -0.6666 -3.0006 -2.7257
  140MOL0     H18888   0.385   2.517   0.675 -1.2884  0.0565  0.1585
  140MOL0     H18889   0.505   2.424   0.591  2.0866  4.4613 -1.8794
  140MOL0     H18890   0.335   2.246   0.621 -0.9435 -0.7606 -1.2032
  140MOL0     H18891   0.282   2.317   0.471 -1.1968 -1.3470 -0.2040
  140MOL0     H18892   0.156   2.486   0.620  0.2465 -0.9996 -5.6172
  140MOL0     H18893   0.166   2.358   0.750 -0.1306 -0.6689 -0.0723
  140MOL0     H18894  -0.036   2.371   0.648  0.1354  1.4516  0.1810
  140MOL0     H18895   0.023   2.329   0.484  1.1754 -0.2153 -0.0069
  140MOL0     H18896  -0.005   1.943   0.667 -1.2162 -0.0851  0.7348
  140MOL0     H18897   0.652   2.508   0.469 -1.2329 -0.1946  1.7088
  140MOL0     H18898   0.940   2.735   0.423 -0.8873  0.9061 -0.4575
  140MOL0     H18899   0.876   2.684   0.569 -1.8922 -1.1739  0.9567
  140MOL0     H18900   0.877   2.565   0.428  0.6793  1.4929 -3.3823
  141MOL0     O18901   3.472   9.782   5.448 -0.0631 -0.4998 -0.0132
  141MOL0     C18902   3.436   9.896   5.410  0.0213  0.4528 -0.2412
  141MOL0     O18903   3.500  10.012   5.448  0.4909 -0.4490  0.7636
  141MOL0     C18904   3.589  10.009   5.549  0.2227  0.1480  0.6093
  141MOL0     C18905   3.551  10.007   5.684  0.7006  0.7917 -0.3879
  141MOL0     C18906   3.646  10.014   5.787 -0.1214  0.3074 -0.0275
  141MOL0     C18907   3.787  10.027   5.750  0.4179 -0.2070  0.1581
  141MOL0     O18908   3.864  10.057   5.854 -0.2355  0.0217 -0.3372
  141MOL0     C18909   3.955  10.166   5.828  0.1611  0.3278 -0.1148
  141MOL0     C18910   3.906  10.286   5.909 -0.3372 -1.1213 -0.5085
  141MOL0     C18911   3.992  10.419   5.891 -0.3498  0.1639 -0.4027
  141MOL0     C18912   3.954  10.526   5.999 -0.4744 -0.1026 -0.0413
  141MOL0     C18913   4.021  10.661   5.959 -0.6123  0.8677  0.4081
  141MOL0     C18914   4.179  10.665   5.950  0.2127 -0.5233 -0.2160
  141MOL0     C18915   4.232  10.814   5.983  0.3872  0.8218  0.6566
  141MOL0     C18916   4.173  10.936   5.906  0.0526 -0.4522 -0.6992
  141MOL0     N18917   4.249  11.046   5.957  0.4577  0.1267  0.2949
  141MOL0     C18918   4.359  11.086   5.888 -0.8667  0.5062 -0.0212
  141MOL0     C18919   4.442  11.161   5.968  0.2737 -0.3457  0.2009
  141MOL0     C18920   4.571  11.228   5.942 -0.1390  0.7230 -0.2112
  141MOL0     C18921   4.559  11.379   5.929  0.2022 -1.2201 -0.0567
  141MOL0     C18922   4.679  11.454   5.875 -0.9761  0.0407 -0.1593
  141MOL0     C18923   4.816  11.423   5.924  0.8332  0.3188  0.3609
  141MOL0     O18924   4.899  11.524   5.862 -0.3361 -0.6980 -0.4742
  141MOL0     C18925   5.029  11.531   5.893  0.0397 -0.0397  0.0283
  141MOL0     C18926   5.087  11.461   6.001  0.1784  0.4437  0.7414
  141MOL0     C18927   5.223  11.474   6.021  0.4721  1.5284 -0.4982
  141MOL0     C18928   5.310  11.543   5.932  0.9459  0.1612 -0.2641
  141MOL0     C18929   5.450  11.540   5.959 -0.2818  0.0066 -0.3846
  141MOL0     O18930   5.529  11.612   5.866 -0.2513 -0.5194 -0.0995
  141MOL0     C18931   5.660  11.639   5.893  0.0002 -0.0983  0.0182
  141MOL0     C18932   5.745  11.552   5.963  0.2999 -0.5758 -1.0197
  141MOL0     C18933   5.877  11.587   5.980  0.0366 -0.0679 -0.7615
  141MOL0     C18934   5.933  11.699   5.924  0.2496 -0.0804  0.2275
  141MOL0     O18935   6.070  11.711   5.926  0.1637  0.0760 -0.1348
  141MOL0     C18936   6.128  11.732   5.799 -0.3862 -0.2812  0.1535
  141MOL0     C18937   6.213  11.603   5.773 -0.2682 -0.1400  0.0339
  141MOL0     C18938   6.338  11.597   5.865 -0.1177 -0.1030 -0.6467
  141MOL0     C18939   6.449  11.504   5.799 -0.0444 -0.0394 -0.1133
  141MOL0     C18940   6.567  11.465   5.895  0.3742 -0.7676 -0.7108
  141MOL0     C18941   6.656  11.355   5.842  0.0255  0.7198  0.0065
  141MOL0     C18942   6.766  11.293   5.937 -0.2938 -0.9805 -0.3967
  141MOL0     C18943   6.823  11.156   5.890 -0.8973  0.4390  0.8434
  141MOL0    Cl18944   6.924  11.115   6.033  0.1260 -0.2855  0.2171
  141MOL0     C18945   5.843  11.794   5.862 -0.2661 -0.1384 -0.4824
  141MOL0     C18946   5.710  11.755   5.832  0.3822  0.8348  0.0956
  141MOL0     O18947   5.494  11.501   6.070  0.0155  0.3277 -0.4547
  141MOL0     C18948   5.243  11.611   5.826 -1.0139  0.4760  0.0686
  141MOL0     C18949   5.104  11.609   5.810 -1.4773  0.4836 -0.2665
  141MOL0     N18950   4.382  11.151   6.096  0.7806  0.3855 -0.1156
  141MOL0     N18951   4.268  11.085   6.088 -0.2882  0.2362  0.2998
  141MOL0     C18952   3.829  10.018   5.619  0.4446  0.6501 -0.0906
  141MOL0     C18953   3.729  10.015   5.520  0.8113 -0.6782  0.0525
  141MOL0     C18954   3.312   9.925   5.327  0.1404  0.3715  0.4290
  141MOL0     C18955   3.283  10.062   5.292  0.6373  0.5508 -0.4688
  141MOL0     C18956   3.174  10.087   5.213  0.6926  0.2615 -0.3597
  141MOL0     C18957   3.098   9.986   5.152  0.1393 -0.0263 -0.0791
  141MOL0     O18958   3.002  10.024   5.067 -0.2238 -0.4564  0.7000
  141MOL0     C18959   2.970   9.945   4.952 -0.1740  0.0636  0.2494
  141MOL0     C18960   2.847   9.865   4.979 -0.4414  0.5444 -0.4652
  141MOL0     C18961   2.730   9.964   4.993 -0.0308 -0.3670  0.3486
  141MOL0     C18962   2.600   9.887   4.961 -0.5946 -0.3757 -0.3321
  141MOL0     C18963   2.488   9.982   4.972  0.1966 -0.2431  0.6166
  141MOL0     C18964   2.396  10.057   4.985  0.1325 -0.0651  0.6827
  141MOL0     C18965   3.113   9.856   5.198  0.7626 -0.6420 -0.0653
  141MOL0     C18966   3.216   9.826   5.289 -0.7916 -0.7290 -0.3485
  141MOL0     C18967   3.223   9.685   5.336 -0.0203  0.4926  0.6106
  141MOL0     H18968   3.445  10.014   5.706 -0.0908 -2.8492 -2.3333
  141MOL0     H18969   3.621  10.023   5.893  1.5082 -0.5598  0.4715
  141MOL0     H18970   4.050  10.146   5.878  0.5360 -1.3039 -1.3872
  141MOL0     H18971   3.976  10.190   5.724 -0.7291 -1.5521 -0.7922
  141MOL0     H18972   3.902  10.267   6.017 -1.6150  1.5532 -0.0050
  141MOL0     H18973   3.803  10.311   5.881 -0.4934  0.7626  1.4826
  141MOL0     H18974   3.976  10.460   5.791  0.8856 -1.9689 -1.5327
  141MOL0     H18975   4.099  10.397   5.902 -0.3438  0.6446  0.6071
  141MOL0     H18976   3.846  10.539   5.996 -0.9033 -3.0560 -0.9659
  141MOL0     H18977   3.983  10.496   6.100 -0.9730  0.9918  0.4387
  141MOL0     H18978   3.968  10.695   5.869 -4.0790  0.0068  1.9361
  141MOL0     H18979   3.991  10.733   6.036  1.1894  0.7587  1.2560
  141MOL0     H18980   4.229  10.598   6.021 -0.0048 -1.8266 -1.2401
  141MOL0     H18981   4.201  10.633   5.847 -1.8970 -3.3039  0.0527
  141MOL0     H18982   4.340  10.818   5.966  0.4194 -0.1086  0.6091
  141MOL0     H18983   4.219  10.832   6.090 -1.7308  2.1994  0.2323
  141MOL0     H18984   4.191  10.916   5.800 -0.1299 -1.0577 -0.6213
  141MOL0     H18985   4.066  10.953   5.919  0.5109  0.9770  2.0571
  141MOL0     H18986   4.378  11.066   5.783 -3.3951  0.1753 -0.4624
  141MOL0     H18987   4.632  11.205   6.029  0.0202 -0.4820 -0.6294
  141MOL0     H18988   4.630  11.201   5.854  1.1458  0.4722  0.6973
  141MOL0     H18989   4.469  11.394   5.869  0.3852 -0.4945 -0.1523
  141MOL0     H18990   4.545  11.417   6.030  0.5368 -0.0680 -0.4352
  141MOL0     H18991   4.665  11.561   5.894  1.5659  0.3524  0.3077
  141MOL0     H18992   4.674  11.440   5.767 -2.3126 -3.9389  0.2461
  141MOL0     H18993   4.857  11.326   5.893  2.8420  0.8366  1.2260
  141MOL0     H18994   4.828  11.448   6.030  2.0602 -0.2500  0.3720
  141MOL0     H18995   5.027  11.407   6.073 -0.0949  1.7860  1.5658
  141MOL0     H18996   5.269  11.424   6.106 -1.0555 -2.0060 -1.5912
  141MOL0     H18997   5.710  11.456   6.001 -0.2389 -0.0320 -0.1148
  141MOL0     H18998   5.940  11.533   6.050  3.1477  3.4977 -0.4780
  141MOL0     H18999   6.057  11.753   5.718 -2.2053 -1.4471  1.3825
  141MOL0     H19000   6.196  11.816   5.814 -1.7180  0.7194  0.7228
  141MOL0     H19001   6.153  11.512   5.780  1.1894 -1.1097  0.3929
  141MOL0     H19002   6.242  11.606   5.667  1.7176  3.7913  0.5068
  141MOL0     H19003   6.378  11.698   5.875 -1.9193  0.4183  2.6326
  141MOL0     H19004   6.318  11.556   5.964  4.2701  0.2193  0.5826
  141MOL0     H19005   6.497  11.562   5.720  2.7980 -2.1159 -0.1105
  141MOL0     H19006   6.404  11.418   5.747  1.6899 -1.2346  0.2657
  141MOL0     H19007   6.519  11.431   5.987 -0.1283 -1.3989 -1.1973
  141MOL0     H19008   6.616  11.556   5.931 -2.6138 -0.0523  1.9946
  141MOL0     H19009   6.594  11.272   5.807 -0.2617  1.3676 -1.0588
  141MOL0     H19010   6.707  11.391   5.753  0.7839  0.3232  0.2737
  141MOL0     H19011   6.743  11.294   6.044 -0.0161 -0.4783 -0.3392
  141MOL0     H19012   6.850  11.363   5.939 -1.8832  1.0487 -0.3950
  141MOL0     H19013   6.756  11.071   5.879 -0.3488 -0.0330  1.1056
  141MOL0     H19014   6.887  11.174   5.804  0.7865 -2.2883  1.4101
  141MOL0     H19015   5.877  11.884   5.811 -1.8000  1.2163  0.7675
  141MOL0     H19016   5.633  11.796   5.767 -2.5786 -1.4132  1.8996
  141MOL0     H19017   5.298  11.672   5.755 -2.3164 -1.9396 -3.2804
  141MOL0     H19018   5.073  11.674   5.729  2.5956 -0.1387 -2.6016
  141MOL0     H19019   3.929  10.029   5.580  0.0733 -0.0766 -1.2921
  141MOL0     H19020   3.746  10.011   5.413 -3.8257 -1.5920 -0.8674
  141MOL0     H19021   3.338  10.145   5.335 -0.4774  2.1717 -2.0586
  141MOL0     H19022   3.144  10.188   5.187 -1.3828  0.2447  1.6373
  141MOL0     H19023   3.050   9.876   4.925 -0.3701 -0.3723  0.7590
  141MOL0     H19024   2.951  10.007   4.864  1.8064  1.9306  1.0426
  141MOL0     H19025   2.863   9.804   5.068  0.0639  0.5816 -0.5291
  141MOL0     H19026   2.828   9.784   4.908 -2.0574 -0.5218  1.1095
  141MOL0     H19027   2.744  10.043   4.919 -2.0772  0.7548  1.0732
  141MOL0     H19028   2.731  10.005   5.094 -0.4798  1.0804 -0.2139
  141MOL0     H19029   2.600   9.846   4.859  0.3019  0.1127 -0.5400
  141MOL0     H19030   2.586   9.801   5.027 -1.1269  0.3225  0.4767
  141MOL0     H19031   2.319  10.132   4.988  0.8029  0.7090 -0.8054
  141MOL0     H19032   3.044   9.773   5.181 -0.8461  0.2095  1.9054
  141MOL0     H19033   3.318   9.640   5.308 -0.5743 -0.4410  0.1787
  141MOL0     H19034   3.209   9.682   5.444  1.5693  1.7976  0.8876
  141MOL0     H19035   3.143   9.627   5.289 -0.6189  2.1392 -0.5125
  142MOL0     O19036   0.011   8.242   1.485  0.0541 -0.6309  0.0045
  142MOL0     C19037  -0.042   8.289   1.386  0.6494  1.1458  0.0456
  142MOL0     O19038  -0.001   8.387   1.304 -0.5939  0.3065 -0.5452
  142MOL0     C19039   0.127   8.440   1.330 -0.5882 -0.2784 -0.2832
  142MOL0     C19040   0.245   8.367   1.309 -0.3317  0.4383  0.1786
  142MOL0     C19041   0.365   8.432   1.323 -0.0351 -0.5255 -0.8644
  142MOL0     C19042   0.369   8.567   1.357  0.3584  1.2623 -0.1708
  142MOL0     O19043   0.491   8.621   1.372 -0.2022 -0.1775 -0.3655
  142MOL0     C19044   0.577   8.595   1.265 -0.9618  0.3056  1.0510
  142MOL0     C19045   0.694   8.695   1.256  0.6042 -0.2376  0.1635
  142MOL0     C19046   0.765   8.739   1.383  0.1154  0.6919  0.2102
  142MOL0     C19047   0.914   8.780   1.365 -0.3333  0.8062 -0.9816
  142MOL0     C19048   0.984   8.812   1.501 -0.0093  0.4975  0.5027
  142MOL0     C19049   0.992   8.698   1.600 -0.2498 -0.3845 -0.1592
  142MOL0     C19050   1.112   8.738   1.689  0.8195  0.2646 -0.4878
  142MOL0     C19051   1.133   8.634   1.804 -0.1477  0.4991 -0.7389
  142MOL0     N19052   1.269   8.641   1.850 -0.6139  0.6309 -0.0477
  142MOL0     C19053   1.314   8.676   1.974 -0.6077  0.2598 -0.3468
  142MOL0     C19054   1.452   8.668   1.978 -1.2287 -0.1540 -0.2498
  142MOL0     C19055   1.545   8.701   2.100  0.3111  0.1188 -0.1482
  142MOL0     C19056   1.530   8.857   2.134  0.2489  0.1975 -0.7548
  142MOL0     C19057   1.582   8.882   2.273 -0.2961 -0.3305 -0.0306
  142MOL0     C19058   1.578   9.027   2.307  0.5419 -0.1387 -0.0098
  142MOL0     O19059   1.590   9.039   2.451  0.5510  0.1158  0.7413
  142MOL0     C19060   1.476   9.038   2.533  0.2899  0.7707  0.3787
  142MOL0     C19061   1.481   9.020   2.670  0.3408  0.7704 -0.9140
  142MOL0     C19062   1.358   9.016   2.741  0.4616  0.3952 -0.3563
  142MOL0     C19063   1.228   9.013   2.682 -0.0189 -0.8145 -0.7622
  142MOL0     C19064   1.099   8.995   2.756  0.4620  0.6209 -0.2407
  142MOL0     O19065   1.003   8.941   2.678  0.1022  0.1223 -0.1497
  142MOL0     C19066   0.874   8.945   2.724  0.7429 -0.0934  1.7333
  142MOL0     C19067   0.813   9.066   2.756  0.3971  0.1564 -0.5198
  142MOL0     C19068   0.682   9.076   2.806  0.1863  0.4843  0.0031
  142MOL0     C19069   0.605   8.958   2.826 -0.6508 -0.9592  1.0492
  142MOL0     O19070   0.478   8.961   2.871 -0.2208  0.0869  0.0278
  142MOL0     C19071   0.378   9.001   2.776 -0.5740  0.2859  0.1329
  142MOL0     C19072   0.374   8.886   2.661  0.2423  0.2973  0.4557
  142MOL0     C19073   0.238   8.892   2.580  0.2162  1.0565  0.0981
  142MOL0     C19074   0.202   9.026   2.513  0.3005  0.6773 -0.8774
  142MOL0     C19075   0.065   9.035   2.438 -1.3227  0.0710 -1.0126
  142MOL0     C19076   0.076   8.960   2.302 -0.1789 -0.4822  0.8891
  142MOL0     C19077  -0.032   9.005   2.206  0.2313 -0.8993  0.6750
  142MOL0     C19078   0.033   9.118   2.122 -0.3283 -0.1993  0.4653
  142MOL0    Cl19079  -0.069   9.196   2.005 -0.3488 -0.0923  0.6040
  142MOL0     C19080   0.670   8.833   2.801 -0.0300 -0.1883 -0.6468
  142MOL0     C19081   0.798   8.830   2.738  0.5854 -0.6379 -0.1202
  142MOL0     O19082   1.092   9.020   2.875 -0.1484 -0.0645 -0.4811
  142MOL0     C19083   1.226   9.037   2.543  0.4181  0.2525 -0.4761
  142MOL0     C19084   1.347   9.055   2.472 -0.4564  0.0498  0.3711
  142MOL0     N19085   1.489   8.626   1.855 -0.0292 -0.1186  0.1497
  142MOL0     N19086   1.378   8.603   1.783 -0.9121  0.3474 -0.8691
  142MOL0     C19087   0.252   8.639   1.382 -0.5537 -0.4682  0.3188
  142MOL0     C19088   0.131   8.575   1.367  0.4470  0.5857 -0.5802
  142MOL0     C19089  -0.168   8.221   1.344  0.6470  0.6623 -0.4199
  142MOL0     C19090  -0.198   8.209   1.207 -0.1075  0.3789 -0.0671
  142MOL0     C19091  -0.298   8.116   1.164  0.3204 -0.0268 -0.0395
  142MOL0     C19092  -0.389   8.073   1.251  0.6462 -0.3928 -0.4943
  142MOL0     O19093  -0.499   7.988   1.225 -0.3649 -0.3647  0.1136
  142MOL0     C19094  -0.624   8.060   1.205 -0.1038 -0.0346 -0.7207
  142MOL0     C19095  -0.741   7.966   1.186  0.4067  0.6180 -0.5124
  142MOL0     C19096  -0.870   8.033   1.226  0.3049 -0.2862  0.3849
  142MOL0     C19097  -0.985   8.002   1.131  0.8463  0.0391 -0.8400
  142MOL0     C19098  -1.099   8.080   1.167  0.7644  0.0350  0.3396
  142MOL0     C19099  -1.190   8.153   1.207 -0.2870  0.7160 -1.0197
  142MOL0     C19100  -0.371   8.096   1.387  0.3947  0.3702 -0.3945
  142MOL0     C19101  -0.267   8.169   1.438 -0.2028  0.1356  0.0583
  142MOL0     C19102  -0.272   8.196   1.589 -0.6157  0.0423  0.3797
  142MOL0     H19103   0.237   8.262   1.281 -1.7612  0.0786  1.7584
  142MOL0     H19104   0.463   8.387   1.306  1.1446  1.1244  1.1746
  142MOL0     H19105   0.621   8.495   1.266 -1.8845 -0.1816 -1.3214
  142MOL0     H19106   0.522   8.610   1.172  2.2854 -2.2060 -1.5393
  142MOL0     H19107   0.658   8.786   1.207  0.4131 -0.5097 -0.1971
  142MOL0     H19108   0.765   8.655   1.183 -0.5164  0.1016 -1.1521
  142MOL0     H19109   0.755   8.661   1.460 -1.0622  1.4259  0.8273
  142MOL0     H19110   0.708   8.820   1.428 -3.0331 -0.5708 -1.2155
  142MOL0     H19111   0.974   8.699   1.322  1.6854  1.9541 -0.3970
  142MOL0     H19112   0.923   8.858   1.288  1.7710  3.0905  1.3974
  142MOL0     H19113   1.084   8.850   1.478 -0.3319  1.3262  0.4558
  142MOL0     H19114   0.915   8.882   1.549 -1.8919 -0.7219 -0.2754
  142MOL0     H19115   0.908   8.687   1.669  0.0916 -3.0952 -0.0768
  142MOL0     H19116   1.006   8.604   1.546 -1.1280 -1.3608  1.2448
  142MOL0     H19117   1.096   8.834   1.738  0.1178 -0.1142  0.0531
  142MOL0     H19118   1.202   8.735   1.627  0.2419 -2.5778 -1.3614
  142MOL0     H19119   1.071   8.656   1.891 -0.7979 -1.3058 -0.7078
  142MOL0     H19120   1.115   8.532   1.768  0.1940 -0.1764  0.9022
  142MOL0     H19121   1.250   8.712   2.054 -1.5252 -2.8524  0.4588
  142MOL0     H19122   1.499   8.637   2.176 -1.2780  0.9749 -0.3506
  142MOL0     H19123   1.644   8.657   2.087  0.3852  0.4722 -0.7811
  142MOL0     H19124   1.585   8.919   2.062 -1.4797  0.7405 -1.6554
  142MOL0     H19125   1.422   8.872   2.128  0.0656 -1.3923 -1.8585
  142MOL0     H19126   1.684   8.845   2.287  0.3798  1.8150  1.3172
  142MOL0     H19127   1.515   8.829   2.341  0.3775 -1.4370 -0.1960
  142MOL0     H19128   1.498   9.088   2.264 -0.4689  0.1595  2.1710
  142MOL0     H19129   1.672   9.072   2.272 -0.1228  0.9394 -0.4793
  142MOL0     H19130   1.571   9.010   2.729  0.0148 -3.5309 -0.8203
  142MOL0     H19131   1.370   8.998   2.848 -1.5409  1.0691  0.0268
  142MOL0     H19132   0.870   9.159   2.755  2.4474 -0.9351  2.2727
  142MOL0     H19133   0.634   9.170   2.829 -2.0865 -0.4835 -0.5623
  142MOL0     H19134   0.279   9.022   2.817 -0.8588 -0.8447  0.0817
  142MOL0     H19135   0.417   9.094   2.735  1.2553  0.5717  2.2856
  142MOL0     H19136   0.454   8.908   2.590  0.2029  0.7410  0.5481
  142MOL0     H19137   0.380   8.787   2.707  2.0311  0.3829  0.4568
  142MOL0     H19138   0.263   8.821   2.500  1.0169  0.6572  0.6934
  142MOL0     H19139   0.153   8.854   2.637  0.7181 -0.8173 -0.3264
  142MOL0     H19140   0.285   9.065   2.454 -1.0628  1.6112 -2.2158
  142MOL0     H19141   0.195   9.103   2.590 -0.5932  0.8089 -1.0853
  142MOL0     H19142   0.045   9.142   2.430  0.1427  0.5336  0.6858
  142MOL0     H19143  -0.019   8.991   2.494 -0.6678 -0.1446 -0.1661
  142MOL0     H19144   0.178   8.977   2.267  0.3575 -2.4023  1.4211
  142MOL0     H19145   0.078   8.851   2.306  1.6617 -0.4786  0.8109
  142MOL0     H19146  -0.127   9.036   2.251  1.2441  2.1525  0.9350
  142MOL0     H19147  -0.063   8.924   2.139 -5.5734  1.7588 -0.4705
  142MOL0     H19148   0.050   9.193   2.199 -0.5755 -0.3546  0.6718
  142MOL0     H19149   0.127   9.088   2.073 -0.2806  0.0406  0.4085
  142MOL0     H19150   0.605   8.748   2.820  1.2794 -1.3203 -1.0606
  142MOL0     H19151   0.846   8.733   2.728  2.5479  0.2114  0.4951
  142MOL0     H19152   1.129   9.042   2.495  0.8727  0.4136 -1.4225
  142MOL0     H19153   1.330   9.080   2.368 -1.1430 -0.3701  0.3769
  142MOL0     H19154   0.259   8.743   1.410 -1.6765 -0.9661  2.7676
  142MOL0     H19155   0.045   8.641   1.375  0.6623  0.8772 -0.6587
  142MOL0     H19156  -0.131   8.260   1.139 -0.4219  1.7401  0.6127
  142MOL0     H19157  -0.313   8.093   1.059  1.8224 -1.8210  0.0815
  142MOL0     H19158  -0.611   8.112   1.110  4.3852 -3.9453 -2.6313
  142MOL0     H19159  -0.641   8.124   1.292 -0.7890 -2.2880  0.8934
  142MOL0     H19160  -0.707   7.871   1.228  1.3796 -0.7020 -3.9740
  142MOL0     H19161  -0.739   7.938   1.080  0.3285 -0.7760 -0.1571
  142MOL0     H19162  -0.856   8.141   1.234  0.9876 -0.4584  2.0039
  142MOL0     H19163  -0.896   7.998   1.327  0.7615  0.4835  0.7773
  142MOL0     H19164  -0.944   8.035   1.035 -2.1723  1.0963 -1.8706
  142MOL0     H19165  -1.024   7.901   1.123  1.6615 -0.3065 -0.5682
  142MOL0     H19166  -1.258   8.225   1.247  0.7709  0.5884  1.2034
  142MOL0     H19167  -0.449   8.053   1.449  0.1550  0.4216 -0.6598
  142MOL0     H19168  -0.371   8.192   1.636 -1.1366  3.9927 -0.0443
  142MOL0     H19169  -0.205   8.118   1.625  0.7791 -0.3135 -2.6622
  142MOL0     H19170  -0.233   8.297   1.607 -0.9412  0.1914  0.2682
  143MOL0     O19171   7.115   5.641   1.448  0.1404 -0.8887  0.2293
  143MOL0     C19172   7.086   5.580   1.342 -0.0015 -0.1704 -0.2075
  143MOL0     O19173   6.961   5.575   1.291  0.6847 -0.3572  0.1882
  143MOL0     C19174   6.848   5.637   1.339 -0.9131  0.3698 -0.0315
  143MOL0     C19175   6.735   5.597   1.267  0.1470  0.1833  0.9014
  143MOL0     C19176   6.615   5.651   1.304 -0.0233 -0.8011  0.0102
  143MOL0     C19177   6.602   5.738   1.414 -0.2303 -0.6891 -0.7607
  143MOL0     O19178   6.472   5.779   1.449  0.3478  0.3489 -0.3671
  143MOL0     C19179   6.446   5.888   1.539  0.6782  0.7062 -0.4964
  143MOL0     C19180   6.521   6.017   1.490 -1.0876 -0.0855 -0.6119
  143MOL0     C19181   6.483   6.055   1.344  0.1404  0.5342  1.1339
  143MOL0     C19182   6.490   6.208   1.332 -0.1626 -0.1404  0.3542
  143MOL0     C19183   6.453   6.264   1.195 -0.7403 -0.6104  0.1846
  143MOL0     C19184   6.543   6.237   1.062  0.3832 -1.1994 -0.9642
  143MOL0     C19185   6.679   6.295   1.088  0.1645 -0.0920  0.1122
  143MOL0     C19186   6.743   6.255   0.953  0.6795  0.1705  0.3974
  143MOL0     N19187   6.883   6.305   0.948  0.8333  0.4716 -0.2118
  143MOL0     C19188   6.988   6.247   1.009 -0.0662  0.7357 -0.7283
  143MOL0     C19189   7.085   6.330   1.011 -0.2199 -0.1760  0.7070
  143MOL0     C19190   7.220   6.308   1.079  0.0999 -0.1161  0.7303
  143MOL0     C19191   7.222   6.397   1.212 -0.3605  0.8308 -0.1051
  143MOL0     C19192   7.357   6.393   1.283  0.0990  0.6285  1.0791
  143MOL0     C19193   7.365   6.440   1.432 -0.5738  0.4269  0.3505
  143MOL0     O19194   7.256   6.379   1.498 -0.4739 -0.3040 -0.8858
  143MOL0     C19195   7.256   6.397   1.633  0.0782 -0.3835 -0.6731
  143MOL0     C19196   7.361   6.464   1.713 -0.1010 -0.1409  0.4810
  143MOL0     C19197   7.363   6.465   1.856  0.2569 -0.0991  0.1659
  143MOL0     C19198   7.261   6.392   1.924  1.0405 -0.7315 -0.5892
  143MOL0     C19199   7.262   6.385   2.074 -0.4575  0.4592 -0.5320
  143MOL0     O19200   7.151   6.354   2.150 -0.3449 -0.0751  0.1732
  143MOL0     C19201   7.153   6.409   2.281  0.3959  0.4389 -0.1568
  143MOL0     C19202   7.196   6.329   2.393  0.7427  0.1751 -0.3088
  143MOL0     C19203   7.202   6.375   2.526 -0.4765  0.0592  1.3434
  143MOL0     C19204   7.168   6.512   2.547  0.1888  0.6969  0.8503
  143MOL0     O19205   7.161   6.561   2.675  0.4680 -0.1704 -0.3866
  143MOL0     C19206   7.038   6.627   2.715  0.4716 -0.3999 -0.1331
  143MOL0     C19207   7.019   6.609   2.872  0.2387  0.1281  0.2645
  143MOL0     C19208   6.897   6.677   2.942 -0.7456  0.0243  0.0898
  143MOL0     C19209   6.765   6.659   2.871 -1.3333 -0.0220  0.1766
  143MOL0     C19210   6.652   6.720   2.954  0.1267  1.1660 -0.1455
  143MOL0     C19211   6.548   6.788   2.871 -0.3787 -0.3154  0.0139
  143MOL0     C19212   6.408   6.787   2.937 -1.1355 -0.1898 -0.6138
  143MOL0     C19213   6.394   6.898   3.045 -0.7460 -0.5557  0.5197
  143MOL0    Cl19214   6.224   6.926   3.091  0.2469  0.1779 -0.6455
  143MOL0     C19215   7.122   6.590   2.438 -0.8109 -0.1505  0.3362
  143MOL0     C19216   7.116   6.538   2.312 -0.2134 -0.5742 -0.2437
  143MOL0     O19217   7.370   6.427   2.123  0.6246 -0.7509  0.2676
  143MOL0     C19218   7.154   6.334   1.850  0.4167  0.2738 -0.0633
  143MOL0     C19219   7.150   6.345   1.706 -0.9370 -0.0850  0.8326
  143MOL0     N19220   7.043   6.445   0.944  0.1834 -0.1248 -0.1678
  143MOL0     N19221   6.919   6.426   0.911 -0.0560  0.3135  0.3130
  143MOL0     C19222   6.718   5.770   1.487  0.2063  0.0111 -0.0125
  143MOL0     C19223   6.838   5.721   1.447 -0.1471  0.0983 -0.4270
  143MOL0     C19224   7.189   5.499   1.271 -0.5000 -0.0491  0.0261
  143MOL0     C19225   7.151   5.429   1.159 -0.8131  1.2013  0.4414
  143MOL0     C19226   7.234   5.329   1.104 -0.0128 -0.2854 -0.3636
  143MOL0     C19227   7.368   5.315   1.143 -0.5906  0.6445  0.2810
  143MOL0     O19228   7.448   5.226   1.083 -0.0895 -0.0788 -0.2835
  143MOL0     C19229   7.394   5.150   0.973 -0.2651  0.2549 -0.4359
  143MOL0     C19230   7.493   5.040   0.919  0.5157 -0.2912  0.2127
  143MOL0     C19231   7.417   4.927   0.831  0.0107 -0.3787 -0.3009
  143MOL0     C19232   7.399   4.985   0.687  0.3837 -0.7724 -0.1979
  143MOL0     C19233   7.377   4.875   0.600 -0.8319  0.6013 -0.2338
  143MOL0     C19234   7.355   4.773   0.529 -0.2136 -0.1192 -0.4207
  143MOL0     C19235   7.413   5.398   1.239  0.0728  0.6293  0.1110
  143MOL0     C19236   7.334   5.485   1.310  0.0702 -0.5952 -0.4647
  143MOL0     C19237   7.391   5.559   1.433 -0.2865  1.1080  0.9158
  143MOL0     H19238   6.739   5.532   1.180  2.9010  1.0830  0.2488
  143MOL0     H19239   6.520   5.628   1.258 -0.1405 -0.9386  0.3152
  143MOL0     H19240   6.339   5.906   1.543  0.2456 -1.4973 -0.4593
  143MOL0     H19241   6.476   5.854   1.639  0.3489 -1.6282 -1.1201
  143MOL0     H19242   6.629   6.016   1.504 -1.1911  1.3270  0.4494
  143MOL0     H19243   6.490   6.095   1.559 -1.2853 -1.6720  1.1830
  143MOL0     H19244   6.383   6.016   1.320  0.3667  1.2548 -1.2090
  143MOL0     H19245   6.547   6.015   1.265 -0.8877  1.4885 -0.2275
  143MOL0     H19246   6.442   6.260   1.415 -1.1698 -1.5173  0.6666
  143MOL0     H19247   6.595   6.237   1.343  0.9737 -3.3013 -0.7985
  143MOL0     H19248   6.351   6.237   1.166 -0.0869 -0.3996 -2.6303
  143MOL0     H19249   6.457   6.369   1.222 -1.5517 -0.9405  1.6517
  143MOL0     H19250   6.545   6.129   1.047  0.6421 -1.1469 -1.3315
  143MOL0     H19251   6.498   6.287   0.976  1.6379  0.4220 -0.7369
  143MOL0     H19252   6.726   6.247   1.174 -0.5185 -0.6606  0.1761
  143MOL0     H19253   6.674   6.404   1.092  0.9289 -0.0547  0.2062
  143MOL0     H19254   6.734   6.149   0.929 -0.6146  0.7392 -1.8780
  143MOL0     H19255   6.691   6.301   0.869  0.4132  0.8115  0.9020
  143MOL0     H19256   6.991   6.160   1.074 -0.4288  1.1012 -0.2106
  143MOL0     H19257   7.229   6.199   1.086  1.2015 -0.1213 -0.5094
  143MOL0     H19258   7.300   6.341   1.013 -1.9534  2.0883 -0.8299
  143MOL0     H19259   7.192   6.497   1.180 -0.8899 -0.1212 -2.7835
  143MOL0     H19260   7.153   6.353   1.285  2.1894  1.5725  3.0261
  143MOL0     H19261   7.435   6.436   1.220  0.3595  2.4248  2.5419
  143MOL0     H19262   7.394   6.290   1.282  4.0699  1.7994 -3.1859
  143MOL0     H19263   7.367   6.549   1.443  0.2264  0.4619 -0.0584
  143MOL0     H19264   7.462   6.403   1.466  0.2768  0.6326 -1.6946
  143MOL0     H19265   7.452   6.505   1.671 -0.1268 -0.5209  0.0465
  143MOL0     H19266   7.448   6.509   1.906 -0.6668 -1.9333  3.7598
  143MOL0     H19267   7.224   6.226   2.374 -1.3794 -0.0967 -2.4885
  143MOL0     H19268   7.234   6.302   2.601 -1.3419 -2.4311 -0.5612
  143MOL0     H19269   7.043   6.733   2.690  0.8966 -0.5314 -0.6277
  143MOL0     H19270   6.944   6.584   2.678 -0.0415  0.3627  0.2632
  143MOL0     H19271   7.009   6.501   2.886  1.7774  0.2996  3.4958
  143MOL0     H19272   7.110   6.637   2.925  0.5083  0.2506 -0.2571
  143MOL0     H19273   6.890   6.636   3.043 -0.4335  0.1644  0.1693
  143MOL0     H19274   6.917   6.783   2.961 -2.4224  0.5524 -0.8965
  143MOL0     H19275   6.751   6.552   2.853 -2.3494  0.3210 -1.2848
  143MOL0     H19276   6.776   6.710   2.775  0.2593  0.1983  0.4479
  143MOL0     H19277   6.689   6.792   3.028 -0.4089  2.1946 -0.8607
  143MOL0     H19278   6.605   6.633   3.000  0.6859  1.4483  1.0261
  143MOL0     H19279   6.585   6.886   2.838 -1.6544 -0.2558 -1.3127
  143MOL0     H19280   6.537   6.726   2.782  1.9238 -0.9018  0.0597
  143MOL0     H19281   6.382   6.693   2.987 -0.5364 -1.3562 -2.3721
  143MOL0     H19282   6.341   6.810   2.854 -0.6885  1.2561 -0.6012
  143MOL0     H19283   6.461   6.878   3.130  1.6050  0.3104 -1.0223
  143MOL0     H19284   6.438   6.990   3.006 -0.1727 -1.3386 -0.7470
  143MOL0     H19285   7.072   6.682   2.463 -0.1147  0.4456 -0.4042
  143MOL0     H19286   7.070   6.601   2.236 -2.7631  0.7748  2.2489
  143MOL0     H19287   7.074   6.288   1.908 -0.1649  3.1444  1.6443
  143MOL0     H19288   7.073   6.308   1.639  1.9246 -1.5594 -1.8747
  143MOL0     H19289   6.725   5.831   1.577  2.2006 -0.1957  0.0106
  143MOL0     H19290   6.924   5.752   1.506  0.6804 -1.2290 -0.8825
  143MOL0     H19291   7.055   5.463   1.120 -2.3550  1.3340  4.0009
  143MOL0     H19292   7.190   5.282   1.017  0.7430  1.3362 -1.6863
  143MOL0     H19293   7.377   5.228   0.897  0.5641  0.3016 -0.5882
  143MOL0     H19294   7.299   5.107   1.005  1.1430 -1.1442  2.1953
  143MOL0     H19295   7.531   4.983   1.004  3.2187  2.2521  0.8556
  143MOL0     H19296   7.572   5.084   0.858 -1.7618  3.0079 -0.6354
  143MOL0     H19297   7.322   4.896   0.876  0.0760 -1.6956 -1.0239
  143MOL0     H19298   7.472   4.832   0.828 -0.6397 -0.7364 -2.1848
  143MOL0     H19299   7.306   5.041   0.675 -1.7636 -4.4723 -2.8367
  143MOL0     H19300   7.484   5.047   0.655 -0.5379 -0.8203 -3.0160
  143MOL0     H19301   7.327   4.707   0.450 -0.1597  0.2879 -0.7870
  143MOL0     H19302   7.521   5.386   1.248  0.0512 -0.2449 -0.6293
  143MOL0     H19303   7.489   5.509   1.436 -1.3165 -1.1404 -0.8593
  143MOL0     H19304   7.410   5.666   1.424  1.8290  0.6413 -1.1254
  143MOL0     H19305   7.332   5.557   1.525  0.3032 -2.3859  1.3538
  144MOL0     O19306   4.208   3.334   4.897 -0.4356 -0.2316 -1.2142
  144MOL0     C19307   4.097   3.328   4.838  0.2971  1.0035 -0.1653
  144MOL0     O19308   4.085   3.333   4.704  0.2388  0.6665  0.6299
  144MOL0     C19309   4.195   3.311   4.627  0.3507  0.1538 -0.3901
  144MOL0     C19310   4.290   3.206   4.649  0.4148 -0.5473 -1.0685
  144MOL0     C19311   4.404   3.195   4.565  0.8374 -0.2008 -0.3601
  144MOL0     C19312   4.419   3.286   4.459 -0.5231  1.0749  0.8471
  144MOL0     O19313   4.527   3.272   4.373  0.4055 -0.6906 -0.3211
  144MOL0     C19314   4.627   3.169   4.370 -0.3419  0.2854  0.2107
  144MOL0     C19315   4.746   3.213   4.290 -0.2724  0.9758 -0.7852
  144MOL0     C19316   4.858   3.101   4.299  0.4770 -1.1546 -0.2596
  144MOL0     C19317   4.816   2.977   4.239  0.9055  0.2001  0.0822
  144MOL0     C19318   4.945   2.886   4.235 -0.4913 -0.9397  0.0403
  144MOL0     C19319   5.029   2.918   4.109  0.3607 -0.0608  0.0090
  144MOL0     C19320   5.150   2.829   4.102 -0.9805  0.4102 -0.8787
  144MOL0     C19321   5.113   2.697   4.033  0.7635  0.3933 -0.3475
  144MOL0     N19322   5.057   2.588   4.117  0.3730  0.5026  0.1067
  144MOL0     C19323   4.985   2.487   4.059  1.0249  0.2092  0.5011
  144MOL0     C19324   4.978   2.392   4.154  0.0843  0.4303 -0.8189
  144MOL0     C19325   4.903   2.261   4.122 -0.2043 -0.1276 -0.2472
  144MOL0     C19326   4.991   2.132   4.101  0.4693 -0.6057  0.1910
  144MOL0     C19327   5.074   2.135   3.981 -0.2775  0.7235  0.3490
  144MOL0     C19328   5.117   1.996   3.931  0.4398  1.0254 -0.2389
  144MOL0     O19329   5.200   2.023   3.825  0.7479  0.3390  0.3322
  144MOL0     C19330   5.244   1.914   3.754 -0.1464 -0.2554 -0.6509
  144MOL0     C19331   5.344   1.932   3.661 -0.2715 -0.5738  0.1606
  144MOL0     C19332   5.393   1.831   3.586  0.1613  0.4638  0.0144
  144MOL0     C19333   5.361   1.691   3.606 -0.2180 -0.3555 -0.0462
  144MOL0     C19334   5.425   1.578   3.529 -0.0585  0.5642 -0.1732
  144MOL0     O19335   5.501   1.613   3.420 -0.2473  0.0431 -1.1874
  144MOL0     C19336   5.578   1.520   3.356  0.1289  0.1627  0.7893
  144MOL0     C19337   5.585   1.535   3.216  0.6363 -0.6337 -0.2676
  144MOL0     C19338   5.666   1.458   3.143 -0.2497 -0.5221 -0.1027
  144MOL0     C19339   5.758   1.369   3.197 -0.0691 -0.1512 -0.3387
  144MOL0     O19340   5.839   1.295   3.107 -0.4553  0.1235 -0.6796
  144MOL0     C19341   5.858   1.154   3.125  0.8923  0.5033 -0.2362
  144MOL0     C19342   6.006   1.128   3.175  0.7476 -0.3819 -0.1780
  144MOL0     C19343   6.120   1.154   3.074 -0.0526 -0.0368 -0.5406
  144MOL0     C19344   6.123   1.022   2.978 -0.1467 -0.4882  0.0142
  144MOL0     C19345   6.238   1.033   2.885  0.5527 -0.7784  0.2334
  144MOL0     C19346   6.244   0.911   2.799  0.8256  0.0132 -0.1351
  144MOL0     C19347   6.377   0.914   2.724  0.2557  1.2375 -0.1668
  144MOL0     C19348   6.393   0.780   2.642 -0.0317  0.3330  0.1119
  144MOL0    Cl19349   6.284   0.772   2.499  0.1889 -0.1586  0.5736
  144MOL0     C19350   5.757   1.346   3.336 -0.6094 -0.5835  0.3869
  144MOL0     C19351   5.665   1.427   3.416  0.6886 -0.2764 -0.9628
  144MOL0     O19352   5.398   1.465   3.561  0.0252  0.2959  0.0183
  144MOL0     C19353   5.262   1.669   3.709 -0.0470  0.5947 -1.0027
  144MOL0     C19354   5.214   1.777   3.776 -0.0832 -0.5272  0.1403
  144MOL0     N19355   5.061   2.418   4.265 -0.0961 -1.0084  0.0253
  144MOL0     N19356   5.118   2.537   4.234 -0.8502  0.6256 -0.5780
  144MOL0     C19357   4.318   3.377   4.431 -1.4221  0.0542 -0.5501
  144MOL0     C19358   4.210   3.392   4.513  0.0505 -0.2123 -0.7834
  144MOL0     C19359   3.980   3.301   4.921 -0.4390  0.1312 -0.0699
  144MOL0     C19360   3.897   3.196   4.888  0.7231  0.8281 -0.8174
  144MOL0     C19361   3.781   3.166   4.962  0.0776  0.2803  0.2833
  144MOL0     C19362   3.734   3.247   5.059 -0.0918 -0.6281 -0.0434
  144MOL0     O19363   3.621   3.216   5.139 -0.4739  0.1820  0.0227
  144MOL0     C19364   3.529   3.121   5.080  0.3027 -0.2600 -0.4357
  144MOL0     C19365   3.447   3.173   4.958 -0.5206 -0.1693 -0.3608
  144MOL0     C19366   3.344   3.074   4.921  0.0685  0.1934 -0.7091
  144MOL0     C19367   3.388   2.983   4.810  0.0099  0.2537  0.1408
  144MOL0     C19368   3.305   2.859   4.823 -0.0242  0.1015  0.2866
  144MOL0     C19369   3.250   2.754   4.836  0.0289 -0.4373  0.1729
  144MOL0     C19370   3.828   3.338   5.109  0.1564  0.7177 -0.1481
  144MOL0     C19371   3.944   3.371   5.037 -0.0461 -0.6527  0.0972
  144MOL0     C19372   4.009   3.506   5.064 -0.7630  0.5676 -0.1025
  144MOL0     H19373   4.276   3.145   4.738 -4.9426  1.7714  0.0829
  144MOL0     H19374   4.474   3.116   4.589  0.9592 -0.1452 -0.5295
  144MOL0     H19375   4.666   3.143   4.469  1.2748  2.0915  0.0886
  144MOL0     H19376   4.583   3.079   4.326  2.4502 -1.8499  1.4299
  144MOL0     H19377   4.789   3.305   4.331  2.1393 -0.2556 -0.3669
  144MOL0     H19378   4.715   3.237   4.187 -3.1962 -0.5532 -0.3605
  144MOL0     H19379   4.892   3.086   4.402 -0.8427  0.6301  0.4962
  144MOL0     H19380   4.951   3.129   4.249  1.5066 -3.5851  0.1411
  144MOL0     H19381   4.737   2.931   4.300  3.4935 -2.1865  1.9459
  144MOL0     H19382   4.781   2.982   4.136 -0.7544 -1.0329  0.5346
  144MOL0     H19383   5.005   2.901   4.325 -0.0083  1.5577 -0.6090
  144MOL0     H19384   4.912   2.782   4.229  0.4156 -1.1594 -1.7687
  144MOL0     H19385   4.973   2.911   4.015  1.3542  1.8839 -0.7720
  144MOL0     H19386   5.062   3.022   4.118 -1.1908  0.5624 -1.1105
  144MOL0     H19387   5.193   2.816   4.202 -3.2359 -0.9197 -0.0048
  144MOL0     H19388   5.224   2.886   4.044 -1.7493  2.2017 -0.1741
  144MOL0     H19389   5.037   2.724   3.960  2.1244  1.8994 -1.2897
  144MOL0     H19390   5.202   2.659   3.981  1.4461  2.1824 -0.5497
  144MOL0     H19391   4.928   2.494   3.966  2.4988  0.0259 -0.4486
  144MOL0     H19392   4.828   2.246   4.201  0.4157 -1.0251  0.1887
  144MOL0     H19393   4.850   2.290   4.032 -2.2815 -0.7744  0.7097
  144MOL0     H19394   5.055   2.104   4.185  0.5683 -1.7722 -0.2474
  144MOL0     H19395   4.920   2.049   4.102  1.0876 -1.1498  1.5099
  144MOL0     H19396   5.157   2.192   4.023 -1.8035  1.7460  2.1250
  144MOL0     H19397   5.019   2.188   3.903  0.5601  1.5811  0.3244
  144MOL0     H19398   5.021   1.948   3.910 -0.2289  1.3114  1.9379
  144MOL0     H19399   5.163   1.940   4.012  0.4980 -1.8066 -2.0901
  144MOL0     H19400   5.386   2.032   3.661 -0.5520 -0.4433  0.9503
  144MOL0     H19401   5.460   1.845   3.501  0.0324  2.3085  0.1779
  144MOL0     H19402   5.518   1.613   3.180 -0.6093 -1.3443  0.4620
  144MOL0     H19403   5.660   1.472   3.035  1.9738  2.1645  0.0263
  144MOL0     H19404   5.790   1.113   3.200  2.6257  0.4149  1.3491
  144MOL0     H19405   5.845   1.098   3.032 -0.7966 -2.0850  1.4098
  144MOL0     H19406   6.026   1.200   3.255  3.0782  0.7368 -1.6720
  144MOL0     H19407   6.018   1.024   3.207  2.0581 -0.1399  0.1676
  144MOL0     H19408   6.106   1.246   3.017  3.6958  1.0907  0.1101
  144MOL0     H19409   6.207   1.163   3.140 -1.3319  3.3125  0.8894
  144MOL0     H19410   6.033   1.024   2.916 -0.8393 -0.0691  0.9877
  144MOL0     H19411   6.128   0.933   3.042  0.8595 -0.7754 -0.4467
  144MOL0     H19412   6.328   1.042   2.946  0.3410 -0.5333  0.5136
  144MOL0     H19413   6.236   1.125   2.826  1.9580 -1.8364 -1.5758
  144MOL0     H19414   6.234   0.827   2.868 -2.3390  0.8405  0.6157
  144MOL0     H19415   6.164   0.905   2.724  0.2499 -0.6842  0.5081
  144MOL0     H19416   6.456   0.919   2.800 -1.1548 -0.8084  1.5601
  144MOL0     H19417   6.412   0.990   2.653  1.1524 -0.2641 -1.4099
  144MOL0     H19418   6.492   0.766   2.599 -0.4557 -4.3612  0.1417
  144MOL0     H19419   6.362   0.698   2.708 -1.2732  2.5572  2.5031
  144MOL0     H19420   5.830   1.278   3.379  1.9989  1.6546 -0.2130
  144MOL0     H19421   5.659   1.411   3.523 -1.6064  0.3176 -0.9640
  144MOL0     H19422   5.252   1.569   3.751  4.0301  1.2118  2.2157
  144MOL0     H19423   5.160   1.747   3.865 -0.9328  0.6086  0.0263
  144MOL0     H19424   4.329   3.437   4.341 -2.7373  0.8726 -0.1936
  144MOL0     H19425   4.129   3.461   4.491 -0.6307 -1.1881 -1.4057
  144MOL0     H19426   3.919   3.117   4.816 -0.9895 -1.3479  0.8917
  144MOL0     H19427   3.719   3.081   4.934 -1.8236  0.5750  3.2036
  144MOL0     H19428   3.444   3.102   5.146 -0.4630 -3.2936 -2.0818
  144MOL0     H19429   3.577   3.023   5.072 -2.4977 -1.8132  0.4978
  144MOL0     H19430   3.519   3.193   4.878 -1.3326 -1.3237 -1.4295
  144MOL0     H19431   3.396   3.265   4.988  1.5170  1.6177 -2.0433
  144MOL0     H19432   3.261   3.140   4.892 -0.9664 -1.0799 -0.7688
  144MOL0     H19433   3.307   3.015   5.006  0.0605  0.1841 -0.7189
  144MOL0     H19434   3.370   3.046   4.722  0.5857 -1.1162 -0.9965
  144MOL0     H19435   3.492   2.950   4.817  0.1128  0.8286  2.1839
  144MOL0     H19436   3.201   2.660   4.846  1.3797 -1.3030 -0.9269
  144MOL0     H19437   3.805   3.392   5.200 -0.5809  0.1034  0.0347
  144MOL0     H19438   3.929   3.579   5.080 -0.1235  1.4720 -0.8823
  144MOL0     H19439   4.062   3.500   5.159  2.6720 -0.6585 -1.9397
  144MOL0     H19440   4.075   3.537   4.983  3.4500 -0.7542  2.4957
  145MOL0     O19441   3.924   8.259   7.536 -0.5651 -0.1615 -0.4127
  145MOL0     C19442   3.829   8.194   7.494 -0.4333  0.2434 -0.7561
  145MOL0     O19443   3.847   8.078   7.426  0.1578 -0.3514  0.5754
  145MOL0     C19444   3.978   8.040   7.379 -0.4410 -0.5418 -0.4783
  145MOL0     C19445   4.061   8.128   7.303 -0.1587  0.5079  0.6546
  145MOL0     C19446   4.183   8.096   7.260  0.4477 -0.5876 -0.2717
  145MOL0     C19447   4.232   7.961   7.282  0.2349  0.2418 -0.0296
  145MOL0     O19448   4.360   7.930   7.252 -0.3042  0.4962  0.3893
  145MOL0     C19449   4.460   8.024   7.205 -0.4938 -0.3052 -0.2883
  145MOL0     C19450   4.525   8.088   7.335  0.1693  0.9916 -0.5762
  145MOL0     C19451   4.646   8.012   7.376 -0.1222  0.1606  0.6876
  145MOL0     C19452   4.764   8.015   7.273  0.6877 -0.0214 -0.8104
  145MOL0     C19453   4.889   7.956   7.327  0.3850  0.2559  0.2255
  145MOL0     C19454   4.956   8.059   7.413 -0.0834 -0.4708  0.5163
  145MOL0     C19455   5.090   8.005   7.469  0.5082  1.0586  0.4307
  145MOL0     C19456   5.170   8.114   7.550 -0.1186  0.0055  0.7447
  145MOL0     N19457   5.305   8.068   7.586 -0.2901  0.0059  0.6361
  145MOL0     C19458   5.350   7.981   7.685  0.5472  0.2008  0.2408
  145MOL0     C19459   5.486   7.989   7.689 -0.5128  0.3294  0.5371
  145MOL0     C19460   5.573   7.920   7.789 -0.0958  0.3586  0.0113
  145MOL0     C19461   5.623   8.004   7.905 -0.0115  0.3799 -0.3941
  145MOL0     C19462   5.737   7.936   7.983  0.3674 -0.3882 -0.8085
  145MOL0     C19463   5.800   8.031   8.098 -0.1771 -0.1215  0.0332
  145MOL0     O19464   5.726   8.001   8.212  0.1078  0.8528  0.5482
  145MOL0     C19465   5.794   8.023   8.331 -0.5071  0.0283 -0.2290
  145MOL0     C19466   5.873   8.137   8.352  0.0113  0.1702 -0.7013
  145MOL0     C19467   5.926   8.159   8.481 -0.4896 -0.5242 -0.0454
  145MOL0     C19468   5.915   8.068   8.586 -0.9343 -0.3506  0.2850
  145MOL0     C19469   5.967   8.093   8.723 -0.1723 -0.6098  0.3637
  145MOL0     O19470   6.002   8.218   8.753  0.5195 -0.6027 -0.1284
  145MOL0     C19471   6.028   8.241   8.879  0.0086  0.2343  0.2677
  145MOL0     C19472   5.921   8.268   8.964 -0.6160 -0.5217  1.1804
  145MOL0     C19473   5.947   8.302   9.096 -0.8747  0.9749  0.2759
  145MOL0     C19474   6.084   8.314   9.147  0.2419 -0.7285 -0.9790
  145MOL0     O19475   6.111   8.362   9.285  0.3346 -0.2821  0.0531
  145MOL0     C19476   6.239   8.332   9.334 -0.9820 -0.0771  0.6658
  145MOL0     C19477   6.235   8.348   9.487  0.4676 -0.0147 -0.1274
  145MOL0     C19478   6.365   8.325   9.554 -0.2926 -0.3941  0.0100
  145MOL0     C19479   6.349   8.315   9.702 -0.1116  0.5331 -0.1308
  145MOL0     C19480   6.456   8.235   9.771 -0.7610  0.4960 -0.3036
  145MOL0     C19481   6.450   8.246   9.918  0.6906  0.7596 -0.3249
  145MOL0     C19482   6.324   8.178   9.982 -0.5118  0.5323 -0.4091
  145MOL0     C19483   6.234   8.274  10.053  0.2942 -0.3871  0.1479
  145MOL0    Cl19484   6.300   8.351  10.202 -0.2400 -0.2021  0.0868
  145MOL0     C19485   6.187   8.272   9.058  0.5379 -0.2138  0.8778
  145MOL0     C19486   6.161   8.235   8.924  0.0197  0.3343  0.0918
  145MOL0     O19487   5.947   8.004   8.804  0.5577 -0.7196 -0.4083
  145MOL0     C19488   5.836   7.953   8.558 -0.1504 -0.2213  0.6486
  145MOL0     C19489   5.774   7.936   8.436 -0.4434  0.0187 -0.5736
  145MOL0     N19490   5.521   8.077   7.582  0.3577  0.5586  0.2040
  145MOL0     N19491   5.412   8.122   7.530  0.0964  0.1574 -0.4872
  145MOL0     C19492   4.146   7.869   7.344  0.3962 -0.1698  0.0401
  145MOL0     C19493   4.016   7.906   7.388 -0.3366  0.4093 -0.0810
  145MOL0     C19494   3.691   8.234   7.535 -0.9936 -0.0008  0.5581
  145MOL0     C19495   3.587   8.183   7.452  0.7279 -0.8273 -0.8621
  145MOL0     C19496   3.454   8.194   7.491  0.2066  0.6807  0.4369
  145MOL0     C19497   3.417   8.256   7.608 -0.2227  0.3135 -0.4947
  145MOL0     O19498   3.287   8.265   7.636  0.6470 -0.2430  0.2390
  145MOL0     C19499   3.239   8.396   7.586  0.0551 -0.1460  0.5680
  145MOL0     C19500   3.122   8.453   7.674 -0.1828  1.0119  0.3062
  145MOL0     C19501   3.100   8.603   7.660 -0.1363 -0.3917  0.8758
  145MOL0     C19502   2.992   8.633   7.762 -0.1364  0.0097 -0.3649
  145MOL0     C19503   2.987   8.771   7.785 -0.2133 -0.5108  0.1281
  145MOL0     C19504   2.982   8.891   7.817  1.2458  0.4264  0.0540
  145MOL0     C19505   3.518   8.309   7.697 -0.6207  0.0848  0.2013
  145MOL0     C19506   3.653   8.293   7.656  0.2854 -0.3688 -1.3665
  145MOL0     C19507   3.760   8.324   7.755  0.5168  0.5435  0.1386
  145MOL0     H19508   4.029   8.232   7.298 -0.8919  0.3831  2.2180
  145MOL0     H19509   4.239   8.172   7.206 -0.9009  0.2876 -0.4797
  145MOL0     H19510   4.526   7.964   7.142  1.5835 -0.9558  2.3056
  145MOL0     H19511   4.421   8.107   7.145 -0.5636  1.0430  1.5221
  145MOL0     H19512   4.453   8.082   7.417  0.8569  2.5465  0.1822
  145MOL0     H19513   4.544   8.193   7.311 -2.1779  1.6802  0.3823
  145MOL0     H19514   4.621   7.908   7.398  1.5666 -0.6538 -0.9735
  145MOL0     H19515   4.686   8.059   7.466  1.3995  3.8648 -1.6708
  145MOL0     H19516   4.728   7.953   7.190 -1.7139 -0.4512  0.4445
  145MOL0     H19517   4.775   8.114   7.229  2.4265  0.3491  0.3705
  145MOL0     H19518   4.863   7.867   7.385  0.1662  0.9648  1.2241
  145MOL0     H19519   4.958   7.930   7.245  0.8066 -0.1309  0.6962
  145MOL0     H19520   4.988   8.139   7.345 -0.5316 -1.8245 -1.3725
  145MOL0     H19521   4.883   8.076   7.492  0.3861 -4.5758  2.0531
  145MOL0     H19522   5.147   7.974   7.381 -0.5407  2.7825 -0.9265
  145MOL0     H19523   5.068   7.918   7.531 -0.4660 -0.0529 -1.3696
  145MOL0     H19524   5.170   8.201   7.485  0.0773  1.2730  2.3847
  145MOL0     H19525   5.105   8.149   7.631 -2.3125 -2.1155  0.0473
  145MOL0     H19526   5.283   7.935   7.757 -1.5260  2.1330 -0.3531
  145MOL0     H19527   5.527   7.829   7.828  4.2034 -1.7068  0.7410
  145MOL0     H19528   5.653   7.885   7.723 -1.3702  1.5768 -2.3321
  145MOL0     H19529   5.662   8.095   7.857  1.1121 -0.5814 -1.3449
  145MOL0     H19530   5.536   8.027   7.969  0.9245  1.0703  0.6645
  145MOL0     H19531   5.817   7.908   7.913 -0.0427 -1.4335 -0.8819
  145MOL0     H19532   5.705   7.845   8.036  1.8384 -1.7746 -2.1744
  145MOL0     H19533   5.777   8.136   8.081  1.6682  0.8479  2.8124
  145MOL0     H19534   5.905   8.008   8.120 -0.8781 -1.0012  2.7754
  145MOL0     H19535   5.883   8.214   8.276 -0.3027  3.0101  1.9487
  145MOL0     H19536   5.981   8.250   8.505 -0.8838  0.1400 -1.5175
  145MOL0     H19537   5.821   8.266   8.920 -0.9755 -0.6966  1.9896
  145MOL0     H19538   5.874   8.342   9.166  2.5048  2.2693  3.3830
  145MOL0     H19539   6.265   8.226   9.320 -0.2727  0.2474 -0.5784
  145MOL0     H19540   6.320   8.392   9.291 -1.5260 -0.5057 -1.0441
  145MOL0     H19541   6.203   8.450   9.508  1.5663  0.2306  0.4418
  145MOL0     H19542   6.151   8.288   9.524  0.5513 -0.3193 -0.4278
  145MOL0     H19543   6.400   8.229   9.514  0.6275 -0.0578 -0.0127
  145MOL0     H19544   6.429   8.411   9.533  0.3893 -0.7390  0.6229
  145MOL0     H19545   6.258   8.261   9.731 -0.0431 -0.2851 -1.3700
  145MOL0     H19546   6.342   8.414   9.748 -0.5013  0.1184  0.7338
  145MOL0     H19547   6.556   8.272   9.747 -0.5261 -0.0699 -0.2346
  145MOL0     H19548   6.443   8.129   9.747 -0.5355  0.5677 -0.7586
  145MOL0     H19549   6.536   8.201   9.969  0.7257  2.9834  1.8119
  145MOL0     H19550   6.449   8.351   9.950  3.1981 -0.3286  4.4445
  145MOL0     H19551   6.373   8.102  10.044 -1.0529  0.4222 -0.1166
  145MOL0     H19552   6.255   8.131   9.911 -1.3180 -2.2181  2.0022
  145MOL0     H19553   6.191   8.349   9.986  0.6325  0.0530  0.4158
  145MOL0     H19554   6.150   8.215  10.091  1.5150 -1.6104  1.0587
  145MOL0     H19555   6.285   8.303   9.094 -0.0750  3.8756 -0.4765
  145MOL0     H19556   6.239   8.203   8.856 -0.1594 -3.1242  1.3058
  145MOL0     H19557   5.824   7.872   8.629 -1.8909 -0.3323  0.2793
  145MOL0     H19558   5.709   7.850   8.434 -0.2548 -0.3074  2.3827
  145MOL0     H19559   4.172   7.765   7.363 -0.5134 -1.2659 -3.8416
  145MOL0     H19560   3.942   7.842   7.434 -1.7323  0.7808 -1.6951
  145MOL0     H19561   3.607   8.123   7.364  1.0612  0.2329 -1.5119
  145MOL0     H19562   3.388   8.134   7.429  1.3330 -0.8999  0.7096
  145MOL0     H19563   3.213   8.386   7.480  3.0185 -1.9246 -0.0968
  145MOL0     H19564   3.324   8.465   7.592 -0.2188  0.3813 -1.1382
  145MOL0     H19565   3.140   8.431   7.779 -0.4947  0.7386  0.3035
  145MOL0     H19566   3.029   8.398   7.657 -1.7718  3.3709  0.8916
  145MOL0     H19567   3.053   8.625   7.564 -0.0462 -2.8100  0.2274
  145MOL0     H19568   3.189   8.668   7.663  0.4480 -1.1068 -0.3426
  145MOL0     H19569   2.896   8.585   7.741  0.8755 -1.3484 -2.1327
  145MOL0     H19570   3.011   8.576   7.853 -0.1741 -3.0304 -2.1202
  145MOL0     H19571   2.962   8.994   7.840 -6.6285 -0.4426 -0.2369
  145MOL0     H19572   3.493   8.362   7.788  3.3065 -1.6851  2.5784
  145MOL0     H19573   3.804   8.226   7.773  0.5491  0.1229 -2.0326
  145MOL0     H19574   3.821   8.401   7.706  1.5498 -0.3623 -0.0305
  145MOL0     H19575   3.727   8.367   7.850  2.6644  1.0451  0.7232
  146MOL0     O19576   0.444   9.570   4.584 -0.4558  0.5638 -0.1034
  146MOL0     C19577   0.414   9.688   4.602  0.0786 -0.5453  0.6274
  146MOL0     O19578   0.492   9.795   4.592  0.0810  0.1956 -0.2381
  146MOL0     C19579   0.622   9.784   4.558  0.4639 -0.3274  0.5458
  146MOL0     C19580   0.672   9.718   4.450 -0.0362  0.7947  0.0590
  146MOL0     C19581   0.799   9.728   4.402  0.0537 -1.1023  0.0429
  146MOL0     C19582   0.890   9.808   4.475  0.6125 -0.0028 -0.5580
  146MOL0     O19583   1.019   9.830   4.444 -0.3663  0.0324  0.2598
  146MOL0     C19584   1.085   9.734   4.361  0.7743  0.5319 -0.0090
  146MOL0     C19585   1.228   9.775   4.350 -0.2974  0.7228 -0.8989
  146MOL0     C19586   1.254   9.855   4.227  0.5289 -0.1864  0.3015
  146MOL0     C19587   1.399   9.875   4.193 -0.2803  0.4528 -0.7465
  146MOL0     C19588   1.428   9.924   4.050 -0.3034  0.1183 -0.2191
  146MOL0     C19589   1.362   9.840   3.931  0.9830  0.3152  0.3352
  146MOL0     C19590   1.386   9.691   3.944  0.5087 -0.2277 -0.5262
  146MOL0     C19591   1.346   9.616   3.817 -0.0560  0.7391  0.0086
  146MOL0     N19592   1.421   9.657   3.695 -0.6542 -0.2378 -0.8649
  146MOL0     C19593   1.387   9.621   3.561  0.4262  0.5087 -1.5141
  146MOL0     C19594   1.493   9.664   3.488  1.1791 -0.0862  0.4919
  146MOL0     C19595   1.509   9.641   3.336  0.3182  0.5409 -0.0204
  146MOL0     C19596   1.533   9.497   3.306 -0.5257 -0.7218 -0.0023
  146MOL0     C19597   1.475   9.477   3.163  0.9819  0.1250  0.4056
  146MOL0     C19598   1.516   9.335   3.126  0.6018 -0.7105  0.2782
  146MOL0     O19599   1.539   9.338   2.981 -1.0136  0.3159 -0.3663
  146MOL0     C19600   1.440   9.338   2.896  0.5095 -0.6432 -0.4254
  146MOL0     C19601   1.467   9.355   2.766  0.0725  0.0907 -1.1677
  146MOL0     C19602   1.368   9.363   2.668 -0.5441 -0.1890  0.2785
  146MOL0     C19603   1.231   9.351   2.693 -0.2393 -0.3486 -0.8104
  146MOL0     C19604   1.127   9.357   2.588 -0.5502 -0.9599 -0.8200
  146MOL0     O19605   1.177   9.392   2.469  0.2607  0.4056 -0.5065
  146MOL0     C19606   1.104   9.391   2.353  0.5818  0.8045 -0.7347
  146MOL0     C19607   0.987   9.465   2.342 -0.9549  0.3679 -0.6132
  146MOL0     C19608   0.919   9.456   2.222 -0.1896 -0.1645  0.1005
  146MOL0     C19609   0.970   9.399   2.102  0.1070  0.8482 -1.1483
  146MOL0     O19610   0.897   9.397   1.988  0.0628 -0.1330  0.1643
  146MOL0     C19611   0.784   9.483   1.955  0.1109 -0.4112  0.1568
  146MOL0     C19612   0.684   9.412   1.862 -0.1006 -0.6181 -0.0360
  146MOL0     C19613   0.570   9.502   1.815  0.0224 -0.4664 -0.4143
  146MOL0     C19614   0.447   9.424   1.760 -0.1721 -0.2295 -0.2763
  146MOL0     C19615   0.344   9.510   1.702 -0.1736 -1.0523 -0.6329
  146MOL0     C19616   0.385   9.591   1.576 -0.0575  0.1792 -0.1395
  146MOL0     C19617   0.259   9.652   1.527  0.1553 -0.0274 -0.4467
  146MOL0     C19618   0.301   9.762   1.425  0.8284  0.3193  0.7533
  146MOL0    Cl19619   0.194   9.900   1.435  0.4791  0.4340  0.1286
  146MOL0     C19620   1.089   9.332   2.115  0.8644  0.7816  0.2231
  146MOL0     C19621   1.152   9.320   2.236 -0.4333  0.1016 -0.3801
  146MOL0     O19622   1.016   9.319   2.611  0.3957 -0.0650 -0.3595
  146MOL0     C19623   1.196   9.332   2.829 -0.0555 -0.0846  1.5118
  146MOL0     C19624   1.302   9.313   2.923 -1.1989 -0.0091  0.1213
  146MOL0     N19625   1.583   9.724   3.573  0.2395 -0.5381 -0.1535
  146MOL0     N19626   1.545   9.714   3.695  0.5963 -0.3144  0.1206
  146MOL0     C19627   0.841   9.868   4.592  0.0409  0.8556  0.1932
  146MOL0     C19628   0.707   9.866   4.629  0.0051 -0.0768 -0.8945
  146MOL0     C19629   0.271   9.731   4.623  0.5596 -0.5570  1.6271
  146MOL0     C19630   0.244   9.843   4.695 -0.3648  0.2126 -0.1080
  146MOL0     C19631   0.115   9.887   4.714 -0.0634  0.4339  0.2702
  146MOL0     C19632   0.008   9.819   4.672 -0.7633 -0.3967  0.5101
  146MOL0     O19633  -0.115   9.862   4.711 -0.6218  1.1643  0.7064
  146MOL0     C19634  -0.222   9.848   4.617  1.3307 -0.1154  0.2353
  146MOL0     C19635  -0.339   9.776   4.689  0.1700  0.1781 -0.2538
  146MOL0     C19636  -0.299   9.644   4.746 -0.6113  0.1428 -0.5032
  146MOL0     C19637  -0.414   9.567   4.822 -0.0015 -0.5336 -0.7769
  146MOL0     C19638  -0.474   9.647   4.936  0.2898  0.9766 -0.7918
  146MOL0     C19639  -0.547   9.718   5.001  0.1022  0.2369 -0.4688
  146MOL0     C19640   0.034   9.706   4.604 -0.3677 -0.0733  0.0443
  146MOL0     C19641   0.156   9.670   4.564 -0.1918  0.4837  0.1897
  146MOL0     C19642   0.161   9.569   4.456  0.0569  0.2602  0.1724
  146MOL0     H19643   0.601   9.662   4.389  1.1516  1.5874 -2.1698
  146MOL0     H19644   0.824   9.670   4.314  0.1182 -0.8599 -0.0968
  146MOL0     H19645   1.070   9.632   4.395 -3.0553  0.7154 -0.6912
  146MOL0     H19646   1.035   9.752   4.265 -0.9405 -0.0903  0.7356
  146MOL0     H19647   1.293   9.687   4.353 -1.8777 -0.4510  1.1372
  146MOL0     H19648   1.252   9.834   4.439 -1.0692  0.1931 -0.3333
  146MOL0     H19649   1.203   9.952   4.236 -1.9844 -1.3338 -0.6870
  146MOL0     H19650   1.210   9.792   4.150  2.3215 -2.6301  1.1668
  146MOL0     H19651   1.447   9.952   4.254  1.8946  1.7581 -3.8596
  146MOL0     H19652   1.448   9.789   4.239  0.1955  1.8251  1.4241
  146MOL0     H19653   1.380  10.021   4.038  0.2422  0.4815  0.5414
  146MOL0     H19654   1.537   9.922   4.037 -0.5126 -2.4790 -2.5776
  146MOL0     H19655   1.253   9.854   3.933  0.6893 -1.6947  1.0730
  146MOL0     H19656   1.396   9.880   3.835  1.1583 -2.7436 -0.9752
  146MOL0     H19657   1.327   9.635   4.017  1.0356 -2.9510 -2.0172
  146MOL0     H19658   1.490   9.670   3.970 -0.4558 -1.8791  2.4340
  146MOL0     H19659   1.375   9.511   3.824  2.0229  1.1943 -1.1530
  146MOL0     H19660   1.238   9.625   3.803 -0.1791  1.7763  1.3938
  146MOL0     H19661   1.314   9.552   3.519  2.7987 -3.1231 -0.1780
  146MOL0     H19662   1.411   9.650   3.289  0.5713  0.1473 -0.6470
  146MOL0     H19663   1.583   9.705   3.287 -0.8085  0.0191 -2.5817
  146MOL0     H19664   1.640   9.476   3.317  0.5287  2.4234 -2.5648
  146MOL0     H19665   1.477   9.420   3.359  3.6923 -2.3506  2.5939
  146MOL0     H19666   1.522   9.541   3.088  0.9638 -0.1521  0.1559
  146MOL0     H19667   1.366   9.481   3.165  0.7076 -2.3202 -2.3634
  146MOL0     H19668   1.447   9.261   3.168 -1.0311 -0.3898 -1.7060
  146MOL0     H19669   1.619   9.317   3.160  1.1123 -2.5324 -1.9850
  146MOL0     H19670   1.572   9.377   2.746  0.3284  0.1581  0.1764
  146MOL0     H19671   1.405   9.384   2.569 -0.0040 -0.2577  0.4647
  146MOL0     H19672   0.939   9.526   2.418  0.1853 -0.8496  1.1398
  146MOL0     H19673   0.831   9.520   2.217 -0.6870 -0.8813 -3.8260
  146MOL0     H19674   0.736   9.530   2.042 -0.7399  0.5947 -0.8193
  146MOL0     H19675   0.832   9.555   1.888 -0.1860 -0.1286  0.2448
  146MOL0     H19676   0.745   9.386   1.775  0.9895  0.1633  0.4751
  146MOL0     H19677   0.643   9.325   1.914 -0.8669  0.3044  0.9340
  146MOL0     H19678   0.541   9.558   1.904 -0.3005  0.0034 -0.8087
  146MOL0     H19679   0.597   9.578   1.740 -1.9661  1.3333  0.5960
  146MOL0     H19680   0.408   9.372   1.848 -0.5236  0.8832  0.2596
  146MOL0     H19681   0.477   9.350   1.686 -0.1113 -1.8746  1.3332
  146MOL0     H19682   0.314   9.569   1.789  0.9072 -0.2438 -0.7875
  146MOL0     H19683   0.253   9.455   1.678  0.6173 -2.4937 -0.4358
  146MOL0     H19684   0.462   9.666   1.598 -0.8735  0.3301  2.5079
  146MOL0     H19685   0.415   9.519   1.499 -1.6273 -1.1052  0.3991
  146MOL0     H19686   0.209   9.695   1.614  0.4634 -1.8683  0.6824
  146MOL0     H19687   0.190   9.578   1.484 -2.5867  0.9385  1.9618
  146MOL0     H19688   0.402   9.803   1.439  2.7058 -2.2800 -3.2123
  146MOL0     H19689   0.292   9.706   1.332  0.0998  2.7069 -0.7183
  146MOL0     H19690   1.131   9.283   2.028  2.4529 -0.3736  1.5901
  146MOL0     H19691   1.249   9.272   2.250  1.4906  3.3977 -1.1290
  146MOL0     H19692   1.093   9.335   2.862 -0.4684  0.1415  0.2634
  146MOL0     H19693   1.263   9.284   3.020  0.2525 -0.5174  0.5892
  146MOL0     H19694   0.917   9.923   4.648  0.1179  2.7849 -1.6795
  146MOL0     H19695   0.678   9.915   4.722  5.2830  1.1864  0.4278
  146MOL0     H19696   0.322   9.899   4.745 -1.1553  0.8002  0.5007
  146MOL0     H19697   0.084   9.972   4.775 -1.2913 -1.8579  3.1121
  146MOL0     H19698  -0.191   9.787   4.531 -1.5474 -3.3101  1.2518
  146MOL0     H19699  -0.250   9.945   4.574  0.0335 -0.7949 -0.5228
  146MOL0     H19700  -0.423   9.761   4.620  0.2826 -1.6928 -0.0312
  146MOL0     H19701  -0.375   9.846   4.765 -2.4802 -2.3857  1.0781
  146MOL0     H19702  -0.216   9.671   4.811 -1.4518 -1.3032  1.2847
  146MOL0     H19703  -0.275   9.577   4.663 -2.6879 -0.4074 -0.7394
  146MOL0     H19704  -0.488   9.556   4.741 -0.4323  0.1356 -0.4921
  146MOL0     H19705  -0.400   9.469   4.867  0.4249 -0.8243 -1.5323
  146MOL0     H19706  -0.627   9.774   5.043  0.8899  1.4043 -0.4775
  146MOL0     H19707  -0.046   9.633   4.592  2.5722 -3.2546 -1.7826
  146MOL0     H19708   0.158   9.619   4.358  1.0787  0.9242  0.4691
  146MOL0     H19709   0.241   9.495   4.449 -1.1389 -1.1039  0.3797
  146MOL0     H19710   0.072   9.507   4.473  2.3159 -2.2006  4.6412
  147MOL0     O19711   2.346   2.933   9.950 -0.4749  0.2712  0.1299
  147MOL0     C19712   2.366   2.894   9.836 -0.3035 -0.1548 -0.5244
  147MOL0     O19713   2.304   2.784   9.776 -0.7093  0.3577  0.4850
  147MOL0     C19714   2.220   2.704   9.853 -0.2049  0.4173  0.3845
  147MOL0     C19715   2.256   2.571   9.876 -0.5171 -0.6562 -0.2776
  147MOL0     C19716   2.181   2.480   9.948 -0.3026  0.7553  0.1124
  147MOL0     C19717   2.054   2.520   9.999 -0.2643 -0.5249  0.7013
  147MOL0     O19718   1.967   2.451  10.075 -0.0671 -0.6125 -0.5353
  147MOL0     C19719   1.974   2.310  10.058  0.1394  0.0922  0.3266
  147MOL0     C19720   1.849   2.258  10.135  0.0683  0.5466  0.7580
  147MOL0     C19721   1.831   2.111  10.159 -0.1775  0.9825  0.1407
  147MOL0     C19722   1.912   2.021  10.058 -0.5692 -1.0156 -0.6960
  147MOL0     C19723   1.891   1.878  10.076  0.4175  0.2780  0.0916
  147MOL0     C19724   1.886   1.794   9.945  0.7844  0.1854 -1.1123
  147MOL0     C19725   1.890   1.642   9.968 -0.1769  0.2518 -0.6880
  147MOL0     C19726   2.023   1.587  10.002  0.2812  0.0512 -0.0688
  147MOL0     N19727   2.122   1.579   9.890 -0.3353 -0.6042 -0.4032
  147MOL0     C19728   2.219   1.671   9.874  0.3250 -0.2089  0.6012
  147MOL0     C19729   2.293   1.622   9.762 -0.1121 -0.1381  0.3316
  147MOL0     C19730   2.411   1.691   9.688  0.3243 -0.5155 -0.6344
  147MOL0     C19731   2.554   1.637   9.725  0.6353  0.3425 -0.1447
  147MOL0     C19732   2.584   1.670   9.873 -0.8944  0.5565 -0.6539
  147MOL0     C19733   2.725   1.631   9.897  0.2017 -0.6984 -0.1101
  147MOL0     O19734   2.820   1.724   9.845 -0.7366  0.5620 -0.6298
  147MOL0     C19735   2.948   1.693   9.885  0.3996 -0.6819 -0.2273
  147MOL0     C19736   3.039   1.795   9.859 -0.6353  0.5462  0.2189
  147MOL0     C19737   3.166   1.784   9.919 -0.0394 -0.1226  0.0685
  147MOL0     C19738   3.213   1.671   9.989  0.2779 -0.7940  0.5333
  147MOL0     C19739   3.343   1.649  10.045  1.0113 -0.9044 -0.0128
  147MOL0     O19740   3.367   1.531  10.107 -0.1963 -0.2442 -0.2705
  147MOL0     C19741   3.493   1.515  10.163 -0.5328 -0.0466 -0.0676
  147MOL0     C19742   3.561   1.395  10.133  0.3663 -0.9507 -0.7845
  147MOL0     C19743   3.679   1.348  10.188  0.2099 -0.3841 -0.1106
  147MOL0     C19744   3.742   1.433  10.274  0.0051  0.3332 -0.5232
  147MOL0     O19745   3.864   1.395  10.318  0.0174 -0.5455 -0.3702
  147MOL0     C19746   3.959   1.495  10.365  0.9353 -0.0700  0.0061
  147MOL0     C19747   4.098   1.435  10.385  0.6666  0.5679 -0.1522
  147MOL0     C19748   4.097   1.351  10.512  0.8519  0.0061 -0.1138
  147MOL0     C19749   4.231   1.284  10.542 -0.2438 -0.0751  0.6546
  147MOL0     C19750   4.362   1.372  10.547  0.1536  0.1842 -0.2824
  147MOL0     C19751   4.495   1.304  10.567  0.4056  0.3586  0.3140
  147MOL0     C19752   4.505   1.230  10.702 -0.1451 -0.3062 -0.6393
  147MOL0     C19753   4.609   1.119  10.702 -0.2813  0.0741  0.1222
  147MOL0    Cl19754   4.673   1.063  10.852 -0.1680 -0.2392  0.2898
  147MOL0     C19755   3.677   1.561  10.309 -1.4874  0.8153 -1.1959
  147MOL0     C19756   3.558   1.601  10.252 -0.0205  0.2638  0.3805
  147MOL0     O19757   3.423   1.747  10.042  0.6186  0.1277 -0.8496
  147MOL0     C19758   3.128   1.557   9.985 -0.4267 -0.0180 -0.0668
  147MOL0     C19759   2.996   1.569   9.939  0.3761  0.4777  0.6269
  147MOL0     N19760   2.234   1.507   9.716  0.9281  0.1964  0.6528
  147MOL0     N19761   2.132   1.484   9.792  0.3212  0.8427  0.3962
  147MOL0     C19762   2.018   2.660   9.988  0.7878 -0.0309  0.9698
  147MOL0     C19763   2.104   2.747   9.922 -0.9161 -0.4952  0.3497
  147MOL0     C19764   2.494   2.946   9.778 -0.5337  0.3684  0.2425
  147MOL0     C19765   2.583   3.016   9.854 -0.4934  0.6084  0.1341
  147MOL0     C19766   2.706   3.072   9.799  0.4258  0.3884 -0.1410
  147MOL0     C19767   2.739   3.054   9.668 -0.3670 -0.6966 -0.7631
  147MOL0     O19768   2.849   3.097   9.602  0.1782  0.2986  0.8694
  147MOL0     C19769   2.968   3.106   9.688 -0.5823  0.3193 -0.0648
  147MOL0     C19770   2.997   3.250   9.708 -1.2329  0.1638 -0.7744
  147MOL0     C19771   2.957   3.349   9.606 -0.4932 -0.9454 -0.5029
  147MOL0     C19772   3.046   3.356   9.485  0.9636  0.1378  0.9018
  147MOL0     C19773   3.014   3.236   9.400  0.3338  0.9675  0.4581
  147MOL0     C19774   2.986   3.130   9.342 -0.3102 -0.7620  0.1758
  147MOL0     C19775   2.651   2.986   9.586  0.5334  0.5459 -0.3537
  147MOL0     C19776   2.520   2.942   9.639 -1.4099 -0.1667 -0.0707
  147MOL0     C19777   2.413   2.918   9.539 -0.9782 -0.1011 -0.0103
  147MOL0     H19778   2.351   2.528   9.845 -0.2559 -1.2788  1.2909
  147MOL0     H19779   2.206   2.375   9.965 -0.0144  0.6756 -0.7594
  147MOL0     H19780   1.971   2.278   9.954 -2.5090  2.0773 -0.3271
  147MOL0     H19781   2.057   2.266  10.114  0.4360  0.1666 -0.0567
  147MOL0     H19782   1.762   2.309  10.091  1.2011  2.6004  0.7514
  147MOL0     H19783   1.850   2.309  10.232 -2.5995  2.1369  0.0604
  147MOL0     H19784   1.723   2.096  10.160 -0.2910  1.7579  1.2611
  147MOL0     H19785   1.864   2.096  10.262 -1.1320  1.4117  0.5136
  147MOL0     H19786   1.883   2.061   9.960  0.2300 -0.2164 -0.6144
  147MOL0     H19787   2.019   2.038  10.073 -0.9280  2.4279 -1.3362
  147MOL0     H19788   1.970   1.841  10.143  1.4958  0.1356 -1.2098
  147MOL0     H19789   1.793   1.857  10.119  0.9008 -0.6853  0.7719
  147MOL0     H19790   1.787   1.818   9.905 -0.0036 -1.5417 -0.3233
  147MOL0     H19791   1.948   1.824   9.860 -0.7364  0.6764 -2.0873
  147MOL0     H19792   1.854   1.585   9.882 -0.6535  0.3778 -0.5768
  147MOL0     H19793   1.819   1.627  10.050  1.4028  1.8801  1.0757
  147MOL0     H19794   2.065   1.646  10.085 -0.2667 -3.2435  2.7855
  147MOL0     H19795   2.026   1.483  10.035  1.9548  0.3850  1.0146
  147MOL0     H19796   2.235   1.757   9.939  0.0611 -1.5938  2.5762
  147MOL0     H19797   2.391   1.701   9.581 -0.2236 -0.5045 -0.5304
  147MOL0     H19798   2.413   1.794   9.725  2.6118 -1.4179  2.1740
  147MOL0     H19799   2.560   1.528   9.719 -0.2771  0.3283 -0.9816
  147MOL0     H19800   2.638   1.690   9.679 -1.7966  3.1488 -1.6738
  147MOL0     H19801   2.517   1.615   9.939  0.3724 -1.5541 -1.0196
  147MOL0     H19802   2.575   1.777   9.892 -0.7400  0.1985  1.6864
  147MOL0     H19803   2.740   1.538   9.841  0.7755  0.0940 -1.3035
  147MOL0     H19804   2.744   1.612  10.003  4.1676 -2.1629 -0.8991
  147MOL0     H19805   3.009   1.890   9.816 -0.7925 -0.0566 -1.0579
  147MOL0     H19806   3.226   1.873   9.906  0.1306 -0.2926 -0.3231
  147MOL0     H19807   3.511   1.318  10.075  1.1784 -4.8967  3.2350
  147MOL0     H19808   3.721   1.249  10.171 -1.8836 -1.4138  0.3844
  147MOL0     H19809   3.975   1.571  10.288  0.4832  1.2767  1.2154
  147MOL0     H19810   3.929   1.548  10.456  5.7011 -2.3196  3.3234
  147MOL0     H19811   4.114   1.366  10.301 -3.7871 -1.0675  0.0906
  147MOL0     H19812   4.179   1.509  10.391  0.3627  0.8050  1.4526
  147MOL0     H19813   4.084   1.415  10.600  0.3044 -2.4993  1.7426
  147MOL0     H19814   4.012   1.281  10.512  0.7457  0.0450 -2.2737
  147MOL0     H19815   4.237   1.201  10.471 -3.5807 -0.3722  0.5865
  147MOL0     H19816   4.210   1.244  10.642 -3.3719 -0.1010  0.0912
  147MOL0     H19817   4.353   1.442  10.631 -2.1559  1.5318 -1.5467
  147MOL0     H19818   4.376   1.445  10.466 -0.1650  1.9766  1.2015
  147MOL0     H19819   4.503   1.234  10.484 -0.4402  0.3346  0.2429
  147MOL0     H19820   4.570   1.382  10.550  0.2613  0.7320  1.3234
  147MOL0     H19821   4.410   1.175  10.711 -0.1615 -0.4158 -1.4316
  147MOL0     H19822   4.521   1.296  10.787  2.0379  0.4843 -1.5994
  147MOL0     H19823   4.569   1.028  10.656 -2.5385 -0.5219  2.9762
  147MOL0     H19824   4.700   1.153  10.651  2.4589 -1.0359  3.8334
  147MOL0     H19825   3.733   1.627  10.374  0.8038 -0.9170 -1.2924
  147MOL0     H19826   3.513   1.697  10.275 -1.6061  0.5834 -3.3387
  147MOL0     H19827   3.163   1.462  10.024  0.7404  0.7244  0.7695
  147MOL0     H19828   2.934   1.480   9.942 -1.9258  1.9776  4.5433
  147MOL0     H19829   1.925   2.701  10.027 -1.2332 -1.6797 -1.7467
  147MOL0     H19830   2.065   2.849   9.926 -1.0698 -0.5907  2.0226
  147MOL0     H19831   2.565   3.033   9.960 -0.8757  0.2318  0.1271
  147MOL0     H19832   2.774   3.128   9.862  1.3754 -0.3659 -0.4711
  147MOL0     H19833   3.062   3.078   9.642 -0.0928  1.8562 -0.0751
  147MOL0     H19834   2.954   3.040   9.774  2.0660  0.2935  0.4297
  147MOL0     H19835   3.101   3.263   9.741 -0.7167 -3.1360 -0.7673
  147MOL0     H19836   2.939   3.284   9.794 -1.7487  0.9034 -1.4020
  147MOL0     H19837   2.976   3.445   9.656 -0.3167 -1.0539 -0.3589
  147MOL0     H19838   2.856   3.341   9.565 -1.1304  2.2178  0.1757
  147MOL0     H19839   3.009   3.443   9.431  3.5589  0.1726 -1.0252
  147MOL0     H19840   3.148   3.392   9.501  0.5357  2.4266 -0.9344
  147MOL0     H19841   2.958   3.035   9.300  0.5320 -1.6791  1.6015
  147MOL0     H19842   2.678   2.991   9.481  0.1278  3.0047 -0.4009
  147MOL0     H19843   2.409   2.812   9.511 -0.6315 -1.1119  3.2876
  147MOL0     H19844   2.321   2.966   9.574  1.6244  3.1420  3.1642
  147MOL0     H19845   2.433   2.969   9.444  1.4811 -2.8589 -1.1341
  148MOL0     O19846   7.347   6.255   6.552 -0.2376 -0.3825 -0.1286
  148MOL0     C19847   7.365   6.195   6.660  0.7115  0.1814  0.0736
  148MOL0     O19848   7.484   6.188   6.735 -0.1273 -0.2499 -0.0487
  148MOL0     C19849   7.612   6.201   6.686 -0.9248 -0.8146 -0.2587
  148MOL0     C19850   7.651   6.246   6.563  0.5493  0.3457  0.2536
  148MOL0     C19851   7.782   6.231   6.518 -0.0967 -0.0011  1.5229
  148MOL0     C19852   7.882   6.184   6.599  0.4997 -0.4544  0.9649
  148MOL0     O19853   8.014   6.177   6.549 -0.9435  0.6067 -0.6237
  148MOL0     C19854   8.029   6.109   6.427 -1.0210  0.5153  0.6941
  148MOL0     C19855   8.144   6.006   6.447  0.2504 -0.1116 -0.3995
  148MOL0     C19856   8.266   6.094   6.445 -0.1892 -0.0364  0.3959
  148MOL0     C19857   8.389   6.028   6.470  0.6096 -1.1120 -0.2221
  148MOL0     C19858   8.492   6.109   6.560  0.5592 -0.5777 -0.5976
  148MOL0     C19859   8.604   6.017   6.609  1.0116  0.7321 -0.1950
  148MOL0     C19860   8.718   6.084   6.686  0.4599 -0.8156  0.3063
  148MOL0     C19861   8.681   6.199   6.780  0.3165  0.7836  0.5807
  148MOL0     N19862   8.792   6.217   6.874  0.0100  0.4301  0.5752
  148MOL0     C19863   8.809   6.169   6.997  0.0689 -0.3230 -0.4521
  148MOL0     C19864   8.923   6.225   7.048 -0.6534 -1.1272 -0.2442
  148MOL0     C19865   9.002   6.195   7.179  0.0579 -1.1087 -0.6166
  148MOL0     C19866   8.978   6.053   7.218  0.1389  0.1968  0.6817
  148MOL0     C19867   9.037   6.016   7.355 -0.0082 -0.5648  0.0326
  148MOL0     C19868   9.194   6.001   7.343 -0.0752 -0.5568  0.7112
  148MOL0     O19869   9.245   6.133   7.360  0.0544  0.3864  0.2599
  148MOL0     C19870   9.379   6.151   7.357 -0.3217 -0.0051 -0.9017
  148MOL0     C19871   9.427   6.269   7.420  0.0486  0.1706  0.0072
  148MOL0     C19872   9.558   6.298   7.436  0.1838 -0.2941 -0.3840
  148MOL0     C19873   9.656   6.202   7.391  0.4033  0.6120 -0.5661
  148MOL0     C19874   9.793   6.219   7.418 -0.7914 -0.1634  0.0073
  148MOL0     O19875   9.877   6.122   7.365 -0.8996 -0.4083 -0.2275
  148MOL0     C19876  10.014   6.135   7.351  0.2280 -0.0879 -0.5103
  148MOL0     C19877  10.088   6.030   7.386 -0.7020 -0.1714 -0.4569
  148MOL0     C19878  10.233   6.031   7.361 -0.6740  0.5189 -0.6809
  148MOL0     C19879  10.293   6.146   7.301  0.7088 -0.1427  0.3882
  148MOL0     O19880  10.427   6.136   7.281 -0.5129 -0.1664 -0.7407
  148MOL0     C19881  10.494   6.260   7.268 -0.5846 -0.7276  0.3253
  148MOL0     C19882  10.518   6.319   7.407 -0.0692  0.1719  0.5918
  148MOL0     C19883  10.610   6.238   7.512 -0.1928 -0.2872 -0.0688
  148MOL0     C19884  10.653   6.324   7.634 -0.0276 -0.2110  0.5294
  148MOL0     C19885  10.711   6.232   7.735  0.2635 -0.5895  0.0798
  148MOL0     C19886  10.794   6.298   7.847 -0.1248 -0.2455 -0.7103
  148MOL0     C19887  10.861   6.430   7.811 -0.5430  0.3274  0.7675
  148MOL0     C19888  10.965   6.472   7.914 -0.3005  0.5055  0.1730
  148MOL0    Cl19889  11.003   6.643   7.904 -0.2984 -0.1559  0.3950
  148MOL0     C19890  10.205   6.246   7.259 -0.0905 -0.1047  0.3521
  148MOL0     C19891  10.072   6.247   7.287 -0.6505  0.7679  1.2648
  148MOL0     O19892   9.840   6.312   7.479 -0.6819  0.0062  1.2299
  148MOL0     C19893   9.606   6.091   7.321 -0.6316 -0.7722  0.2130
  148MOL0     C19894   9.475   6.067   7.303 -0.6542 -0.7077 -0.8898
  148MOL0     N19895   8.975   6.309   6.949 -0.2451 -0.2649 -0.0602
  148MOL0     N19896   8.902   6.298   6.840 -1.0511 -0.1913 -1.1703
  148MOL0     C19897   7.842   6.137   6.724 -0.4630 -0.3556 -0.7814
  148MOL0     C19898   7.715   6.156   6.765 -0.6974  0.1217 -1.2176
  148MOL0     C19899   7.249   6.144   6.724  1.0057  0.3525  0.2002
  148MOL0     C19900   7.125   6.209   6.708 -0.3950  0.5420  0.0105
  148MOL0     C19901   7.005   6.157   6.764  0.0133 -0.3280 -0.5299
  148MOL0     C19902   7.008   6.046   6.844 -0.6850  0.2923 -0.6443
  148MOL0     O19903   6.887   6.007   6.896 -0.4727  0.1741 -0.1303
  148MOL0     C19904   6.880   5.976   7.039  0.3358  0.5897  0.8361
  148MOL0     C19905   6.736   6.005   7.086  1.0786  0.4743 -0.0438
  148MOL0     C19906   6.704   6.152   7.090  0.6344  0.0830  0.0373
  148MOL0     C19907   6.615   6.198   7.195 -0.0644  0.0054 -0.4885
  148MOL0     C19908   6.607   6.346   7.179 -0.3645 -0.1316  0.2059
  148MOL0     C19909   6.565   6.464   7.170 -0.5510 -0.1644 -0.0996
  148MOL0     C19910   7.130   5.982   6.869  0.2942 -0.8842 -0.7396
  148MOL0     C19911   7.243   6.035   6.817 -0.7979 -0.2939 -0.0755
  148MOL0     C19912   7.372   5.959   6.844 -0.1536 -1.1499 -0.2091
  148MOL0     H19913   7.567   6.275   6.501  0.9312  0.8877 -0.0284
  148MOL0     H19914   7.819   6.270   6.424 -1.4211 -0.6857  0.6772
  148MOL0     H19915   7.933   6.060   6.406 -2.0235  1.4106  2.8514
  148MOL0     H19916   8.039   6.177   6.342  0.2770  0.6185  0.9106
  148MOL0     H19917   8.134   5.930   6.370 -2.1086 -1.0375  0.7350
  148MOL0     H19918   8.135   5.945   6.537 -0.4714  0.7570  0.1471
  148MOL0     H19919   8.262   6.172   6.522 -2.4950 -0.6509  0.9577
  148MOL0     H19920   8.271   6.135   6.344  2.9748  2.9646  1.5416
  148MOL0     H19921   8.370   5.929   6.513 -1.4904 -1.7436 -2.3835
  148MOL0     H19922   8.439   5.988   6.382  0.8457 -2.6220  0.5496
  148MOL0     H19923   8.546   6.190   6.510  0.6541 -2.7891 -4.4131
  148MOL0     H19924   8.442   6.150   6.649 -2.1012 -4.1248 -0.2443
  148MOL0     H19925   8.552   5.944   6.672 -2.0427  1.9606 -1.0934
  148MOL0     H19926   8.643   5.960   6.524  4.4858 -0.0843  1.7701
  148MOL0     H19927   8.791   6.126   6.618 -1.2114  2.9353  0.6056
  148MOL0     H19928   8.767   6.007   6.747  1.9881  0.9814  1.4359
  148MOL0     H19929   8.667   6.290   6.720  0.7913  0.8330  0.5414
  148MOL0     H19930   8.594   6.177   6.842  1.1053 -2.7180  0.6733
  148MOL0     H19931   8.749   6.099   7.055 -0.5353 -2.9188 -3.8423
  148MOL0     H19932   9.108   6.216   7.163  0.4314 -1.5191  1.0453
  148MOL0     H19933   8.957   6.263   7.253 -3.3279 -2.3891 -1.3394
  148MOL0     H19934   8.873   6.025   7.217 -0.1826  1.3786  0.4766
  148MOL0     H19935   9.029   5.990   7.144  0.8425 -0.0451  1.3605
  148MOL0     H19936   8.985   5.922   7.378 -0.3625 -0.7904 -1.5588
  148MOL0     H19937   9.006   6.088   7.431  0.8342  0.2526 -0.3778
  148MOL0     H19938   9.204   5.958   7.243 -2.3902 -0.9857  0.6083
  148MOL0     H19939   9.237   5.934   7.418  1.0035  2.4644  2.9716
  148MOL0     H19940   9.357   6.346   7.451  2.0848  1.8101  0.6945
  148MOL0     H19941   9.580   6.395   7.481 -1.8163 -0.3130  0.7641
  148MOL0     H19942  10.040   5.945   7.433  0.1028 -0.9088 -0.9452
  148MOL0     H19943  10.296   5.948   7.393 -1.6910  0.7307  2.2040
  148MOL0     H19944  10.589   6.233   7.222  0.0478  0.7652  0.7062
  148MOL0     H19945  10.442   6.329   7.201 -1.0696 -1.8114 -0.4443
  148MOL0     H19946  10.563   6.416   7.385  3.2129 -1.4046 -0.1854
  148MOL0     H19947  10.416   6.328   7.445  0.3703  2.2745  1.3867
  148MOL0     H19948  10.558   6.146   7.540  1.2281 -1.2898 -0.5547
  148MOL0     H19949  10.705   6.200   7.471 -1.1322 -2.4492 -0.4160
  148MOL0     H19950  10.575   6.388   7.676  1.5270  2.0240  0.2042
  148MOL0     H19951  10.726   6.394   7.591 -0.5797  1.8719  2.7724
  148MOL0     H19952  10.781   6.162   7.687  2.4501 -0.5961  2.9969
  148MOL0     H19953  10.629   6.170   7.771 -3.6876  4.3401  0.5418
  148MOL0     H19954  10.739   6.317   7.940  3.0640 -0.5001  1.3631
  148MOL0     H19955  10.869   6.224   7.876 -0.3262 -0.4622 -0.7421
  148MOL0     H19956  10.774   6.496   7.805 -2.9640 -2.6839  0.5650
  148MOL0     H19957  10.912   6.422   7.714 -0.4855  1.2333  0.7175
  148MOL0     H19958  10.920   6.448   8.011 -1.1273 -2.3145 -0.8027
  148MOL0     H19959  11.057   6.413   7.905  1.0873  2.8207 -2.1259
  148MOL0     H19960  10.246   6.329   7.201  2.5122 -1.5661 -0.0554
  148MOL0     H19961   9.998   6.315   7.248 -3.1973 -2.2199  0.4393
  148MOL0     H19962   9.673   6.020   7.274  3.1658  1.7612  1.3085
  148MOL0     H19963   9.441   5.971   7.267 -3.5990 -1.0691  2.2810
  148MOL0     H19964   7.918   6.101   6.792 -3.0855 -0.5928  2.2524
  148MOL0     H19965   7.679   6.125   6.863 -1.3026 -0.1384 -1.5168
  148MOL0     H19966   7.109   6.291   6.638  0.5653  0.0760 -0.7859
  148MOL0     H19967   6.905   6.200   6.754 -1.7203 -3.3299  1.9642
  148MOL0     H19968   6.948   6.039   7.096  1.1578  2.5062 -2.0131
  148MOL0     H19969   6.898   5.870   7.061 -3.0296  0.1347  1.9621
  148MOL0     H19970   6.728   5.966   7.187  0.3326 -3.7405 -1.5547
  148MOL0     H19971   6.670   5.950   7.019 -0.0433  0.5734  0.9632
  148MOL0     H19972   6.668   6.190   6.994 -0.4745  0.1379  0.4585
  148MOL0     H19973   6.800   6.203   7.106  2.5633 -2.8599 -1.2349
  148MOL0     H19974   6.516   6.154   7.184 -0.6640  1.0102  0.5682
  148MOL0     H19975   6.661   6.184   7.293  0.6071  1.3823 -0.5817
  148MOL0     H19976   6.538   6.568   7.167  0.5325  0.1098 -2.1491
  148MOL0     H19977   7.140   5.896   6.935 -2.6447  1.0965  2.6351
  148MOL0     H19978   7.414   5.930   6.747  1.5546  1.4451 -0.3556
  148MOL0     H19979   7.445   6.018   6.900  0.4477 -2.0788  0.0082
  148MOL0     H19980   7.364   5.870   6.907 -0.6694 -1.3480 -0.5528
  149MOL0     O19981   2.803   0.371   0.213 -0.2326 -0.1377  0.2090
  149MOL0     C19982   2.707   0.447   0.217  0.7345  0.0383  0.0530
  149MOL0     O19983   2.567   0.418   0.206 -0.9265 -0.5913 -0.2442
  149MOL0     C19984   2.518   0.288   0.188 -0.0898 -0.8355 -0.1153
  149MOL0     C19985   2.397   0.285   0.119 -0.5850 -0.4975  0.0966
  149MOL0     C19986   2.337   0.157   0.087  0.1751  0.2951 -0.5127
  149MOL0     C19987   2.397   0.041   0.147 -0.5900  0.0958  0.5327
  149MOL0     O19988   2.327  -0.077   0.163  0.3431  0.4142  0.5464
  149MOL0     C19989   2.387  -0.193   0.110  0.3020 -0.8085  0.3991
  149MOL0     C19990   2.309  -0.320   0.135 -0.8602 -0.7991 -0.5313
  149MOL0     C19991   2.160  -0.293   0.104 -1.2025 -0.4335  0.5805
  149MOL0     C19992   2.081  -0.420   0.141 -0.8050 -0.5091 -0.3203
  149MOL0     C19993   1.948  -0.417   0.072 -0.4978  0.1878 -0.3253
  149MOL0     C19994   1.909  -0.556   0.045 -0.5301  0.6096  0.6394
  149MOL0     C19995   1.958  -0.596  -0.101  0.9487  0.1984 -0.1160
  149MOL0     C19996   1.926  -0.742  -0.132 -0.4433 -0.9328  0.8538
  149MOL0     N19997   2.028  -0.831  -0.089  0.7924  0.0828  0.0741
  149MOL0     C19998   2.023  -0.911   0.021 -0.3734 -0.1730 -0.2040
  149MOL0     C19999   2.113  -1.010   0.005  0.1184 -0.1295  0.0297
  149MOL0     C20000   2.140  -1.121   0.102  0.1921  0.8832  0.4759
  149MOL0     C20001   2.257  -1.213   0.056  0.5021 -0.0081  0.4851
  149MOL0     C20002   2.321  -1.278   0.183  0.2856  0.4868  0.1285
  149MOL0     C20003   2.465  -1.297   0.158  0.6646  0.1477 -0.3212
  149MOL0     O20004   2.501  -1.359   0.036 -0.1808 -0.6662  0.3487
  149MOL0     C20005   2.629  -1.405   0.025 -0.5651  0.3257  0.0920
  149MOL0     C20006   2.717  -1.411   0.134 -0.8055  0.1309  0.2684
  149MOL0     C20007   2.846  -1.447   0.101 -0.1071  1.0314  1.1098
  149MOL0     C20008   2.883  -1.504  -0.013  0.4471  0.8948  0.3041
  149MOL0     C20009   3.016  -1.554  -0.038  0.0347 -0.2189 -0.0278
  149MOL0     O20010   3.051  -1.599  -0.163  0.0148 -1.0665 -0.1013
  149MOL0     C20011   3.183  -1.629  -0.194 -0.2018  0.4546 -0.6396
  149MOL0     C20012   3.249  -1.753  -0.150  0.9372 -0.5747  0.7795
  149MOL0     C20013   3.385  -1.769  -0.186  0.1727  0.0218  0.4631
  149MOL0     C20014   3.460  -1.673  -0.253  0.3484 -0.1551  0.5118
  149MOL0     O20015   3.589  -1.701  -0.277 -0.4294  0.2447  0.3286
  149MOL0     C20016   3.668  -1.604  -0.347  0.1608  0.6732  0.5492
  149MOL0     C20017   3.803  -1.654  -0.386 -0.6509  0.6054  0.2155
  149MOL0     C20018   3.890  -1.696  -0.263 -0.3637  0.3499 -0.4736
  149MOL0     C20019   4.031  -1.654  -0.285  0.3797 -0.0596  0.4975
  149MOL0     C20020   4.125  -1.703  -0.175  0.1467  0.3915 -0.0439
  149MOL0     C20021   4.253  -1.640  -0.178  0.2209  0.5758 -0.3597
  149MOL0     C20022   4.329  -1.665  -0.306 -0.3143 -0.3209 -0.1552
  149MOL0     C20023   4.461  -1.593  -0.324  0.6753 -0.4843 -0.6394
  149MOL0    Cl20024   4.575  -1.651  -0.198  0.4042 -0.3777 -0.0840
  149MOL0     C20025   3.395  -1.551  -0.286  0.4653  0.2047 -0.7168
  149MOL0     C20026   3.264  -1.532  -0.251  0.5275 -0.5488 -0.3861
  149MOL0     O20027   3.099  -1.540   0.055 -0.5837 -0.3871  0.6380
  149MOL0     C20028   2.790  -1.521  -0.114 -0.2173 -0.9193 -0.3989
  149MOL0     C20029   2.663  -1.467  -0.094  0.1058  0.0625  0.5716
  149MOL0     N20030   2.180  -0.988  -0.117  0.3253  0.2728  0.0169
  149MOL0     N20031   2.128  -0.881  -0.162 -0.5362 -0.4366 -0.0133
  149MOL0     C20032   2.522   0.047   0.215 -0.2076  0.0461  1.0800
  149MOL0     C20033   2.583   0.174   0.230  0.4464 -0.3377  0.3653
  149MOL0     C20034   2.731   0.586   0.245  0.3289 -0.4377  0.5783
  149MOL0     C20035   2.638   0.658   0.323  0.2834 -0.8604  0.6657
  149MOL0     C20036   2.649   0.795   0.365 -0.3150 -0.3657 -0.4452
  149MOL0     C20037   2.769   0.862   0.329  0.4003 -0.1171 -1.0116
  149MOL0     O20038   2.822   0.975   0.375 -0.0532 -0.7642 -0.1607
  149MOL0     C20039   2.744   1.050   0.472 -0.0699  0.4090  0.5823
  149MOL0     C20040   2.799   1.008   0.607 -0.0231  0.6056  0.8126
  149MOL0     C20041   2.939   1.058   0.633 -0.1710  0.0004 -0.2719
  149MOL0     C20042   2.934   1.207   0.665  0.5743 -0.0328 -0.5791
  149MOL0     C20043   3.066   1.268   0.682  0.2970  0.3466  0.0958
  149MOL0     C20044   3.184   1.303   0.696 -0.3160 -0.4240 -0.5016
  149MOL0     C20045   2.853   0.791   0.243  0.4562  0.2962 -0.4815
  149MOL0     C20046   2.847   0.658   0.202 -0.7917 -0.7303  0.3021
  149MOL0     C20047   2.956   0.605   0.110  0.3228 -0.6210  1.4306
  149MOL0     H20048   2.361   0.376   0.071  0.6107 -0.9314 -1.7441
  149MOL0     H20049   2.241   0.154   0.036  0.2593  0.2792 -0.6703
  149MOL0     H20050   2.408  -0.195   0.003 -1.9564  1.1130 -0.1601
  149MOL0     H20051   2.486  -0.200   0.157  0.3661 -0.3611  0.3368
  149MOL0     H20052   2.314  -0.344   0.241 -1.2540  1.2879  0.0022
  149MOL0     H20053   2.344  -0.406   0.077 -1.9455  0.1743 -2.7893
  149MOL0     H20054   2.146  -0.263   0.000 -0.8315  0.6574  0.8301
  149MOL0     H20055   2.115  -0.214   0.164  0.8488 -0.4196  2.2427
  149MOL0     H20056   2.139  -0.506   0.106  3.9345  1.4566  1.7993
  149MOL0     H20057   2.086  -0.425   0.250 -4.2705  1.7963  0.0946
  149MOL0     H20058   1.881  -0.384   0.153  2.4189  0.7947  2.0104
  149MOL0     H20059   1.948  -0.346  -0.011  1.7027  0.2556 -0.3316
  149MOL0     H20060   1.919  -0.634   0.121 -3.8031  0.2637  0.8627
  149MOL0     H20061   1.800  -0.557   0.034 -0.2887  1.2617 -2.6995
  149MOL0     H20062   2.066  -0.574  -0.106  1.1376 -1.0195 -2.0531
  149MOL0     H20063   1.900  -0.534  -0.169  0.0561 -0.9227 -0.4011
  149MOL0     H20064   1.830  -0.784  -0.101  0.8859 -5.3188 -0.3497
  149MOL0     H20065   1.917  -0.743  -0.241 -0.0954  3.3736  0.6026
  149MOL0     H20066   1.959  -0.901   0.108 -1.2872  0.7428 -0.9562
  149MOL0     H20067   2.156  -1.079   0.202 -2.0141 -1.5736  2.0132
  149MOL0     H20068   2.057  -1.191   0.109  0.3658  0.0356 -3.6045
  149MOL0     H20069   2.232  -1.292  -0.016  1.4675 -1.0807  1.3118
  149MOL0     H20070   2.330  -1.148   0.007 -2.5183  2.0968 -1.6255
  149MOL0     H20071   2.277  -1.375   0.211 -1.7596  1.4131  0.3328
  149MOL0     H20072   2.312  -1.217   0.273 -2.0139  0.2538  0.1108
  149MOL0     H20073   2.496  -1.368   0.236  1.3929 -1.3568 -1.9222
  149MOL0     H20074   2.517  -1.202   0.174  2.5145 -0.9470  0.4925
  149MOL0     H20075   2.709  -1.357   0.228  0.4359  0.9419 -0.0622
  149MOL0     H20076   2.921  -1.438   0.179  2.0728 -1.3555 -0.5270
  149MOL0     H20077   3.196  -1.837  -0.109 -0.7449  0.1091  0.0940
  149MOL0     H20078   3.431  -1.860  -0.148  0.1978 -1.0985 -2.0104
  149MOL0     H20079   3.623  -1.579  -0.443 -0.6972  0.5876  0.9260
  149MOL0     H20080   3.680  -1.516  -0.282  1.4124 -0.8378  2.4845
  149MOL0     H20081   3.796  -1.746  -0.444  0.8559  0.2771  0.5067
  149MOL0     H20082   3.860  -1.583  -0.447  1.7918 -1.4882 -0.1030
  149MOL0     H20083   3.846  -1.647  -0.175  0.9716  0.7280  0.0113
  149MOL0     H20084   3.892  -1.803  -0.244 -1.5970  0.3590 -0.2055
  149MOL0     H20085   4.037  -1.545  -0.292  1.2384 -0.2059 -1.9067
  149MOL0     H20086   4.072  -1.682  -0.383  0.4028  3.0983 -0.4933
  149MOL0     H20087   4.128  -1.812  -0.169  1.0180  0.5103  3.4399
  149MOL0     H20088   4.078  -1.686  -0.078  0.3908 -3.1471  0.8376
  149MOL0     H20089   4.254  -1.537  -0.144  0.9704 -0.0511  1.6911
  149MOL0     H20090   4.308  -1.694  -0.100  1.4675  2.2754 -0.0058
  149MOL0     H20091   4.275  -1.627  -0.393  0.0287  1.2842  0.3082
  149MOL0     H20092   4.342  -1.773  -0.314  0.2689 -0.6779  3.5451
  149MOL0     H20093   4.496  -1.617  -0.424  0.9683  0.8045 -0.8673
  149MOL0     H20094   4.439  -1.487  -0.310  0.4527 -0.8770  3.0354
  149MOL0     H20095   3.449  -1.465  -0.324  0.2192 -0.4897 -2.7443
  149MOL0     H20096   3.225  -1.431  -0.262 -0.8527 -0.7054  2.2164
  149MOL0     H20097   2.804  -1.572  -0.209 -3.5705  0.1153 -1.5862
  149MOL0     H20098   2.585  -1.477  -0.170 -0.9947  1.5329  1.4648
  149MOL0     H20099   2.558  -0.043   0.264 -0.0150 -1.1774 -1.2044
  149MOL0     H20100   2.681   0.161   0.276  0.5652  0.2714  0.2986
  149MOL0     H20101   2.541   0.619   0.353  0.0224 -0.2907  0.5822
  149MOL0     H20102   2.561   0.835   0.415  0.4713 -0.9837  1.5173
  149MOL0     H20103   2.635   1.048   0.462  0.0459  2.6770 -3.4125
  149MOL0     H20104   2.773   1.155   0.463  1.3943 -0.1462 -2.5000
  149MOL0     H20105   2.798   0.901   0.627  0.5152  0.7717  1.8077
  149MOL0     H20106   2.734   1.047   0.685  0.0425  0.2716  1.0374
  149MOL0     H20107   2.997   1.043   0.542  1.8757  2.4733  0.5012
  149MOL0     H20108   2.989   1.012   0.719 -0.7112  2.9709  1.7617
  149MOL0     H20109   2.883   1.267   0.590 -3.5211  0.3094  2.1504
  149MOL0     H20110   2.870   1.216   0.753  1.0830 -0.3103 -0.1766
  149MOL0     H20111   3.287   1.322   0.719 -0.8154  0.5011  1.1623
  149MOL0     H20112   2.948   0.834   0.213  1.0574 -2.7744 -3.4596
  149MOL0     H20113   3.010   0.526   0.163 -0.6393 -2.9122 -0.8308
  149MOL0     H20114   2.919   0.556   0.019 -0.4761  2.2538  0.0904
  149MOL0     H20115   3.017   0.688   0.072  1.6436 -2.9286 -1.8860
  150MOL0     O20116   9.838   2.411   9.707 -0.0079 -0.2889 -0.5343
  150MOL0     C20117   9.810   2.532   9.703 -0.2458  0.4867 -0.3976
  150MOL0     O20118   9.891   2.624   9.641  0.3972 -0.3862 -1.2624
  150MOL0     C20119  10.018   2.603   9.589  0.2257  0.9898  0.0734
  150MOL0     C20120  10.041   2.612   9.451 -0.9710 -0.0089 -0.1886
  150MOL0     C20121  10.164   2.596   9.396 -0.8768  0.9033  0.7558
  150MOL0     C20122  10.277   2.574   9.473  0.8884 -0.0620  0.1922
  150MOL0     O20123  10.407   2.565   9.425 -0.0717 -0.2868  0.2185
  150MOL0     C20124  10.446   2.632   9.305 -0.2450 -0.1423 -0.3798
  150MOL0     C20125  10.596   2.613   9.281  0.1804 -0.2577 -0.1077
  150MOL0     C20126  10.645   2.669   9.151  0.8713  0.2752  0.6519
  150MOL0     C20127  10.801   2.698   9.150 -0.2243  0.0695  0.4346
  150MOL0     C20128  10.859   2.630   9.026 -0.1291 -0.1450 -0.4175
  150MOL0     C20129  11.013   2.667   9.011  0.5002  0.1131  0.1588
  150MOL0     C20130  11.106   2.574   9.083 -0.2325 -0.3611 -0.3418
  150MOL0     C20131  11.258   2.621   9.078 -0.2062 -1.4516  0.0919
  150MOL0     N20132  11.314   2.618   8.943 -0.7493  0.0627 -0.8151
  150MOL0     C20133  11.391   2.505   8.908  0.3995  0.0090 -0.1244
  150MOL0     C20134  11.428   2.520   8.781  0.2889  0.0619  0.3878
  150MOL0     C20135  11.486   2.408   8.698 -0.6238 -0.5716 -1.0317
  150MOL0     C20136  11.631   2.435   8.671 -0.3617 -0.5996 -0.5172
  150MOL0     C20137  11.676   2.363   8.540  0.6428 -0.0277  1.0546
  150MOL0     C20138  11.832   2.388   8.522  0.6663 -0.7100  1.2372
  150MOL0     O20139  11.858   2.530   8.515  0.2366  0.1004  0.7662
  150MOL0     C20140  11.978   2.571   8.449 -0.5398 -0.3663  0.4528
  150MOL0     C20141  12.090   2.485   8.431 -0.9227 -0.2298 -0.0270
  150MOL0     C20142  12.209   2.530   8.371 -0.1939  0.4535  0.2999
  150MOL0     C20143  12.226   2.669   8.336  1.0664  0.0567  0.2076
  150MOL0     C20144  12.354   2.717   8.278 -0.0696  1.1361 -0.3348
  150MOL0     O20145  12.450   2.623   8.253  0.0159  0.3107 -0.3067
  150MOL0     C20146  12.577   2.668   8.235 -0.3997  0.5249 -0.3370
  150MOL0     C20147  12.638   2.769   8.311  0.3281 -0.1036  0.4528
  150MOL0     C20148  12.770   2.817   8.278  0.6471  0.1895  0.0208
  150MOL0     C20149  12.831   2.753   8.166 -0.6474 -1.0416 -0.2938
  150MOL0     O20150  12.960   2.788   8.123  0.6573 -0.8009 -1.3328
  150MOL0     C20151  12.961   2.903   8.033  1.3744  0.5853 -0.2578
  150MOL0     C20152  13.089   2.936   7.972 -0.6625 -0.4422 -0.3231
  150MOL0     C20153  13.187   3.001   8.074 -0.0034 -0.4972 -0.8990
  150MOL0     C20154  13.328   3.034   8.026 -0.0029 -0.0207  0.5048
  150MOL0     C20155  13.428   3.068   8.140  0.2896  0.2660  0.4564
  150MOL0     C20156  13.405   3.201   8.226  0.0523  0.5111  0.5914
  150MOL0     C20157  13.510   3.225   8.330 -1.0493 -0.1624  0.1423
  150MOL0     C20158  13.504   3.133   8.448  0.4189 -0.2098 -0.4706
  150MOL0    Cl20159  13.376   3.167   8.561  0.3636 -0.1928  0.1041
  150MOL0     C20160  12.768   2.660   8.089 -0.0924  0.4116 -0.4890
  150MOL0     C20161  12.644   2.610   8.133  0.1991  0.4749  0.1249
  150MOL0     O20162  12.363   2.837   8.268  0.6879 -0.2443  0.5247
  150MOL0     C20163  12.122   2.759   8.375 -0.1739  0.3452 -0.0027
  150MOL0     C20164  12.001   2.711   8.425  0.4468  0.0004 -0.8069
  150MOL0     N20165  11.386   2.645   8.741  0.5109  0.1273  0.8504
  150MOL0     N20166  11.317   2.704   8.842  0.4182 -0.3494  0.4855
  150MOL0     C20167  10.256   2.559   9.609 -0.3229 -1.4406  0.6361
  150MOL0     C20168  10.130   2.564   9.672 -0.0078 -0.0421 -0.9118
  150MOL0     C20169   9.688   2.585   9.772  0.6276 -0.6649 -0.3895
  150MOL0     C20170   9.672   2.723   9.789 -0.5824 -0.3759  0.9660
  150MOL0     C20171   9.559   2.785   9.839 -0.2000  0.5756 -0.3212
  150MOL0     C20172   9.454   2.704   9.899 -0.4446  0.2028  0.9238
  150MOL0     O20173   9.357   2.772   9.966  0.5220 -0.5758  0.4598
  150MOL0     C20174   9.229   2.712   9.999  0.1862  0.3080 -0.5949
  150MOL0     C20175   9.241   2.655  10.142  0.9125  0.1203  0.5840
  150MOL0     C20176   9.087   2.609  10.185 -1.1594 -0.0565  0.7265
  150MOL0     C20177   9.086   2.516  10.306 -0.0580  0.1482 -0.0878
  150MOL0     C20178   8.951   2.493  10.363 -0.0598  0.0166 -0.0214
  150MOL0     C20179   8.841   2.473  10.390 -0.5523  0.3548 -0.0462
  150MOL0     C20180   9.471   2.565   9.894  0.5706  0.3156  0.0398
  150MOL0     C20181   9.577   2.505   9.824 -0.3283 -0.7720 -0.0043
  150MOL0     C20182   9.563   2.358   9.796 -0.6603  1.2550  0.1496
  150MOL0     H20183   9.955   2.631   9.388 -1.1940 -2.8547 -0.8984
  150MOL0     H20184  10.184   2.602   9.289  0.8118 -0.0513  0.9768
  150MOL0     H20185  10.396   2.584   9.220  1.4358 -0.9291 -0.9756
  150MOL0     H20186  10.404   2.732   9.316 -1.9313 -0.9777  1.4896
  150MOL0     H20187  10.607   2.505   9.283  0.2359 -0.2629 -0.5227
  150MOL0     H20188  10.659   2.669   9.350 -1.9161  2.9081 -0.5106
  150MOL0     H20189  10.595   2.763   9.127  1.8029  0.7253  0.4372
  150MOL0     H20190  10.614   2.597   9.075  1.7839  0.2955  0.2541
  150MOL0     H20191  10.823   2.805   9.161  0.0144  0.2661 -1.5738
  150MOL0     H20192  10.856   2.667   9.239 -1.0914 -0.4120  0.8028
  150MOL0     H20193  10.849   2.523   9.047  0.6768 -0.0671  0.4675
  150MOL0     H20194  10.805   2.668   8.939 -2.1965 -3.2078 -0.6204
  150MOL0     H20195  11.035   2.667   8.904  1.2652  0.9474  0.3040
  150MOL0     H20196  11.029   2.771   9.042  0.5636  0.1255  0.0820
  150MOL0     H20197  11.089   2.470   9.055  3.0016 -2.0788  3.1829
  150MOL0     H20198  11.086   2.566   9.190  0.2359  0.5513 -0.1802
  150MOL0     H20199  11.250   2.730   9.092  1.2189 -1.1817 -0.9776
  150MOL0     H20200  11.330   2.583   9.151  1.0223 -0.6268 -0.6547
  150MOL0     H20201  11.398   2.415   8.967  0.0977 -0.0021 -0.1060
  150MOL0     H20202  11.465   2.313   8.747 -2.3393 -0.2142 -1.0061
  150MOL0     H20203  11.420   2.410   8.611 -1.6104 -1.6229 -0.3337
  150MOL0     H20204  11.648   2.542   8.654  0.2086 -0.7624 -0.9888
  150MOL0     H20205  11.685   2.399   8.759 -5.0322 -1.4376  2.3512
  150MOL0     H20206  11.610   2.406   8.464 -3.1310 -3.1652  2.2845
  150MOL0     H20207  11.655   2.256   8.544  1.0986 -0.0820  2.5840
  150MOL0     H20208  11.859   2.340   8.428  1.2853 -2.3404  2.2001
  150MOL0     H20209  11.891   2.332   8.596  0.4738 -0.8308  1.2990
  150MOL0     H20210  12.078   2.380   8.458 -3.2202 -0.3142 -1.1164
  150MOL0     H20211  12.294   2.467   8.347  0.8470  2.2148 -0.8773
  150MOL0     H20212  12.591   2.812   8.399 -0.0214  1.2140 -0.3399
  150MOL0     H20213  12.813   2.902   8.329 -3.2077  4.3778 -2.8609
  150MOL0     H20214  12.906   2.866   7.946 -0.4224 -0.2501  1.1765
  150MOL0     H20215  12.910   2.991   8.072  0.6765  0.1896 -0.2665
  150MOL0     H20216  13.137   2.845   7.933 -0.9572 -0.1709 -1.3532
  150MOL0     H20217  13.068   3.004   7.889 -0.7143 -0.9639 -0.7443
  150MOL0     H20218  13.145   3.092   8.119 -0.3053 -1.3199  0.5245
  150MOL0     H20219  13.198   2.938   8.162 -2.0622 -0.0533 -0.2715
  150MOL0     H20220  13.316   3.112   7.950 -0.3612  1.0380  1.6207
  150MOL0     H20221  13.367   2.948   7.971  1.1336  0.6706  0.2016
  150MOL0     H20222  13.525   3.077   8.089  0.9429  2.5997  1.9655
  150MOL0     H20223  13.424   2.974   8.196 -1.2806 -0.6069 -1.0030
  150MOL0     H20224  13.401   3.286   8.158  0.8463 -0.5615 -0.8534
  150MOL0     H20225  13.305   3.202   8.270 -1.3630 -0.0537 -2.3607
  150MOL0     H20226  13.508   3.330   8.360 -0.3697  0.4662 -1.8579
  150MOL0     H20227  13.607   3.212   8.281 -0.8272  0.5769  0.3791
  150MOL0     H20228  13.500   3.029   8.416  1.2783 -0.1606 -0.7519
  150MOL0     H20229  13.596   3.160   8.499  1.0738  0.0539 -1.7569
  150MOL0     H20230  12.821   2.625   8.000 -1.8034 -0.2278 -1.2915
  150MOL0     H20231  12.599   2.532   8.072 -1.4485  1.9355 -0.6171
  150MOL0     H20232  12.144   2.864   8.356  0.4652  0.0574 -0.8747
  150MOL0     H20233  11.916   2.774   8.449 -0.5074 -1.8175  0.8656
  150MOL0     H20234  10.341   2.548   9.675 -0.7867 -2.2991  1.1061
  150MOL0     H20235  10.124   2.567   9.780 -0.4781  2.5988 -0.9299
  150MOL0     H20236   9.750   2.788   9.751 -2.4285  2.4370  1.6840
  150MOL0     H20237   9.546   2.892   9.831 -0.8143  0.5129 -0.2346
  150MOL0     H20238   9.197   2.634   9.928  1.4793  0.7625 -1.7098
  150MOL0     H20239   9.146   2.783   9.997  1.5984  2.0285 -3.7677
  150MOL0     H20240   9.278   2.728  10.214  1.6142 -1.0383  1.4375
  150MOL0     H20241   9.302   2.564  10.142  1.1271  0.2643  0.3895
  150MOL0     H20242   9.037   2.563  10.099  0.4426 -0.8139  0.1550
  150MOL0     H20243   9.020   2.693  10.204 -2.7295 -0.2753 -3.0932
  150MOL0     H20244   9.117   2.417  10.270  0.9295 -0.6207  2.6678
  150MOL0     H20245   9.162   2.549  10.377 -1.0702 -2.8739  2.6184
  150MOL0     H20246   8.740   2.449  10.417 -1.0052  0.2403 -1.7701
  150MOL0     H20247   9.403   2.498   9.945  2.2808  1.0259  3.5237
  150MOL0     H20248   9.482   2.306   9.847  0.9958 -3.5182 -1.5183
  150MOL0     H20249   9.561   2.334   9.690  0.7586 -1.1126  0.5975
  150MOL0     H20250   9.653   2.318   9.843 -2.1819  0.4606  2.5825
  151MOL0     O20251   0.881  10.353   2.650  0.9516  0.8991  0.2362
  151MOL0     C20252   0.814  10.311   2.742  0.9373 -0.2831  0.4814
  151MOL0     O20253   0.862  10.255   2.858 -0.9196 -0.3088  0.1212
  151MOL0     C20254   1.001  10.279   2.869  0.5142 -0.9244  0.1337
  151MOL0     C20255   1.088  10.169   2.870  0.3585  0.1659 -0.2996
  151MOL0     C20256   1.224  10.181   2.878  1.0594  0.0242  0.2922
  151MOL0     C20257   1.283  10.304   2.886  0.2732  0.5360  0.2776
  151MOL0     O20258   1.425  10.295   2.894  0.1409 -0.0008 -0.5218
  151MOL0     C20259   1.503  10.418   2.893 -0.3345 -1.2676  0.3958
  151MOL0     C20260   1.632  10.400   2.969 -0.7739 -0.6722  0.1641
  151MOL0     C20261   1.746  10.403   2.867  0.4881 -0.4565 -0.5618
  151MOL0     C20262   1.877  10.357   2.944 -0.1471 -0.8439  0.1673
  151MOL0     C20263   2.001  10.396   2.865  0.1034 -0.4907 -0.4245
  151MOL0     C20264   2.130  10.390   2.948 -0.1775 -1.0071 -0.3488
  151MOL0     C20265   2.260  10.404   2.853 -0.7234 -0.6952 -0.0163
  151MOL0     C20266   2.374  10.336   2.930 -0.2421  0.8440  0.3255
  151MOL0     N20267   2.394  10.414   3.047 -0.2933  0.0592 -0.7444
  151MOL0     C20268   2.473  10.528   3.055 -0.4873  0.3409  0.4167
  151MOL0     C20269   2.467  10.567   3.186  1.2060  1.1322  0.1114
  151MOL0     C20270   2.555  10.667   3.249  0.4173  0.8979  0.5309
  151MOL0     C20271   2.690  10.608   3.312  0.4566 -0.3192  0.2973
  151MOL0     C20272   2.720  10.659   3.456  0.3379  0.9166 -0.2543
  151MOL0     C20273   2.854  10.632   3.506 -0.7832 -0.1747 -0.4983
  151MOL0     O20274   2.891  10.495   3.518  0.4377 -0.0431 -0.1917
  151MOL0     C20275   2.852  10.426   3.633 -0.0209  0.5860  0.3178
  151MOL0     C20276   2.919  10.301   3.651 -0.1245 -0.0424  0.4004
  151MOL0     C20277   2.890  10.216   3.755  0.4146  0.7143 -0.5669
  151MOL0     C20278   2.784  10.239   3.840 -0.3396  0.2359 -0.2880
  151MOL0     C20279   2.745  10.142   3.950  0.3160  0.1580  0.9693
  151MOL0     O20280   2.634  10.161   4.030  1.3636 -0.0551 -0.1927
  151MOL0     C20281   2.576  10.071   4.120 -0.7501 -0.7292 -0.7830
  151MOL0     C20282   2.624   9.946   4.165  0.0598  0.1155  0.0759
  151MOL0     C20283   2.558   9.874   4.265 -0.1995 -0.2380  2.0223
  151MOL0     C20284   2.451   9.924   4.329 -0.4868  0.4112  0.6636
  151MOL0     O20285   2.388   9.847   4.434 -1.1687 -0.3293  0.0278
  151MOL0     C20286   2.277   9.909   4.502  0.2024  0.4288  0.0195
  151MOL0     C20287   2.281   9.870   4.655  0.3389 -0.3387  0.1070
  151MOL0     C20288   2.149   9.909   4.737 -0.6965 -0.4171  0.2479
  151MOL0     C20289   2.015   9.844   4.691 -0.2731 -0.6633  0.6008
  151MOL0     C20290   1.882   9.908   4.743  0.1769  0.6656  0.7504
  151MOL0     C20291   1.762   9.843   4.673  0.5156  0.4894  0.6955
  151MOL0     C20292   1.629   9.917   4.710 -0.4242 -0.1468  0.8890
  151MOL0     C20293   1.511   9.889   4.617  0.7122 -0.0983  0.3723
  151MOL0    Cl20294   1.472   9.722   4.606  0.0817  0.5373 -0.3295
  151MOL0     C20295   2.402  10.048   4.285  0.1545  0.4359  0.2389
  151MOL0     C20296   2.460  10.120   4.178  0.0552  0.4957  0.6919
  151MOL0     O20297   2.805  10.039   3.941 -0.4823 -0.4165  0.0838
  151MOL0     C20298   2.735  10.370   3.837  0.3575  0.1460  0.0306
  151MOL0     C20299   2.762  10.463   3.733 -0.2454 -0.1741 -1.7106
  151MOL0     N20300   2.374  10.487   3.261  0.2245 -0.0490 -0.4611
  151MOL0     N20301   2.350  10.391   3.172  0.4649  0.2081 -0.0665
  151MOL0     C20302   1.201  10.426   2.890 -0.3273  0.3762  0.1701
  151MOL0     C20303   1.067  10.407   2.885  0.7277  0.2760  0.4920
  151MOL0     C20304   0.665  10.311   2.726  0.9539 -0.2647  0.3923
  151MOL0     C20305   0.602  10.194   2.768  0.2646 -0.2430  0.8500
  151MOL0     C20306   0.465  10.176   2.774  0.6381  0.3500 -0.1754
  151MOL0     C20307   0.376  10.288   2.750 -0.7096 -0.0613  0.8589
  151MOL0     O20308   0.239  10.300   2.756  0.2469 -0.0045 -0.0522
  151MOL0     C20309   0.175  10.186   2.792  0.3546  0.4546  0.0145
  151MOL0     C20310   0.022  10.222   2.816 -0.7461  0.7471 -0.6559
  151MOL0     C20311  -0.047  10.256   2.689 -0.0469  0.1570  0.4603
  151MOL0     C20312  -0.191  10.201   2.687  0.1407  0.0255 -0.8046
  151MOL0     C20313  -0.289  10.286   2.760 -0.2410  0.5435 -0.5672
  151MOL0     C20314  -0.374  10.354   2.810  0.4421  0.4413 -0.2225
  151MOL0     C20315   0.442  10.412   2.706 -0.0896  0.8971 -0.1542
  151MOL0     C20316   0.580  10.419   2.688  1.2056  0.2152  1.0875
  151MOL0     C20317   0.637  10.545   2.643  0.1240 -0.4712 -1.2293
  151MOL0     H20318   1.051  10.067   2.869  0.7018  0.0204  0.6934
  151MOL0     H20319   1.293  10.098   2.883  2.4735  0.9755 -1.8937
  151MOL0     H20320   1.530  10.454   2.793 -0.7517  1.3269  1.1252
  151MOL0     H20321   1.453  10.503   2.941  0.5373  0.0361 -0.9067
  151MOL0     H20322   1.616  10.311   3.029 -3.5584 -1.4304 -1.5078
  151MOL0     H20323   1.644  10.472   3.051  2.3502 -4.1878  3.1262
  151MOL0     H20324   1.755  10.508   2.838 -0.1892 -0.2593 -0.0727
  151MOL0     H20325   1.723  10.342   2.779 -0.7170 -1.1930  0.2264
  151MOL0     H20326   1.878  10.408   3.041 -1.4493  0.1799 -0.3176
  151MOL0     H20327   1.862  10.251   2.964 -1.4049 -0.2329  3.0069
  151MOL0     H20328   2.002  10.334   2.775  2.8864 -0.9506 -0.1711
  151MOL0     H20329   1.989  10.499   2.830  0.8375  0.2073  1.2713
  151MOL0     H20330   2.105  10.471   3.017 -4.3979 -2.9780  0.7590
  151MOL0     H20331   2.126  10.305   3.017  1.1206 -0.2077  0.7749
  151MOL0     H20332   2.290  10.505   2.825  2.4622 -1.7597 -0.8668
  151MOL0     H20333   2.242  10.341   2.765 -1.6299  0.1984 -0.4992
  151MOL0     H20334   2.342  10.242   2.975 -1.9061  1.3060  0.1959
  151MOL0     H20335   2.465  10.336   2.869 -0.0552  1.6532  0.5821
  151MOL0     H20336   2.534  10.577   2.979 -0.0693  0.8967  1.1077
  151MOL0     H20337   2.545  10.751   3.181 -0.2106 -0.3992 -1.0584
  151MOL0     H20338   2.493  10.721   3.321  1.3668  2.3875  0.2525
  151MOL0     H20339   2.674  10.500   3.322  0.3017 -0.1899  1.6186
  151MOL0     H20340   2.760  10.619   3.229 -0.2463 -0.1362 -0.2824
  151MOL0     H20341   2.643  10.624   3.526  0.0425  0.2804 -0.8921
  151MOL0     H20342   2.709  10.768   3.456  0.4027  0.9225 -0.3637
  151MOL0     H20343   2.864  10.689   3.599 -2.6166 -1.5597  0.6255
  151MOL0     H20344   2.920  10.683   3.436 -2.1334 -0.3066 -1.9277
  151MOL0     H20345   2.997  10.258   3.589 -0.2289  0.8783 -0.3961
  151MOL0     H20346   2.957  10.132   3.768  1.2181  0.9079 -2.9114
  151MOL0     H20347   2.725   9.914   4.141  0.2082 -0.3730  1.2748
  151MOL0     H20348   2.607   9.780   4.288  0.1919 -0.0567  1.9216
  151MOL0     H20349   2.262  10.017   4.491 -0.4848  0.2645 -0.6594
  151MOL0     H20350   2.185   9.881   4.451  0.5256 -1.4222  0.3653
  151MOL0     H20351   2.280   9.761   4.662 -0.9902 -0.3385  0.1480
  151MOL0     H20352   2.365   9.928   4.695 -1.4711  3.1502 -0.7795
  151MOL0     H20353   2.178   9.884   4.840 -1.6785  0.8964  0.8768
  151MOL0     H20354   2.142  10.018   4.729  0.8815 -0.2324  0.9632
  151MOL0     H20355   2.012   9.738   4.717 -0.5318 -1.3091 -1.8037
  151MOL0     H20356   2.012   9.855   4.582 -1.1551 -0.6857  0.6160
  151MOL0     H20357   1.885  10.014   4.718 -0.0258 -0.3384 -4.6275
  151MOL0     H20358   1.874   9.903   4.852 -0.5743  1.9705  0.7779
  151MOL0     H20359   1.782   9.842   4.566 -3.4943  3.0310 -0.2907
  151MOL0     H20360   1.768   9.735   4.693  2.0380  0.1184 -1.4392
  151MOL0     H20361   1.652  10.024   4.713  1.0230 -0.4486  1.4229
  151MOL0     H20362   1.600   9.884   4.810  1.1009 -0.7150  1.1592
  151MOL0     H20363   1.418   9.942   4.644 -0.0285  0.1599 -2.3503
  151MOL0     H20364   1.540   9.912   4.514 -1.1242  1.7900  0.1901
  151MOL0     H20365   2.320  10.098   4.336 -0.1299 -1.0216  1.2990
  151MOL0     H20366   2.427  10.218   4.146  3.4904  1.5001 -0.1698
  151MOL0     H20367   2.658  10.396   3.909  1.0278  0.2301  0.7240
  151MOL0     H20368   2.699  10.551   3.745 -1.7184 -1.5304  1.8759
  151MOL0     H20369   1.241  10.527   2.887  0.8748 -0.1144 -1.1040
  151MOL0     H20370   0.995  10.487   2.876 -1.1922 -1.4885 -1.0425
  151MOL0     H20371   0.661  10.105   2.786  0.4848 -0.0560  1.0497
  151MOL0     H20372   0.419  10.080   2.797  2.3588 -0.9166 -1.7148
  151MOL0     H20373   0.213  10.138   2.882  0.4074 -0.7212 -0.6117
  151MOL0     H20374   0.174  10.111   2.712 -1.8862  1.3145 -0.8601
  151MOL0     H20375   0.013  10.295   2.897  3.3227  1.8818 -1.0112
  151MOL0     H20376  -0.023  10.141   2.874  0.4362  1.8092  1.9150
  151MOL0     H20377   0.019  10.212   2.614  0.1025  1.9071 -0.4789
  151MOL0     H20378  -0.040  10.365   2.679  0.0846  0.3125  1.9721
  151MOL0     H20379  -0.220  10.216   2.582  3.5007  1.1725 -1.7207
  151MOL0     H20380  -0.185  10.094   2.712  0.1262  0.3503  0.6576
  151MOL0     H20381  -0.446  10.417   2.857 -0.5657 -0.9626  0.1741
  151MOL0     H20382   0.379  10.500   2.691 -2.9838 -0.6641  1.8333
  151MOL0     H20383   0.574  10.598   2.570  0.5680 -0.9143 -1.9516
  151MOL0     H20384   0.660  10.609   2.728  4.8046  2.0203 -3.9631
  151MOL0     H20385   0.733  10.533   2.592  0.4997 -3.7858 -0.0494
  152MOL0     O20386   9.492   1.519   6.452 -0.6318 -0.2039  0.4645
  152MOL0     C20387   9.413   1.436   6.407 -0.2942 -1.2723  0.6324
  152MOL0     O20388   9.393   1.404   6.271 -0.1054  0.0250  0.0847
  152MOL0     C20389   9.447   1.495   6.180 -0.8225  0.6406  0.3532
  152MOL0     C20390   9.377   1.609   6.148  0.8327 -0.1202  0.4950
  152MOL0     C20391   9.446   1.704   6.066 -0.4585  0.3355  0.1825
  152MOL0     C20392   9.574   1.680   6.019  1.1401 -0.2337 -0.2084
  152MOL0     O20393   9.631   1.755   5.929  0.2407 -0.7004  0.1516
  152MOL0     C20394   9.697   1.861   5.998 -0.2746 -0.0091  0.2553
  152MOL0     C20395   9.741   1.961   5.896 -0.4856  0.5798 -0.0843
  152MOL0     C20396   9.862   1.898   5.821  0.7850 -0.1724 -0.0830
  152MOL0     C20397   9.999   1.927   5.889 -0.7980  0.3291 -0.3231
  152MOL0     C20398  10.023   2.078   5.879  0.0822 -0.0172 -0.3448
  152MOL0     C20399  10.180   2.118   5.913  0.5018  0.8237  0.5860
  152MOL0     C20400  10.257   2.118   5.785  0.3519  0.3019  0.1898
  152MOL0     C20401  10.406   2.135   5.808 -1.3781 -1.3028  0.5492
  152MOL0     N20402  10.472   2.141   5.678 -0.6887 -0.3269  0.0880
  152MOL0     C20403  10.487   2.248   5.595 -0.5051 -0.1013 -0.3503
  152MOL0     C20404  10.540   2.201   5.482 -0.4153  0.1021 -0.1908
  152MOL0     C20405  10.572   2.279   5.363  0.8223 -0.0290 -0.3108
  152MOL0     C20406  10.718   2.322   5.361  0.1825  0.3573 -0.6281
  152MOL0     C20407  10.719   2.409   5.235 -0.3877 -0.2741  0.7464
  152MOL0     C20408  10.860   2.468   5.206  0.8907 -0.1397 -0.5041
  152MOL0     O20409  10.915   2.394   5.097 -0.4813 -0.3087 -0.2016
  152MOL0     C20410  11.033   2.332   5.136  0.4528  0.2813 -0.3444
  152MOL0     C20411  11.029   2.193   5.168  0.7721 -0.1594  0.1440
  152MOL0     C20412  11.147   2.117   5.170 -0.6831  0.1660 -0.3733
  152MOL0     C20413  11.268   2.189   5.176  0.4737 -0.1566  1.0569
  152MOL0     C20414  11.390   2.119   5.230 -0.6871 -0.0209 -0.2204
  152MOL0     O20415  11.385   1.984   5.223  0.0872 -0.1922 -0.7843
  152MOL0     C20416  11.488   1.907   5.264  0.5739  0.1683 -0.6700
  152MOL0     C20417  11.532   1.793   5.197  0.7372  0.6220  0.2867
  152MOL0     C20418  11.631   1.711   5.260  0.8841  0.3494 -0.8558
  152MOL0     C20419  11.687   1.744   5.385  0.2966  0.3679 -0.0664
  152MOL0     O20420  11.805   1.682   5.431 -0.9859  0.0614  0.4204
  152MOL0     C20421  11.887   1.630   5.327  0.4485 -0.6493  0.1292
  152MOL0     C20422  12.027   1.614   5.371  0.1749 -0.2381  0.2942
  152MOL0     C20423  12.054   1.486   5.456  0.6553 -1.6142  0.0378
  152MOL0     C20424  12.189   1.476   5.531  0.3904  0.4871 -0.1329
  152MOL0     C20425  12.299   1.392   5.453 -0.1961  0.0675 -0.9205
  152MOL0     C20426  12.442   1.391   5.508 -0.4160 -0.4947 -0.5677
  152MOL0     C20427  12.445   1.385   5.659  0.2360  0.7186 -1.0131
  152MOL0     C20428  12.581   1.350   5.723 -0.4452  0.3923 -0.6654
  152MOL0    Cl20429  12.683   1.482   5.708 -0.3190  0.5578  0.7034
  152MOL0     C20430  11.648   1.854   5.455 -0.4779 -0.4785  0.5174
  152MOL0     C20431  11.550   1.935   5.388 -0.5502  0.3656 -0.3916
  152MOL0     O20432  11.484   2.180   5.270  0.1262  0.0471  0.5942
  152MOL0     C20433  11.266   2.325   5.143 -0.4488  0.4942 -0.0784
  152MOL0     C20434  11.150   2.394   5.112  0.1055  0.7609  0.6707
  152MOL0     N20435  10.561   2.061   5.502  0.3038 -0.1158 -0.1548
  152MOL0     N20436  10.517   2.032   5.617 -0.3236  1.2576 -0.5944
  152MOL0     C20437   9.640   1.558   6.042  1.0546 -0.2512 -0.5371
  152MOL0     C20438   9.574   1.472   6.132  0.0464  0.6453 -0.3719
  152MOL0     C20439   9.340   1.371   6.506 -0.3457  0.2071 -0.0735
  152MOL0     C20440   9.417   1.308   6.602 -0.5587 -1.7592 -0.2331
  152MOL0     C20441   9.352   1.231   6.701  0.1912 -0.1970  0.1469
  152MOL0     C20442   9.218   1.215   6.701 -0.8416  0.1908  0.4333
  152MOL0     O20443   9.165   1.156   6.811 -0.6686  0.8587  0.6582
  152MOL0     C20444   9.079   1.227   6.885  0.4466  0.1981  0.1314
  152MOL0     C20445   9.129   1.295   7.014  0.0200 -0.1781 -0.4590
  152MOL0     C20446   9.207   1.202   7.104  0.4366  0.3612  0.0769
  152MOL0     C20447   9.109   1.082   7.154 -0.0198  0.3734 -0.8726
  152MOL0     C20448   8.978   1.120   7.211  0.7883 -0.0348 -0.1364
  152MOL0     C20449   8.873   1.173   7.243 -0.4004 -0.5815 -0.3234
  152MOL0     C20450   9.140   1.277   6.600  0.1488  0.5905  0.0281
  152MOL0     C20451   9.197   1.359   6.504  0.5595 -0.3853 -0.0339
  152MOL0     C20452   9.115   1.423   6.405 -0.1606  0.0507 -0.2037
  152MOL0     H20453   9.276   1.621   6.187  1.5484 -2.2735  3.2880
  152MOL0     H20454   9.395   1.793   6.032 -0.8704  0.1005  0.1724
  152MOL0     H20455   9.628   1.915   6.064 -1.3499  0.3753 -1.1375
  152MOL0     H20456   9.778   1.821   6.059 -0.6928 -0.6821  0.3785
  152MOL0     H20457   9.775   2.048   5.953  0.7584 -0.7924  1.3485
  152MOL0     H20458   9.659   1.997   5.833 -2.8794 -1.0460  1.9199
  152MOL0     H20459   9.850   1.944   5.722 -0.8809 -1.0858 -0.3372
  152MOL0     H20460   9.844   1.791   5.814 -3.8041  0.3809 -0.1090
  152MOL0     H20461   9.997   1.892   5.993 -2.8658  1.6365  0.1501
  152MOL0     H20462  10.079   1.883   5.829  1.4398  2.9381  0.5614
  152MOL0     H20463  10.002   2.121   5.781  3.7753 -0.3517 -1.4648
  152MOL0     H20464   9.965   2.131   5.954  0.0039 -0.2627 -0.2296
  152MOL0     H20465  10.172   2.218   5.957 -2.8926 -0.3044  2.8989
  152MOL0     H20466  10.220   2.041   5.980  0.7651 -1.6030 -2.1946
  152MOL0     H20467  10.213   2.196   5.721 -0.1627 -1.8309 -2.2520
  152MOL0     H20468  10.237   2.019   5.742  2.2234  0.3685 -0.9355
  152MOL0     H20469  10.439   2.229   5.853  3.5051 -2.1458 -0.6086
  152MOL0     H20470  10.433   2.049   5.870 -2.8877 -0.6999  2.1004
  152MOL0     H20471  10.474   2.355   5.610  1.3753  0.2101 -0.6332
  152MOL0     H20472  10.551   2.216   5.275  1.6184 -4.8748  2.5893
  152MOL0     H20473  10.511   2.367   5.382 -1.7309 -2.3538  3.7302
  152MOL0     H20474  10.726   2.385   5.451  0.2767 -0.2100 -0.2372
  152MOL0     H20475  10.795   2.245   5.370  2.2930  2.5712  2.4670
  152MOL0     H20476  10.662   2.502   5.236  0.6611  0.3971  1.6356
  152MOL0     H20477  10.683   2.352   5.149 -0.9755 -1.6972  1.8900
  152MOL0     H20478  10.924   2.465   5.295 -1.5098  1.9656  1.4349
  152MOL0     H20479  10.860   2.574   5.179 -0.1723  0.0943  0.3643
  152MOL0     H20480  10.929   2.152   5.164  1.4074 -1.8458  0.6301
  152MOL0     H20481  11.142   2.013   5.203 -0.3307  1.1519  3.1814
  152MOL0     H20482  11.486   1.767   5.102 -0.2391 -1.2921  1.2090
  152MOL0     H20483  11.666   1.628   5.199  0.7017  0.2796 -0.8651
  152MOL0     H20484  11.849   1.530   5.305  2.6132 -1.2539 -1.1551
  152MOL0     H20485  11.898   1.682   5.231 -0.6547  0.6501  0.6704
  152MOL0     H20486  12.105   1.624   5.295  0.0290  1.1978  0.3125
  152MOL0     H20487  12.055   1.704   5.427  1.3070  0.4649 -1.3212
  152MOL0     H20488  11.972   1.485   5.528 -1.3895  3.0910 -1.8678
  152MOL0     H20489  12.040   1.393   5.401 -1.5372 -2.3226  1.6659
  152MOL0     H20490  12.171   1.433   5.630  1.3309  0.9012  0.2256
  152MOL0     H20491  12.219   1.580   5.550 -0.5626  1.0535 -1.5443
  152MOL0     H20492  12.306   1.438   5.355  2.5148 -0.1639 -0.9105
  152MOL0     H20493  12.259   1.291   5.440  0.7504 -0.3084 -1.0207
  152MOL0     H20494  12.491   1.304   5.464  2.1468  1.4722 -1.9104
  152MOL0     H20495  12.495   1.477   5.466  2.7763 -1.1791  1.6688
  152MOL0     H20496  12.384   1.296   5.681  0.4767  0.3966 -1.6349
  152MOL0     H20497  12.399   1.479   5.692 -2.0705  0.4041 -3.0298
  152MOL0     H20498  12.581   1.327   5.830  1.5296  0.7166 -0.5554
  152MOL0     H20499  12.617   1.257   5.679 -0.6752  0.7194 -1.5564
  152MOL0     H20500  11.692   1.881   5.550  1.6774  1.4371 -0.9285
  152MOL0     H20501  11.503   2.013   5.446 -2.1921 -1.4144  0.7884
  152MOL0     H20502  11.353   2.389   5.147 -1.0180  1.2347  1.9303
  152MOL0     H20503  11.159   2.497   5.079  0.8111  0.6855  0.6111
  152MOL0     H20504   9.746   1.536   6.030  1.1547 -0.7120  0.9427
  152MOL0     H20505   9.632   1.386   6.164  2.2161  0.8232 -3.4178
  152MOL0     H20506   9.525   1.319   6.610 -0.7295 -0.2766  0.3910
  152MOL0     H20507   9.427   1.188   6.766 -1.1201  0.2090  2.0293
  152MOL0     H20508   8.988   1.167   6.897  0.6067 -0.3902 -1.2640
  152MOL0     H20509   9.050   1.314   6.826 -0.2743  0.7554  1.2762
  152MOL0     H20510   9.039   1.339   7.057  1.4186  2.2426  0.1946
  152MOL0     H20511   9.190   1.384   6.992 -0.5674  0.1109 -0.9604
  152MOL0     H20512   9.244   1.249   7.196 -0.2224  4.0298 -1.3720
  152MOL0     H20513   9.297   1.182   7.046  1.4581  2.5781  0.7994
  152MOL0     H20514   9.080   1.024   7.066 -0.0464  0.6670 -1.0599
  152MOL0     H20515   9.162   1.012   7.219  0.7608  1.9814  0.2838
  152MOL0     H20516   8.787   1.230   7.272  0.7942  0.3367  1.5771
  152MOL0     H20517   9.034   1.254   6.599  0.2872 -0.0934  0.2578
  152MOL0     H20518   9.118   1.357   6.318  0.5318  0.5837 -0.5975
  152MOL0     H20519   9.016   1.447   6.444  0.2228 -0.4832  1.1380
  152MOL0     H20520   9.156   1.516   6.364 -1.4763  0.5181 -0.5153
  153MOL0     O20521   6.829   2.626   6.508  0.0483  0.6444 -0.6625
  153MOL0     C20522   6.894   2.528   6.474  0.0369 -0.7181  0.3709
  153MOL0     O20523   6.841   2.426   6.405 -0.8611 -0.1792 -0.8417
  153MOL0     C20524   6.703   2.397   6.415 -0.1143 -0.6846  0.5069
  153MOL0     C20525   6.638   2.380   6.290 -0.2850  0.0666 -0.3939
  153MOL0     C20526   6.492   2.371   6.289 -1.2435 -0.5739 -0.8596
  153MOL0     C20527   6.423   2.358   6.407  1.2126  0.6526  0.6853
  153MOL0     O20528   6.288   2.331   6.397 -0.1376  0.0192  0.3176
  153MOL0     C20529   6.239   2.224   6.492 -0.3494 -0.5566  0.1338
  153MOL0     C20530   6.091   2.223   6.482 -0.1139 -0.5993 -1.0408
  153MOL0     C20531   6.038   2.204   6.339 -0.1357  0.1237  0.8192
  153MOL0     C20532   5.877   2.183   6.331 -0.5263 -0.1004 -0.4908
  153MOL0     C20533   5.821   2.205   6.188  0.2080  0.5558 -0.3190
  153MOL0     C20534   5.818   2.076   6.099 -0.4872  0.2550  0.3470
  153MOL0     C20535   5.715   1.980   6.154  0.6892 -0.1154 -0.1787
  153MOL0     C20536   5.677   1.864   6.056  0.7269  0.5724  0.1488
  153MOL0     N20537   5.764   1.748   6.070 -0.0724  0.6297  0.6938
  153MOL0     C20538   5.714   1.621   6.047  0.0972 -0.4828 -0.3864
  153MOL0     C20539   5.826   1.544   6.051  0.5116 -0.6316  0.8992
  153MOL0     C20540   5.832   1.392   6.032  0.8591 -0.4595  0.7139
  153MOL0     C20541   5.801   1.361   5.889  0.1158 -0.5811  0.4607
  153MOL0     C20542   5.815   1.205   5.862  1.0061 -0.3402  0.5321
  153MOL0     C20543   5.785   1.149   5.723 -0.5813 -1.2174  0.0796
  153MOL0     O20544   5.891   1.192   5.637  0.3970 -0.6187 -0.7826
  153MOL0     C20545   6.018   1.142   5.627 -0.0937 -0.1333 -0.4890
  153MOL0     C20546   6.057   1.031   5.699 -0.3286 -0.2077  1.1909
  153MOL0     C20547   6.192   0.999   5.707 -0.4777 -0.2584 -0.0375
  153MOL0     C20548   6.281   1.065   5.621 -0.0722  0.2348  0.3304
  153MOL0     C20549   6.420   1.018   5.618 -0.2815  0.1241  0.0446
  153MOL0     O20550   6.508   1.093   5.556  0.3077 -0.3166  0.5037
  153MOL0     C20551   6.628   1.026   5.536  0.0220  0.2199  0.3947
  153MOL0     C20552   6.655   0.932   5.428 -0.7548  0.2261  0.5433
  153MOL0     C20553   6.787   0.912   5.382 -0.2219 -0.0933 -0.5745
  153MOL0     C20554   6.896   0.970   5.453  0.9232  0.8307 -0.3612
  153MOL0     O20555   7.019   0.939   5.411  0.3004  0.8980  0.6844
  153MOL0     C20556   7.113   1.051   5.431  0.0469  0.2327 -0.1959
  153MOL0     C20557   7.252   1.021   5.385  0.8687  0.4127 -0.1473
  153MOL0     C20558   7.252   1.004   5.234  0.4310 -0.1927  0.3407
  153MOL0     C20559   7.393   0.964   5.176 -0.4216  1.0140 -0.3991
  153MOL0     C20560   7.370   0.885   5.044  0.0300 -0.2096 -0.7576
  153MOL0     C20561   7.510   0.835   4.993  0.8015 -0.4151 -0.5074
  153MOL0     C20562   7.497   0.730   4.881  0.0865  0.4407  0.2788
  153MOL0     C20563   7.376   0.747   4.787  0.2997 -0.2748 -0.5137
  153MOL0    Cl20564   7.401   0.881   4.670 -0.3502 -0.4402 -0.5975
  153MOL0     C20565   6.864   1.048   5.567  0.8147 -0.3684 -0.0802
  153MOL0     C20566   6.732   1.068   5.616  0.1689  0.3762 -0.6085
  153MOL0     O20567   6.445   0.921   5.679  0.9357  0.1280  0.6816
  153MOL0     C20568   6.230   1.161   5.534 -0.9506 -0.3791 -0.5153
  153MOL0     C20569   6.102   1.209   5.534 -0.7595  0.4389  0.2973
  153MOL0     N20570   5.945   1.618   6.060  0.4949 -0.4692  0.8962
  153MOL0     N20571   5.904   1.742   6.075  0.4018  0.1877  0.0791
  153MOL0     C20572   6.494   2.376   6.525  0.6566  0.0667  0.5350
  153MOL0     C20573   6.630   2.403   6.535 -0.2149 -0.4517  0.3573
  153MOL0     C20574   7.038   2.523   6.494  0.7445  0.1873 -0.2838
  153MOL0     C20575   7.113   2.411   6.447 -0.1484  0.7038  0.6107
  153MOL0     C20576   7.241   2.387   6.476  0.2442 -0.2937  0.2968
  153MOL0     C20577   7.305   2.471   6.571 -0.3744 -0.1284 -0.9253
  153MOL0     O20578   7.422   2.418   6.612  0.0618 -0.0395 -0.0933
  153MOL0     C20579   7.500   2.496   6.701  0.3407 -0.3602  1.1174
  153MOL0     C20580   7.618   2.419   6.748 -0.1442 -0.3974  0.1055
  153MOL0     C20581   7.566   2.288   6.824  0.7352 -0.0162  0.3449
  153MOL0     C20582   7.693   2.226   6.890  0.5392 -0.1010 -0.1949
  153MOL0     C20583   7.730   2.285   7.022  0.6803 -0.0048  0.2693
  153MOL0     C20584   7.748   2.322   7.137 -0.0267  0.1707 -0.1438
  153MOL0     C20585   7.229   2.577   6.622 -0.4304  0.2616 -0.4922
  153MOL0     C20586   7.099   2.605   6.591  0.4379  0.1917  0.3208
  153MOL0     C20587   7.034   2.725   6.661 -0.3588 -0.3962 -0.0071
  153MOL0     H20588   6.700   2.382   6.201 -0.0348 -2.1928 -0.3377
  153MOL0     H20589   6.434   2.386   6.198 -0.4097  1.3948 -1.1203
  153MOL0     H20590   6.280   2.125   6.470  2.6431  0.2078  1.6629
  153MOL0     H20591   6.264   2.239   6.597 -2.3764  0.0097  0.5805
  153MOL0     H20592   6.048   2.319   6.512 -1.6690 -1.6997  0.4249
  153MOL0     H20593   6.047   2.156   6.556  0.3295  1.5220  1.2588
  153MOL0     H20594   6.084   2.120   6.287 -0.1302  1.1539 -0.9380
  153MOL0     H20595   6.061   2.293   6.279  0.5326 -1.0059 -0.6731
  153MOL0     H20596   5.835   2.105   6.395 -0.0429  0.4414  0.5121
  153MOL0     H20597   5.851   2.278   6.378 -1.8153 -0.1734 -1.0235
  153MOL0     H20598   5.714   2.226   6.197 -0.6984 -3.8072  2.5147
  153MOL0     H20599   5.878   2.286   6.141  4.8037 -1.6516  0.8836
  153MOL0     H20600   5.789   2.121   6.003  1.7594  0.6830 -0.1930
  153MOL0     H20601   5.915   2.028   6.113 -1.8920 -2.1246  2.7744
  153MOL0     H20602   5.632   2.026   6.208  0.3085 -1.4889  0.4573
  153MOL0     H20603   5.763   1.920   6.232  0.4428 -1.8199 -1.2820
  153MOL0     H20604   5.573   1.836   6.070  0.7893 -0.1995 -0.8181
  153MOL0     H20605   5.684   1.887   5.949 -1.0605  0.5511  0.0007
  153MOL0     H20606   5.610   1.588   6.050 -0.1522  0.0961  4.0163
  153MOL0     H20607   5.932   1.360   6.064  0.8075  0.2778  1.6572
  153MOL0     H20608   5.767   1.345   6.107  0.5403 -1.7948 -0.3464
  153MOL0     H20609   5.698   1.396   5.878 -0.2878 -0.2778  3.9750
  153MOL0     H20610   5.877   1.412   5.830 -0.7235 -1.4339 -1.4426
  153MOL0     H20611   5.743   1.157   5.929  1.2006  0.8538  1.6360
  153MOL0     H20612   5.914   1.169   5.893  0.8682 -4.0729 -2.6285
  153MOL0     H20613   5.690   1.194   5.694  0.7031  0.6613 -1.4867
  153MOL0     H20614   5.772   1.041   5.734  0.5409 -1.3806 -0.0625
  153MOL0     H20615   5.987   0.977   5.761  0.3820 -3.6545 -0.7125
  153MOL0     H20616   6.231   0.921   5.772  0.7544  1.5142  1.4434
  153MOL0     H20617   6.577   0.870   5.384 -1.0559  1.4844 -0.8089
  153MOL0     H20618   6.804   0.842   5.301 -1.6902 -0.2969 -0.7299
  153MOL0     H20619   7.069   1.132   5.373  1.7915  0.7618 -0.8387
  153MOL0     H20620   7.117   1.069   5.539 -0.8730 -1.7701  0.2207
  153MOL0     H20621   7.321   1.097   5.423  1.5338 -0.6239  0.8051
  153MOL0     H20622   7.290   0.927   5.427  0.5182  0.0387 -0.6652
  153MOL0     H20623   7.166   0.939   5.216  0.2524 -0.2391  1.2701
  153MOL0     H20624   7.225   1.101   5.190  1.3103  0.7972  1.8620
  153MOL0     H20625   7.432   0.896   5.252 -3.1484 -0.5224 -0.2206
  153MOL0     H20626   7.467   1.043   5.164 -1.0360  1.5523 -0.7050
  153MOL0     H20627   7.322   0.950   4.971  1.0236  0.6521 -0.6614
  153MOL0     H20628   7.299   0.802   5.055 -0.5323 -0.2257 -3.8197
  153MOL0     H20629   7.572   0.917   4.957  0.9944  0.7597  2.2417
  153MOL0     H20630   7.566   0.785   5.073 -1.0399 -1.2565  0.3223
  153MOL0     H20631   7.472   0.631   4.921 -0.5751  0.3080 -0.4347
  153MOL0     H20632   7.593   0.717   4.831  0.0412 -1.5344  0.6270
  153MOL0     H20633   7.368   0.652   4.733  1.2933 -3.3795  4.2376
  153MOL0     H20634   7.280   0.765   4.836 -0.1368  1.3654 -1.8420
  153MOL0     H20635   6.937   1.087   5.637  1.5871  0.4963 -1.3393
  153MOL0     H20636   6.722   1.121   5.710  3.0207 -2.0024  1.2490
  153MOL0     H20637   6.294   1.200   5.455 -3.6305  0.4531 -2.4137
  153MOL0     H20638   6.071   1.283   5.461 -1.2102 -0.9411 -0.9376
  153MOL0     H20639   6.441   2.373   6.620 -0.5239  0.4235 -0.0970
  153MOL0     H20640   6.671   2.428   6.632 -0.3009  0.5228  0.1494
  153MOL0     H20641   7.056   2.341   6.386 -3.4853  1.4629  2.5773
  153MOL0     H20642   7.302   2.313   6.425 -0.0489 -0.9987  0.9492
  153MOL0     H20643   7.441   2.544   6.780  0.0992  2.7202 -0.7831
  153MOL0     H20644   7.532   2.572   6.630 -2.2471 -3.0075 -3.4234
  153MOL0     H20645   7.652   2.497   6.817 -5.9770  0.6839  2.2484
  153MOL0     H20646   7.684   2.381   6.669 -0.5240 -0.9497  0.0552
  153MOL0     H20647   7.524   2.217   6.752  1.3801 -0.5232  0.4594
  153MOL0     H20648   7.489   2.308   6.899 -0.4631 -2.2767 -0.1991
  153MOL0     H20649   7.667   2.120   6.888 -0.2568  0.0117  1.8108
  153MOL0     H20650   7.775   2.231   6.818  1.6323 -0.1363  1.0243
  153MOL0     H20651   7.766   2.376   7.228 -0.2401  2.6680 -1.4897
  153MOL0     H20652   7.278   2.619   6.710 -1.4995 -0.9889  0.7422
  153MOL0     H20653   6.955   2.695   6.731 -0.1248  0.0110  0.4356
  153MOL0     H20654   7.096   2.788   6.725 -2.8136  2.0858  0.1183
  153MOL0     H20655   6.995   2.800   6.592  1.3098 -0.3390 -0.9342
  154MOL0     O20656   7.539   5.127   5.006 -0.2266 -0.0384 -0.3724
  154MOL0     C20657   7.622   5.034   4.996  0.8651  0.1372 -0.1672
  154MOL0     O20658   7.755   5.056   4.971  0.8607  0.1844  0.2812
  154MOL0     C20659   7.801   5.189   4.960  0.1722 -0.3547  0.4131
  154MOL0     C20660   7.840   5.232   4.827 -0.9178 -0.5981 -0.4816
  154MOL0     C20661   7.884   5.358   4.803 -0.1722  0.3539 -0.0514
  154MOL0     C20662   7.906   5.457   4.905  0.9860  0.2867  0.2228
  154MOL0     O20663   7.956   5.585   4.888  0.6466  0.4308 -0.1094
  154MOL0     C20664   8.078   5.635   4.950  0.0678  0.5608 -0.8844
  154MOL0     C20665   8.192   5.583   4.862 -0.4988  0.2337  0.7599
  154MOL0     C20666   8.326   5.642   4.894 -0.0971  0.8635 -0.5475
  154MOL0     C20667   8.403   5.582   5.017  0.4156  0.3096  0.5707
  154MOL0     C20668   8.547   5.615   5.037 -0.2196  0.4689  0.6833
  154MOL0     C20669   8.579   5.768   5.056  0.8653  0.5100  0.5194
  154MOL0     C20670   8.734   5.793   5.074  0.5339  0.7192 -0.5333
  154MOL0     C20671   8.819   5.797   4.956 -1.0768 -0.5573  0.2080
  154MOL0     N20672   8.964   5.802   4.997 -0.1458  0.3949  0.1775
  154MOL0     C20673   9.068   5.882   4.950 -0.0507 -0.0676 -0.4692
  154MOL0     C20674   9.185   5.854   5.013 -0.2942 -0.4683 -0.0738
  154MOL0     C20675   9.327   5.903   4.972  0.6237  0.3271  0.6784
  154MOL0     C20676   9.400   5.797   4.886 -0.8786  0.0502 -0.1014
  154MOL0     C20677   9.550   5.783   4.932  0.5018  0.0930  0.3449
  154MOL0     C20678   9.636   5.909   4.921 -0.4696  0.0753 -0.5271
  154MOL0     O20679   9.765   5.873   4.981 -0.4351  0.2218  0.3296
  154MOL0     C20680   9.839   5.768   4.925 -0.0381 -0.4979  0.1973
  154MOL0     C20681   9.859   5.758   4.788  0.4385  0.4170 -1.3286
  154MOL0     C20682   9.941   5.656   4.733  0.1608 -0.0599 -0.3848
  154MOL0     C20683  10.002   5.567   4.821  0.1332  0.9769 -0.6167
  154MOL0     C20684  10.087   5.451   4.778 -0.5523 -0.0939  0.1180
  154MOL0     O20685  10.103   5.447   4.640 -0.0837  0.0162 -1.0593
  154MOL0     C20686  10.166   5.340   4.581  0.4587  0.5818 -0.0758
  154MOL0     C20687  10.293   5.352   4.535 -0.2439 -1.4606  0.3111
  154MOL0     C20688  10.354   5.255   4.448  0.9993  0.2951 -0.1672
  154MOL0     C20689  10.284   5.136   4.420 -0.4485  0.2104  0.0286
  154MOL0     O20690  10.346   5.033   4.349  0.2429  0.3461  0.6168
  154MOL0     C20691  10.299   4.900   4.363 -0.0133  0.4171  0.6214
  154MOL0     C20692  10.378   4.792   4.279 -0.4120  0.0032  0.4616
  154MOL0     C20693  10.349   4.654   4.338  0.0809  0.4928  0.5021
  154MOL0     C20694  10.213   4.580   4.308 -0.9021 -0.0653 -0.2082
  154MOL0     C20695  10.190   4.455   4.413 -0.3260  0.3823  0.3873
  154MOL0     C20696  10.051   4.381   4.371  0.3346 -0.0628  0.5535
  154MOL0     C20697  10.030   4.260   4.455 -0.7527  0.4418  0.4538
  154MOL0     C20698   9.885   4.202   4.431  0.7233 -0.3750 -0.9762
  154MOL0    Cl20699   9.861   4.129   4.272  0.2415 -0.3465 -0.8018
  154MOL0     C20700  10.152   5.114   4.470  1.0073 -1.6580 -0.1934
  154MOL0     C20701  10.097   5.220   4.554  0.4786 -0.5685 -0.1357
  154MOL0     O20702  10.138   5.373   4.861 -0.5537 -0.1377 -0.3028
  154MOL0     C20703   9.977   5.581   4.954  0.3722  0.6599  0.1401
  154MOL0     C20704   9.907   5.683   5.004 -0.5624 -0.5902 -0.1960
  154MOL0     N20705   9.150   5.753   5.105  1.1972 -1.0832  0.2039
  154MOL0     N20706   9.024   5.725   5.094  0.0600 -0.3882 -1.1577
  154MOL0     C20707   7.862   5.412   5.030  0.4573  0.3025 -0.6350
  154MOL0     C20708   7.815   5.282   5.063 -0.4778 -0.1237  0.3947
  154MOL0     C20709   7.576   4.900   4.986 -0.3846  0.2585 -0.3587
  154MOL0     C20710   7.656   4.800   4.935  0.0445 -1.0630  0.4677
  154MOL0     C20711   7.631   4.661   4.928 -0.9413  0.3707  0.0524
  154MOL0     C20712   7.505   4.621   4.978  0.0884  0.5320  0.5636
  154MOL0     O20713   7.476   4.490   4.953  0.3263  0.2655 -0.0732
  154MOL0     C20714   7.409   4.464   4.832 -0.7765 -0.1538  0.6924
  154MOL0     C20715   7.357   4.318   4.842  0.8075 -1.1148  0.0767
  154MOL0     C20716   7.268   4.276   4.732 -0.4153  0.4487  0.0520
  154MOL0     C20717   7.223   4.125   4.764 -0.3072  0.3089  0.0643
  154MOL0     C20718   7.120   4.138   4.870 -0.5187  0.2673 -0.2882
  154MOL0     C20719   7.031   4.146   4.955 -0.1721  0.4136 -1.6986
  154MOL0     C20720   7.414   4.723   5.030 -0.2036 -0.4727 -1.1817
  154MOL0     C20721   7.449   4.855   5.035 -0.1545 -0.4396 -0.1686
  154MOL0     C20722   7.350   4.941   5.113 -0.0478 -0.5027  0.1439
  154MOL0     H20723   7.831   5.167   4.741  3.1462 -0.2640 -1.3662
  154MOL0     H20724   7.884   5.388   4.699 -2.7605  1.9908  0.3345
  154MOL0     H20725   8.082   5.744   4.945  0.9817  0.5820  0.0595
  154MOL0     H20726   8.088   5.606   5.055  2.6692 -2.1951 -1.7450
  154MOL0     H20727   8.170   5.606   4.757  0.7652 -0.1277  0.4024
  154MOL0     H20728   8.198   5.474   4.870  2.1226  0.2229 -0.2753
  154MOL0     H20729   8.322   5.751   4.896  0.5190  0.9907 -2.9301
  154MOL0     H20730   8.395   5.615   4.813 -0.3498 -1.6465 -0.0128
  154MOL0     H20731   8.346   5.601   5.109  0.7425 -0.3211  0.9106
  154MOL0     H20732   8.396   5.474   5.005 -0.2579  0.2558  1.3549
  154MOL0     H20733   8.573   5.561   5.128 -0.4358 -1.9371 -0.5981
  154MOL0     H20734   8.608   5.576   4.955 -2.5352  0.0047 -0.9347
  154MOL0     H20735   8.548   5.822   4.966  2.3527 -0.6320 -0.7300
  154MOL0     H20736   8.524   5.805   5.143 -1.1217  0.3868 -0.6224
  154MOL0     H20737   8.757   5.708   5.138 -2.1765 -1.3393 -2.0584
  154MOL0     H20738   8.743   5.893   5.118  0.1026  1.3555 -1.8201
  154MOL0     H20739   8.813   5.714   4.884 -0.1801 -2.3012  2.0519
  154MOL0     H20740   8.815   5.891   4.900 -2.5052  0.1631  1.4874
  154MOL0     H20741   9.069   5.947   4.862  1.4197 -1.6369 -1.6780
  154MOL0     H20742   9.327   6.003   4.925  1.3014  1.1941  2.4353
  154MOL0     H20743   9.382   5.923   5.065  2.1671 -2.2417  0.4060
  154MOL0     H20744   9.351   5.699   4.898 -1.0665  0.2936  1.2896
  154MOL0     H20745   9.406   5.823   4.780  0.5671  1.1868  0.2286
  154MOL0     H20746   9.596   5.701   4.876  2.2271 -0.8543  2.9146
  154MOL0     H20747   9.554   5.755   5.038 -2.6523 -0.3819  0.4371
  154MOL0     H20748   9.596   5.992   4.979  3.1275  2.3591 -0.9512
  154MOL0     H20749   9.654   5.945   4.819 -0.0613  1.1567 -0.0873
  154MOL0     H20750   9.808   5.834   4.729 -0.0853  0.9870 -0.1736
  154MOL0     H20751   9.958   5.650   4.625  3.0618  3.3653 -0.3140
  154MOL0     H20752  10.341   5.449   4.548 -1.5776 -0.5950 -0.9923
  154MOL0     H20753  10.459   5.269   4.424  0.7249  1.1181 -0.9395
  154MOL0     H20754  10.296   4.878   4.470 -1.8666 -0.9856  0.3340
  154MOL0     H20755  10.197   4.885   4.328 -0.8239 -1.5379  3.4284
  154MOL0     H20756  10.349   4.789   4.174  1.6824 -1.8556 -0.1291
  154MOL0     H20757  10.482   4.826   4.283 -0.6659  1.5212 -2.7484
  154MOL0     H20758  10.435   4.597   4.302  1.3360  1.7629  1.3732
  154MOL0     H20759  10.348   4.651   4.447  0.7040 -0.1544  0.4968
  154MOL0     H20760  10.218   4.537   4.207 -1.8079  1.0344 -0.7495
  154MOL0     H20761  10.133   4.653   4.321  2.3018  3.4777  1.3592
  154MOL0     H20762  10.187   4.484   4.519  2.1971  0.1637  0.5743
  154MOL0     H20763  10.270   4.381   4.398 -1.4669 -0.7943 -0.1010
  154MOL0     H20764   9.976   4.459   4.388  0.7368  0.7465 -1.1652
  154MOL0     H20765  10.053   4.355   4.265 -2.6964  1.0799  0.0996
  154MOL0     H20766  10.057   4.270   4.561  1.9016  2.1630 -0.3059
  154MOL0     H20767  10.097   4.189   4.406 -1.3770  0.4502 -0.4318
  154MOL0     H20768   9.857   4.121   4.499  0.1356 -0.1347 -0.9265
  154MOL0     H20769   9.815   4.282   4.455  2.2191  0.4812  0.8136
  154MOL0     H20770  10.093   5.026   4.447 -0.0333 -1.4570  1.5156
  154MOL0     H20771   9.994   5.224   4.589  0.5801  3.4293  0.2123
  154MOL0     H20772  10.010   5.510   5.030 -3.3727 -1.9022 -0.3363
  154MOL0     H20773   9.901   5.697   5.112 -1.1424 -2.2932  0.0179
  154MOL0     H20774   7.876   5.491   5.103  1.5580 -0.0665 -0.4280
  154MOL0     H20775   7.783   5.274   5.166 -5.8042  1.0027 -0.8606
  154MOL0     H20776   7.752   4.836   4.902 -0.1177  1.6079  2.5622
  154MOL0     H20777   7.697   4.596   4.873  0.7839  2.2814 -0.2356
  154MOL0     H20778   7.485   4.467   4.754 -1.5783 -2.9539 -0.3007
  154MOL0     H20779   7.333   4.542   4.818 -0.5052 -0.2482 -1.7789
  154MOL0     H20780   7.309   4.305   4.939  0.8223 -3.5281 -0.1724
  154MOL0     H20781   7.445   4.253   4.850  0.1957 -2.0178 -0.2796
  154MOL0     H20782   7.335   4.263   4.647  1.3738 -3.1782  1.7777
  154MOL0     H20783   7.177   4.336   4.719 -1.1650 -0.4025  1.1178
  154MOL0     H20784   7.188   4.070   4.676  0.6935 -2.4390  1.2700
  154MOL0     H20785   7.310   4.069   4.799 -0.7892 -0.9239 -0.6834
  154MOL0     H20786   6.948   4.145   5.023 -0.2970 -0.5967 -1.8590
  154MOL0     H20787   7.325   4.684   5.078 -0.5741 -1.5259 -2.6792
  154MOL0     H20788   7.279   4.888   5.177 -0.7167  0.9602  0.6465
  154MOL0     H20789   7.400   5.013   5.177 -0.2271 -0.5370  0.3217
  154MOL0     H20790   7.284   4.993   5.042 -1.8828  1.5162  3.1102
  155MOL0     O20791  10.881   1.880   0.510  0.6500  0.0619 -0.1332
  155MOL0     C20792  10.997   1.871   0.536  0.1360  0.4544  0.2978
  155MOL0     O20793  11.055   1.819   0.645  0.3849  0.2287 -0.9422
  155MOL0     C20794  10.968   1.810   0.756 -0.5359  0.8602 -0.3584
  155MOL0     C20795  10.922   1.683   0.789 -0.7476  0.7848 -0.2200
  155MOL0     C20796  10.828   1.674   0.897  0.1160  0.3057 -0.7996
  155MOL0     C20797  10.798   1.786   0.974  0.2259 -0.3525  0.3625
  155MOL0     O20798  10.701   1.761   1.068 -0.3038  0.6039  0.2167
  155MOL0     C20799  10.600   1.865   1.086  0.0619  0.1605 -0.0396
  155MOL0     C20800  10.463   1.847   1.016  0.0971 -0.9420 -0.6886
  155MOL0     C20801  10.361   1.955   1.058 -0.0356  0.5594 -0.0192
  155MOL0     C20802  10.368   2.075   0.955  0.4303 -0.0266 -0.1987
  155MOL0     C20803  10.311   2.203   1.019  0.5097  1.2731  0.0838
  155MOL0     C20804  10.349   2.328   0.933 -0.7029  1.2265  0.3792
  155MOL0     C20805  10.310   2.458   0.999 -0.0184  0.1607  0.3828
  155MOL0     C20806  10.401   2.510   1.109  0.1277 -1.1738  0.0624
  155MOL0     N20807  10.344   2.632   1.179  0.5337  0.5951  0.2027
  155MOL0     C20808  10.368   2.762   1.132  0.6601 -0.6541  0.1720
  155MOL0     C20809  10.305   2.840   1.217 -0.5075  1.1109  0.2373
  155MOL0     C20810  10.312   2.988   1.231  0.5215  0.0276  0.6735
  155MOL0     C20811  10.169   3.059   1.260  1.1101  0.9538  0.6126
  155MOL0     C20812  10.050   3.015   1.165 -0.6134 -0.0099 -0.1125
  155MOL0     C20813   9.931   3.105   1.177  1.0972  0.2550  1.1952
  155MOL0     O20814   9.959   3.242   1.194 -0.1561 -1.4001 -0.3487
  155MOL0     C20815   9.862   3.329   1.213  1.3393 -0.2382  0.1042
  155MOL0     C20816   9.882   3.464   1.248  0.8208 -0.3017 -0.1769
  155MOL0     C20817   9.776   3.549   1.268 -0.4436 -0.5391 -0.4308
  155MOL0     C20818   9.645   3.501   1.252  0.7653 -0.4032 -1.0528
  155MOL0     C20819   9.524   3.593   1.290 -0.5054 -0.0460  0.5499
  155MOL0     O20820   9.401   3.544   1.299 -0.1022  0.2016  0.4066
  155MOL0     C20821   9.299   3.637   1.323 -0.6047  0.1374  0.0534
  155MOL0     C20822   9.244   3.650   1.450 -0.2697 -0.3383 -0.6611
  155MOL0     C20823   9.138   3.735   1.471 -0.3460 -0.1767 -0.1920
  155MOL0     C20824   9.092   3.814   1.361  0.1583  0.4069 -0.2611
  155MOL0     O20825   8.972   3.892   1.362  0.0873 -0.1473  0.0251
  155MOL0     C20826   8.936   3.965   1.471  0.5791  0.1762 -0.9800
  155MOL0     C20827   8.829   4.067   1.432 -0.3602  0.8771 -0.3949
  155MOL0     C20828   8.750   4.103   1.554 -0.2008  0.4376  0.0567
  155MOL0     C20829   8.636   4.192   1.524  0.0257  0.4236  0.3740
  155MOL0     C20830   8.560   4.248   1.646 -0.3175  0.4987 -0.2442
  155MOL0     C20831   8.538   4.137   1.760 -0.3783 -1.1129 -0.5287
  155MOL0     C20832   8.510   4.193   1.902 -1.0488  0.0349  0.4075
  155MOL0     C20833   8.449   4.093   2.001  0.8656 -0.3839  0.3979
  155MOL0    Cl20834   8.303   4.015   1.951  0.0731 -0.0997  0.3319
  155MOL0     C20835   9.125   3.780   1.233 -0.4503  1.1620 -0.1434
  155MOL0     C20836   9.239   3.705   1.214 -1.2077 -0.1556 -1.0556
  155MOL0     O20837   9.554   3.713   1.311  0.1690 -0.1285  0.3399
  155MOL0     C20838   9.624   3.376   1.210  0.7204 -0.3795  0.0115
  155MOL0     C20839   9.729   3.287   1.189  0.7972  0.4296 -0.8368
  155MOL0     N20840  10.241   2.770   1.316 -0.1161  0.5930 -0.1507
  155MOL0     N20841  10.270   2.647   1.295  0.3387  0.0869 -0.7899
  155MOL0     C20842  10.855   1.912   0.951 -0.4025  0.1305 -0.7632
  155MOL0     C20843  10.938   1.918   0.835 -0.3384 -0.2000  0.5710
  155MOL0     C20844  11.093   1.903   0.428 -0.2907  0.0818 -0.5225
  155MOL0     C20845  11.193   1.816   0.396 -0.0263 -0.3970 -0.1950
  155MOL0     C20846  11.288   1.838   0.298 -0.1005 -0.9150 -0.2718
  155MOL0     C20847  11.285   1.959   0.224 -0.0434 -0.7775  0.6070
  155MOL0     O20848  11.384   1.993   0.124  0.7859 -0.6174 -0.6779
  155MOL0     C20849  11.441   2.112   0.148 -0.4671 -0.2045 -0.0480
  155MOL0     C20850  11.522   2.117   0.280  0.5187 -0.4671  0.0195
  155MOL0     C20851  11.616   1.992   0.281  0.8415 -0.4327  0.1907
  155MOL0     C20852  11.749   2.032   0.348 -1.2996 -0.0099  0.9366
  155MOL0     C20853  11.843   2.126   0.275  0.2074  0.5105 -0.0751
  155MOL0     C20854  11.925   2.182   0.217  0.4826 -0.2990 -0.0769
  155MOL0     C20855  11.180   2.050   0.248  0.0682 -0.0511 -0.4718
  155MOL0     C20856  11.090   2.024   0.349  0.3140 -0.2557  0.0835
  155MOL0     C20857  10.980   2.120   0.361 -0.2298 -0.5012 -0.4076
  155MOL0     H20858  10.940   1.587   0.743  0.5593  1.0921 -0.3883
  155MOL0     H20859  10.787   1.579   0.929  1.8247 -0.2813 -0.2271
  155MOL0     H20860  10.573   1.858   1.192 -2.0798  1.8542 -0.3893
  155MOL0     H20861  10.630   1.964   1.051 -3.4671  1.5922  0.5394
  155MOL0     H20862  10.415   1.754   1.047  1.5922 -0.9564  1.8221
  155MOL0     H20863  10.475   1.837   0.908  3.0494 -0.0690 -0.5266
  155MOL0     H20864  10.387   1.989   1.159 -0.4453 -3.5116  1.6375
  155MOL0     H20865  10.263   1.909   1.045  1.3278 -1.9305 -2.4245
  155MOL0     H20866  10.475   2.091   0.946  0.3196  1.2388  0.4844
  155MOL0     H20867  10.322   2.049   0.859 -0.1520  0.7871 -0.1529
  155MOL0     H20868  10.203   2.192   1.025  0.3669  2.2560 -0.4887
  155MOL0     H20869  10.345   2.211   1.123 -2.6737  0.3517  1.3221
  155MOL0     H20870  10.453   2.326   0.900 -1.1331 -0.0835 -0.9586
  155MOL0     H20871  10.298   2.329   0.837  2.9272 -0.4426 -1.7819
  155MOL0     H20872  10.206   2.443   1.031  0.6403 -3.6721  1.2150
  155MOL0     H20873  10.323   2.536   0.923 -0.2438 -0.5152 -0.3546
  155MOL0     H20874  10.439   2.430   1.172 -0.1327 -0.2932  1.3895
  155MOL0     H20875  10.493   2.546   1.062  0.7868  1.6630  3.1862
  155MOL0     H20876  10.423   2.789   1.042  0.4062  3.7244  1.1205
  155MOL0     H20877  10.375   2.993   1.320 -2.3952 -0.5613  2.9348
  155MOL0     H20878  10.354   3.033   1.141 -0.2181 -0.9430 -0.1807
  155MOL0     H20879  10.143   3.019   1.358 -2.7869 -2.2511 -1.4186
  155MOL0     H20880  10.189   3.166   1.264 -2.4236  1.7322  0.6631
  155MOL0     H20881  10.020   2.914   1.192 -0.7207  0.8402  3.3746
  155MOL0     H20882  10.076   3.025   1.059  0.4668 -1.4758 -0.0109
  155MOL0     H20883   9.874   3.065   1.262  0.0189 -3.7636 -1.1456
  155MOL0     H20884   9.862   3.091   1.093  3.1781  0.6798 -0.6633
  155MOL0     H20885   9.981   3.509   1.258  0.5849  0.1496  0.1738
  155MOL0     H20886   9.788   3.646   1.317 -2.2483 -1.5297  2.1874
  155MOL0     H20887   9.282   3.606   1.541 -2.9105  1.0167  1.2511
  155MOL0     H20888   9.100   3.749   1.572 -0.6759  0.2107 -0.3686
  155MOL0     H20889   8.876   3.902   1.538 -0.0383  2.5110  0.7825
  155MOL0     H20890   9.017   4.016   1.524  1.0923  0.5759 -2.1171
  155MOL0     H20891   8.881   4.152   1.387 -1.3058  0.1595 -2.9903
  155MOL0     H20892   8.758   4.026   1.360  1.2464 -1.0582 -0.9788
  155MOL0     H20893   8.708   4.011   1.597 -0.7825 -0.4680 -2.2726
  155MOL0     H20894   8.807   4.161   1.626 -0.7194  1.6294 -0.4629
  155MOL0     H20895   8.563   4.126   1.476 -0.1700 -1.6194  3.1590
  155MOL0     H20896   8.664   4.265   1.449  0.1529 -0.3446 -0.3361
  155MOL0     H20897   8.464   4.289   1.612 -0.7120 -1.0737 -1.1121
  155MOL0     H20898   8.608   4.339   1.683 -0.8940  0.8652 -0.3793
  155MOL0     H20899   8.453   4.074   1.733 -1.9748 -0.8459  3.2284
  155MOL0     H20900   8.628   4.078   1.778 -0.1403 -0.0163  2.5366
  155MOL0     H20901   8.444   4.280   1.906 -1.0394  0.1933 -1.7108
  155MOL0     H20902   8.606   4.229   1.941 -0.4037 -3.3511  2.3597
  155MOL0     H20903   8.528   4.019   2.024 -0.4069 -1.4565  1.4797
  155MOL0     H20904   8.433   4.141   2.098  2.5230  1.1429 -0.0281
  155MOL0     H20905   9.062   3.823   1.156  1.2406  0.5577 -1.9525
  155MOL0     H20906   9.284   3.698   1.116 -3.0157  0.0218 -1.9468
  155MOL0     H20907   9.528   3.326   1.206 -0.0209  0.8325  1.7559
  155MOL0     H20908   9.692   3.190   1.159 -1.9722  1.3452 -0.6238
  155MOL0     H20909  10.846   1.993   1.022  0.7213 -3.7920  4.4386
  155MOL0     H20910  10.988   2.011   0.809 -1.4888 -0.0866 -1.4888
  155MOL0     H20911  11.193   1.718   0.443 -1.9453 -0.5177 -0.3564
  155MOL0     H20912  11.362   1.761   0.276  0.2521 -0.6579  0.0046
  155MOL0     H20913  11.376   2.200   0.137  2.1364  1.7097 -1.4545
  155MOL0     H20914  11.509   2.127   0.063 -0.8872 -1.0741 -0.5477
  155MOL0     H20915  11.457   2.121   0.367 -0.0553  0.7736 -0.4353
  155MOL0     H20916  11.590   2.204   0.281 -0.4801  0.4049  3.3466
  155MOL0     H20917  11.636   1.959   0.179 -2.3143  1.3585 -1.1647
  155MOL0     H20918  11.586   1.913   0.350  0.3775 -2.7163 -2.4849
  155MOL0     H20919  11.730   2.069   0.449 -1.3890 -0.3878  1.0577
  155MOL0     H20920  11.805   1.940   0.362  1.8325  0.9276 -3.3785
  155MOL0     H20921  12.000   2.236   0.163  0.1552  0.1733 -0.0684
  155MOL0     H20922  11.163   2.144   0.198 -2.4509  0.3499  0.9495
  155MOL0     H20923  10.994   2.198   0.287  0.2977 -0.9308 -0.7661
  155MOL0     H20924  10.885   2.068   0.341 -0.1012 -0.8368 -0.1558
  155MOL0     H20925  10.989   2.167   0.460 -0.8245 -0.8417 -0.1846
  156MOL0     O20926   3.511   3.312  11.007 -0.1867 -0.1020 -0.9112
  156MOL0     C20927   3.423   3.375  10.958 -1.1094 -0.3708 -0.5486
  156MOL0     O20928   3.439   3.502  10.916  0.8328  0.5154  0.8057
  156MOL0     C20929   3.561   3.560  10.887  0.1650  0.4589  1.1623
  156MOL0     C20930   3.654   3.593  10.990 -0.0895 -0.7053  0.6520
  156MOL0     C20931   3.769   3.669  10.957 -0.7947  0.2879 -0.0106
  156MOL0     C20932   3.807   3.686  10.826 -0.5300 -0.9890  0.0814
  156MOL0     O20933   3.925   3.755  10.799  0.4001  0.7523  0.2574
  156MOL0     C20934   3.932   3.826  10.672 -0.9277 -0.2285 -0.1520
  156MOL0     C20935   4.051   3.918  10.658 -0.4569  0.2928 -0.5368
  156MOL0     C20936   4.024   4.062  10.706  0.3563 -0.5329  0.1134
  156MOL0     C20937   4.152   4.134  10.750  0.3040  0.0423 -0.5090
  156MOL0     C20938   4.143   4.277  10.789 -0.2119 -0.0846  0.4716
  156MOL0     C20939   4.287   4.338  10.818  0.3432 -0.1777 -0.7558
  156MOL0     C20940   4.292   4.469  10.888 -0.2122 -0.5252  0.2652
  156MOL0     C20941   4.432   4.502  10.944 -0.4658  0.4892 -0.0125
  156MOL0     N20942   4.436   4.634  11.009 -0.4070 -0.1894  0.5254
  156MOL0     C20943   4.450   4.755  10.940 -0.0527  0.7273 -0.4646
  156MOL0     C20944   4.451   4.847  11.043 -0.9442  1.3266  0.8644
  156MOL0     C20945   4.491   4.991  11.020 -0.3447 -0.1080 -0.0980
  156MOL0     C20946   4.649   5.024  11.005  0.4346  0.1121  0.8920
  156MOL0     C20947   4.675   5.173  10.978  0.0071  0.2789  0.0910
  156MOL0     C20948   4.723   5.249  11.106  0.4460  1.1092 -0.1385
  156MOL0     O20949   4.622   5.249  11.216  0.3064 -0.0096 -0.2674
  156MOL0     C20950   4.662   5.213  11.342 -0.4830 -0.3514  0.2872
  156MOL0     C20951   4.765   5.130  11.387 -0.7109  0.3702 -0.5806
  156MOL0     C20952   4.792   5.108  11.528 -0.2210 -0.0631  0.4000
  156MOL0     C20953   4.717   5.183  11.623 -0.6549  0.1632  0.6481
  156MOL0     C20954   4.732   5.157  11.769 -0.8204 -0.4874  0.5667
  156MOL0     O20955   4.643   5.214  11.859 -0.0610 -0.0960 -0.4176
  156MOL0     C20956   4.666   5.201  11.993 -0.5115 -0.0199  0.0352
  156MOL0     C20957   4.557   5.161  12.071  0.3368 -0.3937  0.0120
  156MOL0     C20958   4.567   5.161  12.209 -0.9129 -0.8780  0.4225
  156MOL0     C20959   4.685   5.214  12.265  0.2191 -0.8598  0.2567
  156MOL0     O20960   4.681   5.224  12.398 -0.4146  0.9937  0.0167
  156MOL0     C20961   4.795   5.256  12.472 -0.3836  0.2418  0.5079
  156MOL0     C20962   4.769   5.240  12.625 -0.1921 -0.2497 -0.1180
  156MOL0     C20963   4.745   5.092  12.669  0.0746 -0.3332 -0.0166
  156MOL0     C20964   4.703   5.089  12.813  0.2775  0.6612  0.7680
  156MOL0     C20965   4.631   4.955  12.852  0.5146 -0.7130 -0.2619
  156MOL0     C20966   4.493   4.955  12.800  0.6186  0.7293  0.4153
  156MOL0     C20967   4.427   4.817  12.790 -0.5448 -0.0396 -0.9802
  156MOL0     C20968   4.336   4.805  12.668 -0.4784  0.0247  0.4924
  156MOL0    Cl20969   4.177   4.887  12.717  0.1524 -0.0240  0.0495
  156MOL0     C20970   4.789   5.255  12.179 -0.1943 -0.3048  0.8011
  156MOL0     C20971   4.783   5.247  12.044  0.2184  0.1768 -0.4538
  156MOL0     O20972   4.830   5.093  11.799 -0.9284  0.3302  0.4591
  156MOL0     C20973   4.623   5.274  11.570 -0.4855  0.1792  0.3347
  156MOL0     C20974   4.591   5.286  11.439 -0.0432  0.7834  0.8237
  156MOL0     N20975   4.422   4.782  11.158 -0.2669  0.2416  0.0249
  156MOL0     N20976   4.421   4.657  11.140 -0.8466  0.6936 -0.1988
  156MOL0     C20977   3.717   3.638  10.721 -0.2505  0.9697 -0.1348
  156MOL0     C20978   3.594   3.579  10.757  0.2307  0.6013  0.7164
  156MOL0     C20979   3.287   3.312  10.935 -0.3106 -0.2591  0.2491
  156MOL0     C20980   3.194   3.373  10.843  0.0555  0.0290  0.0924
  156MOL0     C20981   3.067   3.333  10.831  0.5660  0.3658  0.4397
  156MOL0     C20982   3.019   3.225  10.908  0.7564 -0.4616 -0.2502
  156MOL0     O20983   2.894   3.181  10.896  0.4685 -0.4210 -0.5763
  156MOL0     C20984   2.875   3.067  10.814  0.7551  0.2327  0.2815
  156MOL0     C20985   2.771   2.975  10.877  0.5102  0.4199 -0.7394
  156MOL0     C20986   2.710   2.858  10.785  0.3936  0.5487  1.0597
  156MOL0     C20987   2.803   2.776  10.679  0.0308 -0.2946  0.3626
  156MOL0     C20988   2.828   2.866  10.566 -1.8108 -0.0545  0.0604
  156MOL0     C20989   2.849   2.937  10.470  0.2484  0.7952  0.0688
  156MOL0     C20990   3.103   3.160  10.989  0.0840  0.5040  0.6281
  156MOL0     C20991   3.237   3.189  10.995 -0.4168 -0.2261 -0.0257
  156MOL0     C20992   3.327   3.094  11.077  0.1739  0.4430  0.2763
  156MOL0     H20993   3.628   3.555  11.089  3.3757 -3.2769  0.7588
  156MOL0     H20994   3.841   3.705  11.029 -0.8667  1.9026 -0.7030
  156MOL0     H20995   3.947   3.745  10.600 -0.1085 -1.3450  1.2314
  156MOL0     H20996   3.839   3.881  10.656 -1.1197  0.0714  1.7692
  156MOL0     H20997   4.068   3.914  10.550 -1.9676 -0.7626 -0.7684
  156MOL0     H20998   4.133   3.870  10.713 -1.7872 -2.9672 -1.2045
  156MOL0     H20999   3.953   4.062  10.790 -2.3028 -1.1895 -2.0036
  156MOL0     H21000   3.966   4.111  10.628  2.3726 -1.3576 -2.0458
  156MOL0     H21001   4.177   4.081  10.843  0.7078 -0.0592 -0.6738
  156MOL0     H21002   4.224   4.125  10.669  0.0808 -1.6652 -0.5713
  156MOL0     H21003   4.083   4.339  10.722 -0.9154 -1.2210  0.0199
  156MOL0     H21004   4.081   4.270  10.879 -0.3135 -1.3417  0.3181
  156MOL0     H21005   4.340   4.260  10.873 -1.4868 -0.6785  0.3872
  156MOL0     H21006   4.340   4.346  10.722 -0.2887  0.5637 -1.0552
  156MOL0     H21007   4.218   4.488  10.966  0.8285  0.4134  1.0652
  156MOL0     H21008   4.263   4.532  10.804  1.5893 -2.7301 -2.1562
  156MOL0     H21009   4.460   4.419  11.010 -1.8534  0.3951  0.4811
  156MOL0     H21010   4.496   4.510  10.856 -0.6430 -0.6324 -0.2555
  156MOL0     H21011   4.475   4.761  10.834 -1.0431 -0.4891 -0.7847
  156MOL0     H21012   4.444   5.020  10.926 -0.2743 -1.0493 -0.4349
  156MOL0     H21013   4.446   5.053  11.098 -0.5580 -0.1155 -0.2156
  156MOL0     H21014   4.706   4.985  11.090  1.1528  1.3381  1.0049
  156MOL0     H21015   4.683   4.971  10.916  0.3040  0.1581  0.8128
  156MOL0     H21016   4.581   5.211  10.936 -0.2235 -0.2654  0.1015
  156MOL0     H21017   4.751   5.188  10.901 -0.0402 -2.5949 -0.6326
  156MOL0     H21018   4.746   5.353  11.083  1.2302  0.2607 -3.7283
  156MOL0     H21019   4.820   5.208  11.137  0.5279  1.2532 -0.2037
  156MOL0     H21020   4.817   5.071  11.312  0.1241 -1.5791  1.4075
  156MOL0     H21021   4.866   5.035  11.559  1.3851  1.8507  1.3218
  156MOL0     H21022   4.471   5.132  12.012  0.4929 -1.7012  0.3887
  156MOL0     H21023   4.485   5.142  12.278 -0.3759 -0.2712  1.2493
  156MOL0     H21024   4.876   5.193  12.434  1.5936  2.4446  0.8638
  156MOL0     H21025   4.820   5.356  12.437 -0.7321  0.5571  1.1384
  156MOL0     H21026   4.854   5.273  12.685  2.2317  0.6509 -3.7506
  156MOL0     H21027   4.683   5.302  12.652 -0.2359 -0.0664 -0.6573
  156MOL0     H21028   4.660   5.066  12.606 -2.6360 -2.9602  4.2827
  156MOL0     H21029   4.837   5.034  12.656  0.8452  0.8676 -0.1105
  156MOL0     H21030   4.624   5.162  12.832  0.2622  0.7941  0.1926
  156MOL0     H21031   4.786   5.119  12.878  2.5110  0.9451 -2.0193
  156MOL0     H21032   4.623   4.944  12.960 -3.5818 -2.3180 -0.5481
  156MOL0     H21033   4.696   4.875  12.814  1.7778 -0.3550  1.0587
  156MOL0     H21034   4.425   5.011  12.865 -1.3002 -1.8283  0.7409
  156MOL0     H21035   4.483   5.008  12.705  0.7950  2.3539  1.2562
  156MOL0     H21036   4.373   4.788  12.881 -3.1017  2.3482 -1.5837
  156MOL0     H21037   4.496   4.734  12.775 -0.2579 -0.4976  2.1992
  156MOL0     H21038   4.382   4.852  12.580 -1.2270  0.4943  0.3451
  156MOL0     H21039   4.311   4.701  12.643 -2.7855  0.6822 -0.1735
  156MOL0     H21040   4.883   5.289  12.221  1.4218 -0.9296 -2.0439
  156MOL0     H21041   4.861   5.285  11.980 -0.1577  1.5067 -0.1683
  156MOL0     H21042   4.557   5.336  11.630 -0.7811  1.4687 -1.2430
  156MOL0     H21043   4.527   5.365  11.400  2.7841  2.1141 -1.5013
  156MOL0     H21044   3.742   3.639  10.616 -2.1261 -1.7634 -0.6908
  156MOL0     H21045   3.531   3.531  10.682 -0.0044 -2.8770  2.9362
  156MOL0     H21046   3.230   3.462  10.793  0.3557  0.1194  0.4650
  156MOL0     H21047   3.004   3.374  10.752  0.5421 -3.0818 -1.5372
  156MOL0     H21048   2.964   3.007  10.792  0.5811  0.5190 -1.3354
  156MOL0     H21049   2.864   3.107  10.712  3.3648 -1.8417 -0.9461
  156MOL0     H21050   2.683   3.023  10.920 -2.2606 -1.7420 -3.5822
  156MOL0     H21051   2.814   2.915  10.958  2.0808  0.3595 -1.5794
  156MOL0     H21052   2.619   2.889  10.733  1.4735  1.3688 -0.4040
  156MOL0     H21053   2.686   2.777  10.855  1.0518 -0.7537 -0.1701
  156MOL0     H21054   2.895   2.754  10.734 -0.5288 -0.0873  1.4107
  156MOL0     H21055   2.756   2.686  10.639 -2.4631  2.1881 -2.8827
  156MOL0     H21056   2.886   3.006  10.396  3.4952 -2.9548 -2.1643
  156MOL0     H21057   3.067   3.076  11.047 -1.9284  0.8023 -0.0919
  156MOL0     H21058   3.427   3.079  11.035 -0.1552 -1.6855  0.1367
  156MOL0     H21059   3.323   3.133  11.179 -5.1229  2.0700 -0.2293
  156MOL0     H21060   3.284   2.994  11.086 -0.1846  0.5225 -0.4141
  157MOL0     O21061   0.201   8.027   8.944 -0.5998 -0.6807  0.4967
  157MOL0     C21062   0.292   8.087   9.004 -0.3192  0.7574 -0.2233
  157MOL0     O21063   0.265   8.186   9.095  0.5139 -0.6512  0.6239
  157MOL0     C21064   0.148   8.256   9.100  0.1199 -0.0474 -0.6427
  157MOL0     C21065   0.093   8.291   9.229 -0.0252 -0.7553  1.1239
  157MOL0     C21066  -0.026   8.378   9.239 -1.1410  0.8880  0.1614
  157MOL0     C21067  -0.099   8.413   9.113 -0.4826 -0.4370 -0.5266
  157MOL0     O21068  -0.215   8.495   9.106  0.2227  0.2406 -0.8840
  157MOL0     C21069  -0.294   8.514   9.222  0.2452 -0.2278 -0.7683
  157MOL0     C21070  -0.431   8.573   9.195 -0.5685  0.4732  0.5841
  157MOL0     C21071  -0.491   8.501   9.079 -0.3094 -1.0464  0.1206
  157MOL0     C21072  -0.629   8.560   9.049  0.5177 -0.2387 -0.5954
  157MOL0     C21073  -0.701   8.482   8.938 -0.0217 -0.0712 -0.0244
  157MOL0     C21074  -0.822   8.555   8.880 -0.2687  0.9631 -0.3885
  157MOL0     C21075  -0.890   8.470   8.777  0.6089  0.8571  0.3766
  157MOL0     C21076  -0.990   8.563   8.716  0.0203 -0.5097 -0.7407
  157MOL0     N21077  -1.073   8.499   8.606  0.2313 -0.1387 -1.1900
  157MOL0     C21078  -1.145   8.382   8.610 -0.3164 -0.7110  0.2178
  157MOL0     C21079  -1.189   8.363   8.481  0.3162 -0.3388  0.3840
  157MOL0     C21080  -1.283   8.256   8.450  0.4818  0.8388  0.4823
  157MOL0     C21081  -1.404   8.302   8.365  0.0207  0.2044  0.3753
  157MOL0     C21082  -1.444   8.198   8.260 -0.1638 -0.3651  0.1214
  157MOL0     C21083  -1.580   8.236   8.209  0.5414  0.8907  0.5214
  157MOL0     O21084  -1.584   8.375   8.162 -0.0362  0.0692  0.0675
  157MOL0     C21085  -1.704   8.436   8.118  0.6593 -1.0041  0.0267
  157MOL0     C21086  -1.826   8.364   8.101 -0.7305  0.4968 -0.2439
  157MOL0     C21087  -1.943   8.420   8.070  0.5006 -0.1132 -0.2632
  157MOL0     C21088  -1.954   8.564   8.057 -0.0762  0.7763  0.3387
  157MOL0     C21089  -2.072   8.634   8.032 -0.1462  0.1630 -1.1947
  157MOL0     O21090  -2.183   8.550   8.033  0.5521 -1.0126 -0.3803
  157MOL0     C21091  -2.307   8.595   7.984 -0.3197 -0.6200  0.8788
  157MOL0     C21092  -2.422   8.615   8.068  0.6359 -0.9734 -0.4233
  157MOL0     C21093  -2.541   8.655   8.015  0.3269  0.2130 -0.3861
  157MOL0     C21094  -2.550   8.675   7.876  0.9535 -0.3185 -0.3045
  157MOL0     O21095  -2.670   8.694   7.814 -0.0153  0.0965 -0.0439
  157MOL0     C21096  -2.790   8.628   7.846  0.4083  0.0999 -0.2802
  157MOL0     C21097  -2.886   8.649   7.735  0.5033  0.0658  0.6272
  157MOL0     C21098  -2.894   8.528   7.654 -0.5906 -0.1188  0.3748
  157MOL0     C21099  -2.769   8.478   7.584  0.2627 -0.4955  0.0862
  157MOL0     C21100  -2.680   8.580   7.499 -0.0225  0.1750  0.8052
  157MOL0     C21101  -2.756   8.621   7.377  0.7989 -0.3512  0.9989
  157MOL0     C21102  -2.672   8.708   7.285  1.4277 -0.1330  0.0369
  157MOL0     C21103  -2.766   8.786   7.185 -1.1176  0.3910 -0.4979
  157MOL0    Cl21104  -2.860   8.679   7.083  0.3586  0.3730  0.0936
  157MOL0     C21105  -2.434   8.667   7.804 -0.4201 -0.4409 -0.3346
  157MOL0     C21106  -2.319   8.623   7.845 -0.6703  0.6509 -0.6356
  157MOL0     O21107  -2.081   8.751   7.990 -0.3290  0.0005  0.6932
  157MOL0     C21108  -1.835   8.631   8.075 -0.0140 -0.5846 -0.7167
  157MOL0     C21109  -1.720   8.571   8.107 -1.2485  0.1250  0.1924
  157MOL0     N21110  -1.131   8.457   8.404 -0.0334 -0.0193 -0.1030
  157MOL0     N21111  -1.081   8.549   8.479  0.1411  0.3409 -0.0571
  157MOL0     C21112  -0.041   8.377   8.988  0.2487  0.6736 -0.1691
  157MOL0     C21113   0.076   8.299   8.990 -1.1329 -0.1250 -0.2683
  157MOL0     C21114   0.437   8.050   8.989  1.2383 -0.1057 -0.1342
  157MOL0     C21115   0.527   8.091   9.088 -0.0270 -0.4360 -0.9332
  157MOL0     C21116   0.668   8.054   9.077 -0.4556  0.9598  0.9750
  157MOL0     C21117   0.712   7.963   8.971 -0.4190 -0.4439  0.1155
  157MOL0     O21118   0.844   7.936   8.962 -0.7892  0.6534 -0.6716
  157MOL0     C21119   0.882   7.815   8.890 -0.7327 -0.3960 -0.2778
  157MOL0     C21120   1.022   7.794   8.955  0.2049 -0.6655  0.5018
  157MOL0     C21121   1.101   7.672   8.907  0.4380 -0.3546  0.0288
  157MOL0     C21122   1.054   7.538   8.957  0.3038  0.3083 -1.0161
  157MOL0     C21123   0.935   7.487   8.895 -0.9819  0.7688 -1.2605
  157MOL0     C21124   0.836   7.432   8.861  0.7060  0.0732  0.1336
  157MOL0     C21125   0.622   7.925   8.873 -0.7806 -0.7148  0.3743
  157MOL0     C21126   0.488   7.967   8.887  0.9130 -0.4455  0.0022
  157MOL0     C21127   0.398   7.922   8.776 -0.0154 -0.2040  0.0600
  157MOL0     H21128   0.148   8.260   9.317 -1.3789  0.0245  2.2904
  157MOL0     H21129  -0.053   8.410   9.339  0.6471  2.8554  0.0774
  157MOL0     H21130  -0.327   8.417   9.261  0.1720 -0.3661 -1.1742
  157MOL0     H21131  -0.238   8.568   9.299 -0.6213  3.3638 -2.4424
  157MOL0     H21132  -0.429   8.680   9.171  4.2651  0.6910  1.0762
  157MOL0     H21133  -0.493   8.556   9.283 -0.4287 -1.5876  0.3220
  157MOL0     H21134  -0.523   8.403   9.116 -2.5376 -0.7269 -0.8165
  157MOL0     H21135  -0.425   8.493   8.993 -1.1277  0.3177 -0.6748
  157MOL0     H21136  -0.686   8.542   9.141  0.1638  0.5351 -0.6555
  157MOL0     H21137  -0.628   8.667   9.030 -0.4243 -0.6709 -3.6967
  157MOL0     H21138  -0.622   8.478   8.862  0.0141  0.2981 -0.0090
  157MOL0     H21139  -0.724   8.381   8.973  3.4546 -0.2319  2.4069
  157MOL0     H21140  -0.895   8.570   8.960 -0.0022 -1.0155  0.2996
  157MOL0     H21141  -0.785   8.649   8.839  0.0621  1.4045  0.8877
  157MOL0     H21142  -0.940   8.385   8.824  1.9058 -0.8617 -1.1957
  157MOL0     H21143  -0.811   8.438   8.709  0.6408  0.3073  0.6683
  157MOL0     H21144  -1.058   8.612   8.786  0.8664  0.7619 -0.7607
  157MOL0     H21145  -0.935   8.645   8.667  0.1712  1.1575  2.0121
  157MOL0     H21146  -1.191   8.337   8.697 -1.6387  1.9398  0.9895
  157MOL0     H21147  -1.230   8.178   8.394 -0.5749 -0.0125  0.6251
  157MOL0     H21148  -1.319   8.211   8.542 -0.4041  0.9130  0.1874
  157MOL0     H21149  -1.490   8.316   8.430  1.5013  2.2480  2.0070
  157MOL0     H21150  -1.378   8.394   8.312  3.3652 -0.3932  0.7380
  157MOL0     H21151  -1.436   8.098   8.303  0.7161  0.5720  2.2805
  157MOL0     H21152  -1.365   8.208   8.184 -1.1405  0.9088 -0.7645
  157MOL0     H21153  -1.644   8.224   8.296  1.4162 -0.2397  1.0350
  157MOL0     H21154  -1.610   8.165   8.131 -1.2876  0.7684  1.2853
  157MOL0     H21155  -1.820   8.256   8.101  0.1691  0.5402 -0.7132
  157MOL0     H21156  -2.015   8.346   8.038  1.1054 -0.0757 -1.8081
  157MOL0     H21157  -2.415   8.583   8.172 -0.6688  1.4498  0.4958
  157MOL0     H21158  -2.633   8.668   8.071 -0.4377 -2.3590 -0.8878
  157MOL0     H21159  -2.780   8.522   7.872  0.1162 -0.2705 -1.5985
  157MOL0     H21160  -2.825   8.669   7.941 -0.1998 -1.5205  0.2365
  157MOL0     H21161  -2.984   8.673   7.779  0.6817 -1.8153  2.1739
  157MOL0     H21162  -2.855   8.738   7.679 -0.2476  0.1250  0.2866
  157MOL0     H21163  -2.931   8.443   7.711 -0.4257 -1.3040 -1.2201
  157MOL0     H21164  -2.974   8.551   7.583 -0.1594  2.0636  0.5152
  157MOL0     H21165  -2.793   8.386   7.529  0.8560 -0.4369 -0.2776
  157MOL0     H21166  -2.706   8.441   7.665  1.5869  1.6380  0.1129
  157MOL0     H21167  -2.593   8.521   7.468  0.4152  1.5769 -0.7608
  157MOL0     H21168  -2.652   8.671   7.552 -0.9915  0.0984  1.4896
  157MOL0     H21169  -2.797   8.541   7.315 -1.7622  0.9516  0.8854
  157MOL0     H21170  -2.847   8.677   7.397  0.6052  1.3692 -3.6039
  157MOL0     H21171  -2.597   8.647   7.235 -1.0145 -2.3828 -1.1654
  157MOL0     H21172  -2.627   8.792   7.338  0.1766  1.1180 -0.8132
  157MOL0     H21173  -2.827   8.848   7.251  0.9743 -0.8132  2.7892
  157MOL0     H21174  -2.707   8.855   7.124  1.7722 -1.8889 -0.4942
  157MOL0     H21175  -2.438   8.672   7.695  2.3913 -1.0984 -0.5361
  157MOL0     H21176  -2.241   8.609   7.771 -0.2154  1.6295 -0.3543
  157MOL0     H21177  -1.826   8.739   8.069  0.6294 -0.6951 -2.0030
  157MOL0     H21178  -1.625   8.619   8.127 -0.4871 -1.8570  1.6049
  157MOL0     H21179  -0.084   8.412   8.895  0.2872  2.0663  0.3235
  157MOL0     H21180   0.101   8.272   8.888  1.8988 -0.2699  0.4105
  157MOL0     H21181   0.496   8.156   9.169  0.5945 -0.1004 -0.9564
  157MOL0     H21182   0.746   8.090   9.144  2.7388 -4.2772  0.5753
  157MOL0     H21183   0.877   7.834   8.782 -2.4007  3.2016  0.2957
  157MOL0     H21184   0.812   7.732   8.905  0.3776 -1.4784 -0.8558
  157MOL0     H21185   1.012   7.797   9.064 -0.9274 -2.3365  0.4823
  157MOL0     H21186   1.082   7.884   8.934 -2.6851  0.7159 -2.8949
  157MOL0     H21187   1.205   7.689   8.935  0.6267  0.0105 -0.8321
  157MOL0     H21188   1.094   7.669   8.797 -1.0731  0.5775  0.0792
  157MOL0     H21189   1.137   7.478   8.918  2.2364  1.6251  0.8201
  157MOL0     H21190   1.046   7.538   9.066  1.0986 -0.8426 -0.9300
  157MOL0     H21191   0.744   7.380   8.842  0.2026  1.4873 -1.5508
  157MOL0     H21192   0.656   7.866   8.788  2.2793  0.4043  0.7289
  157MOL0     H21193   0.353   7.826   8.801 -2.0458  1.0140  1.3597
  157MOL0     H21194   0.310   7.980   8.748  0.8245  0.2647 -1.7799
  157MOL0     H21195   0.462   7.913   8.688 -0.3802  0.5506 -0.2908
  158MOL0     O21196  10.552  10.114   5.615  0.0947  0.2248 -0.4754
  158MOL0     C21197  10.476  10.168   5.541 -0.7181 -0.1775 -0.0131
  158MOL0     O21198  10.516  10.220   5.421  0.4549  0.0894 -0.3325
  158MOL0     C21199  10.633  10.185   5.367  0.5163 -0.1827 -0.0352
  158MOL0     C21200  10.644  10.127   5.237 -0.2599  0.0459  0.0356
  158MOL0     C21201  10.768  10.114   5.167 -0.5901 -0.4214  0.0591
  158MOL0     C21202  10.888  10.156   5.241  1.1138  0.8583 -0.4499
  158MOL0     O21203  11.004  10.166   5.183 -0.3340  1.3403  0.5442
  158MOL0     C21204  11.067  10.037   5.166  0.2299 -0.4787 -0.7542
  158MOL0     C21205  11.125  10.028   5.020 -0.4163 -0.5755 -0.1348
  158MOL0     C21206  11.241  10.124   4.986  0.4621 -0.1588  0.0994
  158MOL0     C21207  11.256  10.157   4.836  0.2350 -0.2791  0.3664
  158MOL0     C21208  11.340  10.287   4.819 -0.1612  0.5021 -0.1833
  158MOL0     C21209  11.493  10.247   4.855  1.0010  0.1631  0.0213
  158MOL0     C21210  11.582  10.357   4.833 -0.0789  1.0325  0.2206
  158MOL0     C21211  11.585  10.462   4.948 -0.7389  0.5552 -0.3229
  158MOL0     N21212  11.610  10.402   5.074 -0.1102 -0.1696 -0.4687
  158MOL0     C21213  11.509  10.404   5.170 -0.5986 -1.2590  0.8352
  158MOL0     C21214  11.562  10.349   5.286 -0.5139 -0.0479  0.0920
  158MOL0     C21215  11.489  10.320   5.410 -0.3343  0.6705  0.2524
  158MOL0     C21216  11.371  10.230   5.384 -0.5833 -0.4292  0.5379
  158MOL0     C21217  11.322  10.179   5.521  0.5334  0.3787  0.6531
  158MOL0     C21218  11.295  10.288   5.628  0.0724  0.3640 -0.4219
  158MOL0     O21219  11.220  10.237   5.740 -0.3737  0.9967  0.3986
  158MOL0     C21220  11.161  10.331   5.818  0.3206 -0.6810 -0.0760
  158MOL0     C21221  11.183  10.468   5.822  0.5901 -0.0294 -0.6225
  158MOL0     C21222  11.102  10.554   5.903 -0.3064  0.5589 -0.2140
  158MOL0     C21223  11.005  10.497   5.983 -0.2148  0.2133 -1.3090
  158MOL0     C21224  10.921  10.589   6.071  0.9608 -0.0229  0.1865
  158MOL0     O21225  10.824  10.524   6.149 -0.4820 -0.4257 -0.8068
  158MOL0     C21226  10.745  10.620   6.205  0.9334  0.5932  0.6546
  158MOL0     C21227  10.790  10.681   6.323 -0.5041  0.1041 -0.7342
  158MOL0     C21228  10.703  10.776   6.380 -0.4102  1.1199 -0.5675
  158MOL0     C21229  10.588  10.813   6.312 -0.7068 -0.5226 -0.4517
  158MOL0     O21230  10.525  10.932   6.345 -0.5153 -0.4012  0.3790
  158MOL0     C21231  10.517  10.974   6.487 -0.1469  0.3846 -0.6458
  158MOL0     C21232  10.621  11.077   6.517  0.3730  0.1448  0.7378
  158MOL0     C21233  10.594  11.165   6.642  0.9839  0.2257  0.8508
  158MOL0     C21234  10.715  11.255   6.681  0.6317  0.1428  0.0889
  158MOL0     C21235  10.739  11.373   6.583 -0.5149 -0.4342  0.0887
  158MOL0     C21236  10.621  11.467   6.573  1.0075 -0.5366 -0.4021
  158MOL0     C21237  10.654  11.616   6.533  0.0845  0.4099  0.1151
  158MOL0     C21238  10.711  11.624   6.394 -0.4802 -0.0777 -0.1932
  158MOL0    Cl21239  10.591  11.557   6.286 -0.1560 -0.2153 -0.5150
  158MOL0     C21240  10.544  10.736   6.203  0.6898 -0.6044 -0.0642
  158MOL0     C21241  10.616  10.638   6.148  0.2026  0.3098 -0.5275
  158MOL0     O21242  10.929  10.712   6.050  0.0280 -0.3761 -0.3952
  158MOL0     C21243  10.986  10.359   5.990 -0.5198  0.0051 -0.0199
  158MOL0     C21244  11.065  10.274   5.904  0.7715 -0.6262 -0.1663
  158MOL0     N21245  11.691  10.314   5.254 -0.8566  0.9212  0.0078
  158MOL0     N21246  11.717  10.338   5.133 -0.8641 -0.8450 -0.9196
  158MOL0     C21247  10.874  10.211   5.370 -0.2122  0.0615 -0.3791
  158MOL0     C21248  10.751  10.229   5.430  0.0789 -0.0577 -0.1015
  158MOL0     C21249  10.342  10.194   5.597  0.4979  0.4837 -0.3064
  158MOL0     C21250  10.269  10.300   5.536 -0.4526  0.2671 -0.0099
  158MOL0     C21251  10.136  10.315   5.555  0.0144  1.1604 -0.5335
  158MOL0     C21252  10.069  10.237   5.650 -1.0931  0.6220 -0.5426
  158MOL0     O21253   9.932  10.246   5.676 -0.1594 -0.2408  0.0800
  158MOL0     C21254   9.857  10.341   5.597 -0.3893  0.0331 -0.1188
  158MOL0     C21255   9.848  10.476   5.670 -0.5597 -0.5101 -0.8365
  158MOL0     C21256   9.977  10.552   5.726 -0.2521 -1.0890  0.9316
  158MOL0     C21257   9.943  10.689   5.775 -0.3096  0.8539  0.7871
  158MOL0     C21258  10.049  10.756   5.854 -0.7237  0.8145 -0.6527
  158MOL0     C21259  10.153  10.793   5.912 -0.9473  0.6568 -0.2235
  158MOL0     C21260  10.146  10.142   5.729  0.6739 -0.1285  0.0247
  158MOL0     C21261  10.275  10.117   5.701 -0.8054  0.6569  0.1078
  158MOL0     C21262  10.353  10.013   5.787  0.1998  0.2485  0.0701
  158MOL0     H21263  10.557  10.107   5.174 -0.3003 -0.1815  0.1614
  158MOL0     H21264  10.770  10.101   5.059  2.2252  1.0430 -0.1355
  158MOL0     H21265  11.143  10.015   5.242  0.4158 -0.4031 -0.9152
  158MOL0     H21266  10.996   9.954   5.173 -0.1871 -0.2188 -1.7123
  158MOL0     H21267  11.037  10.048   4.959  0.2329 -0.8799 -1.1961
  158MOL0     H21268  11.166   9.926   5.013  1.1717  0.1299 -2.3586
  158MOL0     H21269  11.332  10.068   5.010  1.4935  1.0052 -0.9788
  158MOL0     H21270  11.230  10.218   5.041  2.2780  0.3992 -0.4231
  158MOL0     H21271  11.282  10.076   4.767  3.1540 -0.0757  1.0696
  158MOL0     H21272  11.159  10.194   4.803  1.0023  0.4400 -1.2405
  158MOL0     H21273  11.334  10.331   4.719 -2.1579 -0.4153 -0.5151
  158MOL0     H21274  11.304  10.366   4.886 -0.1153  0.5787 -0.2483
  158MOL0     H21275  11.501  10.221   4.961  0.0048  0.2346  0.1195
  158MOL0     H21276  11.521  10.161   4.793  1.4213  0.3829 -0.0999
  158MOL0     H21277  11.563  10.411   4.740  2.0326  1.0769 -0.2373
  158MOL0     H21278  11.685  10.320   4.834 -0.9225 -1.5021 -0.0261
  158MOL0     H21279  11.657  10.536   4.911 -0.0332 -0.4846 -1.0968
  158MOL0     H21280  11.487  10.510   4.951 -0.7527  0.5479  2.9241
  158MOL0     H21281  11.410  10.441   5.147 -0.2283 -0.9512 -0.3524
  158MOL0     H21282  11.556  10.277   5.486  2.4566  2.6616 -0.8929
  158MOL0     H21283  11.450  10.414   5.449 -3.1949 -0.6548  0.8725
  158MOL0     H21284  11.300  10.291   5.327  2.2345  2.6447 -0.0525
  158MOL0     H21285  11.409  10.140   5.334  1.9640 -1.4604  3.9303
  158MOL0     H21286  11.384  10.096   5.556 -2.9495 -3.5291 -1.5264
  158MOL0     H21287  11.219  10.147   5.504 -1.4296  4.9389  2.3934
  158MOL0     H21288  11.233  10.366   5.583 -0.1684  0.7673  0.5870
  158MOL0     H21289  11.381  10.348   5.660  1.2887 -1.2889 -0.4598
  158MOL0     H21290  11.258  10.513   5.759 -0.5222  0.4614 -1.6363
  158MOL0     H21291  11.115  10.662   5.896 -3.8648  1.0213 -1.6023
  158MOL0     H21292  10.889  10.665   6.364 -1.3476 -0.3084  1.2482
  158MOL0     H21293  10.724  10.842   6.463 -2.9744  2.4687 -0.8774
  158MOL0     H21294  10.426  11.033   6.503  0.6660  2.0602 -1.8459
  158MOL0     H21295  10.514  10.886   6.552 -2.2239 -0.3608 -1.6501
  158MOL0     H21296  10.719  11.029   6.525  0.7542  0.5327 -1.0461
  158MOL0     H21297  10.623  11.135   6.424  0.8037 -2.2228 -0.8341
  158MOL0     H21298  10.507  11.227   6.618  0.2786 -0.2126  2.2022
  158MOL0     H21299  10.562  11.105   6.727 -2.0251  1.2011  0.5321
  158MOL0     H21300  10.811  11.205   6.698  0.8324  0.9430  1.5202
  158MOL0     H21301  10.683  11.303   6.775 -3.1064 -0.7232 -0.5750
  158MOL0     H21302  10.779  11.344   6.486 -0.1367  1.1918 -0.2737
  158MOL0     H21303  10.824  11.432   6.619  0.7370 -1.6433 -0.7965
  158MOL0     H21304  10.557  11.417   6.500 -0.9100  0.0594  0.7804
  158MOL0     H21305  10.554  11.467   6.660 -0.3073 -0.9884 -1.3869
  158MOL0     H21306  10.732  11.655   6.600 -0.8774  2.0585  0.3491
  158MOL0     H21307  10.569  11.683   6.549  0.3057  0.7262 -0.0193
  158MOL0     H21308  10.745  11.726   6.377  2.9821 -1.3611 -1.7938
  158MOL0     H21309  10.801  11.562   6.398  0.8906  1.8145 -0.6228
  158MOL0     H21310  10.446  10.758   6.163  1.4072 -2.3825 -3.2003
  158MOL0     H21311  10.567  10.571   6.079 -0.5695  0.0547  0.2418
  158MOL0     H21312  10.905  10.324   6.054  2.6297 -3.3015  2.6039
  158MOL0     H21313  11.045  10.168   5.891 -3.5737  0.2626 -3.3840
  158MOL0     H21314  10.962  10.261   5.410  0.4502  1.2671 -3.0767
  158MOL0     H21315  10.740  10.270   5.530  0.4110  2.0112 -0.8670
  158MOL0     H21316  10.300  10.367   5.456 -0.4239  1.3599  0.8800
  158MOL0     H21317  10.083  10.391   5.498  0.4680  2.6537  0.9391
  158MOL0     H21318   9.756  10.311   5.566 -0.3432  0.9115 -1.2056
  158MOL0     H21319   9.896  10.355   5.496  1.2213 -0.9066  0.3426
  158MOL0     H21320   9.791  10.450   5.760  0.4138  0.0264 -0.0444
  158MOL0     H21321   9.782  10.547   5.621  1.6569  2.6569  0.4595
  158MOL0     H21322  10.046  10.560   5.641 -1.9197 -1.8272 -0.5723
  158MOL0     H21323  10.006  10.484   5.806 -0.3126 -2.4579 -0.1634
  158MOL0     H21324   9.908  10.741   5.686 -0.1414 -1.9501 -1.0661
  158MOL0     H21325   9.862  10.673   5.847  1.1392 -0.4840  2.2246
  158MOL0     H21326  10.244  10.824   5.959  1.4555 -0.7627 -3.5168
  158MOL0     H21327  10.094  10.100   5.815  1.0740  1.2568  0.9936
  158MOL0     H21328  10.415   9.946   5.727  0.0203  1.6218 -1.7029
  158MOL0     H21329  10.421  10.080   5.842  0.6486  0.0389 -0.2262
  158MOL0     H21330  10.288   9.961   5.858  1.7924  0.9339  2.1833
  159MOL0     O21331   8.341   0.489   4.788  0.4930 -0.1013 -1.1984
  159MOL0     C21332   8.253   0.520   4.872  1.0355 -0.0063  1.2560
  159MOL0     O21333   8.251   0.625   4.957 -0.4319  0.7028  0.5842
  159MOL0     C21334   8.347   0.723   4.919 -0.4686 -0.4119  0.0168
  159MOL0     C21335   8.430   0.777   5.011 -0.4349 -0.3607 -0.8276
  159MOL0     C21336   8.518   0.876   4.985  0.6490  0.3311  0.6345
  159MOL0     C21337   8.514   0.939   4.860  0.0785  0.0366 -1.5128
  159MOL0     O21338   8.608   1.044   4.837 -1.1066 -0.2185 -0.3156
  159MOL0     C21339   8.652   1.065   4.706  0.4997  0.4621 -0.5455
  159MOL0     C21340   8.783   1.133   4.707 -0.3156 -0.8083  0.2339
  159MOL0     C21341   8.814   1.176   4.566  0.3770  0.8979  0.7129
  159MOL0     C21342   8.951   1.256   4.552  0.1828  0.2290  0.1291
  159MOL0     C21343   8.968   1.301   4.403  0.3066 -1.2919  0.2237
  159MOL0     C21344   9.102   1.389   4.392  0.1950  0.1764 -0.7734
  159MOL0     C21345   9.098   1.455   4.259 -0.2337 -0.0710 -0.6968
  159MOL0     C21346   9.142   1.358   4.148  0.1442  0.4092 -0.4354
  159MOL0     N21347   9.194   1.422   4.026  0.0917  0.6656 -0.2371
  159MOL0     C21348   9.314   1.480   4.021 -0.1268 -1.5547 -0.1568
  159MOL0     C21349   9.332   1.530   3.896  0.2766 -0.1529  0.1156
  159MOL0     C21350   9.455   1.605   3.841 -0.5643 -0.2600  0.2352
  159MOL0     C21351   9.544   1.496   3.777 -0.6418  0.0993  0.4008
  159MOL0     C21352   9.656   1.575   3.701 -0.2617  0.3502 -0.2322
  159MOL0     C21353   9.764   1.465   3.677 -0.4499 -0.3711 -0.1722
  159MOL0     O21354   9.733   1.363   3.577 -0.1198 -0.4586  0.5268
  159MOL0     C21355   9.682   1.245   3.628  0.1268  0.9699  0.3153
  159MOL0     C21356   9.560   1.204   3.589  0.8128  0.5006 -0.4962
  159MOL0     C21357   9.505   1.075   3.634  0.6435  0.1263 -0.2395
  159MOL0     C21358   9.586   0.995   3.718  0.7498 -0.1658  0.2605
  159MOL0     C21359   9.534   0.857   3.751  1.0610 -1.1286 -0.0046
  159MOL0     O21360   9.616   0.770   3.812 -0.1036 -0.4405 -0.1800
  159MOL0     C21361   9.571   0.680   3.911  0.2761 -0.2174 -0.6410
  159MOL0     C21362   9.665   0.596   3.965  0.1395  0.5224  0.4307
  159MOL0     C21363   9.637   0.502   4.058  0.7113 -0.3745 -0.1530
  159MOL0     C21364   9.502   0.499   4.101 -0.6261 -0.4005  0.6153
  159MOL0     O21365   9.470   0.406   4.195 -0.0299  0.2362 -0.1853
  159MOL0     C21366   9.452   0.274   4.133  1.0509 -0.1935 -0.9783
  159MOL0     C21367   9.359   0.206   4.237 -0.0599 -0.6534 -0.3695
  159MOL0     C21368   9.285   0.089   4.175  1.3409 -0.4637 -0.5597
  159MOL0     C21369   9.199   0.018   4.279 -0.3961  0.0867  1.1451
  159MOL0     C21370   9.152  -0.118   4.233  0.1595 -0.6804 -0.6258
  159MOL0     C21371   9.093  -0.198   4.353 -0.7690  0.0836 -0.1070
  159MOL0     C21372   8.997  -0.304   4.303 -0.4617  0.3013 -0.1854
  159MOL0     C21373   8.937  -0.382   4.412 -0.0182 -0.0337 -0.9197
  159MOL0    Cl21374   8.830  -0.507   4.352 -0.0602 -0.1418 -0.1189
  159MOL0     C21375   9.401   0.578   4.056 -0.1882  0.7686  1.2469
  159MOL0     C21376   9.441   0.666   3.957  1.4087  0.4704 -0.9363
  159MOL0     O21377   9.422   0.836   3.712  0.0018  0.2428  0.2051
  159MOL0     C21378   9.707   1.040   3.761  0.4232  0.0035 -0.1814
  159MOL0     C21379   9.756   1.155   3.711  0.4078  0.1132 -0.2050
  159MOL0     N21380   9.211   1.508   3.826  1.2578  0.5752 -0.2157
  159MOL0     N21381   9.127   1.431   3.900 -0.4672  0.3773 -0.0615
  159MOL0     C21382   8.439   0.883   4.757 -0.0899 -0.8550 -0.2462
  159MOL0     C21383   8.355   0.775   4.789 -0.1552 -0.4876 -0.0089
  159MOL0     C21384   8.149   0.421   4.900 -1.0830 -0.9098 -0.0756
  159MOL0     C21385   8.133   0.366   5.029 -0.0712  0.4246 -0.3937
  159MOL0     C21386   8.025   0.274   5.050 -0.1443 -0.8705 -0.3671
  159MOL0     C21387   7.938   0.231   4.948 -0.9256 -0.0146  0.5724
  159MOL0     O21388   7.838   0.142   4.973 -0.3889 -0.1160  0.1583
  159MOL0     C21389   7.709   0.168   4.913 -0.3602  0.5925  0.3131
  159MOL0     C21390   7.591   0.158   5.010  0.3166 -0.4293  0.3795
  159MOL0     C21391   7.605   0.274   5.110  0.0670 -0.7103  1.0912
  159MOL0     C21392   7.475   0.328   5.160  0.2794  0.1163 -0.5120
  159MOL0     C21393   7.506   0.455   5.222 -0.3221 -0.7840 -0.0381
  159MOL0     C21394   7.553   0.558   5.264  0.5491 -0.3218  0.4602
  159MOL0     C21395   7.958   0.280   4.820 -0.3086  0.0392 -0.2379
  159MOL0     C21396   8.062   0.380   4.802 -0.1755 -0.0473  0.6802
  159MOL0     C21397   8.063   0.452   4.668  0.2147 -0.7314  0.0773
  159MOL0     H21398   8.421   0.738   5.112 -4.1204  0.8829 -0.5153
  159MOL0     H21399   8.598   0.901   5.054  3.3462 -1.8895 -1.4136
  159MOL0     H21400   8.668   0.967   4.660  1.4137  0.0387  0.6081
  159MOL0     H21401   8.568   1.117   4.661 -3.2425 -3.3232  1.4178
  159MOL0     H21402   8.866   1.074   4.745 -0.2675 -0.7521  0.2158
  159MOL0     H21403   8.786   1.219   4.774  1.4529  1.8302 -2.9618
  159MOL0     H21404   8.729   1.237   4.532  2.4670  2.5063 -2.0160
  159MOL0     H21405   8.822   1.092   4.497  1.4587 -0.1258  2.0334
  159MOL0     H21406   8.948   1.344   4.616  0.1803 -0.5982  1.3027
  159MOL0     H21407   9.035   1.192   4.580  1.9118  0.7272 -3.4082
  159MOL0     H21408   8.957   1.218   4.332  1.0112 -0.9508 -0.2973
  159MOL0     H21409   8.885   1.371   4.387  0.6083 -1.2474 -1.3029
  159MOL0     H21410   9.113   1.458   4.477  2.5652 -1.1431  0.0939
  159MOL0     H21411   9.188   1.322   4.399 -1.5048 -1.9504  2.1414
  159MOL0     H21412   9.163   1.543   4.261 -1.2991  0.7228  0.9956
  159MOL0     H21413   9.003   1.504   4.234 -0.7327 -0.9789 -0.6195
  159MOL0     H21414   9.223   1.295   4.185  1.4986  2.4624  0.2631
  159MOL0     H21415   9.058   1.297   4.115  1.1513 -2.1600  1.4763
  159MOL0     H21416   9.393   1.500   4.093  0.5908 -0.7202 -1.1498
  159MOL0     H21417   9.424   1.687   3.775 -2.0718  2.0347  3.5498
  159MOL0     H21418   9.508   1.663   3.917 -0.2903  2.0892 -1.6240
  159MOL0     H21419   9.568   1.414   3.845 -0.1515 -0.9919 -1.0416
  159MOL0     H21420   9.475   1.452   3.704 -2.0808  2.8046 -0.0385
  159MOL0     H21421   9.684   1.656   3.769  0.8379  1.9047 -2.4167
  159MOL0     H21422   9.617   1.610   3.604 -3.0834 -0.1820  0.6148
  159MOL0     H21423   9.807   1.435   3.773 -3.3737 -1.2076  0.9803
  159MOL0     H21424   9.841   1.531   3.636  0.8358 -0.5168  1.8473
  159MOL0     H21425   9.496   1.255   3.517 -2.7909  0.6912  2.5553
  159MOL0     H21426   9.409   1.042   3.597  0.2117  0.9997  0.0702
  159MOL0     H21427   9.766   0.611   3.928  0.0402 -1.4401 -0.7536
  159MOL0     H21428   9.716   0.435   4.092  1.4625 -0.3214 -1.6984
  159MOL0     H21429   9.393   0.275   4.040 -1.0623 -0.0805  0.2965
  159MOL0     H21430   9.552   0.232   4.121  1.4594 -0.7189  3.0036
  159MOL0     H21431   9.420   0.179   4.324  1.2622 -0.7388 -1.2959
  159MOL0     H21432   9.283   0.278   4.271  0.0103 -1.3274  1.3272
  159MOL0     H21433   9.221   0.123   4.093  2.6226  1.3899 -0.8453
  159MOL0     H21434   9.355   0.018   4.130  1.8173  0.2397 -0.9554
  159MOL0     H21435   9.109   0.079   4.286  0.8667  2.6967 -2.4351
  159MOL0     H21436   9.249  -0.009   4.373  1.2696  1.8760  0.8145
  159MOL0     H21437   9.237  -0.165   4.182 -0.1996  1.0376 -3.0201
  159MOL0     H21438   9.074  -0.116   4.156 -1.8502 -2.9771  1.1855
  159MOL0     H21439   9.173  -0.248   4.409  0.9267  1.8562 -0.8246
  159MOL0     H21440   9.035  -0.141   4.426 -2.9503 -2.1177  0.0237
  159MOL0     H21441   9.057  -0.374   4.244  1.5677  0.3993  1.6308
  159MOL0     H21442   8.919  -0.263   4.239 -0.8719  0.0302  0.1335
  159MOL0     H21443   9.008  -0.432   4.479 -3.2945 -4.2382 -0.1794
  159MOL0     H21444   8.872  -0.316   4.472  0.2758 -2.0898  1.8820
  159MOL0     H21445   9.297   0.562   4.082 -1.4458  0.3810 -3.2557
  159MOL0     H21446   9.358   0.725   3.920  0.3765  0.5540  1.3550
  159MOL0     H21447   9.756   0.981   3.838  2.2781  2.1071  0.3705
  159MOL0     H21448   9.846   1.195   3.755 -1.0168 -1.2470  4.5684
  159MOL0     H21449   8.429   0.916   4.654  0.0977  0.0507  0.0120
  159MOL0     H21450   8.298   0.733   4.707  1.9962 -3.0438 -0.3292
  159MOL0     H21451   8.200   0.392   5.110  0.8468 -2.5229 -0.0707
  159MOL0     H21452   8.021   0.236   5.152  1.4439 -2.7131 -0.9315
  159MOL0     H21453   7.691   0.093   4.834  0.4797 -1.3909  1.9110
  159MOL0     H21454   7.712   0.264   4.861  1.1231  0.6319  0.4355
  159MOL0     H21455   7.605   0.064   5.063 -0.9969 -0.5314  0.5836
  159MOL0     H21456   7.489   0.151   4.973  0.8255 -2.1017 -0.8445
  159MOL0     H21457   7.667   0.359   5.083 -1.3283  0.2476  0.8150
  159MOL0     H21458   7.652   0.237   5.202 -1.1857 -1.5368  1.4384
  159MOL0     H21459   7.404   0.357   5.082 -0.1388 -1.8270 -0.8883
  159MOL0     H21460   7.427   0.251   5.221 -3.8288  1.2278 -2.0225
  159MOL0     H21461   7.612   0.641   5.298  0.0631  0.8851 -1.4618
  159MOL0     H21462   7.902   0.248   4.733 -0.2657 -0.5730 -0.0469
  159MOL0     H21463   8.002   0.405   4.591  1.2288  3.9969 -4.1168
  159MOL0     H21464   8.013   0.549   4.670 -1.0453 -1.3313 -0.9953
  159MOL0     H21465   8.162   0.471   4.625  1.9378  3.0854  4.7539
  160MOL0     O21466   0.212   1.146   0.728 -0.1201 -0.5407  0.2819
  160MOL0     C21467   0.185   1.174   0.843 -0.3797 -0.3856 -0.0837
  160MOL0     O21468   0.229   1.289   0.904  0.0966 -0.4590  0.7036
  160MOL0     C21469   0.332   1.357   0.845  0.0613 -0.1930 -0.3216
  160MOL0     C21470   0.320   1.462   0.748 -0.2640  0.9257 -0.3539
  160MOL0     C21471   0.440   1.511   0.696  0.4346 -0.1768 -0.1150
  160MOL0     C21472   0.566   1.465   0.747  0.2175 -0.8339  0.1665
  160MOL0     O21473   0.671   1.520   0.684 -0.0066 -0.9725 -0.0356
  160MOL0     C21474   0.759   1.586   0.774 -0.4424 -0.1629 -0.3544
  160MOL0     C21475   0.866   1.645   0.696 -0.8560 -0.3013  0.1241
  160MOL0     C21476   0.975   1.716   0.784 -1.4430  0.3495 -0.6031
  160MOL0     C21477   1.088   1.759   0.696 -0.5176  0.2689  0.6854
  160MOL0     C21478   1.171   1.868   0.773 -0.6307 -0.0926  0.1224
  160MOL0     C21479   1.286   1.921   0.682 -0.6813  0.8533  0.7050
  160MOL0     C21480   1.364   2.026   0.747  0.0924  0.6383  0.0546
  160MOL0     C21481   1.436   2.115   0.651 -0.4507 -0.0331  0.5805
  160MOL0     N21482   1.493   2.224   0.729  0.2126  0.3263  0.3185
  160MOL0     C21483   1.629   2.249   0.726  0.2901 -0.8573  0.7411
  160MOL0     C21484   1.648   2.359   0.800 -0.2396  0.9459 -0.4783
  160MOL0     C21485   1.782   2.425   0.817  0.3267 -0.1493  0.2704
  160MOL0     C21486   1.818   2.513   0.695  0.4170  0.1821 -0.2008
  160MOL0     C21487   1.959   2.571   0.708  0.0193 -0.6216 -1.1970
  160MOL0     C21488   2.022   2.636   0.589 -0.0493  0.2114  0.7967
  160MOL0     O21489   2.153   2.668   0.620  0.2164 -0.3786 -0.3504
  160MOL0     C21490   2.186   2.793   0.665 -0.2924  0.1804  0.4180
  160MOL0     C21491   2.322   2.829   0.658  0.1039  0.3200 -0.2599
  160MOL0     C21492   2.375   2.948   0.716  0.2641 -1.0154  0.7440
  160MOL0     C21493   2.276   3.040   0.763  1.6875  0.3133 -0.7307
  160MOL0     C21494   2.318   3.177   0.814 -0.1338 -0.4800 -1.2459
  160MOL0     O21495   2.231   3.271   0.829 -0.5507 -0.4278  0.2188
  160MOL0     C21496   2.253   3.364   0.920 -0.1010  0.6202  0.0092
  160MOL0     C21497   2.153   3.392   1.012  0.2099 -0.0210  0.2337
  160MOL0     C21498   2.169   3.486   1.117 -0.2040 -0.0200  0.5078
  160MOL0     C21499   2.289   3.558   1.117  1.2187 -0.6653 -0.1415
  160MOL0     O21500   2.310   3.627   1.231 -0.3885 -0.3427 -0.1716
  160MOL0     C21501   2.432   3.705   1.252  0.2616 -0.0871  0.2552
  160MOL0     C21502   2.425   3.849   1.204 -0.6574  0.0096  0.0721
  160MOL0     C21503   2.345   3.926   1.302 -0.0087  0.9369  0.6801
  160MOL0     C21504   2.411   3.968   1.423 -0.7112 -0.4664  0.2000
  160MOL0     C21505   2.319   4.001   1.543  0.6315  0.8227 -1.3865
  160MOL0     C21506   2.383   4.066   1.673  0.4475 -0.0066  0.0507
  160MOL0     C21507   2.281   4.095   1.781 -0.5518  0.5282 -0.0755
  160MOL0     C21508   2.323   4.201   1.882  1.0837 -0.6336 -0.6122
  160MOL0    Cl21509   2.487   4.164   1.956  0.0976 -0.2025  0.1410
  160MOL0     C21510   2.374   3.557   1.005  0.4255  0.0380  0.2577
  160MOL0     C21511   2.360   3.453   0.912 -0.2347  0.4071  0.4779
  160MOL0     O21512   2.430   3.171   0.853 -0.5338 -0.1371 -0.4722
  160MOL0     C21513   2.140   3.006   0.763  0.8195  0.1279 -0.4287
  160MOL0     C21514   2.096   2.882   0.729  0.4120  1.4955 -0.5619
  160MOL0     N21515   1.519   2.393   0.848  0.5245 -0.0463 -0.3155
  160MOL0     N21516   1.420   2.317   0.802 -0.1963 -0.2741 -0.2399
  160MOL0     C21517   0.576   1.378   0.855 -0.2784 -0.1359  0.8497
  160MOL0     C21518   0.455   1.318   0.897 -0.7573 -0.4140  0.4210
  160MOL0     C21519   0.097   1.092   0.922 -0.3743 -0.4608  0.1266
  160MOL0     C21520   0.041   1.144   1.041 -0.7183  0.3217  0.5323
  160MOL0     C21521  -0.053   1.076   1.115  0.6004  0.7883  0.9015
  160MOL0     C21522  -0.115   0.961   1.067  0.3394 -0.0332 -0.2193
  160MOL0     O21523  -0.225   0.911   1.138 -0.6620 -0.1482  0.1593
  160MOL0     C21524  -0.217   0.782   1.203 -1.2866 -0.6895  0.1449
  160MOL0     C21525  -0.275   0.771   1.344  1.0880 -0.4130  0.2555
  160MOL0     C21526  -0.422   0.803   1.355  0.2502  0.2342  0.1998
  160MOL0     C21527  -0.492   0.773   1.492 -0.0593  0.1619 -0.4810
  160MOL0     C21528  -0.418   0.827   1.607  0.8066 -0.8397  0.2561
  160MOL0     C21529  -0.351   0.875   1.694  0.3056  0.0826 -1.5722
  160MOL0     C21530  -0.066   0.910   0.955 -1.0078  0.6679 -0.2096
  160MOL0     C21531   0.035   0.963   0.881 -0.0404  0.2321  0.2874
  160MOL0     C21532   0.089   0.887   0.768  0.4954 -0.0482  0.9507
  160MOL0     H21533   0.220   1.484   0.710 -0.4375  0.9593  0.1233
  160MOL0     H21534   0.442   1.582   0.614 -1.3880  1.5793  1.2346
  160MOL0     H21535   0.708   1.659   0.838 -0.2152  3.5322 -3.9510
  160MOL0     H21536   0.809   1.507   0.830 -1.4403 -0.2569  0.4251
  160MOL0     H21537   0.835   1.724   0.627  0.1741  0.2066  0.2202
  160MOL0     H21538   0.919   1.568   0.638 -0.5030 -0.9610  1.2892
  160MOL0     H21539   1.021   1.646   0.854  0.1517  1.8400 -0.1001
  160MOL0     H21540   0.929   1.793   0.847 -0.3573 -2.5164  4.2389
  160MOL0     H21541   1.153   1.676   0.669  0.3307  1.1931 -0.2025
  160MOL0     H21542   1.044   1.789   0.600 -1.4398 -2.0092  0.3347
  160MOL0     H21543   1.103   1.947   0.805 -2.5300 -2.6402  2.8551
  160MOL0     H21544   1.214   1.820   0.861  2.5160 -2.8379 -2.5798
  160MOL0     H21545   1.342   1.837   0.638  0.8794 -0.4765  4.7487
  160MOL0     H21546   1.238   1.960   0.593 -0.0035 -0.3600 -0.2262
  160MOL0     H21547   1.446   1.979   0.801 -0.3856 -2.7718 -1.9192
  160MOL0     H21548   1.301   2.096   0.804 -0.4387  1.1407 -1.1071
  160MOL0     H21549   1.510   2.050   0.604 -0.1286  1.1843 -0.6924
  160MOL0     H21550   1.370   2.163   0.578  0.8963  3.0064  1.2262
  160MOL0     H21551   1.711   2.204   0.671 -0.0742  0.3497 -0.8653
  160MOL0     H21552   1.772   2.481   0.911 -2.7657 -1.6453  0.9605
  160MOL0     H21553   1.858   2.352   0.845  1.2157  1.0017  0.9754
  160MOL0     H21554   1.815   2.456   0.601  0.5452  2.0471 -1.3902
  160MOL0     H21555   1.748   2.597   0.690 -3.2126 -2.4231  1.9842
  160MOL0     H21556   2.024   2.491   0.742 -1.4453  0.1288  4.2335
  160MOL0     H21557   1.964   2.644   0.790  4.5874 -2.7755  0.7881
  160MOL0     H21558   1.965   2.724   0.556 -1.6131 -0.1147  2.4482
  160MOL0     H21559   2.039   2.564   0.508  0.4922 -1.7199  2.5483
  160MOL0     H21560   2.383   2.755   0.606  0.4271 -1.9300  3.0298
  160MOL0     H21561   2.481   2.970   0.719  1.1605 -4.7979  1.7252
  160MOL0     H21562   2.063   3.331   1.018 -0.4722  1.0942  1.6217
  160MOL0     H21563   2.106   3.505   1.203  3.1660  1.3657  2.9128
  160MOL0     H21564   2.460   3.694   1.357 -0.4689  2.1470  0.7409
  160MOL0     H21565   2.516   3.668   1.194  0.7561  0.3454  0.6874
  160MOL0     H21566   2.526   3.891   1.200  0.9923 -3.4579  1.3904
  160MOL0     H21567   2.380   3.855   1.104  1.2680  3.1785 -0.7348
  160MOL0     H21568   2.318   4.016   1.245  0.6503  0.7802  0.1030
  160MOL0     H21569   2.254   3.869   1.321  0.6612 -0.2567  0.4233
  160MOL0     H21570   2.467   4.060   1.401  0.2562 -1.2263 -0.6304
  160MOL0     H21571   2.487   3.893   1.448 -0.1012 -1.5514 -4.1133
  160MOL0     H21572   2.279   3.905   1.579 -1.3016  1.9993 -0.2131
  160MOL0     H21573   2.229   4.054   1.510  0.1180  1.6048  1.0018
  160MOL0     H21574   2.470   4.008   1.707 -1.4447 -2.8142  0.4374
  160MOL0     H21575   2.425   4.156   1.626  2.6588 -2.9558 -4.2991
  160MOL0     H21576   2.268   4.009   1.848  1.4925  1.8638  2.2123
  160MOL0     H21577   2.183   4.101   1.733 -0.5494  0.4455 -0.0912
  160MOL0     H21578   2.352   4.288   1.822  0.9327 -1.8136 -2.4441
  160MOL0     H21579   2.234   4.216   1.945 -0.7647 -0.2995 -3.1444
  160MOL0     H21580   2.463   3.619   0.997  1.0390 -0.8871 -0.4322
  160MOL0     H21581   2.436   3.427   0.839  0.7403  0.7990  1.3162
  160MOL0     H21582   2.068   3.071   0.812  1.5580  0.3921  0.3338
  160MOL0     H21583   1.996   2.840   0.732  2.2951 -3.8607 -0.7461
  160MOL0     H21584   0.672   1.350   0.898 -0.6583 -0.2395  1.6483
  160MOL0     H21585   0.459   1.234   0.965 -0.1692 -1.3282 -0.7021
  160MOL0     H21586   0.067   1.241   1.083 -0.7861  0.4220  0.3436
  160MOL0     H21587  -0.089   1.116   1.209 -0.2876  0.8371  0.5532
  160MOL0     H21588  -0.117   0.738   1.195 -0.4301  0.6555  2.5057
  160MOL0     H21589  -0.277   0.706   1.151  0.6336 -2.0614 -0.1748
  160MOL0     H21590  -0.220   0.836   1.413  0.6932  0.5634 -0.3261
  160MOL0     H21591  -0.258   0.666   1.369  1.0675 -0.6864 -0.8545
  160MOL0     H21592  -0.474   0.748   1.275 -0.3004  2.1686 -0.8200
  160MOL0     H21593  -0.430   0.911   1.342 -1.2846  0.1137 -0.1304
  160MOL0     H21594  -0.590   0.820   1.481  0.7912  2.2170  0.1827
  160MOL0     H21595  -0.493   0.664   1.487 -0.6076  0.1280  0.1654
  160MOL0     H21596  -0.297   0.913   1.778 -0.5887  1.2946 -1.5249
  160MOL0     H21597  -0.113   0.816   0.930  2.4667 -1.5976  0.9894
  160MOL0     H21598   0.065   0.780   0.770 -0.2919  0.1167  0.7388
  160MOL0     H21599   0.046   0.928   0.676  2.2067 -0.9853 -0.3364
  160MOL0     H21600   0.197   0.900   0.755  0.5967 -2.2306 -1.3758
  161MOL0     O21601   9.901   1.219   3.990 -0.8127 -0.7576  0.0610
  161MOL0     C21602   9.866   1.204   4.107  0.4536 -0.8151  0.1477
  161MOL0     O21603   9.950   1.205   4.217  0.2089  0.7291  0.3782
  161MOL0     C21604  10.082   1.251   4.205 -0.1991  1.1226 -0.4870
  161MOL0     C21605  10.181   1.205   4.292 -0.1025 -0.7850  0.9936
  161MOL0     C21606  10.316   1.251   4.292  1.1008 -0.2174 -0.0476
  161MOL0     C21607  10.367   1.333   4.194 -0.3539 -0.9347  0.0605
  161MOL0     O21608  10.501   1.370   4.182 -0.1112  0.0626 -0.3305
  161MOL0     C21609  10.590   1.327   4.277  0.2177  0.2187 -0.1184
  161MOL0     C21610  10.713   1.422   4.286 -0.6498  0.4194  0.2977
  161MOL0     C21611  10.796   1.430   4.150  0.3467  0.6742  0.1526
  161MOL0     C21612  10.907   1.536   4.153  0.6931 -0.6804 -0.1628
  161MOL0     C21613  10.989   1.574   4.038 -0.4807  0.4244  1.0285
  161MOL0     C21614  11.093   1.686   4.060 -0.2295  0.4049 -0.1265
  161MOL0     C21615  11.227   1.675   3.980 -0.6802  0.1957  0.2321
  161MOL0     C21616  11.317   1.562   4.014 -0.0350  0.4321 -0.2114
  161MOL0     N21617  11.419   1.568   3.906  0.2679 -0.6041 -0.1784
  161MOL0     C21618  11.533   1.653   3.892  0.5490 -0.1821 -0.2126
  161MOL0     C21619  11.572   1.644   3.767  0.7342  0.8821 -0.2721
  161MOL0     C21620  11.684   1.712   3.707 -0.5930 -1.0587 -0.6250
  161MOL0     C21621  11.659   1.868   3.699  0.4456 -0.0792  0.2721
  161MOL0     C21622  11.776   1.953   3.635  0.1661  0.8756 -0.2537
  161MOL0     C21623  11.912   1.881   3.657 -1.0833 -0.2220 -0.2992
  161MOL0     O21624  11.999   1.964   3.574 -0.2471  0.2336  0.2867
  161MOL0     C21625  12.129   1.937   3.554  0.2974 -0.1996 -1.0049
  161MOL0     C21626  12.197   1.994   3.452 -0.8648 -0.3321  1.3618
  161MOL0     C21627  12.337   1.970   3.434  0.5162 -0.3745 -0.1456
  161MOL0     C21628  12.402   1.871   3.507 -1.2157 -0.1038 -0.6147
  161MOL0     C21629  12.547   1.840   3.493  0.0630 -0.2612 -0.7751
  161MOL0     O21630  12.593   1.718   3.506  0.3525  0.1433  0.0174
  161MOL0     C21631  12.728   1.713   3.535  0.2600  0.4065  0.5592
  161MOL0     C21632  12.819   1.660   3.449 -0.4568  0.4833  1.1211
  161MOL0     C21633  12.958   1.656   3.486 -0.0321  0.0396  0.2737
  161MOL0     C21634  13.002   1.718   3.603 -0.5725  0.0754  0.3104
  161MOL0     O21635  13.135   1.698   3.633  0.1195  0.7952  0.1378
  161MOL0     C21636  13.227   1.720   3.522  0.8500  0.0762 -0.4308
  161MOL0     C21637  13.368   1.735   3.578  0.1682  0.1683 -0.0857
  161MOL0     C21638  13.475   1.726   3.468 -0.1642 -0.2050  0.2510
  161MOL0     C21639  13.597   1.825   3.495  0.0722 -0.6621 -0.4620
  161MOL0     C21640  13.682   1.766   3.597  0.6026 -0.2093 -0.0205
  161MOL0     C21641  13.819   1.825   3.612  0.0020 -0.9922 -0.7794
  161MOL0     C21642  13.911   1.735   3.700  0.1747 -0.1557  0.1426
  161MOL0     C21643  13.999   1.831   3.775 -1.6950  0.1947 -0.4030
  161MOL0    Cl21644  14.123   1.769   3.892 -0.0519 -0.2780  0.1645
  161MOL0     C21645  12.910   1.765   3.695  0.8986 -0.2202  0.3847
  161MOL0     C21646  12.773   1.771   3.654  0.4196  0.7123 -0.2374
  161MOL0     O21647  12.609   1.939   3.464 -0.2807 -0.1307  0.7484
  161MOL0     C21648  12.330   1.809   3.611 -0.2989  0.1681 -0.4553
  161MOL0     C21649  12.196   1.835   3.629 -0.3458  0.1781 -1.2652
  161MOL0     N21650  11.491   1.556   3.697  0.6853  0.0207  0.5274
  161MOL0     N21651  11.412   1.494   3.787 -0.1425 -0.9258 -1.1863
  161MOL0     C21652  10.274   1.374   4.094 -0.3925 -0.4956 -0.8530
  161MOL0     C21653  10.134   1.342   4.109 -0.6361 -0.1555  0.4967
  161MOL0     C21654   9.722   1.166   4.127  0.9088  0.8341 -0.8257
  161MOL0     C21655   9.628   1.211   4.038 -0.3540 -0.4569  0.1318
  161MOL0     C21656   9.493   1.171   4.039 -1.3745  0.6106 -0.4079
  161MOL0     C21657   9.452   1.094   4.150 -0.1956  0.1655  0.2474
  161MOL0     O21658   9.321   1.053   4.161 -0.6846 -0.4650 -0.0839
  161MOL0     C21659   9.253   1.035   4.028 -1.1672 -0.1345 -0.5293
  161MOL0     C21660   9.127   0.955   4.047  0.4186 -0.6206 -0.3560
  161MOL0     C21661   9.142   0.827   4.136 -0.1333  0.2293  0.1979
  161MOL0     C21662   9.104   0.850   4.275  1.5069  0.2712 -0.3393
  161MOL0     C21663   9.156   0.741   4.361 -0.7356 -0.0222  0.2668
  161MOL0     C21664   9.211   0.645   4.407 -0.4701  0.0573  0.2906
  161MOL0     C21665   9.543   1.053   4.247  0.3427  0.1551 -0.3068
  161MOL0     C21666   9.676   1.089   4.242 -0.4088  0.4883 -0.0410
  161MOL0     C21667   9.755   1.052   4.362 -0.6149  0.2250 -0.9986
  161MOL0     H21668  10.143   1.139   4.369 -3.0072  1.0368  1.2479
  161MOL0     H21669  10.379   1.228   4.377 -0.9938 -0.1967  1.5941
  161MOL0     H21670  10.540   1.333   4.374 -1.9512  1.9439 -1.2578
  161MOL0     H21671  10.623   1.226   4.251 -0.6449 -0.5577  1.6242
  161MOL0     H21672  10.776   1.378   4.364  0.6291  0.1608 -0.8490
  161MOL0     H21673  10.680   1.524   4.306  0.4502  0.6129  1.1885
  161MOL0     H21674  10.727   1.443   4.066 -0.0181 -2.4917 -0.1643
  161MOL0     H21675  10.847   1.334   4.145 -0.2602 -0.1186  4.7313
  161MOL0     H21676  10.851   1.628   4.176  1.2166 -0.1746 -0.8780
  161MOL0     H21677  10.975   1.518   4.237  1.3677 -2.4854 -1.0444
  161MOL0     H21678  11.042   1.482   4.011 -0.5053  0.5948  0.3965
  161MOL0     H21679  10.929   1.607   3.953 -3.0015 -1.9088  1.7466
  161MOL0     H21680  11.043   1.777   4.025 -0.2071  0.0348 -1.1444
  161MOL0     H21681  11.109   1.689   4.169 -1.9446 -1.0423  0.2166
  161MOL0     H21682  11.281   1.769   3.991 -1.2453  0.2082  3.9023
  161MOL0     H21683  11.192   1.661   3.877  0.3090 -1.0834  0.0477
  161MOL0     H21684  11.360   1.566   4.114 -0.0469  0.9493 -0.2244
  161MOL0     H21685  11.257   1.471   4.013 -2.0181  1.6721 -2.0403
  161MOL0     H21686  11.571   1.727   3.961  0.2102 -0.4965  0.3238
  161MOL0     H21687  11.772   1.679   3.763  1.9545  1.5349 -2.7495
  161MOL0     H21688  11.694   1.675   3.604 -1.7679 -0.2677 -1.0440
  161MOL0     H21689  11.564   1.880   3.645  0.4385 -1.2359 -0.0088
  161MOL0     H21690  11.637   1.911   3.797  1.0592  1.1444 -0.1133
  161MOL0     H21691  11.776   2.058   3.667 -0.0217  0.1017  2.5346
  161MOL0     H21692  11.761   1.959   3.527 -2.3686  1.0051  0.0419
  161MOL0     H21693  11.921   1.780   3.618  2.3720 -0.6766  1.2803
  161MOL0     H21694  11.940   1.878   3.763  1.1494 -1.0899 -0.8513
  161MOL0     H21695  12.146   2.060   3.383 -2.1073 -0.6880  1.8989
  161MOL0     H21696  12.390   2.032   3.363  0.4798 -0.5981 -0.3706
  161MOL0     H21697  12.805   1.620   3.349 -1.2015 -1.4910  1.9710
  161MOL0     H21698  13.028   1.597   3.427  2.9999  2.9201  0.7284
  161MOL0     H21699  13.220   1.630   3.460  2.0637 -2.0142  2.2576
  161MOL0     H21700  13.192   1.808   3.467 -1.3220  0.5820  1.5783
  161MOL0     H21701  13.380   1.821   3.645 -0.0159  0.7009 -0.7317
  161MOL0     H21702  13.385   1.648   3.642  0.9461  0.7185  0.4831
  161MOL0     H21703  13.508   1.622   3.473  1.4211 -0.1335 -3.9590
  161MOL0     H21704  13.438   1.739   3.365  0.2077  2.8722  0.4140
  161MOL0     H21705  13.564   1.923   3.531  1.6549  1.3483 -3.9488
  161MOL0     H21706  13.652   1.848   3.403  0.5995 -1.3530 -0.3253
  161MOL0     H21707  13.713   1.665   3.567  0.2827 -0.1315 -0.6287
  161MOL0     H21708  13.628   1.768   3.692 -0.9837 -3.4606 -0.6945
  161MOL0     H21709  13.863   1.826   3.512 -1.4802 -1.2280 -1.4641
  161MOL0     H21710  13.801   1.926   3.651  0.8659  0.0310 -2.8696
  161MOL0     H21711  13.967   1.669   3.634 -0.2397  2.5748 -3.2041
  161MOL0     H21712  13.850   1.668   3.761  1.2292 -2.5197 -1.2621
  161MOL0     H21713  14.065   1.873   3.698 -1.4590  0.1649 -0.2213
  161MOL0     H21714  13.941   1.913   3.818  2.4836  2.2156  2.1254
  161MOL0     H21715  12.944   1.812   3.787 -1.9006  2.9946 -0.0176
  161MOL0     H21716  12.704   1.806   3.729  1.0220  0.1709  0.5925
  161MOL0     H21717  12.378   1.737   3.676  0.5355  1.4365  0.3713
  161MOL0     H21718  12.152   1.788   3.717 -0.9808  1.7029 -0.7374
  161MOL0     H21719  10.312   1.433   4.012  1.0857 -1.0589 -0.6034
  161MOL0     H21720  10.066   1.392   4.042 -1.8436 -0.2329  1.6254
  161MOL0     H21721   9.679   1.271   3.963 -1.5127  4.6345  2.9717
  161MOL0     H21722   9.429   1.214   3.963  0.5256  2.9382 -0.8443
  161MOL0     H21723   9.326   0.983   3.965 -2.2967 -1.3083 -0.8996
  161MOL0     H21724   9.236   1.137   3.992  2.5115  1.0204  0.5240
  161MOL0     H21725   9.094   0.925   3.947  2.1674  0.4641 -1.3224
  161MOL0     H21726   9.050   1.016   4.096  2.1226 -0.0962  1.8009
  161MOL0     H21727   9.250   0.810   4.132 -0.0843  0.6342 -0.3799
  161MOL0     H21728   9.078   0.748   4.096 -0.2506 -1.1272  2.8253
  161MOL0     H21729   9.143   0.945   4.312 -0.2644  2.6718 -4.0876
  161MOL0     H21730   8.995   0.846   4.288  1.6214  2.2943  1.8547
  161MOL0     H21731   9.276   0.573   4.451  2.4277  0.8021 -2.4308
  161MOL0     H21732   9.490   0.995   4.323 -2.2580  1.3296 -1.1048
  161MOL0     H21733   9.704   0.991   4.437 -1.9860  1.4189 -0.9058
  161MOL0     H21734   9.846   1.001   4.330  2.1483  3.8024  0.4712
  161MOL0     H21735   9.804   1.139   4.407  0.5944 -0.2281 -1.4123
  162MOL0     O21736   3.523   8.842   7.604  0.0138 -0.2259  0.2466
  162MOL0     C21737   3.582   8.949   7.579  0.2754  0.0037  0.9133
  162MOL0     O21738   3.718   8.966   7.561 -0.6636  0.6542  0.4194
  162MOL0     C21739   3.805   8.876   7.620  1.0508  0.7273  0.6918
  162MOL0     C21740   3.924   8.858   7.553  0.2739  0.1652  0.8470
  162MOL0     C21741   4.016   8.757   7.589 -0.0851 -0.2247  0.7298
  162MOL0     C21742   3.994   8.685   7.709 -0.1972 -0.1583 -0.7654
  162MOL0     O21743   4.070   8.579   7.752 -0.1510  0.1035 -0.3160
  162MOL0     C21744   4.201   8.553   7.691  0.4762  0.9737  0.3229
  162MOL0     C21745   4.239   8.419   7.742 -0.2368  1.3897  0.4878
  162MOL0     C21746   4.366   8.377   7.677 -0.5370 -0.2364  0.0957
  162MOL0     C21747   4.445   8.477   7.593  0.6591 -0.0377  0.1027
  162MOL0     C21748   4.584   8.441   7.548  0.1625 -0.4958 -0.4892
  162MOL0     C21749   4.669   8.558   7.497  0.0932  0.4136 -0.0761
  162MOL0     C21750   4.787   8.509   7.417 -0.3289 -0.8927  0.1352
  162MOL0     C21751   4.758   8.488   7.265  0.9286  0.8176 -0.1260
  162MOL0     N21752   4.880   8.517   7.187 -0.2444 -0.1915  1.3543
  162MOL0     C21753   4.908   8.646   7.145  0.2136  0.4674 -0.1396
  162MOL0     C21754   5.021   8.638   7.069  0.6810 -0.5464  0.3250
  162MOL0     C21755   5.097   8.758   7.007 -0.3950 -0.6952 -0.2929
  162MOL0     C21756   5.239   8.745   7.064  0.0004  0.8476 -0.2182
  162MOL0     C21757   5.340   8.867   7.036  0.1641 -0.0539  0.9493
  162MOL0     C21758   5.479   8.810   7.072  0.9241 -0.5365 -0.0610
  162MOL0     O21759   5.527   8.679   7.035  0.1947 -0.2901 -0.6592
  162MOL0     C21760   5.664   8.655   7.048 -0.1026  0.6625 -0.3352
  162MOL0     C21761   5.743   8.717   7.145  0.3674  0.4151  0.1717
  162MOL0     C21762   5.878   8.690   7.158 -0.5165 -0.0667 -0.6566
  162MOL0     C21763   5.930   8.597   7.079  0.0706 -0.2063  0.4994
  162MOL0     C21764   6.072   8.569   7.086 -0.1959 -0.4440  0.2658
  162MOL0     O21765   6.126   8.467   7.004  0.5938  0.0479  0.0838
  162MOL0     C21766   6.259   8.454   7.014 -0.2009  0.5158 -0.1969
  162MOL0     C21767   6.343   8.523   6.937 -0.3430 -0.6772 -0.3723
  162MOL0     C21768   6.481   8.506   6.941 -0.6619 -0.6009 -0.2239
  162MOL0     C21769   6.530   8.395   7.013  0.2135  0.9490 -0.2009
  162MOL0     O21770   6.667   8.374   7.006 -0.8542  0.5366  0.5549
  162MOL0     C21771   6.739   8.462   7.095  0.8127  0.7926  0.3945
  162MOL0     C21772   6.882   8.489   7.062 -0.0934 -0.3760 -0.9411
  162MOL0     C21773   6.970   8.364   7.075  0.4846 -0.7865 -0.2726
  162MOL0     C21774   7.107   8.415   7.023 -1.1437  0.9791 -0.1009
  162MOL0     C21775   7.202   8.290   7.038  0.0493  0.1722  0.7924
  162MOL0     C21776   7.320   8.300   6.937  0.0854 -0.2177 -0.2650
  162MOL0     C21777   7.421   8.412   6.962  0.1568 -0.2925  0.3877
  162MOL0     C21778   7.526   8.383   7.076  0.2689  0.6669 -0.5557
  162MOL0    Cl21779   7.591   8.547   7.114 -0.5583  0.1884 -0.2307
  162MOL0     C21780   6.445   8.323   7.101 -0.7193  0.7804  0.6582
  162MOL0     C21781   6.309   8.355   7.100 -0.4681 -0.1568 -0.3050
  162MOL0     O21782   6.130   8.627   7.176 -0.4572 -0.1811  0.4868
  162MOL0     C21783   5.856   8.528   6.985  0.0236 -1.4736  0.1507
  162MOL0     C21784   5.723   8.557   6.968  0.7141  0.5510 -0.2748
  162MOL0     N21785   5.062   8.508   7.064 -0.1849  0.6951 -0.5417
  162MOL0     N21786   4.982   8.437   7.140 -1.6591 -0.4849 -0.1444
  162MOL0     C21787   3.882   8.714   7.783 -0.8070 -0.1581 -0.2256
  162MOL0     C21788   3.787   8.812   7.739 -1.0134  0.5391  0.0068
  162MOL0     C21789   3.503   9.065   7.529  0.4322  0.5578  0.0662
  162MOL0     C21790   3.572   9.174   7.460  0.2738 -0.1905 -0.0364
  162MOL0     C21791   3.503   9.287   7.423  0.2419  0.3210 -1.0814
  162MOL0     C21792   3.363   9.295   7.441 -0.4304  1.0362 -0.2979
  162MOL0     O21793   3.291   9.403   7.405  0.3733 -0.1444  0.6725
  162MOL0     C21794   3.351   9.533   7.390  0.5133 -0.0705  0.9353
  162MOL0     C21795   3.234   9.628   7.352 -0.0395  0.0614  0.8651
  162MOL0     C21796   3.189   9.627   7.200 -0.0905 -0.5747  0.6056
  162MOL0     C21797   3.134   9.758   7.144 -0.1847  0.0447  0.1044
  162MOL0     C21798   3.121   9.737   6.993 -0.1789  0.2340 -0.0905
  162MOL0     C21799   3.079   9.727   6.877  1.0521  1.4087 -0.0899
  162MOL0     C21800   3.302   9.200   7.525  0.5123 -0.2017  0.5501
  162MOL0     C21801   3.363   9.079   7.566  0.4876 -0.0233  0.0536
  162MOL0     C21802   3.275   8.975   7.626  0.7558  0.4992  0.0444
  162MOL0     H21803   3.947   8.906   7.458 -1.8103  0.6250  0.5300
  162MOL0     H21804   4.097   8.737   7.520 -2.3316 -4.2294 -1.1112
  162MOL0     H21805   4.185   8.551   7.583 -1.4375 -0.9612  0.5729
  162MOL0     H21806   4.279   8.628   7.706  2.0713 -0.3856 -0.8225
  162MOL0     H21807   4.159   8.353   7.707 -0.3651  2.6454 -1.7546
  162MOL0     H21808   4.250   8.422   7.851  0.0334  0.6245  0.4864
  162MOL0     H21809   4.359   8.284   7.620  0.9493 -0.4567  0.2359
  162MOL0     H21810   4.433   8.346   7.758 -0.2911 -0.7025 -0.2799
  162MOL0     H21811   4.390   8.509   7.504 -1.9104 -6.4194 -1.1531
  162MOL0     H21812   4.467   8.562   7.657  1.8503 -0.7770  0.7070
  162MOL0     H21813   4.641   8.394   7.629  2.2199 -0.0488 -1.6057
  162MOL0     H21814   4.595   8.357   7.478  1.1277 -1.0998  0.3431
  162MOL0     H21815   4.606   8.626   7.441  1.1100  0.5968 -1.0329
  162MOL0     H21816   4.700   8.614   7.586 -2.1319  0.9446  0.4137
  162MOL0     H21817   4.824   8.419   7.467  0.7984 -0.1444  0.6920
  162MOL0     H21818   4.865   8.585   7.430  0.3201 -1.3664 -0.8618
  162MOL0     H21819   4.734   8.382   7.253 -1.1939  0.9974  1.8676
  162MOL0     H21820   4.679   8.545   7.215 -1.3751 -3.4799 -1.8848
  162MOL0     H21821   4.850   8.735   7.168 -1.0301 -1.1218  3.7160
  162MOL0     H21822   5.106   8.743   6.899  0.0679 -2.1350 -0.0651
  162MOL0     H21823   5.055   8.854   7.039 -0.1599 -1.1817  1.5639
  162MOL0     H21824   5.227   8.736   7.172 -1.7139 -1.4866 -0.5480
  162MOL0     H21825   5.272   8.649   7.023 -0.0541  1.3091 -1.3864
  162MOL0     H21826   5.321   8.956   7.098  0.2403 -1.8324  3.7179
  162MOL0     H21827   5.341   8.891   6.930 -0.9994  0.7526  1.0979
  162MOL0     H21828   5.477   8.816   7.181 -1.3838  1.3630 -0.0971
  162MOL0     H21829   5.548   8.884   7.031  0.2639  0.7941  1.1412
  162MOL0     H21830   5.696   8.785   7.216 -0.4556 -0.4885  0.5128
  162MOL0     H21831   5.922   8.751   7.236 -1.9010 -0.0085  0.1136
  162MOL0     H21832   6.298   8.596   6.870 -0.3683  2.0058  2.3353
  162MOL0     H21833   6.553   8.554   6.875 -0.9456 -1.5659 -1.2690
  162MOL0     H21834   6.684   8.556   7.086  0.4875  0.6620  0.9861
  162MOL0     H21835   6.728   8.430   7.199 -1.4081  3.7675  1.2026
  162MOL0     H21836   6.894   8.529   6.960  1.9264 -1.5868 -1.2274
  162MOL0     H21837   6.920   8.570   7.125 -0.1413 -0.7291 -0.4573
  162MOL0     H21838   6.971   8.327   7.178 -4.4227  0.2883  0.4179
  162MOL0     H21839   6.941   8.282   7.009 -0.4903 -1.8443  1.3789
  162MOL0     H21840   7.153   8.503   7.071  1.2227 -0.1181 -0.1876
  162MOL0     H21841   7.093   8.430   6.915  2.4431  0.1107 -0.8247
  162MOL0     H21842   7.147   8.198   7.015 -1.8107  0.9555  1.8548
  162MOL0     H21843   7.248   8.279   7.136  2.4867 -0.3804 -0.3559
  162MOL0     H21844   7.368   8.202   6.941  0.8097  0.1494  0.6021
  162MOL0     H21845   7.277   8.312   6.837 -0.4018 -1.6716 -0.2487
  162MOL0     H21846   7.375   8.510   6.978 -0.2821 -0.4254 -0.0491
  162MOL0     H21847   7.469   8.421   6.864 -0.3452 -0.4433  0.1240
  162MOL0     H21848   7.489   8.330   7.164  2.2256 -1.1781 -0.7594
  162MOL0     H21849   7.604   8.319   7.032  3.2516 -0.0443  4.9049
  162MOL0     H21850   6.492   8.241   7.156  5.6710  1.4961 -2.8222
  162MOL0     H21851   6.242   8.291   7.157  0.0246 -0.5431 -0.1561
  162MOL0     H21852   5.898   8.456   6.916  0.4983  0.1910 -1.3824
  162MOL0     H21853   5.682   8.501   6.884  0.0561  0.2011  0.2736
  162MOL0     H21854   3.880   8.667   7.881  1.6497  3.2623  1.7272
  162MOL0     H21855   3.703   8.813   7.807 -0.0326 -2.3900  1.4158
  162MOL0     H21856   3.675   9.166   7.428  0.1003 -3.1428 -0.1126
  162MOL0     H21857   3.554   9.357   7.358  1.4417 -0.9693 -1.5856
  162MOL0     H21858   3.417   9.551   7.305 -1.2296  2.5200 -0.0100
  162MOL0     H21859   3.392   9.570   7.484 -0.8917  3.0917  0.4174
  162MOL0     H21860   3.268   9.724   7.393 -0.6460 -0.5639  2.8984
  162MOL0     H21861   3.147   9.588   7.404 -2.3158  0.2255 -2.4839
  162MOL0     H21862   3.120   9.544   7.183  1.3997 -1.8395  0.4835
  162MOL0     H21863   3.278   9.598   7.143  0.1105 -0.2273  0.7397
  162MOL0     H21864   3.044   9.784   7.201  1.5507  1.8011  2.2116
  162MOL0     H21865   3.208   9.838   7.155  2.7336 -2.4572  0.0716
  162MOL0     H21866   3.052   9.736   6.774 -1.0740  2.3502  0.4944
  162MOL0     H21867   3.197   9.221   7.544  0.4351  0.2919 -0.3839
  162MOL0     H21868   3.296   8.961   7.732 -0.8774 -0.3185  0.2973
  162MOL0     H21869   3.170   9.007   7.625 -0.0236 -1.8339 -0.8198
  162MOL0     H21870   3.283   8.880   7.573  4.3770  0.6946  0.0204
  163MOL0     O21871   7.316   7.846   1.814  1.0060  0.1644 -0.2755
  163MOL0     C21872   7.283   7.877   1.700 -0.5406 -0.9580 -0.2047
  163MOL0     O21873   7.375   7.909   1.603 -0.6934  0.2621 -1.0902
  163MOL0     C21874   7.506   7.941   1.645  0.9281  0.7709 -0.3273
  163MOL0     C21875   7.524   8.055   1.716 -0.5777  0.4363 -0.8433
  163MOL0     C21876   7.658   8.083   1.752 -0.0833  1.0876 -0.3438
  163MOL0     C21877   7.766   7.999   1.732  0.6254 -0.3058 -0.2392
  163MOL0     O21878   7.884   8.063   1.772 -0.1802  0.4577 -0.4698
  163MOL0     C21879   8.007   7.985   1.780  0.2693  0.5345 -1.2090
  163MOL0     C21880   8.121   8.077   1.824  0.7234  0.5215  0.6523
  163MOL0     C21881   8.264   8.015   1.813  0.6189  0.1290 -0.3162
  163MOL0     C21882   8.278   7.874   1.899  0.4449 -0.5366 -0.9390
  163MOL0     C21883   8.406   7.846   1.968 -0.3410 -0.5627  0.4002
  163MOL0     C21884   8.389   7.724   2.063  0.7962  0.4113 -0.6439
  163MOL0     C21885   8.504   7.717   2.161 -0.1436 -0.5291  0.6278
  163MOL0     C21886   8.491   7.594   2.261  0.1966 -1.1515  0.4631
  163MOL0     N21887   8.596   7.582   2.365  0.7211 -0.7101 -0.3823
  163MOL0     C21888   8.568   7.593   2.500 -0.1027  0.8247  0.6032
  163MOL0     C21889   8.681   7.623   2.561 -0.1477  1.3187 -0.3637
  163MOL0     C21890   8.701   7.649   2.713 -0.1572  0.0584  0.5702
  163MOL0     C21891   8.692   7.794   2.752  0.0430 -0.7214  0.6670
  163MOL0     C21892   8.776   7.836   2.882  0.3987 -0.4872  0.1970
  163MOL0     C21893   8.686   7.897   2.990 -0.7333  0.6082 -0.0903
  163MOL0     O21894   8.626   8.017   2.947 -0.1868  0.4832 -0.1351
  163MOL0     C21895   8.565   8.087   3.046 -0.5525 -1.3492  0.5977
  163MOL0     C21896   8.481   8.024   3.136  0.2005 -0.4703 -0.0681
  163MOL0     C21897   8.434   8.100   3.244  1.1317 -0.4302  0.4606
  163MOL0     C21898   8.466   8.236   3.260 -0.7099 -0.1255  0.7935
  163MOL0     C21899   8.405   8.312   3.371  0.3867  0.0340  0.2980
  163MOL0     O21900   8.325   8.240   3.461  0.0352 -0.7760 -0.2691
  163MOL0     C21901   8.297   8.301   3.581  0.8959 -0.7722 -0.1901
  163MOL0     C21902   8.202   8.234   3.659 -0.2020 -0.8738  0.5462
  163MOL0     C21903   8.177   8.273   3.793  1.0531  0.1458  0.3460
  163MOL0     C21904   8.231   8.394   3.844  0.2130  0.0455 -0.1620
  163MOL0     O21905   8.191   8.464   3.958  0.5832  0.5554 -0.7170
  163MOL0     C21906   8.058   8.438   4.003  0.3811 -0.4028  0.6297
  163MOL0     C21907   8.029   8.492   4.139 -0.4805  0.3703  1.0641
  163MOL0     C21908   7.881   8.443   4.178  0.1811  0.4024  0.3191
  163MOL0     C21909   7.824   8.485   4.313 -0.4824 -0.7262 -0.1322
  163MOL0     C21910   7.683   8.435   4.315  0.0902  1.0663  0.3320
  163MOL0     C21911   7.582   8.506   4.410  0.2021 -0.5812  0.0536
  163MOL0     C21912   7.442   8.457   4.403  0.1174  0.1117  0.1285
  163MOL0     C21913   7.421   8.322   4.466  0.1231 -0.3644 -0.2926
  163MOL0    Cl21914   7.489   8.300   4.630 -0.1760  0.0868  0.2064
  163MOL0     C21915   8.332   8.452   3.771  0.1954 -0.4774  0.7006
  163MOL0     C21916   8.367   8.411   3.638  0.4131 -0.7402  0.0256
  163MOL0     O21917   8.416   8.435   3.373  0.7214 -0.8656  0.7990
  163MOL0     C21918   8.554   8.299   3.164  0.2438  0.1163 -0.6205
  163MOL0     C21919   8.612   8.215   3.069 -0.0551  0.0829 -0.6815
  163MOL0     N21920   8.777   7.624   2.459  1.0157  0.3192  0.0356
  163MOL0     N21921   8.731   7.598   2.345 -0.5114  0.1751 -0.0007
  163MOL0     C21922   7.742   7.877   1.670 -0.1480  0.8953 -0.7868
  163MOL0     C21923   7.611   7.844   1.618 -0.1430 -1.2181 -0.0747
  163MOL0     C21924   7.141   7.893   1.657 -0.0659  0.2823  0.7472
  163MOL0     C21925   7.118   7.958   1.532  0.0821  0.0946  0.8058
  163MOL0     C21926   6.994   8.001   1.481 -0.0108 -0.4182  0.1918
  163MOL0     C21927   6.879   7.979   1.566 -0.2670 -0.2295 -0.1859
  163MOL0     O21928   6.754   7.989   1.528  0.1953 -0.1634  0.6008
  163MOL0     C21929   6.731   8.062   1.404 -0.5322 -0.2570  0.4320
  163MOL0     C21930   6.580   8.060   1.380 -0.0349  0.1156 -0.6210
  163MOL0     C21931   6.529   7.934   1.308 -1.0016 -0.1275  0.2892
  163MOL0     C21932   6.374   7.937   1.333  0.0921 -0.3508  0.2482
  163MOL0     C21933   6.294   7.857   1.228  0.2203  0.6694  0.3980
  163MOL0     C21934   6.219   7.788   1.164 -0.2085 -0.2791  0.0618
  163MOL0     C21935   6.902   7.920   1.691 -0.5206 -0.1638 -0.3535
  163MOL0     C21936   7.029   7.882   1.741 -0.2851  0.3768 -0.8558
  163MOL0     C21937   7.023   7.798   1.868 -1.4721  0.1622  0.5913
  163MOL0     H21938   7.438   8.118   1.738 -0.2367  0.1073  1.8513
  163MOL0     H21939   7.674   8.185   1.786 -2.1558  1.3168  0.1101
  163MOL0     H21940   7.982   7.916   1.861 -1.9133  0.2985 -2.0085
  163MOL0     H21941   8.035   7.947   1.681  0.5438 -1.3163 -0.4554
  163MOL0     H21942   8.093   8.107   1.926 -1.3209 -1.5252  0.7973
  163MOL0     H21943   8.122   8.158   1.751  0.2768 -1.0846 -1.2174
  163MOL0     H21944   8.343   8.086   1.838  1.5180 -1.8423  3.2565
  163MOL0     H21945   8.280   7.980   1.711 -0.2835 -0.9953 -0.0954
  163MOL0     H21946   8.204   7.878   1.979  1.5153  1.9375  0.0308
  163MOL0     H21947   8.238   7.784   1.850  0.7078 -1.6803  0.8742
  163MOL0     H21948   8.476   7.812   1.891 -2.1565 -1.2199 -1.0277
  163MOL0     H21949   8.428   7.942   2.016 -4.9387  2.1569 -2.1552
  163MOL0     H21950   8.295   7.738   2.116  0.2105 -2.0043 -0.9226
  163MOL0     H21951   8.370   7.636   2.000  2.7026 -0.6850  0.2186
  163MOL0     H21952   8.524   7.809   2.216  0.9203  0.5049 -1.3765
  163MOL0     H21953   8.594   7.706   2.100  0.3023  2.0468  0.7149
  163MOL0     H21954   8.389   7.577   2.296  0.6255 -1.6962  1.4728
  163MOL0     H21955   8.508   7.506   2.199 -0.0398 -1.2065  0.4740
  163MOL0     H21956   8.472   7.581   2.548 -0.9588  0.0701 -1.1826
  163MOL0     H21957   8.625   7.601   2.776 -1.8694 -0.4161 -1.7387
  163MOL0     H21958   8.799   7.607   2.739  0.4905 -0.8312 -2.8010
  163MOL0     H21959   8.729   7.855   2.669  0.6121 -2.0496 -0.0993
  163MOL0     H21960   8.587   7.821   2.765  0.9047  3.1845  0.7889
  163MOL0     H21961   8.858   7.902   2.852 -0.3736 -0.1177 -1.1512
  163MOL0     H21962   8.819   7.743   2.922 -0.2949 -0.0162  2.1688
  163MOL0     H21963   8.743   7.907   3.083 -2.6040  1.3073  1.0424
  163MOL0     H21964   8.613   7.819   3.012  0.3132 -1.0942 -2.2573
  163MOL0     H21965   8.449   7.921   3.124  0.0949 -0.8185  2.4870
  163MOL0     H21966   8.368   8.047   3.312  0.1996  1.1831  0.8543
  163MOL0     H21967   8.163   8.137   3.630 -0.8155 -0.9472  1.5651
  163MOL0     H21968   8.112   8.197   3.837  1.7101 -1.6013 -1.5284
  163MOL0     H21969   7.983   8.476   3.933 -0.3124 -2.0040  0.4540
  163MOL0     H21970   8.037   8.331   3.997 -1.9200  0.0081  0.3420
  163MOL0     H21971   8.104   8.449   4.205  2.2684  1.2246 -1.2985
  163MOL0     H21972   8.033   8.601   4.134 -3.2140  0.4748 -0.6795
  163MOL0     H21973   7.816   8.483   4.099  0.3653  1.0016  0.4606
  163MOL0     H21974   7.861   8.336   4.183 -3.1580  0.9542  1.2996
  163MOL0     H21975   7.806   8.593   4.316 -2.1806 -0.9506 -0.7523
  163MOL0     H21976   7.881   8.460   4.403  0.2646 -3.8433 -1.3469
  163MOL0     H21977   7.674   8.329   4.340 -0.4068  0.0951 -3.3549
  163MOL0     H21978   7.636   8.448   4.217  0.7022 -0.9795 -0.2742
  163MOL0     H21979   7.628   8.500   4.509 -0.0107  3.3400  0.5553
  163MOL0     H21980   7.591   8.613   4.388 -0.2728 -0.0447  2.2659
  163MOL0     H21981   7.406   8.462   4.300 -0.5476 -0.9858  0.2900
  163MOL0     H21982   7.375   8.523   4.460  0.2616  0.1831  0.2159
  163MOL0     H21983   7.315   8.293   4.469  0.6912 -2.7961 -1.2105
  163MOL0     H21984   7.470   8.250   4.401 -0.0066 -0.4087 -0.3424
  163MOL0     H21985   8.378   8.543   3.808  1.5103 -0.1944 -1.4383
  163MOL0     H21986   8.432   8.471   3.575 -1.9601 -1.4438 -3.4145
  163MOL0     H21987   8.573   8.406   3.173  1.2234  0.0462 -1.6293
  163MOL0     H21988   8.677   8.260   2.995  2.1340  2.6244  2.5161
  163MOL0     H21989   7.823   7.812   1.640  0.1142  0.6680  0.3471
  163MOL0     H21990   7.598   7.763   1.547  1.1005 -1.9201  0.4595
  163MOL0     H21991   7.186   7.974   1.449 -1.5521  1.1225 -0.4128
  163MOL0     H21992   6.993   8.040   1.380  0.4101  1.9213  1.0170
  163MOL0     H21993   6.779   8.002   1.326  3.5756  1.4861  1.3673
  163MOL0     H21994   6.765   8.165   1.412 -1.2400 -0.0442  0.8153
  163MOL0     H21995   6.561   8.150   1.320 -0.2942  2.0336  2.1397
  163MOL0     H21996   6.524   8.068   1.473 -0.0265  1.2279 -0.6902
  163MOL0     H21997   6.575   7.848   1.359 -0.0975  0.4573  0.4812
  163MOL0     H21998   6.551   7.937   1.201  0.2952  1.5527  0.5701
  163MOL0     H21999   6.349   7.898   1.432  0.5405 -2.5648 -0.4593
  163MOL0     H22000   6.342   8.042   1.327 -2.3653 -0.9963  0.9232
  163MOL0     H22001   6.161   7.719   1.107  1.2732 -0.2295 -1.5666
  163MOL0     H22002   6.815   7.898   1.752  0.5336 -0.5453  1.0675
  163MOL0     H22003   7.067   7.699   1.850 -1.3872  0.5419 -1.6492
  163MOL0     H22004   7.093   7.842   1.940  3.4578 -2.6665 -1.9471
  163MOL0     H22005   6.921   7.776   1.902 -2.1393 -1.1218 -1.9586
  164MOL0     O22006   9.823   4.533   3.070 -0.4653 -0.1933  0.0353
  164MOL0     C22007   9.889   4.560   3.179 -0.5163  0.0706 -0.5498
  164MOL0     O22008   9.852   4.521   3.311  0.1619  0.1238  0.9051
  164MOL0     C22009   9.761   4.423   3.327  1.0217  0.1886 -0.9818
  164MOL0     C22010   9.777   4.303   3.263  0.6615  0.0362 -0.6167
  164MOL0     C22011   9.689   4.193   3.285  0.6099  0.1604 -0.7986
  164MOL0     C22012   9.587   4.204   3.375 -0.5935  0.1786  0.8373
  164MOL0     O22013   9.515   4.092   3.398 -0.1637  0.0562 -0.1976
  164MOL0     C22014   9.521   4.034   3.537  0.7455 -0.4643  0.3402
  164MOL0     C22015   9.415   3.918   3.561 -0.5113 -0.9352 -0.7326
  164MOL0     C22016   9.383   3.894   3.715 -0.2412  0.7590  0.0069
  164MOL0     C22017   9.518   3.861   3.788  0.7203  0.2603 -0.2242
  164MOL0     C22018   9.497   3.826   3.939  0.3483 -1.4108 -0.7720
  164MOL0     C22019   9.430   3.700   3.968  0.8024 -0.0233 -0.9749
  164MOL0     C22020   9.401   3.686   4.121  0.3200  0.2233 -0.1147
  164MOL0     C22021   9.330   3.557   4.159  0.0896 -0.1194 -0.0184
  164MOL0     N22022   9.433   3.454   4.178  0.4477 -0.6308 -0.3039
  164MOL0     C22023   9.506   3.436   4.294 -0.1541  0.5514  0.0049
  164MOL0     C22024   9.606   3.347   4.259  0.5929 -0.1204  0.4482
  164MOL0     C22025   9.728   3.279   4.336  0.2278 -0.2242  0.7332
  164MOL0     C22026   9.846   3.246   4.247  0.1307  0.3159  0.0156
  164MOL0     C22027   9.919   3.375   4.198 -0.2239 -0.6431  0.6319
  164MOL0     C22028   9.953   3.466   4.308  0.0747  0.7973  0.4617
  164MOL0     O22029  10.044   3.573   4.275  0.3810  0.3080  0.2446
  164MOL0     C22030  10.174   3.534   4.273 -0.5297 -0.1532  0.0173
  164MOL0     C22031  10.226   3.468   4.164  0.1923 -0.4025  0.5453
  164MOL0     C22032  10.363   3.440   4.156 -0.0720  0.6383  0.6980
  164MOL0     C22033  10.451   3.464   4.254 -0.1304 -0.0297 -0.5009
  164MOL0     C22034  10.591   3.436   4.250 -0.3341 -0.7716  0.1697
  164MOL0     O22035  10.635   3.387   4.134 -0.7491  0.0949  0.5926
  164MOL0     C22036  10.767   3.359   4.101  0.0053 -0.7399 -0.4483
  164MOL0     C22037  10.874   3.448   4.121 -0.1570  0.4853 -0.1232
  164MOL0     C22038  11.002   3.405   4.089 -0.2391 -0.8360 -1.1341
  164MOL0     C22039  11.043   3.279   4.061 -0.1726 -0.0152  0.1944
  164MOL0     O22040  11.165   3.252   4.020 -0.7537  0.3211 -0.0214
  164MOL0     C22041  11.271   3.325   4.087 -0.3486  0.6050 -0.1936
  164MOL0     C22042  11.404   3.239   4.067 -0.2205  0.1042 -0.8147
  164MOL0     C22043  11.441   3.213   3.925  0.3219  1.0069  0.1240
  164MOL0     C22044  11.579   3.141   3.921  0.0136 -0.4545  1.0258
  164MOL0     C22045  11.650   3.143   3.780  0.3844 -0.5596  0.9826
  164MOL0     C22046  11.575   3.103   3.661 -0.0275 -0.5791  0.6708
  164MOL0     C22047  11.538   2.956   3.652 -0.2808 -0.2401  0.6941
  164MOL0     C22048  11.616   2.860   3.559  0.5696  0.3865 -0.5670
  164MOL0    Cl22049  11.784   2.853   3.607  0.2004  0.1320 -0.4330
  164MOL0     C22050  10.937   3.189   4.044  0.6052 -0.2898  0.6475
  164MOL0     C22051  10.801   3.227   4.068 -0.5355 -0.0209 -0.7744
  164MOL0     O22052  10.656   3.461   4.352 -0.1520 -0.4032 -0.0612
  164MOL0     C22053  10.396   3.505   4.376  0.1838  0.0473  0.8858
  164MOL0     C22054  10.257   3.541   4.388  0.6685 -0.0844 -0.3260
  164MOL0     N22055   9.573   3.314   4.131 -0.7118  0.6640 -0.4179
  164MOL0     N22056   9.484   3.382   4.076  0.1283  0.0374 -0.2741
  164MOL0     C22057   9.560   4.323   3.434 -0.0206 -0.1532 -0.4406
  164MOL0     C22058   9.652   4.438   3.417 -0.0024 -0.3323  0.1449
  164MOL0     C22059  10.011   4.645   3.165  0.6982 -0.8537 -0.1572
  164MOL0     C22060  10.052   4.720   3.278  0.3764 -0.6802  0.4853
  164MOL0     C22061  10.157   4.814   3.267  0.1199  0.6586  0.1077
  164MOL0     C22062  10.228   4.826   3.149 -0.1367  0.5581 -0.3462
  164MOL0     O22063  10.318   4.932   3.148  0.8444  0.1796  0.1118
  164MOL0     C22064  10.398   4.953   3.036  0.3701 -0.3110 -0.3492
  164MOL0     C22065  10.525   4.873   3.049  0.6121  0.1721  0.1145
  164MOL0     C22066  10.616   4.916   2.933  0.1019 -0.3390 -1.1182
  164MOL0     C22067  10.758   4.863   2.958  0.3361  0.6969 -0.1020
  164MOL0     C22068  10.861   4.893   2.855  0.4257 -0.2818  0.4966
  164MOL0     C22069  10.950   4.934   2.789 -0.2863  0.5007 -0.3545
  164MOL0     C22070  10.197   4.741   3.042 -0.4598 -0.1518 -0.9604
  164MOL0     C22071  10.096   4.647   3.047  0.2679  0.0988 -0.2586
  164MOL0     C22072  10.071   4.568   2.922 -0.5059 -0.2116 -0.2175
  164MOL0     H22073   9.864   4.301   3.197  1.5799  2.9354  0.3339
  164MOL0     H22074   9.698   4.087   3.260  0.8408 -0.7633  2.7258
  164MOL0     H22075   9.624   4.002   3.555  0.9622  0.7794  1.4441
  164MOL0     H22076   9.500   4.115   3.608 -1.6195 -0.7885  0.0722
  164MOL0     H22077   9.443   3.827   3.508  1.2301 -2.4495  2.4914
  164MOL0     H22078   9.322   3.959   3.519  0.4411  1.0928 -0.9635
  164MOL0     H22079   9.309   3.814   3.728 -0.8273  1.2681 -0.1580
  164MOL0     H22080   9.342   3.985   3.759 -0.3944  0.4744  0.4626
  164MOL0     H22081   9.586   3.787   3.744  1.5723 -0.2564  1.8549
  164MOL0     H22082   9.572   3.956   3.782  0.0980  0.6754  0.5332
  164MOL0     H22083   9.593   3.827   3.993 -0.6272 -0.1308  1.0510
  164MOL0     H22084   9.432   3.909   3.968  0.0475 -1.6545 -0.7488
  164MOL0     H22085   9.343   3.686   3.903  0.1705  0.2909 -0.2135
  164MOL0     H22086   9.504   3.622   3.949  0.9945 -0.1191  0.1059
  164MOL0     H22087   9.352   3.770   4.171 -0.3945 -1.3073  1.9168
  164MOL0     H22088   9.502   3.686   4.163  0.1426 -3.5210  0.6834
  164MOL0     H22089   9.282   3.589   4.252  1.5817  1.4235  0.2900
  164MOL0     H22090   9.249   3.529   4.091 -2.7480  0.8708  2.7439
  164MOL0     H22091   9.500   3.482   4.393 -1.7739 -0.0914  0.2470
  164MOL0     H22092   9.754   3.338   4.424 -0.9564  1.1644  0.2051
  164MOL0     H22093   9.700   3.178   4.367  3.5529 -0.9104  1.9171
  164MOL0     H22094   9.917   3.180   4.298  1.7352 -0.3428 -2.8038
  164MOL0     H22095   9.822   3.183   4.160  1.4228  0.1840 -0.2664
  164MOL0     H22096   9.856   3.436   4.133  0.3865  0.8715  1.3993
  164MOL0     H22097  10.008   3.345   4.141 -0.1647  0.3474  0.1864
  164MOL0     H22098  10.000   3.414   4.393 -1.4141  1.9055  2.0196
  164MOL0     H22099   9.855   3.503   4.338  0.3396  1.4978  0.4694
  164MOL0     H22100  10.177   3.466   4.067 -1.4151 -0.2837  1.3225
  164MOL0     H22101  10.398   3.399   4.062  1.0862  0.7249  1.0716
  164MOL0     H22102  10.855   3.552   4.145 -0.3055  0.9315 -2.0168
  164MOL0     H22103  11.073   3.486   4.086 -2.2385  0.9962 -3.8043
  164MOL0     H22104  11.285   3.426   4.048  0.9353  0.2898 -0.5949
  164MOL0     H22105  11.246   3.326   4.193 -0.4000 -1.2223 -0.1475
  164MOL0     H22106  11.486   3.292   4.117  2.0835 -1.7154 -2.4341
  164MOL0     H22107  11.399   3.140   4.113  1.3670 -0.9081 -2.7030
  164MOL0     H22108  11.360   3.157   3.876  1.4616  1.7556 -2.8310
  164MOL0     H22109  11.437   3.308   3.872 -2.8723  0.9091 -0.0257
  164MOL0     H22110  11.563   3.039   3.955  0.1674 -1.1537 -0.8857
  164MOL0     H22111  11.657   3.192   3.979  2.8800 -1.1166 -1.9534
  164MOL0     H22112  11.743   3.085   3.783  1.8438  1.6684  2.1779
  164MOL0     H22113  11.685   3.245   3.760 -1.6660  0.0453  0.2511
  164MOL0     H22114  11.489   3.170   3.649  0.8075  0.3944 -0.0799
  164MOL0     H22115  11.636   3.135   3.576 -1.8440  1.7974  0.1655
  164MOL0     H22116  11.439   2.956   3.604  1.3716  0.4947 -3.0627
  164MOL0     H22117  11.525   2.916   3.753  0.0086 -0.7516  0.5317
  164MOL0     H22118  11.566   2.763   3.563  1.5009 -0.0583  2.2175
  164MOL0     H22119  11.623   2.893   3.455 -0.9330  1.1328 -0.4575
  164MOL0     H22120  10.960   3.092   3.999  1.0171 -0.1956  0.6492
  164MOL0     H22121  10.720   3.157   4.053  1.6174 -3.7748  2.8940
  164MOL0     H22122  10.462   3.513   4.461  0.3208 -1.1343  0.9120
  164MOL0     H22123  10.208   3.569   4.481  1.0059 -2.2382  0.5553
  164MOL0     H22124   9.479   4.325   3.506  1.9070 -2.6766  2.0195
  164MOL0     H22125   9.634   4.535   3.462 -1.9294  0.7654 -2.6655
  164MOL0     H22126   9.992   4.724   3.369 -0.3497  2.3143 -0.0189
  164MOL0     H22127  10.191   4.885   3.342  3.4029 -0.3308 -0.2933
  164MOL0     H22128  10.425   5.059   3.044 -3.6983  0.7951  1.0450
  164MOL0     H22129  10.351   4.923   2.942 -1.0632  1.8411 -0.3777
  164MOL0     H22130  10.500   4.767   3.040 -4.3522  0.9813  1.2825
  164MOL0     H22131  10.571   4.888   3.147 -2.0020  0.2177  1.4194
  164MOL0     H22132  10.621   5.025   2.925  0.3600 -0.3670 -1.4037
  164MOL0     H22133  10.582   4.871   2.839 -1.1208  1.6999 -1.6873
  164MOL0     H22134  10.779   4.922   3.047 -4.9920  0.5973  1.5616
  164MOL0     H22135  10.767   4.756   2.981  1.6568  0.3048 -2.1364
  164MOL0     H22136  11.040   4.954   2.735  0.3668 -2.6269 -0.6409
  164MOL0     H22137  10.261   4.738   2.954  0.2381  0.3426 -0.4757
  164MOL0     H22138   9.987   4.617   2.873 -2.3622 -0.8754  2.1515
  164MOL0     H22139  10.155   4.575   2.851 -1.5924  2.6967 -1.3453
  164MOL0     H22140  10.050   4.465   2.952 -1.0440  0.2409  0.9857
  165MOL0     O22141  10.561  10.236  10.448 -0.1521  0.3904  0.4342
  165MOL0     C22142  10.623  10.162  10.375 -0.2475 -0.1705 -0.9733
  165MOL0     O22143  10.760  10.160  10.375 -0.0311  0.0384 -0.4467
  165MOL0     C22144  10.835  10.279  10.384 -0.3548 -0.0261 -0.2183
  165MOL0     C22145  10.796  10.412  10.337  0.0920 -0.2185  0.5248
  165MOL0     C22146  10.879  10.522  10.331  0.5183 -0.6227 -0.1647
  165MOL0     C22147  11.010  10.507  10.387  0.0957 -0.2135  0.2944
  165MOL0     O22148  11.111  10.599  10.395 -0.3306  0.1222 -0.3542
  165MOL0     C22149  11.086  10.723  10.460 -0.1118  0.5768 -0.2477
  165MOL0     C22150  11.115  10.706  10.610 -0.7875  0.6028 -0.4343
  165MOL0     C22151  11.268  10.685  10.619 -0.3725  1.1821 -0.2565
  165MOL0     C22152  11.348  10.800  10.571  0.3061 -0.6126 -0.1451
  165MOL0     C22153  11.480  10.798  10.631 -0.6204 -0.1997 -1.3981
  165MOL0     C22154  11.547  10.934  10.623 -0.8183  0.3327  0.7042
  165MOL0     C22155  11.674  10.944  10.711  0.0234 -0.6466 -0.8026
  165MOL0     C22156  11.785  10.843  10.662 -0.8896  0.0104  0.4508
  165MOL0     N22157  11.906  10.842  10.747  0.2500  0.1534 -0.4414
  165MOL0     C22158  12.032  10.892  10.715  0.5091  0.5545 -0.2107
  165MOL0     C22159  12.102  10.882  10.834 -0.0321  0.8769 -0.0754
  165MOL0     C22160  12.253  10.927  10.850 -0.2715 -0.0736  0.5911
  165MOL0     C22161  12.277  11.084  10.824  0.3540 -0.6628  0.0515
  165MOL0     C22162  12.216  11.183  10.929  0.0849 -0.3806  0.9831
  165MOL0     C22163  12.297  11.168  11.062  0.4039 -0.1045  0.3092
  165MOL0     O22164  12.417  11.247  11.056 -0.8293  0.5078  0.2130
  165MOL0     C22165  12.501  11.251  11.167 -1.3516 -0.0584 -0.3431
  165MOL0     C22166  12.633  11.294  11.151 -1.2075  0.0391  0.6259
  165MOL0     C22167  12.725  11.297  11.259 -0.0032  0.5203 -0.5364
  165MOL0     C22168  12.684  11.258  11.388 -0.0209  0.2012 -1.6220
  165MOL0     C22169  12.778  11.265  11.496 -0.6396  0.1465  0.2314
  165MOL0     O22170  12.730  11.261  11.621 -0.4274  0.2109 -0.0495
  165MOL0     C22171  12.813  11.296  11.725  0.7677 -0.5471 -1.1481
  165MOL0     C22172  12.830  11.203  11.834  0.0914 -0.5967  0.3055
  165MOL0     C22173  12.915  11.225  11.950  0.3722 -0.0031 -0.0391
  165MOL0     C22174  12.994  11.344  11.947 -0.6050 -0.0805 -0.5146
  165MOL0     O22175  13.094  11.378  12.038 -0.0010  0.0077  0.1622
  165MOL0     C22176  13.066  11.377  12.174 -0.2213 -0.4551 -0.3689
  165MOL0     C22177  13.122  11.510  12.242  0.2847  0.3943  0.1679
  165MOL0     C22178  13.025  11.622  12.218  0.0531  0.5261  1.1428
  165MOL0     C22179  12.910  11.628  12.324  1.3327 -0.6673 -0.1991
  165MOL0     C22180  12.842  11.771  12.318  0.1896  0.0498 -0.6304
  165MOL0     C22181  12.772  11.811  12.454  1.2530 -0.6113 -0.0635
  165MOL0     C22182  12.668  11.932  12.452  0.6519  1.3899 -1.1902
  165MOL0     C22183  12.629  11.983  12.307  0.0641 -0.0745  0.1508
  165MOL0    Cl22184  12.518  11.870  12.221 -0.0144 -0.0456 -0.3351
  165MOL0     C22185  12.971  11.440  11.848 -0.9747  0.7224 -0.0436
  165MOL0     C22186  12.896  11.410  11.732 -0.0442  0.3592  0.1879
  165MOL0     O22187  12.897  11.301  11.467  0.5802 -0.7615  0.5884
  165MOL0     C22188  12.550  11.223  11.405  1.0888  0.6608 -0.3675
  165MOL0     C22189  12.466  11.213  11.297  0.2267 -0.0446  0.4530
  165MOL0     N22190  12.031  10.805  10.922  0.6757 -0.8813  0.3584
  165MOL0     N22191  11.915  10.784  10.870  0.5424  0.5460  1.4274
  165MOL0     C22192  11.052  10.379  10.426  0.3187 -0.3093 -0.1233
  165MOL0     C22193  10.967  10.268  10.420  0.1716 -0.5143 -0.1798
  165MOL0     C22194  10.547  10.066  10.280 -0.3297  0.3726  0.2123
  165MOL0     C22195  10.633   9.994  10.191 -0.8492 -0.4648 -0.0511
  165MOL0     C22196  10.589   9.896  10.112 -0.3947  0.9399  0.1919
  165MOL0     C22197  10.454   9.851  10.110 -0.6411  0.1880  0.8509
  165MOL0     O22198  10.415   9.748  10.032  0.4720  0.1029 -0.1865
  165MOL0     C22199  10.295   9.761   9.953 -0.8224  0.0193 -0.7311
  165MOL0     C22200  10.296   9.661   9.833  0.1289  0.2986 -0.5225
  165MOL0     C22201  10.151   9.654   9.773  0.2067 -0.6734  0.6816
  165MOL0     C22202  10.139   9.574   9.650 -0.2429 -0.2064 -0.2265
  165MOL0     C22203  10.146   9.431   9.676 -0.2924 -0.9034 -0.9810
  165MOL0     C22204  10.156   9.312   9.703 -0.0741  0.9326  0.7936
  165MOL0     C22205  10.361   9.929  10.183 -0.7406  0.3036 -0.3764
  165MOL0     C22206  10.408  10.029  10.273 -0.4887  0.1969 -0.2371
  165MOL0     C22207  10.292  10.110  10.347  0.1095  0.6109 -0.2666
  165MOL0     H22208  10.696  10.425  10.297  1.3425 -0.6690 -3.0532
  165MOL0     H22209  10.840  10.617  10.297  0.2434 -0.6273  0.1381
  165MOL0     H22210  11.139  10.814  10.429  1.2879  0.2459  1.1021
  165MOL0     H22211  10.977  10.740  10.455 -0.3255 -0.1999  1.3400
  165MOL0     H22212  11.076  10.613  10.653  4.3446  0.3279  4.9003
  165MOL0     H22213  11.082  10.791  10.670 -1.3303  0.6906 -0.8499
  165MOL0     H22214  11.292  10.587  10.576 -2.0718  0.3154  0.6954
  165MOL0     H22215  11.284  10.671  10.726  1.2835  2.2103 -0.3347
  165MOL0     H22216  11.340  10.796  10.462 -1.3252 -1.5477 -0.0288
  165MOL0     H22217  11.295  10.888  10.610  1.6406  0.4701 -0.7065
  165MOL0     H22218  11.468  10.766  10.735 -4.2932  1.8260 -1.0111
  165MOL0     H22219  11.532  10.718  10.576 -1.3201 -2.7290  1.3376
  165MOL0     H22220  11.587  10.930  10.521  0.2295 -0.4700  1.1363
  165MOL0     H22221  11.484  11.023  10.627 -2.4517 -0.8234  2.1638
  165MOL0     H22222  11.656  10.913  10.814 -0.5953 -1.3681 -1.1229
  165MOL0     H22223  11.714  11.046  10.714 -3.7090  1.0725 -2.3095
  165MOL0     H22224  11.761  10.736  10.662 -0.3713 -0.2317  3.9387
  165MOL0     H22225  11.822  10.875  10.565  2.6362 -0.0379  1.6492
  165MOL0     H22226  12.071  10.938  10.625  1.5637  2.7939  1.2757
  165MOL0     H22227  12.277  10.898  10.953 -1.9708  1.0568  1.3568
  165MOL0     H22228  12.311  10.866  10.781 -0.2886  0.6243 -0.0473
  165MOL0     H22229  12.383  11.106  10.835 -0.2664  1.6262  2.5454
  165MOL0     H22230  12.236  11.097  10.723 -2.4073  2.7325  1.3828
  165MOL0     H22231  12.108  11.167  10.934 -0.0386  0.5257  1.3751
  165MOL0     H22232  12.230  11.280  10.881  3.3952 -1.8694 -1.4579
  165MOL0     H22233  12.327  11.066  11.086  2.5143  0.5180  0.4985
  165MOL0     H22234  12.231  11.202  11.143 -3.0832 -1.4148 -1.7211
  165MOL0     H22235  12.666  11.317  11.050 -1.8146  2.4257  0.8913
  165MOL0     H22236  12.828  11.327  11.242 -0.6521  3.1752 -0.3546
  165MOL0     H22237  12.775  11.110  11.827  0.8825 -1.3343  2.6202
  165MOL0     H22238  12.910  11.150  12.029  0.5782  0.5402  0.4917
  165MOL0     H22239  12.958  11.367  12.191 -0.6150  2.6314 -0.5563
  165MOL0     H22240  13.113  11.293  12.227  2.0671  0.3248 -1.0647
  165MOL0     H22241  13.145  11.495  12.348  2.3344 -0.5263 -0.3492
  165MOL0     H22242  13.217  11.543  12.199  0.6832  1.1186  1.5502
  165MOL0     H22243  13.080  11.717  12.216 -0.9330  1.1134 -0.9516
  165MOL0     H22244  12.994  11.612  12.114  1.5819 -2.7349  0.8751
  165MOL0     H22245  12.942  11.614  12.427 -3.0960 -2.5086  1.1587
  165MOL0     H22246  12.835  11.551  12.302  0.9628 -1.0498  2.1246
  165MOL0     H22247  12.762  11.768  12.244  0.4406  0.9722 -0.9518
  165MOL0     H22248  12.912  11.850  12.289 -0.3160 -0.4462 -3.4127
  165MOL0     H22249  12.724  11.720  12.491 -0.2709 -0.6450 -1.9335
  165MOL0     H22250  12.851  11.851  12.517  2.7224  1.2818 -2.8808
  165MOL0     H22251  12.712  12.020  12.499  0.3965  1.2759 -0.7354
  165MOL0     H22252  12.585  11.905  12.518  2.7981  3.3170  2.6520
  165MOL0     H22253  12.580  12.080  12.317  1.1646  0.3371  2.0644
  165MOL0     H22254  12.723  11.997  12.252  0.6673 -2.2494  0.5165
  165MOL0     H22255  13.035  11.527  11.862  1.4916 -0.8045 -1.0559
  165MOL0     H22256  12.908  11.481  11.650  2.2201  2.0248  1.8186
  165MOL0     H22257  12.511  11.205  11.505 -1.2349  2.8888 -0.7670
  165MOL0     H22258  12.364  11.187  11.323  0.2694  0.5543  1.2855
  165MOL0     H22259  11.150  10.357  10.468  0.3235 -1.0615 -0.5244
  165MOL0     H22260  11.012  10.175  10.453  0.2283 -0.4790 -0.1574
  165MOL0     H22261  10.732  10.037  10.202 -1.5074  1.5409 -1.3777
  165MOL0     H22262  10.656   9.852  10.039  0.5369  1.0805  0.9510
  165MOL0     H22263  10.271   9.865   9.926 -1.7393 -0.0132 -0.0718
  165MOL0     H22264  10.208   9.719  10.003  0.8146 -2.3114  0.3561
  165MOL0     H22265  10.322   9.559   9.861 -0.1507  0.7043  1.3010
  165MOL0     H22266  10.373   9.696   9.763  1.0230 -2.8239 -1.2506
  165MOL0     H22267  10.123   9.758   9.752 -1.2663 -1.2820 -0.5689
  165MOL0     H22268  10.085   9.620   9.853 -0.8709  1.3180  0.7075
  165MOL0     H22269  10.039   9.600   9.614  0.9245  0.8031 -3.0819
  165MOL0     H22270  10.222   9.602   9.584  0.5125  0.1836  0.8593
  165MOL0     H22271  10.149   9.207   9.723 -0.1906  0.2585 -2.2977
  165MOL0     H22272  10.253   9.914  10.178 -0.9140  0.2260  2.2468
  165MOL0     H22273  10.195  10.075  10.311 -0.4525  0.1130  1.5840
  165MOL0     H22274  10.294  10.100  10.456 -1.8378 -0.0902 -0.2604
  165MOL0     H22275  10.303  10.217  10.328 -1.1267  0.9762  0.9042
  166MOL0     O22276   5.040   6.080   0.470  0.0933  0.1663 -0.3378
  166MOL0     C22277   4.964   6.003   0.414  0.0080  0.8371  0.2995
  166MOL0     O22278   4.992   5.954   0.291  0.0351  0.6526  0.5255
  166MOL0     C22279   5.125   5.972   0.249  0.2003 -0.4444  0.2274
  166MOL0     C22280   5.174   6.093   0.182 -0.0573  0.5678  0.0656
  166MOL0     C22281   5.310   6.108   0.163 -0.8870 -1.0298  1.0680
  166MOL0     C22282   5.407   6.009   0.176  0.1136  0.4490  0.0190
  166MOL0     O22283   5.538   6.003   0.139  0.5691 -0.4696 -0.0657
  166MOL0     C22284   5.593   6.119   0.092  0.2731 -0.1995  0.7488
  166MOL0     C22285   5.737   6.096   0.061 -0.4357 -0.5992  0.2140
  166MOL0     C22286   5.815   6.062   0.192 -0.1566 -0.2776  0.4041
  166MOL0     C22287   5.969   6.046   0.176  0.3173  0.1342 -0.5714
  166MOL0     C22288   6.039   5.974   0.295 -0.1512  0.4622 -0.1454
  166MOL0     C22289   6.012   6.056   0.425  0.5775  0.4855  0.5816
  166MOL0     C22290   6.059   5.967   0.542  0.2988 -0.2181  0.1165
  166MOL0     C22291   6.014   6.017   0.675  0.3856 -0.7190  0.7136
  166MOL0     N22292   6.100   6.128   0.721  0.6286  0.2307 -0.3638
  166MOL0     C22293   6.081   6.266   0.702  0.0201 -0.3793 -0.4077
  166MOL0     C22294   6.194   6.326   0.760  1.3460  0.9713 -0.5891
  166MOL0     C22295   6.227   6.464   0.771  0.4382 -0.4843 -0.1929
  166MOL0     C22296   6.327   6.499   0.671  0.3962 -0.5066  0.0654
  166MOL0     C22297   6.471   6.454   0.705  0.5579 -0.2026  0.0567
  166MOL0     C22298   6.567   6.504   0.593 -0.0265  0.0573  0.4524
  166MOL0     O22299   6.708   6.491   0.620  0.2779 -0.7361  0.0819
  166MOL0     C22300   6.793   6.555   0.529  0.1640  0.5326  0.3137
  166MOL0     C22301   6.760   6.660   0.430  0.0939  0.0086  0.3851
  166MOL0     C22302   6.865   6.717   0.349 -1.1590  0.6023 -0.6983
  166MOL0     C22303   6.998   6.666   0.364  0.3629 -0.2086 -0.2599
  166MOL0     C22304   7.113   6.727   0.295 -0.4509 -0.5613  0.7867
  166MOL0     O22305   7.087   6.833   0.209 -0.0803 -0.4764  0.3548
  166MOL0     C22306   7.201   6.881   0.148 -0.0697 -0.4307  0.0429
  166MOL0     C22307   7.300   6.966   0.198 -0.6183 -0.0166 -0.7976
  166MOL0     C22308   7.427   6.986   0.138 -0.7426 -0.1095  0.4329
  166MOL0     C22309   7.456   6.934   0.011  0.4400 -0.0610 -0.4919
  166MOL0     O22310   7.580   6.949  -0.047  0.8878 -0.0200  0.2923
  166MOL0     C22311   7.612   7.089  -0.086 -0.1609 -0.1058  0.6249
  166MOL0     C22312   7.739   7.143  -0.030 -0.7427 -0.0364  0.5309
  166MOL0     C22313   7.771   7.287  -0.063 -0.3273  0.0327 -0.5363
  166MOL0     C22314   7.919   7.315  -0.018 -1.4332  0.2429  0.4873
  166MOL0     C22315   7.974   7.439  -0.095  0.1905  0.2753 -0.3096
  166MOL0     C22316   8.108   7.493  -0.054  0.9858 -0.2873 -1.1880
  166MOL0     C22317   8.157   7.600  -0.144  0.7503 -1.0342  0.2652
  166MOL0     C22318   8.310   7.631  -0.147  0.7032  0.0807  0.5641
  166MOL0    Cl22319   8.383   7.627   0.020 -0.0527 -0.1085  0.0289
  166MOL0     C22320   7.358   6.859  -0.048  0.8641 -0.1231  0.0680
  166MOL0     C22321   7.231   6.833   0.016  0.1975  0.1412 -0.2088
  166MOL0     O22322   7.222   6.677   0.306  0.6339  0.8377 -0.0797
  166MOL0     C22323   7.027   6.574   0.467  0.3806  0.3892  0.4289
  166MOL0     C22324   6.929   6.520   0.551 -0.0285 -0.3604  0.1573
  166MOL0     N22325   6.276   6.221   0.809  0.7237  0.0307  0.5345
  166MOL0     N22326   6.215   6.105   0.791 -0.3839  0.0719  0.5898
  166MOL0     C22327   5.353   5.879   0.218 -0.0360 -0.1482 -0.5103
  166MOL0     C22328   5.222   5.863   0.258  0.2649  0.5265 -0.1078
  166MOL0     C22329   4.842   5.955   0.484  0.3639 -0.2065 -0.9140
  166MOL0     C22330   4.768   5.859   0.409 -0.1805  0.0588 -0.4023
  166MOL0     C22331   4.655   5.796   0.460 -0.0362 -0.3305  0.2093
  166MOL0     C22332   4.608   5.836   0.586  0.0931  0.0201  0.5768
  166MOL0     O22333   4.488   5.803   0.635 -0.6112  0.0409  0.0245
  166MOL0     C22334   4.460   5.666   0.622 -0.2412 -0.6226 -0.6002
  166MOL0     C22335   4.363   5.630   0.743 -0.3813 -0.7110 -0.0369
  166MOL0     C22336   4.440   5.634   0.882  0.1358 -0.3055 -0.1607
  166MOL0     C22337   4.495   5.495   0.915  0.2621 -0.7990  0.2887
  166MOL0     C22338   4.527   5.508   1.057  0.3761  0.3345  0.4802
  166MOL0     C22339   4.555   5.521   1.178 -0.1015  0.5908  0.3247
  166MOL0     C22340   4.685   5.918   0.667 -1.1435  0.2192 -0.1861
  166MOL0     C22341   4.804   5.983   0.623  0.6057 -0.0553 -0.2754
  166MOL0     C22342   4.884   6.085   0.719  0.6976  0.3518 -0.1076
  166MOL0     H22343   5.107   6.178   0.170  1.5864  2.1264  1.4736
  166MOL0     H22344   5.352   6.204   0.134 -1.6138 -0.2005  2.5903
  166MOL0     H22345   5.533   6.157   0.009 -1.8486 -1.2581  1.7312
  166MOL0     H22346   5.576   6.203   0.160  0.4209  1.1242 -0.7751
  166MOL0     H22347   5.756   6.199   0.028 -1.4336  0.0224  1.4928
  166MOL0     H22348   5.741   6.015  -0.012  0.7978 -1.5430  1.2807
  166MOL0     H22349   5.763   5.979   0.242  2.6689 -0.7319  2.8351
  166MOL0     H22350   5.792   6.145   0.259 -0.7473 -2.4806  3.0977
  166MOL0     H22351   5.993   5.990   0.086 -0.9983 -0.8686 -0.3356
  166MOL0     H22352   6.005   6.149   0.168 -0.6609  0.8908  2.9904
  166MOL0     H22353   6.000   5.872   0.310  1.7396 -0.1656  0.7476
  166MOL0     H22354   6.145   5.977   0.268 -0.3742  1.2455 -0.9733
  166MOL0     H22355   6.073   6.147   0.425 -0.1830  1.0086  1.1913
  166MOL0     H22356   5.907   6.082   0.442  0.3498 -1.7987  3.5135
  166MOL0     H22357   6.167   5.953   0.550  0.2198 -1.6106 -0.8568
  166MOL0     H22358   6.016   5.868   0.524  0.4825 -0.1488 -0.7648
  166MOL0     H22359   5.909   6.048   0.674 -0.6726 -3.8802  1.3441
  166MOL0     H22360   6.006   5.937   0.749 -0.5612 -2.0776 -0.7738
  166MOL0     H22361   5.994   6.315   0.658  0.8813  0.1010 -1.6338
  166MOL0     H22362   6.133   6.519   0.761  0.7624  0.2811  0.7226
  166MOL0     H22363   6.280   6.472   0.866  3.1177 -0.4504 -1.5983
  166MOL0     H22364   6.290   6.472   0.572 -1.3465 -0.4071  0.6443
  166MOL0     H22365   6.349   6.606   0.661 -1.6901 -0.1994 -2.1512
  166MOL0     H22366   6.476   6.344   0.706  1.2323 -0.2406 -2.0378
  166MOL0     H22367   6.499   6.498   0.801 -2.2362  4.3973 -0.9689
  166MOL0     H22368   6.548   6.608   0.567 -0.0852  0.1036  0.6708
  166MOL0     H22369   6.556   6.437   0.508 -0.2711 -0.8170  1.1475
  166MOL0     H22370   6.658   6.697   0.419  0.1387  0.4736  1.3898
  166MOL0     H22371   6.846   6.777   0.261  2.8926  0.5900 -1.7607
  166MOL0     H22372   7.282   7.005   0.298  0.7390 -2.8955  0.6819
  166MOL0     H22373   7.503   7.044   0.189 -1.1999  1.0033 -0.1223
  166MOL0     H22374   7.609   7.106  -0.194  0.1353  1.5974  0.8624
  166MOL0     H22375   7.528   7.154  -0.060 -0.1569  0.3925 -0.5559
  166MOL0     H22376   7.735   7.125   0.078 -0.5213 -3.7381  0.0429
  166MOL0     H22377   7.811   7.076  -0.077 -0.3075  0.3458  0.6419
  166MOL0     H22378   7.756   7.293  -0.171  0.5174  0.1378 -0.6511
  166MOL0     H22379   7.702   7.356  -0.015 -0.2522 -0.8449  0.8966
  166MOL0     H22380   7.981   7.234  -0.059  0.8908  2.4743 -0.6945
  166MOL0     H22381   7.936   7.325   0.090  0.9497  1.8103  0.0388
  166MOL0     H22382   7.896   7.515  -0.100 -1.6970 -1.6439 -3.6383
  166MOL0     H22383   7.986   7.399  -0.196  0.7788  0.2692 -0.2455
  166MOL0     H22384   8.096   7.540   0.045  1.2536 -1.8372 -0.3784
  166MOL0     H22385   8.178   7.409  -0.048 -0.0877 -1.1191  0.3202
  166MOL0     H22386   8.106   7.696  -0.127  0.8505  0.4211 -5.4009
  166MOL0     H22387   8.125   7.580  -0.247  0.2939  0.3320  0.1154
  166MOL0     H22388   8.366   7.564  -0.213  0.6444  1.0942 -0.5535
  166MOL0     H22389   8.316   7.731  -0.191 -0.2425 -1.0859 -2.4966
  166MOL0     H22390   7.367   6.832  -0.153 -0.9286  0.0105 -0.1553
  166MOL0     H22391   7.161   6.776  -0.045  0.6111  0.6573 -1.1797
  166MOL0     H22392   7.129   6.546   0.491  1.0138  1.7670 -0.5421
  166MOL0     H22393   6.952   6.453   0.634 -2.5434  1.3203  2.3839
  166MOL0     H22394   5.429   5.803   0.238  0.8813  0.8935  0.0966
  166MOL0     H22395   5.183   5.767   0.292  2.1904 -0.1531  0.3014
  166MOL0     H22396   4.796   5.838   0.306  0.4743  3.4096 -1.0383
  166MOL0     H22397   4.602   5.718   0.407  0.1648 -1.6311  1.8631
  166MOL0     H22398   4.546   5.600   0.634 -0.0259 -0.0378  1.2914
  166MOL0     H22399   4.396   5.642   0.536 -2.7684  1.3567  0.5956
  166MOL0     H22400   4.315   5.532   0.738  1.1084 -1.4572 -0.3705
  166MOL0     H22401   4.282   5.703   0.754 -0.6720 -0.9874 -0.3077
  166MOL0     H22402   4.389   5.663   0.974  2.6484  1.2333  0.8632
  166MOL0     H22403   4.526   5.701   0.868  0.2642 -0.1927  1.0826
  166MOL0     H22404   4.427   5.411   0.901  2.9829 -3.1369  0.2303
  166MOL0     H22405   4.587   5.473   0.859  0.7168 -0.4214  0.8691
  166MOL0     H22406   4.585   5.549   1.277  0.9732  1.7743 -0.3002
  166MOL0     H22407   4.643   5.932   0.767 -1.4936 -2.1587  0.0437
  166MOL0     H22408   4.971   6.035   0.763 -0.8264 -1.4533  0.9823
  166MOL0     H22409   4.915   6.175   0.666 -0.6662  1.2233  0.5023
  166MOL0     H22410   4.815   6.115   0.799  1.2456 -0.5080  0.7051
  167MOL0     O22411   3.859   3.989  10.351 -0.0716 -0.4625 -0.0048
  167MOL0     C22412   3.900   3.880  10.299 -0.8140  1.0669 -0.5062
  167MOL0     O22413   4.014   3.863  10.229  0.7913  0.0520 -1.2979
  167MOL0     C22414   4.071   3.975  10.181 -0.8851  0.1908  1.0055
  167MOL0     C22415   4.030   4.019  10.054 -0.0777 -0.1049  0.4468
  167MOL0     C22416   4.071   4.141  10.005  0.1673 -0.3706 -0.7415
  167MOL0     C22417   4.162   4.222  10.074  0.5313  0.3622  0.1737
  167MOL0     O22418   4.211   4.335  10.007 -0.4344 -1.4241 -0.1662
  167MOL0     C22419   4.339   4.383  10.030  0.7650  0.4365  0.6782
  167MOL0     C22420   4.430   4.326   9.930 -0.6728  0.7066 -0.3330
  167MOL0     C22421   4.427   4.167   9.910  0.3638 -0.5213 -1.5407
  167MOL0     C22422   4.356   4.122   9.784 -0.0874 -0.3802 -0.5666
  167MOL0     C22423   4.370   3.967   9.767 -0.1286  0.4293  0.8183
  167MOL0     C22424   4.300   3.892   9.644  0.3956 -0.0928  1.0985
  167MOL0     C22425   4.150   3.910   9.669 -0.2124  0.7536 -0.3688
  167MOL0     C22426   4.079   3.904   9.550  1.0433  0.5540 -0.1574
  167MOL0     N22427   4.093   3.778   9.473 -0.0368  0.7874  0.7687
  167MOL0     C22428   4.031   3.657   9.495  0.1564  0.1584  0.4506
  167MOL0     C22429   4.106   3.562   9.429  0.6049 -0.5834 -0.2529
  167MOL0     C22430   4.085   3.411   9.419 -0.2153  0.2255 -0.3050
  167MOL0     C22431   3.996   3.377   9.297 -0.0253  0.0454  0.5339
  167MOL0     C22432   3.954   3.244   9.305  0.2374 -0.2038 -0.1882
  167MOL0     C22433   3.864   3.206   9.197 -0.5290  0.0838  0.5527
  167MOL0     O22434   3.805   3.077   9.216 -1.2310  0.5046  0.0800
  167MOL0     C22435   3.760   3.001   9.114 -0.0167  0.2766  0.4092
  167MOL0     C22436   3.717   3.054   8.994 -1.4243 -0.2066 -0.2581
  167MOL0     C22437   3.672   2.976   8.886 -0.3210  0.2534  0.3481
  167MOL0     C22438   3.641   2.845   8.919  0.5725 -0.6476  0.0296
  167MOL0     C22439   3.555   2.763   8.823  0.3214  0.1339  0.7408
  167MOL0     O22440   3.481   2.658   8.865 -0.5060  0.6971  0.0950
  167MOL0     C22441   3.446   2.549   8.788  0.6839  0.3559 -0.0413
  167MOL0     C22442   3.341   2.475   8.839 -0.0599 -0.1988  0.3029
  167MOL0     C22443   3.297   2.364   8.760 -0.2135  0.1848 -0.2704
  167MOL0     C22444   3.376   2.317   8.655  0.1084 -0.0963  1.0543
  167MOL0     O22445   3.335   2.205   8.583 -1.3169 -0.4894  0.0149
  167MOL0     C22446   3.193   2.178   8.588  0.5325  0.4035 -0.3800
  167MOL0     C22447   3.146   2.083   8.474 -0.1520  0.3237  1.2399
  167MOL0     C22448   3.174   2.129   8.326 -0.0868 -0.5576  0.9423
  167MOL0     C22449   3.171   2.284   8.317 -0.0865  0.5115  0.8264
  167MOL0     C22450   3.216   2.335   8.180 -0.2038 -0.5214 -0.2936
  167MOL0     C22451   3.342   2.424   8.195 -0.6768  0.8500 -0.9333
  167MOL0     C22452   3.401   2.441   8.049 -1.2196  0.5989  0.8678
  167MOL0     C22453   3.515   2.541   8.056  0.6659  0.8529 -0.7099
  167MOL0    Cl22454   3.621   2.533   8.203  0.4233 -0.0606 -0.1435
  167MOL0     C22455   3.481   2.397   8.605 -0.1689 -0.4271 -0.5321
  167MOL0     C22456   3.518   2.515   8.677 -0.1922 -0.1696  0.6372
  167MOL0     O22457   3.554   2.801   8.706 -0.1052  0.3428  0.0151
  167MOL0     C22458   3.679   2.786   9.035 -0.4308 -0.6545  0.4701
  167MOL0     C22459   3.751   2.861   9.126  1.1075  0.4471  0.1269
  167MOL0     N22460   4.206   3.627   9.372 -0.5017  0.1524 -0.6195
  167MOL0     N22461   4.209   3.751   9.404  0.4043  0.8928  0.0298
  167MOL0     C22462   4.203   4.183  10.202 -0.2057  0.5296  0.1939
  167MOL0     C22463   4.159   4.056  10.251 -0.5004 -0.2245 -0.0405
  167MOL0     C22464   3.821   3.759  10.329  0.4951  0.1396  0.4641
  167MOL0     C22465   3.881   3.624  10.317 -0.4961 -0.3679  0.3327
  167MOL0     C22466   3.804   3.512  10.349  0.2622  0.3584  0.0969
  167MOL0     C22467   3.675   3.519  10.393 -0.4440 -1.4440  0.7863
  167MOL0     O22468   3.619   3.401  10.429  0.6150 -0.4653 -1.4773
  167MOL0     C22469   3.500   3.372  10.354  0.1219  1.2223 -0.4232
  167MOL0     C22470   3.395   3.313  10.448 -1.0349  0.2563  0.5979
  167MOL0     C22471   3.428   3.174  10.483  0.3986  1.0913 -0.1778
  167MOL0     C22472   3.344   3.118  10.601  0.0511  0.0968 -0.0995
  167MOL0     C22473   3.193   3.138  10.594 -0.3131 -0.3250  0.8430
  167MOL0     C22474   3.076   3.169  10.583  0.7738  0.1254  0.5993
  167MOL0     C22475   3.613   3.648  10.392 -0.2614  0.1562  0.2351
  167MOL0     C22476   3.682   3.766  10.359 -0.3607 -0.1917  0.8127
  167MOL0     C22477   3.606   3.894  10.361  0.5231 -0.3505  0.6190
  167MOL0     H22478   3.950   3.968  10.002 -0.5054 -0.1391  1.1286
  167MOL0     H22479   4.029   4.182   9.914  0.1912 -0.4508 -0.7886
  167MOL0     H22480   4.336   4.490  10.011  0.6050  0.1234 -1.2411
  167MOL0     H22481   4.367   4.383  10.136 -1.3721  0.9375  1.3003
  167MOL0     H22482   4.531   4.361   9.952  0.5139 -0.4085 -3.4375
  167MOL0     H22483   4.396   4.364   9.833  1.4268  0.6119 -1.1385
  167MOL0     H22484   4.385   4.111   9.994  2.0910 -1.1530 -1.0493
  167MOL0     H22485   4.531   4.134   9.901  0.9463  0.8966 -0.5736
  167MOL0     H22486   4.256   4.163   9.772  1.2078  2.2003 -4.7211
  167MOL0     H22487   4.409   4.173   9.703  2.3695  1.0573  1.7731
  167MOL0     H22488   4.475   3.937   9.763  0.6146  2.9801 -0.5337
  167MOL0     H22489   4.335   3.917   9.858  3.8648  0.2463  2.4499
  167MOL0     H22490   4.330   3.940   9.551 -0.1339  0.7051  1.3274
  167MOL0     H22491   4.328   3.786   9.650 -0.7032 -0.5386 -0.7019
  167MOL0     H22492   4.125   3.999   9.728  0.3032  1.2797 -0.9349
  167MOL0     H22493   4.115   3.832   9.737  0.4565  0.0882 -0.7706
  167MOL0     H22494   3.974   3.916   9.577 -0.2475 -3.9203 -2.2310
  167MOL0     H22495   4.107   3.984   9.481  0.5597  2.4080  1.7034
  167MOL0     H22496   3.938   3.644   9.549  1.3099  1.2549  2.8087
  167MOL0     H22497   4.176   3.350   9.411 -1.9220 -2.5703  0.2672
  167MOL0     H22498   4.052   3.378   9.518  2.0460  1.0203  0.7901
  167MOL0     H22499   3.907   3.441   9.296  0.2489  0.5414 -2.2110
  167MOL0     H22500   4.047   3.395   9.202  1.2805 -0.0822  1.2008
  167MOL0     H22501   3.893   3.229   9.394  2.2503 -0.0165  1.3028
  167MOL0     H22502   4.041   3.182   9.281  2.0397  2.4179 -0.9498
  167MOL0     H22503   3.908   3.232   9.101 -2.2621  0.2666 -0.2225
  167MOL0     H22504   3.788   3.284   9.205  0.1389  0.6613  1.4933
  167MOL0     H22505   3.726   3.162   8.984  0.8308 -0.2969  0.3476
  167MOL0     H22506   3.649   3.013   8.786 -0.7210 -0.0169  0.3365
  167MOL0     H22507   3.300   2.498   8.937  0.7501  1.4972  0.2947
  167MOL0     H22508   3.226   2.293   8.802 -1.0953  1.0269 -0.3262
  167MOL0     H22509   3.156   2.143   8.684  1.4332 -0.0598 -0.1865
  167MOL0     H22510   3.137   2.272   8.585  0.0553  0.1325 -0.0619
  167MOL0     H22511   3.191   1.984   8.487  0.0234  0.4036  1.2410
  167MOL0     H22512   3.038   2.069   8.488 -0.4996  3.0643  1.8190
  167MOL0     H22513   3.276   2.105   8.297  0.0479  0.8569  0.1794
  167MOL0     H22514   3.118   2.071   8.251  1.3744 -0.6604 -0.1046
  167MOL0     H22515   3.227   2.328   8.399 -0.3762 -0.9562  1.8632
  167MOL0     H22516   3.063   2.302   8.325 -0.6043 -1.4158 -0.7311
  167MOL0     H22517   3.142   2.405   8.140 -0.4034 -1.8710 -2.4690
  167MOL0     H22518   3.234   2.257   8.106  1.2933 -0.4827 -0.0038
  167MOL0     H22519   3.306   2.520   8.232  0.8538  0.8616  0.6315
  167MOL0     H22520   3.411   2.375   8.264 -2.0240  0.8465  0.4441
  167MOL0     H22521   3.329   2.481   7.977  2.2687 -0.4469 -3.7264
  167MOL0     H22522   3.439   2.348   8.006 -1.8950  1.7431 -2.5839
  167MOL0     H22523   3.577   2.542   7.966  0.4979  0.4273 -0.8336
  167MOL0     H22524   3.460   2.636   8.064 -1.1011 -0.1451 -0.5209
  167MOL0     H22525   3.550   2.361   8.529  0.0974 -1.1946  0.0631
  167MOL0     H22526   3.601   2.566   8.629  1.9329 -1.6977  2.5372
  167MOL0     H22527   3.653   2.682   9.055  4.1396 -2.0525  0.3706
  167MOL0     H22528   3.778   2.812   9.219 -1.5311 -1.7221 -0.1497
  167MOL0     H22529   4.291   4.232  10.241  1.1020  1.1413 -3.1728
  167MOL0     H22530   4.203   4.028  10.346  3.5181 -0.1150 -1.6699
  167MOL0     H22531   3.981   3.633  10.276 -0.9569  3.5692 -0.3866
  167MOL0     H22532   3.853   3.415  10.346 -0.8898 -0.2453 -2.9054
  167MOL0     H22533   3.520   3.304  10.270 -0.4998  0.5605 -0.0440
  167MOL0     H22534   3.456   3.464  10.314 -0.7345  1.6533  1.4011
  167MOL0     H22535   3.302   3.324  10.393 -0.1635  3.1179 -0.4952
  167MOL0     H22536   3.399   3.369  10.542  1.4387 -0.5004  1.0194
  167MOL0     H22537   3.528   3.153  10.520 -0.0488 -0.5301  0.1862
  167MOL0     H22538   3.408   3.119  10.390  1.4529  4.4847 -2.6108
  167MOL0     H22539   3.361   3.011  10.617 -3.6835 -0.5589  0.4434
  167MOL0     H22540   3.375   3.155  10.699 -0.7494 -3.1964  1.5639
  167MOL0     H22541   2.982   3.217  10.564  1.5924  1.8559  0.7017
  167MOL0     H22542   3.514   3.670  10.432 -0.8361  0.6569 -1.3786
  167MOL0     H22543   3.639   3.939  10.455  0.6273 -1.8554  1.3372
  167MOL0     H22544   3.614   3.965  10.279  0.7704 -1.1667 -0.0832
  167MOL0     H22545   3.499   3.871  10.366  0.5224 -0.4632  0.1803
  168MOL0     O22546   4.936   6.787   1.326  0.5857  0.5303  0.1570
  168MOL0     C22547   4.980   6.820   1.217  0.1850  0.3142 -0.4365
  168MOL0     O22548   5.101   6.865   1.200 -0.7062  0.4890  0.3689
  168MOL0     C22549   5.186   6.857   1.298  0.6165 -0.0594 -0.0947
  168MOL0     C22550   5.282   6.955   1.307 -0.4727 -0.2163  1.0546
  168MOL0     C22551   5.390   6.946   1.383  0.2430  0.1758 -0.0201
  168MOL0     C22552   5.418   6.834   1.469  0.1869 -0.0710  0.6836
  168MOL0     O22553   5.531   6.821   1.543 -0.3047 -0.0213 -0.7061
  168MOL0     C22554   5.604   6.942   1.590 -0.1364  0.5672  0.4884
  168MOL0     C22555   5.695   6.888   1.702  0.1531 -0.3141  0.2108
  168MOL0     C22556   5.842   6.843   1.663 -0.0058  0.3119 -0.6325
  168MOL0     C22557   5.842   6.727   1.570  0.2228  0.9754  0.1296
  168MOL0     C22558   5.980   6.682   1.503  0.1541  0.4744  0.7490
  168MOL0     C22559   5.971   6.556   1.424 -0.1751 -0.2109  0.0980
  168MOL0     C22560   6.111   6.519   1.373 -0.1763 -0.3366 -0.4915
  168MOL0     C22561   6.107   6.370   1.324  1.1573 -0.6447  0.3225
  168MOL0     N22562   6.061   6.269   1.427 -0.4547  0.1265  0.0429
  168MOL0     C22563   5.930   6.213   1.447 -0.4817  0.4252 -0.9404
  168MOL0     C22564   5.960   6.118   1.540 -0.9449  0.3256 -0.2186
  168MOL0     C22565   5.855   6.018   1.590  0.0030 -0.9090  0.7609
  168MOL0     C22566   5.894   5.936   1.710 -0.0587 -1.0839  0.7695
  168MOL0     C22567   5.966   5.807   1.671  0.1219 -0.4119 -0.2797
  168MOL0     C22568   5.976   5.705   1.785  0.7594 -0.0821 -0.3350
  168MOL0     O22569   6.078   5.743   1.866 -0.3822 -0.3180  0.3599
  168MOL0     C22570   6.202   5.685   1.836 -1.4088 -0.6800 -0.5639
  168MOL0     C22571   6.308   5.685   1.934  0.1844 -0.3113 -0.1849
  168MOL0     C22572   6.438   5.642   1.906 -0.0164  0.3882 -0.2517
  168MOL0     C22573   6.467   5.580   1.777 -0.2006  0.0982  0.0231
  168MOL0     C22574   6.600   5.522   1.765  0.2570  0.6565  0.2511
  168MOL0     O22575   6.684   5.539   1.873  0.2711 -0.1448 -0.0240
  168MOL0     C22576   6.810   5.485   1.872 -0.7134 -0.0734 -0.3076
  168MOL0     C22577   6.903   5.537   1.772 -0.7086 -0.0953 -0.2488
  168MOL0     C22578   7.023   5.473   1.755 -1.0982 -0.7959  0.2490
  168MOL0     C22579   7.064   5.358   1.833  1.8852  0.1455  0.6347
  168MOL0     O22580   7.164   5.266   1.808 -0.7022 -0.1870 -0.0914
  168MOL0     C22581   7.236   5.296   1.685 -0.2298  0.2637  0.5509
  168MOL0     C22582   7.303   5.167   1.655  0.0051 -0.0999 -0.4374
  168MOL0     C22583   7.365   5.148   1.512  0.2276 -0.1204  0.0552
  168MOL0     C22584   7.402   4.999   1.505 -1.1705 -0.8485  0.3716
  168MOL0     C22585   7.490   4.956   1.389  0.6573 -0.6388 -0.2012
  168MOL0     C22586   7.634   5.012   1.387  0.7616 -0.3458  0.9220
  168MOL0     C22587   7.716   4.924   1.290 -0.7920 -0.7290 -0.5054
  168MOL0     C22588   7.853   4.978   1.294 -0.6757  0.1081  1.5635
  168MOL0    Cl22589   7.932   4.886   1.168  0.5525  0.2380  0.1036
  168MOL0     C22590   6.967   5.311   1.923 -0.4215 -0.1476 -0.5428
  168MOL0     C22591   6.851   5.374   1.950  0.7999  1.1407  0.2464
  168MOL0     O22592   6.622   5.459   1.664 -0.8674 -0.1874 -0.2829
  168MOL0     C22593   6.372   5.580   1.673  0.1122  0.0865 -0.2702
  168MOL0     C22594   6.249   5.639   1.705 -0.5082 -0.8759 -0.4846
  168MOL0     N22595   6.091   6.111   1.570 -1.0207 -0.5245  0.1083
  168MOL0     N22596   6.155   6.212   1.506  0.5933  0.0897 -0.3957
  168MOL0     C22597   5.324   6.727   1.465 -0.1380  0.1863  0.7498
  168MOL0     C22598   5.209   6.742   1.374  0.1667  0.3489 -0.0269
  168MOL0     C22599   4.908   6.773   1.098  0.4665  1.0265 -0.4421
  168MOL0     C22600   4.990   6.760   0.983  0.1780  0.5449  0.8468
  168MOL0     C22601   4.939   6.717   0.861 -0.3567 -0.2075 -0.8900
  168MOL0     C22602   4.813   6.653   0.858 -0.1069 -0.1732  0.4961
  168MOL0     O22603   4.761   6.574   0.758 -0.0015  0.5995  0.1415
  168MOL0     C22604   4.840   6.577   0.635 -0.0056  0.0683 -0.6375
  168MOL0     C22605   4.765   6.517   0.510  0.6262 -0.3176  0.1271
  168MOL0     C22606   4.852   6.536   0.378  0.9622 -0.3819 -0.2244
  168MOL0     C22607   5.005   6.487   0.379  0.2340  0.0790  0.7339
  168MOL0     C22608   5.092   6.495   0.266 -0.2963  0.4447 -0.8202
  168MOL0     C22609   5.182   6.500   0.183  0.3128  0.1145  0.5804
  168MOL0     C22610   4.728   6.666   0.970  0.0586 -0.6095 -0.9691
  168MOL0     C22611   4.770   6.725   1.087 -0.6893  0.0031 -0.0321
  168MOL0     C22612   4.671   6.756   1.198  0.6713 -0.5590  0.8030
  168MOL0     H22613   5.259   7.050   1.259 -1.7427 -0.9684  0.0785
  168MOL0     H22614   5.461   7.027   1.375 -0.4063  0.5247 -3.3242
  168MOL0     H22615   5.659   6.990   1.508  0.4649  1.1197  1.1993
  168MOL0     H22616   5.533   7.009   1.639 -2.2038 -1.4918  0.4726
  168MOL0     H22617   5.640   6.798   1.732  2.9385 -1.6593  1.7595
  168MOL0     H22618   5.707   6.944   1.795  3.1541 -3.3091  1.9058
  168MOL0     H22619   5.894   6.826   1.757 -2.3239  0.2451  0.7200
  168MOL0     H22620   5.897   6.922   1.612  0.5181 -0.1870 -0.8481
  168MOL0     H22621   5.801   6.638   1.618  1.1006  0.4178 -0.1374
  168MOL0     H22622   5.773   6.757   1.491  1.3864  1.3856 -0.7613
  168MOL0     H22623   6.030   6.754   1.438 -0.4680  0.2260 -0.0257
  168MOL0     H22624   6.047   6.665   1.587  0.3015  0.7282  0.6824
  168MOL0     H22625   5.935   6.476   1.489 -1.9745 -0.1955 -0.8425
  168MOL0     H22626   5.904   6.567   1.339  0.1633  3.7549  0.1568
  168MOL0     H22627   6.177   6.523   1.460  3.4035 -3.0408 -2.8148
  168MOL0     H22628   6.140   6.590   1.295 -0.8220 -0.7178 -1.1002
  168MOL0     H22629   6.034   6.369   1.243  0.0532  0.6098  1.2408
  168MOL0     H22630   6.201   6.341   1.278  1.3019  1.1379 -0.5936
  168MOL0     H22631   5.835   6.233   1.400 -1.0880 -0.3145 -0.0683
  168MOL0     H22632   5.770   6.073   1.630 -1.4514 -2.8569  0.4874
  168MOL0     H22633   5.813   5.956   1.510 -0.0690 -3.1299  2.4143
  168MOL0     H22634   5.967   5.996   1.766  0.0723  1.3076 -1.7635
  168MOL0     H22635   5.812   5.904   1.774  0.5457 -0.8143  1.6993
  168MOL0     H22636   6.062   5.824   1.621  0.6698 -0.8917  0.5705
  168MOL0     H22637   5.903   5.748   1.604  1.3186 -2.7015  0.5190
  168MOL0     H22638   6.006   5.609   1.741  1.4533 -0.0340  0.0154
  168MOL0     H22639   5.883   5.692   1.841  0.9413 -2.2875 -0.4317
  168MOL0     H22640   6.280   5.714   2.035 -1.0856  6.3744 -1.9265
  168MOL0     H22641   6.505   5.642   1.991 -0.8266  1.5593  0.4233
  168MOL0     H22642   6.886   5.623   1.707 -2.6460  1.2016  1.8313
  168MOL0     H22643   7.082   5.513   1.674  0.1196 -0.2361  1.3827
  168MOL0     H22644   7.171   5.319   1.600  0.7571  0.9156 -0.0534
  168MOL0     H22645   7.305   5.378   1.707 -1.4874  1.8272 -1.0131
  168MOL0     H22646   7.376   5.153   1.736 -0.7923 -0.0410  0.3148
  168MOL0     H22647   7.227   5.092   1.682  0.6785 -0.1846  1.3828
  168MOL0     H22648   7.286   5.159   1.438 -0.6358  1.0910  1.0970
  168MOL0     H22649   7.452   5.213   1.498 -0.2724  1.3666  2.8779
  168MOL0     H22650   7.310   4.940   1.513 -2.7163  1.1995 -1.1042
  168MOL0     H22651   7.465   4.982   1.593  0.3227  0.2832 -0.4376
  168MOL0     H22652   7.444   5.001   1.300 -1.5109  0.4273  1.3771
  168MOL0     H22653   7.489   4.847   1.378  3.2310 -0.4798 -3.6560
  168MOL0     H22654   7.633   5.119   1.362 -3.2081  0.2293  2.8113
  168MOL0     H22655   7.678   5.010   1.488  0.8763 -0.8871  0.8650
  168MOL0     H22656   7.668   4.937   1.192 -1.3227 -1.6648 -0.3792
  168MOL0     H22657   7.713   4.820   1.324 -0.4064 -1.0444 -1.4107
  168MOL0     H22658   7.863   5.086   1.278  4.1830  0.0077  2.3065
  168MOL0     H22659   7.911   4.966   1.386  3.4835  0.3077 -0.8040
  168MOL0     H22660   6.978   5.213   1.968 -0.0612  0.5951  1.0525
  168MOL0     H22661   6.778   5.326   2.014  0.6571  0.4903 -0.3864
  168MOL0     H22662   6.376   5.532   1.576 -0.5775 -2.0956  0.7269
  168MOL0     H22663   6.173   5.649   1.629  0.0850  1.9960 -0.8059
  168MOL0     H22664   5.330   6.636   1.523  1.8875 -0.7830 -0.8597
  168MOL0     H22665   5.140   6.660   1.355 -2.1615  2.4334 -1.1983
  168MOL0     H22666   5.091   6.798   0.980 -0.0288  1.0520 -0.9284
  168MOL0     H22667   5.012   6.703   0.782 -1.2525  0.8781 -1.9421
  168MOL0     H22668   4.926   6.514   0.660 -0.0504 -0.2082 -1.1719
  168MOL0     H22669   4.882   6.677   0.617  0.9384 -0.2260 -0.1677
  168MOL0     H22670   4.666   6.561   0.495 -0.7611 -2.8197  1.3227
  168MOL0     H22671   4.748   6.410   0.521 -1.3625 -0.2287 -1.3826
  168MOL0     H22672   4.849   6.642   0.354  1.2501 -0.2076  0.4996
  168MOL0     H22673   4.800   6.470   0.307  2.3722 -4.4669  2.1775
  168MOL0     H22674   5.053   6.534   0.465  4.2989  0.1054 -1.3561
  168MOL0     H22675   4.996   6.380   0.399 -1.8135  0.2193  0.8618
  168MOL0     H22676   5.275   6.499   0.130  0.1816  1.7703  0.2565
  168MOL0     H22677   4.634   6.613   0.956 -0.4171 -0.3873  1.0815
  168MOL0     H22678   4.677   6.690   1.285  0.8022 -1.0277  0.4393
  168MOL0     H22679   4.704   6.857   1.224 -0.2356 -0.5284  1.9290
  168MOL0     H22680   4.568   6.762   1.163  0.5235  0.5651  1.3870
  169MOL0     O22681   9.542   1.439   1.655  0.6201 -0.3159 -0.5131
  169MOL0     C22682   9.600   1.354   1.729 -0.2023 -0.7992  0.5352
  169MOL0     O22683   9.729   1.356   1.755 -0.3275 -0.0870  0.4689
  169MOL0     C22684   9.825   1.431   1.697  1.0462 -0.4873  0.1296
  169MOL0     C22685   9.942   1.445   1.765 -0.4503 -0.5768 -0.2451
  169MOL0     C22686  10.050   1.534   1.718 -0.8319  0.9320 -0.1684
  169MOL0     C22687  10.030   1.626   1.615  1.2506 -0.4181  0.8751
  169MOL0     O22688  10.115   1.717   1.569  0.0472  0.3686 -0.5680
  169MOL0     C22689  10.259   1.711   1.582 -0.6706 -0.4186  0.1089
  169MOL0     C22690  10.325   1.848   1.535 -0.4247 -0.0348 -0.5077
  169MOL0     C22691  10.240   1.969   1.588 -0.4488 -0.3855  0.0827
  169MOL0     C22692  10.291   2.115   1.565 -0.8835  0.1838  0.4673
  169MOL0     C22693  10.281   2.162   1.421 -1.0974  0.3017 -0.0281
  169MOL0     C22694  10.231   2.301   1.392  0.2211 -0.0423 -0.5738
  169MOL0     C22695  10.345   2.382   1.451  0.5225  1.3430  0.3385
  169MOL0     C22696  10.304   2.480   1.557  0.7431  0.3659 -0.2508
  169MOL0     N22697  10.411   2.552   1.620  0.1390 -1.2279 -0.0347
  169MOL0     C22698  10.448   2.685   1.603 -0.6634  0.2717 -0.5350
  169MOL0     C22699  10.521   2.722   1.713 -0.1855  0.8373 -0.5205
  169MOL0     C22700  10.557   2.862   1.760 -0.0994  0.6750 -0.1001
  169MOL0     C22701  10.432   2.935   1.776  0.2099  0.3128  0.1074
  169MOL0     C22702  10.451   3.074   1.834  0.3663 -0.4032  0.6160
  169MOL0     C22703  10.507   3.187   1.750  0.4533 -0.0778 -0.2052
  169MOL0     O22704  10.431   3.222   1.633 -0.3756 -0.4210 -0.0811
  169MOL0     C22705  10.474   3.314   1.543  0.6830 -0.2255  0.6296
  169MOL0     C22706  10.374   3.354   1.452 -0.2598 -0.8773 -0.1814
  169MOL0     C22707  10.406   3.436   1.346 -0.5421 -0.0008  0.8168
  169MOL0     C22708  10.534   3.489   1.326 -0.4705 -0.2997 -0.6058
  169MOL0     C22709  10.573   3.571   1.208 -0.1634  0.5701  0.4525
  169MOL0     O22710  10.700   3.635   1.202 -0.1997  0.0814 -0.4976
  169MOL0     C22711  10.719   3.747   1.124  0.0278  0.6874  0.3414
  169MOL0     C22712  10.624   3.844   1.100 -0.1574 -0.3040  0.0647
  169MOL0     C22713  10.649   3.938   0.999  0.0382  0.3975  0.8304
  169MOL0     C22714  10.772   3.945   0.932  0.0165  0.0388  0.4604
  169MOL0     O22715  10.798   4.022   0.819  0.5162  0.1770  0.0390
  169MOL0     C22716  10.717   4.137   0.786  0.3486 -0.3761 -0.9556
  169MOL0     C22717  10.783   4.266   0.850  1.0721  0.6436 -0.1453
  169MOL0     C22718  10.936   4.296   0.837  0.3382  0.3692 -0.1191
  169MOL0     C22719  10.959   4.439   0.889  0.3115  0.6724 -0.0045
  169MOL0     C22720  11.110   4.462   0.910 -0.3140 -0.6052 -0.4577
  169MOL0     C22721  11.168   4.389   1.035 -0.4554 -0.3996  0.2254
  169MOL0     C22722  11.306   4.448   1.074  0.7668 -0.2802  0.0140
  169MOL0     C22723  11.317   4.422   1.227 -0.6718  0.6051  0.8535
  169MOL0    Cl22724  11.187   4.506   1.318 -0.3602 -0.1217 -0.4539
  169MOL0     C22725  10.873   3.858   0.960  0.3643 -0.4975  0.2840
  169MOL0     C22726  10.846   3.757   1.054 -0.0256 -0.7940 -0.7920
  169MOL0     O22727  10.490   3.577   1.117  0.3771  0.0866  0.2416
  169MOL0     C22728  10.630   3.464   1.424  0.7420  0.4599 -0.4558
  169MOL0     C22729  10.597   3.376   1.531  0.4712 -0.2816  0.5344
  169MOL0     N22730  10.538   2.598   1.788  0.0097 -0.5837 -0.2726
  169MOL0     N22731  10.483   2.505   1.725  1.3774  0.3677  0.8262
  169MOL0     C22732   9.911   1.612   1.545  1.0041  0.2094 -1.0562
  169MOL0     C22733   9.807   1.520   1.589 -0.2943 -0.1035 -0.3493
  169MOL0     C22734   9.523   1.241   1.804  0.7028  0.3396  0.5325
  169MOL0     C22735   9.589   1.175   1.913 -0.1259 -0.6792 -0.2912
  169MOL0     C22736   9.523   1.063   1.977 -0.4149 -0.1119  0.0320
  169MOL0     C22737   9.410   1.007   1.920 -0.2949 -0.4332  0.5121
  169MOL0     O22738   9.371   0.886   1.971 -0.0062  0.7420  0.3234
  169MOL0     C22739   9.310   0.800   1.873 -0.3376 -0.3852  0.4469
  169MOL0     C22740   9.299   0.660   1.927  0.1335 -0.1707  0.1517
  169MOL0     C22741   9.432   0.592   1.931  0.6641 -0.1404 -0.2932
  169MOL0     C22742   9.412   0.455   1.997  0.2289  0.1092 -0.3156
  169MOL0     C22743   9.538   0.375   1.987  0.5044  0.1645  0.1347
  169MOL0     C22744   9.641   0.314   1.982 -0.0218 -0.0340  0.1713
  169MOL0     C22745   9.342   1.081   1.820 -0.5839 -0.4710  0.3345
  169MOL0     C22746   9.389   1.198   1.767 -0.8666  0.2561  0.9918
  169MOL0     C22747   9.300   1.266   1.660  0.1614  0.3529 -0.1002
  169MOL0     H22748   9.948   1.382   1.852 -3.6400  1.9698  2.0555
  169MOL0     H22749  10.142   1.547   1.774 -1.1320 -2.2573  1.2732
  169MOL0     H22750  10.291   1.707   1.686 -2.1698  2.9568  0.8531
  169MOL0     H22751  10.293   1.628   1.520  0.1131  0.0448 -0.0925
  169MOL0     H22752  10.329   1.843   1.426 -0.5593  1.3872 -0.5910
  169MOL0     H22753  10.425   1.857   1.579  1.3065  0.7299 -4.2591
  169MOL0     H22754  10.228   1.943   1.693 -0.3123  0.5272  0.3352
  169MOL0     H22755  10.146   1.958   1.533 -0.8843  1.9540  0.2575
  169MOL0     H22756  10.230   2.185   1.622  0.6948  1.6967  0.3702
  169MOL0     H22757  10.397   2.125   1.592 -1.0861 -0.9096  1.8071
  169MOL0     H22758  10.366   2.145   1.354 -3.1964  0.7640 -3.0266
  169MOL0     H22759  10.221   2.089   1.366  1.5990 -0.7266 -1.8348
  169MOL0     H22760  10.216   2.334   1.289 -1.9277 -0.0009 -0.2828
  169MOL0     H22761  10.142   2.322   1.451 -1.6171 -0.8299 -2.9146
  169MOL0     H22762  10.385   2.437   1.366 -2.4829  0.0074 -2.1808
  169MOL0     H22763  10.426   2.322   1.494  0.5207  0.5713 -0.6910
  169MOL0     H22764  10.228   2.553   1.528  0.5512 -0.9547 -3.4904
  169MOL0     H22765  10.267   2.402   1.624  2.3787 -1.4954 -1.3911
  169MOL0     H22766  10.410   2.754   1.528  1.3028  1.0351 -0.8883
  169MOL0     H22767  10.613   2.867   1.853 -0.9392  2.2312  0.3711
  169MOL0     H22768  10.630   2.902   1.689  0.6668  1.0073  0.8512
  169MOL0     H22769  10.389   2.948   1.676 -1.9495  1.1105  1.0853
  169MOL0     H22770  10.362   2.874   1.834 -1.4118 -1.2944 -3.2109
  169MOL0     H22771  10.510   3.067   1.926  1.1083 -1.6636  0.0823
  169MOL0     H22772  10.357   3.118   1.868  0.7281  0.6290  0.3038
  169MOL0     H22773  10.607   3.169   1.711  0.1826 -0.4890 -0.7217
  169MOL0     H22774  10.502   3.280   1.808 -0.0710 -1.1948  1.6544
  169MOL0     H22775  10.274   3.315   1.466 -0.3156 -0.3588  0.9773
  169MOL0     H22776  10.325   3.462   1.279  1.1278  3.4670 -0.0808
  169MOL0     H22777  10.526   3.840   1.147 -0.9616  2.2842 -1.2119
  169MOL0     H22778  10.563   3.993   0.964  0.0002  1.7891  2.8800
  169MOL0     H22779  10.709   4.152   0.678 -1.6352  0.0456 -0.8027
  169MOL0     H22780  10.615   4.136   0.826  0.4396  5.9160  0.3830
  169MOL0     H22781  10.734   4.352   0.805  1.7757  0.9710 -0.3047
  169MOL0     H22782  10.759   4.266   0.957 -0.9706  0.6264 -0.5671
  169MOL0     H22783  10.988   4.224   0.902 -2.2779 -2.9965 -1.4022
  169MOL0     H22784  10.973   4.295   0.734 -3.4249  1.9722 -1.6897
  169MOL0     H22785  10.922   4.467   0.987  0.7360  0.6041  0.1796
  169MOL0     H22786  10.932   4.514   0.814  0.8281  1.5916  0.7074
  169MOL0     H22787  11.128   4.568   0.930  3.2803 -1.4026  1.4095
  169MOL0     H22788  11.166   4.444   0.818 -1.5926 -3.1741 -0.8046
  169MOL0     H22789  11.093   4.397   1.114  0.1479  3.8662  0.5993
  169MOL0     H22790  11.193   4.284   1.019  4.1100  0.2624  1.4731
  169MOL0     H22791  11.308   4.556   1.056  0.6214 -0.5121 -1.5310
  169MOL0     H22792  11.385   4.390   1.025  0.5053  0.2711 -1.0818
  169MOL0     H22793  11.313   4.317   1.256 -0.8802  1.1189  2.8171
  169MOL0     H22794  11.414   4.457   1.265 -0.3102 -1.0512  1.5386
  169MOL0     H22795  10.965   3.855   0.903 -1.0860 -1.3620 -2.1702
  169MOL0     H22796  10.918   3.685   1.090  0.0417  0.2918  1.4372
  169MOL0     H22797  10.724   3.519   1.425  0.2680  1.2978 -0.5089
  169MOL0     H22798  10.675   3.355   1.603  0.3105 -1.1088  0.4827
  169MOL0     H22799   9.899   1.672   1.455  0.3419  3.5241  1.0749
  169MOL0     H22800   9.717   1.533   1.529  0.6146  0.3020 -1.6659
  169MOL0     H22801   9.673   1.216   1.969 -1.4504 -0.8778  1.9562
  169MOL0     H22802   9.553   1.006   2.064 -0.4540 -2.8579 -1.6458
  169MOL0     H22803   9.369   0.786   1.782 -2.0528  2.3022 -1.2253
  169MOL0     H22804   9.208   0.837   1.856 -0.1902  0.1229  0.6317
  169MOL0     H22805   9.239   0.605   1.854  1.1628 -0.4506 -0.5071
  169MOL0     H22806   9.255   0.662   2.027 -0.0712 -2.2328  0.1499
  169MOL0     H22807   9.507   0.665   1.961 -0.8865  1.8088 -0.8835
  169MOL0     H22808   9.457   0.566   1.828 -0.4789 -0.4723 -0.5048
  169MOL0     H22809   9.381   0.462   2.102 -1.0259  1.7827 -0.7515
  169MOL0     H22810   9.333   0.405   1.941  0.6074  1.4064 -2.1172
  169MOL0     H22811   9.738   0.270   1.973  1.4954  3.3967 -2.4892
  169MOL0     H22812   9.256   1.050   1.761  1.8573 -0.7766 -3.3625
  169MOL0     H22813   9.361   1.321   1.587 -2.6065 -1.6411 -4.3710
  169MOL0     H22814   9.244   1.192   1.600 -0.2601 -2.7294  3.7018
  169MOL0     H22815   9.229   1.334   1.707  0.8478  1.4894 -0.6684
  170MOL0     O22816   4.934   3.865   5.344  0.6563 -0.4685  0.2302
  170MOL0     C22817   4.891   3.856   5.458  0.3669 -0.7299 -0.0165
  170MOL0     O22818   4.967   3.853   5.571  0.4554 -0.9576  0.5414
  170MOL0     C22819   5.092   3.800   5.561 -0.7361 -0.7206  0.8720
  170MOL0     C22820   5.203   3.887   5.548  0.2312  1.3498  0.9464
  170MOL0     C22821   5.322   3.823   5.537 -0.8872  0.3790 -0.3271
  170MOL0     C22822   5.342   3.685   5.540 -0.0788 -0.4434 -0.1198
  170MOL0     O22823   5.470   3.638   5.530  0.0906  0.6419  0.2008
  170MOL0     C22824   5.494   3.497   5.533  0.2432  1.0547 -0.9305
  170MOL0     C22825   5.633   3.472   5.574 -0.3941  0.4247 -0.2198
  170MOL0     C22826   5.735   3.546   5.486 -1.6438  0.2242 -0.0070
  170MOL0     C22827   5.881   3.505   5.492  0.1674 -0.1487 -1.1317
  170MOL0     C22828   5.974   3.559   5.379 -0.5273  1.0797  0.7876
  170MOL0     C22829   6.116   3.504   5.390 -0.6218  0.7420  0.3447
  170MOL0     C22830   6.202   3.569   5.290  0.1999  0.3632  0.3811
  170MOL0     C22831   6.341   3.502   5.290  0.5159  0.8228  0.1699
  170MOL0     N22832   6.459   3.583   5.236  0.1741  0.3823  0.1754
  170MOL0     C22833   6.454   3.677   5.139  0.4628 -0.2532 -0.0560
  170MOL0     C22834   6.581   3.723   5.125 -0.0698  0.5665  0.9588
  170MOL0     C22835   6.626   3.828   5.024  0.5541  0.1807 -0.0458
  170MOL0     C22836   6.554   3.807   4.880 -0.1509 -0.3921 -0.1477
  170MOL0     C22837   6.580   3.676   4.806 -0.0038 -0.5256 -0.3011
  170MOL0     C22838   6.728   3.633   4.811 -0.8477  0.3610 -0.6985
  170MOL0     O22839   6.814   3.736   4.758  0.5759 -0.0712  0.2587
  170MOL0     C22840   6.952   3.725   4.763 -0.3049  0.4314  0.0460
  170MOL0     C22841   7.015   3.628   4.843 -0.5149  0.7842 -0.5005
  170MOL0     C22842   7.152   3.588   4.817  0.3917 -0.4564 -0.4060
  170MOL0     C22843   7.234   3.680   4.744  0.7133 -0.3623  0.4961
  170MOL0     C22844   7.375   3.675   4.745 -0.9949 -0.1084  0.2853
  170MOL0     O22845   7.433   3.589   4.842  0.4862  0.1083  0.0546
  170MOL0     C22846   7.560   3.606   4.883  0.1327 -0.2147  0.0038
  170MOL0     C22847   7.620   3.731   4.893 -0.2414 -0.1407 -0.1952
  170MOL0     C22848   7.743   3.752   4.954 -0.2198  1.0259  1.2498
  170MOL0     C22849   7.810   3.644   5.005 -0.5633  0.5250 -1.0837
  170MOL0     O22850   7.936   3.667   5.060 -1.2454  0.1456  0.0911
  170MOL0     C22851   7.959   3.626   5.200 -0.1957 -0.5783  0.5377
  170MOL0     C22852   7.944   3.740   5.299  0.2014 -0.6026 -0.5620
  170MOL0     C22853   8.079   3.805   5.323 -0.3670 -0.7636  0.4789
  170MOL0     C22854   8.145   3.753   5.445 -0.3597  0.4850  0.8603
  170MOL0     C22855   8.284   3.805   5.444 -0.0075 -0.7697  0.4690
  170MOL0     C22856   8.369   3.751   5.561  0.6495  0.3932  0.5395
  170MOL0     C22857   8.495   3.830   5.561 -0.0640 -0.2652  0.0817
  170MOL0     C22858   8.597   3.773   5.658  0.6052 -0.4764 -0.0045
  170MOL0    Cl22859   8.573   3.848   5.816 -0.0708 -0.4765  0.2364
  170MOL0     C22860   7.754   3.516   4.992  0.6648 -1.5756  0.1789
  170MOL0     C22861   7.631   3.492   4.926  0.6223 -0.2985 -0.0548
  170MOL0     O22862   7.444   3.742   4.666  0.3431 -0.0154 -0.4389
  170MOL0     C22863   7.168   3.777   4.655  0.5020  0.2341 -0.2734
  170MOL0     C22864   7.030   3.788   4.665  0.4509 -0.8233  0.0689
  170MOL0     N22865   6.657   3.642   5.206  0.2311  0.0377  0.2326
  170MOL0     N22866   6.583   3.566   5.275 -0.2196  0.2156  0.3533
  170MOL0     C22867   5.231   3.598   5.536  1.2745  0.0515  0.0868
  170MOL0     C22868   5.104   3.660   5.546 -0.2525  0.4013 -0.6680
  170MOL0     C22869   4.744   3.846   5.488 -0.1565 -1.0098 -0.0057
  170MOL0     C22870   4.701   3.834   5.619 -0.3532 -0.3671 -0.3731
  170MOL0     C22871   4.569   3.834   5.650  0.4854 -0.5238  0.7030
  170MOL0     C22872   4.480   3.859   5.553 -0.0322  1.2526  0.3042
  170MOL0     O22873   4.350   3.858   5.593  0.6002 -0.8083 -0.1260
  170MOL0     C22874   4.235   3.806   5.525 -0.9781  0.2857  0.4683
  170MOL0     C22875   4.215   3.655   5.531 -0.4518  0.9089  0.0723
  170MOL0     C22876   4.330   3.596   5.454  0.0032 -0.8240  0.4337
  170MOL0     C22877   4.333   3.441   5.453  0.3371  0.4172 -0.0221
  170MOL0     C22878   4.207   3.370   5.436 -0.8652  0.5607  0.3987
  170MOL0     C22879   4.098   3.322   5.416 -0.0881  0.1162  0.2534
  170MOL0     C22880   4.515   3.877   5.420  0.4028 -0.5941 -0.9472
  170MOL0     C22881   4.648   3.875   5.382 -0.0374 -0.8580  0.3433
  170MOL0     C22882   4.688   3.931   5.246  0.2626  0.5651  0.2246
  170MOL0     H22883   5.203   3.995   5.559  1.5124  1.6950 -1.6569
  170MOL0     H22884   5.410   3.886   5.536 -0.5154 -0.1298 -1.7068
  170MOL0     H22885   5.434   3.440   5.604 -0.0236  0.7856 -1.3663
  170MOL0     H22886   5.466   3.438   5.445 -0.8110 -1.6149  1.0700
  170MOL0     H22887   5.646   3.363   5.568  0.0183  0.5544 -2.7698
  170MOL0     H22888   5.645   3.505   5.678  1.6248 -2.4633  0.5967
  170MOL0     H22889   5.738   3.653   5.507  2.5427 -0.1652  2.4547
  170MOL0     H22890   5.710   3.527   5.381  0.3645 -1.3204 -0.2809
  170MOL0     H22891   5.930   3.543   5.583 -1.3267  1.0394 -0.7892
  170MOL0     H22892   5.866   3.397   5.500 -1.5524  0.0464  7.2656
  170MOL0     H22893   5.926   3.543   5.282  1.0941 -0.9480  0.2347
  170MOL0     H22894   5.984   3.668   5.386  1.7169  1.1061 -1.2757
  170MOL0     H22895   6.151   3.528   5.491 -0.6926  1.7542  0.1345
  170MOL0     H22896   6.122   3.395   5.382 -2.5248  0.6827 -1.0455
  170MOL0     H22897   6.207   3.670   5.331 -1.0911 -0.3295  2.4031
  170MOL0     H22898   6.153   3.570   5.192 -0.9646  0.6641  0.9517
  170MOL0     H22899   6.372   3.472   5.390  1.8744 -0.6347 -0.6444
  170MOL0     H22900   6.337   3.402   5.246 -1.2418  1.4082 -1.1241
  170MOL0     H22901   6.370   3.707   5.077  0.6243  0.5450  0.1010
  170MOL0     H22902   6.600   3.927   5.062  1.5949  0.3964  0.1227
  170MOL0     H22903   6.735   3.829   5.020  0.6792  3.2278  1.2887
  170MOL0     H22904   6.446   3.819   4.890 -0.5512 -2.3015 -1.6467
  170MOL0     H22905   6.588   3.891   4.819  0.2953 -0.8492 -0.5295
  170MOL0     H22906   6.540   3.679   4.705  1.7926 -2.6827 -1.1584
  170MOL0     H22907   6.521   3.594   4.850  0.8405  0.1504  2.2900
  170MOL0     H22908   6.747   3.549   4.744 -1.5257 -1.7678  1.6317
  170MOL0     H22909   6.753   3.615   4.916  1.3892  4.8727 -0.1962
  170MOL0     H22910   6.962   3.573   4.920  0.1470  0.4739 -0.2641
  170MOL0     H22911   7.206   3.514   4.874  1.6631  1.0087  0.3761
  170MOL0     H22912   7.576   3.826   4.867  2.6135  0.8107 -1.9893
  170MOL0     H22913   7.791   3.848   4.937  1.3983  0.0474 -0.1727
  170MOL0     H22914   7.896   3.542   5.233 -0.9938 -0.0758  0.3218
  170MOL0     H22915   8.061   3.590   5.212 -0.5269 -1.7615  0.0125
  170MOL0     H22916   7.890   3.822   5.250  1.7205  0.3254 -0.7474
  170MOL0     H22917   7.900   3.713   5.396 -0.8426  1.1991 -0.4769
  170MOL0     H22918   8.135   3.797   5.230  0.1410  0.0097  0.7128
  170MOL0     H22919   8.047   3.909   5.335 -2.7345 -1.0291 -2.2279
  170MOL0     H22920   8.152   3.644   5.434  0.6515  0.7652 -2.4253
  170MOL0     H22921   8.081   3.782   5.529 -1.6234  1.7638 -0.4738
  170MOL0     H22922   8.288   3.915   5.442  0.3086 -0.2587  6.7813
  170MOL0     H22923   8.339   3.767   5.358 -0.0828  0.5976 -0.2035
  170MOL0     H22924   8.316   3.745   5.656 -1.5791 -0.7319 -0.6993
  170MOL0     H22925   8.389   3.648   5.532 -0.4183  0.3253 -0.0117
  170MOL0     H22926   8.470   3.936   5.576 -1.4021 -0.4137 -0.9077
  170MOL0     H22927   8.534   3.816   5.460 -0.5365  0.6100 -0.2315
  170MOL0     H22928   8.571   3.667   5.656 -2.9779  0.1669  2.8215
  170MOL0     H22929   8.699   3.795   5.625 -0.1775  2.3158 -0.7773
  170MOL0     H22930   7.807   3.433   5.039  1.4862 -0.5417  1.1342
  170MOL0     H22931   7.579   3.398   4.910  1.9382 -0.7512 -2.1395
  170MOL0     H22932   7.213   3.844   4.582 -1.1471  1.5605 -0.1194
  170MOL0     H22933   6.969   3.850   4.599  1.8877 -1.1692 -1.6827
  170MOL0     H22934   5.240   3.492   5.518 -0.1338 -0.0124 -0.3351
  170MOL0     H22935   5.018   3.595   5.555  1.4649 -2.0027 -0.7329
  170MOL0     H22936   4.782   3.825   5.690 -1.0720  2.0887  0.8373
  170MOL0     H22937   4.545   3.820   5.755  1.5546  1.5093  1.2911
  170MOL0     H22938   4.238   3.831   5.418  1.1110 -2.5093 -0.2410
  170MOL0     H22939   4.160   3.860   5.584 -1.3751 -0.6094  0.7952
  170MOL0     H22940   4.118   3.622   5.490 -1.1113  2.4211  0.3219
  170MOL0     H22941   4.232   3.616   5.631 -0.2511 -0.2086 -0.3848
  170MOL0     H22942   4.426   3.625   5.498 -0.3903 -1.9282  2.0901
  170MOL0     H22943   4.329   3.647   5.357  0.6274 -0.0889  0.8034
  170MOL0     H22944   4.403   3.400   5.380  0.1994 -1.2131  0.7118
  170MOL0     H22945   4.360   3.413   5.556 -1.4768  0.0517  0.4009
  170MOL0     H22946   3.997   3.291   5.393  1.1994 -3.4713 -1.3979
  170MOL0     H22947   4.445   3.908   5.344 -2.0225  1.2989  1.8571
  170MOL0     H22948   4.738   3.853   5.187 -0.2650  0.8676 -0.6424
  170MOL0     H22949   4.606   3.971   5.186  0.7734 -0.3801 -1.1513
  170MOL0     H22950   4.766   4.008   5.252  2.5476 -1.5276 -0.6433
  171MOL0     O22951   2.507   1.639   0.373 -0.1325 -0.2653  0.0080
  171MOL0     C22952   2.432   1.697   0.288 -0.1155  0.5384  0.2672
  171MOL0     O22953   2.431   1.833   0.262  0.2830  0.7998  0.3780
  171MOL0     C22954   2.521   1.898   0.338 -0.3517  1.1344  0.4794
  171MOL0     C22955   2.646   1.925   0.282  0.3243 -0.2094 -0.4451
  171MOL0     C22956   2.740   1.985   0.366  0.2832  0.6116  0.1933
  171MOL0     C22957   2.710   2.023   0.496 -1.0929 -0.5293  0.0353
  171MOL0     O22958   2.811   2.081   0.563  0.0770  0.0796 -0.1280
  171MOL0     C22959   2.788   2.207   0.630  0.3467 -0.0957 -0.2721
  171MOL0     C22960   2.878   2.211   0.759 -0.2511  0.8562 -0.1331
  171MOL0     C22961   2.809   2.144   0.876  0.5307 -0.1505 -0.4007
  171MOL0     C22962   2.901   2.150   0.996 -0.0793  0.3719  0.0246
  171MOL0     C22963   2.850   2.103   1.130  0.3588  0.5785  0.0225
  171MOL0     C22964   2.943   2.160   1.237  0.1262  0.3602 -0.7944
  171MOL0     C22965   2.917   2.113   1.390  1.1323  0.0818  0.7173
  171MOL0     C22966   2.770   2.129   1.427  0.2952  0.4621  1.4473
  171MOL0     N22967   2.739   2.096   1.561  0.0899  0.7890 -1.0678
  171MOL0     C22968   2.681   2.180   1.657  0.3536  0.5965 -0.1354
  171MOL0     C22969   2.632   2.094   1.748  0.0096 -0.5752  1.4414
  171MOL0     C22970   2.558   2.146   1.868  1.1409 -0.6514  0.6008
  171MOL0     C22971   2.422   2.076   1.880 -0.4840 -0.0483  0.3115
  171MOL0     C22972   2.315   2.126   1.783 -0.7063  0.0591 -0.1829
  171MOL0     C22973   2.329   2.046   1.649 -0.6375  0.5350 -0.7439
  171MOL0     O22974   2.302   1.904   1.659 -0.0279  0.4600  0.6987
  171MOL0     C22975   2.342   1.816   1.559 -0.6090  0.2709 -0.2771
  171MOL0     C22976   2.330   1.681   1.589 -0.3512 -0.3431  0.0100
  171MOL0     C22977   2.339   1.590   1.478 -0.3590 -0.0852 -0.2067
  171MOL0     C22978   2.375   1.627   1.351 -0.1221 -0.4449  1.1267
  171MOL0     C22979   2.396   1.520   1.249  0.2045 -0.4906  0.4793
  171MOL0     O22980   2.413   1.391   1.283 -0.2112  0.1633 -0.0768
  171MOL0     C22981   2.351   1.291   1.215 -0.2181 -0.7041  0.4844
  171MOL0     C22982   2.385   1.160   1.244 -0.5008 -0.7708  0.2260
  171MOL0     C22983   2.328   1.056   1.174 -0.1738  0.8294  0.3224
  171MOL0     C22984   2.236   1.070   1.071  0.2438  0.1440 -0.4075
  171MOL0     O22985   2.184   0.974   0.992  0.0548 -0.2619  0.8813
  171MOL0     C22986   2.216   0.835   1.014 -0.3607  0.8543 -0.4164
  171MOL0     C22987   2.122   0.754   0.928  0.6020  1.2665 -0.5510
  171MOL0     C22988   1.967   0.762   0.965  0.1752 -1.0764  0.5539
  171MOL0     C22989   1.895   0.671   0.864  1.3677 -0.9366 -0.4079
  171MOL0     C22990   1.742   0.661   0.868 -0.0283 -0.0919 -0.5935
  171MOL0     C22991   1.672   0.642   0.998 -0.3414  0.1780  0.9396
  171MOL0     C22992   1.706   0.513   1.073 -0.0287 -0.3522  0.5948
  171MOL0     C22993   1.696   0.537   1.229 -0.2121  0.0714 -0.0038
  171MOL0    Cl22994   1.796   0.677   1.280  0.3148  0.4192  0.1349
  171MOL0     C22995   2.199   1.197   1.046 -0.8307 -0.2571  0.3261
  171MOL0     C22996   2.257   1.310   1.116 -0.1920  0.9280  0.1651
  171MOL0     O22997   2.419   1.563   1.136  0.3110 -0.3143 -0.5851
  171MOL0     C22998   2.385   1.768   1.330  0.0175 -0.3999  0.1055
  171MOL0     C22999   2.371   1.859   1.430  0.4685 -0.4668 -0.3268
  171MOL0     N23000   2.676   1.964   1.723  0.7541 -0.2416 -0.1405
  171MOL0     N23001   2.737   1.967   1.610 -0.6556  0.2346 -0.4511
  171MOL0     C23002   2.582   2.005   0.548 -0.1835 -0.4293 -0.1342
  171MOL0     C23003   2.490   1.942   0.464  0.9953  0.5595 -0.4645
  171MOL0     C23004   2.326   1.629   0.211  0.2095  0.0576 -0.5942
  171MOL0     C23005   2.210   1.598   0.285 -0.9351  0.6831 -0.5767
  171MOL0     C23006   2.113   1.512   0.225  0.3120  0.2782 -0.1993
  171MOL0     C23007   2.130   1.461   0.096  0.8538 -0.4278 -0.4757
  171MOL0     O23008   2.027   1.376   0.052  0.2646  0.0020  0.8619
  171MOL0     C23009   1.954   1.414  -0.069 -0.2185 -0.0163  1.3442
  171MOL0     C23010   2.006   1.330  -0.192  0.8128 -0.6092 -0.2031
  171MOL0     C23011   1.969   1.183  -0.180 -0.0304 -0.1217 -0.9356
  171MOL0     C23012   2.027   1.105  -0.285  0.2019  0.8464 -0.0625
  171MOL0     C23013   1.942   1.113  -0.399 -0.2014 -0.1333 -0.8317
  171MOL0     C23014   1.849   1.119  -0.477  0.3850 -0.6440  1.0118
  171MOL0     C23015   2.253   1.486   0.032  0.1664  0.3979  0.2629
  171MOL0     C23016   2.351   1.569   0.085  0.6228 -0.4569 -0.0664
  171MOL0     C23017   2.476   1.599   0.003  0.1084  0.1941 -0.4943
  171MOL0     H23018   2.661   1.906   0.176 -1.5378 -1.5379 -0.5118
  171MOL0     H23019   2.841   2.006   0.332  0.5811 -1.2013 -0.1295
  171MOL0     H23020   2.822   2.293   0.572 -0.0043 -0.7743 -1.5099
  171MOL0     H23021   2.684   2.234   0.649  0.5604  3.0110 -2.7436
  171MOL0     H23022   2.892   2.312   0.800  0.8288 -0.8557  4.3210
  171MOL0     H23023   2.976   2.168   0.735 -0.9792  0.2019 -2.1265
  171MOL0     H23024   2.797   2.039   0.850  2.5512 -0.4689 -0.2088
  171MOL0     H23025   2.712   2.189   0.898  0.1248 -0.8272 -0.7809
  171MOL0     H23026   2.988   2.094   0.962  1.5750  4.0416 -2.4679
  171MOL0     H23027   2.922   2.256   1.010  3.1169  0.2275 -2.4782
  171MOL0     H23028   2.747   2.136   1.145 -0.7232 -3.0169  1.8253
  171MOL0     H23029   2.850   1.996   1.153  0.0171  1.1866  3.3846
  171MOL0     H23030   3.041   2.118   1.215 -0.6481 -3.7398  2.3395
  171MOL0     H23031   2.937   2.269   1.227 -3.9628  0.3395 -0.4781
  171MOL0     H23032   2.977   2.178   1.454  1.3329  0.9308 -0.2904
  171MOL0     H23033   2.944   2.009   1.411 -1.3592 -0.2909  2.4920
  171MOL0     H23034   2.733   2.232   1.417  1.2969  0.5993 -2.8526
  171MOL0     H23035   2.707   2.061   1.369 -0.0764  0.5291  1.7620
  171MOL0     H23036   2.660   2.286   1.652 -2.6096  0.0710 -0.5333
  171MOL0     H23037   2.615   2.137   1.961  2.4187 -1.3115 -0.2145
  171MOL0     H23038   2.529   2.251   1.853  3.3016  0.2811  2.4135
  171MOL0     H23039   2.437   1.968   1.869 -0.6105  0.1170 -1.8028
  171MOL0     H23040   2.382   2.093   1.981 -1.5457 -0.5542 -0.0029
  171MOL0     H23041   2.332   2.232   1.761 -0.7642  0.5587  2.0065
  171MOL0     H23042   2.217   2.110   1.830 -1.1577 -0.7406 -1.3336
  171MOL0     H23043   2.431   2.054   1.611  0.6806 -2.5728  1.6543
  171MOL0     H23044   2.251   2.086   1.583 -1.5636  1.8432  1.0669
  171MOL0     H23045   2.315   1.651   1.692 -2.1373 -0.1966 -0.1742
  171MOL0     H23046   2.326   1.483   1.492  0.8438 -0.6897 -2.9798
  171MOL0     H23047   2.471   1.151   1.310 -0.3906 -0.0188  0.1939
  171MOL0     H23048   2.371   0.958   1.193 -1.9060 -0.9511 -3.7415
  171MOL0     H23049   2.321   0.815   0.994  0.5209  3.6879  0.8639
  171MOL0     H23050   2.202   0.819   1.121 -0.2352 -0.0700 -0.5305
  171MOL0     H23051   2.142   0.767   0.821 -0.6608 -2.2847 -1.3437
  171MOL0     H23052   2.149   0.650   0.949  1.3272  0.8213 -3.3042
  171MOL0     H23053   1.945   0.724   1.066 -1.4091 -0.9168  0.2996
  171MOL0     H23054   1.935   0.867   0.969 -1.7059 -1.6095  0.5191
  171MOL0     H23055   1.944   0.573   0.866  1.5550 -0.8309  0.3868
  171MOL0     H23056   1.913   0.706   0.762  1.3100  0.3169 -0.0025
  171MOL0     H23057   1.707   0.582   0.801 -2.0057  0.3302 -0.1217
  171MOL0     H23058   1.701   0.758   0.838 -0.6111 -0.0316  0.3435
  171MOL0     H23059   1.688   0.726   1.066  0.2493  0.2198  0.7557
  171MOL0     H23060   1.564   0.642   0.983 -0.3262 -2.6863  0.1570
  171MOL0     H23061   1.804   0.480   1.039  0.0404 -0.6664  1.0919
  171MOL0     H23062   1.649   0.429   1.034  1.9131 -0.7762 -1.5248
  171MOL0     H23063   1.590   0.546   1.257 -0.4768 -1.5567 -0.3576
  171MOL0     H23064   1.737   0.454   1.286 -1.7959 -0.8100 -0.0705
  171MOL0     H23065   2.149   1.220   0.953  2.7975  1.0410 -1.4955
  171MOL0     H23066   2.232   1.409   1.081  0.1534  0.1150 -2.6357
  171MOL0     H23067   2.396   1.803   1.228 -1.3504 -0.5237 -0.1062
  171MOL0     H23068   2.379   1.967   1.419 -0.4500  0.0873  3.1096
  171MOL0     H23069   2.565   2.027   0.653  0.7612 -0.1455 -0.0311
  171MOL0     H23070   2.384   1.936   0.487  1.5029 -1.1104  1.7749
  171MOL0     H23071   2.213   1.637   0.387  1.0422  1.3755 -0.8532
  171MOL0     H23072   2.026   1.486   0.284  1.8215  0.6513  2.3430
  171MOL0     H23073   1.960   1.523  -0.067 -0.2014 -0.0253  1.7372
  171MOL0     H23074   1.848   1.389  -0.054 -0.0641  0.2668  3.1410
  171MOL0     H23075   2.115   1.341  -0.197  0.8334 -0.9762 -0.5427
  171MOL0     H23076   1.951   1.373  -0.276  0.8369  0.5376  0.3500
  171MOL0     H23077   1.860   1.178  -0.181 -0.1158  0.6142  0.8484
  171MOL0     H23078   2.016   1.146  -0.088  1.9512  2.1685 -0.9219
  171MOL0     H23079   2.132   1.131  -0.300  0.4416 -0.0514 -0.0350
  171MOL0     H23080   2.039   1.001  -0.252  4.4044  1.0013 -0.6222
  171MOL0     H23081   1.766   1.112  -0.545  1.5391  2.5646 -0.9364
  171MOL0     H23082   2.268   1.422  -0.054  1.9205 -3.9318  3.4028
  171MOL0     H23083   2.544   1.673   0.047 -0.0026  0.7698 -1.2678
  171MOL0     H23084   2.516   1.502  -0.028  0.9212  0.0483  0.9426
  171MOL0     H23085   2.454   1.657  -0.087  2.5592 -0.2476 -1.4675
  172MOL0     O23086   7.681   0.214   6.461  0.2246  0.6595  0.6813
  172MOL0     C23087   7.695   0.264   6.353 -0.2958 -0.9563  0.1711
  172MOL0     O23088   7.805   0.334   6.319 -0.2338 -0.3902  0.1937
  172MOL0     C23089   7.890   0.376   6.421  0.0479 -0.3787 -0.2962
  172MOL0     C23090   8.027   0.397   6.400  0.2321 -0.2661  0.7538
  172MOL0     C23091   8.117   0.444   6.494  0.3251  1.3542  0.0135
  172MOL0     C23092   8.068   0.476   6.620  0.2275  0.2302  0.5501
  172MOL0     O23093   8.174   0.508   6.706  0.3102  0.8700  0.3406
  172MOL0     C23094   8.141   0.537   6.838 -0.1088 -0.0132  0.1320
  172MOL0     C23095   8.272   0.562   6.906 -0.0590 -0.1637  0.0596
  172MOL0     C23096   8.386   0.462   6.886  0.5982 -0.2163  1.0044
  172MOL0     C23097   8.517   0.527   6.931  0.0484 -0.0884 -0.5124
  172MOL0     C23098   8.520   0.586   7.073 -0.8037 -0.3335  0.4692
  172MOL0     C23099   8.661   0.604   7.127  0.1136 -0.4994  0.9950
  172MOL0     C23100   8.652   0.654   7.275  0.4570  0.4744 -0.3335
  172MOL0     C23101   8.780   0.725   7.320  0.4450  0.0375  1.4354
  172MOL0     N23102   8.781   0.740   7.470 -0.0055  0.1933 -0.6686
  172MOL0     C23103   8.738   0.860   7.530  0.6484  1.0627 -0.3977
  172MOL0     C23104   8.734   0.833   7.664 -0.4828  0.5348  0.8869
  172MOL0     C23105   8.691   0.917   7.779  0.4021  0.3679 -0.0184
  172MOL0     C23106   8.542   0.931   7.775 -0.1096 -0.2837  0.2589
  172MOL0     C23107   8.483   0.822   7.869  0.5099 -1.1686 -0.7374
  172MOL0     C23108   8.335   0.826   7.842  0.6670 -0.4990 -0.9393
  172MOL0     O23109   8.281   0.967   7.864 -0.3987  0.0368  0.1837
  172MOL0     C23110   8.146   0.992   7.839  1.1333 -0.1285  0.0636
  172MOL0     C23111   8.049   0.903   7.791 -0.2401 -0.0643  0.9737
  172MOL0     C23112   7.914   0.928   7.795 -0.7548 -1.0161 -0.3318
  172MOL0     C23113   7.877   1.062   7.829 -0.2942 -0.5306  0.5650
  172MOL0     C23114   7.732   1.098   7.823 -0.2020  0.7296 -0.7493
  172MOL0     O23115   7.697   1.222   7.861 -0.8527 -0.0734  0.5458
  172MOL0     C23116   7.571   1.272   7.858  0.3092 -0.5420 -0.0160
  172MOL0     C23117   7.542   1.378   7.768 -0.9003  1.0769 -0.5554
  172MOL0     C23118   7.407   1.420   7.760 -0.2806 -0.9779  0.7661
  172MOL0     C23119   7.315   1.376   7.848 -0.0175 -0.1571  0.3793
  172MOL0     O23120   7.190   1.431   7.838  0.0878  0.1597  0.7499
  172MOL0     C23121   7.091   1.342   7.791 -0.3149 -0.4501  0.4118
  172MOL0     C23122   7.033   1.380   7.656 -0.0711 -0.2624  0.2578
  172MOL0     C23123   6.963   1.518   7.665 -0.3335  0.1139  0.3856
  172MOL0     C23124   6.826   1.526   7.725 -0.2400  0.3518 -0.3278
  172MOL0     C23125   6.783   1.667   7.741 -0.5583  0.6598 -0.2169
  172MOL0     C23126   6.775   1.739   7.604 -0.6125  0.4407  0.1790
  172MOL0     C23127   6.752   1.886   7.633 -0.1343 -0.8706  0.4461
  172MOL0     C23128   6.778   1.963   7.501  0.2380 -0.0990  0.1902
  172MOL0    Cl23129   6.778   2.137   7.539  0.0247 -0.3292  0.0002
  172MOL0     C23130   7.354   1.282   7.948 -0.4656  0.0553  0.0726
  172MOL0     C23131   7.483   1.235   7.963 -1.8337 -1.3860  1.5033
  172MOL0     O23132   7.654   1.015   7.777 -0.1747  0.1645 -0.3564
  172MOL0     C23133   7.969   1.162   7.865  0.3818 -0.5812 -1.3648
  172MOL0     C23134   8.095   1.119   7.880 -0.1580  0.0561  0.4693
  172MOL0     N23135   8.777   0.698   7.680 -0.1632 -0.3557  0.0803
  172MOL0     N23136   8.803   0.640   7.569 -0.1168 -0.2578  0.8386
  172MOL0     C23137   7.936   0.450   6.656  0.3043 -1.1330 -0.1860
  172MOL0     C23138   7.846   0.409   6.554  0.0158 -0.4342  0.2430
  172MOL0     C23139   7.605   0.211   6.246 -0.1077  0.5176 -0.4051
  172MOL0     C23140   7.662   0.199   6.117  0.3042  0.1913 -0.0703
  172MOL0     C23141   7.585   0.149   6.015 -0.6527  0.6321  0.5067
  172MOL0     C23142   7.464   0.110   6.031  1.1264  0.6474  0.3761
  172MOL0     O23143   7.402   0.044   5.923 -0.0083 -0.0801 -0.6152
  172MOL0     C23144   7.263   0.007   5.930  1.0662 -0.3632  0.2891
  172MOL0     C23145   7.154   0.117   5.941 -0.4923 -0.3472  0.6072
  172MOL0     C23146   7.193   0.230   5.849  0.4625 -0.4170 -0.0159
  172MOL0     C23147   7.079   0.334   5.851 -0.3926 -0.2415 -0.0731
  172MOL0     C23148   6.957   0.280   5.794 -0.8989  0.0177 -0.0298
  172MOL0     C23149   6.853   0.239   5.767  0.7071 -0.4122  0.1230
  172MOL0     C23150   7.404   0.112   6.161  0.1742  0.4953  0.5431
  172MOL0     C23151   7.467   0.169   6.265  0.1483 -0.2574  0.2257
  172MOL0     C23152   7.391   0.176   6.398  0.2472  0.7192 -0.1861
  172MOL0     H23153   8.071   0.362   6.307 -1.8243  0.7380 -0.6810
  172MOL0     H23154   8.221   0.438   6.466  0.1109  0.6242 -0.6737
  172MOL0     H23155   8.077   0.624   6.854 -0.0776 -0.0011  0.1922
  172MOL0     H23156   8.093   0.452   6.887 -0.2643 -0.3447 -0.5771
  172MOL0     H23157   8.253   0.571   7.014  0.2162  0.6140  0.0531
  172MOL0     H23158   8.297   0.657   6.859 -0.0164  0.6633  1.6854
  172MOL0     H23159   8.390   0.428   6.782  0.6839  2.1590  0.1621
  172MOL0     H23160   8.363   0.372   6.943  1.8151 -1.5418 -0.4965
  172MOL0     H23161   8.598   0.455   6.913  0.3336  0.6230 -2.2471
  172MOL0     H23162   8.538   0.607   6.860 -0.9125 -0.6054 -1.3998
  172MOL0     H23163   8.460   0.677   7.083  0.2424  0.2362  2.0570
  172MOL0     H23164   8.470   0.507   7.130 -1.7451  0.8340  1.2979
  172MOL0     H23165   8.728   0.519   7.118 -1.7490 -1.8239 -1.4742
  172MOL0     H23166   8.706   0.681   7.063 -3.0504  0.3530 -0.4372
  172MOL0     H23167   8.656   0.561   7.333  0.4266 -1.0873 -2.6803
  172MOL0     H23168   8.562   0.713   7.289  2.0166  2.9500 -0.2357
  172MOL0     H23169   8.868   0.672   7.286 -0.4934 -1.1211  0.7461
  172MOL0     H23170   8.779   0.820   7.265  1.3128 -1.2802 -1.0019
  172MOL0     H23171   8.717   0.958   7.488 -0.3011  1.0547  0.0458
  172MOL0     H23172   8.732   0.879   7.873 -1.4697  0.1964  0.7703
  172MOL0     H23173   8.736   1.015   7.765  1.0820  0.0412 -0.1885
  172MOL0     H23174   8.508   1.034   7.793  1.6324  0.4993 -0.7045
  172MOL0     H23175   8.513   0.907   7.673  2.5555 -0.5126 -0.5191
  172MOL0     H23176   8.510   0.835   7.974  1.5496 -1.0909 -1.0080
  172MOL0     H23177   8.508   0.722   7.832  0.4547  0.2566 -5.2688
  172MOL0     H23178   8.290   0.762   7.918 -3.1978  6.5965  3.8684
  172MOL0     H23179   8.306   0.779   7.747 -0.3299  1.3066 -1.5773
  172MOL0     H23180   8.083   0.808   7.750 -1.5816 -1.2542  2.4993
  172MOL0     H23181   7.853   0.856   7.743 -4.0167  1.3214 -0.0315
  172MOL0     H23182   7.621   1.388   7.695 -0.1845 -0.0569  0.0434
  172MOL0     H23183   7.371   1.493   7.689 -0.7367 -1.9788 -0.0530
  172MOL0     H23184   7.130   1.240   7.783 -0.4777 -0.5333  0.6572
  172MOL0     H23185   7.008   1.336   7.862 -0.8721  1.0312 -0.0683
  172MOL0     H23186   7.108   1.380   7.577 -0.9713 -1.2904 -0.6200
  172MOL0     H23187   6.954   1.311   7.626  0.8094 -0.8503 -0.7534
  172MOL0     H23188   7.026   1.586   7.723  1.3245  0.2759 -1.4577
  172MOL0     H23189   6.959   1.565   7.566 -2.0709  1.7855  1.2069
  172MOL0     H23190   6.828   1.479   7.824 -3.5232 -1.9050 -1.1360
  172MOL0     H23191   6.756   1.461   7.671 -1.3836  1.6407 -0.4494
  172MOL0     H23192   6.849   1.720   7.811 -0.3303 -0.1451  0.1978
  172MOL0     H23193   6.680   1.673   7.777 -1.0115 -0.1324 -1.3424
  172MOL0     H23194   6.874   1.734   7.557 -0.3423  0.2680  0.7632
  172MOL0     H23195   6.697   1.697   7.539 -0.0842 -2.5388  1.2994
  172MOL0     H23196   6.836   1.917   7.696 -0.5585  1.7845 -0.1698
  172MOL0     H23197   6.655   1.904   7.680 -1.0628 -3.1868 -0.4658
  172MOL0     H23198   6.877   1.943   7.460  0.0004  2.7385 -2.1180
  172MOL0     H23199   6.708   1.929   7.424 -1.1809  0.7194  1.0615
  172MOL0     H23200   7.290   1.257   8.032 -0.5562  4.2012  1.4684
  172MOL0     H23201   7.511   1.180   8.053  0.9167 -1.6620  0.5555
  172MOL0     H23202   7.941   1.263   7.892 -2.3887 -1.4960 -0.4427
  172MOL0     H23203   8.176   1.182   7.916  1.8070 -0.3574 -2.8821
  172MOL0     H23204   7.892   0.471   6.753 -0.0529  3.7083 -1.1057
  172MOL0     H23205   7.741   0.391   6.577 -0.8510 -0.9502 -3.4657
  172MOL0     H23206   7.759   0.242   6.093 -0.2233  0.4916 -1.7998
  172MOL0     H23207   7.634   0.150   5.918  0.3502  1.8864  0.9879
  172MOL0     H23208   7.243  -0.067   6.007  2.0704 -0.5650  0.3677
  172MOL0     H23209   7.243  -0.045   5.836  3.2598 -2.4264  0.8878
  172MOL0     H23210   7.149   0.162   6.041  0.7007 -0.0865  0.5585
  172MOL0     H23211   7.058   0.073   5.913 -0.2918  0.3143 -1.2582
  172MOL0     H23212   7.196   0.196   5.745  1.2801  0.0055 -0.1375
  172MOL0     H23213   7.282   0.282   5.883 -0.7632  1.0814  1.0452
  172MOL0     H23214   7.057   0.364   5.954 -0.9814 -2.4237  0.4755
  172MOL0     H23215   7.127   0.418   5.800 -1.0376  0.6508  0.7385
  172MOL0     H23216   6.752   0.215   5.740 -0.0371  1.5220  0.9962
  172MOL0     H23217   7.308   0.062   6.174  1.0677 -1.5825 -0.3209
  172MOL0     H23218   7.284   0.153   6.392  0.6334 -1.7545  0.9381
  172MOL0     H23219   7.438   0.103   6.465 -1.0756 -1.4086 -1.4576
  172MOL0     H23220   7.396   0.273   6.448  2.9011  0.8164 -0.4960
  173MOL0     O23221   8.623   7.190   8.093  0.0074 -0.2432  0.2266
  173MOL0     C23222   8.659   7.073   8.087  0.5459  0.9480 -0.6459
  173MOL0     O23223   8.577   6.964   8.062  0.3072 -0.5562  0.4233
  173MOL0     C23224   8.441   6.997   8.060  0.0394  0.1284  0.9141
  173MOL0     C23225   8.377   7.075   8.155  1.4469  0.2349 -0.7888
  173MOL0     C23226   8.239   7.088   8.155 -0.3419 -0.7849  0.8487
  173MOL0     C23227   8.159   7.022   8.056  0.3514 -0.6265 -0.5697
  173MOL0     O23228   8.023   7.039   8.035  0.5414 -0.0825  0.3542
  173MOL0     C23229   7.964   7.152   8.094  0.0236 -0.3326 -0.7845
  173MOL0     C23230   7.819   7.164   8.053 -0.3881  0.6754  1.1957
  173MOL0     C23231   7.751   7.291   8.096  0.0131 -0.8856 -0.8066
  173MOL0     C23232   7.600   7.276   8.077 -0.5727  0.4306 -0.0037
  173MOL0     C23233   7.519   7.401   8.121  0.0757 -0.0829  0.1486
  173MOL0     C23234   7.370   7.379   8.103  0.6946 -0.1101  0.4492
  173MOL0     C23235   7.295   7.505   8.120  0.2607 -0.4563 -0.3753
  173MOL0     C23236   7.144   7.482   8.124 -0.2546 -0.1190  0.0970
  173MOL0     N23237   7.086   7.460   7.993  0.0155 -0.4562  0.1121
  173MOL0     C23238   7.046   7.338   7.953  1.0907 -0.5782 -0.1273
  173MOL0     C23239   7.015   7.351   7.821  0.0688  0.8891 -0.1908
  173MOL0     C23240   6.943   7.248   7.737 -0.2873 -0.4809 -0.4551
  173MOL0     C23241   7.028   7.125   7.703 -0.1984 -0.5183  0.3717
  173MOL0     C23242   6.962   7.003   7.660  0.1153 -0.8504  0.6495
  173MOL0     C23243   7.050   6.876   7.640  0.8898 -0.1346  0.0478
  173MOL0     O23244   7.145   6.877   7.749 -0.0972  0.1076 -0.0054
  173MOL0     C23245   7.237   6.779   7.740 -0.2663  0.3787  0.2605
  173MOL0     C23246   7.371   6.815   7.738 -0.3738 -0.3387  0.6333
  173MOL0     C23247   7.469   6.721   7.715 -1.2000  0.2538 -0.0530
  173MOL0     C23248   7.438   6.578   7.695  0.4102  0.7673  0.9891
  173MOL0     C23249   7.540   6.475   7.678 -0.3187 -0.6172  0.0870
  173MOL0     O23250   7.652   6.519   7.630 -0.3188 -0.3157  0.0612
  173MOL0     C23251   7.766   6.437   7.626  0.1865 -0.6022 -0.0017
  173MOL0     C23252   7.810   6.350   7.731  0.0135 -0.5952  0.0547
  173MOL0     C23253   7.923   6.281   7.712 -0.1028  0.1801 -0.4712
  173MOL0     C23254   8.005   6.295   7.598 -0.2805  0.9415  0.2534
  173MOL0     O23255   8.134   6.240   7.577  0.6236 -0.1786  0.0686
  173MOL0     C23256   8.191   6.176   7.685  0.5957  0.3756 -0.3648
  173MOL0     C23257   8.326   6.111   7.659 -0.2098  0.1735  0.5624
  173MOL0     C23258   8.427   6.131   7.774 -0.9889 -1.0300 -0.8679
  173MOL0     C23259   8.577   6.097   7.737 -0.7478  0.6692 -0.8354
  173MOL0     C23260   8.685   6.139   7.843  0.8103  0.6442 -0.9173
  173MOL0     C23261   8.834   6.129   7.824 -0.4349 -0.7837 -0.3111
  173MOL0     C23262   8.892   6.264   7.790  0.6470 -0.2879  0.4348
  173MOL0     C23263   9.044   6.274   7.751  0.1401 -0.2707 -0.4344
  173MOL0    Cl23264   9.140   6.227   7.896 -0.0236  0.1577 -0.1588
  173MOL0     C23265   7.949   6.363   7.492 -0.7704  0.5385 -0.1222
  173MOL0     C23266   7.832   6.440   7.508 -0.8282 -0.1183  0.4916
  173MOL0     O23267   7.516   6.363   7.712  0.2514 -0.5675  0.4600
  173MOL0     C23268   7.300   6.538   7.726  0.0902 -0.2328  0.1776
  173MOL0     C23269   7.205   6.637   7.733  0.1377 -1.2996  0.1435
  173MOL0     N23270   7.031   7.483   7.780  0.9435 -0.1700 -0.0660
  173MOL0     N23271   7.087   7.544   7.885 -0.0385 -0.1035 -0.2280
  173MOL0     C23272   8.227   6.941   7.973 -0.6714 -1.0319 -0.2699
  173MOL0     C23273   8.362   6.923   7.974 -0.5935 -0.5662  0.2751
  173MOL0     C23274   8.807   7.042   8.098 -0.5078 -0.6448  0.0073
  173MOL0     C23275   8.840   6.910   8.122 -0.4633 -0.6650 -0.3899
  173MOL0     C23276   8.971   6.866   8.150  0.6818  0.2513 -0.3213
  173MOL0     C23277   9.068   6.960   8.150 -0.8013 -0.3862 -0.2462
  173MOL0     O23278   9.198   6.947   8.196 -0.1935 -0.0575  0.2766
  173MOL0     C23279   9.263   6.820   8.204 -0.3206 -0.6717  0.3316
  173MOL0     C23280   9.413   6.830   8.213  0.1104 -0.4347 -0.3610
  173MOL0     C23281   9.465   6.919   8.339  0.3947  0.0048  0.8265
  173MOL0     C23282   9.612   6.919   8.356 -0.1392  0.1192 -0.5716
  173MOL0     C23283   9.690   7.046   8.355  0.8816  0.9337 -0.0768
  173MOL0     C23284   9.761   7.140   8.354 -0.5686 -0.5650 -0.0082
  173MOL0     C23285   9.041   7.096   8.112 -0.8611 -0.1012 -0.1548
  173MOL0     C23286   8.912   7.140   8.100 -0.1144 -0.0763  0.0932
  173MOL0     C23287   8.889   7.291   8.101 -0.3393  0.1986  0.2480
  173MOL0     H23288   8.420   7.135   8.235 -2.7982 -0.9826  2.8587
  173MOL0     H23289   8.193   7.162   8.220 -2.9452  1.8469 -3.5383
  173MOL0     H23290   7.969   7.133   8.202  0.4001 -0.6292 -0.8545
  173MOL0     H23291   8.012   7.247   8.070 -1.7992  1.3219  1.5307
  173MOL0     H23292   7.771   7.077   8.099  2.9934 -1.7319  0.5750
  173MOL0     H23293   7.808   7.156   7.945 -0.9738  1.9953  1.1288
  173MOL0     H23294   7.784   7.377   8.037  0.7686 -0.5803  0.0559
  173MOL0     H23295   7.776   7.321   8.198 -2.0447 -2.9553  0.4119
  173MOL0     H23296   7.578   7.258   7.971 -3.1466 -0.1387  0.5756
  173MOL0     H23297   7.567   7.189   8.134 -4.1060  2.1405  0.8577
  173MOL0     H23298   7.544   7.423   8.225 -0.9865 -1.2837  0.6851
  173MOL0     H23299   7.557   7.487   8.064  0.0423  0.5698  1.0897
  173MOL0     H23300   7.348   7.336   8.005  1.9887  0.6070 -0.1846
  173MOL0     H23301   7.336   7.306   8.178 -0.7968 -0.9053 -0.9414
  173MOL0     H23302   7.315   7.592   8.057 -1.2111  1.1484  1.2445
  173MOL0     H23303   7.327   7.529   8.222 -1.6439 -2.6802  0.8488
  173MOL0     H23304   7.117   7.415   8.206  0.6621 -0.5076  0.0965
  173MOL0     H23305   7.095   7.569   8.167  2.4366  1.0448  1.0671
  173MOL0     H23306   7.040   7.254   8.022  0.4826  0.3795  1.0040
  173MOL0     H23307   6.856   7.213   7.792 -3.2528 -1.7325 -5.3513
  173MOL0     H23308   6.892   7.294   7.652 -0.1643 -0.1581 -0.3587
  173MOL0     H23309   7.078   7.169   7.617 -0.1041 -4.2256 -1.6913
  173MOL0     H23310   7.076   7.108   7.800 -1.2396 -0.3157  0.9353
  173MOL0     H23311   6.914   7.028   7.565  1.9710  1.6865  0.2788
  173MOL0     H23312   6.888   6.989   7.739  0.1209  4.3872  1.9235
  173MOL0     H23313   7.093   6.874   7.539  1.0704  0.2263  0.1147
  173MOL0     H23314   6.987   6.788   7.656 -2.4766  2.0025 -0.4862
  173MOL0     H23315   7.398   6.920   7.739 -1.3783  0.0261 -2.0234
  173MOL0     H23316   7.572   6.754   7.705 -1.6383  1.8340  0.3591
  173MOL0     H23317   7.763   6.336   7.828  2.9877  2.6739  2.2245
  173MOL0     H23318   7.958   6.219   7.794 -1.6282 -0.7503 -0.4825
  173MOL0     H23319   8.208   6.244   7.769  0.7396 -0.8514  0.6367
  173MOL0     H23320   8.122   6.093   7.701  1.0936  0.1682  0.8437
  173MOL0     H23321   8.340   6.006   7.630  0.7366  0.8449 -1.6217
  173MOL0     H23322   8.370   6.165   7.575 -0.4421 -0.2203  0.1841
  173MOL0     H23323   8.428   6.236   7.803 -0.2258 -1.2550 -0.0382
  173MOL0     H23324   8.400   6.081   7.867  0.3307 -1.0315 -0.4621
  173MOL0     H23325   8.597   6.142   7.639 -1.5310  3.0410  0.0097
  173MOL0     H23326   8.588   5.989   7.723  3.9449  1.0834 -1.6649
  173MOL0     H23327   8.672   6.066   7.924 -0.3509  3.5308  1.7195
  173MOL0     H23328   8.652   6.234   7.888  0.3536  0.8855 -1.7342
  173MOL0     H23329   8.872   6.106   7.924 -0.5939  4.3784  1.1993
  173MOL0     H23330   8.851   6.051   7.749 -2.0267 -0.3897 -1.1305
  173MOL0     H23331   8.879   6.336   7.871 -0.3960  0.0681 -0.0244
  173MOL0     H23332   8.834   6.309   7.709 -1.7426 -4.7513 -0.6423
  173MOL0     H23333   9.054   6.198   7.673 -0.6067  0.1410 -0.9377
  173MOL0     H23334   9.063   6.379   7.730 -1.2573  0.2665  0.7916
  173MOL0     H23335   8.003   6.364   7.397 -3.1430  4.8134 -1.6845
  173MOL0     H23336   7.815   6.517   7.434  0.5476 -1.3226 -1.1617
  173MOL0     H23337   7.275   6.432   7.719 -0.5155 -0.0710 -0.1841
  173MOL0     H23338   7.101   6.606   7.743  0.1532 -1.5418 -0.4083
  173MOL0     H23339   8.164   6.890   7.900 -0.1566 -3.6579  1.0146
  173MOL0     H23340   8.413   6.857   7.904  0.6474  1.2446 -0.5854
  173MOL0     H23341   8.762   6.839   8.146  1.3332 -3.3005 -1.8210
  173MOL0     H23342   8.984   6.767   8.192  2.2979 -0.7456 -2.9626
  173MOL0     H23343   9.235   6.753   8.122 -1.7796 -1.6482  1.5613
  173MOL0     H23344   9.219   6.767   8.289  0.5619 -1.1466  0.5123
  173MOL0     H23345   9.452   6.873   8.120 -2.1798  0.2362 -1.0901
  173MOL0     H23346   9.444   6.725   8.215  0.4069 -0.3914 -1.5017
  173MOL0     H23347   9.421   6.872   8.427 -2.8242 -0.7872 -1.0430
  173MOL0     H23348   9.434   7.024   8.338 -0.5215 -0.1744 -2.7413
  173MOL0     H23349   9.636   6.882   8.456 -0.2507 -0.7663 -0.8597
  173MOL0     H23350   9.652   6.854   8.277  0.6784 -0.4529  0.2921
  173MOL0     H23351   9.845   7.206   8.352  0.1093 -1.4341 -0.5219
  173MOL0     H23352   9.125   7.164   8.107 -1.8883  1.3129  0.9207
  173MOL0     H23353   8.822   7.306   8.187 -1.0274  0.6322 -0.3552
  173MOL0     H23354   8.986   7.341   8.113 -0.6468  1.4941 -2.1016
  173MOL0     H23355   8.840   7.321   8.008 -0.1385  1.4726  0.5381
  174MOL0     O23356   1.672   9.792   9.865 -0.2352 -0.4786  0.8415
  174MOL0     C23357   1.689   9.757   9.754 -0.0103 -0.3149  0.0295
  174MOL0     O23358   1.801   9.762   9.687 -0.8100 -0.4070  1.4424
  174MOL0     C23359   1.920   9.761   9.764  0.1743  0.0083  0.0441
  174MOL0     C23360   1.989   9.881   9.754 -0.6031  0.5541  0.2042
  174MOL0     C23361   2.101   9.906   9.830  0.3083  0.1121 -0.6313
  174MOL0     C23362   2.151   9.816   9.919 -0.4877  0.0512 -0.0379
  174MOL0     O23363   2.256   9.833  10.009 -0.3210  0.6774  0.6377
  174MOL0     C23364   2.312   9.961  10.009  0.0083 -0.0195  0.2097
  174MOL0     C23365   2.409   9.971  10.124  0.2276  0.1348 -0.2062
  174MOL0     C23366   2.511   9.854  10.124 -0.6845 -0.0950 -0.1354
  174MOL0     C23367   2.601   9.857   9.995 -0.2820 -1.1658  1.0822
  174MOL0     C23368   2.710   9.748  10.002 -0.9064 -0.8367 -0.4080
  174MOL0     C23369   2.659   9.605   9.992 -0.0213  0.2246 -0.8933
  174MOL0     C23370   2.771   9.508   9.977  0.2168  0.3192  0.4234
  174MOL0     C23371   2.847   9.462  10.100  0.3166  0.7182 -0.4956
  174MOL0     N23372   2.983   9.411  10.060  0.8903  0.0806 -0.6857
  174MOL0     C23373   3.087   9.491  10.024 -0.2504 -0.0377 -0.0236
  174MOL0     C23374   3.183   9.403   9.997 -0.4721  0.7904  0.3192
  174MOL0     C23375   3.327   9.439   9.965  0.4215  0.1456 -0.3982
  174MOL0     C23376   3.327   9.542   9.841 -0.1678  0.8165 -0.8339
  174MOL0     C23377   3.310   9.469   9.704 -0.3213  0.3162 -0.9833
  174MOL0     C23378   3.234   9.564   9.604 -0.8933 -0.3286 -0.4059
  174MOL0     O23379   3.101   9.605   9.637 -0.1183 -0.5089 -0.1661
  174MOL0     C23380   2.984   9.543   9.596 -0.3463  0.7333  0.9461
  174MOL0     C23381   2.983   9.429   9.510 -0.2729  0.0126  0.7531
  174MOL0     C23382   2.862   9.374   9.479  0.2646 -0.1257  0.3277
  174MOL0     C23383   2.743   9.418   9.521  0.3267  0.1161  0.0932
  174MOL0     C23384   2.615   9.361   9.476 -0.7617  0.9432  0.2006
  174MOL0     O23385   2.504   9.434   9.512  0.1860  0.5094  0.8479
  174MOL0     C23386   2.376   9.414   9.465 -0.0140  0.0844  0.6546
  174MOL0     C23387   2.330   9.350   9.344  0.3375  0.4773 -0.0519
  174MOL0     C23388   2.195   9.343   9.312  0.6096  0.5084  0.3079
  174MOL0     C23389   2.093   9.389   9.399  0.3146 -0.3801 -0.5490
  174MOL0     O23390   1.966   9.394   9.349 -0.1107 -0.3086  0.2095
  174MOL0     C23391   1.862   9.445   9.432  0.2873 -0.0914  0.2551
  174MOL0     C23392   1.737   9.396   9.369 -0.4784 -1.1851 -0.2349
  174MOL0     C23393   1.701   9.486   9.264  0.1364  0.4142  0.0623
  174MOL0     C23394   1.564   9.442   9.198  0.4786 -0.6249 -1.0979
  174MOL0     C23395   1.530   9.518   9.069 -0.4627 -0.6614  0.2055
  174MOL0     C23396   1.415   9.445   8.989  0.2718 -0.2233  0.4369
  174MOL0     C23397   1.349   9.544   8.896  0.1758 -0.2154 -0.0931
  174MOL0     C23398   1.205   9.508   8.852 -0.4749 -0.6169  0.1889
  174MOL0    Cl23399   1.212   9.378   8.725  0.1670  0.3512  0.1440
  174MOL0     C23400   2.129   9.450   9.514 -0.2606  0.0517  0.4639
  174MOL0     C23401   2.268   9.454   9.550 -0.6691  0.0500  0.8340
  174MOL0     O23402   2.605   9.254   9.416 -0.5405 -0.1646 -0.5325
  174MOL0     C23403   2.744   9.532   9.604 -0.2893  0.0085  1.1482
  174MOL0     C23404   2.864   9.602   9.632  0.2816  0.7484 -0.3691
  174MOL0     N23405   3.132   9.273  10.009  0.8003  0.2502  0.1388
  174MOL0     N23406   3.009   9.279  10.046  0.4525  0.5785  0.0013
  174MOL0     C23407   2.082   9.691   9.918 -0.0362  0.4876 -0.0177
  174MOL0     C23408   1.965   9.661   9.846 -0.2908 -1.3498  0.2873
  174MOL0     C23409   1.565   9.726   9.678 -0.4634 -0.6333  0.7634
  174MOL0     C23410   1.587   9.689   9.543 -0.9250  0.8335 -0.1296
  174MOL0     C23411   1.481   9.677   9.453 -0.3184  0.6363  0.1900
  174MOL0     C23412   1.349   9.697   9.498  0.1868  1.2284  0.0325
  174MOL0     O23413   1.251   9.699   9.399  0.4133 -0.0745 -0.1816
  174MOL0     C23414   1.153   9.814   9.408 -0.1260  0.1630 -0.3685
  174MOL0     C23415   1.076   9.829   9.280 -0.5553 -0.2958  0.7847
  174MOL0     C23416   1.162   9.883   9.156 -0.2640 -0.0398 -0.2191
  174MOL0     C23417   1.077   9.904   9.027  0.2001  0.1944 -0.7368
  174MOL0     C23418   0.997   9.786   8.988  0.1857 -0.6962 -0.5398
  174MOL0     C23419   0.926   9.691   8.969  0.1763  0.5059 -0.4939
  174MOL0     C23420   1.333   9.731   9.630 -0.4462  0.6480 -0.3509
  174MOL0     C23421   1.430   9.738   9.725 -0.9066 -1.1818  0.6304
  174MOL0     C23422   1.385   9.767   9.861  0.0037 -0.9603  0.1090
  174MOL0     H23423   1.962   9.957   9.681  3.5706  1.8275 -0.3328
  174MOL0     H23424   2.146  10.004   9.821  0.4750  0.0905 -0.0999
  174MOL0     H23425   2.366   9.988   9.918 -0.7640  0.1021 -0.2279
  174MOL0     H23426   2.229  10.030  10.029  1.2625  1.4679  0.4723
  174MOL0     H23427   2.356   9.970  10.220  1.5988 -1.5114  0.5824
  174MOL0     H23428   2.455  10.070  10.115  0.2320  0.2458  0.9222
  174MOL0     H23429   2.458   9.759  10.129  1.5320 -1.3281  2.2572
  174MOL0     H23430   2.572   9.862  10.214 -0.4643  3.4920 -0.4581
  174MOL0     H23431   2.544   9.848   9.902 -1.2789  4.3910  0.8105
  174MOL0     H23432   2.656   9.951   9.985  2.2270 -2.7587 -2.5689
  174MOL0     H23433   2.781   9.779   9.924 -1.1580 -0.9653 -0.6921
  174MOL0     H23434   2.761   9.754  10.098 -2.4201  0.5720  0.3486
  174MOL0     H23435   2.611   9.571  10.084 -2.1049 -0.4536 -2.1703
  174MOL0     H23436   2.576   9.588   9.922 -0.1593  2.1523 -1.2577
  174MOL0     H23437   2.835   9.541   9.895 -1.4005 -1.6401 -1.7950
  174MOL0     H23438   2.734   9.419   9.925  1.9320  0.6393 -1.4919
  174MOL0     H23439   2.852   9.544  10.173  0.9857  0.5270 -0.3160
  174MOL0     H23440   2.793   9.384  10.155  2.7666 -0.5008  0.3545
  174MOL0     H23441   3.084   9.599  10.011 -3.8219 -0.2624 -2.2946
  174MOL0     H23442   3.368   9.485  10.056 -0.4766  1.2330 -0.5195
  174MOL0     H23443   3.380   9.347   9.938 -2.4454 -1.2209 -1.8674
  174MOL0     H23444   3.251   9.620   9.849 -0.8655 -0.0263  2.2432
  174MOL0     H23445   3.416   9.606   9.834 -0.7659  1.5454 -2.1636
  174MOL0     H23446   3.247   9.381   9.716 -2.3268  1.7501 -0.4845
  174MOL0     H23447   3.410   9.435   9.673  0.4017  0.0895  1.3841
  174MOL0     H23448   3.238   9.508   9.510 -0.6861 -1.6464  0.3485
  174MOL0     H23449   3.291   9.656   9.586  0.4581 -1.2138 -0.8347
  174MOL0     H23450   3.073   9.387   9.467  0.7156  1.6559  1.1322
  174MOL0     H23451   2.867   9.293   9.407  2.3608 -1.5009  1.9215
  174MOL0     H23452   2.403   9.327   9.268  0.0526  3.3696 -1.3086
  174MOL0     H23453   2.174   9.314   9.209  0.2052 -2.3659  1.1213
  174MOL0     H23454   1.859   9.392   9.527 -3.1174 -0.3910  0.0963
  174MOL0     H23455   1.852   9.553   9.448  2.8437  0.2218  0.2457
  174MOL0     H23456   1.769   9.295   9.341  2.9477  0.2051 -1.9214
  174MOL0     H23457   1.663   9.400   9.450 -0.8382 -0.4900 -0.5908
  174MOL0     H23458   1.688   9.590   9.294  1.6944  0.4754  0.6239
  174MOL0     H23459   1.770   9.480   9.180 -2.2139 -2.0845 -1.8825
  174MOL0     H23460   1.479   9.471   9.260  0.7055  0.4205 -1.2626
  174MOL0     H23461   1.561   9.337   9.168  0.2174 -0.5683 -1.2760
  174MOL0     H23462   1.612   9.536   8.999 -0.6808  2.4427  0.6167
  174MOL0     H23463   1.486   9.613   9.100  2.3329 -0.2541  3.4837
  174MOL0     H23464   1.465   9.359   8.944  1.8013 -0.3549  2.2917
  174MOL0     H23465   1.329   9.411   9.048 -1.3334 -1.2967 -2.2922
  174MOL0     H23466   1.418   9.566   8.814  0.7442 -2.8879 -0.4203
  174MOL0     H23467   1.336   9.642   8.943  1.0232  0.7776 -1.8283
  174MOL0     H23468   1.142   9.470   8.933 -1.0420 -0.7211 -0.2940
  174MOL0     H23469   1.155   9.598   8.817 -0.9046  0.1731  2.6090
  174MOL0     H23470   2.049   9.497   9.571 -1.2551  0.1896 -0.9951
  174MOL0     H23471   2.277   9.521   9.636 -1.0652  0.6355  0.4276
  174MOL0     H23472   2.659   9.596   9.627 -1.5278 -1.3972  0.6950
  174MOL0     H23473   2.876   9.695   9.687  1.3553  1.0696 -1.1227
  174MOL0     H23474   2.102   9.612   9.990 -0.2044 -1.7377 -2.2439
  174MOL0     H23475   1.919   9.563   9.855 -2.1341 -0.6928 -1.1893
  174MOL0     H23476   1.689   9.681   9.506 -1.4037  0.0155 -1.3040
  174MOL0     H23477   1.496   9.668   9.346 -1.2979  0.7713  0.0303
  174MOL0     H23478   1.212   9.904   9.426  0.3266 -0.4072  1.1252
  174MOL0     H23479   1.080   9.800   9.487 -0.8451  3.2323 -0.3593
  174MOL0     H23480   0.981   9.880   9.295 -1.0032 -0.3769 -1.4851
  174MOL0     H23481   1.046   9.728   9.248 -1.7564  0.0408  0.8060
  174MOL0     H23482   1.243   9.812   9.136  0.8326  0.6480  1.5396
  174MOL0     H23483   1.209   9.974   9.193 -2.2372 -0.1209  2.8252
  174MOL0     H23484   1.015   9.994   9.030  0.6925  0.5166  0.1301
  174MOL0     H23485   1.150   9.913   8.945  3.2891 -3.1021  1.3313
  174MOL0     H23486   0.854   9.613   8.955  0.2336  0.1019  1.1953
  174MOL0     H23487   1.228   9.737   9.657 -0.4504  0.0548 -0.2134
  174MOL0     H23488   1.433   9.856   9.903 -0.8088 -1.0462  1.2718
  174MOL0     H23489   1.277   9.781   9.872  0.1121 -1.0662  1.5741
  174MOL0     H23490   1.414   9.679   9.919 -0.9685 -0.2543  1.7487
  175MOL0     O23491  10.526   8.650   7.170 -0.2425 -0.1079 -0.3482
  175MOL0     C23492  10.458   8.675   7.273 -0.7904 -0.2562  0.6975
  175MOL0     O23493  10.509   8.685   7.397  0.2349  0.1655  0.0960
  175MOL0     C23494  10.648   8.689   7.405 -0.2087 -0.3698 -1.2149
  175MOL0     C23495  10.742   8.749   7.322 -0.3888 -0.0523 -0.0353
  175MOL0     C23496  10.878   8.743   7.347  0.0015 -0.2506 -0.2264
  175MOL0     C23497  10.928   8.692   7.467  0.6275  0.5823  0.0248
  175MOL0     O23498  11.055   8.649   7.488 -0.3790 -0.4746 -0.6953
  175MOL0     C23499  11.150   8.660   7.390  0.5712  0.6998 -0.5202
  175MOL0     C23500  11.265   8.572   7.412  0.0774  0.5187 -0.7331
  175MOL0     C23501  11.382   8.586   7.310  0.3514 -0.3657 -0.3980
  175MOL0     C23502  11.397   8.731   7.256  0.2338 -0.7948 -0.4456
  175MOL0     C23503  11.538   8.726   7.183 -0.1328 -0.4331 -1.0692
  175MOL0     C23504  11.566   8.846   7.094 -0.6186 -0.0164 -0.2767
  175MOL0     C23505  11.597   8.972   7.176 -0.8032  0.9460 -0.7394
  175MOL0     C23506  11.677   9.081   7.100  0.0966  0.8339  1.0880
  175MOL0     N23507  11.733   9.167   7.202 -0.4296  0.6040 -0.5128
  175MOL0     C23508  11.855   9.146   7.258 -0.9561  0.4691  0.1868
  175MOL0     C23509  11.868   9.245   7.345 -0.0650  0.1101 -0.4371
  175MOL0     C23510  11.989   9.245   7.442 -0.0324  0.0672  1.1311
  175MOL0     C23511  12.118   9.241   7.355  0.9835  0.1709 -0.5333
  175MOL0     C23512  12.140   9.382   7.290 -0.3701  0.5078 -0.2238
  175MOL0     C23513  12.279   9.396   7.228 -0.5095 -0.1098  0.2748
  175MOL0     O23514  12.381   9.401   7.327  0.2750 -0.0041  0.1092
  175MOL0     C23515  12.502   9.448   7.289 -0.4497  0.0093  0.1562
  175MOL0     C23516  12.585   9.498   7.390  0.0856  0.0490 -0.4727
  175MOL0     C23517  12.713   9.555   7.365 -0.8959  0.4198  0.3739
  175MOL0     C23518  12.764   9.578   7.231 -0.9170  0.6423 -0.0731
  175MOL0     C23519  12.887   9.650   7.199 -0.6449  0.9822 -0.4172
  175MOL0     O23520  12.941   9.631   7.078 -0.4760 -0.3523 -0.1276
  175MOL0     C23521  13.072   9.641   7.072 -0.4406  0.6591 -0.5583
  175MOL0     C23522  13.149   9.762   7.073 -0.4428 -0.3892  1.3090
  175MOL0     C23523  13.295   9.757   7.042  0.8278  0.1168 -0.2005
  175MOL0     C23524  13.354   9.635   6.999 -0.0017 -0.5236  0.9422
  175MOL0     O23525  13.492   9.647   6.973 -0.1545 -0.2074 -0.2579
  175MOL0     C23526  13.586   9.535   6.989  0.7969 -0.0093  0.2131
  175MOL0     C23527  13.631   9.540   7.137  0.4551 -0.1043 -0.2980
  175MOL0     C23528  13.686   9.411   7.184 -0.2087  0.0999 -0.4430
  175MOL0     C23529  13.741   9.424   7.327 -0.0883 -0.7329  0.1420
  175MOL0     C23530  13.822   9.305   7.373  0.6444  0.1791  0.3434
  175MOL0     C23531  13.928   9.342   7.478  0.7133  0.0764  0.2937
  175MOL0     C23532  14.025   9.227   7.516 -0.0570 -0.3248  0.1105
  175MOL0     C23533  14.136   9.291   7.602  0.4584 -0.4167 -0.1787
  175MOL0    Cl23534  14.281   9.190   7.612 -0.5202 -0.0624 -0.1499
  175MOL0     C23535  13.270   9.518   6.991  0.9579  0.1307 -0.0811
  175MOL0     C23536  13.131   9.518   7.035 -0.6910  0.3011  0.1521
  175MOL0     O23537  12.938   9.720   7.288  0.0220 -0.1828 -0.3363
  175MOL0     C23538  12.681   9.534   7.134 -0.8404 -0.6451  0.2518
  175MOL0     C23539  12.552   9.464   7.150 -0.1434 -0.2221 -1.6344
  175MOL0     N23540  11.767   9.336   7.332 -0.7737  0.8747  0.5750
  175MOL0     N23541  11.690   9.290   7.239  0.7198  0.8549  0.1240
  175MOL0     C23542  10.834   8.653   7.561 -0.7282  0.7974 -1.0634
  175MOL0     C23543  10.697   8.645   7.530  1.0218 -0.1268  1.0136
  175MOL0     C23544  10.310   8.643   7.259  0.1423 -0.9623 -0.2597
  175MOL0     C23545  10.280   8.555   7.154 -0.0296 -0.3069  0.4096
  175MOL0     C23546  10.154   8.517   7.132  0.0095  0.6942 -0.4472
  175MOL0     C23547  10.042   8.574   7.212 -1.1665  0.4958 -0.0700
  175MOL0     O23548   9.910   8.560   7.199  0.0727 -0.1109  0.0148
  175MOL0     C23549   9.863   8.443   7.128 -0.8737  0.5489 -0.6073
  175MOL0     C23550   9.725   8.446   7.085  1.1700  0.3920  0.5273
  175MOL0     C23551   9.696   8.553   6.985  0.9997  0.2055  0.3999
  175MOL0     C23552   9.555   8.552   6.928  0.4686 -0.3442 -0.7349
  175MOL0     C23553   9.464   8.562   7.047  0.5049 -0.6616  0.8716
  175MOL0     C23554   9.388   8.583   7.143 -0.6634  0.1375  0.1524
  175MOL0     C23555  10.083   8.660   7.326  1.0600  0.1306  0.4952
  175MOL0     C23556  10.216   8.692   7.344  0.3932 -0.2209 -0.5785
  175MOL0     C23557  10.229   8.807   7.444  0.2212 -0.3804 -0.3296
  175MOL0     H23558  10.701   8.798   7.235  0.0850 -1.7580 -1.2798
  175MOL0     H23559  10.944   8.789   7.275 -0.7873  1.0459 -0.1507
  175MOL0     H23560  11.110   8.625   7.294 -5.4666 -1.0803  2.1345
  175MOL0     H23561  11.179   8.765   7.394  0.6496  0.7917 -2.5425
  175MOL0     H23562  11.232   8.468   7.422  0.6081  0.3636 -0.4905
  175MOL0     H23563  11.300   8.595   7.514  0.4292  0.8288 -0.9209
  175MOL0     H23564  11.356   8.527   7.221  2.5916 -0.0799 -1.2915
  175MOL0     H23565  11.472   8.543   7.354 -0.5450 -1.5340  0.3506
  175MOL0     H23566  11.315   8.753   7.187 -1.4310  2.9250  2.3739
  175MOL0     H23567  11.401   8.804   7.337  3.2864 -1.4571  0.1362
  175MOL0     H23568  11.615   8.723   7.261  0.3474  0.4639 -1.4958
  175MOL0     H23569  11.562   8.645   7.113 -0.0524 -1.0681 -0.3237
  175MOL0     H23570  11.656   8.823   7.036 -0.7775 -1.6217  0.0585
  175MOL0     H23571  11.477   8.856   7.031 -1.7437 -2.2894  0.8123
  175MOL0     H23572  11.661   8.929   7.254 -0.4209 -1.7918 -2.4082
  175MOL0     H23573  11.507   9.010   7.225 -0.2341 -0.2772  1.3779
  175MOL0     H23574  11.748   9.019   7.045 -1.2449  1.6157 -1.6608
  175MOL0     H23575  11.608   9.133   7.034 -1.0097 -5.0409 -3.1694
  175MOL0     H23576  11.921   9.062   7.238  0.1260  1.1720  0.7446
  175MOL0     H23577  11.973   9.333   7.505 -0.9356  0.3243  0.5680
  175MOL0     H23578  11.971   9.155   7.502 -2.5028 -1.2120 -1.3059
  175MOL0     H23579  12.202   9.208   7.417  0.6245 -1.8422 -1.0480
  175MOL0     H23580  12.104   9.171   7.273 -0.3149 -0.1021 -0.0940
  175MOL0     H23581  12.128   9.459   7.367 -1.2806  2.2491 -2.0059
  175MOL0     H23582  12.067   9.403   7.211 -0.4310 -0.0396 -0.3187
  175MOL0     H23583  12.284   9.487   7.169  2.3373 -0.4034 -0.1063
  175MOL0     H23584  12.301   9.317   7.155  0.5831 -0.0961  0.5659
  175MOL0     H23585  12.559   9.490   7.495  4.7219  1.8113  1.0665
  175MOL0     H23586  12.767   9.601   7.447 -1.4860 -1.0974  1.6566
  175MOL0     H23587  13.104   9.857   7.101  0.4451  0.3163  0.3762
  175MOL0     H23588  13.355   9.847   7.054 -2.1249  2.0605  1.2276
  175MOL0     H23589  13.533   9.442   6.966 -0.1552  0.2340  1.3364
  175MOL0     H23590  13.671   9.548   6.921  0.2612  0.1726 -0.4427
  175MOL0     H23591  13.704   9.621   7.153 -0.7340  1.6644 -3.0218
  175MOL0     H23592  13.548   9.546   7.207  1.4667 -1.2976  1.0542
  175MOL0     H23593  13.608   9.334   7.184 -1.5269  1.3978 -0.0442
  175MOL0     H23594  13.762   9.381   7.111 -0.1947  2.8903 -1.6874
  175MOL0     H23595  13.662   9.442   7.401  0.7721  1.1965  0.6566
  175MOL0     H23596  13.795   9.519   7.326 -2.2831  0.7960 -4.5245
  175MOL0     H23597  13.871   9.263   7.285  0.1565  3.2228 -1.5228
  175MOL0     H23598  13.747   9.237   7.414 -2.1245  2.2452 -0.9677
  175MOL0     H23599  13.995   9.415   7.432  0.4963 -0.9322 -1.7253
  175MOL0     H23600  13.882   9.401   7.558  0.2508 -0.3397  0.3426
  175MOL0     H23601  14.068   9.186   7.424  0.5888  0.8783 -0.1317
  175MOL0     H23602  13.963   9.152   7.568 -1.2226  1.4573  1.3887
  175MOL0     H23603  14.167   9.388   7.563 -0.4267  0.8205  1.9990
  175MOL0     H23604  14.100   9.319   7.702  2.8907  0.0327  0.6253
  175MOL0     H23605  13.312   9.432   6.941 -1.8856 -0.6546 -1.3494
  175MOL0     H23606  13.064   9.433   7.024 -2.3219  1.6561 -1.0450
  175MOL0     H23607  12.716   9.537   7.031  1.0982  4.1804  0.8213
  175MOL0     H23608  12.498   9.445   7.057 -0.8517  0.2744 -1.3341
  175MOL0     H23609  10.861   8.611   7.658  1.0529  1.3923 -1.2704
  175MOL0     H23610  10.618   8.617   7.599 -1.8959  0.9405 -1.6581
  175MOL0     H23611  10.362   8.513   7.098 -0.3064  0.5511 -0.6914
  175MOL0     H23612  10.128   8.455   7.047 -1.4810  1.7320 -0.7773
  175MOL0     H23613   9.879   8.352   7.187 -0.6477  1.6763  1.1308
  175MOL0     H23614   9.921   8.433   7.036  0.1333  1.1373 -0.0610
  175MOL0     H23615   9.662   8.453   7.174 -2.4725 -0.7400 -1.7189
  175MOL0     H23616   9.694   8.352   7.038 -0.8344  0.6047  1.3237
  175MOL0     H23617   9.763   8.561   6.898 -1.3764 -2.9967 -2.0046
  175MOL0     H23618   9.702   8.642   7.048  0.3868 -1.1017  2.3843
  175MOL0     H23619   9.546   8.630   6.851  0.4663  1.3242  0.9055
  175MOL0     H23620   9.545   8.452   6.885 -2.4045 -0.9882  1.1516
  175MOL0     H23621   9.328   8.595   7.230 -0.8466  2.2774 -0.2049
  175MOL0     H23622  10.011   8.722   7.379  0.8641  0.6383 -0.3414
  175MOL0     H23623  10.156   8.888   7.434 -0.5073 -0.1691  4.3019
  175MOL0     H23624  10.222   8.781   7.550 -1.0607 -0.8229 -0.5052
  175MOL0     H23625  10.325   8.858   7.434  0.4780 -0.8458 -0.2514
  176MOL0     O23626   3.895   6.263  11.329  0.3203 -0.0951  0.2815
  176MOL0     C23627   3.823   6.295  11.425  0.5715 -0.7564  0.1068
  176MOL0     O23628   3.868   6.365  11.537  0.1511 -0.4059 -1.1436
  176MOL0     C23629   3.997   6.424  11.527 -0.3845 -1.0113 -0.3163
  176MOL0     C23630   4.092   6.400  11.622 -0.6751 -0.3664 -0.0480
  176MOL0     C23631   4.220   6.452  11.622 -0.1182  0.2885  0.9614
  176MOL0     C23632   4.256   6.533  11.511 -0.0402  1.1183  0.4524
  176MOL0     O23633   4.387   6.576  11.496 -0.1094  0.3427  0.3607
  176MOL0     C23634   4.456   6.600  11.616 -0.2834 -0.6445  0.0141
  176MOL0     C23635   4.580   6.689  11.584  0.4715 -0.8241 -0.4748
  176MOL0     C23636   4.654   6.641  11.455 -0.1932 -0.5112 -0.9064
  176MOL0     C23637   4.791   6.708  11.451 -0.2457  0.4236 -0.2611
  176MOL0     C23638   4.848   6.705  11.309  0.0699  0.3233  1.2884
  176MOL0     C23639   4.998   6.739  11.323  0.0932  0.4080 -0.5398
  176MOL0     C23640   5.066   6.713  11.193  0.3496 -1.2734 -0.0693
  176MOL0     C23641   5.104   6.568  11.167  0.0727  0.5977  0.7138
  176MOL0     N23642   5.221   6.519  11.252  0.6058  0.6922 -0.1894
  176MOL0     C23643   5.341   6.575  11.261 -0.2829 -0.5055 -0.4134
  176MOL0     C23644   5.419   6.482  11.323  0.7962 -0.1406 -0.0443
  176MOL0     C23645   5.562   6.497  11.372  0.6647  0.3795  0.9841
  176MOL0     C23646   5.656   6.421  11.277  0.1598 -0.2626  0.5966
  176MOL0     C23647   5.681   6.475  11.131 -0.0893  0.0354  0.1356
  176MOL0     C23648   5.744   6.616  11.133  0.5151 -0.1507 -0.5590
  176MOL0     O23649   5.866   6.606  11.072  0.3332  0.1441  0.7263
  176MOL0     C23650   5.952   6.718  11.083  0.1010  0.8408 -0.1385
  176MOL0     C23651   6.084   6.683  11.090 -0.3583 -0.8358 -0.1472
  176MOL0     C23652   6.186   6.778  11.106  0.0737  0.3979 -0.3833
  176MOL0     C23653   6.142   6.914  11.113 -0.4541  0.9284 -0.2553
  176MOL0     C23654   6.235   7.030  11.145  0.0129  0.7819  1.4048
  176MOL0     O23655   6.360   6.999  11.183  0.1807  0.5045 -0.2460
  176MOL0     C23656   6.450   7.101  11.211  0.6728  0.6334 -1.0200
  176MOL0     C23657   6.472   7.204  11.118  0.6393  1.0425 -0.1902
  176MOL0     C23658   6.568   7.302  11.143 -0.7783 -0.2047  0.8356
  176MOL0     C23659   6.654   7.290  11.251  0.0164  0.5154  0.3818
  176MOL0     O23660   6.757   7.382  11.267 -0.3399  0.0178 -0.4021
  176MOL0     C23661   6.866   7.358  11.186 -0.6629 -0.4728  0.7443
  176MOL0     C23662   6.991   7.428  11.226 -0.5942  0.0667 -0.1826
  176MOL0     C23663   6.982   7.574  11.226  0.9606 -1.3840 -0.7462
  176MOL0     C23664   7.120   7.643  11.211  0.9545  0.4722  0.6950
  176MOL0     C23665   7.093   7.794  11.189 -0.1236  0.2871  0.5562
  176MOL0     C23666   7.226   7.868  11.170  1.0088  0.5507  0.9798
  176MOL0     C23667   7.198   8.019  11.165  0.4084  0.7328  0.2740
  176MOL0     C23668   7.269   8.063  11.041  0.7136  0.0856  0.3573
  176MOL0    Cl23669   7.457   8.085  11.090  0.0182  0.3123  0.1421
  176MOL0     C23670   6.639   7.188  11.340  1.2536  0.3932 -0.1359
  176MOL0     C23671   6.535   7.096  11.330 -0.1508 -0.4886 -0.6115
  176MOL0     O23672   6.180   7.143  11.140 -1.4311  0.0833 -1.3878
  176MOL0     C23673   6.003   6.950  11.092 -1.0693  0.3965  0.7345
  176MOL0     C23674   5.915   6.845  11.068  0.4702  0.0995 -0.5673
  176MOL0     N23675   5.345   6.364  11.324  0.1526  0.0245  1.2279
  176MOL0     N23676   5.220   6.388  11.287  0.8783 -0.9005  0.6202
  176MOL0     C23677   4.161   6.554  11.410 -0.2308  0.2501 -0.0497
  176MOL0     C23678   4.033   6.497  11.416  0.7974  0.4041 -0.2825
  176MOL0     C23679   3.682   6.245  11.434 -0.0565  0.9204  0.5415
  176MOL0     C23680   3.644   6.166  11.544 -0.0557 -0.1251 -1.0026
  176MOL0     C23681   3.532   6.090  11.545  0.7671  1.0393 -0.1404
  176MOL0     C23682   3.451   6.085  11.438 -0.8949  0.9281  0.3973
  176MOL0     O23683   3.329   6.021  11.443  0.0639 -0.7171  0.1613
  176MOL0     C23684   3.303   5.915  11.530  0.6993  0.6552 -0.7296
  176MOL0     C23685   3.171   5.865  11.505 -0.4814 -0.5028  0.6619
  176MOL0     C23686   3.051   5.966  11.534 -0.3717 -0.1685  0.2646
  176MOL0     C23687   2.923   5.896  11.576 -0.2328 -0.7708  0.3204
  176MOL0     C23688   2.854   5.842  11.457 -0.6091  0.0516  0.1065
  176MOL0     C23689   2.803   5.803  11.359 -0.4806 -0.2422  0.7788
  176MOL0     C23690   3.494   6.153  11.323  0.3532 -0.3743  0.8041
  176MOL0     C23691   3.601   6.237  11.319  0.8972 -0.5150 -0.3978
  176MOL0     C23692   3.629   6.316  11.191  0.0190  0.4334  0.2381
  176MOL0     H23693   4.063   6.342  11.709  2.4450 -0.1269  1.2785
  176MOL0     H23694   4.294   6.417  11.693 -0.0713 -1.2951  0.1671
  176MOL0     H23695   4.399   6.649  11.695 -0.4591 -0.6396 -0.1143
  176MOL0     H23696   4.495   6.506  11.656  1.7434  0.3771  0.5541
  176MOL0     H23697   4.649   6.690  11.668  0.9675  3.3543 -0.7276
  176MOL0     H23698   4.554   6.794  11.594  1.0953 -0.7813  0.8339
  176MOL0     H23699   4.596   6.665  11.365 -1.6496 -0.0212  0.1316
  176MOL0     H23700   4.660   6.532  11.467 -4.1366 -0.6730  1.5202
  176MOL0     H23701   4.779   6.809  11.491 -0.3964  0.9861 -1.6704
  176MOL0     H23702   4.854   6.639  11.508  1.4859 -0.0245 -2.5929
  176MOL0     H23703   4.830   6.618  11.246 -2.8211  2.6914 -1.4804
  176MOL0     H23704   4.805   6.791  11.258 -1.7853 -0.3954  1.5730
  176MOL0     H23705   5.011   6.837  11.368  1.6567 -0.5754  1.3173
  176MOL0     H23706   5.028   6.666  11.399 -1.3543 -0.1864 -0.5017
  176MOL0     H23707   5.152   6.777  11.176 -1.0208  0.3637 -1.0921
  176MOL0     H23708   4.990   6.743  11.120  1.8462 -1.3063 -1.7000
  176MOL0     H23709   5.019   6.500  11.178  1.3361 -1.1691  0.0436
  176MOL0     H23710   5.132   6.541  11.065  3.0509  0.7729  1.3950
  176MOL0     H23711   5.380   6.671  11.229 -0.9163 -0.2305 -0.3679
  176MOL0     H23712   5.580   6.603  11.394  0.1252  0.7740 -0.3765
  176MOL0     H23713   5.574   6.434  11.460  4.4040  0.6663  0.8548
  176MOL0     H23714   5.752   6.424  11.329  0.6117  0.2780 -0.2557
  176MOL0     H23715   5.616   6.319  11.277  0.0462 -0.2600  2.3404
  176MOL0     H23716   5.593   6.474  11.066  0.7391  1.2185 -1.0498
  176MOL0     H23717   5.739   6.398  11.079 -0.6431 -0.5695  0.4011
  176MOL0     H23718   5.753   6.628  11.242 -1.2219 -0.9443 -0.2949
  176MOL0     H23719   5.683   6.691  11.082  0.0672  0.3920  0.7170
  176MOL0     H23720   6.123   6.582  11.091 -0.1191 -0.8501 -3.0212
  176MOL0     H23721   6.292   6.753  11.115  0.2927  0.9676 -1.2561
  176MOL0     H23722   6.432   7.199  11.018 -2.7774 -0.4993  1.1064
  176MOL0     H23723   6.589   7.378  11.068 -1.6215 -1.5479 -0.8255
  176MOL0     H23724   6.904   7.255  11.189  0.7445 -0.0594 -0.8477
  176MOL0     H23725   6.844   7.378  11.081  0.0643 -0.5613  0.5650
  176MOL0     H23726   7.016   7.413  11.332  3.2487 -0.6896 -1.0622
  176MOL0     H23727   7.075   7.400  11.161  1.4450  5.7222 -0.5575
  176MOL0     H23728   6.914   7.613  11.150  0.8103 -0.5825 -0.2009
  176MOL0     H23729   6.930   7.587  11.321  1.2264 -1.9271 -0.5204
  176MOL0     H23730   7.164   7.588  11.128  0.4761  1.7685 -0.4487
  176MOL0     H23731   7.188   7.627  11.296 -1.2959  2.3587  2.9893
  176MOL0     H23732   7.041   7.833  11.276  0.2621 -0.3241  1.0688
  176MOL0     H23733   7.026   7.805  11.103 -1.4703 -1.7855  1.2686
  176MOL0     H23734   7.304   7.830  11.238  0.8597 -3.0200 -0.6169
  176MOL0     H23735   7.250   7.830  11.071 -1.6959  1.2257 -0.0220
  176MOL0     H23736   7.235   8.076  11.251  1.6257  1.4941 -0.7213
  176MOL0     H23737   7.091   8.038  11.152  0.5423  1.1563 -0.2341
  176MOL0     H23738   7.250   7.989  10.962 -0.8953 -2.0140  2.5302
  176MOL0     H23739   7.220   8.157  11.013 -2.5171 -1.5473 -0.0051
  176MOL0     H23740   6.695   7.171  11.431 -0.1175 -1.3421  0.4530
  176MOL0     H23741   6.519   7.010  11.395  2.0809 -1.4484 -1.2419
  176MOL0     H23742   5.967   7.052  11.087 -1.9741  0.2620  3.3415
  176MOL0     H23743   5.809   6.864  11.049  0.5016 -0.4085 -1.2738
  176MOL0     H23744   4.190   6.605  11.319  2.1238 -2.3988 -0.9332
  176MOL0     H23745   3.962   6.501  11.334  2.5118  3.1426 -1.7540
  176MOL0     H23746   3.705   6.173  11.634 -1.2023 -2.8351  0.1085
  176MOL0     H23747   3.507   6.052  11.643  0.5262 -1.7261 -1.1877
  176MOL0     H23748   3.310   5.954  11.633 -2.8493  2.8209 -1.1488
  176MOL0     H23749   3.376   5.834  11.523  1.3361  0.6428  3.3144
  176MOL0     H23750   3.155   5.786  11.580 -1.1121 -0.8149  0.2106
  176MOL0     H23751   3.175   5.819  11.406 -0.3656  1.3935 -0.2413
  176MOL0     H23752   3.029   6.036  11.453 -0.3831  1.6123  1.7301
  176MOL0     H23753   3.084   6.018  11.624 -1.3526 -2.8200  2.3068
  176MOL0     H23754   2.947   5.805  11.632 -0.2369 -0.4938  0.7714
  176MOL0     H23755   2.863   5.971  11.628  1.0019 -0.1387  0.8706
  176MOL0     H23756   2.773   5.760  11.265  0.2593 -0.9177  0.8401
  176MOL0     H23757   3.441   6.142  11.229  1.0463  0.1563  0.3350
  176MOL0     H23758   3.682   6.257  11.116 -0.2713  2.0852 -1.3375
  176MOL0     H23759   3.534   6.347  11.145 -0.8428 -0.8073  1.1053
  176MOL0     H23760   3.682   6.410  11.206 -0.6488  1.2924 -2.2443
  177MOL0     O23761   4.435   3.087   2.190 -0.3788 -0.4496 -0.3980
  177MOL0     C23762   4.437   2.965   2.212  0.1389 -0.7843 -0.1788
  177MOL0     O23763   4.553   2.898   2.254  0.1516  0.0252 -0.0879
  177MOL0     C23764   4.670   2.969   2.275  0.0324  0.4614  0.4591
  177MOL0     C23765   4.758   3.031   2.184 -0.1810 -0.2349 -0.3980
  177MOL0     C23766   4.871   3.102   2.232 -0.8975  0.2250 -0.1814
  177MOL0     C23767   4.900   3.114   2.369  0.2599  0.5668  0.6090
  177MOL0     O23768   5.012   3.176   2.398 -0.1447 -0.1098 -0.8616
  177MOL0     C23769   5.015   3.270   2.510  0.5036  0.1181 -0.0968
  177MOL0     C23770   5.009   3.406   2.463 -0.6654 -0.9306  1.1619
  177MOL0     C23771   4.884   3.439   2.384  0.2897  0.2246  0.3999
  177MOL0     C23772   4.765   3.423   2.474 -0.1126  0.1735  0.1580
  177MOL0     C23773   4.651   3.526   2.454  0.7658  0.0419 -0.4785
  177MOL0     C23774   4.549   3.491   2.348  0.2103 -0.4401  0.6043
  177MOL0     C23775   4.615   3.477   2.206  0.1583 -0.0517  1.0653
  177MOL0     C23776   4.509   3.464   2.092 -0.0845 -0.0634 -0.2619
  177MOL0     N23777   4.562   3.409   1.962 -0.7140  0.2941  0.0611
  177MOL0     C23778   4.517   3.296   1.890  0.2376 -1.5246 -0.7310
  177MOL0     C23779   4.610   3.272   1.801 -0.5741  0.1775  0.7098
  177MOL0     C23780   4.606   3.168   1.693 -0.1421  0.1683 -0.3020
  177MOL0     C23781   4.643   3.037   1.747 -0.3271  0.8603 -0.0535
  177MOL0     C23782   4.536   2.992   1.852  0.4186  0.5103  0.1740
  177MOL0     C23783   4.554   2.843   1.867  0.1140  0.3768 -0.5976
  177MOL0     O23784   4.497   2.756   1.765  0.9336 -0.3885 -0.1442
  177MOL0     C23785   4.366   2.745   1.780 -0.4581  0.4452 -0.3163
  177MOL0     C23786   4.277   2.775   1.678  0.6603  0.8919  0.4380
  177MOL0     C23787   4.137   2.752   1.697 -0.1465 -0.1369 -0.2771
  177MOL0     C23788   4.092   2.686   1.806  0.7453  1.0074  0.3941
  177MOL0     C23789   3.947   2.663   1.823  0.3163  0.0478 -0.6420
  177MOL0     O23790   3.900   2.559   1.898  0.3312  0.6448 -1.5707
  177MOL0     C23791   3.762   2.543   1.911 -0.0003 -0.0724 -1.0099
  177MOL0     C23792   3.694   2.561   2.032  0.8002 -0.7603 -0.5315
  177MOL0     C23793   3.557   2.545   2.051 -0.4256  0.3513  1.1237
  177MOL0     C23794   3.476   2.503   1.943  0.9228  0.3037  0.2709
  177MOL0     O23795   3.341   2.496   1.964 -0.1643  0.3021  0.0144
  177MOL0     C23796   3.298   2.364   1.975 -0.2628  0.6575 -0.1686
  177MOL0     C23797   3.144   2.337   1.992 -0.0354  0.5316 -0.7451
  177MOL0     C23798   3.063   2.373   1.857 -0.6305 -0.2307 -0.2284
  177MOL0     C23799   2.911   2.369   1.872 -0.2887  0.2273 -0.4276
  177MOL0     C23800   2.847   2.506   1.901  0.1319 -0.6843  0.8143
  177MOL0     C23801   2.885   2.564   2.042 -0.8025  0.9995 -0.6221
  177MOL0     C23802   2.783   2.665   2.087 -0.2233 -0.6866  1.0752
  177MOL0     C23803   2.793   2.710   2.228  0.4106  0.0537 -0.9023
  177MOL0    Cl23804   2.691   2.854   2.267  0.1565  0.1536 -0.1954
  177MOL0     C23805   3.547   2.464   1.822  0.5761 -1.2231 -0.6798
  177MOL0     C23806   3.685   2.488   1.808 -0.1811 -0.1378 -1.0172
  177MOL0     O23807   3.879   2.748   1.768  0.1496 -0.2884 -0.5170
  177MOL0     C23808   4.182   2.641   1.901 -0.4365  0.0872  0.2160
  177MOL0     C23809   4.311   2.681   1.893 -0.0558  0.0777  0.6165
  177MOL0     N23810   4.703   3.367   1.799 -0.4210  0.1568 -0.7297
  177MOL0     N23811   4.681   3.450   1.901  0.8706  0.5559 -0.0041
  177MOL0     C23812   4.818   3.042   2.459 -0.1587  0.0323 -0.3891
  177MOL0     C23813   4.706   2.981   2.414 -0.1397 -0.6692  0.9835
  177MOL0     C23814   4.313   2.877   2.231 -0.4979 -0.7216  0.3006
  177MOL0     C23815   4.330   2.752   2.304 -0.0134 -0.2819  0.4817
  177MOL0     C23816   4.228   2.666   2.308  0.5130  0.0262  0.1037
  177MOL0     C23817   4.107   2.683   2.240  0.6295 -0.1536  0.6121
  177MOL0     O23818   3.998   2.598   2.244 -0.1270  0.6730 -0.1555
  177MOL0     C23819   3.972   2.532   2.363 -0.4521  0.7803 -0.2773
  177MOL0     C23820   3.832   2.466   2.378  0.4307  0.0629  0.4074
  177MOL0     C23821   3.813   2.404   2.515 -0.0916  0.0075 -0.1670
  177MOL0     C23822   3.718   2.294   2.514  0.7487  0.7374  0.9079
  177MOL0     C23823   3.588   2.323   2.434  0.3739  1.5324  0.1605
  177MOL0     C23824   3.484   2.326   2.369 -0.0626  0.9055 -0.1639
  177MOL0     C23825   4.085   2.795   2.176 -0.4918 -0.7817 -0.5552
  177MOL0     C23826   4.185   2.898   2.169  0.2704 -0.6472  0.1638
  177MOL0     C23827   4.141   3.018   2.080 -0.4938  0.5436  0.1636
  177MOL0     H23828   4.739   3.024   2.078 -0.8615  1.3830 -0.4216
  177MOL0     H23829   4.936   3.139   2.154  0.9400 -3.1578 -0.3969
  177MOL0     H23830   4.931   3.263   2.579 -0.5598 -1.5644 -1.4828
  177MOL0     H23831   5.104   3.244   2.568  0.4365  0.6885  0.2669
  177MOL0     H23832   5.103   3.417   2.409  0.3151 -2.6896  2.4200
  177MOL0     H23833   5.012   3.462   2.557  2.1476 -0.1317  0.6643
  177MOL0     H23834   4.877   3.376   2.295 -0.8225 -0.6400  1.0772
  177MOL0     H23835   4.888   3.540   2.344  2.8323 -0.6669 -1.9207
  177MOL0     H23836   4.724   3.322   2.473 -2.3304  0.9982  1.5030
  177MOL0     H23837   4.794   3.438   2.578  1.9684 -1.1913 -0.1728
  177MOL0     H23838   4.594   3.544   2.546  0.4503  2.3436 -1.0393
  177MOL0     H23839   4.698   3.624   2.443  0.5340 -0.0457 -2.8554
  177MOL0     H23840   4.500   3.395   2.368 -0.6937 -1.1660 -3.8567
  177MOL0     H23841   4.469   3.564   2.333  1.1993  0.4205 -0.6490
  177MOL0     H23842   4.678   3.388   2.213  0.5661  0.0046 -1.2100
  177MOL0     H23843   4.672   3.569   2.190  1.2971 -1.1190 -1.6088
  177MOL0     H23844   4.426   3.400   2.124 -1.5805  2.3086  0.8248
  177MOL0     H23845   4.473   3.566   2.078  0.2812  0.2120  0.7650
  177MOL0     H23846   4.427   3.235   1.896  0.8885 -2.3687  1.2687
  177MOL0     H23847   4.509   3.155   1.646  0.7938 -0.8373 -2.0520
  177MOL0     H23848   4.675   3.201   1.615  0.9483  2.3667  1.4528
  177MOL0     H23849   4.659   2.969   1.662  0.4328  0.7755  0.1530
  177MOL0     H23850   4.742   3.050   1.791 -0.6668 -2.8138  2.2050
  177MOL0     H23851   4.433   3.015   1.823  0.7015  0.2957 -1.0586
  177MOL0     H23852   4.560   3.036   1.948 -0.5657 -1.1780  1.2542
  177MOL0     H23853   4.504   2.824   1.963  0.8332 -1.7041 -0.5651
  177MOL0     H23854   4.656   2.808   1.884 -0.2960 -0.6791 -0.2179
  177MOL0     H23855   4.314   2.804   1.580 -0.3459 -1.5989 -0.7687
  177MOL0     H23856   4.054   2.801   1.647 -1.3150  0.0116  1.7072
  177MOL0     H23857   3.739   2.603   2.121  0.0322  1.0303 -0.9587
  177MOL0     H23858   3.512   2.581   2.143  2.7176  0.8342  2.5831
  177MOL0     H23859   3.316   2.314   1.879 -5.2973 -0.9898 -0.5545
  177MOL0     H23860   3.344   2.305   2.055 -0.0514 -1.1515 -1.5395
  177MOL0     H23861   3.132   2.232   2.021  1.1391 -0.0002 -2.0637
  177MOL0     H23862   3.111   2.393   2.079  3.9961  0.6574  0.9290
  177MOL0     H23863   3.089   2.475   1.830  0.3078  0.0001  1.4092
  177MOL0     H23864   3.095   2.307   1.776  1.4040  1.7342 -1.1262
  177MOL0     H23865   2.887   2.296   1.950  0.0455  1.5445  0.9655
  177MOL0     H23866   2.881   2.330   1.774 -2.2830 -1.0610  0.6292
  177MOL0     H23867   2.738   2.504   1.898  0.1106 -1.1592 -2.3951
  177MOL0     H23868   2.883   2.570   1.819  0.3175  0.1294  1.5202
  177MOL0     H23869   2.888   2.485   2.118 -3.6539  1.0999 -0.2803
  177MOL0     H23870   2.981   2.616   2.035 -1.1199  1.3820 -2.8975
  177MOL0     H23871   2.684   2.618   2.082  0.4854 -2.0999 -0.7914
  177MOL0     H23872   2.779   2.755   2.026  1.6344  0.2083  2.1924
  177MOL0     H23873   2.752   2.631   2.291 -0.7237 -0.0119 -1.6900
  177MOL0     H23874   2.899   2.723   2.249  0.4984 -2.9416  1.1528
  177MOL0     H23875   3.501   2.429   1.730 -0.3326  0.2271 -0.8098
  177MOL0     H23876   3.747   2.464   1.722  2.4708 -3.6939  1.5580
  177MOL0     H23877   4.148   2.592   1.991 -2.0578  1.1185  0.1985
  177MOL0     H23878   4.371   2.639   1.973  0.3130 -4.6116 -1.7842
  177MOL0     H23879   4.838   3.022   2.564 -1.0524 -2.8711 -0.6804
  177MOL0     H23880   4.652   2.920   2.486  1.5491 -0.9149  2.1135
  177MOL0     H23881   4.419   2.717   2.355 -0.2440 -3.9025 -1.2383
  177MOL0     H23882   4.247   2.578   2.369  2.2850 -1.0226 -1.8383
  177MOL0     H23883   3.985   2.605   2.443 -2.2479 -0.6678  1.4321
  177MOL0     H23884   4.036   2.445   2.380  0.0163  1.4820  1.8414
  177MOL0     H23885   3.809   2.397   2.296 -0.5690  0.8084  0.0414
  177MOL0     H23886   3.762   2.540   2.340  0.9139  1.1548  1.5817
  177MOL0     H23887   3.773   2.484   2.577 -0.6868  0.4158 -1.0470
  177MOL0     H23888   3.911   2.370   2.548  0.2806  1.5805  0.4118
  177MOL0     H23889   3.771   2.209   2.469 -0.0361  0.3237  0.7508
  177MOL0     H23890   3.694   2.273   2.619  0.4882  3.1666  1.3863
  177MOL0     H23891   3.385   2.338   2.329 -0.4858  0.0837  0.6074
  177MOL0     H23892   3.999   2.809   2.111  0.0056  1.7725 -0.7468
  177MOL0     H23893   4.071   3.083   2.132  0.8511  0.2763  2.4225
  177MOL0     H23894   4.227   3.080   2.054 -0.4517  1.5838  2.5752
  177MOL0     H23895   4.091   2.976   1.992 -0.9167  1.3737 -0.0023
  178MOL0     O23896  10.080  10.410   9.666 -0.4058  0.1081  0.3550
  178MOL0     C23897  10.043  10.420   9.780 -0.6480 -0.7857 -0.7221
  178MOL0     O23898  10.021  10.542   9.834 -0.2510  0.2012 -0.2299
  178MOL0     C23899  10.073  10.655   9.777  0.1405  0.0178  0.0742
  178MOL0     C23900   9.981  10.760   9.750  0.1239 -0.4221 -1.0056
  178MOL0     C23901  10.020  10.881   9.681 -0.5893 -0.6165  0.0072
  178MOL0     C23902  10.157  10.886   9.640  0.2726  0.1085 -0.1720
  178MOL0     O23903  10.205  10.988   9.554  0.0090  0.0973  0.3648
  178MOL0     C23904  10.107  11.073   9.483 -0.5051  0.0819 -0.3712
  178MOL0     C23905  10.173  11.123   9.359 -0.8874 -0.1054 -0.5639
  178MOL0     C23906  10.268  11.246   9.385  0.8663  0.3618  0.0835
  178MOL0     C23907  10.318  11.292   9.248  0.3836 -0.0308 -0.4857
  178MOL0     C23908  10.422  11.401   9.266  0.2669  0.0766  1.0092
  178MOL0     C23909  10.364  11.542   9.302  0.4561  1.3439  0.3383
  178MOL0     C23910  10.478  11.615   9.375  0.3839  0.0837  0.4462
  178MOL0     C23911  10.537  11.566   9.512  0.0029  0.3603 -0.3499
  178MOL0     N23912  10.652  11.645   9.561  0.1019 -0.1328  0.2900
  178MOL0     C23913  10.778  11.639   9.514  0.0170 -0.7890  0.4838
  178MOL0     C23914  10.846  11.730   9.589 -0.5768 -0.1098 -0.1424
  178MOL0     C23915  10.997  11.732   9.552  1.3477  0.5916  0.3771
  178MOL0     C23916  11.084  11.647   9.654  0.5356  0.7270 -0.0718
  178MOL0     C23917  11.095  11.509   9.599 -0.4288  0.2275  0.3097
  178MOL0     C23918  11.019  11.405   9.694 -0.7728 -0.0651 -0.0780
  178MOL0     O23919  11.038  11.274   9.654  0.2640 -0.3240  0.8661
  178MOL0     C23920  10.986  11.169   9.723  0.0756 -0.4722 -0.2809
  178MOL0     C23921  10.916  11.180   9.842 -0.2288 -0.2011 -0.0545
  178MOL0     C23922  10.862  11.067   9.904 -0.9086 -0.8992  0.2565
  178MOL0     C23923  10.882  10.938   9.848 -0.4893  0.6186  0.0421
  178MOL0     C23924  10.828  10.821   9.916  0.4750  0.6745 -0.3550
  178MOL0     O23925  10.842  10.699   9.848 -0.1174 -1.0274  0.2932
  178MOL0     C23926  10.754  10.604   9.880 -0.2941 -0.0853  0.1911
  178MOL0     C23927  10.639  10.589   9.806 -0.1928  0.6486  0.7751
  178MOL0     C23928  10.555  10.479   9.834  0.8547 -0.4469  0.3526
  178MOL0     C23929  10.580  10.394   9.940 -1.2350 -0.0427  0.6473
  178MOL0     O23930  10.502  10.291   9.969  0.2279 -0.5563  0.2272
  178MOL0     C23931  10.392  10.253   9.883  1.3402 -0.5429  0.1413
  178MOL0     C23932  10.445  10.167   9.769  0.0510  0.3697  1.5469
  178MOL0     C23933  10.332  10.106   9.698  0.3367 -0.6865  0.8087
  178MOL0     C23934  10.361  10.068   9.547  0.1473  0.6704  0.4526
  178MOL0     C23935  10.238  10.007   9.487 -0.3251  0.7137  0.2427
  178MOL0     C23936  10.260   9.932   9.345 -0.0084 -0.2564  0.7757
  178MOL0     C23937  10.129   9.859   9.301 -0.3050  0.8918  0.4079
  178MOL0     C23938  10.149   9.789   9.161  0.2499  0.9050  0.3454
  178MOL0    Cl23939   9.996   9.765   9.081  0.1277 -0.0436 -0.2514
  178MOL0     C23940  10.699  10.401  10.009 -0.2595 -0.0017 -0.5502
  178MOL0     C23941  10.787  10.513   9.986 -0.3528 -0.4077 -0.2226
  178MOL0     O23942  10.767  10.837  10.023  0.0828  0.1937  0.3935
  178MOL0     C23943  10.956  10.927   9.723 -0.7445  0.1089 -1.1321
  178MOL0     C23944  11.002  11.046   9.673 -0.2141 -0.0026  0.1175
  178MOL0     N23945  10.761  11.791   9.685 -0.7456  0.0104  0.1597
  178MOL0     N23946  10.644  11.745   9.658  0.0563 -1.0151 -0.4678
  178MOL0     C23947  10.246  10.778   9.665  1.1883  0.6199 -0.1404
  178MOL0     C23948  10.207  10.667   9.744 -0.2427 -0.4386 -2.1417
  178MOL0     C23949  10.022  10.292   9.865 -1.1889  0.0086 -0.2909
  178MOL0     C23950  10.030  10.311  10.005  0.4835  1.4273  0.0740
  178MOL0     C23951  10.011  10.200  10.099 -0.3040 -0.3940  0.5250
  178MOL0     C23952   9.978  10.078  10.045 -0.3271 -0.9445  1.3059
  178MOL0     O23953   9.956   9.980  10.130 -0.4647 -0.4527  0.1241
  178MOL0     C23954   9.925   9.848  10.078 -0.1785  0.2521 -0.7767
  178MOL0     C23955   9.942   9.752  10.191 -1.2902 -0.4507 -0.6814
  178MOL0     C23956   9.852   9.775  10.319 -0.4925  0.1355 -0.4452
  178MOL0     C23957   9.827   9.641  10.402 -0.3519  0.9206 -0.2776
  178MOL0     C23958   9.717   9.653  10.496  0.2060  0.2576  0.3280
  178MOL0     C23959   9.631   9.653  10.581  0.2071  0.3719 -0.4129
  178MOL0     C23960   9.951  10.062   9.905  0.4433 -0.3604 -0.4405
  178MOL0     C23961   9.980  10.165   9.816 -0.5337  0.5792 -0.2641
  178MOL0     C23962   9.966  10.139   9.663  0.3684 -0.1190 -0.0813
  178MOL0     H23963   9.880  10.761   9.790 -0.0998 -0.9732 -1.5306
  178MOL0     H23964   9.944  10.956   9.662 -3.0160 -2.7052  0.9119
  178MOL0     H23965  10.020  11.020   9.443 -3.8708  1.9032  3.6973
  178MOL0     H23966  10.081  11.153   9.554 -2.3747 -0.1526 -0.7584
  178MOL0     H23967  10.100  11.163   9.288  0.5307  0.9422 -1.4821
  178MOL0     H23968  10.237  11.041   9.327  1.0994 -0.0911  2.8779
  178MOL0     H23969  10.351  11.227   9.454 -0.6751  1.0774  2.2238
  178MOL0     H23970  10.203  11.318   9.435 -0.0729  1.2677 -2.3126
  178MOL0     H23971  10.364  11.204   9.202  1.5690 -1.4337  2.9714
  178MOL0     H23972  10.234  11.319   9.184  0.6747 -0.8063 -1.2204
  178MOL0     H23973  10.500  11.365   9.333  0.1177 -1.7073  0.2752
  178MOL0     H23974  10.466  11.425   9.168  2.1129  2.0011  2.2433
  178MOL0     H23975  10.327  11.600   9.217 -1.5111  1.0415  0.9153
  178MOL0     H23976  10.274  11.525   9.363 -0.7414  0.9409 -1.4701
  178MOL0     H23977  10.441  11.717   9.389 -0.0513 -0.1336  0.8995
  178MOL0     H23978  10.566  11.622   9.311  1.5256  0.7545  2.0386
  178MOL0     H23979  10.455  11.570   9.585  0.8388 -3.8868  1.0789
  178MOL0     H23980  10.559  11.459   9.514  0.9232  0.3386  5.8847
  178MOL0     H23981  10.820  11.563   9.449 -3.2589 -2.0443 -0.3850
  178MOL0     H23982  11.017  11.700   9.450  2.2333  0.7930  0.4828
  178MOL0     H23983  11.016  11.839   9.564 -0.0844  0.6680  2.7639
  178MOL0     H23984  11.185  11.687   9.670 -0.2324  2.2757  1.1514
  178MOL0     H23985  11.041  11.654   9.755  2.4523 -1.8155  1.0466
  178MOL0     H23986  11.198  11.472   9.589 -1.4311 -2.1790 -2.4285
  178MOL0     H23987  11.051  11.497   9.500 -0.8409  1.1866  0.3746
  178MOL0     H23988  10.911  11.423   9.685 -0.7377 -1.0215 -3.9166
  178MOL0     H23989  11.065  11.407   9.794  0.6143  0.9433 -0.7076
  178MOL0     H23990  10.906  11.275   9.894  0.8635 -1.1868  2.0691
  178MOL0     H23991  10.818  11.085  10.002  0.4083  0.0983  0.6952
  178MOL0     H23992  10.620  10.645   9.715 -0.0446 -1.9156 -0.9607
  178MOL0     H23993  10.473  10.464   9.765  0.6809  0.3717  0.3801
  178MOL0     H23994  10.330  10.191   9.949 -0.4742  0.8280 -0.2186
  178MOL0     H23995  10.338  10.339   9.842 -0.0709 -1.6904 -0.4923
  178MOL0     H23996  10.493  10.237   9.699 -0.3839  0.8215  1.6891
  178MOL0     H23997  10.520  10.095   9.803 -0.6654 -2.6989 -2.6369
  178MOL0     H23998  10.301  10.024   9.764  3.4455 -0.5391  2.6011
  178MOL0     H23999  10.260  10.189   9.695  0.9616  0.1442  4.2713
  178MOL0     H24000  10.439   9.991   9.547 -1.4820 -1.0643 -0.0135
  178MOL0     H24001  10.395  10.154   9.489  0.3023  1.0996  1.1707
  178MOL0     H24002  10.165  10.087   9.468  0.5757  1.2068 -1.3917
  178MOL0     H24003  10.190   9.935   9.554 -2.4825 -1.0119 -2.8499
  178MOL0     H24004  10.290  10.003   9.267 -1.1260  0.1755  0.7201
  178MOL0     H24005  10.346   9.864   9.350  0.4356 -0.1169 -2.6469
  178MOL0     H24006  10.054   9.940   9.296 -2.1704 -0.7699  0.3055
  178MOL0     H24007  10.100   9.779   9.369  0.5671  2.7269  3.0663
  178MOL0     H24008  10.220   9.842   9.096  1.6796 -1.9815 -0.6200
  178MOL0     H24009  10.193   9.690   9.172 -2.3378 -0.7932 -3.0068
  178MOL0     H24010  10.736  10.331  10.083 -1.8026  2.0588  2.3580
  178MOL0     H24011  10.875  10.534  10.045 -1.8156 -1.2254  2.3885
  178MOL0     H24012  10.968  10.832   9.671  0.6118 -0.2915 -0.1344
  178MOL0     H24013  11.075  11.041   9.593  0.8616  3.9454  0.6135
  178MOL0     H24014  10.347  10.782   9.625  1.2191 -2.5374 -0.6236
  178MOL0     H24015  10.268  10.583   9.777 -1.4308 -0.6982 -0.4477
  178MOL0     H24016  10.054  10.404  10.055  3.8321  0.9033 -0.3725
  178MOL0     H24017  10.031  10.232  10.201  3.0906  1.7632 -0.6211
  178MOL0     H24018   9.996   9.811  10.005 -0.0518 -2.6898  0.6712
  178MOL0     H24019   9.820   9.841  10.046 -0.4132 -0.8142  0.1769
  178MOL0     H24020  10.047   9.754  10.221 -2.1083 -2.9755  2.9634
  178MOL0     H24021   9.919   9.651  10.156 -0.8003 -1.0173  0.5656
  178MOL0     H24022   9.760   9.820  10.281 -0.3297  1.8770  1.0949
  178MOL0     H24023   9.903   9.845  10.386 -0.2903  0.1169 -0.5800
  178MOL0     H24024   9.804   9.561  10.332  1.6132 -0.3711  0.4836
  178MOL0     H24025   9.916   9.609  10.458 -1.5303 -1.9529  0.1286
  178MOL0     H24026   9.561   9.637  10.661  0.9154  0.1119  0.1661
  178MOL0     H24027   9.926   9.966   9.861  0.7428  0.8549 -3.4949
  178MOL0     H24028   9.885  10.205   9.632 -0.5573  0.3495  3.0027
  178MOL0     H24029  10.062  10.159   9.615  1.5447 -0.7541  1.8771
  178MOL0     H24030   9.931  10.039   9.635  0.1556  0.4240 -1.8333
  179MOL0     O24031   2.098   8.903   4.645  0.3736 -0.3158  0.1181
  179MOL0     C24032   2.146   8.961   4.742  0.1519  0.1187 -0.4986
  179MOL0     O24033   2.280   8.993   4.753  0.6277 -0.0840  0.4831
  179MOL0     C24034   2.374   8.992   4.647 -0.4140  0.1640 -0.0008
  179MOL0     C24035   2.345   9.032   4.517  0.2781 -0.8115 -0.0300
  179MOL0     C24036   2.454   9.042   4.420 -0.4877  0.6759 -0.9251
  179MOL0     C24037   2.584   9.028   4.451  0.7684 -0.1904 -0.2265
  179MOL0     O24038   2.686   9.048   4.360 -0.3238 -0.4621 -0.3457
  179MOL0     C24039   2.665   9.108   4.228 -0.3581 -0.4415 -0.3994
  179MOL0     C24040   2.781   9.078   4.137  0.5333  0.3528  0.0086
  179MOL0     C24041   2.898   9.170   4.159  0.2120 -0.2740 -0.0278
  179MOL0     C24042   3.029   9.110   4.109 -0.5548 -0.3377 -0.2905
  179MOL0     C24043   3.146   9.209   4.110 -0.0348  0.4923  1.5949
  179MOL0     C24044   3.175   9.269   4.247 -1.0821  0.8732  0.1200
  179MOL0     C24045   3.288   9.377   4.254  0.1675  0.4334 -0.0440
  179MOL0     C24046   3.251   9.519   4.216 -1.0801 -0.0717 -0.5558
  179MOL0     N24047   3.347   9.627   4.248 -0.1788 -0.5491  0.5010
  179MOL0     C24048   3.458   9.663   4.175  0.3475  0.1559  0.8234
  179MOL0     C24049   3.496   9.779   4.220  0.2100  0.5009  0.1618
  179MOL0     C24050   3.620   9.848   4.174 -0.7978  0.2352  0.0405
  179MOL0     C24051   3.586   9.982   4.113 -0.1605 -0.4007 -0.6245
  179MOL0     C24052   3.707  10.064   4.055 -0.9999  0.8105 -0.5547
  179MOL0     C24053   3.731  10.019   3.906  0.0091 -0.5264 -0.7504
  179MOL0     O24054   3.811   9.908   3.877 -0.1204 -0.9000 -0.3441
  179MOL0     C24055   3.901   9.922   3.781 -0.2110  0.0221  0.3452
  179MOL0     C24056   4.004  10.017   3.785 -0.4531 -0.5331 -0.0806
  179MOL0     C24057   4.089  10.031   3.672 -0.5751  0.2114 -0.0651
  179MOL0     C24058   4.062   9.962   3.550 -0.1294 -0.5332  0.1012
  179MOL0     C24059   4.145   9.984   3.433 -0.2972  0.1828 -0.5650
  179MOL0     O24060   4.218  10.102   3.447  0.0937 -0.3477  0.2236
  179MOL0     C24061   4.310  10.149   3.347  0.0262  0.9148 -0.8893
  179MOL0     C24062   4.336  10.101   3.213 -0.3620  0.4287 -0.5086
  179MOL0     C24063   4.447  10.150   3.142  0.8512 -0.0230 -0.3481
  179MOL0     C24064   4.519  10.258   3.194 -0.6043  0.4720 -0.0335
  179MOL0     O24065   4.633  10.305   3.131 -0.1050  0.3414 -0.7633
  179MOL0     C24066   4.701  10.217   3.035  0.5996 -0.9546  0.4773
  179MOL0     C24067   4.832  10.281   3.000  0.0725  0.0228  0.0495
  179MOL0     C24068   4.950  10.254   3.103  0.2101 -0.0941  0.3350
  179MOL0     C24069   5.064  10.347   3.073  0.1274  0.2581  0.1215
  179MOL0     C24070   5.175  10.338   3.176  0.4237 -1.0362 -0.3905
  179MOL0     C24071   5.254  10.205   3.184 -0.6976 -0.4123  0.0821
  179MOL0     C24072   5.327  10.164   3.056  0.2122  0.2364  0.0030
  179MOL0     C24073   5.362  10.010   3.058 -0.1819  0.3340 -0.1032
  179MOL0    Cl24074   5.522   9.979   2.978  0.2343 -0.0889 -0.0392
  179MOL0     C24075   4.482  10.310   3.309  0.2492 -0.0712 -0.0612
  179MOL0     C24076   4.381  10.260   3.386  1.1124 -0.3973  0.1562
  179MOL0     O24077   4.155   9.898   3.344 -0.1132 -0.2592  0.6655
  179MOL0     C24078   3.955   9.877   3.544  0.1414 -0.3128  0.1173
  179MOL0     C24079   3.880   9.863   3.662  0.0836 -0.6347  0.3140
  179MOL0     N24080   3.400   9.820   4.311 -0.6944 -0.4855 -0.7284
  179MOL0     N24081   3.307   9.731   4.325  0.4624 -1.2406 -0.3519
  179MOL0     C24082   2.602   9.002   4.584 -0.6740 -1.0802  0.0347
  179MOL0     C24083   2.511   8.983   4.684 -0.0231 -0.5298 -0.6712
  179MOL0     C24084   2.047   9.011   4.850  0.6066  0.1952  0.7565
  179MOL0     C24085   2.108   9.083   4.959 -0.1085 -0.4624 -0.3960
  179MOL0     C24086   2.037   9.139   5.065  0.2983  0.5531  0.4580
  179MOL0     C24087   1.901   9.111   5.070 -0.9393 -0.1267  0.4488
  179MOL0     O24088   1.834   9.136   5.187  0.1284 -0.7270  0.4320
  179MOL0     C24089   1.731   9.050   5.223 -0.5038  0.5573 -1.0105
  179MOL0     C24090   1.726   9.040   5.373  0.4299 -0.2970 -0.0993
  179MOL0     C24091   1.748   9.164   5.452 -0.5945  0.7337 -0.2084
  179MOL0     C24092   1.668   9.288   5.416  0.4596  1.0448 -0.9247
  179MOL0     C24093   1.522   9.256   5.432  0.5928 -0.0919 -0.1435
  179MOL0     C24094   1.406   9.220   5.444  0.1097  0.1785  0.0966
  179MOL0     C24095   1.841   9.035   4.970 -0.1224  0.5205  0.2493
  179MOL0     C24096   1.903   8.980   4.858 -0.4648  0.2683  0.7783
  179MOL0     C24097   1.827   8.899   4.758  0.2042 -0.4467  0.0724
  179MOL0     H24098   2.246   9.064   4.489  0.4475 -0.8660 -0.7061
  179MOL0     H24099   2.416   9.059   4.319 -0.7325 -0.1100 -0.9780
  179MOL0     H24100   2.576   9.056   4.192 -1.1708 -0.0058  0.9051
  179MOL0     H24101   2.644   9.214   4.239 -0.1870 -0.6325  2.4653
  179MOL0     H24102   2.758   9.102   4.033 -0.4062 -1.5899 -0.2684
  179MOL0     H24103   2.795   8.970   4.147  0.3547  0.1867 -1.3246
  179MOL0     H24104   2.916   9.174   4.267  1.2397 -1.1469 -0.1442
  179MOL0     H24105   2.873   9.266   4.114  2.6661 -1.0017 -3.2976
  179MOL0     H24106   3.050   9.013   4.155 -0.7990 -0.1746  0.1761
  179MOL0     H24107   3.013   9.089   4.003  3.6144 -0.1983 -1.1080
  179MOL0     H24108   3.234   9.152   4.078  0.0182  0.2770  2.1295
  179MOL0     H24109   3.129   9.290   4.038  2.1051 -0.3274  0.0520
  179MOL0     H24110   3.083   9.312   4.287  0.0132  2.5619  0.9565
  179MOL0     H24111   3.199   9.186   4.313 -0.1761  0.4123 -0.7561
  179MOL0     H24112   3.364   9.353   4.179  1.2658  2.6478  0.2774
  179MOL0     H24113   3.342   9.371   4.349 -0.8852  2.0582  0.6979
  179MOL0     H24114   3.218   9.526   4.112 -1.6136  1.1123 -0.3232
  179MOL0     H24115   3.165   9.539   4.280 -1.3043 -0.4013 -0.7512
  179MOL0     H24116   3.514   9.598   4.108 -1.3519 -1.3654  0.8225
  179MOL0     H24117   3.689   9.867   4.256  3.2805 -0.9206 -2.7794
  179MOL0     H24118   3.669   9.784   4.099  0.3970  2.8437 -1.5807
  179MOL0     H24119   3.511   9.965   4.035  0.7046 -1.3048 -1.2795
  179MOL0     H24120   3.534  10.045   4.187 -0.7153 -1.3632 -0.1675
  179MOL0     H24121   3.798  10.055   4.115 -0.3982 -1.3365 -1.6692
  179MOL0     H24122   3.675  10.169   4.056  1.0375  1.5228 -1.7675
  179MOL0     H24123   3.774  10.102   3.850 -1.0392  0.5078 -0.0500
  179MOL0     H24124   3.634   9.992   3.861 -0.3873 -1.8271  0.7697
  179MOL0     H24125   4.014  10.077   3.875  0.1555  2.5697 -2.0959
  179MOL0     H24126   4.160  10.111   3.689 -0.8871  0.3647  0.5468
  179MOL0     H24127   4.278  10.024   3.164  2.0583 -1.3338 -0.7883
  179MOL0     H24128   4.483  10.105   3.050  0.0428 -0.5583 -0.4081
  179MOL0     H24129   4.718  10.117   3.076  0.8458 -0.3259  1.9604
  179MOL0     H24130   4.647  10.229   2.941  2.5099 -0.1117 -0.5484
  179MOL0     H24131   4.858  10.249   2.898 -0.2683 -0.5281  0.1323
  179MOL0     H24132   4.821  10.390   3.002 -0.1347 -0.0097  1.1509
  179MOL0     H24133   4.932  10.279   3.208  0.4482  1.2212  0.0783
  179MOL0     H24134   4.983  10.153   3.075 -1.0028 -0.6853  0.9646
  179MOL0     H24135   5.022  10.448   3.072 -0.2128  0.1156 -0.2455
  179MOL0     H24136   5.098  10.334   2.969 -0.1054  1.5137 -0.1238
  179MOL0     H24137   5.139  10.368   3.275  0.6196 -0.9815 -0.3354
  179MOL0     H24138   5.258  10.402   3.146  1.6223 -1.5252  1.7089
  179MOL0     H24139   5.344  10.220   3.245  0.2151 -1.7493 -0.8969
  179MOL0     H24140   5.201  10.115   3.217  2.4003 -2.1378  0.8005
  179MOL0     H24141   5.426  10.211   3.053  2.6516 -3.9636  2.8505
  179MOL0     H24142   5.269  10.187   2.967 -2.5042 -0.4476  1.4796
  179MOL0     H24143   5.370   9.982   3.164 -0.0092 -0.5816 -0.3534
  179MOL0     H24144   5.279   9.949   3.021  0.3194 -0.0030 -0.6849
  179MOL0     H24145   4.549  10.388   3.342  1.1417 -1.8992  2.8238
  179MOL0     H24146   4.362  10.299   3.485 -1.7218 -0.1784 -0.3827
  179MOL0     H24147   3.924   9.817   3.459  2.7606 -3.1072  0.9847
  179MOL0     H24148   3.786   9.809   3.664 -1.8199  2.4404  2.1223
  179MOL0     H24149   2.702   8.998   4.624 -1.5350  1.8734  2.9336
  179MOL0     H24150   2.554   8.982   4.784 -0.0559 -0.0992 -0.6515
  179MOL0     H24151   2.215   9.101   4.967 -0.0576 -0.6187 -0.7073
  179MOL0     H24152   2.097   9.178   5.147 -0.4855  1.5341  0.5859
  179MOL0     H24153   1.755   8.950   5.185 -0.2833 -0.9290  2.6062
  179MOL0     H24154   1.637   9.088   5.182 -0.0675  2.5023 -0.3304
  179MOL0     H24155   1.798   8.965   5.405  1.6139  0.8302 -0.0295
  179MOL0     H24156   1.624   9.007   5.396 -0.2102  1.8771  0.5288
  179MOL0     H24157   1.852   9.195   5.438 -0.0750 -1.4884 -1.9024
  179MOL0     H24158   1.736   9.137   5.558 -0.8072 -1.3895 -0.7297
  179MOL0     H24159   1.699   9.373   5.476  0.5739 -0.9135  2.0336
  179MOL0     H24160   1.692   9.319   5.314 -3.5731  1.2899 -1.9546
  179MOL0     H24161   1.301   9.215   5.462 -0.7061  1.5263 -3.4501
  179MOL0     H24162   1.736   9.007   4.972  0.5802 -2.6031 -0.8297
  179MOL0     H24163   1.730   8.883   4.806  0.5831 -1.3161  0.5762
  179MOL0     H24164   1.819   8.955   4.664 -1.2039  0.1011  0.4842
  179MOL0     H24165   1.883   8.807   4.741  0.4628 -0.2739 -0.0201
  180MOL0     O24166   2.325   9.420   7.894 -0.0221 -0.0719  0.9244
  180MOL0     C24167   2.365   9.505   7.813  0.2059 -0.4508 -1.1116
  180MOL0     O24168   2.483   9.558   7.816 -0.3656  0.2641 -0.0408
  180MOL0     C24169   2.561   9.522   7.926  0.2039 -0.2529  0.1581
  180MOL0     C24170   2.610   9.615   8.017  0.2323  0.2386  0.5651
  180MOL0     C24171   2.707   9.580   8.120  0.6505 -1.2107 -0.4873
  180MOL0     C24172   2.751   9.448   8.139 -0.9799  0.6170  0.4351
  180MOL0     O24173   2.855   9.413   8.230  0.3210  0.3209 -0.3186
  180MOL0     C24174   2.864   9.495   8.352 -0.2482  0.2453  0.7134
  180MOL0     C24175   2.969   9.606   8.358 -0.7945  0.1946  0.7697
  180MOL0     C24176   3.109   9.536   8.363  0.6339 -0.1293  0.7930
  180MOL0     C24177   3.216   9.654   8.378 -0.0269  0.2686  0.2484
  180MOL0     C24178   3.361   9.598   8.380 -0.4095  0.3255  0.2667
  180MOL0     C24179   3.401   9.526   8.247 -0.2280  1.0492  1.0238
  180MOL0     C24180   3.554   9.506   8.254  0.0137 -1.0014  0.1421
  180MOL0     C24181   3.622   9.630   8.177 -0.2937 -0.0628  0.4136
  180MOL0     N24182   3.761   9.613   8.203 -0.3612 -0.6330  0.4138
  180MOL0     C24183   3.828   9.501   8.167  0.1264 -0.5384  0.1758
  180MOL0     C24184   3.957   9.521   8.202 -0.5592 -0.2340  0.4210
  180MOL0     C24185   4.069   9.423   8.190  0.6013  0.3247  0.1281
  180MOL0     C24186   4.098   9.426   8.042 -0.6135  0.4658 -0.3986
  180MOL0     C24187   4.219   9.318   8.020 -0.4616 -0.3579  0.5380
  180MOL0     C24188   4.244   9.327   7.870  0.5726 -0.6293  0.7788
  180MOL0     O24189   4.357   9.406   7.828 -0.8398  1.0017  0.1801
  180MOL0     C24190   4.484   9.349   7.856  0.3052  0.6315  0.5956
  180MOL0     C24191   4.503   9.216   7.908 -0.1965  0.1673  0.2779
  180MOL0     C24192   4.630   9.159   7.922  0.2570 -0.6207 -1.1452
  180MOL0     C24193   4.738   9.236   7.890 -0.2875 -1.4598 -0.4116
  180MOL0     C24194   4.878   9.186   7.902  0.7099  0.2270 -0.4834
  180MOL0     O24195   4.884   9.080   7.991  0.1084  0.2236 -0.5740
  180MOL0     C24196   5.016   9.038   8.015  0.8457 -0.1841 -0.1904
  180MOL0     C24197   5.081   8.948   7.946  0.4965 -0.2129  0.3925
  180MOL0     C24198   5.216   8.914   7.983  0.0171  0.2684 -0.2940
  180MOL0     C24199   5.276   8.978   8.090 -0.0916  0.4063  0.2620
  180MOL0     O24200   5.398   8.943   8.126 -0.1238 -0.0739 -0.1845
  180MOL0     C24201   5.413   8.847   8.230 -0.7471 -0.5279  0.5365
  180MOL0     C24202   5.551   8.871   8.278 -0.0519  1.1104  0.1076
  180MOL0     C24203   5.653   8.868   8.160  0.6153  0.1559  0.3355
  180MOL0     C24204   5.774   8.792   8.203  0.8392 -0.7095  0.1440
  180MOL0     C24205   5.876   8.746   8.095 -0.7889 -0.7567 -0.0717
  180MOL0     C24206   5.927   8.853   8.000  0.4076  0.0108 -0.4260
  180MOL0     C24207   6.043   8.817   7.914  0.3481 -0.5431 -0.6747
  180MOL0     C24208   6.137   8.930   7.866 -0.2009  0.3264  0.1231
  180MOL0    Cl24209   6.231   8.993   8.003  0.3261  0.1350  0.6201
  180MOL0     C24210   5.199   9.070   8.162 -0.8798  0.0801  0.2553
  180MOL0     C24211   5.075   9.108   8.114 -0.3797  0.1788  0.3678
  180MOL0     O24212   4.970   9.242   7.841 -0.1485  0.0784  0.2164
  180MOL0     C24213   4.720   9.366   7.839 -0.1602  0.2966 -0.8495
  180MOL0     C24214   4.592   9.424   7.820 -0.8320 -0.0663  0.3551
  180MOL0     N24215   3.971   9.653   8.250  0.2066  0.2126 -0.4314
  180MOL0     N24216   3.859   9.708   8.254 -0.0149  0.2070  0.2542
  180MOL0     C24217   2.687   9.348   8.053 -1.0009 -1.5926 -0.3553
  180MOL0     C24218   2.599   9.388   7.949  0.5650 -0.2401  0.0053
  180MOL0     C24219   2.257   9.575   7.732  0.5139  0.8349 -0.1783
  180MOL0     C24220   2.115   9.535   7.745 -1.4788  0.0134  0.3280
  180MOL0     C24221   2.019   9.569   7.653  0.0212 -0.0476  0.8591
  180MOL0     C24222   2.052   9.670   7.559 -0.5477  0.4472  0.3950
  180MOL0     O24223   1.978   9.716   7.459  0.0623  0.2489 -0.3173
  180MOL0     C24224   1.846   9.672   7.441 -0.0123 -1.5473 -1.1146
  180MOL0     C24225   1.851   9.529   7.384  0.2421 -0.1360  0.4484
  180MOL0     C24226   1.721   9.471   7.426  0.0663 -0.1387  0.4599
  180MOL0     C24227   1.690   9.325   7.389 -1.0592 -0.1024 -0.4332
  180MOL0     C24228   1.560   9.286   7.438  1.3387 -0.3137 -0.5071
  180MOL0     C24229   1.441   9.277   7.488 -0.0532 -0.1216  0.8283
  180MOL0     C24230   2.186   9.718   7.548  0.1508  0.0100 -0.4069
  180MOL0     C24231   2.292   9.679   7.638  0.4556  0.7002  0.2604
  180MOL0     C24232   2.429   9.744   7.617 -0.8519 -0.1156 -0.9210
  180MOL0     H24233   2.572   9.716   8.012 -0.4509 -0.0602 -0.5875
  180MOL0     H24234   2.744   9.657   8.187 -4.3600  0.2535  1.0301
  180MOL0     H24235   2.771   9.544   8.380  1.8678  3.0235  3.7218
  180MOL0     H24236   2.883   9.421   8.431 -2.0825 -0.7588  0.2513
  180MOL0     H24237   2.955   9.653   8.456  1.7136 -1.1127  1.8496
  180MOL0     H24238   2.963   9.678   8.276  1.2446  0.8546  1.1437
  180MOL0     H24239   3.126   9.455   8.292 -1.5862 -1.3130  1.5182
  180MOL0     H24240   3.104   9.482   8.458 -0.1910  0.0658  0.8707
  180MOL0     H24241   3.211   9.715   8.288  1.2300  3.0897  1.9610
  180MOL0     H24242   3.210   9.721   8.465 -1.0072 -1.5026  1.6106
  180MOL0     H24243   3.430   9.680   8.401 -1.0281  1.2031 -0.9923
  180MOL0     H24244   3.369   9.515   8.450  0.1869 -1.3238 -1.6776
  180MOL0     H24245   3.348   9.430   8.243  1.4066  0.1580 -1.2844
  180MOL0     H24246   3.365   9.589   8.166  1.3168  2.6062  1.4804
  180MOL0     H24247   3.581   9.412   8.207  2.5671 -0.2190 -0.1217
  180MOL0     H24248   3.590   9.490   8.356 -0.1280 -3.8504 -0.1855
  180MOL0     H24249   3.590   9.630   8.072 -0.9675  0.7908  0.6142
  180MOL0     H24250   3.585   9.727   8.212 -0.2738 -0.1757  0.7534
  180MOL0     H24251   3.780   9.406   8.147  1.7427 -1.6434  1.3984
  180MOL0     H24252   4.160   9.451   8.244  2.3971 -0.6525 -2.2137
  180MOL0     H24253   4.058   9.317   8.216  4.5878 -0.4656 -0.7136
  180MOL0     H24254   4.008   9.391   7.991 -2.1196  3.6646 -0.1702
  180MOL0     H24255   4.126   9.528   8.013  0.7063  0.0133 -0.7605
  180MOL0     H24256   4.194   9.214   8.043 -2.1176 -0.4064 -1.2439
  180MOL0     H24257   4.309   9.332   8.081 -1.1309 -0.0069  1.4816
  180MOL0     H24258   4.158   9.369   7.816  0.5276 -1.1032  0.4743
  180MOL0     H24259   4.257   9.225   7.831 -1.5318 -0.6870  0.1038
  180MOL0     H24260   4.417   9.156   7.936  0.2937 -0.3503  0.7023
  180MOL0     H24261   4.638   9.057   7.957 -2.8489 -0.9541 -1.0787
  180MOL0     H24262   5.021   8.878   7.889  0.2275 -1.9490  2.7000
  180MOL0     H24263   5.258   8.824   7.939  1.1866 -1.2979  3.5902
  180MOL0     H24264   5.359   8.870   8.322 -0.1134 -1.6943  1.2329
  180MOL0     H24265   5.396   8.741   8.207  0.7524  0.0134 -4.0355
  180MOL0     H24266   5.537   8.975   8.308  0.1809  1.8810 -2.2625
  180MOL0     H24267   5.586   8.813   8.364 -1.9040 -2.0226 -1.0827
  180MOL0     H24268   5.599   8.822   8.077  1.2568  0.0839 -0.0504
  180MOL0     H24269   5.689   8.960   8.113 -1.4384 -0.0040 -1.7257
  180MOL0     H24270   5.742   8.702   8.255  0.3621 -0.3632  0.4579
  180MOL0     H24271   5.822   8.868   8.266 -0.8537  0.3220  0.2523
  180MOL0     H24272   5.830   8.665   8.038  0.4144 -1.8555  0.4592
  180MOL0     H24273   5.951   8.683   8.143  0.9840  2.0593  1.0732
  180MOL0     H24274   5.844   8.891   7.940  0.2360  2.7072  1.3504
  180MOL0     H24275   5.961   8.940   8.056 -1.6479 -0.3260  1.5284
  180MOL0     H24276   6.009   8.772   7.821  0.5089 -1.1907 -0.4198
  180MOL0     H24277   6.102   8.738   7.960  1.5800  0.9774  0.5019
  180MOL0     H24278   6.210   8.886   7.798  0.4163  1.9818 -0.3348
  180MOL0     H24279   6.083   9.014   7.822 -0.0634  1.1130  1.3922
  180MOL0     H24280   5.233   9.127   8.248 -0.1340 -0.6993  0.4982
  180MOL0     H24281   5.021   9.179   8.175 -1.7732 -0.2188 -0.3810
  180MOL0     H24282   4.797   9.437   7.811 -1.1699  1.1373 -1.5847
  180MOL0     H24283   4.583   9.523   7.777 -1.8459  0.1304  0.9814
  180MOL0     H24284   2.717   9.244   8.058 -0.9867 -1.5512  0.7200
  180MOL0     H24285   2.562   9.301   7.896 -1.0851 -0.8149  1.9924
  180MOL0     H24286   2.089   9.465   7.824  2.2859 -0.6704  1.1260
  180MOL0     H24287   1.917   9.533   7.658 -0.1945 -0.2979 -2.5073
  180MOL0     H24288   1.809   9.748   7.372  1.0115  0.4980  0.4584
  180MOL0     H24289   1.780   9.690   7.527 -0.4470  1.9780 -2.0449
  180MOL0     H24290   1.929   9.472   7.435 -1.2492 -2.2024  0.5575
  180MOL0     H24291   1.871   9.523   7.277 -1.0280 -2.0957  0.2606
  180MOL0     H24292   1.638   9.528   7.382  0.6882  2.2438  2.1821
  180MOL0     H24293   1.710   9.479   7.534 -0.0536  2.5747  0.2986
  180MOL0     H24294   1.706   9.305   7.283 -0.8673  0.0340 -0.4296
  180MOL0     H24295   1.768   9.270   7.443  0.9483  2.2398 -0.7839
  180MOL0     H24296   1.338   9.261   7.516 -0.6103 -1.8663 -1.8710
  180MOL0     H24297   2.208   9.792   7.472  2.6893 -1.2162 -1.0060
  180MOL0     H24298   2.418   9.815   7.534 -0.3311  0.7476 -0.2603
  180MOL0     H24299   2.475   9.783   7.708  2.5139 -2.9168 -1.1824
  180MOL0     H24300   2.505   9.676   7.576 -2.1640  0.3735 -4.5438
  181MOL0     O24301   8.065   0.984   5.919  0.0023  0.1283  0.2769
  181MOL0     C24302   8.096   0.944   6.030 -0.1141 -0.1828 -0.5653
  181MOL0     O24303   8.223   0.915   6.065  0.3840  0.3175 -0.3804
  181MOL0     C24304   8.326   0.963   5.998  0.9005 -0.2650  1.1697
  181MOL0     C24305   8.428   0.870   5.975  0.6561 -0.4830  1.4409
  181MOL0     C24306   8.532   0.906   5.888  0.8578 -0.8261 -0.9243
  181MOL0     C24307   8.531   1.028   5.823 -0.5437 -0.3231  1.7167
  181MOL0     O24308   8.635   1.065   5.741  1.2696 -0.0597 -0.3122
  181MOL0     C24309   8.615   1.116   5.609 -0.6266  0.5500  0.1741
  181MOL0     C24310   8.723   1.054   5.529  0.4368  0.0659 -0.7269
  181MOL0     C24311   8.746   1.110   5.392  0.4585  0.8814 -0.5434
  181MOL0     C24312   8.886   1.078   5.335 -0.1089 -0.2574 -0.5373
  181MOL0     C24313   8.919   1.113   5.184 -0.2219  0.0712  0.0035
  181MOL0     C24314   8.910   1.263   5.150 -0.6681  0.1894 -0.9793
  181MOL0     C24315   8.984   1.297   5.025  0.1288  0.3575  1.0702
  181MOL0     C24316   9.001   1.453   5.004  1.2018 -0.5577  0.7331
  181MOL0     N24317   8.983   1.496   4.864  0.5662  0.3867 -0.2914
  181MOL0     C24318   8.860   1.510   4.808  0.3473  0.5188  0.3344
  181MOL0     C24319   8.888   1.596   4.709  0.7521 -0.5174  0.4308
  181MOL0     C24320   8.799   1.681   4.615  0.3748 -0.9224 -0.0047
  181MOL0     C24321   8.821   1.665   4.465  1.2297  0.3748  0.6695
  181MOL0     C24322   8.732   1.761   4.389 -0.2044 -0.3203  1.1235
  181MOL0     C24323   8.740   1.768   4.234  0.4702  0.0585  0.0569
  181MOL0     O24324   8.873   1.738   4.198  0.9081  0.4104 -0.0982
  181MOL0     C24325   8.901   1.769   4.064  0.0720 -0.9190 -0.3557
  181MOL0     C24326   8.815   1.761   3.958  1.2001 -0.6132 -0.4057
  181MOL0     C24327   8.851   1.801   3.828  0.3206 -1.0926 -0.0894
  181MOL0     C24328   8.983   1.821   3.800 -0.6951  0.8481  1.1465
  181MOL0     C24329   9.029   1.831   3.655  0.1140 -0.3161  0.8447
  181MOL0     O24330   9.161   1.825   3.632 -0.0841 -0.9803  0.2562
  181MOL0     C24331   9.208   1.849   3.507  0.5774  0.5703 -0.5310
  181MOL0     C24332   9.311   1.773   3.469 -1.2807 -0.3693 -0.1719
  181MOL0     C24333   9.369   1.779   3.340 -0.3897 -0.6705  0.6886
  181MOL0     C24334   9.318   1.868   3.245  0.0702 -0.8368  0.3313
  181MOL0     O24335   9.353   1.890   3.114  0.1639 -0.1281  0.3381
  181MOL0     C24336   9.431   2.006   3.105 -0.3220 -0.0686  1.0471
  181MOL0     C24337   9.503   1.992   2.969 -0.1520  0.0393 -0.0633
  181MOL0     C24338   9.583   2.114   2.924 -0.3041 -0.2437  0.1376
  181MOL0     C24339   9.723   2.140   2.993  0.1806 -0.1236  0.5727
  181MOL0     C24340   9.817   2.246   2.931 -0.5683  0.3368 -0.8673
  181MOL0     C24341   9.928   2.278   3.032  0.0776  0.1213 -0.6084
  181MOL0     C24342  10.038   2.360   2.976 -0.3486  0.8969  0.8291
  181MOL0     C24343  10.172   2.362   3.057  0.6911  0.8650 -0.2148
  181MOL0    Cl24344  10.276   2.493   2.989  0.2289 -0.5268 -0.1434
  181MOL0     C24345   9.220   1.955   3.288 -0.5232 -1.2110 -0.0939
  181MOL0     C24346   9.167   1.950   3.415  0.5599 -0.3485 -0.4397
  181MOL0     O24347   8.945   1.867   3.572  0.9837  0.2798 -0.3057
  181MOL0     C24348   9.081   1.809   3.902  0.1345  1.3834 -0.2658
  181MOL0     C24349   9.035   1.791   4.032 -0.1032 -0.2061 -0.0022
  181MOL0     N24350   9.019   1.622   4.698 -0.1010  0.3752  0.3045
  181MOL0     N24351   9.080   1.567   4.795  0.0375  0.1036 -0.0288
  181MOL0     C24352   8.420   1.121   5.844 -0.6496  0.0576  0.4091
  181MOL0     C24353   8.329   1.090   5.940 -1.0777 -0.0417  0.6152
  181MOL0     C24354   7.980   0.929   6.127  0.8549  0.3610  0.1200
  181MOL0     C24355   8.009   0.875   6.253 -0.7964 -0.4125  0.2508
  181MOL0     C24356   7.905   0.842   6.339 -0.2831 -0.1948  0.2064
  181MOL0     C24357   7.770   0.857   6.310 -0.1782  0.1820 -0.5580
  181MOL0     O24358   7.695   0.806   6.415 -0.1372 -0.3055  0.8444
  181MOL0     C24359   7.554   0.805   6.404 -0.1893 -0.2959  0.2779
  181MOL0     C24360   7.487   0.736   6.520 -0.2363  0.7414  1.2073
  181MOL0     C24361   7.548   0.603   6.548  0.1638  0.2603 -0.8267
  181MOL0     C24362   7.479   0.561   6.677  0.8034  0.2992 -0.2470
  181MOL0     C24363   7.527   0.428   6.726  0.4308  0.0783 -0.3730
  181MOL0     C24364   7.558   0.318   6.763  0.3470  0.2356 -0.2368
  181MOL0     C24365   7.738   0.911   6.190 -0.0531  0.0326  0.1586
  181MOL0     C24366   7.835   0.945   6.091  0.0884 -0.3346  0.7463
  181MOL0     C24367   7.794   0.988   5.956 -0.8059 -0.3793  0.9264
  181MOL0     H24368   8.422   0.776   6.029  1.8077 -0.7456  1.1524
  181MOL0     H24369   8.601   0.824   5.870 -0.5827 -1.5183 -4.1113
  181MOL0     H24370   8.513   1.118   5.570 -1.3974  2.8089  2.0445
  181MOL0     H24371   8.632   1.224   5.619 -0.7506  1.0618 -3.8251
  181MOL0     H24372   8.694   0.950   5.509 -2.3600  0.7954 -0.9464
  181MOL0     H24373   8.816   1.048   5.586  1.8649  1.2522 -2.7644
  181MOL0     H24374   8.731   1.218   5.401  1.9282  1.0424  0.1838
  181MOL0     H24375   8.663   1.077   5.328  0.8395 -2.0282  0.3267
  181MOL0     H24376   8.959   1.129   5.399 -0.0445  2.2919 -2.5064
  181MOL0     H24377   8.912   0.973   5.350  0.2159  0.2482  3.9630
  181MOL0     H24378   9.023   1.082   5.173 -0.3808 -0.6243  0.3976
  181MOL0     H24379   8.856   1.046   5.125  1.5844 -0.2197 -1.7160
  181MOL0     H24380   8.806   1.294   5.142 -1.2194 -1.1489  0.5175
  181MOL0     H24381   8.945   1.328   5.231 -3.4196  1.2303 -0.5078
  181MOL0     H24382   8.926   1.252   4.944  0.7947  3.1293 -1.0587
  181MOL0     H24383   9.077   1.240   5.023 -0.6157 -0.9526 -2.3610
  181MOL0     H24384   8.922   1.507   5.057 -1.3749 -0.8139 -2.5004
  181MOL0     H24385   9.095   1.484   5.049  1.0231  0.2598  0.5557
  181MOL0     H24386   8.777   1.452   4.845 -0.6524  0.4643 -1.8217
  181MOL0     H24387   8.696   1.655   4.641  0.6200 -2.0142 -0.0733
  181MOL0     H24388   8.817   1.788   4.632 -0.0881 -0.5959 -1.4708
  181MOL0     H24389   8.926   1.678   4.438  0.8186  1.9859 -0.3270
  181MOL0     H24390   8.786   1.563   4.447  0.5661  0.8131 -0.6747
  181MOL0     H24391   8.742   1.863   4.428 -2.0658 -0.4925  2.1870
  181MOL0     H24392   8.634   1.720   4.417  0.0910 -0.3112  2.1979
  181MOL0     H24393   8.702   1.859   4.188  2.0777  0.0014 -1.4886
  181MOL0     H24394   8.679   1.684   4.201 -0.2903  1.3523 -2.0010
  181MOL0     H24395   8.714   1.723   3.969  0.8716  0.5479  0.8851
  181MOL0     H24396   8.784   1.813   3.743 -0.5993 -0.3670  0.7153
  181MOL0     H24397   9.343   1.698   3.540 -3.0699  0.0815  1.1811
  181MOL0     H24398   9.464   1.733   3.315  0.1482  1.4521 -1.6157
  181MOL0     H24399   9.376   2.100   3.105  1.0724  0.7834  0.1384
  181MOL0     H24400   9.512   2.015   3.178  0.6726  2.7550 -0.2800
  181MOL0     H24401   9.567   1.904   2.957  0.9735  0.6953  1.0104
  181MOL0     H24402   9.420   1.978   2.899  0.9378  1.1098 -1.6358
  181MOL0     H24403   9.598   2.101   2.816  1.9923  0.5674  0.2937
  181MOL0     H24404   9.521   2.202   2.940  0.4167  0.1314  0.9493
  181MOL0     H24405   9.770   2.042   3.004 -0.0069 -0.6700 -2.5431
  181MOL0     H24406   9.697   2.173   3.093  0.2563 -0.1459  0.5996
  181MOL0     H24407   9.764   2.342   2.922 -0.3508  0.3345 -2.7062
  181MOL0     H24408   9.864   2.217   2.836 -0.7707  2.1778 -1.5709
  181MOL0     H24409   9.888   2.338   3.114  0.7400  1.6407 -1.3456
  181MOL0     H24410   9.980   2.188   3.063  2.8039  1.5361 -0.8216
  181MOL0     H24411   9.997   2.461   2.967  2.2298  1.8523 -1.4924
  181MOL0     H24412  10.064   2.333   2.873  0.0061 -1.5532  1.4996
  181MOL0     H24413  10.154   2.382   3.163  0.0102 -1.1959  0.0995
  181MOL0     H24414  10.213   2.261   3.049  0.1564  0.6382 -0.1537
  181MOL0     H24415   9.170   2.027   3.223 -0.1703  0.7142  1.6449
  181MOL0     H24416   9.098   2.028   3.447  1.1041  1.2150 -2.8406
  181MOL0     H24417   9.187   1.805   3.879 -0.3010  0.3407 -2.3714
  181MOL0     H24418   9.101   1.801   4.117  0.6119  1.9523 -0.7376
  181MOL0     H24419   8.415   1.218   5.796 -3.0506  0.8186  2.0004
  181MOL0     H24420   8.248   1.161   5.951 -0.8994  0.5134 -1.3581
  181MOL0     H24421   8.111   0.843   6.276 -0.4984  0.1898 -0.1981
  181MOL0     H24422   7.939   0.786   6.426 -0.0120 -1.1844 -0.5333
  181MOL0     H24423   7.526   0.753   6.312  0.1823 -1.0672  0.5977
  181MOL0     H24424   7.518   0.909   6.398  2.1838  0.5301 -3.7376
  181MOL0     H24425   7.381   0.736   6.496 -0.3962  1.1631  1.8745
  181MOL0     H24426   7.497   0.798   6.610  0.2787  1.6664  0.5386
  181MOL0     H24427   7.655   0.605   6.567  0.1033  0.5001 -0.5064
  181MOL0     H24428   7.525   0.525   6.474 -0.3646  1.8263 -2.3964
  181MOL0     H24429   7.489   0.639   6.753 -0.3729  2.3487 -2.0591
  181MOL0     H24430   7.370   0.564   6.668  0.8821 -0.9717 -2.1561
  181MOL0     H24431   7.566   0.221   6.808  0.2174  1.0292  1.5835
  181MOL0     H24432   7.637   0.915   6.151  0.3309  1.5685 -0.7680
  181MOL0     H24433   7.847   1.075   5.917  0.0941  0.0591  2.9758
  181MOL0     H24434   7.816   0.908   5.885  0.7406 -0.4290  1.4279
  181MOL0     H24435   7.688   1.015   5.955 -0.5159  0.8046  1.1520
  182MOL0     O24436   1.834   0.640   4.948  0.0599 -0.2526  0.6729
  182MOL0     C24437   1.779   0.570   5.034  0.9518 -0.4914 -0.8801
  182MOL0     O24438   1.837   0.473   5.106 -0.1864  0.8356 -0.4022
  182MOL0     C24439   1.974   0.450   5.097  0.2969  0.0345  0.0243
  182MOL0     C24440   2.074   0.557   5.085 -0.2933  0.7100 -0.1431
  182MOL0     C24441   2.210   0.523   5.081  1.3971 -0.3340  0.9676
  182MOL0     C24442   2.250   0.391   5.091  0.3275 -0.0705  0.0871
  182MOL0     O24443   2.379   0.355   5.080 -0.0976 -0.5798 -0.1300
  182MOL0     C24444   2.479   0.432   5.150  1.0434 -1.2273  0.1177
  182MOL0     C24445   2.613   0.370   5.173  0.4389  1.2173  0.1197
  182MOL0     C24446   2.696   0.463   5.253  0.2086  0.2944  0.6339
  182MOL0     C24447   2.848   0.426   5.239  0.1510 -0.6332 -0.0867
  182MOL0     C24448   2.937   0.498   5.337 -0.9172  0.9295 -0.3934
  182MOL0     C24449   3.068   0.428   5.319  0.3528 -0.5225  0.5462
  182MOL0     C24450   3.182   0.486   5.404 -0.8249 -0.6953 -0.4506
  182MOL0     C24451   3.177   0.483   5.554  0.1690  1.4060 -0.0806
  182MOL0     N24452   3.291   0.546   5.624  0.0724  0.3013 -0.9086
  182MOL0     C24453   3.416   0.573   5.559 -0.3354 -0.0851 -0.5784
  182MOL0     C24454   3.501   0.610   5.659  0.3168  0.4280 -0.0453
  182MOL0     C24455   3.651   0.640   5.653 -0.2276  0.8365 -0.6137
  182MOL0     C24456   3.728   0.524   5.583 -0.1984 -0.7643  0.0897
  182MOL0     C24457   3.707   0.526   5.427 -0.6865  0.0674  0.0951
  182MOL0     C24458   3.843   0.551   5.353 -0.3669  0.3469 -0.3903
  182MOL0     O24459   3.808   0.589   5.222  1.0399 -0.2291 -0.3821
  182MOL0     C24460   3.872   0.505   5.132  0.8844 -0.3355 -0.6899
  182MOL0     C24461   3.853   0.373   5.139 -0.8538 -0.1318 -0.2112
  182MOL0     C24462   3.905   0.290   5.044  0.1959  0.0588  1.0350
  182MOL0     C24463   3.983   0.333   4.925  0.4095  0.6802 -0.8267
  182MOL0     C24464   4.043   0.238   4.830 -0.9088 -0.6066  1.1024
  182MOL0     O24465   4.055   0.105   4.856 -0.0947 -0.8102 -0.7898
  182MOL0     C24466   4.131   0.024   4.772 -0.2103 -0.2363 -0.0903
  182MOL0     C24467   4.090  -0.094   4.724  0.4952  0.8533 -0.4954
  182MOL0     C24468   4.172  -0.181   4.648  0.8585  0.5834  0.1755
  182MOL0     C24469   4.295  -0.143   4.604  0.3130  0.3915  0.0250
  182MOL0     O24470   4.376  -0.231   4.526 -0.1801 -0.1113  0.2601
  182MOL0     C24471   4.369  -0.377   4.558 -0.1920 -1.0691  0.3898
  182MOL0     C24472   4.404  -0.415   4.697 -0.9706  0.2106  0.0194
  182MOL0     C24473   4.553  -0.374   4.728 -1.0891  0.6380 -0.4012
  182MOL0     C24474   4.567  -0.361   4.882 -0.4979  0.1193  0.0902
  182MOL0     C24475   4.513  -0.232   4.954 -0.1568  0.0786  0.2846
  182MOL0     C24476   4.595  -0.098   4.932  0.3183  0.5018  0.3637
  182MOL0     C24477   4.524   0.030   4.982 -0.3415 -0.1835 -0.0146
  182MOL0     C24478   4.611   0.157   4.961 -0.9637 -0.4467 -0.0267
  182MOL0    Cl24479   4.627   0.194   4.791 -0.0554 -0.1173 -0.3114
  182MOL0     C24480   4.353  -0.022   4.661  0.1478 -0.9809  0.5504
  182MOL0     C24481   4.271   0.061   4.744 -0.2772  0.9908  0.4594
  182MOL0     O24482   4.086   0.293   4.727  0.6852 -0.5537 -0.6788
  182MOL0     C24483   3.995   0.469   4.920 -0.5373  0.0155  0.3579
  182MOL0     C24484   3.949   0.553   5.029  0.4273  0.2506 -0.6722
  182MOL0     N24485   3.439   0.610   5.782 -0.3685 -0.8072  0.2731
  182MOL0     N24486   3.310   0.582   5.757 -0.0585  0.3734  0.7111
  182MOL0     C24487   2.154   0.292   5.093  0.0620  0.2753 -0.7345
  182MOL0     C24488   2.017   0.318   5.109  0.0778 -0.3670  0.2238
  182MOL0     C24489   1.634   0.587   5.066  0.7907 -0.0685 -0.2477
  182MOL0     C24490   1.597   0.575   5.204  0.4047  0.5620 -0.0668
  182MOL0     C24491   1.459   0.583   5.243  1.3258  0.3629 -0.3251
  182MOL0     C24492   1.352   0.600   5.155 -0.9538 -0.0197 -0.4301
  182MOL0     O24493   1.223   0.604   5.206 -0.5113  0.1979 -1.0298
  182MOL0     C24494   1.115   0.630   5.131  0.4895  0.1791 -0.1568
  182MOL0     C24495   1.000   0.585   5.214  0.5406 -0.2245  0.4045
  182MOL0     C24496   0.871   0.593   5.139  0.7525 -0.7130  0.3714
  182MOL0     C24497   0.762   0.498   5.187 -0.7671  1.0573 -0.1852
  182MOL0     C24498   0.692   0.524   5.314  0.3315  0.0717  0.2313
  182MOL0     C24499   0.640   0.538   5.423 -0.0638  0.3021 -0.0039
  182MOL0     C24500   1.390   0.615   5.017  0.1266 -0.3251  0.1971
  182MOL0     C24501   1.522   0.605   4.973 -0.3071  0.6189  0.5941
  182MOL0     C24502   1.543   0.618   4.828  0.0772 -0.5824 -0.1909
  182MOL0     H24503   2.046   0.660   5.068  0.4252  1.0810  0.8212
  182MOL0     H24504   2.274   0.607   5.057 -1.0382  1.0721 -1.0446
  182MOL0     H24505   2.500   0.522   5.093 -2.1991  0.4016  1.2261
  182MOL0     H24506   2.429   0.466   5.241 -2.1232  0.0780 -1.9443
  182MOL0     H24507   2.650   0.354   5.071 -0.6454  0.5278 -0.1788
  182MOL0     H24508   2.606   0.273   5.223  2.5698  0.4539 -0.9144
  182MOL0     H24509   2.669   0.457   5.359 -1.2046  2.3564  0.4417
  182MOL0     H24510   2.679   0.567   5.226 -1.1630 -0.0328  0.1646
  182MOL0     H24511   2.864   0.320   5.265  1.4928 -0.5258 -0.4029
  182MOL0     H24512   2.877   0.451   5.137 -0.2267  0.9331  0.1650
  182MOL0     H24513   2.947   0.601   5.302  1.9248  1.2737  1.1134
  182MOL0     H24514   2.904   0.503   5.441  1.9471  2.8254  0.5630
  182MOL0     H24515   3.055   0.324   5.351  0.1408 -0.4391  0.7394
  182MOL0     H24516   3.100   0.432   5.215  0.5635  1.5416  0.6360
  182MOL0     H24517   3.214   0.587   5.375  2.0080 -0.6614  2.3032
  182MOL0     H24518   3.262   0.418   5.374 -0.1819 -1.5217  2.8383
  182MOL0     H24519   3.093   0.533   5.604  0.7997  2.1320  0.2579
  182MOL0     H24520   3.173   0.384   5.601  1.7087  1.6554  0.6299
  182MOL0     H24521   3.433   0.567   5.451 -1.0574 -3.3663 -0.6327
  182MOL0     H24522   3.673   0.733   5.598  1.3327  1.6564  1.2669
  182MOL0     H24523   3.695   0.649   5.753 -3.4334 -1.6564  1.2153
  182MOL0     H24524   3.836   0.538   5.590 -0.1586 -0.6566 -0.6271
  182MOL0     H24525   3.709   0.428   5.631  4.5562 -1.5573  0.8893
  182MOL0     H24526   3.638   0.609   5.407 -0.1075  0.4909 -0.1494
  182MOL0     H24527   3.667   0.433   5.386  1.0499 -0.0680 -1.4091
  182MOL0     H24528   3.915   0.468   5.358 -0.3220  0.4313  0.4698
  182MOL0     H24529   3.897   0.637   5.393  0.6190  0.1207 -1.1731
  182MOL0     H24530   3.785   0.331   5.213 -1.6859  1.5525  0.0244
  182MOL0     H24531   3.864   0.189   5.051 -2.2800  0.6626 -2.2099
  182MOL0     H24532   3.990  -0.118   4.756  0.9220 -1.1868 -0.5104
  182MOL0     H24533   4.141  -0.281   4.620  0.2389  0.3590  1.5739
  182MOL0     H24534   4.267  -0.414   4.543 -1.4576  3.1350 -3.9454
  182MOL0     H24535   4.430  -0.440   4.492 -0.8542 -0.5977 -0.6947
  182MOL0     H24536   4.334  -0.361   4.761 -1.4393 -0.8791  0.4461
  182MOL0     H24537   4.394  -0.523   4.711  1.9105 -0.1460 -0.0651
  182MOL0     H24538   4.627  -0.449   4.697  0.3772  1.7215  0.3562
  182MOL0     H24539   4.589  -0.282   4.680 -1.8065  1.8081  1.2053
  182MOL0     H24540   4.673  -0.375   4.904 -0.7358 -1.3121  0.4503
  182MOL0     H24541   4.516  -0.438   4.941 -0.0077  0.4100  0.9093
  182MOL0     H24542   4.515  -0.258   5.060 -1.9632 -0.0024  0.3198
  182MOL0     H24543   4.410  -0.215   4.921  0.2568 -1.0713 -1.8423
  182MOL0     H24544   4.695  -0.110   4.973  0.0348 -0.2868  0.8414
  182MOL0     H24545   4.595  -0.082   4.824  0.6692  4.1937  0.7534
  182MOL0     H24546   4.497   0.017   5.087 -0.9931  2.7839  0.2749
  182MOL0     H24547   4.423   0.041   4.941 -0.7010 -2.4338  0.1646
  182MOL0     H24548   4.570   0.250   5.002  1.2985  0.4295  0.3912
  182MOL0     H24549   4.707   0.148   5.013 -0.5094  2.8674 -0.0577
  182MOL0     H24550   4.459  -0.024   4.641 -0.0908  0.0153 -0.9653
  182MOL0     H24551   4.313   0.152   4.785 -0.4634  1.3577 -0.1614
  182MOL0     H24552   4.052   0.509   4.837  0.3408 -0.1135  0.8885
  182MOL0     H24553   3.970   0.659   5.029  2.8625 -0.0289  3.4888
  182MOL0     H24554   2.192   0.194   5.118 -1.8545 -0.1630  0.7192
  182MOL0     H24555   1.955   0.233   5.134  0.1846 -1.0037 -1.5021
  182MOL0     H24556   1.672   0.569   5.282  0.3441  0.7672  0.0078
  182MOL0     H24557   1.436   0.575   5.348 -0.4460  0.8086 -0.6432
  182MOL0     H24558   1.129   0.569   5.042  1.6225  1.0201 -0.5824
  182MOL0     H24559   1.099   0.734   5.100  2.3640  0.4384 -0.3679
  182MOL0     H24560   1.001   0.647   5.304 -4.9861  1.1206 -0.0706
  182MOL0     H24561   1.011   0.479   5.235  1.7340 -0.0557  0.6722
  182MOL0     H24562   0.885   0.571   5.032  0.5962 -0.0264  0.2076
  182MOL0     H24563   0.830   0.694   5.133 -1.0858 -1.4187  0.4700
  182MOL0     H24564   0.684   0.482   5.111  0.1740 -0.5999 -0.8447
  182MOL0     H24565   0.818   0.405   5.189 -0.0396  1.3659 -2.6638
  182MOL0     H24566   0.585   0.543   5.515  1.9138 -0.5654  1.2965
  182MOL0     H24567   1.311   0.623   4.943 -0.4311  0.6242  0.8729
  182MOL0     H24568   1.643   0.595   4.789  0.4327 -3.3432  2.0495
  182MOL0     H24569   1.466   0.558   4.779 -2.1771  1.8128  0.1466
  182MOL0     H24570   1.519   0.722   4.801 -2.5354 -1.1157 -0.2375
  183MOL0     O24571   1.816   3.214   1.539 -0.3072  0.4667  0.3352
  183MOL0     C24572   1.913   3.279   1.498  0.2090 -0.5602  0.1841
  183MOL0     O24573   1.970   3.271   1.377 -0.3936  0.5310 -0.1508
  183MOL0     C24574   1.926   3.183   1.276 -0.8606  0.2342  0.5700
  183MOL0     C24575   1.790   3.162   1.250  0.0301  0.5093  0.3908
  183MOL0     C24576   1.744   3.065   1.155 -0.2357 -0.7134  0.2588
  183MOL0     C24577   1.844   3.003   1.070 -0.2069 -0.9545 -0.3986
  183MOL0     O24578   1.819   2.906   0.975  0.0171 -0.5550  0.2833
  183MOL0     C24579   1.691   2.847   0.955 -0.0579 -0.1713 -0.0626
  183MOL0     C24580   1.641   2.748   1.069 -1.0588 -0.0927 -0.1055
  183MOL0     C24581   1.512   2.668   1.028 -0.1230 -0.4007  1.5412
  183MOL0     C24582   1.489   2.561   1.119  0.3709  0.5775 -0.6795
  183MOL0     C24583   1.343   2.527   1.134  0.0903  0.4557  0.2037
  183MOL0     C24584   1.308   2.390   1.199  0.8008  1.0851 -0.0486
  183MOL0     C24585   1.177   2.314   1.171  0.2031 -0.3789  0.1273
  183MOL0     C24586   1.177   2.221   1.044  0.4354 -0.4971 -0.2965
  183MOL0     N24587   1.253   2.095   1.057  1.0452  0.5927 -0.1362
  183MOL0     C24588   1.388   2.088   1.071  0.6514  0.9566  1.7838
  183MOL0     C24589   1.409   1.964   1.117  1.4611  0.4599 -0.1937
  183MOL0     C24590   1.544   1.904   1.155  0.0952 -0.7768  0.9165
  183MOL0     C24591   1.622   1.827   1.053  0.0946 -0.1708  0.3291
  183MOL0     C24592   1.739   1.741   1.117  0.2108 -0.2772 -0.3026
  183MOL0     C24593   1.847   1.828   1.180  0.2856  0.5482  0.7352
  183MOL0     O24594   1.919   1.907   1.086 -0.1831 -0.1548  0.3561
  183MOL0     C24595   1.988   2.004   1.147  0.2865 -0.6902 -0.8982
  183MOL0     C24596   2.128   2.003   1.140  0.8652  0.7193 -0.6936
  183MOL0     C24597   2.210   2.097   1.201 -0.0570  0.5558 -0.1438
  183MOL0     C24598   2.149   2.209   1.256 -0.0841  0.5762  0.3672
  183MOL0     C24599   2.234   2.319   1.305  0.4538 -0.0810 -0.6415
  183MOL0     O24600   2.368   2.283   1.332  0.2807 -0.3603  0.1469
  183MOL0     C24601   2.447   2.373   1.396 -0.2371  0.4203  0.1068
  183MOL0     C24602   2.424   2.412   1.529  0.5232  0.1264 -0.0924
  183MOL0     C24603   2.503   2.503   1.592 -0.3440  0.1384  0.7053
  183MOL0     C24604   2.607   2.566   1.528  0.1142 -0.1168 -0.1157
  183MOL0     O24605   2.693   2.665   1.577  0.3162 -0.4979 -0.1416
  183MOL0     C24606   2.656   2.738   1.690  0.8025  0.9734  0.1223
  183MOL0     C24607   2.754   2.844   1.736  0.8201  1.4417 -0.8998
  183MOL0     C24608   2.781   2.929   1.618 -0.3272  0.5089 -1.4281
  183MOL0     C24609   2.883   3.035   1.666  0.0177  0.4435  0.6247
  183MOL0     C24610   2.944   3.114   1.547  0.0091 -0.9183 -0.2083
  183MOL0     C24611   2.977   3.260   1.591  0.3207 -1.0072  0.7788
  183MOL0     C24612   3.017   3.362   1.490 -0.1004  0.9940 -0.3362
  183MOL0     C24613   3.155   3.322   1.425  1.6477 -0.1479 -0.9456
  183MOL0    Cl24614   3.220   3.469   1.364 -0.6284 -0.2813 -0.1074
  183MOL0     C24615   2.632   2.530   1.390  0.0550  0.2462 -0.5607
  183MOL0     C24616   2.554   2.429   1.329  0.5596  0.1937  0.1043
  183MOL0     O24617   2.171   2.415   1.353  0.0596  0.1477 -0.0439
  183MOL0     C24618   2.006   2.215   1.260 -0.0955 -0.0197 -0.3478
  183MOL0     C24619   1.929   2.115   1.208  0.3312 -0.5646  0.4459
  183MOL0     N24620   1.289   1.892   1.116  0.4446  0.9782 -0.1038
  183MOL0     N24621   1.193   1.970   1.090 -0.5226 -0.4656 -0.0038
  183MOL0     C24622   1.978   3.035   1.097  0.2928 -0.1485  0.6195
  183MOL0     C24623   2.018   3.126   1.191  0.2743  0.1357  0.4709
  183MOL0     C24624   1.995   3.378   1.584  0.3070 -0.2197 -0.1945
  183MOL0     C24625   1.925   3.476   1.655 -0.8830 -0.5877  1.0508
  183MOL0     C24626   1.988   3.579   1.730  0.5451  0.5108 -0.4526
  183MOL0     C24627   2.123   3.589   1.736  0.4284  0.4289  1.4223
  183MOL0     O24628   2.175   3.696   1.797  0.2334  0.6827  0.6288
  183MOL0     C24629   2.136   3.722   1.935  0.0204  0.1709  0.6149
  183MOL0     C24630   2.211   3.632   2.031  0.3130  0.2828 -0.6708
  183MOL0     C24631   2.160   3.658   2.172  0.1562 -0.2429  0.1716
  183MOL0     C24632   2.239   3.575   2.275 -0.5370 -0.6337  0.0557
  183MOL0     C24633   2.207   3.635   2.411  0.0463  0.9347 -0.1377
  183MOL0     C24634   2.193   3.680   2.525  0.1900  0.0709 -0.1356
  183MOL0     C24635   2.196   3.492   1.654  0.6609 -0.4525 -0.8457
  183MOL0     C24636   2.135   3.382   1.587 -0.1069 -0.0118 -0.6624
  183MOL0     C24637   2.239   3.282   1.545 -0.9863  0.4018  0.3770
  183MOL0     H24638   1.726   3.219   1.316 -0.8754 -1.6464  1.5073
  183MOL0     H24639   1.639   3.048   1.136  0.0147 -2.3026  0.2282
  183MOL0     H24640   1.618   2.928   0.948 -1.4931 -1.4116  0.1086
  183MOL0     H24641   1.697   2.802   0.856  3.2929  0.5365 -0.3171
  183MOL0     H24642   1.622   2.805   1.161  0.7530  0.0772  0.2025
  183MOL0     H24643   1.722   2.687   1.112  0.7804  2.5322  0.4021
  183MOL0     H24644   1.512   2.634   0.924 -1.8166  0.6009  1.1726
  183MOL0     H24645   1.428   2.738   1.035 -1.0719 -1.3379  0.0217
  183MOL0     H24646   1.544   2.471   1.088  0.6446  0.1786  0.8537
  183MOL0     H24647   1.528   2.589   1.218 -3.1799 -0.8768  1.3302
  183MOL0     H24648   1.295   2.605   1.194  1.4202  1.0545  0.5318
  183MOL0     H24649   1.309   2.535   1.030 -1.0658  0.1202  0.5422
  183MOL0     H24650   1.378   2.313   1.166 -1.9197 -0.5505 -2.4604
  183MOL0     H24651   1.306   2.393   1.309  2.6388 -0.2590  0.0732
  183MOL0     H24652   1.091   2.381   1.175 -0.0040 -0.6756  0.8540
  183MOL0     H24653   1.164   2.248   1.257  3.7274  2.3546  3.0940
  183MOL0     H24654   1.070   2.204   1.030 -0.4858 -0.4011  4.7868
  183MOL0     H24655   1.221   2.283   0.965  4.6889 -2.5097  0.2016
  183MOL0     H24656   1.459   2.165   1.044  0.7860  0.1110 -0.4679
  183MOL0     H24657   1.608   1.987   1.187 -1.8594  1.0047  0.3925
  183MOL0     H24658   1.523   1.854   1.250 -2.0731  2.6771  2.4471
  183MOL0     H24659   1.555   1.755   1.005 -1.2805  1.8614 -0.9605
  183MOL0     H24660   1.660   1.888   0.971 -0.1171 -1.0388 -0.4316
  183MOL0     H24661   1.776   1.682   1.033  0.0786  1.8283 -1.9293
  183MOL0     H24662   1.688   1.679   1.191 -3.1677  2.5626  0.0528
  183MOL0     H24663   1.928   1.763   1.214  1.4217 -0.1780 -2.8462
  183MOL0     H24664   1.805   1.881   1.266  0.8214  0.5832  0.9782
  183MOL0     H24665   2.172   1.920   1.085  0.2515 -2.1898  2.8016
  183MOL0     H24666   2.314   2.069   1.213 -0.8545 -3.1153 -0.7132
  183MOL0     H24667   2.343   2.371   1.590 -0.9103  3.0436  0.1513
  183MOL0     H24668   2.472   2.537   1.691  1.0393 -0.1542  1.2521
  183MOL0     H24669   2.560   2.786   1.666  1.2484  1.3074 -1.1057
  183MOL0     H24670   2.631   2.666   1.768 -2.6704 -0.9640 -2.4847
  183MOL0     H24671   2.715   2.904   1.818  0.3822 -0.4276  0.3371
  183MOL0     H24672   2.847   2.802   1.775 -0.2269 -0.0722  0.1071
  183MOL0     H24673   2.833   2.861   1.550 -0.6767 -1.7751  0.4775
  183MOL0     H24674   2.696   2.982   1.574  0.6259  1.5521 -2.0929
  183MOL0     H24675   2.962   2.989   1.726  0.9460 -0.8682 -1.4932
  183MOL0     H24676   2.825   3.109   1.723 -0.9462  1.2302 -1.2842
  183MOL0     H24677   2.878   3.118   1.460  2.4382  1.7401 -2.1561
  183MOL0     H24678   3.030   3.059   1.507 -0.6790 -1.6357 -0.7129
  183MOL0     H24679   2.891   3.314   1.632  0.4456 -0.1785 -0.0218
  183MOL0     H24680   3.056   3.265   1.666 -0.8784  2.6989  2.0071
  183MOL0     H24681   3.028   3.446   1.559  0.1156  1.2103 -0.6345
  183MOL0     H24682   2.937   3.388   1.420 -2.5429 -1.1579  1.4316
  183MOL0     H24683   3.223   3.286   1.503 -1.2063 -1.2877  1.2252
  183MOL0     H24684   3.140   3.241   1.353  2.2021 -1.7422  0.6369
  183MOL0     H24685   2.718   2.585   1.353 -0.3699  1.3676  0.0875
  183MOL0     H24686   2.583   2.409   1.227  1.6545  1.7362  0.0858
  183MOL0     H24687   1.957   2.309   1.281  0.2062  0.1478 -0.3809
  183MOL0     H24688   1.821   2.132   1.211  0.3408 -0.2024 -0.6110
  183MOL0     H24689   2.058   2.983   1.046  0.7402 -1.9200  2.9391
  183MOL0     H24690   2.120   3.151   1.218 -0.3149  2.0812  1.0383
  183MOL0     H24691   1.817   3.482   1.659 -0.8457 -0.2723  1.7284
  183MOL0     H24692   1.932   3.662   1.772 -1.4978 -0.5634 -0.9630
  183MOL0     H24693   2.028   3.718   1.954  0.1556 -1.1653  1.1969
  183MOL0     H24694   2.163   3.828   1.942  0.6366  0.1048 -0.4637
  183MOL0     H24695   2.311   3.676   2.028 -1.7516  5.6300 -1.5974
  183MOL0     H24696   2.208   3.527   2.000 -1.4943 -0.5629  1.9705
  183MOL0     H24697   2.052   3.643   2.171  0.1026 -0.7801 -3.9054
  183MOL0     H24698   2.174   3.763   2.200  1.4906 -0.3192 -0.1261
  183MOL0     H24699   2.205   3.471   2.276 -2.2586 -0.1378 -1.8298
  183MOL0     H24700   2.345   3.585   2.250 -0.2255 -2.7170  0.3411
  183MOL0     H24701   2.178   3.708   2.627 -2.6048 -0.8364 -0.2245
  183MOL0     H24702   2.301   3.515   1.667  0.7882 -1.2730 -0.3738
  183MOL0     H24703   2.294   3.244   1.632 -2.1756 -2.0341  0.1743
  183MOL0     H24704   2.187   3.190   1.516  2.8726 -1.9071  0.1140
  183MOL0     H24705   2.304   3.314   1.463 -1.1431 -2.0834 -0.8195
  184MOL0     O24706  11.195   4.703  11.230  0.0505 -0.4323 -0.5885
  184MOL0     C24707  11.082   4.741  11.268  1.1356 -0.5034  0.7793
  184MOL0     O24708  11.046   4.858  11.339 -0.2053  0.2478  0.4791
  184MOL0     C24709  11.140   4.930  11.406 -0.7008 -0.1593  0.4324
  184MOL0     C24710  11.269   4.884  11.436  0.4240 -0.2187 -1.4902
  184MOL0     C24711  11.355   4.978  11.491 -0.3541 -0.3700 -0.2653
  184MOL0     C24712  11.321   5.118  11.501  0.2633  0.5783 -0.1494
  184MOL0     O24713  11.404   5.224  11.541  0.9136  0.2561 -0.4246
  184MOL0     C24714  11.526   5.173  11.602  0.0622  0.4518 -0.5444
  184MOL0     C24715  11.614   5.278  11.672  0.6827  0.5860 -0.6460
  184MOL0     C24716  11.574   5.296  11.820  0.3267  0.0517 -0.5504
  184MOL0     C24717  11.634   5.430  11.854  0.7946  0.3395 -0.4392
  184MOL0     C24718  11.608   5.469  12.000 -1.1956 -0.1543 -0.4869
  184MOL0     C24719  11.669   5.600  12.052  0.0695  0.9295 -0.0376
  184MOL0     C24720  11.646   5.707  11.940 -0.6244 -0.2047 -0.6162
  184MOL0     C24721  11.665   5.848  11.997  0.0598 -0.0120  0.0771
  184MOL0     N24722  11.648   5.951  11.896  0.8054  0.4231  0.3202
  184MOL0     C24723  11.522   6.004  11.865 -0.0953 -0.6235  0.0994
  184MOL0     C24724  11.548   6.110  11.784 -0.2420  0.0246 -0.2540
  184MOL0     C24725  11.437   6.209  11.739  0.6781  0.6315  1.4844
  184MOL0     C24726  11.492   6.337  11.681  0.5677 -0.3399 -0.1323
  184MOL0     C24727  11.388   6.411  11.588 -0.0749 -1.3427 -0.5389
  184MOL0     C24728  11.318   6.538  11.652  0.7117  0.0083 -0.2545
  184MOL0     O24729  11.207   6.484  11.732 -0.2036 -0.3393  0.6935
  184MOL0     C24730  11.076   6.497  11.686 -1.0353  0.0170 -0.6719
  184MOL0     C24731  11.034   6.503  11.558 -0.5349  0.2120 -0.4448
  184MOL0     C24732  10.902   6.503  11.522  0.3945  0.0313  0.2317
  184MOL0     C24733  10.794   6.492  11.615  0.1232 -0.9140 -0.4869
  184MOL0     C24734  10.655   6.477  11.559  0.0163  0.5865 -0.0875
  184MOL0     O24735  10.643   6.452  11.427 -0.2424  0.6287 -0.2478
  184MOL0     C24736  10.515   6.405  11.386  0.4122 -0.2400  0.1500
  184MOL0     C24737  10.472   6.273  11.410  0.2074 -0.6679  0.6115
  184MOL0     C24738  10.335   6.248  11.394 -0.2225  0.5946 -0.2270
  184MOL0     C24739  10.245   6.333  11.330 -0.7434 -0.0490 -0.0980
  184MOL0     O24740  10.114   6.302  11.309  1.0940 -0.5538  0.4269
  184MOL0     C24741  10.067   6.178  11.352  0.2385 -0.0982 -0.3610
  184MOL0     C24742   9.922   6.162  11.307  1.0786 -1.3468  0.0104
  184MOL0     C24743   9.857   6.032  11.357 -0.1621  0.6456 -0.0851
  184MOL0     C24744   9.710   6.011  11.305 -0.5761  0.2878 -0.2102
  184MOL0     C24745   9.615   5.940  11.402 -0.0146  0.5270 -0.4176
  184MOL0     C24746   9.470   5.946  11.364  0.3954  0.0544 -0.4472
  184MOL0     C24747   9.439   5.861  11.249  0.3642  0.1576  1.0737
  184MOL0     C24748   9.286   5.832  11.249  0.4821  0.3325  0.2750
  184MOL0    Cl24749   9.197   5.922  11.138 -0.0547 -0.1059  0.3525
  184MOL0     C24750  10.295   6.458  11.286  0.4592 -0.5749  0.0821
  184MOL0     C24751  10.431   6.489  11.314 -0.1877 -0.9759  0.7546
  184MOL0     O24752  10.558   6.470  11.641 -0.6334  0.2166 -0.1443
  184MOL0     C24753  10.835   6.486  11.749  0.3365 -0.3777  0.5358
  184MOL0     C24754  10.974   6.487  11.785 -0.6928  0.1257  0.1347
  184MOL0     N24755  11.688   6.114  11.758  0.7600  1.1776  0.1878
  184MOL0     N24756  11.740   6.017  11.827  0.2460 -0.5564  1.0285
  184MOL0     C24757  11.200   5.164  11.463  0.5275  0.1711  0.7015
  184MOL0     C24758  11.101   5.068  11.419  0.0006  0.9440  0.6557
  184MOL0     C24759  10.965   4.672  11.214  0.0734 -0.1341 -0.6865
  184MOL0     C24760  10.864   4.648  11.312  0.2723 -0.1262  0.4149
  184MOL0     C24761  10.750   4.575  11.281  0.2134 -0.4039  0.5496
  184MOL0     C24762  10.738   4.542  11.151 -0.1271  0.4269  0.3521
  184MOL0     O24763  10.639   4.460  11.095 -0.2981 -0.2318 -0.4893
  184MOL0     C24764  10.611   4.339  11.164  0.6968  0.0592 -0.4024
  184MOL0     C24765  10.665   4.223  11.078 -0.1001  0.4584  0.0410
  184MOL0     C24766  10.581   4.226  10.948 -0.6745  0.2048 -0.1199
  184MOL0     C24767  10.593   4.093  10.870 -0.2199  0.5436  0.0061
  184MOL0     C24768  10.495   4.007  10.925  0.1414 -0.0262  0.5537
  184MOL0     C24769  10.404   3.941  10.977  0.1012  0.5867  0.8928
  184MOL0     C24770  10.828   4.563  11.049 -0.4431  0.1778 -0.3622
  184MOL0     C24771  10.946   4.623  11.078 -0.5708 -0.2176  0.1069
  184MOL0     C24772  11.034   4.670  10.966  0.0723 -0.1272  0.7608
  184MOL0     H24773  11.311   4.784  11.433  0.2409 -0.3674  0.0770
  184MOL0     H24774  11.448   4.934  11.524 -0.8975 -3.3371 -2.3306
  184MOL0     H24775  11.510   5.088  11.669 -2.0705  0.4114 -1.0329
  184MOL0     H24776  11.596   5.142  11.523  2.8296  3.1647  0.6029
  184MOL0     H24777  11.603   5.372  11.616 -0.3627  0.7478 -0.1906
  184MOL0     H24778  11.719   5.250  11.679  0.6166  0.5322  0.2067
  184MOL0     H24779  11.617   5.213  11.877 -0.6313  0.2901  0.5658
  184MOL0     H24780  11.468   5.301  11.845  0.2400 -1.5770 -0.4515
  184MOL0     H24781  11.742   5.433  11.841  1.5635 -3.0495  3.2919
  184MOL0     H24782  11.588   5.503  11.787 -3.0203  0.4905  2.0513
  184MOL0     H24783  11.501   5.471  12.022 -1.5395 -2.2966 -1.6410
  184MOL0     H24784  11.654   5.388  12.059 -2.8696  0.1178  1.2913
  184MOL0     H24785  11.621   5.629  12.145 -3.1566  1.8460 -1.8506
  184MOL0     H24786  11.777   5.586  12.067 -0.3337  0.4414  3.1468
  184MOL0     H24787  11.542   5.697  11.907 -1.4569 -0.1330  1.8022
  184MOL0     H24788  11.713   5.687  11.856  0.1153 -0.9610  0.1336
  184MOL0     H24789  11.586   5.851  12.071 -0.8157 -0.7114 -0.8046
  184MOL0     H24790  11.766   5.855  12.040  0.3302  0.3739 -0.5967
  184MOL0     H24791  11.427   5.972  11.906  0.2168 -1.7961 -0.0457
  184MOL0     H24792  11.381   6.153  11.665  0.9343  0.9333  1.0582
  184MOL0     H24793  11.379   6.230  11.829 -1.1836 -0.7268  0.6588
  184MOL0     H24794  11.534   6.396  11.763 -0.1171 -0.3266  0.2179
  184MOL0     H24795  11.574   6.309  11.615  0.5706  0.7749 -0.6339
  184MOL0     H24796  11.306   6.349  11.551 -0.7480  0.9472 -3.3536
  184MOL0     H24797  11.436   6.454  11.499  1.4883 -4.1116 -1.1755
  184MOL0     H24798  11.283   6.601  11.570 -0.8351 -3.5108 -2.5884
  184MOL0     H24799  11.375   6.600  11.722  1.2671  1.2946 -1.7825
  184MOL0     H24800  11.107   6.501  11.478  2.5912 -1.1084  2.1971
  184MOL0     H24801  10.870   6.490  11.419 -0.0516 -1.8323  0.5582
  184MOL0     H24802  10.531   6.203  11.469 -0.9718 -2.9751 -0.8189
  184MOL0     H24803  10.297   6.160  11.445 -1.2093 -0.2500 -2.2783
  184MOL0     H24804  10.124   6.095  11.309 -0.9010 -0.9302 -0.3308
  184MOL0     H24805  10.063   6.166  11.461  0.6323 -2.8366 -0.5696
  184MOL0     H24806   9.862   6.246  11.344  0.3314 -2.0927  0.5390
  184MOL0     H24807   9.904   6.167  11.199 -0.4455 -1.2485  0.2401
  184MOL0     H24808   9.921   5.951  11.323  2.0142  2.4834 -0.5724
  184MOL0     H24809   9.854   6.018  11.466 -1.8074 -2.3278 -0.4016
  184MOL0     H24810   9.706   5.957  11.210 -1.4573 -2.9375  1.5053
  184MOL0     H24811   9.678   6.115  11.297 -0.5445  0.6018  2.8431
  184MOL0     H24812   9.628   5.992  11.497  0.2733  1.5138 -0.9832
  184MOL0     H24813   9.640   5.835  11.416 -3.4841 -0.2196  1.1446
  184MOL0     H24814   9.416   5.901  11.448  1.4251 -4.5664 -1.9411
  184MOL0     H24815   9.435   6.047  11.342 -1.8415 -0.7459 -0.8328
  184MOL0     H24816   9.485   5.765  11.274 -2.0779 -1.9298 -1.7424
  184MOL0     H24817   9.465   5.912  11.156  0.1019  1.3687  1.6440
  184MOL0     H24818   9.279   5.728  11.218  3.5213 -0.2580  1.1916
  184MOL0     H24819   9.237   5.847  11.346 -1.2324 -0.5582 -0.4080
  184MOL0     H24820  10.233   6.538  11.248  0.5779  0.8358  2.6356
  184MOL0     H24821  10.477   6.586  11.299  0.5245 -1.4999 -0.5939
  184MOL0     H24822  10.758   6.475  11.824  0.1601 -3.0829  0.0329
  184MOL0     H24823  10.991   6.466  11.890  2.7419 -0.8934 -0.5056
  184MOL0     H24824  11.182   5.271  11.457  0.9382  0.1664 -2.7001
  184MOL0     H24825  11.009   5.109  11.380 -0.5087  0.3717  1.2407
  184MOL0     H24826  10.877   4.693  11.410  1.5439  0.7079 -0.1040
  184MOL0     H24827  10.672   4.567  11.357  2.2958  0.7501  2.9673
  184MOL0     H24828  10.504   4.340  11.185  0.6163  0.5679 -0.8514
  184MOL0     H24829  10.668   4.340  11.258  0.9755  0.3304 -0.5711
  184MOL0     H24830  10.645   4.128  11.130 -2.8137 -0.4237 -2.3244
  184MOL0     H24831  10.773   4.233  11.068 -0.1217  0.2722 -0.4066
  184MOL0     H24832  10.612   4.314  10.891 -1.5755  0.1850 -0.6423
  184MOL0     H24833  10.480   4.248  10.984 -0.0714 -0.0494  1.8734
  184MOL0     H24834  10.588   4.099  10.761 -3.5184 -1.8630 -0.0979
  184MOL0     H24835  10.682   4.032  10.885 -0.6495  0.0427  0.5384
  184MOL0     H24836  10.332   3.871  11.016 -1.4224  0.8422 -1.2411
  184MOL0     H24837  10.813   4.525  10.949  1.9247 -1.1542 -0.2852
  184MOL0     H24838  11.136   4.632  10.977 -0.6289 -3.7762 -3.0215
  184MOL0     H24839  10.995   4.628  10.873  1.4003 -3.2691  1.4734
  184MOL0     H24840  11.035   4.778  10.956 -0.7803 -0.3028 -1.8617
  185MOL0     O24841   1.775   5.262   7.852 -0.0222 -0.0580 -0.2672
  185MOL0     C24842   1.878   5.279   7.792  0.1188 -0.1150 -0.4107
  185MOL0     O24843   1.990   5.191   7.784 -0.8163  0.0966  1.1475
  185MOL0     C24844   1.988   5.070   7.845  0.6458 -0.5616 -0.3783
  185MOL0     C24845   2.038   4.954   7.773  0.1152 -0.1856 -0.0140
  185MOL0     C24846   2.037   4.825   7.833 -0.6384 -0.7639 -0.2806
  185MOL0     C24847   1.974   4.812   7.959 -0.3708 -0.1291 -0.4558
  185MOL0     O24848   1.948   4.694   8.026  0.2423 -0.7258  0.5129
  185MOL0     C24849   2.059   4.597   8.015  0.1393 -1.0650 -0.3472
  185MOL0     C24850   2.036   4.485   8.125 -0.5560 -0.1932  0.0341
  185MOL0     C24851   2.057   4.545   8.263 -0.1342 -0.1485  0.4166
  185MOL0     C24852   2.107   4.454   8.372 -0.9055  0.1925  0.8127
  185MOL0     C24853   2.258   4.418   8.357  0.6573 -0.1300 -0.3158
  185MOL0     C24854   2.305   4.328   8.485 -1.4617 -0.2830  0.4987
  185MOL0     C24855   2.459   4.285   8.464  0.2891  0.0205 -0.0706
  185MOL0     C24856   2.524   4.184   8.566 -0.6673  0.4908 -0.3802
  185MOL0     N24857   2.665   4.163   8.538 -1.3118 -0.1852  0.3779
  185MOL0     C24858   2.769   4.254   8.560 -1.7093  0.0788  0.2042
  185MOL0     C24859   2.881   4.182   8.515  0.3587 -0.5339 -0.5439
  185MOL0     C24860   3.026   4.219   8.537 -0.7534  0.3978  0.8005
  185MOL0     C24861   3.095   4.102   8.606 -0.5258 -0.3656  0.2256
  185MOL0     C24862   3.220   4.125   8.679  0.2213  0.1940  0.3632
  185MOL0     C24863   3.343   4.205   8.608 -1.1301  0.4602 -0.4889
  185MOL0     O24864   3.396   4.096   8.524  0.2468  0.6221 -0.7322
  185MOL0     C24865   3.507   4.125   8.455 -0.9530 -0.3478  0.7877
  185MOL0     C24866   3.559   4.022   8.387  0.2377 -0.4574  0.4018
  185MOL0     C24867   3.676   4.044   8.317 -0.6967  0.5737 -0.2148
  185MOL0     C24868   3.761   4.152   8.328  1.9241 -0.4207  0.5244
  185MOL0     C24869   3.889   4.158   8.266  0.3373  1.4092 -0.5523
  185MOL0     O24870   3.916   4.064   8.174 -0.0168  0.3540  0.7621
  185MOL0     C24871   4.042   4.044   8.112 -0.9190  0.7203  0.0525
  185MOL0     C24872   4.136   4.144   8.073  0.4512 -0.5515  0.3310
  185MOL0     C24873   4.255   4.098   8.014  0.2923 -0.4594  1.1452
  185MOL0     C24874   4.277   3.964   8.004 -0.1867  0.1138 -0.0265
  185MOL0     O24875   4.401   3.928   7.950  0.1138  0.5637 -0.5933
  185MOL0     C24876   4.420   3.793   7.904  0.1141 -0.1610  0.5021
  185MOL0     C24877   4.525   3.773   7.792  0.3196  0.8331 -0.0186
  185MOL0     C24878   4.659   3.814   7.828 -0.9049  0.1902  1.1427
  185MOL0     C24879   4.745   3.789   7.703 -0.6108 -0.3406  0.0887
  185MOL0     C24880   4.893   3.818   7.733  0.4926  0.1553  0.1917
  185MOL0     C24881   4.971   3.824   7.595  0.0289  0.4302 -0.7817
  185MOL0     C24882   5.039   3.690   7.550 -0.1262 -0.0651  0.1144
  185MOL0     C24883   5.094   3.715   7.412  0.0872  0.5580 -0.7434
  185MOL0    Cl24884   5.240   3.598   7.375 -0.1510 -0.2813 -0.3586
  185MOL0     C24885   4.193   3.872   8.051  0.6102 -0.8842  0.2116
  185MOL0     C24886   4.077   3.908   8.102 -0.1465 -0.1823  0.3086
  185MOL0     O24887   3.961   4.251   8.297 -0.6722  0.6357  0.2932
  185MOL0     C24888   3.703   4.260   8.395  0.1841 -0.1583 -0.2255
  185MOL0     C24889   3.582   4.249   8.466 -0.2112 -0.1151  0.1427
  185MOL0     N24890   2.843   4.058   8.469 -0.3527  0.3116  0.5391
  185MOL0     N24891   2.710   4.050   8.477 -0.8536 -0.0182 -0.7152
  185MOL0     C24892   1.936   4.922   8.027  0.5228  0.0795  0.6728
  185MOL0     C24893   1.946   5.046   7.973  0.4183 -0.1336  0.2050
  185MOL0     C24894   1.880   5.407   7.716  0.5218 -0.7960 -0.2641
  185MOL0     C24895   1.808   5.523   7.761  0.5541 -0.3276  0.0826
  185MOL0     C24896   1.805   5.640   7.684 -0.4853 -0.6676  1.4480
  185MOL0     C24897   1.889   5.653   7.571  0.1629  0.3224  0.2263
  185MOL0     O24898   1.874   5.771   7.508  0.3070 -0.2978  0.6034
  185MOL0     C24899   1.926   5.786   7.380  0.3340  0.5345 -0.4107
  185MOL0     C24900   2.073   5.830   7.381  0.1931  0.3535 -0.2465
  185MOL0     C24901   2.066   5.973   7.440 -1.2762  0.1188  0.1302
  185MOL0     C24902   2.180   6.069   7.385  0.3407  0.0765 -0.2757
  185MOL0     C24903   2.142   6.125   7.252  0.0239 -0.2650 -0.7438
  185MOL0     C24904   2.114   6.174   7.146 -0.3603  1.2102 -0.6403
  185MOL0     C24905   1.958   5.539   7.522  0.2051 -0.0816  0.0438
  185MOL0     C24906   1.957   5.415   7.597  0.2269  0.2766  1.2927
  185MOL0     C24907   1.998   5.295   7.516  0.3975 -0.8030  0.2626
  185MOL0     H24908   2.080   4.982   7.677 -0.5183  2.4841  0.4099
  185MOL0     H24909   2.084   4.746   7.775 -1.3272 -0.9038 -0.6507
  185MOL0     H24910   2.059   4.554   7.915 -0.2472 -0.9125 -0.4147
  185MOL0     H24911   2.157   4.642   8.031  0.5974 -2.9005  3.0130
  185MOL0     H24912   2.096   4.396   8.105  1.1412  1.3154 -2.1172
  185MOL0     H24913   1.934   4.449   8.109 -1.0261  0.9843  0.3245
  185MOL0     H24914   1.977   4.604   8.308 -2.2918 -2.7534  0.2516
  185MOL0     H24915   2.142   4.614   8.259  0.2728 -0.6979 -1.9035
  185MOL0     H24916   2.102   4.498   8.472  1.8414  2.7528 -0.0127
  185MOL0     H24917   2.061   4.355   8.371 -0.2086 -0.1409 -0.7067
  185MOL0     H24918   2.275   4.360   8.266  2.0401 -1.0368  0.4862
  185MOL0     H24919   2.325   4.504   8.350 -0.7606  0.9602 -1.1048
  185MOL0     H24920   2.302   4.392   8.574  1.0550 -1.1767  1.3302
  185MOL0     H24921   2.243   4.240   8.502 -0.8384 -0.1923  4.1620
  185MOL0     H24922   2.515   4.379   8.468 -0.8818  0.7870 -0.8417
  185MOL0     H24923   2.467   4.239   8.366 -0.3928 -1.4750  0.5500
  185MOL0     H24924   2.512   4.219   8.669 -0.5348  0.6842 -0.4309
  185MOL0     H24925   2.477   4.086   8.558 -0.8631  0.6571 -1.3378
  185MOL0     H24926   2.761   4.343   8.622 -3.6346  0.9990 -1.2750
  185MOL0     H24927   3.074   4.245   8.442  0.4452  1.2936  1.6218
  185MOL0     H24928   3.036   4.304   8.606 -0.3023 -0.3165  1.6236
  185MOL0     H24929   3.024   4.074   8.684 -0.9282  2.3125  0.9443
  185MOL0     H24930   3.111   4.019   8.536  0.4577 -1.1537  1.3622
  185MOL0     H24931   3.253   4.026   8.712 -1.3084 -0.4538  0.0550
  185MOL0     H24932   3.192   4.184   8.767 -1.8650 -2.7259  1.8038
  185MOL0     H24933   3.410   4.239   8.687  0.1767  1.2652 -1.8749
  185MOL0     H24934   3.313   4.289   8.544 -3.5421  2.5463  3.0174
  185MOL0     H24935   3.501   3.930   8.380  3.4664 -2.7554  1.4370
  185MOL0     H24936   3.721   3.959   8.267  1.9696  2.4279 -1.2557
  185MOL0     H24937   4.110   4.248   8.087  3.0376  0.0503  1.2635
  185MOL0     H24938   4.332   4.162   7.970  0.1229 -2.8906 -3.2159
  185MOL0     H24939   4.446   3.727   7.987  1.4083 -2.4285 -1.5797
  185MOL0     H24940   4.329   3.747   7.864  0.7514 -0.9613 -0.0757
  185MOL0     H24941   4.523   3.666   7.773 -3.4601  0.9406 -1.0794
  185MOL0     H24942   4.501   3.829   7.701 -0.0739  2.4182  1.0152
  185MOL0     H24943   4.670   3.921   7.846  3.5868 -0.1781  1.6072
  185MOL0     H24944   4.707   3.742   7.895  0.1727 -3.0902 -2.7548
  185MOL0     H24945   4.705   3.852   7.623  0.7419 -0.3947 -0.6648
  185MOL0     H24946   4.747   3.687   7.664  2.2610  0.5161 -2.3910
  185MOL0     H24947   4.939   3.742   7.796  2.7277  1.3466  0.1098
  185MOL0     H24948   4.902   3.918   7.777 -0.1429 -0.0389  0.7681
  185MOL0     H24949   4.899   3.866   7.524 -2.4084 -0.5619  0.9953
  185MOL0     H24950   5.049   3.901   7.604 -0.8898  1.1697  1.9083
  185MOL0     H24951   4.961   3.614   7.558 -0.4316  0.1891 -0.4303
  185MOL0     H24952   5.118   3.680   7.626 -0.1136  1.0594  0.2713
  185MOL0     H24953   5.015   3.729   7.338 -0.9536  0.7459  0.3649
  185MOL0     H24954   5.128   3.819   7.427 -2.7732  1.1409  3.1781
  185MOL0     H24955   4.220   3.769   8.033  0.3993 -0.7440 -1.0167
  185MOL0     H24956   4.008   3.836   8.144  1.5766 -2.6577 -0.9109
  185MOL0     H24957   3.753   4.356   8.407  0.1208 -0.3911  2.5434
  185MOL0     H24958   3.562   4.334   8.530  0.7996 -0.2358  0.6421
  185MOL0     H24959   1.888   4.912   8.124  0.1309  2.3792  0.7859
  185MOL0     H24960   1.921   5.134   8.032  0.9421 -0.3295  0.7309
  185MOL0     H24961   1.736   5.519   7.842 -1.0039 -0.7286 -1.2697
  185MOL0     H24962   1.745   5.724   7.718 -0.2556 -0.3225  1.0243
  185MOL0     H24963   1.869   5.870   7.337  0.9389  2.7566  2.7674
  185MOL0     H24964   1.909   5.690   7.332  0.1815 -0.8727  2.2827
  185MOL0     H24965   2.121   5.853   7.285  0.2792  3.9322  0.4904
  185MOL0     H24966   2.130   5.766   7.447 -3.9240 -1.0853  2.2801
  185MOL0     H24967   2.085   5.969   7.548  2.9546  1.2315 -0.3966
  185MOL0     H24968   1.972   6.026   7.427 -2.1090 -0.6729  2.3399
  185MOL0     H24969   2.207   6.139   7.464 -1.2241 -0.4422  0.7753
  185MOL0     H24970   2.264   6.002   7.361 -2.3360 -3.0968 -1.6860
  185MOL0     H24971   2.072   6.223   7.060 -1.3675  0.7878 -0.3979
  185MOL0     H24972   1.995   5.526   7.421 -0.5421 -3.4580  0.0812
  185MOL0     H24973   2.070   5.230   7.567  3.5595  0.5677 -2.1130
  185MOL0     H24974   1.904   5.265   7.469  0.1694 -0.2403  0.3563
  185MOL0     H24975   2.069   5.321   7.437  1.0740  3.6503  2.0122
  186MOL0     O24976   9.837   0.149   7.779  0.9704 -0.1249  1.3849
  186MOL0     C24977   9.866   0.271   7.750 -0.1103 -0.1943 -0.2392
  186MOL0     O24978   9.981   0.306   7.696  0.4855  0.3648  0.0576
  186MOL0     C24979  10.012   0.240   7.578  0.5766  0.0259 -0.5268
  186MOL0     C24980   9.915   0.173   7.493  0.0945 -0.8079  0.1967
  186MOL0     C24981   9.961   0.115   7.377 -0.2765 -0.0977 -0.0554
  186MOL0     C24982  10.105   0.101   7.351  0.3000  0.1286 -0.3066
  186MOL0     O24983  10.160   0.045   7.238 -0.3233  0.4681  0.1144
  186MOL0     C24984  10.082  -0.059   7.180  0.2490 -0.2454 -0.1490
  186MOL0     C24985  10.146  -0.107   7.047 -0.1273 -1.5636  0.8531
  186MOL0     C24986  10.125  -0.000   6.926 -0.4352 -0.6977  0.5401
  186MOL0     C24987  10.217  -0.019   6.800  0.5898 -0.1082  0.4004
  186MOL0     C24988  10.177   0.095   6.710  0.1456  0.3629  0.6124
  186MOL0     C24989  10.257   0.091   6.577  0.6908  0.0625 -0.4019
  186MOL0     C24990  10.193  -0.001   6.476  0.7914  1.4084  0.7264
  186MOL0     C24991  10.281  -0.032   6.344  0.4614  0.0310  0.8255
  186MOL0     N24992  10.220  -0.130   6.262  0.2329 -0.7289 -0.2557
  186MOL0     C24993  10.156  -0.101   6.140 -0.1694  0.0996  0.1864
  186MOL0     C24994  10.110  -0.212   6.094  0.9156  0.2550  0.7274
  186MOL0     C24995  10.033  -0.227   5.960  0.0050  0.6200  0.3408
  186MOL0     C24996  10.098  -0.160   5.844 -0.3555  0.1813 -0.5094
  186MOL0     C24997  10.227  -0.223   5.797  0.9361  0.6264 -0.3541
  186MOL0     C24998  10.273  -0.199   5.648  0.3789 -0.0174 -0.1820
  186MOL0     O24999  10.168  -0.217   5.548 -0.1055 -0.0775  0.4167
  186MOL0     C25000  10.137  -0.344   5.503  0.2129 -0.7297  0.6535
  186MOL0     C25001  10.021  -0.341   5.416  0.5297  0.2809  0.4833
  186MOL0     C25002   9.986  -0.462   5.358  0.4332  0.2117  0.3327
  186MOL0     C25003  10.045  -0.585   5.391 -0.2152  0.1160 -0.5622
  186MOL0     C25004   9.999  -0.716   5.350 -0.5806  0.0568 -0.2796
  186MOL0     O25005   9.887  -0.718   5.275 -0.3159  0.7982 -0.8918
  186MOL0     C25006   9.812  -0.831   5.271  0.4860 -0.1535 -0.3778
  186MOL0     C25007   9.707  -0.845   5.367 -0.9512  1.1305  1.0032
  186MOL0     C25008   9.637  -0.966   5.377  0.5492 -1.0723 -0.2337
  186MOL0     C25009   9.645  -1.064   5.281 -0.1831  0.0092  0.0516
  186MOL0     O25010   9.560  -1.170   5.296 -0.2451  0.0088  0.0122
  186MOL0     C25011   9.528  -1.243   5.176 -0.1882  0.5779 -0.2285
  186MOL0     C25012   9.420  -1.354   5.193 -0.3006 -0.3721  0.2282
  186MOL0     C25013   9.485  -1.468   5.264 -0.0098  0.1053 -0.6727
  186MOL0     C25014   9.481  -1.443   5.414  0.3699 -0.2805  0.6320
  186MOL0     C25015   9.572  -1.532   5.490 -0.0410  0.1091 -0.4692
  186MOL0     C25016   9.719  -1.480   5.516  0.4627 -0.4466 -0.6536
  186MOL0     C25017   9.782  -1.577   5.615 -0.1831 -0.7253 -0.4850
  186MOL0     C25018   9.929  -1.535   5.646  0.0043 -0.7439 -0.4407
  186MOL0    Cl25019  10.011  -1.682   5.705 -0.6068  0.0822  0.1685
  186MOL0     C25020   9.747  -1.055   5.182  0.4140  0.0964 -0.1351
  186MOL0     C25021   9.829  -0.938   5.172  0.4805  0.0859 -0.3432
  186MOL0     O25022  10.070  -0.820   5.386  0.0788 -0.1414 -0.0445
  186MOL0     C25023  10.161  -0.577   5.471  1.2193  0.0983  1.0414
  186MOL0     C25024  10.208  -0.459   5.523  0.7151  1.1580  0.1788
  186MOL0     N25025  10.146  -0.313   6.188 -0.1858 -0.2801  0.1667
  186MOL0     N25026  10.214  -0.267   6.280 -0.4137 -0.1499 -0.2437
  186MOL0     C25027  10.196   0.165   7.441 -0.6682  0.5686 -0.1873
  186MOL0     C25028  10.146   0.242   7.545 -0.5997  0.1039  0.1295
  186MOL0     C25029   9.762   0.374   7.784  0.6663  0.4462 -1.6418
  186MOL0     C25030   9.628   0.332   7.784 -0.3179  0.7708  0.4991
  186MOL0     C25031   9.516   0.411   7.808  0.5097 -0.9480 -0.1504
  186MOL0     C25032   9.533   0.539   7.848 -0.3767 -0.0616  0.0064
  186MOL0     O25033   9.423   0.604   7.894 -0.7301  0.2200  0.0718
  186MOL0     C25034   9.286   0.551   7.906 -0.5712 -0.8932  0.2259
  186MOL0     C25035   9.273   0.511   8.052  0.0982 -0.3687 -0.6957
  186MOL0     C25036   9.135   0.454   8.091  0.2593 -0.2963  0.5336
  186MOL0     C25037   9.133   0.431   8.246  0.0697 -0.4079 -0.0452
  186MOL0     C25038   9.227   0.331   8.292  0.2880 -0.2196 -0.1112
  186MOL0     C25039   9.296   0.237   8.317  0.2038  0.2028 -0.1775
  186MOL0     C25040   9.662   0.588   7.851 -0.0234 -0.2835  0.4672
  186MOL0     C25041   9.770   0.511   7.819  0.5831  0.4170  0.1075
  186MOL0     C25042   9.910   0.566   7.842  0.2652  1.1397  0.0958
  186MOL0     H25043   9.808   0.177   7.508 -0.2913  0.0926 -2.3543
  186MOL0     H25044   9.885   0.077   7.310 -0.8384 -1.2187  1.1767
  186MOL0     H25045  10.088  -0.146   7.246 -1.2750 -1.2413 -1.2542
  186MOL0     H25046   9.978  -0.031   7.164  0.7533  0.7788 -1.9406
  186MOL0     H25047  10.092  -0.193   7.005  2.7042 -1.7403 -2.9460
  186MOL0     H25048  10.252  -0.132   7.045  1.1789  3.0618 -1.7176
  186MOL0     H25049  10.156   0.100   6.959 -1.8886  0.1661 -0.6067
  186MOL0     H25050  10.017  -0.003   6.910 -0.5926 -1.5323  1.6072
  186MOL0     H25051  10.321  -0.019   6.834 -0.3344 -0.1535  3.5539
  186MOL0     H25052  10.193  -0.112   6.748 -1.8997  0.2047  0.8824
  186MOL0     H25053  10.071   0.090   6.684  0.9606  1.7521 -3.8887
  186MOL0     H25054  10.199   0.186   6.767  0.0177  0.9765 -0.2915
  186MOL0     H25055  10.264   0.192   6.535 -1.1333 -0.1586 -1.3789
  186MOL0     H25056  10.356   0.061   6.611  0.8944  0.2238 -0.8468
  186MOL0     H25057  10.099   0.043   6.440  1.0219  0.8128 -0.6819
  186MOL0     H25058  10.176  -0.098   6.522  1.9013  0.2747 -1.0984
  186MOL0     H25059  10.299   0.054   6.278  1.8093 -1.5368 -0.9399
  186MOL0     H25060  10.376  -0.077   6.375 -0.6227 -1.6601  1.7935
  186MOL0     H25061  10.155  -0.005   6.089  0.8859 -0.6016 -1.2067
  186MOL0     H25062  10.015  -0.334   5.948  0.0954  0.5907  0.4616
  186MOL0     H25063   9.934  -0.181   5.972 -0.6408 -0.4551 -0.6518
  186MOL0     H25064  10.022  -0.158   5.766 -0.3493  0.0172 -0.5198
  186MOL0     H25065  10.125  -0.059   5.876 -0.4231  0.0103  0.1076
  186MOL0     H25066  10.200  -0.329   5.799 -0.5959  0.9851 -0.1517
  186MOL0     H25067  10.305  -0.207   5.872  2.6460 -0.7374 -1.7633
  186MOL0     H25068  10.368  -0.245   5.617 -0.7034 -0.3398 -3.4139
  186MOL0     H25069  10.287  -0.092   5.629 -3.2829  1.2497  2.8685
  186MOL0     H25070   9.961  -0.255   5.388  0.5814  0.0372 -0.3976
  186MOL0     H25071   9.906  -0.458   5.285 -0.0275 -0.6019  0.7838
  186MOL0     H25072   9.680  -0.770   5.440  0.2785  0.3874  2.2548
  186MOL0     H25073   9.569  -0.975   5.461  0.8294 -0.4629  0.0598
  186MOL0     H25074   9.495  -1.184   5.091 -3.4897  0.3049  0.7330
  186MOL0     H25075   9.618  -1.296   5.143 -1.3240 -0.6282 -1.5018
  186MOL0     H25076   9.334  -1.330   5.257  0.0503  1.2315  0.1371
  186MOL0     H25077   9.388  -1.381   5.092 -1.4559  1.2107  0.1278
  186MOL0     H25078   9.440  -1.565   5.243 -2.4191  0.9636  0.1508
  186MOL0     H25079   9.591  -1.483   5.241 -0.1641 -2.6155  0.0100
  186MOL0     H25080   9.374  -1.444   5.436  0.1663  1.5058 -0.1464
  186MOL0     H25081   9.531  -1.347   5.425  0.8424 -0.4370 -0.0293
  186MOL0     H25082   9.588  -1.629   5.441 -1.7130 -0.0983 -0.6775
  186MOL0     H25083   9.523  -1.556   5.585 -0.1089 -2.9771 -1.1817
  186MOL0     H25084   9.771  -1.479   5.420 -0.3260 -0.5601 -1.0877
  186MOL0     H25085   9.735  -1.377   5.548  0.1953  0.2239 -2.5617
  186MOL0     H25086   9.791  -1.678   5.574 -0.4677 -1.8876  2.1212
  186MOL0     H25087   9.719  -1.578   5.704 -0.4477  0.3444 -0.6522
  186MOL0     H25088   9.970  -1.502   5.550  0.0850  0.3967 -0.0243
  186MOL0     H25089   9.931  -1.455   5.721  2.4768 -2.3095  1.3367
  186MOL0     H25090   9.759  -1.134   5.107 -0.0440 -1.4802  1.3853
  186MOL0     H25091   9.905  -0.917   5.097  0.3169 -0.1261 -0.5707
  186MOL0     H25092  10.211  -0.673   5.478 -0.4620 -1.2235 -2.4385
  186MOL0     H25093  10.306  -0.450   5.570  1.4484  0.7720 -1.2149
  186MOL0     H25094  10.303   0.170   7.423 -0.7500  1.0673 -0.5566
  186MOL0     H25095  10.212   0.294   7.614  0.8874 -1.2139 -0.2451
  186MOL0     H25096   9.587   0.233   7.764 -0.3611  0.3195  2.6285
  186MOL0     H25097   9.421   0.360   7.802 -0.1095  0.2852 -1.0944
  186MOL0     H25098   9.268   0.482   7.823 -0.9038  2.9274 -3.2166
  186MOL0     H25099   9.214   0.629   7.879  1.1846  0.3495 -1.1282
  186MOL0     H25100   9.305   0.592   8.119  3.4120 -0.2506 -2.2013
  186MOL0     H25101   9.348   0.432   8.066  1.3219  0.7127 -0.9263
  186MOL0     H25102   9.133   0.360   8.035  0.5107  1.7083 -3.1599
  186MOL0     H25103   9.050   0.516   8.060  1.1816 -0.4267 -2.5482
  186MOL0     H25104   9.165   0.523   8.296  0.7711 -0.1681 -0.8963
  186MOL0     H25105   9.032   0.406   8.279 -0.0604  1.7150  1.3870
  186MOL0     H25106   9.350   0.145   8.332 -1.2814 -0.5620  0.6385
  186MOL0     H25107   9.679   0.684   7.898  2.1655  0.4310 -1.6164
  186MOL0     H25108   9.951   0.501   7.920  0.1543  1.9175  0.8165
  186MOL0     H25109   9.968   0.560   7.750 -1.1409  1.3199 -0.8359
  186MOL0     H25110   9.920   0.668   7.882  1.4029  0.6604  1.1002
  187MOL0     O25111   0.407   7.278   6.360  0.3249  0.6399 -0.9042
  187MOL0     C25112   0.466   7.375   6.307 -0.0440 -0.3697  0.2372
  187MOL0     O25113   0.593   7.375   6.256  0.3698 -0.4111  0.9577
  187MOL0     C25114   0.694   7.284   6.292  0.5225 -0.9170  0.8155
  187MOL0     C25115   0.828   7.329   6.291  0.0121  0.5150  0.4744
  187MOL0     C25116   0.926   7.267   6.361  0.2657 -0.3295  0.7066
  187MOL0     C25117   0.909   7.135   6.412 -0.3214 -0.6592  1.2580
  187MOL0     O25118   1.015   7.066   6.454  0.1601 -0.1334  0.1388
  187MOL0     C25119   1.086   7.126   6.558 -0.8419 -0.9193 -0.2641
  187MOL0     C25120   1.227   7.084   6.552  0.3111 -0.1343 -0.0132
  187MOL0     C25121   1.303   7.125   6.429 -0.4370 -0.4222 -0.2094
  187MOL0     C25122   1.439   7.058   6.418  0.5218 -0.6260  0.8095
  187MOL0     C25123   1.526   7.087   6.299 -0.2691 -0.1340 -0.4384
  187MOL0     C25124   1.460   7.039   6.170 -0.0115 -0.0180  0.0644
  187MOL0     C25125   1.553   7.065   6.051 -0.0376 -0.2102 -0.4317
  187MOL0     C25126   1.471   7.052   5.913 -0.2322 -0.4359 -1.3288
  187MOL0     N25127   1.536   7.120   5.802 -0.3622 -0.5629  0.1970
  187MOL0     C25128   1.572   7.256   5.806 -0.6026 -0.1542 -0.9152
  187MOL0     C25129   1.575   7.291   5.677  0.1925 -0.7414 -0.1570
  187MOL0     C25130   1.607   7.429   5.619  1.2198  0.3788  0.0576
  187MOL0     C25131   1.740   7.424   5.544 -0.2412 -0.5977 -0.0014
  187MOL0     C25132   1.864   7.418   5.642 -0.3512 -0.0974 -0.0040
  187MOL0     C25133   1.988   7.366   5.575  0.4958  0.0282 -0.0037
  187MOL0     O25134   2.100   7.421   5.632  0.0052 -0.7618 -0.9333
  187MOL0     C25135   2.229   7.385   5.590  0.8936 -0.5717  0.4634
  187MOL0     C25136   2.263   7.320   5.465  0.0245 -0.3678 -0.0176
  187MOL0     C25137   2.396   7.296   5.428  0.7265 -0.3709  0.4841
  187MOL0     C25138   2.505   7.346   5.506  0.4441  0.4261 -0.8635
  187MOL0     C25139   2.650   7.317   5.473 -0.5601 -0.1196 -0.1666
  187MOL0     O25140   2.734   7.379   5.557 -0.2779  1.1441 -0.3029
  187MOL0     C25141   2.865   7.363   5.536 -0.0836  0.3316  0.0274
  187MOL0     C25142   2.947   7.474   5.504  0.3829 -0.0927  0.8087
  187MOL0     C25143   3.088   7.467   5.492 -0.8910 -0.4304  1.1394
  187MOL0     C25144   3.148   7.344   5.528  0.4255  0.2767 -0.6794
  187MOL0     O25145   3.287   7.326   5.549 -0.0730 -0.4524  0.3431
  187MOL0     C25146   3.372   7.359   5.445  0.2177  0.1018 -0.1335
  187MOL0     C25147   3.518   7.313   5.458  0.7754  0.7944 -0.4815
  187MOL0     C25148   3.590   7.341   5.595 -0.1724  0.0445 -0.0657
  187MOL0     C25149   3.747   7.295   5.580  0.0502 -0.0903 -0.8214
  187MOL0     C25150   3.825   7.293   5.713  0.2394 -0.5019 -0.4480
  187MOL0     C25151   3.967   7.246   5.690 -0.3031  0.2611 -0.3665
  187MOL0     C25152   4.050   7.266   5.812 -0.4054  0.5678 -0.2218
  187MOL0     C25153   4.186   7.190   5.812 -0.0262 -0.9687 -0.1157
  187MOL0    Cl25154   4.302   7.241   5.688 -0.2841 -0.2501  0.0232
  187MOL0     C25155   3.069   7.237   5.565 -0.6503  0.9766  0.1127
  187MOL0     C25156   2.929   7.245   5.569 -0.0246  0.3632  0.0142
  187MOL0     O25157   2.684   7.248   5.378  0.5525 -0.3907 -0.4381
  187MOL0     C25158   2.472   7.412   5.628 -0.3254  0.4161  0.4761
  187MOL0     C25159   2.342   7.433   5.663  0.5435  0.0567  0.0550
  187MOL0     N25160   1.534   7.185   5.599 -0.1613  0.2856  0.1879
  187MOL0     N25161   1.513   7.079   5.668  0.1380 -0.0353 -0.4363
  187MOL0     C25162   0.782   7.079   6.394  0.0375 -0.4341 -0.0376
  187MOL0     C25163   0.670   7.156   6.337  0.2259 -0.9062 -1.0710
  187MOL0     C25164   0.378   7.493   6.297  0.1077 -0.2673 -0.5310
  187MOL0     C25165   0.282   7.515   6.400  1.1314 -0.4721 -0.1505
  187MOL0     C25166   0.184   7.617   6.382 -0.1465  0.4527  0.1505
  187MOL0     C25167   0.179   7.710   6.279  1.3017  0.3240 -0.1674
  187MOL0     O25168   0.083   7.811   6.279  0.1007 -0.2857 -0.3247
  187MOL0     C25169   0.006   7.825   6.405  0.4004  0.2530 -0.3128
  187MOL0     C25170  -0.070   7.953   6.384  0.2397 -1.2446 -0.4777
  187MOL0     C25171  -0.166   7.964   6.268 -0.1120  0.1295 -0.0751
  187MOL0     C25172  -0.302   7.894   6.290 -0.2213 -0.0548 -0.7602
  187MOL0     C25173  -0.386   7.961   6.396 -0.1927 -0.4109  0.1084
  187MOL0     C25174  -0.457   8.016   6.475  0.1084 -0.2236 -0.3089
  187MOL0     C25175   0.273   7.693   6.187 -0.1923  0.4552  0.3798
  187MOL0     C25176   0.365   7.588   6.188 -0.0180 -0.0800  0.1957
  187MOL0     C25177   0.452   7.577   6.067  0.3862  0.4792 -0.3662
  187MOL0     H25178   0.851   7.427   6.252  2.5257 -0.6058 -1.2028
  187MOL0     H25179   1.019   7.322   6.375 -1.2336  2.5970 -0.0970
  187MOL0     H25180   1.081   7.235   6.557 -0.2476 -0.8291  1.9121
  187MOL0     H25181   1.047   7.113   6.659 -1.7886  3.0933  0.0529
  187MOL0     H25182   1.223   6.975   6.567 -0.2056 -0.3495 -1.4963
  187MOL0     H25183   1.283   7.126   6.636 -0.1417 -0.1597  0.3092
  187MOL0     H25184   1.326   7.230   6.449 -1.2990 -0.8880  4.2122
  187MOL0     H25185   1.240   7.129   6.339  2.8997  1.5988 -2.7115
  187MOL0     H25186   1.500   7.092   6.502  0.4245  2.1796 -0.1576
  187MOL0     H25187   1.416   6.951   6.412 -0.3794 -0.4183  0.3921
  187MOL0     H25188   1.540   7.195   6.292  0.4066 -0.3080 -4.4071
  187MOL0     H25189   1.619   7.032   6.315 -0.6000 -0.6736 -0.3389
  187MOL0     H25190   1.435   6.933   6.175  0.1524 -0.0549  0.1118
  187MOL0     H25191   1.371   7.101   6.151  1.9482  3.2748  0.7521
  187MOL0     H25192   1.637   6.995   6.050  0.3358  0.2041  0.5617
  187MOL0     H25193   1.592   7.167   6.060  2.1002 -0.9601 -0.6606
  187MOL0     H25194   1.441   6.948   5.900 -1.6230 -0.2216 -0.1359
  187MOL0     H25195   1.374   7.100   5.931  1.6971  3.5951 -0.4390
  187MOL0     H25196   1.605   7.328   5.880  0.9713 -0.9508 -0.7919
  187MOL0     H25197   1.529   7.452   5.546  2.1943  1.0127 -0.8105
  187MOL0     H25198   1.619   7.513   5.688 -1.7472  2.5999 -1.9071
  187MOL0     H25199   1.744   7.335   5.480  0.7584 -1.3788  1.1257
  187MOL0     H25200   1.760   7.512   5.482  0.9289  0.4698  1.8179
  187MOL0     H25201   1.846   7.353   5.729 -1.6556 -1.6848 -1.3983
  187MOL0     H25202   1.862   7.521   5.681 -1.6894 -0.7199  1.7277
  187MOL0     H25203   1.994   7.384   5.468  0.1766  2.7329  0.3400
  187MOL0     H25204   1.983   7.261   5.604 -0.0453 -0.9255 -3.1962
  187MOL0     H25205   2.193   7.278   5.393 -2.5748  1.9566  0.9716
  187MOL0     H25206   2.424   7.247   5.336 -0.3439  3.2148 -1.9400
  187MOL0     H25207   2.895   7.567   5.486  0.9484 -0.1203 -1.1221
  187MOL0     H25208   3.152   7.548   5.457 -2.6604  0.8129  0.6424
  187MOL0     H25209   3.332   7.310   5.356  1.6263 -2.6017  0.6015
  187MOL0     H25210   3.373   7.467   5.432  0.5010  0.6314  3.2469
  187MOL0     H25211   3.518   7.205   5.442 -2.8821  0.6292 -0.0651
  187MOL0     H25212   3.566   7.361   5.372  0.0597  0.2281 -1.2020
  187MOL0     H25213   3.587   7.448   5.618 -0.1040  0.0085  0.1110
  187MOL0     H25214   3.546   7.274   5.669  3.0319 -0.6535  1.3661
  187MOL0     H25215   3.793   7.373   5.519  0.6883  1.6773  1.7349
  187MOL0     H25216   3.745   7.196   5.533 -1.3984  0.0140 -1.0201
  187MOL0     H25217   3.779   7.220   5.781 -0.7639  1.3685  0.9596
  187MOL0     H25218   3.823   7.392   5.758  2.4678  1.3698 -4.0503
  187MOL0     H25219   3.969   7.138   5.672  0.1250  0.2856 -0.4781
  187MOL0     H25220   4.010   7.289   5.599 -2.1202 -0.5058 -1.6396
  187MOL0     H25221   4.000   7.223   5.900  0.7499 -3.3664 -1.2955
  187MOL0     H25222   4.069   7.374   5.814  3.2669  0.0461 -1.3741
  187MOL0     H25223   4.240   7.218   5.903 -3.1627  1.7135  1.1080
  187MOL0     H25224   4.171   7.083   5.831 -0.6343 -0.9472 -0.4482
  187MOL0     H25225   3.123   7.151   5.604  2.2426  2.2238 -0.8337
  187MOL0     H25226   2.864   7.167   5.607 -2.8830  2.2674 -0.7375
  187MOL0     H25227   2.547   7.456   5.693 -0.5289 -0.9387  1.6594
  187MOL0     H25228   2.319   7.479   5.758  0.0314  5.2067 -2.2594
  187MOL0     H25229   0.764   6.987   6.448 -1.0779  1.4831  3.1331
  187MOL0     H25230   0.573   7.109   6.341 -1.3734  2.2219  0.9375
  187MOL0     H25231   0.272   7.447   6.484 -2.7103 -0.5993 -0.5185
  187MOL0     H25232   0.098   7.618   6.449  0.9339 -2.5655  1.7960
  187MOL0     H25233   0.066   7.830   6.496 -1.7274 -3.2573  1.5142
  187MOL0     H25234  -0.073   7.750   6.418 -1.9173  2.7370  0.9602
  187MOL0     H25235  -0.007   8.041   6.367 -1.0569 -0.5294 -1.8595
  187MOL0     H25236  -0.125   7.964   6.477  3.3381 -1.9795  1.5781
  187MOL0     H25237  -0.122   7.934   6.172  1.6262  0.9263  0.4412
  187MOL0     H25238  -0.197   8.068   6.255 -0.1265  0.2152  0.6384
  187MOL0     H25239  -0.360   7.879   6.198  0.9648 -1.4564 -1.3379
  187MOL0     H25240  -0.277   7.789   6.312  0.4256  0.4217  0.8911
  187MOL0     H25241  -0.518   8.057   6.553  1.4140  1.2217  0.0177
  187MOL0     H25242   0.273   7.756   6.098  2.3914  0.2863  0.1661
  187MOL0     H25243   0.552   7.605   6.101  0.2462 -0.2001  0.6482
  187MOL0     H25244   0.443   7.474   6.029  0.2953 -0.2013  1.4171
  187MOL0     H25245   0.435   7.643   5.982  0.6271  1.5361  0.3882
  188MOL0     O25246  11.136   7.282  10.316 -0.3746  0.8705  0.1950
  188MOL0     C25247  11.057   7.208  10.372  0.5385  0.3733 -0.2529
  188MOL0     O25248  11.046   7.207  10.511  0.5808  0.9258  0.4728
  188MOL0     C25249  11.159   7.222  10.581  0.6755 -0.2113 -1.3435
  188MOL0     C25250  11.287   7.165  10.550  0.2358  0.6415  0.6937
  188MOL0     C25251  11.394   7.162  10.629 -0.2396 -0.3551 -0.4142
  188MOL0     C25252  11.390   7.224  10.755 -0.4975  0.9475 -0.7284
  188MOL0     O25253  11.477   7.237  10.858 -0.0453 -0.1315  0.0499
  188MOL0     C25254  11.610   7.174  10.848  0.6112 -0.8725 -1.1118
  188MOL0     C25255  11.712   7.256  10.927 -0.4772 -0.5836  0.0783
  188MOL0     C25256  11.781   7.347  10.827 -0.1213  0.7299 -0.2767
  188MOL0     C25257  11.690   7.441  10.753  0.4609 -0.4331 -0.0741
  188MOL0     C25258  11.766   7.522  10.649  0.2935  0.7959  0.1321
  188MOL0     C25259  11.895   7.590  10.717 -0.4696  0.3170 -0.4941
  188MOL0     C25260  11.948   7.710  10.642 -0.2938  0.0025 -0.1745
  188MOL0     C25261  12.094   7.688  10.604 -0.5105  0.4622 -0.1096
  188MOL0     N25262  12.191   7.718  10.711  0.7304 -0.5339  0.1582
  188MOL0     C25263  12.290   7.813  10.696 -0.0470  0.7326 -0.7529
  188MOL0     C25264  12.392   7.783  10.786 -0.3919  0.0011 -0.1017
  188MOL0     C25265  12.524   7.862  10.813  0.8538 -0.2943 -0.0883
  188MOL0     C25266  12.513   7.951  10.932  0.2047  0.3475 -0.5775
  188MOL0     C25267  12.648   8.018  10.975 -0.1632 -0.0493 -0.2855
  188MOL0     C25268  12.702   8.115  10.876  0.2792 -0.4009  0.8499
  188MOL0     O25269  12.607   8.223  10.872  0.6475 -0.1655  0.3013
  188MOL0     C25270  12.651   8.347  10.911 -0.3565  0.5635 -0.1536
  188MOL0     C25271  12.749   8.417  10.842 -0.7358  0.1407  0.2296
  188MOL0     C25272  12.785   8.542  10.882  0.4622 -0.6771  0.0985
  188MOL0     C25273  12.715   8.610  10.989  0.4821  0.2332  0.5917
  188MOL0     C25274  12.765   8.722  11.058 -0.3468 -0.5321  0.0760
  188MOL0     O25275  12.803   8.826  10.975 -0.2619 -0.2668  0.2822
  188MOL0     C25276  12.847   8.942  11.036  0.9820 -0.2270 -0.3180
  188MOL0     C25277  12.761   9.032  11.098  0.2109  0.5529  0.4613
  188MOL0     C25278  12.801   9.163  11.136  0.4222 -0.3790 -0.6237
  188MOL0     C25279  12.934   9.207  11.114 -0.0608 -0.5017  0.2863
  188MOL0     O25280  12.987   9.330  11.147 -0.1298 -0.5017 -0.2261
  188MOL0     C25281  12.898   9.440  11.158 -0.5434  0.5348 -0.4293
  188MOL0     C25282  12.812   9.458  11.025 -0.3134 -0.3485 -0.4435
  188MOL0     C25283  12.738   9.592  11.013  0.1698 -0.8330  0.0162
  188MOL0     C25284  12.637   9.612  11.137  0.7473  0.1584  0.5534
  188MOL0     C25285  12.546   9.733  11.116 -0.2084  0.5177  0.7605
  188MOL0     C25286  12.618   9.862  11.151  0.2123 -0.6064 -0.4747
  188MOL0     C25287  12.540   9.992  11.116  0.3097 -0.0208 -0.1608
  188MOL0     C25288  12.599  10.097  11.017 -0.0293  0.0182 -0.0891
  188MOL0    Cl25289  12.592  10.048  10.850  0.1198  0.0230  0.4179
  188MOL0     C25290  13.027   9.108  11.074  0.1300  0.0938 -0.6771
  188MOL0     C25291  12.981   8.982  11.029 -0.3340  0.6188 -0.2440
  188MOL0     O25292  12.762   8.726  11.180  0.0115  0.4285 -0.4774
  188MOL0     C25293  12.618   8.540  11.059  0.2676  0.9937  0.1407
  188MOL0     C25294  12.582   8.409  11.013 -0.4774  0.6514  0.5414
  188MOL0     N25295  12.361   7.663  10.844 -1.0661 -0.3678  0.2287
  188MOL0     N25296  12.243   7.630  10.800  0.6216 -0.3724 -0.1912
  188MOL0     C25297  11.267   7.286  10.789  0.8686  0.0328 -0.1622
  188MOL0     C25298  11.149   7.284  10.706  0.2961 -0.3197 -0.1521
  188MOL0     C25299  10.961   7.135  10.294  0.4115 -0.4921  0.2030
  188MOL0     C25300  10.843   7.083  10.360  0.0771 -0.0857 -0.0908
  188MOL0     C25301  10.753   7.008  10.286 -0.4868 -0.3255 -0.4379
  188MOL0     C25302  10.768   6.994  10.151  0.1266  0.6499  0.4853
  188MOL0     O25303  10.666   6.926  10.081 -0.2689  0.5252 -0.0204
  188MOL0     C25304  10.643   6.955   9.941 -0.5018 -0.6477  0.4041
  188MOL0     C25305  10.546   7.064   9.920 -0.2561 -0.7081 -0.3106
  188MOL0     C25306  10.419   7.040  10.001 -0.6391 -0.4464  0.2131
  188MOL0     C25307  10.306   7.142   9.967  0.0838  0.6533  0.4001
  188MOL0     C25308  10.172   7.099  10.024  0.3568  1.2815 -0.1470
  188MOL0     C25309  10.057   7.076  10.055  0.0963  0.3134 -0.3336
  188MOL0     C25310  10.883   7.044  10.084 -0.8128 -0.2809  0.1791
  188MOL0     C25311  10.978   7.115  10.155 -0.0196  0.8496 -0.3043
  188MOL0     C25312  11.093   7.156  10.061 -0.9509 -0.8250  0.8351
  188MOL0     H25313  11.298   7.125  10.449  2.3772 -0.6821  1.4049
  188MOL0     H25314  11.483   7.108  10.598  0.4156  1.1780 -1.2922
  188MOL0     H25315  11.601   7.079  10.902 -3.9912  0.5562  1.1293
  188MOL0     H25316  11.653   7.152  10.750 -0.8265  1.2996 -2.2992
  188MOL0     H25317  11.786   7.190  10.974  0.4376  0.2634 -0.1485
  188MOL0     H25318  11.677   7.325  11.004  1.5211  2.1847 -1.3194
  188MOL0     H25319  11.839   7.277  10.767 -1.1433  0.1113 -0.5704
  188MOL0     H25320  11.850   7.409  10.885 -1.4428 -0.2530  2.4761
  188MOL0     H25321  11.602   7.394  10.707 -1.0533  1.3976  0.7703
  188MOL0     H25322  11.648   7.508  10.829  0.3729  1.0392 -1.3709
  188MOL0     H25323  11.791   7.460  10.562 -0.6682  1.6115 -0.7495
  188MOL0     H25324  11.712   7.602  10.598  2.8872  2.1376 -0.6890
  188MOL0     H25325  11.862   7.619  10.817  0.8811  0.4562 -0.0611
  188MOL0     H25326  11.984   7.528  10.728 -1.5252 -0.8654  2.1844
  188MOL0     H25327  11.945   7.797  10.708 -3.3065 -0.8538  1.0033
  188MOL0     H25328  11.886   7.729  10.554 -1.9913 -0.6360  0.8387
  188MOL0     H25329  12.116   7.586  10.570 -0.6598 -0.7637  3.1548
  188MOL0     H25330  12.115   7.760  10.524 -3.9723  2.6580  0.7330
  188MOL0     H25331  12.274   7.904  10.639  0.4514  2.7098  2.0342
  188MOL0     H25332  12.600   7.784  10.821  0.0783 -1.5128 -3.1709
  188MOL0     H25333  12.544   7.906  10.715  2.3121  0.2068  0.3997
  188MOL0     H25334  12.442   8.031  10.910 -0.9631  0.5177  3.1837
  188MOL0     H25335  12.482   7.896  11.021  0.8663  0.4075 -0.3041
  188MOL0     H25336  12.727   7.943  10.993 -1.2248 -0.9911  0.6079
  188MOL0     H25337  12.633   8.072  11.068  2.6942 -1.0376  0.8702
  188MOL0     H25338  12.716   8.067  10.779 -1.0468  1.8808 -0.5552
  188MOL0     H25339  12.797   8.149  10.918  1.9660 -1.7314 -1.5963
  188MOL0     H25340  12.799   8.381  10.753  1.2316 -0.4512  1.5269
  188MOL0     H25341  12.853   8.602  10.823 -2.4485  0.6990 -2.1274
  188MOL0     H25342  12.656   9.007  11.110 -0.0903  1.5395  0.0180
  188MOL0     H25343  12.741   9.232  11.195  1.3917 -2.5634  3.3116
  188MOL0     H25344  12.825   9.439  11.238 -1.1225  0.9938 -0.9453
  188MOL0     H25345  12.967   9.523  11.177 -0.8560  1.3837 -2.6367
  188MOL0     H25346  12.877   9.446  10.938  0.2162 -1.5613  0.1032
  188MOL0     H25347  12.732   9.384  11.015 -0.7005 -0.3901  2.3239
  188MOL0     H25348  12.799   9.676  10.980 -1.5096 -0.9137 -3.8059
  188MOL0     H25349  12.670   9.575  10.928 -0.1855 -0.5584  0.2427
  188MOL0     H25350  12.681   9.632  11.235  0.0594  0.4371  0.8116
  188MOL0     H25351  12.593   9.513  11.146 -0.1520  0.4911  0.0090
  188MOL0     H25352  12.458   9.716  11.179  0.5726  0.7046  1.9177
  188MOL0     H25353  12.509   9.734  11.013  0.2563 -1.0542  0.5578
  188MOL0     H25354  12.613   9.859  11.260  0.1914  1.7907 -0.3559
  188MOL0     H25355  12.717   9.871  11.106  0.1594  1.0435 -0.3151
  188MOL0     H25356  12.541  10.041  11.213  0.3348 -0.7036  0.1872
  188MOL0     H25357  12.433   9.972  11.103 -0.0770  0.3883  2.0242
  188MOL0     H25358  12.553  10.193  11.041 -0.1040  0.0445 -0.3414
  188MOL0     H25359  12.707  10.104  11.034  0.4536  0.2868 -2.8042
  188MOL0     H25360  13.130   9.142  11.079 -0.3567  1.6180 -0.8088
  188MOL0     H25361  13.053   8.918  10.978 -1.0426  1.1277 -1.9575
  188MOL0     H25362  12.570   8.568  11.152 -2.1228 -2.9101  0.2952
  188MOL0     H25363  12.504   8.352  11.063 -0.9953  1.7585  1.0491
  188MOL0     H25364  11.256   7.342  10.882  3.6265  0.2309  0.1215
  188MOL0     H25365  11.053   7.326  10.737  0.6584 -0.3277  1.0544
  188MOL0     H25366  10.827   7.099  10.466  1.2767 -2.4586  0.5101
  188MOL0     H25367  10.664   6.964  10.331 -0.7613 -0.8452 -1.4556
  188MOL0     H25368  10.610   6.864   9.890  3.9697 -2.4566  0.2940
  188MOL0     H25369  10.736   6.976   9.887 -1.1179  0.6039 -0.1898
  188MOL0     H25370  10.529   7.074   9.812  3.8849 -1.2032 -1.1929
  188MOL0     H25371  10.596   7.156   9.952 -0.4998 -0.4398 -0.6970
  188MOL0     H25372  10.447   7.041  10.106 -1.1611 -2.4344  0.4145
  188MOL0     H25373  10.387   6.941   9.968  1.1470 -0.3929 -1.9788
  188MOL0     H25374  10.337   7.238  10.010 -1.2112  1.4260 -0.3242
  188MOL0     H25375  10.307   7.158   9.859  0.5320  0.7621  0.4169
  188MOL0     H25376   9.954   7.063  10.080 -0.7229  2.4037 -2.2958
  188MOL0     H25377  10.910   7.031   9.980 -1.3761 -3.7743  0.3592
  188MOL0     H25378  11.186   7.135  10.116  0.6070  4.2761  0.7599
  188MOL0     H25379  11.094   7.105   9.965 -0.1105  0.5422  0.0850
  188MOL0     H25380  11.098   7.265  10.053 -2.1217 -0.5936  2.5359
  189MOL0     O25381   2.971  11.128   1.679 -0.3434  0.0245  0.1442
  189MOL0     C25382   2.916  11.238   1.673 -0.1082 -0.4715  0.7130
  189MOL0     O25383   2.944  11.344   1.756 -0.0722  0.6831  0.1482
  189MOL0     C25384   3.045  11.343   1.855 -0.4289  0.4910 -0.1143
  189MOL0     C25385   3.158  11.254   1.853 -0.1651  1.2784 -0.0997
  189MOL0     C25386   3.259  11.264   1.947  0.1247  0.6635 -0.3694
  189MOL0     C25387   3.256  11.374   2.037  0.8041  0.1794  0.3378
  189MOL0     O25388   3.339  11.371   2.143  0.0446  0.0388  0.4003
  189MOL0     C25389   3.432  11.486   2.157  0.2039 -0.2175  0.3954
  189MOL0     C25390   3.564  11.453   2.094 -0.1598  0.5126  0.3039
  189MOL0     C25391   3.661  11.545   2.152 -1.0149 -0.2238  0.2903
  189MOL0     C25392   3.640  11.695   2.119 -0.2366  0.0636  0.6671
  189MOL0     C25393   3.776  11.770   2.142 -0.6482  0.3252  0.5993
  189MOL0     C25394   3.763  11.930   2.149 -0.0109 -0.3923  0.3245
  189MOL0     C25395   3.886  12.003   2.225  0.2283  0.8178  0.8422
  189MOL0     C25396   3.849  12.026   2.373 -0.1980 -0.3719  0.5594
  189MOL0     N25397   3.965  12.088   2.443 -0.8310 -0.6305  0.3454
  189MOL0     C25398   4.090  12.030   2.458  1.1413  0.2240  0.6106
  189MOL0     C25399   4.153  12.091   2.557  0.6884 -0.2004  0.0127
  189MOL0     C25400   4.297  12.092   2.614  0.3586  0.4020  0.4519
  189MOL0     C25401   4.387  11.988   2.560  0.4209 -0.3881  0.1290
  189MOL0     C25402   4.454  12.035   2.424  0.5643 -0.5132 -0.6698
  189MOL0     C25403   4.558  11.931   2.388 -0.5278  0.6178  0.3678
  189MOL0     O25404   4.637  11.983   2.283  0.0811 -0.7366  0.3468
  189MOL0     C25405   4.739  11.908   2.250 -1.2793  0.3814  0.2751
  189MOL0     C25406   4.832  11.969   2.167 -0.0088  0.3458 -0.4356
  189MOL0     C25407   4.970  11.924   2.151  0.1492  0.0904  0.2533
  189MOL0     C25408   5.008  11.799   2.218  0.6966 -1.0194  0.5986
  189MOL0     C25409   5.142  11.744   2.194  0.2810  0.4490 -0.2764
  189MOL0     O25410   5.220  11.812   2.117  0.1742 -0.1669  0.2197
  189MOL0     C25411   5.353  11.795   2.122  0.1253  0.7099  0.1173
  189MOL0     C25412   5.419  11.802   2.244  0.5238 -0.7790 -0.2810
  189MOL0     C25413   5.561  11.784   2.241 -1.0032  0.5398 -0.3616
  189MOL0     C25414   5.633  11.766   2.122  0.0659  0.1554  0.0158
  189MOL0     O25415   5.761  11.720   2.113 -0.3030 -0.1343 -0.4907
  189MOL0     C25416   5.855  11.796   2.193  0.4134  0.3607  0.5392
  189MOL0     C25417   5.982  11.789   2.118  0.1996  1.3044  0.2611
  189MOL0     C25418   6.107  11.828   2.203  0.1517 -0.0332 -0.5755
  189MOL0     C25419   6.230  11.888   2.137 -0.2223 -0.3794 -0.2618
  189MOL0     C25420   6.350  11.892   2.229  0.1337  0.2460 -0.4273
  189MOL0     C25421   6.466  11.965   2.156  0.1732 -0.1736  0.8382
  189MOL0     C25422   6.591  11.956   2.232  0.1867 -0.6363 -0.3067
  189MOL0     C25423   6.585  12.027   2.379 -0.1765 -0.4622 -0.8453
  189MOL0    Cl25424   6.533  11.917   2.507  0.3724  0.1819  0.1320
  189MOL0     C25425   5.560  11.752   2.000 -0.5361  0.4405 -0.1533
  189MOL0     C25426   5.423  11.775   2.005  1.0330 -0.3531 -0.0553
  189MOL0     O25427   5.172  11.629   2.234 -0.5122  0.3115  0.1223
  189MOL0     C25428   4.909  11.731   2.292 -1.0344  0.0645  0.7678
  189MOL0     C25429   4.780  11.782   2.309 -0.2493  0.5000 -0.3276
  189MOL0     N25430   4.057  12.164   2.625 -1.0764  0.1192 -0.7170
  189MOL0     N25431   3.956  12.175   2.551 -0.0568  0.0384 -0.2137
  189MOL0     C25432   3.154  11.469   2.035  0.2440  0.0540 -0.0607
  189MOL0     C25433   3.046  11.449   1.945  0.5725 -0.8661 -0.1419
  189MOL0     C25434   2.837  11.267   1.541  0.2182 -0.2804  0.2394
  189MOL0     C25435   2.814  11.406   1.513  0.5521 -0.3406 -0.5041
  189MOL0     C25436   2.746  11.454   1.402  0.1204  0.9885 -0.2888
  189MOL0     C25437   2.684  11.359   1.318  1.2035 -0.4446 -0.7354
  189MOL0     O25438   2.603  11.422   1.218  0.2005  0.0691  0.0656
  189MOL0     C25439   2.513  11.348   1.136  0.3885  0.4271  0.2152
  189MOL0     C25440   2.416  11.450   1.070  0.1825 -0.3706 -0.2445
  189MOL0     C25441   2.324  11.387   0.957  0.2857  1.0901  0.6705
  189MOL0     C25442   2.178  11.411   0.999  0.0962 -0.1807  0.0808
  189MOL0     C25443   2.098  11.350   0.896 -0.0573 -0.0210  1.1914
  189MOL0     C25444   2.024  11.302   0.810  0.2438 -0.4587  0.3634
  189MOL0     C25445   2.706  11.221   1.338 -0.3278  0.1475 -0.7505
  189MOL0     C25446   2.778  11.173   1.448 -0.1694 -0.3973 -0.9642
  189MOL0     C25447   2.784  11.023   1.465  0.3086 -0.3103 -0.0483
  189MOL0     H25448   3.173  11.189   1.768  0.7890 -1.2278  1.8375
  189MOL0     H25449   3.331  11.184   1.966 -0.4867  0.4599  1.3154
  189MOL0     H25450   3.386  11.575   2.111 -0.0752  0.3057  1.6301
  189MOL0     H25451   3.444  11.513   2.262  0.7273  0.6049  0.1354
  189MOL0     H25452   3.544  11.464   1.987  3.0594 -1.8159 -0.6797
  189MOL0     H25453   3.596  11.349   2.108  0.1832  0.5693 -0.0369
  189MOL0     H25454   3.755  11.515   2.106 -0.5415  3.0593 -1.1593
  189MOL0     H25455   3.672  11.549   2.261  1.1823  0.7053  0.0840
  189MOL0     H25456   3.600  11.689   2.017 -1.8726 -0.3725  1.2984
  189MOL0     H25457   3.570  11.754   2.178  0.4581  2.7347 -1.0103
  189MOL0     H25458   3.811  11.738   2.241 -1.4813  1.5098  1.3140
  189MOL0     H25459   3.852  11.732   2.073 -2.0941  0.2775 -1.0313
  189MOL0     H25460   3.761  11.965   2.045  1.2952 -2.5606 -0.5127
  189MOL0     H25461   3.666  11.951   2.195 -0.2655 -1.4476  0.3052
  189MOL0     H25462   3.886  12.103   2.180  2.4810  0.7774  0.6456
  189MOL0     H25463   3.977  11.944   2.210  0.2289  1.5380 -3.0208
  189MOL0     H25464   3.768  12.098   2.387  0.5698  0.4058  1.1204
  189MOL0     H25465   3.822  11.929   2.417 -2.2469 -2.1237 -3.9633
  189MOL0     H25466   4.124  11.954   2.389 -2.3636 -1.0292  0.0301
  189MOL0     H25467   4.346  12.189   2.600 -1.4225  1.0979 -1.6748
  189MOL0     H25468   4.297  12.080   2.723  5.2875 -3.1965  0.3850
  189MOL0     H25469   4.473  11.972   2.627  2.5604 -0.4830 -2.4544
  189MOL0     H25470   4.337  11.891   2.550  1.5129 -0.9838  0.2451
  189MOL0     H25471   4.492  12.137   2.440  2.1435 -0.7649 -2.5538
  189MOL0     H25472   4.378  12.042   2.346 -3.2714  4.1859  2.8423
  189MOL0     H25473   4.515  11.835   2.356  2.9632 -0.0383 -3.2484
  189MOL0     H25474   4.620  11.907   2.475  0.9404 -0.7897 -0.9976
  189MOL0     H25475   4.807  12.048   2.097  1.5328  0.7425 -0.5803
  189MOL0     H25476   5.039  11.977   2.086  1.5664 -2.2157 -0.2562
  189MOL0     H25477   5.371  11.826   2.338  1.0606 -3.4892  0.8067
  189MOL0     H25478   5.627  11.781   2.327  1.6243 -2.1251 -2.2591
  189MOL0     H25479   5.818  11.899   2.195 -2.0572 -0.3926  4.4130
  189MOL0     H25480   5.855  11.759   2.296  0.5804 -0.5609  0.2129
  189MOL0     H25481   5.995  11.685   2.087  1.1765  1.7192 -0.7695
  189MOL0     H25482   5.984  11.841   2.022 -0.0678  1.2982  0.2527
  189MOL0     H25483   6.082  11.903   2.279 -0.3285  1.5716 -2.2561
  189MOL0     H25484   6.136  11.733   2.248 -1.6383 -0.6076 -0.5771
  189MOL0     H25485   6.209  11.988   2.097 -1.6967 -0.3591  0.5075
  189MOL0     H25486   6.260  11.830   2.049 -1.7286 -0.8287 -0.4907
  189MOL0     H25487   6.377  11.787   2.243 -0.3385  0.1359 -0.3248
  189MOL0     H25488   6.318  11.928   2.327 -0.0040 -0.5527 -0.1718
  189MOL0     H25489   6.484  11.926   2.055 -3.1996 -0.4411  0.2143
  189MOL0     H25490   6.428  12.068   2.152 -4.6257 -1.5471  3.4335
  189MOL0     H25491   6.658  12.020   2.174 -0.9750  0.6090 -0.3057
  189MOL0     H25492   6.638  11.857   2.234  1.1989 -0.1776 -0.5667
  189MOL0     H25493   6.679  12.081   2.393  0.1212 -0.7657 -1.5885
  189MOL0     H25494   6.505  12.101   2.383  1.0510  0.9314 -1.3156
  189MOL0     H25495   5.600  11.727   1.903  1.4918  2.7386 -0.0041
  189MOL0     H25496   5.375  11.775   1.907  2.1943  1.2394 -0.6602
  189MOL0     H25497   4.930  11.639   2.345 -0.4230 -0.4245 -0.3007
  189MOL0     H25498   4.718  11.726   2.378  0.3084 -1.0319 -1.0271
  189MOL0     H25499   3.137  11.538   2.116 -2.8207 -0.5250 -0.0988
  189MOL0     H25500   2.970  11.526   1.950 -0.9597 -2.3189  4.0319
  189MOL0     H25501   2.868  11.478   1.574  0.2565 -1.4343  1.1038
  189MOL0     H25502   2.726  11.560   1.389 -1.2562  0.8222  0.2739
  189MOL0     H25503   2.460  11.274   1.196 -0.3563 -1.0314 -2.0762
  189MOL0     H25504   2.563  11.283   1.063  0.8063  0.6051  0.3365
  189MOL0     H25505   2.470  11.520   1.006 -2.7979  0.7367 -1.7362
  189MOL0     H25506   2.354  11.502   1.144  1.0244 -1.4904  1.3139
  189MOL0     H25507   2.340  11.279   0.946 -2.0232  0.7762 -0.1685
  189MOL0     H25508   2.337  11.437   0.860 -2.0081  0.7879  0.1601
  189MOL0     H25509   2.158  11.353   1.089  0.2820  0.8382  0.8076
  189MOL0     H25510   2.161  11.517   1.023  0.4357  0.3796 -1.9491
  189MOL0     H25511   1.967  11.267   0.726  1.3864 -1.1456 -0.1507
  189MOL0     H25512   2.684  11.153   1.256 -0.8980  1.7060 -1.9436
  189MOL0     H25513   2.744  10.965   1.381  0.1515 -2.7698  1.6140
  189MOL0     H25514   2.890  11.006   1.484  0.7052  0.5632 -1.3480
  189MOL0     H25515   2.725  10.985   1.549 -0.4439  0.0500 -0.4052
  190MOL0     O25516   3.615   5.780   6.980 -0.1097 -0.2503  0.6140
  190MOL0     C25517   3.622   5.765   6.857  0.3906 -0.0315 -0.4860
  190MOL0     O25518   3.512   5.755   6.777 -0.0497 -0.3306 -0.0544
  190MOL0     C25519   3.386   5.737   6.836 -0.3567  0.1802  0.1770
  190MOL0     C25520   3.313   5.845   6.896  0.6177  0.2353 -0.2454
  190MOL0     C25521   3.185   5.824   6.943  0.6850 -0.9133 -0.8810
  190MOL0     C25522   3.120   5.699   6.931  0.9419 -0.1478 -0.3182
  190MOL0     O25523   3.005   5.676   7.010 -0.3185  0.1714  0.7795
  190MOL0     C25524   2.886   5.615   6.952 -0.0163  0.2758  0.0789
  190MOL0     C25525   2.808   5.567   7.074 -0.6346  0.1157 -0.7032
  190MOL0     C25526   2.756   5.671   7.170  0.7355 -0.2682 -1.1517
  190MOL0     C25527   2.656   5.619   7.272 -0.6401  0.2736  0.4816
  190MOL0     C25528   2.618   5.710   7.393 -0.1176 -0.3885 -0.0745
  190MOL0     C25529   2.734   5.741   7.487 -0.4936  1.3349  0.1002
  190MOL0     C25530   2.780   5.622   7.570 -0.2237  1.0402 -0.5183
  190MOL0     C25531   2.893   5.671   7.667  0.0050 -0.0729  0.1137
  190MOL0     N25532   3.016   5.720   7.603 -0.5109  0.6680  0.0649
  190MOL0     C25533   3.061   5.675   7.472  0.0258 -0.5964 -0.3128
  190MOL0     C25534   3.176   5.750   7.461  0.5674 -0.0541 -0.5589
  190MOL0     C25535   3.272   5.744   7.335 -0.1807  0.4851 -0.3375
  190MOL0     C25536   3.352   5.608   7.327  1.4132  0.1135  0.0149
  190MOL0     C25537   3.369   5.562   7.182 -0.1812  0.6056 -1.0865
  190MOL0     C25538   3.517   5.523   7.160  0.0881  0.0539 -0.1426
  190MOL0     O25539   3.515   5.479   7.016 -0.5099  0.8412 -0.1177
  190MOL0     C25540   3.636   5.432   6.965  0.2113 -0.5724 -0.2522
  190MOL0     C25541   3.764   5.440   7.029 -0.5518  0.0151  0.0860
  190MOL0     C25542   3.880   5.408   6.960  0.1567 -0.2420  0.3667
  190MOL0     C25543   3.872   5.385   6.818 -0.4359 -0.0349 -0.0514
  190MOL0     C25544   4.001   5.369   6.745  0.0175  0.3616  0.1839
  190MOL0     O25545   3.984   5.304   6.627 -0.4999  0.2328  0.0537
  190MOL0     C25546   4.078   5.308   6.527 -0.3000  0.2052  0.0300
  190MOL0     C25547   4.084   5.191   6.441  0.3459 -0.3438  0.2116
  190MOL0     C25548   4.171   5.188   6.333  0.5626  0.8891 -0.2167
  190MOL0     C25549   4.250   5.296   6.299  0.5526 -0.2296 -1.0418
  190MOL0     O25550   4.319   5.296   6.183 -0.3779  0.1521  0.2494
  190MOL0     C25551   4.436   5.208   6.184  0.6056  0.6157 -0.1737
  190MOL0     C25552   4.500   5.231   6.046  0.1122  0.4747  0.7988
  190MOL0     C25553   4.635   5.167   6.047  0.9522 -0.3792 -0.0461
  190MOL0     C25554   4.685   5.195   5.903  0.3509  0.1791 -0.4046
  190MOL0     C25555   4.823   5.147   5.874 -0.0344 -0.5989 -0.4638
  190MOL0     C25556   4.829   5.001   5.858 -0.7084  0.0992 -0.5806
  190MOL0     C25557   4.974   4.960   5.877 -0.4526 -0.1261 -0.1573
  190MOL0     C25558   4.993   4.813   5.923  0.8781 -0.5986 -0.6041
  190MOL0    Cl25559   4.932   4.789   6.086  0.5403  0.0819  0.5779
  190MOL0     C25560   4.252   5.407   6.386 -0.1254 -0.3555 -0.5854
  190MOL0     C25561   4.166   5.415   6.499  0.4530 -0.4282  0.5312
  190MOL0     O25562   4.103   5.430   6.781 -0.2237  0.4091 -0.0697
  190MOL0     C25563   3.747   5.368   6.759  0.4359 -0.3695  0.2850
  190MOL0     C25564   3.628   5.399   6.835  0.6634 -0.3680 -0.0508
  190MOL0     N25565   3.193   5.830   7.576  0.2485 -0.2600 -0.1518
  190MOL0     N25566   3.098   5.814   7.660  0.3717  0.1816 -0.3850
  190MOL0     C25567   3.192   5.595   6.871  0.7800 -0.3293 -0.5442
  190MOL0     C25568   3.322   5.611   6.825 -0.1277  0.5114 -0.3673
  190MOL0     C25569   3.753   5.759   6.793  0.1190  0.6865  0.3266
  190MOL0     C25570   3.860   5.785   6.879 -0.9320  0.0654  0.3841
  190MOL0     C25571   3.992   5.787   6.833  0.2830 -0.5901  0.5237
  190MOL0     C25572   4.021   5.752   6.702 -0.0212  0.2155  0.5955
  190MOL0     O25573   4.148   5.746   6.648  0.2705 -1.0318 -0.2126
  190MOL0     C25574   4.264   5.740   6.730  0.1546 -0.2636 -0.3813
  190MOL0     C25575   4.392   5.711   6.641  0.3142 -0.2364 -0.3568
  190MOL0     C25576   4.411   5.817   6.533  0.4414 -0.4328  0.2233
  190MOL0     C25577   4.477   5.931   6.605  0.8155  0.3857 -0.2265
  190MOL0     C25578   4.601   5.974   6.538 -0.3174 -0.8917  0.4777
  190MOL0     C25579   4.703   6.020   6.485  0.5860 -0.4170  0.1409
  190MOL0     C25580   3.921   5.728   6.615  0.7326 -0.1904  0.2908
  190MOL0     C25581   3.782   5.733   6.649  0.5799 -0.5767 -0.0974
  190MOL0     C25582   3.676   5.706   6.550  0.4482  0.2027 -0.5429
  190MOL0     H25583   3.370   5.937   6.910 -0.9443  1.3830 -1.1427
  190MOL0     H25584   3.125   5.900   6.991 -1.6165 -2.7041 -0.7270
  190MOL0     H25585   2.821   5.685   6.899 -1.8667 -1.6253 -0.3090
  190MOL0     H25586   2.903   5.529   6.887 -2.0821 -1.0224  1.1399
  190MOL0     H25587   2.864   5.496   7.135  3.9003  1.9480 -2.3020
  190MOL0     H25588   2.730   5.501   7.034  0.8703 -1.2931 -1.4457
  190MOL0     H25589   2.707   5.757   7.124  2.0315  0.6356 -0.8771
  190MOL0     H25590   2.843   5.702   7.229 -1.4982  0.0215  2.2862
  190MOL0     H25591   2.559   5.615   7.220  0.0841 -0.7877 -0.8257
  190MOL0     H25592   2.671   5.512   7.288  0.3376 -0.1522 -2.6916
  190MOL0     H25593   2.577   5.805   7.358 -1.8966  0.3374  3.4636
  190MOL0     H25594   2.531   5.668   7.444 -0.9842  1.2962 -0.0829
  190MOL0     H25595   2.822   5.792   7.447 -0.4618  1.5994  0.5006
  190MOL0     H25596   2.687   5.815   7.552 -2.2513  1.4913 -1.2703
  190MOL0     H25597   2.818   5.536   7.514  0.5959  1.0436  0.0132
  190MOL0     H25598   2.689   5.591   7.622 -0.9259  2.4004 -0.9032
  190MOL0     H25599   2.852   5.740   7.742  3.2039  1.0810  0.9707
  190MOL0     H25600   2.923   5.583   7.725  2.8424  1.4183  1.0802
  190MOL0     H25601   3.024   5.602   7.402  0.5549 -1.2076  0.0346
  190MOL0     H25602   3.206   5.755   7.249  0.6197  0.7549 -0.9355
  190MOL0     H25603   3.334   5.834   7.336 -0.1082  0.4401 -0.8019
  190MOL0     H25604   3.451   5.627   7.371  1.8152  1.0956 -1.2562
  190MOL0     H25605   3.304   5.522   7.374 -0.8602 -0.0574 -2.3826
  190MOL0     H25606   3.336   5.640   7.113 -2.5941  1.4207  0.8495
  190MOL0     H25607   3.304   5.475   7.168 -0.6447  0.3824  1.7487
  190MOL0     H25608   3.542   5.436   7.221 -5.7863 -3.7979 -2.3680
  190MOL0     H25609   3.585   5.609   7.163 -0.3584  0.4449 -0.9281
  190MOL0     H25610   3.791   5.470   7.130 -2.1395 -2.8199  1.4847
  190MOL0     H25611   3.974   5.402   7.014  2.3155  1.9037 -2.7226
  190MOL0     H25612   4.030   5.107   6.483 -2.2306  1.1622  0.1339
  190MOL0     H25613   4.171   5.097   6.275  0.4233  0.3193  0.6705
  190MOL0     H25614   4.491   5.237   6.274 -2.0542  0.3220  1.6587
  190MOL0     H25615   4.400   5.105   6.191 -3.8244  2.0294  1.8441
  190MOL0     H25616   4.437   5.182   5.972  0.7308  0.7778  0.0633
  190MOL0     H25617   4.500   5.337   6.020  0.5963 -0.3888 -3.4178
  190MOL0     H25618   4.697   5.234   6.108 -0.5595  2.9144 -1.8154
  190MOL0     H25619   4.630   5.062   6.076  1.6463 -0.6612 -0.8866
  190MOL0     H25620   4.680   5.301   5.880  1.9961  1.5188  4.3970
  190MOL0     H25621   4.622   5.149   5.825  1.0017  1.3230 -1.6490
  190MOL0     H25622   4.886   5.179   5.958 -2.1761  0.2123  0.8979
  190MOL0     H25623   4.860   5.194   5.782  1.8708 -1.8672 -0.3967
  190MOL0     H25624   4.764   4.955   5.933  2.8696  1.9870  4.1377
  190MOL0     H25625   4.805   4.988   5.752  0.3989 -0.0519 -0.8219
  190MOL0     H25626   5.016   5.011   5.965  0.7572 -1.6211  0.1661
  190MOL0     H25627   5.036   4.978   5.789  3.1354  2.2470  2.5908
  190MOL0     H25628   4.946   4.739   5.857  0.7209  1.0753 -2.4438
  190MOL0     H25629   5.098   4.781   5.916  0.3501 -2.4288 -0.8683
  190MOL0     H25630   4.327   5.485   6.378 -1.1446  0.5791 -1.4128
  190MOL0     H25631   4.166   5.504   6.561  3.3152 -1.4433  2.2076
  190MOL0     H25632   3.727   5.356   6.653 -0.6530  1.0836  0.3059
  190MOL0     H25633   3.543   5.424   6.773  1.8538  2.3482 -0.7335
  190MOL0     H25634   3.154   5.493   6.876  0.5343 -0.2100  0.1793
  190MOL0     H25635   3.374   5.526   6.781  1.0392  0.8921  0.2428
  190MOL0     H25636   3.844   5.800   6.985 -2.7850  1.4019 -0.0330
  190MOL0     H25637   4.073   5.817   6.898 -0.5644  1.7310  0.6202
  190MOL0     H25638   4.257   5.657   6.801 -1.3765  1.1867  1.2480
  190MOL0     H25639   4.283   5.831   6.787  1.4784 -0.3761 -0.6154
  190MOL0     H25640   4.375   5.617   6.588 -0.4568 -1.4744  1.9454
  190MOL0     H25641   4.479   5.690   6.704 -0.0347  3.7700  1.8028
  190MOL0     H25642   4.321   5.837   6.474 -0.0241  2.9575  1.8896
  190MOL0     H25643   4.484   5.778   6.461 -1.3798 -0.6789 -1.5901
  190MOL0     H25644   4.409   6.014   6.584 -0.3876 -0.6086 -0.3688
  190MOL0     H25645   4.499   5.919   6.712 -0.9719 -0.3666  0.0880
  190MOL0     H25646   4.794   6.064   6.450 -0.6075  1.1118 -1.1847
  190MOL0     H25647   3.947   5.707   6.511  1.4726 -2.2880  0.8437
  190MOL0     H25648   3.621   5.799   6.532  0.3120  0.1973 -0.1511
  190MOL0     H25649   3.707   5.668   6.452  0.1454 -2.7759  0.4027
  190MOL0     H25650   3.606   5.629   6.582 -0.0307 -0.1665 -2.3365
  191MOL0     O25651   0.748   4.028   1.992 -0.8583  0.3384 -0.2981
  191MOL0     C25652   0.795   4.033   1.879 -0.0479 -0.1223 -0.0124
  191MOL0     O25653   0.918   4.027   1.850 -0.6425 -0.4343 -0.0626
  191MOL0     C25654   1.011   4.014   1.952  0.8176  0.0467  0.0410
  191MOL0     C25655   1.083   3.891   1.971 -0.2050 -0.1162 -0.8904
  191MOL0     C25656   1.174   3.870   2.072 -0.3367 -0.8060 -0.2234
  191MOL0     C25657   1.195   3.988   2.150 -0.0728  0.4374  0.3358
  191MOL0     O25658   1.306   4.010   2.233  0.0638 -0.6630  0.3360
  191MOL0     C25659   1.346   3.902   2.315 -0.7520 -0.2566  0.5154
  191MOL0     C25660   1.454   3.940   2.417 -0.4086 -0.5463  1.9435
  191MOL0     C25661   1.420   4.069   2.498  0.4374  0.3325 -0.3219
  191MOL0     C25662   1.545   4.128   2.555  0.6391 -0.3970 -1.0191
  191MOL0     C25663   1.526   4.265   2.626  0.3881  0.1610 -0.3278
  191MOL0     C25664   1.459   4.247   2.764 -0.5375 -0.0598 -0.3775
  191MOL0     C25665   1.425   4.379   2.830 -0.5176  0.6819 -0.1637
  191MOL0     C25666   1.299   4.438   2.774 -0.6517  0.1542 -0.1438
  191MOL0     N25667   1.176   4.378   2.837 -0.1513 -0.0437  0.2176
  191MOL0     C25668   1.049   4.431   2.859 -0.0123 -0.2020  0.3274
  191MOL0     C25669   0.969   4.333   2.913  1.3109 -0.5002  0.1617
  191MOL0     C25670   0.819   4.330   2.938 -0.1716  0.5962 -0.2300
  191MOL0     C25671   0.725   4.317   2.811  0.4462 -0.3181  0.2201
  191MOL0     C25672   0.578   4.336   2.851 -0.7103 -0.6880 -0.0040
  191MOL0     C25673   0.557   4.487   2.889 -0.1905 -0.0868 -0.9407
  191MOL0     O25674   0.430   4.536   2.842 -1.0386 -0.3699  0.0278
  191MOL0     C25675   0.306   4.483   2.890  0.1302 -0.5464  0.4635
  191MOL0     C25676   0.296   4.402   3.006 -0.1090 -1.9739 -0.0823
  191MOL0     C25677   0.177   4.343   3.031  0.5829 -0.2429  1.0200
  191MOL0     C25678   0.059   4.377   2.960  0.2895 -0.3078  0.6270
  191MOL0     C25679  -0.074   4.320   3.002 -0.0048  0.3292 -0.7209
  191MOL0     O25680  -0.181   4.401   2.981 -0.6695  0.6926  0.7591
  191MOL0     C25681  -0.285   4.389   3.065 -1.4735  1.1616  0.3182
  191MOL0     C25682  -0.284   4.377   3.209 -0.3837 -0.8306  0.6326
  191MOL0     C25683  -0.402   4.359   3.280  0.6429 -0.0708 -0.1430
  191MOL0     C25684  -0.522   4.363   3.221  0.3120 -0.4128 -0.0956
  191MOL0     O25685  -0.635   4.380   3.298  0.3890  0.5158  0.1489
  191MOL0     C25686  -0.738   4.283   3.261 -0.1346 -0.3967 -0.0245
  191MOL0     C25687  -0.864   4.276   3.350  0.0960  1.4921  0.5347
  191MOL0     C25688  -0.910   4.408   3.401 -0.2186 -0.0646  0.2102
  191MOL0     C25689  -1.030   4.406   3.504  0.7778  1.0329  0.0636
  191MOL0     C25690  -1.052   4.547   3.557  1.0387 -0.2431  0.4613
  191MOL0     C25691  -1.166   4.546   3.666 -0.3350  0.0910  0.0104
  191MOL0     C25692  -1.122   4.611   3.797 -0.0761  0.6639 -0.2270
  191MOL0     C25693  -1.238   4.636   3.893  0.0212 -0.3773 -0.1268
  191MOL0    Cl25694  -1.333   4.481   3.900  0.4650 -0.1886  0.8723
  191MOL0     C25695  -0.529   4.391   3.091  0.3908  0.3980 -0.1020
  191MOL0     C25696  -0.407   4.399   3.013  0.4595 -0.1107  0.1772
  191MOL0     O25697  -0.073   4.224   3.074  0.5134 -0.4290  0.0460
  191MOL0     C25698   0.071   4.457   2.845  0.4317  0.4132  0.0137
  191MOL0     C25699   0.196   4.514   2.811 -1.1209  0.2590 -0.2764
  191MOL0     N25700   1.047   4.228   2.941 -1.1059  1.1290  0.5302
  191MOL0     N25701   1.173   4.251   2.896  0.8792  0.5013  0.6501
  191MOL0     C25702   1.128   4.110   2.127 -0.0234 -0.0275 -0.5093
  191MOL0     C25703   1.048   4.125   2.022 -0.4683 -0.4470  0.7132
  191MOL0     C25704   0.698   4.041   1.772  0.5993 -1.0436 -1.0205
  191MOL0     C25705   0.746   3.996   1.646 -0.5878  0.5249  0.4606
  191MOL0     C25706   0.668   3.997   1.530 -0.8238  0.2032 -0.5011
  191MOL0     C25707   0.548   4.062   1.532  0.0074 -0.0045 -0.5270
  191MOL0     O25708   0.483   4.079   1.414 -0.0552  0.7854 -0.0938
  191MOL0     C25709   0.359   4.161   1.401 -0.5380  0.4636 -0.2374
  191MOL0     C25710   0.280   4.105   1.283  0.1903 -0.1676 -0.3032
  191MOL0     C25711   0.167   4.200   1.230  0.3848 -0.3468 -0.1402
  191MOL0     C25712   0.124   4.153   1.091 -0.7205 -0.3509 -0.5566
  191MOL0     C25713   0.218   4.180   0.981 -0.6080 -1.1496 -0.2598
  191MOL0     C25714   0.300   4.194   0.890  0.5814 -0.6596 -0.6195
  191MOL0     C25715   0.490   4.087   1.656 -0.0181 -0.0433  0.3808
  191MOL0     C25716   0.555   4.077   1.776  0.2114 -0.0636  0.1653
  191MOL0     C25717   0.478   4.120   1.892 -0.1228  0.2465 -0.7456
  191MOL0     H25718   1.064   3.802   1.912  0.2958  0.1507 -1.4740
  191MOL0     H25719   1.233   3.781   2.088  0.5690  0.1112  1.9269
  191MOL0     H25720   1.257   3.867   2.369 -1.9611  3.1661  1.0080
  191MOL0     H25721   1.381   3.811   2.267 -0.7285 -0.2261  0.4752
  191MOL0     H25722   1.545   3.950   2.357 -1.6862 -1.1996 -0.2055
  191MOL0     H25723   1.464   3.851   2.481 -3.3655 -3.3458 -1.1026
  191MOL0     H25724   1.345   4.047   2.575 -0.6216  1.6142 -0.9310
  191MOL0     H25725   1.366   4.141   2.435 -0.1096 -2.1331 -2.8630
  191MOL0     H25726   1.585   4.056   2.626 -2.4663 -1.3863 -0.1271
  191MOL0     H25727   1.620   4.151   2.478 -0.0310  0.8060 -1.3276
  191MOL0     H25728   1.624   4.314   2.629 -0.9023  3.0032 -0.9446
  191MOL0     H25729   1.464   4.330   2.563  0.7442 -0.5682 -1.4723
  191MOL0     H25730   1.379   4.173   2.768 -0.2792 -0.3638  4.4415
  191MOL0     H25731   1.534   4.205   2.831 -0.3685 -1.8096 -1.5993
  191MOL0     H25732   1.506   4.451   2.817  0.7690 -0.9042 -1.1680
  191MOL0     H25733   1.417   4.365   2.939 -1.0358  0.8130 -0.1787
  191MOL0     H25734   1.292   4.543   2.806  1.8005  0.3437 -0.0289
  191MOL0     H25735   1.305   4.445   2.665  0.6550 -0.5585 -0.1296
  191MOL0     H25736   1.012   4.532   2.842  0.3263  0.1155  1.3922
  191MOL0     H25737   0.791   4.249   3.006 -1.4778  2.6015  1.8083
  191MOL0     H25738   0.808   4.418   3.003  2.2442 -0.0466  1.1605
  191MOL0     H25739   0.736   4.399   2.740 -0.2902 -0.7122 -0.3688
  191MOL0     H25740   0.750   4.226   2.755  3.9822  0.0667  0.8972
  191MOL0     H25741   0.535   4.274   2.931 -2.2566  0.0720 -0.1987
  191MOL0     H25742   0.502   4.327   2.772 -1.3146 -2.7587  0.7481
  191MOL0     H25743   0.638   4.552   2.855 -0.2050  1.2590  1.4241
  191MOL0     H25744   0.564   4.500   2.997 -1.2439  1.2896 -1.0121
  191MOL0     H25745   0.387   4.382   3.060 -0.2343  1.1156  1.4690
  191MOL0     H25746   0.174   4.278   3.117  1.2616 -1.1968  0.3433
  191MOL0     H25747  -0.182   4.375   3.248 -0.0218  1.4923 -0.0340
  191MOL0     H25748  -0.400   4.359   3.388 -0.3580  1.5810 -0.0797
  191MOL0     H25749  -0.774   4.307   3.161  2.0900 -0.5406 -0.9301
  191MOL0     H25750  -0.696   4.182   3.254  1.1411  0.0967  0.1782
  191MOL0     H25751  -0.944   4.214   3.310  0.7702 -0.0077  1.4249
  191MOL0     H25752  -0.844   4.229   3.447  3.9446  3.1291  0.7150
  191MOL0     H25753  -0.833   4.475   3.439 -3.3237  2.9959  1.7085
  191MOL0     H25754  -0.941   4.466   3.314 -1.6195 -0.9671  0.0722
  191MOL0     H25755  -1.021   4.333   3.585 -2.6944 -1.8427 -1.8237
  191MOL0     H25756  -1.123   4.374   3.456 -0.4183  1.0083  2.2593
  191MOL0     H25757  -1.083   4.615   3.478  0.0247  0.4408  1.4111
  191MOL0     H25758  -0.962   4.585   3.605  0.7102  0.8489  0.2466
  191MOL0     H25759  -1.257   4.590   3.625 -0.4574 -0.4124 -0.2585
  191MOL0     H25760  -1.188   4.441   3.684 -0.5721  0.0413 -0.5642
  191MOL0     H25761  -1.049   4.690   3.777 -0.0384  0.9510  0.9466
  191MOL0     H25762  -1.053   4.546   3.851  2.5730  3.2884 -0.1942
  191MOL0     H25763  -1.214   4.654   3.998 -0.6427 -1.7041  0.2842
  191MOL0     H25764  -1.306   4.713   3.854 -0.7744 -0.5659  0.8335
  191MOL0     H25765  -0.621   4.424   3.044 -0.7338 -2.5916 -0.1618
  191MOL0     H25766  -0.422   4.421   2.907 -2.4965  2.6423  0.9925
  191MOL0     H25767  -0.019   4.459   2.786  0.2439 -1.5039  0.1619
  191MOL0     H25768   0.210   4.554   2.711  0.0179  0.2034 -0.1541
  191MOL0     H25769   1.143   4.193   2.195 -1.2268  0.7447 -1.1545
  191MOL0     H25770   1.010   4.221   1.988  1.8972 -0.6878 -3.2125
  191MOL0     H25771   0.843   3.950   1.630  0.4483  2.0317  2.0423
  191MOL0     H25772   0.709   3.954   1.440 -1.1145 -2.7737  0.6896
  191MOL0     H25773   0.385   4.266   1.385  1.2274 -0.1638 -1.8647
  191MOL0     H25774   0.286   4.146   1.481 -0.8493  0.7900 -0.4584
  191MOL0     H25775   0.242   4.004   1.301  1.3976 -0.8878 -1.5450
  191MOL0     H25776   0.355   4.084   1.205 -1.1126 -0.9014 -1.3992
  191MOL0     H25777   0.204   4.303   1.219 -1.2537  0.1550 -1.3642
  191MOL0     H25778   0.084   4.199   1.301 -1.4409 -1.3185 -2.1561
  191MOL0     H25779   0.108   4.045   1.096  2.0100 -0.7688  2.4311
  191MOL0     H25780   0.029   4.207   1.082 -0.3917  0.2418 -0.5127
  191MOL0     H25781   0.369   4.174   0.810  0.1487  1.1525 -1.4933
  191MOL0     H25782   0.387   4.119   1.656 -0.1596 -0.4163 -1.0051
  191MOL0     H25783   0.528   4.210   1.929 -2.3253  1.0881  0.3239
  191MOL0     H25784   0.375   4.146   1.868 -1.6992 -0.6740  4.0049
  191MOL0     H25785   0.466   4.056   1.980 -0.0242  2.1526  0.7084
  192MOL0     O25786   4.857   0.423  10.555  0.3937  0.0601  0.4233
  192MOL0     C25787   4.898   0.429  10.673 -0.8975 -0.7973 -1.0480
  192MOL0     O25788   4.829   0.479  10.784 -0.5852 -0.0379 -0.6582
  192MOL0     C25789   4.695   0.459  10.785 -0.4474 -0.4093 -0.6255
  192MOL0     C25790   4.618   0.577  10.770  1.1379  0.1586 -0.7959
  192MOL0     C25791   4.480   0.575  10.741  0.4277 -0.3823 -0.7668
  192MOL0     C25792   4.416   0.450  10.724  0.1886  0.3624 -0.7322
  192MOL0     O25793   4.286   0.453  10.692  0.2824 -0.0084  0.1697
  192MOL0     C25794   4.211   0.333  10.664  0.0336 -0.1812 -0.3207
  192MOL0     C25795   4.059   0.352  10.657 -1.0049 -0.1509 -0.9744
  192MOL0     C25796   4.003   0.220  10.595  0.6479 -0.0114  0.3519
  192MOL0     C25797   3.861   0.249  10.535 -0.3966  0.0293 -0.5166
  192MOL0     C25798   3.776   0.133  10.482 -0.0894  1.2845  0.2886
  192MOL0     C25799   3.784   0.001  10.550  0.0686 -0.1910 -0.5473
  192MOL0     C25800   3.711  -0.113  10.485  0.2961  0.4888  0.3728
  192MOL0     C25801   3.766  -0.256  10.535  0.3296 -0.2044  0.1729
  192MOL0     N25802   3.674  -0.369  10.495 -0.0146  0.5167  0.6466
  192MOL0     C25803   3.539  -0.361  10.477  0.2361 -0.4137 -0.3831
  192MOL0     C25804   3.503  -0.490  10.454 -0.9652  0.2610  0.0897
  192MOL0     C25805   3.368  -0.550  10.456 -0.6724  0.1875  0.2260
  192MOL0     C25806   3.271  -0.499  10.562 -0.1607 -0.4583 -1.1382
  192MOL0     C25807   3.324  -0.531  10.703 -0.7957  0.4138 -0.4027
  192MOL0     C25808   3.255  -0.435  10.804 -0.0472 -0.7705 -0.0278
  192MOL0     O25809   3.302  -0.299  10.801 -0.4781  0.7052 -0.0903
  192MOL0     C25810   3.428  -0.274  10.841 -0.0682  0.6354 -1.0748
  192MOL0     C25811   3.516  -0.363  10.901  0.4747 -0.0878  0.3479
  192MOL0     C25812   3.637  -0.322  10.933 -0.0342 -0.3603 -0.1321
  192MOL0     C25813   3.671  -0.182  10.921 -0.4826  0.1894  0.5257
  192MOL0     C25814   3.807  -0.149  10.959  0.5837 -0.7935  0.0759
  192MOL0     O25815   3.890  -0.087  10.867  0.2324 -0.4281 -0.1120
  192MOL0     C25816   4.017  -0.053  10.909 -0.5385 -0.1181  0.9209
  192MOL0     C25817   4.126  -0.126  10.853  0.1223  0.5686 -0.6579
  192MOL0     C25818   4.251  -0.097  10.888  1.1040 -0.0857 -0.5259
  192MOL0     C25819   4.287   0.016  10.956 -0.2019 -0.5901 -1.3620
  192MOL0     O25820   4.421   0.048  10.972 -0.3468  0.2677 -0.3813
  192MOL0     C25821   4.447   0.147  11.074 -0.0553 -0.3587  0.1748
  192MOL0     C25822   4.607   0.158  11.099  0.1646  0.7771 -0.5325
  192MOL0     C25823   4.648   0.292  11.175 -0.1492 -0.1100  0.3540
  192MOL0     C25824   4.776   0.278  11.254 -0.6061 -0.1240  0.1468
  192MOL0     C25825   4.817   0.401  11.335  0.2576  0.3929 -0.2264
  192MOL0     C25826   4.967   0.411  11.335 -0.2909 -0.3792  0.7963
  192MOL0     C25827   5.022   0.303  11.422  0.0649  0.2613  0.5129
  192MOL0     C25828   5.176   0.329  11.416  0.1710  0.8937  0.3607
  192MOL0    Cl25829   5.268   0.200  11.499 -0.0595 -0.1839  0.3287
  192MOL0     C25830   4.179   0.100  11.001  0.1324 -0.5880 -0.9532
  192MOL0     C25831   4.046   0.070  10.965  0.9760  0.1720 -0.4401
  192MOL0     O25832   3.840  -0.195  11.074  0.2834 -0.2408  0.4353
  192MOL0     C25833   3.586  -0.089  10.874  0.4678  1.3084 -0.9844
  192MOL0     C25834   3.467  -0.135  10.833  1.4615  0.2937 -0.5293
  192MOL0     N25835   3.619  -0.560  10.418 -0.0884 -0.1954  0.4308
  192MOL0     N25836   3.723  -0.489  10.460  0.1007  0.4810  0.0258
  192MOL0     C25837   4.492   0.331  10.757 -0.3511  0.0403 -0.1046
  192MOL0     C25838   4.632   0.341  10.785  0.0730  0.0168 -1.0771
  192MOL0     C25839   5.048   0.427  10.697  0.3692 -0.5595  0.8048
  192MOL0     C25840   5.123   0.513  10.624  0.2172 -0.3004  0.5076
  192MOL0     C25841   5.262   0.510  10.627  0.1040 -0.0177 -0.6609
  192MOL0     C25842   5.333   0.421  10.700  0.0820 -0.6565 -0.6912
  192MOL0     O25843   5.473   0.418  10.704  0.6015  0.0600  0.1316
  192MOL0     C25844   5.553   0.529  10.660 -0.2881  1.2857 -0.0098
  192MOL0     C25845   5.552   0.634  10.767  0.3903  0.2567  0.4242
  192MOL0     C25846   5.680   0.717  10.750  0.0285  0.6150 -0.4525
  192MOL0     C25847   5.705   0.806  10.867 -0.5983  0.1051 -0.1211
  192MOL0     C25848   5.767   0.726  10.970  0.6123 -0.0599  0.0722
  192MOL0     C25849   5.829   0.662  11.053  0.4923  0.7528  0.5774
  192MOL0     C25850   5.258   0.318  10.767 -0.0453  0.2885  0.7256
  192MOL0     C25851   5.120   0.318  10.766  0.0598  0.4137 -0.0112
  192MOL0     C25852   5.045   0.214  10.855  0.4121  0.5055 -0.4422
  192MOL0     H25853   4.649   0.681  10.773  0.8107  0.2572 -0.7190
  192MOL0     H25854   4.415   0.659  10.720  1.4824  0.0692 -2.3827
  192MOL0     H25855   4.252   0.298  10.569  0.0061  0.1238 -0.4458
  192MOL0     H25856   4.233   0.257  10.739 -1.7026 -0.5457 -0.1556
  192MOL0     H25857   4.024   0.429  10.588 -0.9985  0.7169 -0.0226
  192MOL0     H25858   4.030   0.357  10.762  1.0199  0.8145 -0.4229
  192MOL0     H25859   4.013   0.146  10.675  2.0735  1.0654  1.2084
  192MOL0     H25860   4.066   0.196  10.509 -0.9587 -0.6849 -0.6953
  192MOL0     H25861   3.809   0.299  10.618 -0.3511 -1.2556  0.3181
  192MOL0     H25862   3.878   0.315  10.450  2.9144 -0.0008 -0.0134
  192MOL0     H25863   3.669   0.159  10.485  0.1360  2.2907 -0.1358
  192MOL0     H25864   3.803   0.103  10.380 -0.3885 -0.6050  0.7179
  192MOL0     H25865   3.887  -0.035  10.561  0.1353  0.4282  1.1799
  192MOL0     H25866   3.739   0.012  10.649 -0.9629 -0.8781 -0.9170
  192MOL0     H25867   3.727  -0.107  10.377  1.9023  0.2492  0.5826
  192MOL0     H25868   3.604  -0.094  10.501  1.0429  3.7023  2.3447
  192MOL0     H25869   3.869  -0.265  10.497  1.2724  3.5032  1.3605
  192MOL0     H25870   3.783  -0.255  10.643  0.4806  1.9141  0.1752
  192MOL0     H25871   3.468  -0.280  10.490  0.0200 -0.2948 -2.0765
  192MOL0     H25872   3.321  -0.532  10.359 -0.5274  0.1751  0.1532
  192MOL0     H25873   3.388  -0.656  10.475  1.8904  0.7050  0.7503
  192MOL0     H25874   3.272  -0.391  10.546  0.3495 -0.3001 -0.1213
  192MOL0     H25875   3.167  -0.531  10.549  0.3703 -3.2961  0.7605
  192MOL0     H25876   3.432  -0.517  10.703 -0.5047 -1.4873  0.4825
  192MOL0     H25877   3.293  -0.630  10.737  1.9605 -0.3967  0.0046
  192MOL0     H25878   3.269  -0.482  10.902 -0.1333 -2.5402 -0.8154
  192MOL0     H25879   3.147  -0.425  10.789 -0.4865 -2.0877  1.8838
  192MOL0     H25880   3.480  -0.463  10.920 -1.1941  1.0584  4.3473
  192MOL0     H25881   3.704  -0.401  10.965  0.1312  0.0372  0.5257
  192MOL0     H25882   4.113  -0.217  10.796 -0.7647  0.2667  0.0094
  192MOL0     H25883   4.324  -0.175  10.867  2.6132  0.5405  2.0519
  192MOL0     H25884   4.415   0.251  11.056 -2.7860 -1.3224 -1.1277
  192MOL0     H25885   4.401   0.119  11.169 -4.6960  0.1261 -1.6756
  192MOL0     H25886   4.629   0.071  11.161  1.1171  0.2616 -1.5500
  192MOL0     H25887   4.659   0.139  11.004  1.2527 -0.3748  0.2626
  192MOL0     H25888   4.646   0.373  11.102 -0.6504 -0.7068 -0.3188
  192MOL0     H25889   4.568   0.309  11.248  1.2373 -2.5382  2.6287
  192MOL0     H25890   4.850   0.244  11.181 -0.6372 -0.2246  0.1612
  192MOL0     H25891   4.778   0.188  11.316  0.9316 -2.0524 -2.4862
  192MOL0     H25892   4.765   0.397  11.431 -2.3234 -0.5899 -1.5571
  192MOL0     H25893   4.776   0.488  11.283  0.8256  0.8339  0.0491
  192MOL0     H25894   4.998   0.388  11.233 -0.0195 -2.4666  1.3026
  192MOL0     H25895   4.999   0.512  11.364  0.6274 -0.9025  1.6579
  192MOL0     H25896   4.990   0.204  11.390 -0.4248  0.5198  0.1978
  192MOL0     H25897   4.988   0.315  11.526  0.6815  0.8864  0.6531
  192MOL0     H25898   5.206   0.342  11.311 -2.0571 -0.0578 -0.4581
  192MOL0     H25899   5.209   0.415  11.476  5.3581  0.3823 -1.2309
  192MOL0     H25900   4.193   0.200  11.042 -0.2809  0.1121 -2.4579
  192MOL0     H25901   3.959   0.129  10.991  0.8155 -0.4760  0.5779
  192MOL0     H25902   3.609   0.017  10.860 -2.7191  1.9924 -1.8144
  192MOL0     H25903   3.398  -0.062  10.793  1.4871 -1.3346 -3.8918
  192MOL0     H25904   4.444   0.233  10.754 -0.0219 -0.1599  0.8387
  192MOL0     H25905   4.691   0.251  10.792  1.4128  0.7260 -2.6253
  192MOL0     H25906   5.089   0.586  10.551  0.1355 -0.1419  0.7032
  192MOL0     H25907   5.305   0.589  10.566  2.8048  0.1458  1.2461
  192MOL0     H25908   5.527   0.568  10.561  3.7070  2.6431 -0.7031
  192MOL0     H25909   5.657   0.493  10.652  0.8842  3.8437  2.2701
  192MOL0     H25910   5.546   0.581  10.862 -1.5471 -1.8041 -0.7162
  192MOL0     H25911   5.466   0.700  10.749  0.9198  1.2407  1.4139
  192MOL0     H25912   5.686   0.789  10.668  5.6672  2.3279  1.0560
  192MOL0     H25913   5.765   0.650  10.743  1.3881  2.0420  1.4335
  192MOL0     H25914   5.773   0.889  10.845 -0.3486  0.1567  0.7893
  192MOL0     H25915   5.615   0.849  10.912 -0.0350 -0.1018  1.2451
  192MOL0     H25916   5.894   0.604  11.115 -0.5790  1.1151  2.1004
  192MOL0     H25917   5.320   0.253  10.826  2.5788  0.3420 -1.7316
  192MOL0     H25918   4.948   0.245  10.894  1.0626  1.8459  0.1671
  192MOL0     H25919   5.036   0.120  10.799 -0.4932 -1.3875  2.6259
  192MOL0     H25920   5.104   0.195  10.945 -0.4776 -1.9416 -0.2997
  193MOL0     O25921   4.873   2.214   9.142  0.6795  0.1528 -0.4953
  193MOL0     C25922   4.869   2.306   9.066 -0.1021 -0.7957 -0.5340
  193MOL0     O25923   4.806   2.422   9.105 -0.5166  0.0916  0.0191
  193MOL0     C25924   4.777   2.514   9.013 -0.3229 -1.1910  0.9279
  193MOL0     C25925   4.802   2.651   9.038  0.0355 -0.8594  0.0708
  193MOL0     C25926   4.757   2.747   8.945  0.1635  0.2797  0.5310
  193MOL0     C25927   4.694   2.713   8.830  0.1141  0.3432 -0.1800
  193MOL0     O25928   4.649   2.802   8.738 -0.3204  0.2871  0.2790
  193MOL0     C25929   4.607   2.934   8.781 -0.3442 -0.1829 -0.4987
  193MOL0     C25930   4.537   3.000   8.663  0.7632 -0.0998 -0.6329
  193MOL0     C25931   4.634   3.024   8.557 -0.4977  0.6524 -0.5386
  193MOL0     C25932   4.571   3.098   8.444 -0.2125 -0.9189  0.3557
  193MOL0     C25933   4.679   3.137   8.353  0.7533  0.7910  0.4749
  193MOL0     C25934   4.752   3.014   8.286 -0.4958  0.5623 -0.2251
  193MOL0     C25935   4.850   3.063   8.180  0.2397 -0.3798 -0.2743
  193MOL0     C25936   4.923   2.943   8.121  0.6886 -0.2361  0.3178
  193MOL0     N25937   5.002   2.975   8.002 -0.0992 -0.0784 -0.3759
  193MOL0     C25938   5.142   2.988   8.005  0.0827  0.2719  0.2218
  193MOL0     C25939   5.178   2.960   7.874  0.1620 -0.6003 -0.1420
  193MOL0     C25940   5.318   2.956   7.815 -0.0435 -1.2583 -0.2064
  193MOL0     C25941   5.396   2.843   7.878 -0.5074  0.5750 -0.1578
  193MOL0     C25942   5.318   2.712   7.901  0.1899 -0.0221  0.2907
  193MOL0     C25943   5.413   2.592   7.915  0.9305  0.6119 -0.5335
  193MOL0     O25944   5.503   2.620   8.030 -0.9720 -0.5461 -0.3680
  193MOL0     C25945   5.635   2.606   8.012 -1.2245 -0.5640  0.2300
  193MOL0     C25946   5.700   2.488   8.003  0.2000  0.2421 -0.0640
  193MOL0     C25947   5.832   2.470   7.991  0.4343 -0.7646  0.3241
  193MOL0     C25948   5.916   2.584   7.984  0.1077 -0.5898 -0.2700
  193MOL0     C25949   6.064   2.575   7.940  0.6792 -0.0985  0.1714
  193MOL0     O25950   6.117   2.679   7.861  0.2710 -0.8309  1.0162
  193MOL0     C25951   6.249   2.694   7.833 -0.6224  0.8138 -0.0561
  193MOL0     C25952   6.359   2.618   7.873 -0.9381 -0.1054  0.5298
  193MOL0     C25953   6.493   2.656   7.842  0.7736  0.6215 -0.1828
  193MOL0     C25954   6.519   2.772   7.764 -0.3434 -0.4065  0.2484
  193MOL0     O25955   6.645   2.825   7.734 -0.8136  0.5978  0.3849
  193MOL0     C25956   6.761   2.735   7.754 -0.7376 -0.3242 -0.4229
  193MOL0     C25957   6.885   2.819   7.722  0.5087 -0.0119 -0.1947
  193MOL0     C25958   7.013   2.738   7.758 -0.6094 -0.9295  0.3331
  193MOL0     C25959   7.127   2.830   7.724 -1.1355  1.2587  0.1077
  193MOL0     C25960   7.254   2.765   7.664  0.9779  0.0350  0.2126
  193MOL0     C25961   7.383   2.801   7.746 -0.2411  0.5835 -0.7978
  193MOL0     C25962   7.515   2.730   7.715 -1.2131  0.2008 -0.4653
  193MOL0     C25963   7.626   2.815   7.780 -0.2011 -0.3749 -0.4475
  193MOL0    Cl25964   7.640   2.944   7.658 -0.0477  0.2269  0.2172
  193MOL0     C25965   6.411   2.848   7.719 -0.6663 -0.2969  0.3111
  193MOL0     C25966   6.280   2.803   7.749  0.6069 -0.7878 -0.5045
  193MOL0     O25967   6.117   2.470   7.965  0.0059  0.9911 -0.2495
  193MOL0     C25968   5.851   2.709   7.980 -0.1013  0.8272 -0.5402
  193MOL0     C25969   5.716   2.718   7.996  0.3638 -0.6939  0.3846
  193MOL0     N25970   5.065   2.933   7.808  0.4616 -0.3218  0.3319
  193MOL0     N25971   4.958   2.951   7.879 -0.5453  0.0831  0.2880
  193MOL0     C25972   4.672   2.580   8.806  1.0037  0.3681  0.2700
  193MOL0     C25973   4.715   2.486   8.896 -0.2074  0.4592  0.5837
  193MOL0     C25974   4.936   2.275   8.934 -0.1065  0.8380 -0.1915
  193MOL0     C25975   5.034   2.357   8.877  0.2470 -0.1730 -0.4255
  193MOL0     C25976   5.117   2.320   8.762  0.5516 -0.4908 -0.7477
  193MOL0     C25977   5.094   2.195   8.706 -0.5268  0.0812  0.0846
  193MOL0     O25978   5.171   2.165   8.599  0.6750  0.3189  0.2871
  193MOL0     C25979   5.153   2.033   8.529 -0.3920 -0.3426  0.3861
  193MOL0     C25980   5.037   2.033   8.440  0.3399 -0.1442  0.9572
  193MOL0     C25981   5.034   2.125   8.322  0.7194 -0.6582 -0.3811
  193MOL0     C25982   4.924   2.101   8.219  0.2234  0.1647  0.7244
  193MOL0     C25983   4.815   2.204   8.203 -0.5086 -0.8038  0.6717
  193MOL0     C25984   4.737   2.289   8.189  0.6170  0.4733 -0.7448
  193MOL0     C25985   5.006   2.106   8.767  0.2533 -0.7909  0.3000
  193MOL0     C25986   4.920   2.138   8.874 -0.3620 -0.8673  0.3736
  193MOL0     C25987   4.815   2.041   8.912 -0.5185  0.2849 -0.1988
  193MOL0     H25988   4.843   2.673   9.136  5.0768 -0.4909 -1.8030
  193MOL0     H25989   4.777   2.853   8.963 -0.3169  0.7124 -1.2779
  193MOL0     H25990   4.543   2.918   8.869 -1.1416  0.5364 -0.9397
  193MOL0     H25991   4.685   3.005   8.809 -0.9064  0.5085 -0.6461
  193MOL0     H25992   4.493   3.097   8.684  0.2154 -0.6920  1.1377
  193MOL0     H25993   4.460   2.928   8.634  2.3476 -2.2186  0.1409
  193MOL0     H25994   4.663   2.924   8.525  0.1150  0.5031  0.4285
  193MOL0     H25995   4.715   3.089   8.593  0.1764 -0.1222 -0.6400
  193MOL0     H25996   4.498   3.031   8.396  0.6271 -0.5575 -1.5106
  193MOL0     H25997   4.506   3.179   8.478  2.6992  0.8591  2.0439
  193MOL0     H25998   4.628   3.196   8.276 -1.5369 -1.0998  0.4333
  193MOL0     H25999   4.753   3.204   8.399  0.3323  1.3073  0.4208
  193MOL0     H26000   4.816   2.963   8.357 -3.3034  0.0200  2.1116
  193MOL0     H26001   4.690   2.941   8.233 -0.3518  0.1150  0.2237
  193MOL0     H26002   4.916   3.133   8.232  0.7946  1.7521 -3.5145
  193MOL0     H26003   4.801   3.129   8.107 -0.4737 -1.1888 -0.5500
  193MOL0     H26004   4.978   2.895   8.202 -0.5972 -2.1165  0.1212
  193MOL0     H26005   4.850   2.869   8.088 -0.7903  1.3557 -0.1410
  193MOL0     H26006   5.198   3.004   8.096 -1.0854  0.7946  0.8744
  193MOL0     H26007   5.307   2.935   7.709 -0.1737  0.0905 -0.4798
  193MOL0     H26008   5.375   3.048   7.827 -2.7863  0.5419 -0.0118
  193MOL0     H26009   5.466   2.819   7.797 -0.8413 -2.8860  0.4482
  193MOL0     H26010   5.441   2.882   7.970  2.1220  1.2661 -1.6099
  193MOL0     H26011   5.262   2.686   7.811  0.2871  0.4833  0.0816
  193MOL0     H26012   5.262   2.725   7.994 -1.8407  1.1124 -1.0227
  193MOL0     H26013   5.478   2.590   7.827  1.4466  1.0511 -0.1754
  193MOL0     H26014   5.361   2.498   7.933 -0.2049  1.2103 -0.5954
  193MOL0     H26015   5.625   2.409   8.007  1.3162 -1.1661 -3.0684
  193MOL0     H26016   5.872   2.374   7.960 -0.6052 -0.7837 -1.0759
  193MOL0     H26017   6.341   2.534   7.938  1.2079  2.0777  4.3361
  193MOL0     H26018   6.572   2.589   7.876  0.4675  1.2940  2.0735
  193MOL0     H26019   6.781   2.699   7.855  0.6663 -2.3340 -1.3542
  193MOL0     H26020   6.761   2.650   7.686 -0.8762  0.7933 -1.8689
  193MOL0     H26021   6.890   2.834   7.613  0.2454 -0.2149 -0.2379
  193MOL0     H26022   6.873   2.912   7.777 -2.5804 -0.9915  1.0126
  193MOL0     H26023   7.021   2.726   7.866 -1.0535 -3.0045  0.1744
  193MOL0     H26024   7.023   2.641   7.709  5.8887 -2.0948  2.9037
  193MOL0     H26025   7.163   2.868   7.820 -3.6400  2.8777  0.4863
  193MOL0     H26026   7.092   2.915   7.665  1.4432  0.9714 -2.0372
  193MOL0     H26027   7.261   2.803   7.562  0.6176  0.2091  0.2519
  193MOL0     H26028   7.232   2.658   7.650 -2.8193  1.0712 -4.4085
  193MOL0     H26029   7.396   2.909   7.747  2.5171  0.3222  0.3544
  193MOL0     H26030   7.367   2.773   7.851 -0.3263 -0.3013 -1.0339
  193MOL0     H26031   7.539   2.718   7.609  0.4830 -3.2888  0.1414
  193MOL0     H26032   7.517   2.626   7.749 -0.3212  0.4638  0.3319
  193MOL0     H26033   7.607   2.860   7.878  0.2402  1.6253 -1.2223
  193MOL0     H26034   7.718   2.756   7.781  0.2650  0.3325 -0.1430
  193MOL0     H26035   6.424   2.940   7.662 -1.2013  0.1118  0.8368
  193MOL0     H26036   6.200   2.861   7.703  3.1614 -0.1863 -4.7746
  193MOL0     H26037   5.907   2.801   7.963  1.5202 -0.3096 -1.7062
  193MOL0     H26038   5.668   2.815   7.993  0.1378 -0.8172 -0.3723
  193MOL0     H26039   4.632   2.556   8.708  3.4436  3.1614 -1.5684
  193MOL0     H26040   4.700   2.382   8.870 -1.9965  0.3440  1.9277
  193MOL0     H26041   5.050   2.455   8.919  1.5636 -0.4223 -0.2961
  193MOL0     H26042   5.186   2.386   8.710  0.3644  0.4150  0.1069
  193MOL0     H26043   5.159   1.958   8.608  0.3526  0.5539  1.2000
  193MOL0     H26044   5.246   2.037   8.472  0.9023  3.3768  2.4309
  193MOL0     H26045   4.944   2.054   8.494 -1.8919 -1.5446 -2.0653
  193MOL0     H26046   5.041   1.926   8.417  2.8247 -0.8613  3.9215
  193MOL0     H26047   5.129   2.112   8.269  0.4666  2.1020 -1.6864
  193MOL0     H26048   5.043   2.223   8.369 -0.3302 -2.4750  4.1137
  193MOL0     H26049   4.970   2.078   8.122 -0.9140 -1.4257  0.5318
  193MOL0     H26050   4.878   2.004   8.238  1.3240 -0.2236  1.5007
  193MOL0     H26051   4.667   2.371   8.190  1.4474  1.2795 -2.8647
  193MOL0     H26052   4.984   2.007   8.729  1.2247 -0.3152 -1.6326
  193MOL0     H26053   4.849   1.973   8.990  0.2556  2.2611  1.2539
  193MOL0     H26054   4.730   2.091   8.959  1.2527 -0.2955  3.9971
  193MOL0     H26055   4.782   1.972   8.833 -3.6055  0.5484  0.6959
  194MOL0     O26056   4.094   2.945   8.037 -0.7068 -0.7236 -0.1595
  194MOL0     C26057   4.177   2.891   8.107 -0.7958  0.6401 -0.5714
  194MOL0     O26058   4.318   2.907   8.096  0.1977  0.2071  0.8966
  194MOL0     C26059   4.387   2.999   8.012  0.4131  0.3105 -0.0763
  194MOL0     C26060   4.516   2.963   7.972  0.0062 -0.0709 -0.9052
  194MOL0     C26061   4.597   3.052   7.906 -0.2133  0.8180 -0.4129
  194MOL0     C26062   4.547   3.171   7.868 -0.1945 -0.0546  0.0628
  194MOL0     O26063   4.642   3.240   7.803  0.7061  1.1138 -0.2423
  194MOL0     C26064   4.591   3.316   7.692 -0.2767 -0.3242 -0.3706
  194MOL0     C26065   4.705   3.321   7.589 -0.0460 -0.3688  0.2660
  194MOL0     C26066   4.811   3.212   7.601 -0.4917  0.4588 -0.0633
  194MOL0     C26067   4.895   3.202   7.474  0.1500  0.2840 -0.9896
  194MOL0     C26068   4.991   3.090   7.487  0.1788  0.1442  0.2164
  194MOL0     C26069   5.064   3.049   7.362  0.1101 -0.3969  0.9415
  194MOL0     C26070   5.200   2.981   7.367  0.9242 -0.2005  0.8915
  194MOL0     C26071   5.185   2.834   7.423 -0.6555 -0.0970  0.4106
  194MOL0     N26072   5.309   2.752   7.427 -0.6288  0.0911  0.6687
  194MOL0     C26073   5.440   2.793   7.450 -0.5074 -0.6767 -0.3097
  194MOL0     C26074   5.511   2.686   7.429 -0.8141  0.1628 -0.0659
  194MOL0     C26075   5.663   2.670   7.439  1.0742 -0.4343 -0.0215
  194MOL0     C26076   5.707   2.592   7.568 -0.2782 -0.0194  0.1783
  194MOL0     C26077   5.851   2.605   7.610  0.4920 -0.4679  0.6635
  194MOL0     C26078   5.957   2.557   7.504 -0.1402 -0.7987  0.4954
  194MOL0     O26079   5.976   2.645   7.388 -0.1644 -0.1574  0.5042
  194MOL0     C26080   6.085   2.731   7.391 -0.8506 -0.2899 -0.2566
  194MOL0     C26081   6.202   2.676   7.325 -0.9242 -0.2369  1.1660
  194MOL0     C26082   6.307   2.768   7.308 -0.4034  1.3851 -0.4487
  194MOL0     C26083   6.311   2.898   7.368 -1.3022  0.0424 -0.1628
  194MOL0     C26084   6.437   2.972   7.364  0.0488 -0.0834  0.0844
  194MOL0     O26085   6.537   2.909   7.298  0.3950  0.6812  0.2785
  194MOL0     C26086   6.667   2.941   7.308 -0.3132  0.5561  1.0127
  194MOL0     C26087   6.738   2.942   7.186  0.4124  0.4908 -0.3682
  194MOL0     C26088   6.866   2.988   7.178 -0.0186 -0.3554  0.0393
  194MOL0     C26089   6.930   3.025   7.297  0.1201 -0.8992 -0.5237
  194MOL0     O26090   7.064   3.061   7.285  0.3493 -0.3292  0.2530
  194MOL0     C26091   7.141   3.058   7.405 -0.9079  0.1760  0.9914
  194MOL0     C26092   7.289   3.062   7.372  0.9711  0.1872  0.1549
  194MOL0     C26093   7.341   3.188   7.302 -0.4636 -0.2461 -0.5901
  194MOL0     C26094   7.489   3.178   7.266 -0.1832  0.2341 -0.3898
  194MOL0     C26095   7.543   3.325   7.249 -0.6784 -0.4989 -0.1851
  194MOL0     C26096   7.679   3.334   7.181 -0.0281  0.2498 -0.2534
  194MOL0     C26097   7.676   3.285   7.034 -0.7730 -0.6381  0.0406
  194MOL0     C26098   7.814   3.289   6.963 -0.0669 -1.3191 -1.4690
  194MOL0    Cl26099   7.855   3.455   6.919 -0.1164  0.1899  0.3127
  194MOL0     C26100   6.860   3.035   7.418 -0.4439 -0.2202 -0.0337
  194MOL0     C26101   6.727   2.993   7.424 -0.1314 -0.6372 -0.8353
  194MOL0     O26102   6.444   3.083   7.420 -0.4047  0.7260 -0.4268
  194MOL0     C26103   6.189   2.943   7.427  0.4098  0.4970 -0.2520
  194MOL0     C26104   6.074   2.859   7.435 -0.1554  0.9141 -1.0611
  194MOL0     N26105   5.431   2.575   7.414  0.7533 -1.0783 -0.6877
  194MOL0     N26106   5.307   2.619   7.409 -0.5672  0.0666 -0.2557
  194MOL0     C26107   4.421   3.221   7.905 -0.0320  0.1850 -0.0577
  194MOL0     C26108   4.343   3.135   7.975  0.5710  0.2751  0.0227
  194MOL0     C26109   4.138   2.814   8.228 -0.0917  0.5384  0.5794
  194MOL0     C26110   4.236   2.812   8.329  0.5497 -0.4080 -0.4795
  194MOL0     C26111   4.186   2.757   8.455 -0.8699 -0.0145  0.2587
  194MOL0     C26112   4.057   2.707   8.468  0.2572 -0.2438 -0.1294
  194MOL0     O26113   4.036   2.666   8.598 -0.3751 -0.3838 -0.1607
  194MOL0     C26114   3.899   2.656   8.648  0.9637  0.2401 -1.1247
  194MOL0     C26115   3.889   2.603   8.785 -0.0568  0.0422 -0.3860
  194MOL0     C26116   3.964   2.467   8.787 -0.1665 -0.5962 -0.2551
  194MOL0     C26117   3.957   2.408   8.925 -0.2011 -0.6365  0.0448
  194MOL0     C26118   3.828   2.365   8.964  0.2523  0.2637 -0.0070
  194MOL0     C26119   3.719   2.326   8.987  0.1773 -0.9273  0.9842
  194MOL0     C26120   3.966   2.707   8.365 -0.4380  0.1822  0.5203
  194MOL0     C26121   3.999   2.767   8.245 -0.9203  0.3065  0.3149
  194MOL0     C26122   3.894   2.786   8.142  0.5529  0.1310  0.5416
  194MOL0     H26123   4.547   2.870   8.017  1.4689  1.9653  2.6777
  194MOL0     H26124   4.696   3.023   7.873 -0.4350 -1.2730  0.6093
  194MOL0     H26125   4.502   3.272   7.648 -2.4518  3.0395  0.2730
  194MOL0     H26126   4.572   3.418   7.727  0.6419 -0.4279  0.5022
  194MOL0     H26127   4.757   3.417   7.594  2.2350 -1.3537 -2.1369
  194MOL0     H26128   4.665   3.305   7.489 -3.5097 -2.3507  1.7933
  194MOL0     H26129   4.765   3.113   7.605  1.8952 -0.6708  0.9186
  194MOL0     H26130   4.875   3.218   7.689 -3.6310  2.0801  2.2989
  194MOL0     H26131   4.840   3.175   7.384  0.1099  1.3189 -1.2761
  194MOL0     H26132   4.940   3.294   7.436  2.4150  0.1755  1.1358
  194MOL0     H26133   5.066   3.107   7.565  1.3391 -1.7928 -0.4253
  194MOL0     H26134   4.929   3.007   7.521 -0.2896 -0.0265 -1.0182
  194MOL0     H26135   5.003   2.989   7.294  4.2241 -1.8555 -1.8137
  194MOL0     H26136   5.082   3.145   7.312 -2.9798 -0.3231 -0.2140
  194MOL0     H26137   5.274   3.040   7.423 -0.4209 -1.2261  3.9587
  194MOL0     H26138   5.235   2.977   7.263  1.2040  2.0839  0.8417
  194MOL0     H26139   5.151   2.843   7.526 -1.2675 -2.3039  0.4533
  194MOL0     H26140   5.105   2.775   7.378  0.8501 -1.7221 -0.2774
  194MOL0     H26141   5.470   2.893   7.480  1.2438 -0.2059 -3.2160
  194MOL0     H26142   5.685   2.600   7.358 -0.8884 -1.9710  0.6759
  194MOL0     H26143   5.716   2.766   7.433  2.1676 -0.7427  3.1070
  194MOL0     H26144   5.641   2.634   7.645 -2.7853 -0.2466 -1.7244
  194MOL0     H26145   5.679   2.488   7.545  0.6608  0.1424 -1.9106
  194MOL0     H26146   5.883   2.542   7.694  0.8929  0.9168  1.5825
  194MOL0     H26147   5.864   2.711   7.633  1.7938 -1.0271  2.7998
  194MOL0     H26148   5.924   2.461   7.462  0.7072 -0.9124  0.0712
  194MOL0     H26149   6.053   2.540   7.554  0.4557  0.4862 -0.1852
  194MOL0     H26150   6.212   2.586   7.265 -3.1744 -0.2597  0.7629
  194MOL0     H26151   6.395   2.734   7.254 -0.8376 -1.5290  0.5115
  194MOL0     H26152   6.684   2.909   7.098 -2.6781 -2.2966  2.2765
  194MOL0     H26153   6.925   2.982   7.087 -0.5602  0.8206 -0.4095
  194MOL0     H26154   7.110   3.141   7.469 -0.8307  1.2890 -0.3599
  194MOL0     H26155   7.131   2.963   7.459 -0.9055 -1.6601 -2.0202
  194MOL0     H26156   7.346   3.054   7.465 -1.5515 -0.5638  1.7258
  194MOL0     H26157   7.305   2.976   7.306  0.8879  2.5137 -3.1494
  194MOL0     H26158   7.273   3.202   7.217 -2.4330  1.4774  1.1542
  194MOL0     H26159   7.332   3.281   7.359  1.1650 -0.0179 -0.6368
  194MOL0     H26160   7.506   3.112   7.181 -0.3633 -0.3162  0.0022
  194MOL0     H26161   7.548   3.141   7.351  3.0162  0.5386 -2.2954
  194MOL0     H26162   7.556   3.360   7.352 -0.3782  2.0357 -1.0078
  194MOL0     H26163   7.467   3.388   7.201  0.3315 -1.6066 -3.4850
  194MOL0     H26164   7.703   3.441   7.187  0.7865  0.2318 -2.1959
  194MOL0     H26165   7.760   3.280   7.231 -0.2834 -1.3847 -1.5179
  194MOL0     H26166   7.596   3.330   6.974  1.0875  2.5543 -0.2514
  194MOL0     H26167   7.656   3.177   7.036  0.5986 -0.9132  0.1922
  194MOL0     H26168   7.887   3.262   7.039 -0.1609  1.1761 -0.4295
  194MOL0     H26169   7.821   3.221   6.877  0.2326  1.0585 -3.4368
  194MOL0     H26170   6.889   3.074   7.515 -1.3420 -1.6950  0.8551
  194MOL0     H26171   6.675   3.004   7.518  1.6578  4.3971 -0.1229
  194MOL0     H26172   6.172   3.043   7.464 -0.5223 -0.7422  3.0249
  194MOL0     H26173   5.977   2.897   7.468 -0.0796 -0.9295  1.5656
  194MOL0     H26174   4.400   3.327   7.892  2.1505  0.6407 -0.2341
  194MOL0     H26175   4.250   3.171   8.019 -0.4266 -1.4160 -0.6030
  194MOL0     H26176   4.337   2.851   8.325 -0.1817  1.5103 -1.1399
  194MOL0     H26177   4.248   2.749   8.544 -0.5522  1.4373  0.1937
  194MOL0     H26178   3.831   2.600   8.584 -0.0497  0.6200 -0.4050
  194MOL0     H26179   3.857   2.757   8.655  0.3619 -0.0644 -0.0832
  194MOL0     H26180   3.784   2.587   8.812 -0.5574  2.7921 -0.4951
  194MOL0     H26181   3.939   2.674   8.852  0.8432  0.9037 -1.9313
  194MOL0     H26182   4.070   2.476   8.762 -0.4572  0.7770 -1.0835
  194MOL0     H26183   3.918   2.390   8.724  0.0043 -2.5447  1.8420
  194MOL0     H26184   4.018   2.318   8.912  1.2980  0.4102 -0.3159
  194MOL0     H26185   4.007   2.477   8.994  2.6177 -0.8502 -1.6356
  194MOL0     H26186   3.624   2.278   8.999 -0.3485 -0.5393 -1.2477
  194MOL0     H26187   3.869   2.658   8.376 -0.1894 -1.7717 -3.7297
  194MOL0     H26188   3.935   2.743   8.050 -2.1449 -1.7155  0.0769
  194MOL0     H26189   3.806   2.725   8.168  1.5713 -1.8456 -0.4391
  194MOL0     H26190   3.856   2.886   8.122  0.4039  0.2162  1.2124
  195MOL0     O26191   2.190   4.012   3.264  0.4092  0.0219  0.7749
  195MOL0     C26192   2.280   3.969   3.193  0.8653 -0.1623  0.4110
  195MOL0     O26193   2.250   3.890   3.085 -0.2207 -0.1538 -0.2728
  195MOL0     C26194   2.129   3.821   3.075 -0.0293 -0.0636  0.3741
  195MOL0     C26195   2.034   3.781   3.173 -0.2121 -0.3074 -0.1559
  195MOL0     C26196   1.902   3.730   3.135 -0.5309  0.5745 -0.2280
  195MOL0     C26197   1.884   3.705   2.996 -0.0258  0.8663 -1.7913
  195MOL0     O26198   1.764   3.647   2.956 -0.3809  0.3055  0.5944
  195MOL0     C26199   1.660   3.741   2.948 -0.6247 -0.6734  0.0736
  195MOL0     C26200   1.552   3.682   2.863 -0.4885  0.2070  0.1644
  195MOL0     C26201   1.435   3.774   2.834  0.3647  0.1005 -0.4641
  195MOL0     C26202   1.339   3.808   2.947 -0.1621  0.1387  0.3523
  195MOL0     C26203   1.273   3.693   3.012  0.8227  0.2189 -0.0317
  195MOL0     C26204   1.179   3.728   3.132 -0.8878 -0.6878  0.3100
  195MOL0     C26205   1.111   3.867   3.117 -0.3367  0.9537  0.2627
  195MOL0     C26206   0.998   3.853   3.004 -0.5520 -0.1939 -0.4860
  195MOL0     N26207   0.860   3.845   3.068  0.4705  0.6963 -0.0556
  195MOL0     C26208   0.773   3.945   3.115 -0.3769  0.2792 -0.7937
  195MOL0     C26209   0.665   3.887   3.156  0.3723 -0.0294 -0.2138
  195MOL0     C26210   0.563   3.941   3.255  0.3827  0.4112  0.0843
  195MOL0     C26211   0.415   3.943   3.209 -0.0941  0.1604 -0.0272
  195MOL0     C26212   0.331   3.954   3.332  1.1586  0.2338  0.6323
  195MOL0     C26213   0.185   3.986   3.299 -0.5751 -0.3600 -0.3356
  195MOL0     O26214   0.119   4.010   3.427 -0.9808  0.2204  0.4263
  195MOL0     C26215  -0.016   3.996   3.430  0.0214  0.0032  0.1052
  195MOL0     C26216  -0.095   4.011   3.322  0.0991 -0.7062  0.1900
  195MOL0     C26217  -0.233   4.005   3.329 -0.5217  0.0828  0.0406
  195MOL0     C26218  -0.297   3.973   3.445 -1.1128  0.1703 -0.2945
  195MOL0     C26219  -0.443   3.979   3.461 -0.0932 -0.8087  0.6353
  195MOL0     O26220  -0.500   3.953   3.583  0.3239 -0.3763 -0.1488
  195MOL0     C26221  -0.633   3.920   3.580 -0.0756  0.8251 -0.2421
  195MOL0     C26222  -0.717   4.011   3.646 -0.9289 -0.1873  0.1287
  195MOL0     C26223  -0.850   4.004   3.623  1.1974 -0.3101  0.4902
  195MOL0     C26224  -0.912   3.910   3.536 -0.5790  0.6896  0.0040
  195MOL0     O26225  -1.045   3.896   3.536  0.5431  0.3519 -0.5791
  195MOL0     C26226  -1.105   3.992   3.446 -0.6146 -0.2843 -0.4006
  195MOL0     C26227  -1.256   3.998   3.470 -0.5621 -0.6062  0.5629
  195MOL0     C26228  -1.303   4.026   3.606  0.6555  0.3549 -1.1011
  195MOL0     C26229  -1.452   4.078   3.596 -0.3264  0.3161 -0.1168
  195MOL0     C26230  -1.476   4.176   3.705  0.4837 -0.1922 -0.2519
  195MOL0     C26231  -1.622   4.219   3.693  0.5433  0.1570  0.0345
  195MOL0     C26232  -1.643   4.348   3.766  0.6265 -0.4546 -1.0079
  195MOL0     C26233  -1.629   4.327   3.917  0.5553 -0.5745  0.4384
  195MOL0    Cl26234  -1.754   4.207   3.983  0.2576  0.4559  0.0162
  195MOL0     C26235  -0.835   3.803   3.484  0.0092  0.8040 -0.7010
  195MOL0     C26236  -0.696   3.811   3.506  0.1158  0.1481  0.0869
  195MOL0     O26237  -0.502   4.007   3.355  0.7101  0.1082 -0.3097
  195MOL0     C26238  -0.218   3.954   3.557  0.0601 -0.4704 -0.1194
  195MOL0     C26239  -0.075   3.976   3.553  0.1535  0.4662 -1.0997
  195MOL0     N26240   0.677   3.755   3.139  0.1988  0.0959 -0.4427
  195MOL0     N26241   0.792   3.730   3.070  0.0231 -0.1539  0.2070
  195MOL0     C26242   1.978   3.741   2.907 -1.0310 -0.2979  0.0281
  195MOL0     C26243   2.099   3.797   2.945 -0.0400 -0.1031  0.2686
  195MOL0     C26244   2.426   3.988   3.199  1.0858  0.3898  0.5797
  195MOL0     C26245   2.509   3.901   3.110 -1.0178 -0.2999 -0.2705
  195MOL0     C26246   2.642   3.945   3.101  0.4346 -0.2580  0.1841
  195MOL0     C26247   2.700   4.038   3.187  0.3732 -0.6692 -0.1553
  195MOL0     O26248   2.833   4.067   3.191  0.0964 -0.2350 -0.8231
  195MOL0     C26249   2.931   3.997   3.124 -0.2433 -0.5699  0.0851
  195MOL0     C26250   3.061   4.072   3.156  0.0110 -0.0224  0.9130
  195MOL0     C26251   3.120   4.047   3.295 -0.7664  0.2348  0.0961
  195MOL0     C26252   3.240   4.139   3.324  0.1256 -0.5347  0.3278
  195MOL0     C26253   3.328   4.064   3.407  0.5588 -0.4182  0.0907
  195MOL0     C26254   3.408   3.999   3.463  0.2644  0.2095  0.4513
  195MOL0     C26255   2.616   4.111   3.275 -0.4777  1.1967  0.0996
  195MOL0     C26256   2.481   4.084   3.286  0.2172 -0.6643  0.4567
  195MOL0     C26257   2.392   4.160   3.373  0.3175  0.7975  0.3150
  195MOL0     H26258   2.048   3.814   3.276  0.9466  1.5103 -0.8404
  195MOL0     H26259   1.827   3.707   3.209 -0.2707  0.5346  0.0263
  195MOL0     H26260   1.624   3.768   3.047 -1.7763  1.4534 -0.8514
  195MOL0     H26261   1.695   3.831   2.896  1.8270 -1.6570 -0.1079
  195MOL0     H26262   1.520   3.592   2.916 -2.7335 -0.1048 -1.5346
  195MOL0     H26263   1.594   3.647   2.768 -2.8298 -0.3465 -0.7602
  195MOL0     H26264   1.389   3.718   2.752 -0.9523 -0.0683  0.3627
  195MOL0     H26265   1.475   3.873   2.810  1.0478  0.4038  1.7130
  195MOL0     H26266   1.401   3.857   3.023  0.0628 -0.2479  0.4252
  195MOL0     H26267   1.263   3.875   2.905 -0.3103 -0.3608 -0.1863
  195MOL0     H26268   1.208   3.643   2.939  2.2538 -0.7883 -0.6750
  195MOL0     H26269   1.341   3.610   3.035 -0.9611 -1.9203 -1.8800
  195MOL0     H26270   1.107   3.646   3.131 -0.4468 -1.0787  0.0643
  195MOL0     H26271   1.245   3.726   3.219 -0.5401 -0.6909  0.0496
  195MOL0     H26272   1.176   3.953   3.101 -0.7356  1.3088  0.5521
  195MOL0     H26273   1.063   3.876   3.214  1.6118 -0.2024  1.3959
  195MOL0     H26274   0.992   3.938   2.934 -1.2374 -0.8517 -1.2469
  195MOL0     H26275   1.017   3.765   2.942 -0.3227 -1.6551  1.5823
  195MOL0     H26276   0.787   4.050   3.136  0.4367 -0.1876  1.2537
  195MOL0     H26277   0.567   3.866   3.334  1.7870  1.3800  0.9567
  195MOL0     H26278   0.593   4.042   3.281  1.1300  0.2864 -0.2594
  195MOL0     H26279   0.413   4.027   3.140  3.7617 -0.0048 -0.5659
  195MOL0     H26280   0.389   3.851   3.155  3.8846 -0.8056 -0.5859
  195MOL0     H26281   0.366   4.026   3.406  0.0807  0.5167  0.8897
  195MOL0     H26282   0.340   3.862   3.391  0.8097  0.4257  0.9907
  195MOL0     H26283   0.141   3.898   3.253  0.9217 -1.6712  0.6442
  195MOL0     H26284   0.184   4.069   3.227  1.2000 -0.9001 -1.0489
  195MOL0     H26285  -0.058   4.035   3.222 -2.6110  0.4911 -0.6286
  195MOL0     H26286  -0.276   4.035   3.233 -0.9801  2.1725  0.8276
  195MOL0     H26287  -0.675   4.101   3.689 -1.0637  0.1087 -0.3548
  195MOL0     H26288  -0.908   4.070   3.686  2.0357 -3.2994  4.8444
  195MOL0     H26289  -1.061   4.089   3.470 -0.1482 -0.0080 -2.2319
  195MOL0     H26290  -1.078   3.969   3.342 -2.5394  4.3987 -2.2139
  195MOL0     H26291  -1.307   4.065   3.400 -2.4624 -3.3050 -0.7794
  195MOL0     H26292  -1.303   3.906   3.436  1.5214 -0.6281 -2.6855
  195MOL0     H26293  -1.300   3.940   3.674 -2.2268  0.3476 -0.8914
  195MOL0     H26294  -1.251   4.112   3.649  0.1721 -0.4512  1.2463
  195MOL0     H26295  -1.523   3.994   3.592  0.5762 -0.4275 -1.2180
  195MOL0     H26296  -1.471   4.124   3.499 -2.5016 -1.6590 -0.7072
  195MOL0     H26297  -1.412   4.265   3.695 -0.0434  0.1550 -0.6274
  195MOL0     H26298  -1.453   4.129   3.801  0.7053 -3.6755 -1.8573
  195MOL0     H26299  -1.642   4.232   3.586  1.9521  0.2913 -0.2398
  195MOL0     H26300  -1.687   4.141   3.733 -0.3731  0.3187 -1.0992
  195MOL0     H26301  -1.743   4.382   3.738  1.2743  0.3441 -2.4401
  195MOL0     H26302  -1.568   4.420   3.734 -0.1658  0.2045 -1.4101
  195MOL0     H26303  -1.536   4.271   3.932  1.2349  0.6972  1.2010
  195MOL0     H26304  -1.627   4.416   3.981  1.1944  0.4667 -0.9537
  195MOL0     H26305  -0.872   3.723   3.421  0.4753 -1.1317  1.3352
  195MOL0     H26306  -0.627   3.742   3.459  1.5690  1.8354 -0.3446
  195MOL0     H26307  -0.260   3.939   3.655 -0.7537 -1.6936 -0.6362
  195MOL0     H26308  -0.013   3.976   3.642 -3.0280 -1.6233  1.3697
  195MOL0     H26309   1.965   3.729   2.800  1.5154  1.1739 -0.5422
  195MOL0     H26310   2.163   3.833   2.865  0.5070 -0.4264  0.5635
  195MOL0     H26311   2.469   3.822   3.048  1.0835 -1.4782 -0.2297
  195MOL0     H26312   2.704   3.886   3.034 -0.6342 -1.0651 -0.1307
  195MOL0     H26313   2.909   4.000   3.017 -0.3104 -0.0420  0.1113
  195MOL0     H26314   2.933   3.892   3.156  2.4648 -1.4683 -2.6006
  195MOL0     H26315   3.057   4.180   3.136  1.7652 -0.4314 -2.2961
  195MOL0     H26316   3.149   4.039   3.100  0.6677  0.0189  1.8768
  195MOL0     H26317   3.151   3.943   3.304 -2.8918 -0.4734 -0.0156
  195MOL0     H26318   3.044   4.067   3.371 -0.1618  1.8553  0.3238
  195MOL0     H26319   3.299   4.160   3.235  1.0505 -2.3408  0.4778
  195MOL0     H26320   3.202   4.236   3.360  1.6263  1.2163 -2.4371
  195MOL0     H26321   3.467   3.947   3.536 -1.0370  0.1758  1.5135
  195MOL0     H26322   2.684   4.172   3.333  2.7271 -1.5628 -0.4937
  195MOL0     H26323   2.446   4.238   3.428  1.6393 -0.5723  1.0281
  195MOL0     H26324   2.315   4.213   3.316 -0.6756  0.6928  1.5066
  195MOL0     H26325   2.338   4.089   3.435  0.3421 -0.1418 -0.7135
  196MOL0     O26326   1.628   6.313   9.401 -0.3583 -0.0011  0.3977
  196MOL0     C26327   1.544   6.403   9.400 -0.0229 -0.1948  0.0562
  196MOL0     O26328   1.577   6.532   9.445 -0.3292 -0.1700  0.0854
  196MOL0     C26329   1.707   6.559   9.476 -0.2340  0.1840 -0.3323
  196MOL0     C26330   1.720   6.637   9.590  0.2776  0.3343  0.5005
  196MOL0     C26331   1.839   6.703   9.611 -0.1601 -0.1924 -0.3565
  196MOL0     C26332   1.941   6.698   9.516  0.2347  0.1762 -0.6619
  196MOL0     O26333   2.052   6.783   9.525  0.1748 -0.5737  0.4080
  196MOL0     C26334   2.125   6.809   9.401  0.0935  0.2769 -0.6525
  196MOL0     C26335   2.198   6.932   9.397 -1.2597 -0.0672  0.4308
  196MOL0     C26336   2.293   6.945   9.271  0.8869 -0.9677 -0.6646
  196MOL0     C26337   2.210   6.954   9.148  0.0133  0.3632 -0.1090
  196MOL0     C26338   2.289   6.989   9.022  0.1956  1.1689 -0.0940
  196MOL0     C26339   2.357   6.860   8.979  0.0047  0.1186 -0.4266
  196MOL0     C26340   2.409   6.859   8.836  0.1296  1.4180 -0.5964
  196MOL0     C26341   2.483   6.988   8.798 -0.2280 -0.2059  0.2630
  196MOL0     N26342   2.540   6.989   8.662 -0.5478  0.1429 -0.5803
  196MOL0     C26343   2.611   6.888   8.605 -0.3589 -0.0541  0.7392
  196MOL0     C26344   2.659   6.922   8.485  0.2343  0.2303 -0.5891
  196MOL0     C26345   2.760   6.833   8.414  0.5337 -0.0027 -0.8203
  196MOL0     C26346   2.890   6.855   8.481  0.6193 -0.2421  0.1937
  196MOL0     C26347   2.997   6.799   8.394  0.0499  0.7570 -0.0478
  196MOL0     C26348   3.141   6.829   8.449  0.3596  0.6849  0.0794
  196MOL0     O26349   3.239   6.824   8.345 -0.1809 -0.1509 -0.4319
  196MOL0     C26350   3.374   6.801   8.376  0.2366  0.0439 -0.2331
  196MOL0     C26351   3.430   6.849   8.491 -0.1299 -0.6116  0.4258
  196MOL0     C26352   3.562   6.824   8.519 -0.8864 -0.4026 -0.1570
  196MOL0     C26353   3.653   6.775   8.430  0.0539  0.3738  1.0114
  196MOL0     C26354   3.805   6.776   8.446  0.6816  0.4082  0.0394
  196MOL0     O26355   3.845   6.778   8.577 -0.0786  0.3796 -0.1127
  196MOL0     C26356   3.976   6.760   8.593  0.4586 -0.5647 -0.3000
  196MOL0     C26357   4.054   6.836   8.684 -0.1530 -0.4602 -0.6777
  196MOL0     C26358   4.193   6.810   8.714 -0.1753 -0.6313 -0.3514
  196MOL0     C26359   4.272   6.723   8.647 -0.8087  0.0537  0.1763
  196MOL0     O26360   4.408   6.706   8.653 -0.0999 -0.5144  0.0148
  196MOL0     C26361   4.493   6.814   8.694 -0.6148 -0.0925  0.0616
  196MOL0     C26362   4.628   6.773   8.718  0.0777 -0.4139 -1.2878
  196MOL0     C26363   4.692   6.682   8.618  0.6238  0.5310  0.5501
  196MOL0     C26364   4.826   6.655   8.674  0.4147 -0.4803 -0.5051
  196MOL0     C26365   4.902   6.561   8.580  0.2143 -0.5446  0.7210
  196MOL0     C26366   5.049   6.546   8.621 -1.1752 -0.3629 -0.6475
  196MOL0     C26367   5.139   6.470   8.522  0.3573  0.0418 -0.3356
  196MOL0     C26368   5.284   6.467   8.575 -0.5718  0.3473  0.9980
  196MOL0    Cl26369   5.360   6.617   8.540 -0.2903  0.6486 -0.1295
  196MOL0     C26370   4.203   6.650   8.557 -0.5178 -0.2515 -0.8332
  196MOL0     C26371   4.062   6.665   8.526  0.4012  0.3797 -0.2904
  196MOL0     O26372   3.877   6.770   8.343  0.1357  0.1732  0.4384
  196MOL0     C26373   3.599   6.726   8.307 -0.2360 -0.5689  0.2696
  196MOL0     C26374   3.459   6.725   8.290  0.5152 -0.7828 -0.7644
  196MOL0     N26375   2.615   7.046   8.462  0.3242 -0.4656  0.1751
  196MOL0     N26376   2.544   7.084   8.564 -0.5309  0.3285 -0.7315
  196MOL0     C26377   1.924   6.608   9.411 -1.0461 -0.1387 -0.0101
  196MOL0     C26378   1.807   6.549   9.378  0.2794  0.4073  0.4861
  196MOL0     C26379   1.407   6.365   9.360 -0.2885 -0.1974  0.6366
  196MOL0     C26380   1.305   6.444   9.403  0.0574  0.9767  0.3115
  196MOL0     C26381   1.174   6.425   9.368  0.0124 -0.8424 -0.2027
  196MOL0     C26382   1.144   6.318   9.280  0.6810  0.8983 -0.8382
  196MOL0     O26383   1.012   6.299   9.234 -0.2946  0.3628  0.2737
  196MOL0     C26384   0.911   6.406   9.228 -0.5415  0.3202  0.0088
  196MOL0     C26385   0.819   6.405   9.348  0.1662  0.2770 -0.1170
  196MOL0     C26386   0.763   6.273   9.402  0.5633 -0.6534  0.6561
  196MOL0     C26387   0.642   6.285   9.495 -0.0930  0.3256 -0.0070
  196MOL0     C26388   0.510   6.331   9.436 -0.5886  0.4162 -0.6000
  196MOL0     C26389   0.404   6.369   9.397 -0.1877  0.7829 -0.2267
  196MOL0     C26390   1.243   6.228   9.247 -0.2407 -0.4783  0.1069
  196MOL0     C26391   1.375   6.245   9.288 -0.1096 -0.5036 -0.1618
  196MOL0     C26392   1.472   6.139   9.256 -0.2246  0.0436  0.0149
  196MOL0     H26393   1.631   6.636   9.652 -1.5221 -1.5550 -1.9328
  196MOL0     H26394   1.850   6.758   9.704  1.8335 -1.0256 -0.0434
  196MOL0     H26395   2.206   6.735   9.400 -0.8689 -0.9199  2.1216
  196MOL0     H26396   2.054   6.813   9.318 -3.1743  2.2623  2.0118
  196MOL0     H26397   2.258   6.949   9.487 -2.4313  1.6849  0.9251
  196MOL0     H26398   2.124   7.012   9.391 -0.5883  0.6587 -5.9360
  196MOL0     H26399   2.368   6.866   9.278  0.4268 -1.2909  1.1780
  196MOL0     H26400   2.349   7.038   9.283  0.5266 -0.8710  0.3229
  196MOL0     H26401   2.164   6.857   9.125 -1.9164  0.7602  1.7551
  196MOL0     H26402   2.134   7.032   9.158 -0.7190 -0.2334 -0.8116
  196MOL0     H26403   2.222   7.016   8.940  0.6939  2.7079 -0.0397
  196MOL0     H26404   2.359   7.073   9.032  0.5795  1.4757 -3.9192
  196MOL0     H26405   2.429   6.830   9.056 -1.4315  0.9317  1.3369
  196MOL0     H26406   2.283   6.779   8.983 -0.9692  1.0323  0.7833
  196MOL0     H26407   2.326   6.845   8.766 -0.5838 -1.6218  0.7150
  196MOL0     H26408   2.464   6.765   8.828  2.5926  2.5670  1.5448
  196MOL0     H26409   2.403   7.063   8.795 -2.2662 -2.3374 -1.4806
  196MOL0     H26410   2.552   7.012   8.880 -0.8580 -1.7226  1.2852
  196MOL0     H26411   2.636   6.795   8.655  1.2206  0.7150  1.4604
  196MOL0     H26412   2.735   6.727   8.418  2.2226 -0.4535  4.2275
  196MOL0     H26413   2.751   6.871   8.312 -1.8318  0.3730 -0.5375
  196MOL0     H26414   2.903   6.963   8.490 -1.0760  0.2605 -2.2620
  196MOL0     H26415   2.897   6.798   8.574  3.7896 -0.8646 -0.3280
  196MOL0     H26416   2.985   6.853   8.299 -0.6722 -1.3750 -1.2334
  196MOL0     H26417   2.989   6.693   8.369  2.1706 -0.1367  2.5861
  196MOL0     H26418   3.149   6.768   8.540  3.0179  2.4365  1.1356
  196MOL0     H26419   3.163   6.929   8.487 -1.0204 -0.5215  4.6546
  196MOL0     H26420   3.371   6.908   8.559 -0.1814  1.4053 -1.2884
  196MOL0     H26421   3.599   6.853   8.617  0.2392  2.9182 -1.4213
  196MOL0     H26422   4.011   6.914   8.745  0.6469 -1.0002  0.6104
  196MOL0     H26423   4.236   6.875   8.790  1.5258 -0.8238 -1.1014
  196MOL0     H26424   4.498   6.884   8.611  1.2709  0.6801  0.7603
  196MOL0     H26425   4.445   6.857   8.783  3.8228 -0.2546  2.8312
  196MOL0     H26426   4.689   6.863   8.712  0.7061 -0.8953 -2.2409
  196MOL0     H26427   4.635   6.728   8.818 -2.1522 -1.2583 -1.4514
  196MOL0     H26428   4.636   6.589   8.606  1.0485  0.2333  0.8404
  196MOL0     H26429   4.712   6.731   8.522  2.3711 -1.6359 -0.2750
  196MOL0     H26430   4.813   6.613   8.775  0.2055  1.1536  0.1777
  196MOL0     H26431   4.875   6.752   8.685 -0.9847  0.2415 -0.4285
  196MOL0     H26432   4.903   6.590   8.475 -0.4754  1.0367  1.1180
  196MOL0     H26433   4.846   6.468   8.596 -2.0949  0.6229 -0.0725
  196MOL0     H26434   5.090   6.647   8.622 -2.5390  0.2211 -0.3359
  196MOL0     H26435   5.057   6.510   8.724 -0.5492  2.5384  0.4193
  196MOL0     H26436   5.136   6.515   8.422  2.4786 -0.7362 -0.8177
  196MOL0     H26437   5.117   6.364   8.502 -3.2565  0.4058  1.0611
  196MOL0     H26438   5.296   6.455   8.683  0.6686  2.1328  1.0851
  196MOL0     H26439   5.343   6.390   8.524 -0.9480  0.7392 -0.0501
  196MOL0     H26440   4.265   6.588   8.493  1.4802 -0.0814  0.8698
  196MOL0     H26441   4.032   6.595   8.449  1.1391 -1.0192  0.6346
  196MOL0     H26442   3.667   6.678   8.236  0.6265 -2.0451  2.0102
  196MOL0     H26443   3.417   6.678   8.201  0.6096 -1.8292 -0.2757
  196MOL0     H26444   2.007   6.593   9.343  0.3313 -1.0824  1.8031
  196MOL0     H26445   1.789   6.494   9.287  1.4422  1.1887 -0.2494
  196MOL0     H26446   1.314   6.524   9.475 -3.1022 -1.2716  3.5730
  196MOL0     H26447   1.100   6.496   9.404  2.1120  0.4745  1.7636
  196MOL0     H26448   0.855   6.376   9.139 -0.7375 -4.2321  1.4523
  196MOL0     H26449   0.963   6.502   9.218 -0.3827  0.3038  0.6513
  196MOL0     H26450   0.731   6.466   9.329  1.1216  2.0603  0.9165
  196MOL0     H26451   0.873   6.447   9.433 -1.8657 -2.8634  3.0038
  196MOL0     H26452   0.845   6.227   9.459  1.6703  0.6279  0.1392
  196MOL0     H26453   0.732   6.216   9.314  0.6638  0.4410 -0.0951
  196MOL0     H26454   0.637   6.180   9.525  1.2892 -0.0972 -1.1790
  196MOL0     H26455   0.661   6.351   9.581 -0.5613  1.8870 -1.0633
  196MOL0     H26456   0.303   6.389   9.367  0.3698  2.5067 -1.0694
  196MOL0     H26457   1.219   6.144   9.182 -0.3315 -2.1018  2.1561
  196MOL0     H26458   1.431   6.058   9.194  0.0517  2.3450 -3.4031
  196MOL0     H26459   1.560   6.172   9.201  1.1872 -0.8545  1.6708
  196MOL0     H26460   1.511   6.092   9.347  1.0921 -0.4557 -0.7767
  197MOL0     O26461   6.317   9.634   7.281  0.2073 -0.5838  0.7914
  197MOL0     C26462   6.279   9.696   7.185  0.8652 -0.0643  0.3425
  197MOL0     O26463   6.348   9.799   7.131  0.3743  0.0297  0.7801
  197MOL0     C26464   6.455   9.852   7.198 -0.8831  0.3884 -0.1727
  197MOL0     C26465   6.590   9.823   7.159 -0.4294 -0.4404  0.1179
  197MOL0     C26466   6.692   9.882   7.236  0.3671 -0.5127  0.3352
  197MOL0     C26467   6.673   9.948   7.351  0.3804 -0.7041 -0.6481
  197MOL0     O26468   6.785   9.974   7.425  0.4528  0.4504 -0.1855
  197MOL0     C26469   6.773  10.076   7.530 -0.2410  0.6549 -0.5949
  197MOL0     C26470   6.912  10.125   7.565 -0.1412 -0.0075 -0.3977
  197MOL0     C26471   6.997  10.005   7.630  0.3345 -0.0658  1.1133
  197MOL0     C26472   7.142  10.048   7.669  0.6816 -0.3780 -0.1929
  197MOL0     C26473   7.199   9.936   7.756 -0.0320 -0.0178  0.1992
  197MOL0     C26474   7.329   9.986   7.825  0.1256  0.1023 -0.6567
  197MOL0     C26475   7.386   9.861   7.885  0.2481 -0.1136  0.1435
  197MOL0     C26476   7.507   9.883   7.974  0.2912  0.6242 -0.3928
  197MOL0     N26477   7.615   9.943   7.885  0.6066  0.3364 -0.0411
  197MOL0     C26478   7.683   9.878   7.784  0.7677 -0.0760 -0.4328
  197MOL0     C26479   7.798   9.949   7.752  0.0160 -0.0626  0.9689
  197MOL0     C26480   7.906   9.891   7.662 -0.7877 -0.5731  0.4956
  197MOL0     C26481   7.881   9.946   7.515  1.4131 -0.1829 -0.7280
  197MOL0     C26482   7.910  10.097   7.505 -0.3037 -0.7809 -0.5791
  197MOL0     C26483   7.824  10.173   7.408  0.3574 -0.3871  0.2277
  197MOL0     O26484   7.678  10.177   7.431 -0.3509  0.2603 -0.0727
  197MOL0     C26485   7.641  10.237   7.551  0.8706  0.9949 -0.3798
  197MOL0     C26486   7.499  10.220   7.584 -0.2873 -0.6730 -0.3787
  197MOL0     C26487   7.448  10.293   7.691 -0.5053  0.6606 -1.0066
  197MOL0     C26488   7.524  10.382   7.765 -0.3235 -0.4449  0.6260
  197MOL0     C26489   7.454  10.469   7.861 -0.0519  0.0466  0.2293
  197MOL0     O26490   7.320  10.437   7.892  0.0125  1.0299  0.0748
  197MOL0     C26491   7.275  10.498   8.003 -0.2618  0.6653  0.6792
  197MOL0     C26492   7.147  10.559   7.989 -0.2639  0.6783 -0.2295
  197MOL0     C26493   7.081  10.614   8.102 -0.0546  0.2714 -0.7687
  197MOL0     C26494   7.151  10.613   8.228 -0.3536 -0.4890  1.0690
  197MOL0     O26495   7.098  10.665   8.342  0.6270 -0.0841 -0.1731
  197MOL0     C26496   6.969  10.722   8.341  0.3368 -0.0673 -0.0379
  197MOL0     C26497   6.956  10.805   8.469 -0.3112  0.5554 -0.7504
  197MOL0     C26498   7.032  10.938   8.471  1.1046 -0.0713 -0.0325
  197MOL0     C26499   7.177  10.937   8.524 -0.5605  0.5551 -0.1425
  197MOL0     C26500   7.196  10.866   8.648  0.4920  0.3319  0.2730
  197MOL0     C26501   7.145  10.938   8.774  0.6042  0.7132  0.1174
  197MOL0     C26502   7.168  10.863   8.910 -0.0152 -0.7255  0.6659
  197MOL0     C26503   7.305  10.793   8.927 -0.4151 -0.4352 -0.7813
  197MOL0    Cl26504   7.454  10.892   8.960 -0.1645 -0.4626 -0.4205
  197MOL0     C26505   7.269  10.543   8.242  0.7139  0.2760  0.9228
  197MOL0     C26506   7.332  10.480   8.132  0.8677  0.2573  0.6207
  197MOL0     O26507   7.522  10.560   7.905  0.3977  0.4931  0.0358
  197MOL0     C26508   7.661  10.394   7.739  0.2293  0.3298 -0.6588
  197MOL0     C26509   7.709  10.328   7.625 -0.4706 -0.5955 -0.3285
  197MOL0     N26510   7.792  10.063   7.820 -0.2476  0.0264 -0.8991
  197MOL0     N26511   7.680  10.067   7.889 -0.0601  0.4130 -0.9851
  197MOL0     C26512   6.544   9.978   7.387  0.2598 -0.0131 -0.5654
  197MOL0     C26513   6.436   9.928   7.312 -0.7149  0.1074  0.4289
  197MOL0     C26514   6.148   9.664   7.127 -0.7836 -0.8435  0.0645
  197MOL0     C26515   6.062   9.770   7.114  0.2236  0.4180 -0.2181
  197MOL0     C26516   5.954   9.762   7.039  0.3748  0.7067  0.1559
  197MOL0     C26517   5.902   9.644   6.987  0.7086  0.8849 -0.7933
  197MOL0     O26518   5.784   9.622   6.915 -0.0113  0.4605 -0.2793
  197MOL0     C26519   5.699   9.732   6.879  0.0448  0.2331 -0.1233
  197MOL0     C26520   5.637   9.692   6.746  0.2300  0.8470 -0.9395
  197MOL0     C26521   5.598   9.540   6.738 -0.2689 -1.5188  0.8906
  197MOL0     C26522   5.479   9.504   6.837  0.1081  0.0118 -0.6586
  197MOL0     C26523   5.471   9.364   6.849 -0.7746 -0.2713 -0.0986
  197MOL0     C26524   5.449   9.246   6.846 -0.1336 -0.0070  0.1793
  197MOL0     C26525   5.981   9.532   7.007 -0.1319 -0.5332  0.7390
  197MOL0     C26526   6.108   9.542   7.080 -0.9839 -0.1119  0.2330
  197MOL0     C26527   6.204   9.422   7.088 -0.0803  0.8658  0.5866
  197MOL0     H26528   6.610   9.752   7.080  0.6573  1.1376 -1.0729
  197MOL0     H26529   6.798   9.881   7.212  0.6512 -2.1953  1.4624
  197MOL0     H26530   6.720  10.163   7.492 -2.7968  1.0202  3.2754
  197MOL0     H26531   6.712  10.041   7.614  0.2419  2.6929  0.6537
  197MOL0     H26532   6.904  10.199   7.645 -2.3139 -0.3764 -0.2139
  197MOL0     H26533   6.961  10.175   7.482 -0.1919  1.7637  0.5828
  197MOL0     H26534   6.991   9.915   7.569 -0.6521  0.0273  1.0667
  197MOL0     H26535   6.937   9.981   7.718  0.6461  2.3139  2.0530
  197MOL0     H26536   7.211  10.061   7.585 -1.2941 -0.7389 -1.9763
  197MOL0     H26537   7.147  10.144   7.721  1.1461  0.4684 -1.7217
  197MOL0     H26538   7.130   9.919   7.839  2.4778  2.8007  3.0970
  197MOL0     H26539   7.219   9.843   7.701 -2.1329 -0.9636  0.9131
  197MOL0     H26540   7.402  10.028   7.755 -0.7331 -1.1259 -2.3657
  197MOL0     H26541   7.304  10.058   7.904  0.2775  0.1449 -0.6474
  197MOL0     H26542   7.405   9.788   7.807 -1.2977  0.1534 -0.5216
  197MOL0     H26543   7.308   9.809   7.941 -0.4369 -0.9017 -1.4890
  197MOL0     H26544   7.495   9.958   8.054  1.4935  0.5878 -0.1463
  197MOL0     H26545   7.553   9.789   8.005 -0.1005  0.6610  0.3181
  197MOL0     H26546   7.674   9.773   7.758  1.9992 -0.5919  1.0527
  197MOL0     H26547   7.998   9.933   7.703  0.4999 -0.0378 -2.6535
  197MOL0     H26548   7.904   9.782   7.668  1.9146 -0.6149  4.2517
  197MOL0     H26549   7.954   9.889   7.456  3.1824 -0.7584  1.8353
  197MOL0     H26550   7.776   9.924   7.496 -0.4762  5.7989  0.8442
  197MOL0     H26551   8.017  10.100   7.481 -0.0800  0.2110  0.4978
  197MOL0     H26552   7.904  10.147   7.602  2.8058  0.6533 -0.9927
  197MOL0     H26553   7.821  10.133   7.306 -0.4398  0.0210  0.0829
  197MOL0     H26554   7.873  10.270   7.396 -1.2637  0.7279  1.9792
  197MOL0     H26555   7.430  10.152   7.534 -1.5827 -0.2540  0.7795
  197MOL0     H26556   7.341  10.289   7.704 -0.4790 -0.0128 -0.9725
  197MOL0     H26557   7.098  10.548   7.893  0.0885 -2.3927 -0.1686
  197MOL0     H26558   6.981  10.655   8.092  0.0207  1.2320  1.6924
  197MOL0     H26559   6.959  10.789   8.255  0.2458 -1.7460 -1.4017
  197MOL0     H26560   6.897  10.640   8.331 -1.7251  1.7681 -0.9450
  197MOL0     H26561   6.849  10.824   8.480 -0.9899 -3.4581  1.4731
  197MOL0     H26562   6.984  10.736   8.550  3.5981  0.7426 -1.7244
  197MOL0     H26563   7.032  10.980   8.370  1.6498  2.3595  0.8988
  197MOL0     H26564   6.962  11.014   8.508 -2.5618 -1.9979 -2.3786
  197MOL0     H26565   7.225  11.036   8.529  0.4321  0.0247  1.9615
  197MOL0     H26566   7.233  10.875   8.453  0.6700  1.0425  0.3684
  197MOL0     H26567   7.303  10.863   8.670  0.2360  0.2404  1.5595
  197MOL0     H26568   7.149  10.767   8.638 -0.4622  0.8909 -1.0716
  197MOL0     H26569   7.192  11.037   8.779 -0.6381  1.6288 -3.4136
  197MOL0     H26570   7.039  10.960   8.758  0.5842  0.1129 -0.6167
  197MOL0     H26571   7.090  10.786   8.916 -0.2397 -0.7048 -1.2265
  197MOL0     H26572   7.145  10.942   8.982  0.1807 -0.0315 -0.0232
  197MOL0     H26573   7.304  10.739   9.022 -1.0006 -0.2510 -0.6812
  197MOL0     H26574   7.330  10.732   8.839  1.0244 -0.2853 -0.4967
  197MOL0     H26575   7.320  10.542   8.337  5.3914 -0.1817 -1.3108
  197MOL0     H26576   7.433  10.440   8.132  1.4543  1.4488  4.1730
  197MOL0     H26577   7.731  10.458   7.792 -0.7426  1.4505 -0.6786
  197MOL0     H26578   7.810  10.353   7.595 -0.8875  0.3783 -0.9836
  197MOL0     H26579   6.524  10.027   7.482 -1.5231 -2.1699  0.2583
  197MOL0     H26580   6.337   9.952   7.349 -1.2834 -0.5479 -0.6124
  197MOL0     H26581   6.073   9.870   7.155  0.5191  1.5272 -2.8246
  197MOL0     H26582   5.884   9.843   7.020 -1.3595 -1.5601 -5.5931
  197MOL0     H26583   5.757   9.824   6.871  2.7645 -1.0975  2.5253
  197MOL0     H26584   5.624   9.757   6.954  1.9635  1.2491  1.5279
  197MOL0     H26585   5.715   9.701   6.670  0.9138  0.1179 -0.3409
  197MOL0     H26586   5.557   9.762   6.720 -0.5856  0.3516  0.1497
  197MOL0     H26587   5.687   9.481   6.762  2.0159  1.8489  1.2722
  197MOL0     H26588   5.569   9.500   6.640 -3.0781 -1.3125  1.5620
  197MOL0     H26589   5.484   9.544   6.939 -1.9051 -0.3780 -0.3736
  197MOL0     H26590   5.390   9.544   6.788 -1.6090 -1.1030  1.3545
  197MOL0     H26591   5.431   9.141   6.840  0.3606 -0.0935  0.1932
  197MOL0     H26592   5.953   9.432   6.974 -2.9792  0.8763 -1.6068
  197MOL0     H26593   6.235   9.409   7.192 -2.2678 -0.0445  1.2042
  197MOL0     H26594   6.150   9.335   7.048  0.5641  2.5024 -4.5754
  197MOL0     H26595   6.292   9.436   7.025 -1.3689  0.7551 -1.3499
  198MOL0     O26596  10.829   3.544   5.505  0.5020  0.5124  0.5698
  198MOL0     C26597  10.717   3.517   5.464 -0.4255 -0.1836  0.2788
  198MOL0     O26598  10.649   3.589   5.370 -0.1244 -0.0749 -0.4331
  198MOL0     C26599  10.718   3.690   5.316  1.4516  0.1576 -0.1801
  198MOL0     C26600  10.722   3.820   5.379 -1.0241  0.6596 -0.4026
  198MOL0     C26601  10.807   3.916   5.321  0.2899  0.1475  0.7931
  198MOL0     C26602  10.885   3.893   5.212  0.7324  0.4185  0.6051
  198MOL0     O26603  10.981   3.984   5.162  0.6518  0.7259  0.7479
  198MOL0     C26604  11.004   4.119   5.232 -0.1709  0.9956  1.0754
  198MOL0     C26605  11.128   4.178   5.167 -0.2824 -0.8253  1.2530
  198MOL0     C26606  11.258   4.167   5.249  0.2318  0.5180  0.4515
  198MOL0     C26607  11.290   4.032   5.326  0.4844 -0.1137  0.7217
  198MOL0     C26608  11.319   3.908   5.236 -1.2735 -0.6054  0.2034
  198MOL0     C26609  11.319   3.784   5.327  0.1029  1.0124  0.9956
  198MOL0     C26610  11.182   3.723   5.341 -1.3003 -0.7879  0.9768
  198MOL0     C26611  11.166   3.589   5.412 -0.3420  0.5755  0.3345
  198MOL0     N26612  11.214   3.557   5.547 -0.5771 -0.1694 -0.4233
  198MOL0     C26613  11.133   3.543   5.655 -0.0823 -0.1602 -0.5790
  198MOL0     C26614  11.210   3.515   5.764  0.7353  0.0070 -0.1203
  198MOL0     C26615  11.145   3.499   5.898 -0.5317 -0.4628 -0.4234
  198MOL0     C26616  11.022   3.395   5.904 -0.9161 -0.3355  0.4091
  198MOL0     C26617  11.081   3.256   5.893 -0.5754 -0.2474 -0.0837
  198MOL0     C26618  11.105   3.206   6.037 -0.6014 -0.2908 -0.2574
  198MOL0     O26619  11.166   3.077   6.044  0.2286 -0.4417  0.0035
  198MOL0     C26620  11.105   2.957   6.002  0.1606 -0.4205  0.1020
  198MOL0     C26621  10.968   2.936   5.987  0.2673 -0.3086 -1.4036
  198MOL0     C26622  10.914   2.818   5.937  0.2389  0.1380 -0.1438
  198MOL0     C26623  11.000   2.704   5.909  0.2754 -1.1108  1.7460
  198MOL0     C26624  10.952   2.575   5.856  0.5469 -0.1649 -0.8587
  198MOL0     O26625  11.043   2.481   5.830 -0.0444  0.6137  0.4848
  198MOL0     C26626  11.008   2.375   5.741 -0.2510 -0.6146  0.2348
  198MOL0     C26627  10.918   2.276   5.766 -0.3614 -0.8820  0.7080
  198MOL0     C26628  10.909   2.169   5.679  0.2820 -0.3587 -0.3149
  198MOL0     C26629  10.989   2.167   5.559  0.2129 -0.3312  0.3177
  198MOL0     O26630  10.966   2.072   5.464  0.4189 -0.0847 -0.0775
  198MOL0     C26631  10.906   1.951   5.509  0.7105  0.2504  0.1552
  198MOL0     C26632  10.888   1.857   5.390 -1.1230  0.2057 -0.3405
  198MOL0     C26633  11.022   1.797   5.342  0.1041 -0.1831 -0.7504
  198MOL0     C26634  11.062   1.660   5.419  0.3856  0.2958  0.8230
  198MOL0     C26635  11.209   1.640   5.396 -0.2745  1.4136  1.0443
  198MOL0     C26636  11.250   1.510   5.466  0.2000  0.2418  0.5866
  198MOL0     C26637  11.396   1.468   5.432 -1.1887  0.7970 -0.0940
  198MOL0     C26638  11.442   1.331   5.488 -1.3615 -0.5893  0.3829
  198MOL0    Cl26639  11.315   1.209   5.458 -0.7305  0.2525 -0.0131
  198MOL0     C26640  11.070   2.275   5.528  0.0665  0.4792  0.0581
  198MOL0     C26641  11.091   2.372   5.629 -0.1972  0.3799  0.0331
  198MOL0     O26642  10.830   2.556   5.864 -0.5549 -0.4812  0.0159
  198MOL0     C26643  11.141   2.725   5.931  0.2018 -0.3092 -0.7601
  198MOL0     C26644  11.191   2.851   5.965 -0.1023  0.2303  0.2451
  198MOL0     N26645  11.341   3.502   5.712  0.6186  0.2330  0.4274
  198MOL0     N26646  11.345   3.530   5.587  0.1574  0.0951  0.7243
  198MOL0     C26647  10.869   3.769   5.145 -0.4394  0.0920 -0.0547
  198MOL0     C26648  10.782   3.674   5.195  0.4642  0.5460  0.8708
  198MOL0     C26649  10.662   3.400   5.539 -0.4165 -0.1023  1.2923
  198MOL0     C26650  10.739   3.340   5.642 -0.7367 -0.1515  0.5518
  198MOL0     C26651  10.689   3.236   5.728 -0.1475 -0.1897 -0.3767
  198MOL0     C26652  10.563   3.178   5.696  0.1673  0.6874 -0.0221
  198MOL0     O26653  10.531   3.059   5.763  0.0651 -0.1868  0.4604
  198MOL0     C26654  10.408   2.998   5.726 -1.2953 -0.1299  0.2247
  198MOL0     C26655  10.377   2.877   5.803  0.1058  0.0861 -0.3509
  198MOL0     C26656  10.491   2.776   5.786  0.3316 -0.2558 -0.4221
  198MOL0     C26657  10.469   2.638   5.853  0.2635  0.8003 -0.1538
  198MOL0     C26658  10.344   2.564   5.813 -0.1581 -1.6913 -0.9441
  198MOL0     C26659  10.234   2.520   5.784 -0.3105  1.3137  0.4000
  198MOL0     C26660  10.486   3.242   5.600 -1.0311 -0.4906  0.3198
  198MOL0     C26661  10.526   3.356   5.521 -0.0527 -0.8217  0.2551
  198MOL0     C26662  10.429   3.403   5.413 -0.9218  0.5323 -0.3385
  198MOL0     H26663  10.668   3.842   5.471 -1.6537  2.4040 -1.1430
  198MOL0     H26664  10.816   4.010   5.375 -0.6715  3.4899 -4.1973
  198MOL0     H26665  10.916   4.179   5.207  1.0413  1.9708 -1.1147
  198MOL0     H26666  11.016   4.121   5.341  3.0025 -1.3453  0.8951
  198MOL0     H26667  11.114   4.287   5.165  3.0381 -0.3039  1.1917
  198MOL0     H26668  11.147   4.136   5.068  2.0741  1.7302  0.5115
  198MOL0     H26669  11.249   4.247   5.323  0.5769  0.1721  0.8724
  198MOL0     H26670  11.342   4.195   5.185 -1.0143 -2.3699 -2.7935
  198MOL0     H26671  11.383   4.045   5.382 -1.3984  2.2570  3.5971
  198MOL0     H26672  11.209   4.008   5.396 -0.7487  0.4193 -0.4630
  198MOL0     H26673  11.263   3.906   5.143  2.9697 -1.3087 -2.6502
  198MOL0     H26674  11.423   3.914   5.202 -0.2517  1.3758  3.2085
  198MOL0     H26675  11.387   3.706   5.291 -0.1385  0.7544  1.0927
  198MOL0     H26676  11.352   3.824   5.424 -0.5713  2.7797  0.5303
  198MOL0     H26677  11.153   3.699   5.238  1.1112 -3.3616  0.7655
  198MOL0     H26678  11.119   3.806   5.373  1.4231  1.5192  0.7552
  198MOL0     H26679  11.060   3.565   5.405  0.6101 -4.7861  0.0504
  198MOL0     H26680  11.210   3.507   5.354  0.6995  0.1503  1.6498
  198MOL0     H26681  11.026   3.559   5.657  0.1724  1.9473  2.3993
  198MOL0     H26682  11.224   3.471   5.968 -1.6679  0.9118  1.5169
  198MOL0     H26683  11.109   3.597   5.930  0.6419 -0.1580  0.0107
  198MOL0     H26684  10.960   3.405   5.994 -0.7208 -4.5446  1.2075
  198MOL0     H26685  10.962   3.413   5.814  1.2029 -4.0172 -2.0000
  198MOL0     H26686  11.176   3.249   5.839  0.1794 -1.2871  1.3071
  198MOL0     H26687  11.007   3.195   5.841  0.2446 -1.3085 -0.0376
  198MOL0     H26688  11.011   3.206   6.093 -1.1430  0.9185 -1.1227
  198MOL0     H26689  11.178   3.280   6.072 -1.2301  0.5161 -0.6101
  198MOL0     H26690  10.905   3.020   6.016 -1.1611 -1.8159  0.0523
  198MOL0     H26691  10.805   2.809   5.933  0.3274 -1.8427  0.6462
  198MOL0     H26692  10.854   2.286   5.854  0.8628  3.2686  1.3582
  198MOL0     H26693  10.844   2.091   5.716  0.1643 -1.3171 -2.3707
  198MOL0     H26694  10.970   1.897   5.579  1.1959 -2.0662 -1.9175
  198MOL0     H26695  10.802   1.962   5.541 -0.5424 -0.2351 -3.3222
  198MOL0     H26696  10.819   1.777   5.416 -2.0707  0.6046 -1.5195
  198MOL0     H26697  10.852   1.914   5.304  1.5506 -0.5141 -2.0586
  198MOL0     H26698  11.034   1.782   5.234  0.1934 -0.4330 -0.7059
  198MOL0     H26699  11.099   1.873   5.363 -0.4754 -0.2874  2.0817
  198MOL0     H26700  11.016   1.572   5.372  0.3747  1.0182 -0.5792
  198MOL0     H26701  11.057   1.672   5.528  0.9500 -0.4273  0.9345
  198MOL0     H26702  11.269   1.725   5.430  1.6272  1.7869 -2.7853
  198MOL0     H26703  11.219   1.638   5.288  0.5636  1.9622  1.1034
  198MOL0     H26704  11.234   1.514   5.574 -0.6453  0.6079  0.4548
  198MOL0     H26705  11.179   1.434   5.431  0.7754  0.7917 -1.9233
  198MOL0     H26706  11.459   1.555   5.453  0.8970 -0.4398 -0.9628
  198MOL0     H26707  11.415   1.454   5.325  0.2930 -1.0805  0.3609
  198MOL0     H26708  11.536   1.290   5.452 -0.5391 -0.0156  1.7865
  198MOL0     H26709  11.456   1.344   5.596  1.0601  0.9681 -0.0629
  198MOL0     H26710  11.126   2.269   5.435 -1.1646 -1.6947 -0.6155
  198MOL0     H26711  11.158   2.452   5.600 -0.8467  0.4927 -1.2421
  198MOL0     H26712  11.203   2.637   5.917  0.1187 -0.8130  1.5682
  198MOL0     H26713  11.297   2.851   5.987 -0.6165 -1.3918  3.1478
  198MOL0     H26714  10.934   3.744   5.062 -1.6304 -1.7011 -0.4978
  198MOL0     H26715  10.784   3.580   5.140 -1.7860 -0.2190  1.9720
  198MOL0     H26716  10.844   3.368   5.652 -1.5202  2.2981  3.0807
  198MOL0     H26717  10.755   3.203   5.808 -1.7845  1.4332  1.7552
  198MOL0     H26718  10.414   2.965   5.621  0.4250  1.6393 -0.2866
  198MOL0     H26719  10.331   3.076   5.729  2.5946  4.3479 -2.4282
  198MOL0     H26720  10.283   2.846   5.756 -0.9541 -0.4494  1.9990
  198MOL0     H26721  10.358   2.895   5.909  3.6912  1.0745  0.2291
  198MOL0     H26722  10.580   2.818   5.833 -1.0735 -0.5070  2.6964
  198MOL0     H26723  10.510   2.763   5.678  0.5423  0.2414 -0.4488
  198MOL0     H26724  10.550   2.572   5.824  1.6898  2.7781 -0.8561
  198MOL0     H26725  10.476   2.651   5.961 -0.9916  0.2885  0.0097
  198MOL0     H26726  10.136   2.482   5.766  0.7508 -1.0662 -0.7169
  198MOL0     H26727  10.402   3.186   5.559 -0.8958 -0.6435  0.2475
  198MOL0     H26728  10.421   3.512   5.410  0.8573  0.6808 -1.6886
  198MOL0     H26729  10.457   3.373   5.312 -0.4818 -2.9193  0.7049
  198MOL0     H26730  10.334   3.353   5.427 -2.0449  2.5541 -0.3304
  199MOL0     O26731   7.161  11.179  10.966  0.2813 -0.0100 -0.3434
  199MOL0     C26732   7.092  11.222  10.877 -0.7264  0.5108  0.3712
  199MOL0     O26733   7.082  11.161  10.761 -0.8545 -0.2139  0.1507
  199MOL0     C26734   7.142  11.044  10.738  0.6453 -0.7531  0.3174
  199MOL0     C26735   7.064  10.931  10.747 -0.4602 -0.7004  0.0710
  199MOL0     C26736   7.115  10.805  10.743 -0.3761 -0.3193  0.9890
  199MOL0     C26737   7.248  10.781  10.710  0.2174 -0.7685 -1.0359
  199MOL0     O26738   7.305  10.651  10.711  0.7458  0.5888 -0.3674
  199MOL0     C26739   7.207  10.543  10.689  0.9268 -0.8281 -0.3825
  199MOL0     C26740   7.268  10.409  10.684  0.3691 -0.2470 -0.9533
  199MOL0     C26741   7.354  10.367  10.803  0.5151  0.2283  0.4925
  199MOL0     C26742   7.290  10.387  10.942  0.3526  0.1989 -0.6376
  199MOL0     C26743   7.394  10.337  11.045  0.2128  1.1251 -1.0045
  199MOL0     C26744   7.347  10.356  11.195 -0.1555  0.2300  0.4210
  199MOL0     C26745   7.453  10.295  11.282  0.3670 -0.0956 -0.3108
  199MOL0     C26746   7.422  10.304  11.425 -0.3230  0.6419  0.2243
  199MOL0     N26747   7.555  10.296  11.495 -0.3092 -0.2668 -0.5953
  199MOL0     C26748   7.649  10.400  11.500  0.0079  0.2996 -0.2758
  199MOL0     C26749   7.763  10.346  11.550 -0.1319  0.9986 -0.5150
  199MOL0     C26750   7.880  10.426  11.584  0.3213  0.2220 -0.4918
  199MOL0     C26751   7.959  10.358  11.703 -0.5831 -0.1800 -0.2851
  199MOL0     C26752   8.068  10.455  11.765  0.4160  0.3958  0.8041
  199MOL0     C26753   8.134  10.412  11.888  0.0120  0.1451 -0.0817
  199MOL0     O26754   8.238  10.509  11.929  1.0460 -0.0776 -0.2431
  199MOL0     C26755   8.361  10.510  11.882  0.0584 -0.4727  0.5100
  199MOL0     C26756   8.414  10.427  11.778 -0.1051 -0.0891 -1.0338
  199MOL0     C26757   8.543  10.430  11.733  0.0525 -0.4988  1.3250
  199MOL0     C26758   8.627  10.531  11.789 -0.3666 -0.8620 -0.0699
  199MOL0     C26759   8.764  10.554  11.753  0.3606 -0.3611  0.9584
  199MOL0     O26760   8.839  10.645  11.830  0.9365  0.2184  0.5216
  199MOL0     C26761   8.975  10.628  11.848 -1.0783 -0.2567  0.1347
  199MOL0     C26762   9.045  10.734  11.913  1.0225  0.2526  0.1431
  199MOL0     C26763   9.179  10.723  11.940  0.2462 -0.5526  0.5978
  199MOL0     C26764   9.255  10.624  11.891 -0.4796  0.6454 -0.6481
  199MOL0     O26765   9.392  10.644  11.910 -0.2696 -0.2601  0.8761
  199MOL0     C26766   9.490  10.563  11.831  0.3337  0.5010 -0.0660
  199MOL0     C26767   9.637  10.594  11.880  0.1657 -0.2648 -0.1187
  199MOL0     C26768   9.731  10.556  11.768 -0.1899 -0.4487 -0.3152
  199MOL0     C26769   9.845  10.454  11.805 -0.2216 -0.6214 -0.5229
  199MOL0     C26770   9.970  10.477  11.712 -0.3036 -0.0630  0.4369
  199MOL0     C26771  10.070  10.578  11.773  0.2109 -0.1853  1.1354
  199MOL0     C26772  10.124  10.534  11.911  0.3123 -0.2167 -0.6795
  199MOL0     C26773  10.232  10.634  11.945  1.1140 -0.5579 -0.3188
  199MOL0    Cl26774  10.198  10.819  11.942 -0.3622 -0.3557 -0.0018
  199MOL0     C26775   9.194  10.519  11.830  0.6804  0.9524  0.3389
  199MOL0     C26776   9.054  10.517  11.803 -0.2225  0.0697  0.3728
  199MOL0     O26777   8.802  10.481  11.662 -0.8673 -0.1363  0.8899
  199MOL0     C26778   8.568  10.622  11.881  0.6492 -0.4817  0.6832
  199MOL0     C26779   8.444  10.611  11.924 -0.0234  1.0779 -0.0031
  199MOL0     N26780   7.733  10.214  11.584 -0.0158  0.4549 -0.2911
  199MOL0     N26781   7.613  10.188  11.556 -0.6672  0.0930 -0.7077
  199MOL0     C26782   7.333  10.891  10.708  0.7541  0.3966 -0.8829
  199MOL0     C26783   7.279  11.018  10.715 -0.1727 -0.9444  0.4654
  199MOL0     C26784   7.016  11.344  10.894 -0.1033  0.7390 -0.6538
  199MOL0     C26785   7.020  11.393  11.027 -0.1899 -0.4298 -0.0611
  199MOL0     C26786   6.950  11.512  11.057  0.1443 -0.3816  0.4384
  199MOL0     C26787   6.874  11.576  10.963  0.0796 -0.7092 -1.0196
  199MOL0     O26788   6.816  11.695  10.995 -0.3074  0.1165  0.3388
  199MOL0     C26789   6.672  11.675  11.010 -0.1028  0.0760  0.6365
  199MOL0     C26790   6.628  11.774  11.113 -0.0982  0.8468  0.1036
  199MOL0     C26791   6.647  11.712  11.253 -0.2900 -0.7046 -0.0625
  199MOL0     C26792   6.558  11.781  11.365 -0.2939  0.0105  0.2160
  199MOL0     C26793   6.420  11.726  11.369  0.3936  0.2471 -0.6159
  199MOL0     C26794   6.309  11.680  11.385  0.4078  0.3472 -0.0053
  199MOL0     C26795   6.870  11.516  10.837 -0.2045 -1.4639  0.2988
  199MOL0     C26796   6.936  11.404  10.793 -0.5065 -1.1946  0.1725
  199MOL0     C26797   6.901  11.359  10.660 -0.1388  0.3244  0.3001
  199MOL0     H26798   6.961  10.957  10.773  0.6354  1.8822  2.2972
  199MOL0     H26799   7.045  10.723  10.756 -1.6473  0.4256 -0.7583
  199MOL0     H26800   7.131  10.546  10.768  0.8358  4.9178 -0.2719
  199MOL0     H26801   7.147  10.550  10.598  0.9269  3.0459 -0.2582
  199MOL0     H26802   7.326  10.417  10.592  0.6150 -1.7946 -0.9553
  199MOL0     H26803   7.186  10.337  10.676  1.2409 -1.8072  2.2499
  199MOL0     H26804   7.450  10.419  10.794 -0.3312  1.4223 -3.9607
  199MOL0     H26805   7.375  10.260  10.803  0.1699  0.1389 -0.7909
  199MOL0     H26806   7.275  10.493  10.961 -1.8726  0.4121 -2.9566
  199MOL0     H26807   7.188  10.348  10.955  0.1170  1.1233  0.3704
  199MOL0     H26808   7.409  10.229  11.037 -0.1618  0.5730  3.2032
  199MOL0     H26809   7.491  10.383  11.028  3.0924 -3.3699  1.2540
  199MOL0     H26810   7.342  10.466  11.200 -1.0416  0.3035 -1.2810
  199MOL0     H26811   7.247  10.320  11.222 -0.1474 -0.7043 -0.7252
  199MOL0     H26812   7.549  10.345  11.264  1.8014 -2.2573  0.8692
  199MOL0     H26813   7.459  10.191  11.250  1.7493 -0.4652  1.0288
  199MOL0     H26814   7.375  10.399  11.452  1.8811  1.9044 -0.1100
  199MOL0     H26815   7.356  10.221  11.450  0.2692  0.6113  1.8074
  199MOL0     H26816   7.628  10.504  11.473  0.1091  0.6251  0.8494
  199MOL0     H26817   7.946  10.427  11.497 -0.4371 -0.3313 -1.0774
  199MOL0     H26818   7.855  10.533  11.591 -0.8809 -0.0649 -0.1175
  199MOL0     H26819   7.889  10.335  11.784  1.7756 -3.5027  1.0618
  199MOL0     H26820   7.992  10.259  11.670  0.4427  0.0806 -0.0774
  199MOL0     H26821   8.016  10.549  11.788 -2.8942 -1.0744 -0.0972
  199MOL0     H26822   8.142  10.478  11.688  2.9178 -1.6093  2.4095
  199MOL0     H26823   8.168  10.309  11.871 -1.5581 -0.6606  1.3623
  199MOL0     H26824   8.067  10.398  11.973  2.4115  0.7069  2.0258
  199MOL0     H26825   8.350  10.350  11.736  0.2019  1.0785 -3.8853
  199MOL0     H26826   8.572  10.358  11.658  0.5325  0.1269  0.8998
  199MOL0     H26827   8.991  10.817  11.958  1.4691  1.0872 -0.8248
  199MOL0     H26828   9.228  10.807  11.989  1.5944 -0.7111 -0.4408
  199MOL0     H26829   9.467  10.457  11.844 -0.8269  0.9418  1.8508
  199MOL0     H26830   9.483  10.588  11.725 -2.7754 -0.1185 -0.0836
  199MOL0     H26831   9.640  10.701  11.900 -0.9808 -0.5809  2.1004
  199MOL0     H26832   9.658  10.541  11.974 -0.3923 -1.5943 -0.7067
  199MOL0     H26833   9.680  10.534  11.674 -0.8452  0.0641 -0.0915
  199MOL0     H26834   9.775  10.656  11.765 -0.8096 -0.2034 -1.7269
  199MOL0     H26835   9.815  10.349  11.800  3.1250 -1.7623  0.2354
  199MOL0     H26836   9.850  10.471  11.913  0.5030  0.0830 -0.6644
  199MOL0     H26837   9.939  10.487  11.608 -1.0526  0.6317  0.7150
  199MOL0     H26838  10.024  10.383  11.723 -1.7170 -0.8188  1.1951
  199MOL0     H26839  10.158  10.582  11.709 -1.3171 -3.7191 -1.5780
  199MOL0     H26840  10.018  10.674  11.782 -2.2200 -1.0770 -1.7171
  199MOL0     H26841  10.182  10.441  11.914 -0.7256 -0.8620  0.8876
  199MOL0     H26842  10.038  10.530  11.978  1.5747 -1.6338  0.9335
  199MOL0     H26843  10.264  10.601  12.045  0.5798  1.4386  0.5725
  199MOL0     H26844  10.321  10.619  11.884  0.5589 -0.0266 -1.2799
  199MOL0     H26845   9.252  10.429  11.815 -2.3250 -1.3855  1.6975
  199MOL0     H26846   9.013  10.433  11.748  3.0580 -1.3409 -0.1858
  199MOL0     H26847   8.626  10.707  11.916 -1.2062  0.6792  1.0759
  199MOL0     H26848   8.402  10.686  11.990 -1.2488 -0.0697  0.5899
  199MOL0     H26849   7.438  10.872  10.686  0.9653 -2.7121  1.8307
  199MOL0     H26850   7.348  11.101  10.700  0.1899 -1.3729 -0.2777
  199MOL0     H26851   7.070  11.339  11.106 -1.4943 -0.5452  0.7093
  199MOL0     H26852   6.959  11.552  11.158  1.8134  2.8246 -0.8409
  199MOL0     H26853   6.638  11.573  11.029 -1.1873  0.4622  0.8224
  199MOL0     H26854   6.637  11.705  10.911  1.4186 -0.0681  0.0185
  199MOL0     H26855   6.522  11.799  11.099 -0.3814 -0.0762  0.4865
  199MOL0     H26856   6.689  11.864  11.104  2.3978 -0.5201  2.0883
  199MOL0     H26857   6.751  11.710  11.286 -0.7827  0.8240  1.7312
  199MOL0     H26858   6.613  11.608  11.245  0.4426 -1.0347  0.9876
  199MOL0     H26859   6.614  11.767  11.458 -1.7122  0.3961  1.1685
  199MOL0     H26860   6.550  11.889  11.352 -0.8497 -0.3569 -3.6655
  199MOL0     H26861   6.220  11.623  11.403 -0.8426  1.7979 -1.2916
  199MOL0     H26862   6.828  11.574  10.756 -0.5697  0.9101  2.0801
  199MOL0     H26863   6.867  11.446  10.604  0.5045  0.1787 -0.3292
  199MOL0     H26864   6.985  11.304  10.616 -0.8682 -1.9000  1.5037
  199MOL0     H26865   6.824  11.281  10.660  1.7863 -1.6871 -0.4609
  200MOL0     O26866   3.487  10.696   0.243 -0.3502 -0.9605 -0.4924
  200MOL0     C26867   3.437  10.692   0.347 -1.2059 -0.2425  0.6361
  200MOL0     O26868   3.490  10.625   0.452 -0.1433 -0.3619  0.1954
  200MOL0     C26869   3.622  10.577   0.440 -0.0838  0.6788 -0.6243
  200MOL0     C26870   3.638  10.445   0.466 -0.5877 -0.1598  0.7603
  200MOL0     C26871   3.763  10.383   0.442  0.2966  0.7315  0.2549
  200MOL0     C26872   3.875  10.462   0.400 -0.0464 -0.7511  0.0758
  200MOL0     O26873   4.002  10.418   0.366 -0.0903 -0.5909 -1.0456
  200MOL0     C26874   4.057  10.307   0.435  0.1691 -0.4431  0.6243
  200MOL0     C26875   4.202  10.277   0.400 -0.0096  0.1380 -0.2472
  200MOL0     C26876   4.270  10.154   0.459 -0.5450 -0.0477  0.4623
  200MOL0     C26877   4.292  10.172   0.614 -0.3291 -0.4020  0.5637
  200MOL0     C26878   4.350  10.055   0.685  0.1740 -0.2819  0.7184
  200MOL0     C26879   4.497  10.050   0.658 -0.0473  0.7890 -0.1520
  200MOL0     C26880   4.540   9.923   0.739  0.3349  0.5915 -0.6019
  200MOL0     C26881   4.554   9.946   0.894  0.5210  0.2482  1.3327
  200MOL0     N26882   4.690   9.982   0.931  0.0947  0.2023  0.1478
  200MOL0     C26883   4.717  10.108   0.960  0.9468  0.1317 -0.0495
  200MOL0     C26884   4.839  10.097   1.024  0.1241  0.3413  0.6868
  200MOL0     C26885   4.895  10.220   1.091 -0.2808  1.2314  0.3724
  200MOL0     C26886   5.054  10.218   1.093 -0.1278  0.4444  0.2711
  200MOL0     C26887   5.122  10.235   0.956  0.0833 -0.0315  0.6970
  200MOL0     C26888   5.263  10.289   0.964  0.2974  0.4098 -0.4390
  200MOL0     O26889   5.341  10.184   1.024  0.5650  0.3145 -0.6570
  200MOL0     C26890   5.388  10.093   0.928 -1.0575 -0.9319 -0.5637
  200MOL0     C26891   5.389   9.965   0.973 -0.1879 -0.3834  0.3576
  200MOL0     C26892   5.460   9.869   0.899  0.0971  0.0921  0.6392
  200MOL0     C26893   5.521   9.893   0.773  0.0989 -0.2800 -0.7787
  200MOL0     C26894   5.587   9.789   0.702 -0.4180  1.3769  0.4828
  200MOL0     O26895   5.636   9.821   0.576 -0.6608  0.1931 -0.2782
  200MOL0     C26896   5.702   9.732   0.500  0.0074  0.4951  0.7396
  200MOL0     C26897   5.794   9.631   0.550 -0.4279  0.6575 -0.2084
  200MOL0     C26898   5.866   9.543   0.459  0.8465 -0.1747  0.8939
  200MOL0     C26899   5.871   9.569   0.325  0.3584 -0.8692  0.1241
  200MOL0     O26900   5.948   9.498   0.239  0.6060  0.0221  1.0771
  200MOL0     C26901   6.081   9.453   0.282 -0.7008  1.1736  0.1592
  200MOL0     C26902   6.182   9.405   0.172 -0.8204 -0.2242  0.7291
  200MOL0     C26903   6.117   9.305   0.076 -0.0203 -0.2321 -0.1409
  200MOL0     C26904   6.198   9.278  -0.051  0.1311  0.5013  0.1178
  200MOL0     C26905   6.126   9.163  -0.133  0.1765 -0.0823  0.6192
  200MOL0     C26906   6.213   9.134  -0.257  0.6083 -0.5381  0.0822
  200MOL0     C26907   6.193   9.001  -0.323 -0.3487  0.1514 -0.1943
  200MOL0     C26908   6.248   8.999  -0.464  0.4509  0.0947 -0.6691
  200MOL0    Cl26909   6.423   9.010  -0.477  0.4334 -0.3085  0.3310
  200MOL0     C26910   5.775   9.663   0.272 -0.2784 -0.1104 -0.2866
  200MOL0     C26911   5.692   9.737   0.359 -0.2487  0.2267  0.2569
  200MOL0     O26912   5.586   9.673   0.761 -0.0995  0.3439  0.5203
  200MOL0     C26913   5.520  10.033   0.728  1.0768  0.0032  0.3773
  200MOL0     C26914   5.451  10.127   0.806 -0.1726  0.1084 -0.0714
  200MOL0     N26915   4.873   9.966   1.029  0.4007  0.8095 -1.1282
  200MOL0     N26916   4.783   9.896   0.980  0.2177  0.0467 -0.8697
  200MOL0     C26917   3.855  10.600   0.388  0.1990  0.1614  0.0390
  200MOL0     C26918   3.724  10.660   0.406  0.0571  0.6501 -0.4318
  200MOL0     C26919   3.312  10.761   0.366 -0.3831  0.6957  0.1002
  200MOL0     C26920   3.196  10.724   0.292 -0.5748 -0.1649  0.7368
  200MOL0     C26921   3.072  10.775   0.339  0.0947  0.4439 -0.2427
  200MOL0     C26922   3.058  10.866   0.438  0.6554  0.1032  0.9598
  200MOL0     O26923   2.935  10.892   0.480 -0.7771 -0.2908 -0.6003
  200MOL0     C26924   2.913  10.970   0.590 -0.3062  0.7108 -0.7111
  200MOL0     C26925   2.763  11.000   0.598 -0.3587 -0.1219  0.5463
  200MOL0     C26926   2.722  11.103   0.709  0.2124 -0.3347  0.0924
  200MOL0     C26927   2.570  11.132   0.711 -0.0612 -0.5026 -0.2901
  200MOL0     C26928   2.536  11.250   0.638 -0.5872  0.0312  0.1479
  200MOL0     C26929   2.529  11.362   0.598 -0.3979  0.2437  0.6116
  200MOL0     C26930   3.168  10.909   0.507  0.0011  0.7239 -0.2862
  200MOL0     C26931   3.294  10.851   0.476  0.2560  0.6054  0.2272
  200MOL0     C26932   3.412  10.895   0.568  0.5623  0.1558 -0.3506
  200MOL0     H26933   3.550  10.397   0.505 -1.3133  1.6035  1.3778
  200MOL0     H26934   3.759  10.275   0.452 -0.1048  0.7121 -0.1008
  200MOL0     H26935   4.035  10.312   0.542  0.4599 -0.2148  0.6753
  200MOL0     H26936   4.007  10.216   0.401 -2.5242  0.5272  1.7528
  200MOL0     H26937   4.251  10.373   0.421 -2.0554  1.5948 -1.6537
  200MOL0     H26938   4.213  10.276   0.291  1.6853 -2.2506 -0.1320
  200MOL0     H26939   4.359  10.126   0.402 -0.2494 -1.2716  1.4803
  200MOL0     H26940   4.202  10.068   0.450 -0.3589 -0.0681 -0.9453
  200MOL0     H26941   4.354  10.262   0.623 -0.6112  0.1822 -2.3106
  200MOL0     H26942   4.198  10.184   0.669 -1.6599  2.8242 -2.0671
  200MOL0     H26943   4.325  10.067   0.791 -0.8744 -3.3587  0.9073
  200MOL0     H26944   4.301   9.963   0.653  0.7595 -0.9833  1.7797
  200MOL0     H26945   4.524  10.039   0.553 -2.5825  2.9964 -1.1600
  200MOL0     H26946   4.550  10.138   0.697  1.5705 -0.7466  1.3290
  200MOL0     H26947   4.639   9.898   0.700  0.9078 -1.0867  1.7351
  200MOL0     H26948   4.463   9.846   0.728 -1.8041  2.1315  2.1151
  200MOL0     H26949   4.488  10.022   0.937 -0.8356 -0.4006  0.4680
  200MOL0     H26950   4.534   9.852   0.948  2.2299 -0.6940  0.4152
  200MOL0     H26951   4.656  10.196   0.943 -1.6936 -2.1609 -4.6558
  200MOL0     H26952   4.862  10.313   1.044  2.7941  3.8917  3.0871
  200MOL0     H26953   4.868  10.226   1.197  0.2784  2.6269  0.4440
  200MOL0     H26954   5.084  10.303   1.154  1.0556  0.5335 -0.3974
  200MOL0     H26955   5.084  10.126   1.144 -1.8861  1.0275  2.5306
  200MOL0     H26956   5.076  10.315   0.897  0.9893  1.6508  2.1432
  200MOL0     H26957   5.130  10.144   0.897 -0.0036  1.3402 -1.5686
  200MOL0     H26958   5.269  10.375   1.031  2.6384 -0.0798  0.0757
  200MOL0     H26959   5.287  10.319   0.861  0.2421  2.0320 -0.0089
  200MOL0     H26960   5.344   9.948   1.070  1.5542  1.1462  1.5008
  200MOL0     H26961   5.470   9.766   0.934  2.5514 -0.6890 -1.9583
  200MOL0     H26962   5.801   9.601   0.654 -0.7713 -3.0292 -1.1206
  200MOL0     H26963   5.916   9.458   0.506  0.5089 -0.8351  0.0908
  200MOL0     H26964   6.131   9.544   0.315 -0.4854  1.9236 -2.0227
  200MOL0     H26965   6.069   9.376   0.358  2.4295  1.7335  1.3594
  200MOL0     H26966   6.201   9.497   0.115 -3.2114  1.4170  2.3852
  200MOL0     H26967   6.267   9.353   0.218  0.2512  2.0752  1.5055
  200MOL0     H26968   6.098   9.214   0.133  1.6217  0.5552  1.7733
  200MOL0     H26969   6.025   9.349   0.035  0.7604  3.5397  1.7153
  200MOL0     H26970   6.302   9.250  -0.030 -0.4902 -1.9264  0.3234
  200MOL0     H26971   6.197   9.363  -0.120 -0.5847  1.4846  1.2891
  200MOL0     H26972   6.026   9.199  -0.157 -0.0997  0.4774  2.4993
  200MOL0     H26973   6.125   9.080  -0.061 -1.6683  0.2921  1.0733
  200MOL0     H26974   6.198   9.216  -0.327  5.1345  0.7357  0.2597
  200MOL0     H26975   6.319   9.140  -0.230  0.9970 -1.4848 -1.1453
  200MOL0     H26976   6.085   8.989  -0.323 -0.3162 -0.1307 -0.4153
  200MOL0     H26977   6.241   8.931  -0.254 -2.0628 -0.6442  0.2391
  200MOL0     H26978   6.206   8.906  -0.502 -2.0166 -0.4142  2.8231
  200MOL0     H26979   6.192   9.078  -0.514  0.2533  0.4654  0.1105
  200MOL0     H26980   5.785   9.688   0.167 -2.0112  0.7490 -0.2749
  200MOL0     H26981   5.623   9.803   0.308 -1.6809 -1.8679 -0.6812
  200MOL0     H26982   5.581  10.065   0.644  4.0257 -1.7203  1.7188
  200MOL0     H26983   5.450  10.229   0.769 -0.5324  0.0539 -0.2153
  200MOL0     H26984   3.942  10.655   0.354 -0.5054  0.7661 -0.8063
  200MOL0     H26985   3.729  10.765   0.378 -1.4386  0.2825 -2.3150
  200MOL0     H26986   3.186  10.655   0.209  2.7949 -1.1079  0.9661
  200MOL0     H26987   2.982  10.733   0.293 -0.4844  0.7536  0.5845
  200MOL0     H26988   2.976  11.059   0.589  1.5626 -0.5403  0.4633
  200MOL0     H26989   2.946  10.909   0.675  0.5619  1.6768 -0.3422
  200MOL0     H26990   2.714  10.903   0.607 -0.2883 -0.5158 -2.2461
  200MOL0     H26991   2.726  11.042   0.504  0.7208 -0.6351 -0.1196
  200MOL0     H26992   2.781  11.194   0.695 -0.9473  0.2793 -1.1571
  200MOL0     H26993   2.737  11.060   0.808 -1.6527  3.4895  2.2811
  200MOL0     H26994   2.532  11.035   0.677  2.1165 -1.3931 -0.3412
  200MOL0     H26995   2.531  11.154   0.811 -2.7034  2.0506 -1.7245
  200MOL0     H26996   2.520  11.464   0.567  0.7179  0.4164  0.8029
  200MOL0     H26997   3.165  10.980   0.589  0.1728 -0.6065  0.9214
  200MOL0     H26998   3.375  10.963   0.645  0.0730 -0.6539  0.1391
  200MOL0     H26999   3.439  10.808   0.629  0.5452  1.1180  1.0595
  200MOL0     H27000   3.500  10.928   0.513  0.1267 -1.8555 -2.4089
  201MOL0     O27001   4.842  10.670   6.618 -0.2163 -0.2961 -0.6677
  201MOL0     C27002   4.836  10.560   6.577  0.0569  0.3423  1.6074
  201MOL0     O27003   4.727  10.481   6.573 -0.5706  0.2736  0.1272
  201MOL0     C27004   4.658  10.470   6.689 -0.3389 -0.0798  0.0201
  201MOL0     C27005   4.533  10.535   6.698 -0.7260 -0.5904 -0.1931
  201MOL0     C27006   4.457  10.530   6.809  0.2329 -0.5586  0.3586
  201MOL0     C27007   4.487  10.438   6.913 -0.7653 -1.1910  0.4999
  201MOL0     O27008   4.403  10.401   7.012  0.4402 -1.3049 -0.1454
  201MOL0     C27009   4.274  10.481   7.025 -0.7621  1.5511  0.0079
  201MOL0     C27010   4.189  10.415   7.133 -0.1689  0.4311  0.1551
  201MOL0     C27011   4.169  10.264   7.102  0.1789 -0.7456  0.8902
  201MOL0     C27012   4.076  10.200   7.205 -0.6466  0.1500 -0.5092
  201MOL0     C27013   4.147  10.176   7.335 -0.1053  0.1109  0.2679
  201MOL0     C27014   4.072  10.093   7.449 -0.6061  0.1944  0.7296
  201MOL0     C27015   3.934  10.153   7.481  0.3192  1.0137  0.3489
  201MOL0     C27016   3.940  10.241   7.610 -0.7080 -0.3510  0.4681
  201MOL0     N27017   4.025  10.358   7.587 -0.1401  0.8405  0.6727
  201MOL0     C27018   4.150  10.366   7.636  0.7410  0.4614 -0.1070
  201MOL0     C27019   4.202  10.479   7.604 -1.3886 -0.6541  0.2961
  201MOL0     C27020   4.344  10.521   7.614  0.8494  0.9827  0.0560
  201MOL0     C27021   4.382  10.568   7.469 -0.2235  0.2026  0.3726
  201MOL0     C27022   4.523  10.549   7.432  0.6679  0.4406  0.0569
  201MOL0     C27023   4.564  10.568   7.291 -0.3485 -0.8566  0.1327
  201MOL0     O27024   4.528  10.708   7.253 -0.3084 -0.2560 -0.7530
  201MOL0     C27025   4.613  10.785   7.175 -0.4914  0.4625  1.0934
  201MOL0     C27026   4.682  10.730   7.064  0.4351 -0.4287 -0.1920
  201MOL0     C27027   4.767  10.807   6.989 -0.0102  0.1750  0.4789
  201MOL0     C27028   4.774  10.944   7.001  0.9157  0.7372  0.1799
  201MOL0     C27029   4.860  11.029   6.918  0.3182  0.9025 -0.4193
  201MOL0     O27030   4.960  10.968   6.858  0.5902  0.4521 -0.9922
  201MOL0     C27031   5.069  11.034   6.809 -0.5482 -1.0083 -0.3930
  201MOL0     C27032   5.061  11.156   6.732  0.6100  0.4701 -0.3393
  201MOL0     C27033   5.169  11.212   6.668 -0.1226 -0.4551 -0.1912
  201MOL0     C27034   5.292  11.143   6.662  0.3538  1.0751 -0.4793
  201MOL0     O27035   5.389  11.211   6.590  0.1554 -0.0460 -0.3517
  201MOL0     C27036   5.518  11.143   6.566  1.1632 -0.3646 -0.2842
  201MOL0     C27037   5.630  11.238   6.532  0.6145  0.2048 -0.8064
  201MOL0     C27038   5.595  11.313   6.405 -0.2075 -0.2191 -1.2824
  201MOL0     C27039   5.648  11.228   6.285  0.4840 -0.0842  0.2935
  201MOL0     C27040   5.795  11.247   6.249  0.2592  0.6466  0.4703
  201MOL0     C27041   5.891  11.313   6.354 -0.5299 -0.0935 -0.9309
  201MOL0     C27042   6.032  11.331   6.292 -0.5729 -0.4557 -0.0331
  201MOL0     C27043   6.127  11.414   6.386 -1.0534  0.2687  0.9726
  201MOL0    Cl27044   6.304  11.410   6.320 -0.0961  0.0930 -0.0105
  201MOL0     C27045   5.312  11.029   6.740 -0.3999 -0.8439  0.3945
  201MOL0     C27046   5.200  10.975   6.809 -0.4445 -0.1886  0.7333
  201MOL0     O27047   4.848  11.147   6.934  0.4576  0.0531 -1.0717
  201MOL0     C27048   4.683  10.998   7.096 -0.6399 -1.0964  0.9749
  201MOL0     C27049   4.615  10.921   7.189  0.3313  0.1960  0.9993
  201MOL0     N27050   4.102  10.557   7.546  0.8833  0.4539  0.0319
  201MOL0     N27051   3.998  10.470   7.516 -0.9780  0.5297  0.4607
  201MOL0     C27052   4.609  10.365   6.898 -0.4569 -0.1509  0.4044
  201MOL0     C27053   4.699  10.391   6.793  0.4323  0.3077 -1.0614
  201MOL0     C27054   4.950  10.521   6.483 -0.2627  0.0359 -0.6396
  201MOL0     C27055   4.907  10.459   6.364  0.0054 -0.6958  1.0239
  201MOL0     C27056   4.998  10.411   6.269 -0.6550  0.6948  0.0524
  201MOL0     C27057   5.140  10.431   6.287 -0.3392 -0.1339 -0.0027
  201MOL0     O27058   5.248  10.391   6.210 -0.3655 -0.3677  0.5927
  201MOL0     C27059   5.243  10.293   6.108 -0.7235  0.3290 -0.0302
  201MOL0     C27060   5.168  10.339   5.978 -0.9193  0.6244 -0.3492
  201MOL0     C27061   5.169  10.238   5.853 -0.2676 -0.3871 -0.3774
  201MOL0     C27062   5.048  10.143   5.831  0.0279 -0.0583 -0.1532
  201MOL0     C27063   4.985  10.101   5.959 -0.4527  0.0304 -0.8091
  201MOL0     C27064   4.926  10.077   6.062  1.0050  0.0327  0.8244
  201MOL0     C27065   5.170  10.508   6.400 -0.3351  0.1024 -0.8905
  201MOL0     C27066   5.088  10.547   6.508  1.0371 -0.9147 -0.2594
  201MOL0     C27067   5.137  10.625   6.624 -0.3234 -0.4496  0.3814
  201MOL0     H27068   4.496  10.590   6.612 -0.4969 -2.9485 -1.8949
  201MOL0     H27069   4.355  10.567   6.809 -0.2635 -1.8660 -0.4446
  201MOL0     H27070   4.290  10.588   7.044  1.4917  1.1328  0.7035
  201MOL0     H27071   4.223  10.453   6.932  2.4549 -0.8317 -1.2175
  201MOL0     H27072   4.091  10.465   7.133 -0.1532  0.5549 -2.0662
  201MOL0     H27073   4.236  10.430   7.231  1.1619  3.7770 -0.8397
  201MOL0     H27074   4.264  10.212   7.090  0.4922  0.4364 -4.6456
  201MOL0     H27075   4.120  10.257   7.004  1.5026 -1.8334  0.2791
  201MOL0     H27076   3.987  10.258   7.230 -0.0694  0.6599  0.4274
  201MOL0     H27077   4.037  10.111   7.156 -1.6736  0.9858 -1.2421
  201MOL0     H27078   4.241  10.123   7.314  0.9745  1.3741  1.7140
  201MOL0     H27079   4.183  10.269   7.380  0.9575 -0.5398  0.8248
  201MOL0     H27080   4.069   9.992   7.406  1.5964  0.1129  0.6597
  201MOL0     H27081   4.128  10.078   7.542  0.0446 -2.7922 -0.0338
  201MOL0     H27082   3.867  10.069   7.504 -0.9153  1.7252 -0.5272
  201MOL0     H27083   3.881  10.204   7.400 -1.2895 -0.7142  0.2261
  201MOL0     H27084   3.841  10.271   7.644  0.4827  0.9425  3.0718
  201MOL0     H27085   3.974  10.169   7.686 -1.3612 -1.8431 -0.5997
  201MOL0     H27086   4.205  10.293   7.695 -1.7732 -0.6012  1.0488
  201MOL0     H27087   4.358  10.609   7.678 -0.6646  1.1161  0.2444
  201MOL0     H27088   4.407  10.439   7.649 -3.5241 -2.1578  1.4656
  201MOL0     H27089   4.315  10.514   7.402 -0.6356  1.3321 -0.1527
  201MOL0     H27090   4.348  10.672   7.460  0.4526  0.2378 -3.1453
  201MOL0     H27091   4.550  10.448   7.465  1.1795  0.8640  0.9624
  201MOL0     H27092   4.580  10.613   7.500 -0.4489 -1.6819  3.2557
  201MOL0     H27093   4.519  10.497   7.221  0.0847 -2.7708  1.7056
  201MOL0     H27094   4.671  10.558   7.272 -0.2013  1.2928 -0.3853
  201MOL0     H27095   4.662  10.626   7.038 -1.8141  0.2511 -1.4211
  201MOL0     H27096   4.830  10.751   6.920 -0.4643 -1.8559  1.6065
  201MOL0     H27097   4.965  11.207   6.725  1.1070  1.5211  0.2929
  201MOL0     H27098   5.148  11.297   6.605  0.1406 -0.7901 -0.7409
  201MOL0     H27099   5.561  11.089   6.651 -2.9786 -1.6449  1.2785
  201MOL0     H27100   5.504  11.063   6.493 -1.2690 -1.8158  1.5837
  201MOL0     H27101   5.626  11.313   6.611  1.6039  0.4100 -0.9370
  201MOL0     H27102   5.728  11.187   6.531  2.1699  2.9981 -0.2614
  201MOL0     H27103   5.486  11.321   6.398 -0.3292  1.0360  1.0690
  201MOL0     H27104   5.636  11.414   6.411  1.6198 -0.8784 -2.0486
  201MOL0     H27105   5.582  11.254   6.202 -0.7374 -3.5362  0.0279
  201MOL0     H27106   5.620  11.124   6.299 -1.3558 -0.6911 -5.3078
  201MOL0     H27107   5.800  11.314   6.163  1.4771  1.1733  0.9301
  201MOL0     H27108   5.834  11.153   6.207 -0.5530  1.2283 -1.7076
  201MOL0     H27109   5.848  11.404   6.396  0.7743  1.6716 -3.1249
  201MOL0     H27110   5.911  11.239   6.432 -1.8193  1.2545  0.7661
  201MOL0     H27111   6.031  11.373   6.191 -0.2421  0.1655  0.2129
  201MOL0     H27112   6.072  11.231   6.273  3.1484  1.1491 -1.7038
  201MOL0     H27113   6.105  11.520   6.401 -3.9369 -0.4644  2.7041
  201MOL0     H27114   6.127  11.363   6.483  2.3137 -1.1108  0.4143
  201MOL0     H27115   5.407  10.977   6.737 -0.1192 -0.2938 -1.4479
  201MOL0     H27116   5.213  10.877   6.854 -1.3874 -1.0642 -0.8340
  201MOL0     H27117   4.671  11.105   7.112  2.3401  0.1362 -3.2902
  201MOL0     H27118   4.548  10.965   7.262  0.6885  3.1163 -0.2953
  201MOL0     H27119   4.646  10.296   6.973  1.6270  1.5552  1.0491
  201MOL0     H27120   4.790  10.332   6.790 -0.7824 -1.6426 -1.4670
  201MOL0     H27121   4.800  10.443   6.353 -0.3331  1.5130  0.5791
  201MOL0     H27122   4.957  10.362   6.181  2.0245 -1.3009 -0.2010
  201MOL0     H27123   5.190  10.202   6.135  0.4258 -0.7517 -1.2709
  201MOL0     H27124   5.347  10.270   6.081 -0.6568  0.9716 -0.3441
  201MOL0     H27125   5.219  10.432   5.949 -3.0030  1.4363 -1.5703
  201MOL0     H27126   5.063  10.364   5.992 -0.9516  1.8106 -2.3180
  201MOL0     H27127   5.253  10.172   5.875  1.6788  2.5582  1.9079
  201MOL0     H27128   5.188  10.295   5.761 -0.1901  2.7082  1.3999
  201MOL0     H27129   4.979  10.205   5.773  0.6907  0.9734  0.1262
  201MOL0     H27130   5.089  10.058   5.776 -0.0378  0.6549 -1.3447
  201MOL0     H27131   4.863  10.059   6.146  1.2091 -0.4598  0.8758
  201MOL0     H27132   5.275  10.518   6.428 -0.3831 -1.2340 -0.1650
  201MOL0     H27133   5.247  10.626   6.629 -0.2923 -0.3785 -0.2720
  201MOL0     H27134   5.107  10.729   6.610 -0.2779 -0.4927 -0.0496
  201MOL0     H27135   5.092  10.579   6.713  1.7413 -2.4136  0.5094
  202MOL0     O27136   8.195   8.877   2.557  0.1974  0.1041 -0.5075
  202MOL0     C27137   8.087   8.930   2.548 -0.6213  0.6188  0.3603
  202MOL0     O27138   8.037   9.032   2.630  0.4590 -0.0627  0.1102
  202MOL0     C27139   8.112   9.084   2.729 -0.7768 -0.0743  0.5206
  202MOL0     C27140   8.125   9.221   2.726  0.1587 -0.2147  1.1427
  202MOL0     C27141   8.188   9.285   2.837  0.6586  0.0974 -0.2848
  202MOL0     C27142   8.232   9.209   2.945  1.0315  0.9847 -0.7333
  202MOL0     O27143   8.273   9.286   3.051 -0.2946 -0.7496 -0.7842
  202MOL0     C27144   8.409   9.283   3.081 -0.3688  1.1189  0.5436
  202MOL0     C27145   8.439   9.409   3.174  0.8758  0.5391  1.1915
  202MOL0     C27146   8.341   9.418   3.295  0.2118  0.4136  0.3680
  202MOL0     C27147   8.383   9.337   3.413 -1.1457 -0.2319 -0.2717
  202MOL0     C27148   8.503   9.385   3.494  0.3551 -0.6491  0.0259
  202MOL0     C27149   8.517   9.288   3.611  0.2932 -0.2362 -0.8833
  202MOL0     C27150   8.636   9.312   3.702  0.2589 -0.5667  0.0479
  202MOL0     C27151   8.764   9.246   3.651 -0.0574  0.3618  0.2940
  202MOL0     N27152   8.880   9.262   3.740  0.3190  0.5217  0.4177
  202MOL0     C27153   8.967   9.155   3.763  0.1575 -0.2338 -0.3340
  202MOL0     C27154   9.053   9.202   3.854  0.1335 -0.2567 -1.1205
  202MOL0     C27155   9.142   9.113   3.935  0.1826 -0.0069  0.9937
  202MOL0     C27156   9.288   9.115   3.900 -0.0234 -0.1495 -0.5640
  202MOL0     C27157   9.365   9.250   3.923  0.6386  0.2698 -0.7117
  202MOL0     C27158   9.512   9.238   3.882  0.3680  0.2492  0.2964
  202MOL0     O27159   9.571   9.366   3.874  0.0816 -0.4263 -0.1091
  202MOL0     C27160   9.632   9.424   3.989 -0.2669  0.4936  0.6296
  202MOL0     C27161   9.764   9.381   4.024  0.3179 -0.3964  0.5368
  202MOL0     C27162   9.814   9.416   4.155  0.2600  0.2690  0.9101
  202MOL0     C27163   9.741   9.506   4.237  0.7099  0.4551 -0.7432
  202MOL0     C27164   9.797   9.543   4.370 -0.5847 -0.3867  0.1679
  202MOL0     O27165   9.743   9.650   4.422  0.4888 -0.9909 -0.1369
  202MOL0     C27166   9.779   9.688   4.549  0.4861  0.1934 -0.2230
  202MOL0     C27167   9.891   9.772   4.569 -0.9380 -0.4090 -0.1324
  202MOL0     C27168   9.928   9.815   4.699 -0.2722 -0.4328  0.3759
  202MOL0     C27169   9.854   9.778   4.814 -1.0509 -0.6250  0.3194
  202MOL0     O27170   9.895   9.811   4.945 -0.3050  0.3104  0.3462
  202MOL0     C27171  10.003   9.906   4.964 -0.1150  1.0182  0.3336
  202MOL0     C27172  10.008   9.949   5.109 -0.2615  0.1977  0.6797
  202MOL0     C27173  10.114  10.053   5.154  0.5530 -0.2341  0.3264
  202MOL0     C27174  10.069  10.196   5.127 -0.0501  0.3162  0.3147
  202MOL0     C27175  10.163  10.306   5.194 -0.0965 -0.4735 -0.2865
  202MOL0     C27176  10.276  10.329   5.098 -0.0755  0.6212  0.0022
  202MOL0     C27177  10.386  10.425   5.151 -0.4661  0.0073 -1.3685
  202MOL0     C27178  10.491  10.468   5.051 -0.1291  0.4286  0.6774
  202MOL0    Cl27179  10.590  10.329   4.991 -0.4396 -0.3781  0.3584
  202MOL0     C27180   9.740   9.699   4.785 -0.2137 -0.2159 -0.2779
  202MOL0     C27181   9.709   9.646   4.658  0.0310 -0.8012  1.0956
  202MOL0     O27182   9.889   9.479   4.423 -0.1489 -0.0106 -0.3025
  202MOL0     C27183   9.613   9.550   4.188  0.1161  0.5021 -0.3842
  202MOL0     C27184   9.559   9.514   4.066  0.0435  1.2739  0.0784
  202MOL0     N27185   9.003   9.319   3.908 -0.1803 -0.6737  0.5528
  202MOL0     N27186   8.910   9.362   3.834  0.6161 -0.7197  0.2314
  202MOL0     C27187   8.222   9.064   2.949  0.8877  0.0729  0.9465
  202MOL0     C27188   8.157   9.008   2.838  0.3867  0.9662 -0.5343
  202MOL0     C27189   7.995   8.878   2.446 -0.4465  0.1245  0.7454
  202MOL0     C27190   7.946   8.974   2.349  0.4311 -1.3540  0.8370
  202MOL0     C27191   7.863   8.922   2.247 -0.4080 -0.4635  1.0023
  202MOL0     C27192   7.840   8.782   2.216  0.0400 -0.4153  0.2285
  202MOL0     O27193   7.760   8.743   2.108 -0.4803  0.1744  0.4242
  202MOL0     C27194   7.688   8.626   2.128  0.1446  0.2597  0.7205
  202MOL0     C27195   7.602   8.590   1.999  0.4415  0.1551  0.5106
  202MOL0     C27196   7.582   8.433   1.992 -0.6892 -0.8620  0.3305
  202MOL0     C27197   7.459   8.397   1.924  0.1131  0.0398 -0.6349
  202MOL0     C27198   7.463   8.444   1.785 -0.6913  0.1328  0.1135
  202MOL0     C27199   7.462   8.487   1.673  0.4450 -0.4507  0.0190
  202MOL0     C27200   7.892   8.696   2.312 -0.6082  0.0529 -0.4401
  202MOL0     C27201   7.977   8.742   2.418 -0.0839  1.2262 -0.6284
  202MOL0     C27202   8.039   8.628   2.500  0.2285  0.1257 -0.4179
  202MOL0     H27203   8.098   9.280   2.639 -1.9084 -2.9873 -0.2777
  202MOL0     H27204   8.211   9.391   2.839  0.4188  0.1432  1.7207
  202MOL0     H27205   8.434   9.187   3.126  2.3436 -0.2741 -3.3306
  202MOL0     H27206   8.469   9.273   2.990  0.7488  0.2890  1.3426
  202MOL0     H27207   8.407   9.493   3.112 -3.0314 -2.3886 -1.2208
  202MOL0     H27208   8.539   9.411   3.217 -0.2348  0.1802  4.0384
  202MOL0     H27209   8.242   9.386   3.263  0.4645 -2.3343  1.9887
  202MOL0     H27210   8.322   9.522   3.322 -0.4377  0.5377 -0.5173
  202MOL0     H27211   8.303   9.341   3.487  0.8721  2.8476  1.9922
  202MOL0     H27212   8.399   9.233   3.380  0.5778  0.2144 -0.9824
  202MOL0     H27213   8.597   9.390   3.438 -0.0551  2.5252 -0.5639
  202MOL0     H27214   8.478   9.479   3.544 -2.5281 -0.2814 -1.8376
  202MOL0     H27215   8.435   9.296   3.682  1.3519  3.7739  0.2047
  202MOL0     H27216   8.531   9.187   3.573  1.4063  0.7133 -3.1800
  202MOL0     H27217   8.627   9.275   3.805  0.6036 -0.4193  0.1319
  202MOL0     H27218   8.660   9.418   3.703  2.7954 -1.0816 -0.4562
  202MOL0     H27219   8.735   9.141   3.643  4.4921 -1.1219  0.1888
  202MOL0     H27220   8.800   9.273   3.552  3.2816 -1.7961  0.7409
  202MOL0     H27221   8.960   9.058   3.713 -4.6780 -0.4048  0.1857
  202MOL0     H27222   9.116   9.138   4.038  0.1418  1.4777  0.6503
  202MOL0     H27223   9.103   9.012   3.919 -1.4435  0.5691  1.0640
  202MOL0     H27224   9.326   9.038   3.967 -1.2598  0.7249  1.2226
  202MOL0     H27225   9.316   9.097   3.795  0.5395  0.4514 -0.5235
  202MOL0     H27226   9.356   9.286   4.026  1.4281  0.0368 -0.5498
  202MOL0     H27227   9.323   9.327   3.858  1.1974  0.6523 -0.6289
  202MOL0     H27228   9.520   9.188   3.785  2.2971 -1.0337  1.0412
  202MOL0     H27229   9.572   9.169   3.942  0.0822  0.9641  1.4372
  202MOL0     H27230   9.814   9.318   3.951  0.5444 -0.7922  1.0297
  202MOL0     H27231   9.919   9.394   4.171  0.5954  1.2755  0.2155
  202MOL0     H27232   9.950   9.814   4.488  0.3980  0.3486  1.1894
  202MOL0     H27233  10.025   9.864   4.695 -1.4501  2.0447 -0.0845
  202MOL0     H27234  10.096   9.851   4.948 -1.0719 -0.8452  0.9018
  202MOL0     H27235   9.999  10.001   4.909  0.4479  0.3573 -0.8815
  202MOL0     H27236   9.914   9.996   5.140 -0.6759  0.5202 -0.9747
  202MOL0     H27237  10.023   9.860   5.172 -1.6535 -0.2061  0.4708
  202MOL0     H27238  10.128  10.041   5.261 -1.0680  1.7841  0.8513
  202MOL0     H27239  10.211  10.033   5.108  1.4312  2.3119  0.8967
  202MOL0     H27240   9.973  10.216   5.174 -2.3659 -1.7468 -3.0910
  202MOL0     H27241  10.067  10.198   5.017 -0.1350 -1.8150  0.2353
  202MOL0     H27242  10.210  10.264   5.284  0.7989 -3.6584 -2.1085
  202MOL0     H27243  10.103  10.394   5.220 -0.8531 -1.6041  2.0398
  202MOL0     H27244  10.317  10.229   5.080  0.4157  1.1069 -1.8250
  202MOL0     H27245  10.236  10.364   5.003 -0.7637  1.3480  0.5485
  202MOL0     H27246  10.438  10.377   5.234 -1.3137  1.9701  0.3866
  202MOL0     H27247  10.340  10.517   5.190 -1.4539  0.4360 -3.3863
  202MOL0     H27248  10.439  10.514   4.967 -0.6987  0.4087  1.0113
  202MOL0     H27249  10.572  10.531   5.090  1.4057 -2.6354  2.9423
  202MOL0     H27250   9.680   9.686   4.875  0.5339 -1.3301  0.0714
  202MOL0     H27251   9.620   9.588   4.636  0.5932 -1.4141  0.3519
  202MOL0     H27252   9.561   9.629   4.241  1.4200  0.0332  1.6755
  202MOL0     H27253   9.455   9.538   4.043  0.2883  1.4081 -0.9463
  202MOL0     H27254   8.245   9.009   3.040  2.8920 -0.0256  0.4252
  202MOL0     H27255   8.127   8.904   2.843  0.9660  0.7379 -1.5469
  202MOL0     H27256   7.976   9.078   2.361 -2.0260 -0.5292  0.3455
  202MOL0     H27257   7.823   8.995   2.178  1.7067 -1.7893 -1.8514
  202MOL0     H27258   7.614   8.634   2.208  1.6626  0.9106  2.1319
  202MOL0     H27259   7.759   8.545   2.145  0.1314  0.4988  1.9580
  202MOL0     H27260   7.652   8.633   1.912 -2.2389  1.2007 -0.6205
  202MOL0     H27261   7.504   8.638   2.008  0.6107  0.3435  1.4265
  202MOL0     H27262   7.593   8.400   2.096  2.3660  1.5980  0.9632
  202MOL0     H27263   7.661   8.391   1.929 -0.3845  0.2277 -0.0455
  202MOL0     H27264   7.446   8.289   1.932 -1.9491  0.3347  0.9043
  202MOL0     H27265   7.372   8.453   1.961  0.9559  0.2538  1.1402
  202MOL0     H27266   7.461   8.505   1.568  1.4240 -1.7408 -0.2410
  202MOL0     H27267   7.874   8.589   2.305  0.8567 -0.2458  0.1117
  202MOL0     H27268   7.985   8.533   2.508 -0.5075  0.4733 -0.9954
  202MOL0     H27269   8.128   8.601   2.443  0.8977  2.0291 -0.3401
  202MOL0     H27270   8.077   8.666   2.595  0.2869 -1.5718  0.2655
  203MOL0     O27271   3.904   3.483   6.258 -0.1080  0.7991  0.0784
  203MOL0     C27272   3.817   3.501   6.340 -0.0587 -1.5688 -0.4753
  203MOL0     O27273   3.802   3.433   6.455  0.4528  0.1342  0.3510
  203MOL0     C27274   3.905   3.357   6.513  0.2323 -0.7723 -0.2234
  203MOL0     C27275   3.951   3.247   6.438 -0.0249 -0.1896  0.0538
  203MOL0     C27276   4.048   3.163   6.500  0.0896  0.5658 -0.7232
  203MOL0     C27277   4.091   3.184   6.633 -0.9661  0.2065 -0.1644
  203MOL0     O27278   4.185   3.092   6.680  0.1896 -1.2300 -0.5041
  203MOL0     C27279   4.317   3.151   6.701 -0.7153 -0.5081 -0.6305
  203MOL0     C27280   4.401   3.054   6.788 -0.0217 -0.3648  0.3419
  203MOL0     C27281   4.554   3.095   6.757 -0.2699  0.0590  0.7828
  203MOL0     C27282   4.638   2.984   6.797 -0.4990 -0.2594 -0.1223
  203MOL0     C27283   4.782   3.006   6.748  0.1026 -0.2269  0.3063
  203MOL0     C27284   4.859   2.881   6.728  0.3446  0.7527 -0.8727
  203MOL0     C27285   4.998   2.902   6.670  0.1180  0.3849 -0.3096
  203MOL0     C27286   5.090   2.988   6.754 -0.1042  0.6103 -0.1251
  203MOL0     N27287   5.144   2.911   6.864 -0.4437  0.0380  0.2066
  203MOL0     C27288   5.273   2.913   6.889 -0.3140 -0.0448 -0.0967
  203MOL0     C27289   5.292   2.845   7.003 -0.4433  0.9515  0.2695
  203MOL0     C27290   5.414   2.831   7.080 -0.1971 -0.0785  0.0830
  203MOL0     C27291   5.536   2.864   7.000  0.0873  0.3182 -0.1961
  203MOL0     C27292   5.553   2.754   6.896 -1.5205  1.1236 -0.2231
  203MOL0     C27293   5.671   2.791   6.808 -0.6679 -1.1040 -0.5344
  203MOL0     O27294   5.639   2.908   6.726 -0.2315 -0.6117 -0.5195
  203MOL0     C27295   5.747   2.991   6.702  0.7280  0.2956 -0.1708
  203MOL0     C27296   5.866   2.933   6.658 -0.0819  0.7234  0.7789
  203MOL0     C27297   5.978   3.008   6.623  0.1450 -0.5407 -1.1573
  203MOL0     C27298   5.967   3.155   6.628 -0.2273 -0.5829 -0.2511
  203MOL0     C27299   6.085   3.244   6.608  0.2424  0.0862 -0.7939
  203MOL0     O27300   6.092   3.378   6.648  0.1465  0.2890  0.3075
  203MOL0     C27301   6.182   3.455   6.582  0.3333 -0.0860  0.3043
  203MOL0     C27302   6.226   3.565   6.652  0.0373  0.6333  0.5382
  203MOL0     C27303   6.328   3.642   6.605 -0.1940 -0.4709 -0.2530
  203MOL0     C27304   6.381   3.618   6.475 -0.1726 -0.2333  0.2888
  203MOL0     O27305   6.483   3.692   6.426  0.0372 -0.2534  0.5118
  203MOL0     C27306   6.599   3.620   6.385 -0.0857  0.2658  0.0356
  203MOL0     C27307   6.671   3.535   6.489 -0.5882 -0.5483 -0.6283
  203MOL0     C27308   6.812   3.495   6.434  0.0732  0.1095  0.6466
  203MOL0     C27309   6.911   3.441   6.535  0.2876 -0.0103  0.1183
  203MOL0     C27310   7.048   3.404   6.467 -0.2184  0.7753 -0.4244
  203MOL0     C27311   7.160   3.490   6.515  0.2946  0.2675 -0.2141
  203MOL0     C27312   7.288   3.443   6.450  0.0338  0.7431  0.8026
  203MOL0     C27313   7.396   3.546   6.461  0.0095  0.2837 -0.3400
  203MOL0    Cl27314   7.550   3.496   6.390 -0.4322 -0.4923 -0.3015
  203MOL0     C27315   6.343   3.506   6.405 -0.3538  0.4888  1.0972
  203MOL0     C27316   6.230   3.436   6.452 -0.4372 -0.0825  0.8208
  203MOL0     O27317   6.173   3.180   6.558 -0.8066 -0.3748  0.1684
  203MOL0     C27318   5.838   3.212   6.676  0.1285  0.3688 -0.0150
  203MOL0     C27319   5.728   3.132   6.696 -0.1141 -0.4934 -0.4460
  203MOL0     N27320   5.167   2.796   7.046  0.3408 -0.0313 -0.1789
  203MOL0     N27321   5.080   2.829   6.958 -0.2146  0.4232 -0.0070
  203MOL0     C27322   4.044   3.301   6.701  0.5246 -0.5922 -0.1173
  203MOL0     C27323   3.943   3.378   6.647 -0.4133 -0.9162  0.1785
  203MOL0     C27324   3.728   3.612   6.336  0.1812  0.0168 -0.4412
  203MOL0     C27325   3.655   3.651   6.458 -0.2034  0.6990  0.4027
  203MOL0     C27326   3.551   3.738   6.458  0.4740  0.7347  1.3768
  203MOL0     C27327   3.510   3.801   6.339 -0.0711  0.4541  0.0477
  203MOL0     O27328   3.402   3.876   6.347  0.9410  0.2596  0.1086
  203MOL0     C27329   3.420   3.998   6.416  0.0641  0.4926  0.1836
  203MOL0     C27330   3.330   4.101   6.346  0.4388  0.1268  0.6095
  203MOL0     C27331   3.290   4.219   6.433 -0.2448  0.6332 -0.2468
  203MOL0     C27332   3.240   4.352   6.369  0.5433 -0.0629 -0.5185
  203MOL0     C27333   3.358   4.412   6.303  0.7456  1.5073 -0.5362
  203MOL0     C27334   3.440   4.474   6.241 -0.6554  0.5220  0.0616
  203MOL0     C27335   3.580   3.758   6.222 -0.6488 -0.0115 -0.5331
  203MOL0     C27336   3.681   3.665   6.217 -0.5215  0.6366  0.0443
  203MOL0     C27337   3.755   3.657   6.083  0.7140  0.7159  0.0634
  203MOL0     H27338   3.915   3.234   6.337  0.6359 -0.0289 -0.2020
  203MOL0     H27339   4.096   3.086   6.439  0.4501  0.7739 -0.7013
  203MOL0     H27340   4.371   3.165   6.606  0.3483 -0.8992 -0.1073
  203MOL0     H27341   4.314   3.248   6.751  0.2852 -0.1694 -1.1920
  203MOL0     H27342   4.389   2.952   6.751 -0.0483  0.3281 -1.6681
  203MOL0     H27343   4.379   3.053   6.896  1.9139 -0.7609  0.7643
  203MOL0     H27344   4.580   3.189   6.804 -1.1476 -0.3922  2.2392
  203MOL0     H27345   4.569   3.106   6.649  2.1293 -0.6760  0.9777
  203MOL0     H27346   4.643   2.972   6.905  0.7139 -2.3607 -0.3667
  203MOL0     H27347   4.602   2.892   6.752  0.9753 -1.9228  1.9172
  203MOL0     H27348   4.792   3.063   6.655  1.0577  4.3121  2.8912
  203MOL0     H27349   4.833   3.076   6.815 -0.9828  0.9243 -0.0276
  203MOL0     H27350   4.861   2.834   6.826 -1.6232  3.7496  0.7504
  203MOL0     H27351   4.810   2.812   6.658  2.7404  2.2232 -4.3100
  203MOL0     H27352   4.987   2.945   6.570  2.7527 -0.0357 -0.8552
  203MOL0     H27353   5.037   2.801   6.655 -1.0260 -0.3211  1.1745
  203MOL0     H27354   5.172   3.025   6.691 -0.9303 -0.3911 -1.8736
  203MOL0     H27355   5.044   3.081   6.788  4.7031  3.8693 -1.3759
  203MOL0     H27356   5.349   2.970   6.836  0.4698 -0.9457  0.0223
  203MOL0     H27357   5.422   2.894   7.169  0.0624 -0.1132  0.0838
  203MOL0     H27358   5.420   2.728   7.116 -2.8137  0.4692  2.4635
  203MOL0     H27359   5.516   2.965   6.962  0.5860  1.4575  2.3318
  203MOL0     H27360   5.627   2.861   7.061  0.2609 -0.7248 -0.5017
  203MOL0     H27361   5.465   2.718   6.844 -1.4937 -2.4563  1.8518
  203MOL0     H27362   5.578   2.662   6.950 -0.2713  1.9754  0.7229
  203MOL0     H27363   5.690   2.707   6.741 -2.9277 -2.3508  0.2929
  203MOL0     H27364   5.759   2.802   6.873 -1.3878 -2.1140  0.6633
  203MOL0     H27365   5.877   2.825   6.659 -0.2954  0.6283 -1.4376
  203MOL0     H27366   6.076   2.965   6.604 -0.5900 -1.8948 -2.0144
  203MOL0     H27367   6.185   3.608   6.743  0.2513  0.2198  0.8318
  203MOL0     H27368   6.371   3.717   6.671  1.5347 -1.9479  0.3720
  203MOL0     H27369   6.586   3.553   6.299  4.6277 -1.9593  0.7118
  203MOL0     H27370   6.669   3.700   6.361 -0.8167  1.0101  0.3267
  203MOL0     H27371   6.674   3.598   6.578 -1.1155 -0.8322 -0.4057
  203MOL0     H27372   6.612   3.452   6.531 -0.9150  0.1802  0.3983
  203MOL0     H27373   6.797   3.420   6.356 -0.3667 -1.5416  2.2400
  203MOL0     H27374   6.854   3.586   6.392 -3.1402  2.1679  1.5388
  203MOL0     H27375   6.879   3.348   6.582  2.1799 -0.3788  0.7861
  203MOL0     H27376   6.916   3.519   6.612 -4.7414 -0.6951  1.4867
  203MOL0     H27377   7.045   3.395   6.358 -0.5021 -0.5863 -0.3274
  203MOL0     H27378   7.075   3.303   6.500  2.4054  1.5108 -0.1224
  203MOL0     H27379   7.140   3.594   6.490 -2.4943 -0.4727 -1.5954
  203MOL0     H27380   7.168   3.484   6.623  0.2882 -2.4958 -0.2739
  203MOL0     H27381   7.271   3.441   6.342 -1.3639  4.3830  0.7986
  203MOL0     H27382   7.308   3.341   6.484 -0.8788  0.4747  0.5776
  203MOL0     H27383   7.368   3.641   6.414 -0.1613  1.1719  1.4761
  203MOL0     H27384   7.394   3.576   6.566 -0.1865 -1.4411  0.1842
  203MOL0     H27385   6.385   3.480   6.308 -2.9929 -0.9907  0.2516
  203MOL0     H27386   6.200   3.355   6.387  3.4281  0.0451 -1.4109
  203MOL0     H27387   5.834   3.317   6.700  1.3490 -0.1323  2.7366
  203MOL0     H27388   5.640   3.184   6.731  0.1332 -0.1330 -0.3541
  203MOL0     H27389   4.082   3.321   6.800  0.2936  0.1221 -0.1641
  203MOL0     H27390   3.896   3.450   6.714 -0.9329 -1.1930  0.1220
  203MOL0     H27391   3.664   3.601   6.554 -3.4733  0.5931  0.7524
  203MOL0     H27392   3.502   3.753   6.554  0.5230  0.0659  1.5085
  203MOL0     H27393   3.528   4.016   6.411  0.7146 -2.9668 -0.9846
  203MOL0     H27394   3.393   3.994   6.522 -2.5030 -1.4117 -0.4510
  203MOL0     H27395   3.243   4.040   6.317  0.7446  0.5972 -1.4349
  203MOL0     H27396   3.377   4.125   6.250 -1.1788 -1.7596 -0.7368
  203MOL0     H27397   3.375   4.247   6.495 -0.6764 -1.0541  1.1964
  203MOL0     H27398   3.210   4.186   6.500  1.6787  0.7684  2.2707
  203MOL0     H27399   3.165   4.348   6.289  2.2480  1.7909 -2.3456
  203MOL0     H27400   3.201   4.417   6.448 -4.0631 -0.9046 -1.7906
  203MOL0     H27401   3.506   4.525   6.174 -1.9127  0.1436 -1.5148
  203MOL0     H27402   3.554   3.793   6.122  1.5187 -2.5903 -2.1438
  203MOL0     H27403   3.761   3.549   6.067 -3.7124  0.6030 -2.5276
  203MOL0     H27404   3.700   3.709   6.004 -0.1375  0.7944  0.6854
  203MOL0     H27405   3.854   3.703   6.087  1.4717 -0.8250 -0.3425
  204MOL0     O27406   0.582   2.880   9.301  0.3878 -0.0416 -0.0290
  204MOL0     C27407   0.655   2.822   9.222 -0.3793  0.8242 -0.0256
  204MOL0     O27408   0.629   2.690   9.188 -0.1645 -0.0220 -0.3066
  204MOL0     C27409   0.507   2.629   9.209  0.2533 -0.4964 -0.1515
  204MOL0     C27410   0.498   2.500   9.250  0.1708  0.8741  0.3211
  204MOL0     C27411   0.374   2.436   9.257 -1.3958  0.1451 -0.2278
  204MOL0     C27412   0.251   2.503   9.221  0.1255  0.1922  0.4684
  204MOL0     O27413   0.121   2.454   9.224  0.4344  0.1764  0.1572
  204MOL0     C27414   0.112   2.318   9.262 -0.5258 -0.0969  0.1737
  204MOL0     C27415  -0.028   2.276   9.301  0.0862 -0.9589  0.1666
  204MOL0     C27416  -0.090   2.384   9.391 -0.1959 -0.1510  0.1139
  204MOL0     C27417  -0.239   2.359   9.406 -0.2053 -0.3188  0.8562
  204MOL0     C27418  -0.313   2.470   9.480  0.0246  1.4290  0.8736
  204MOL0     C27419  -0.459   2.423   9.496  0.0900  0.4516 -0.2903
  204MOL0     C27420  -0.556   2.529   9.545 -0.3154  0.3407 -0.8329
  204MOL0     C27421  -0.702   2.481   9.542 -0.1115  0.2415  0.1605
  204MOL0     N27422  -0.732   2.399   9.655 -0.0147  0.5205 -0.5253
  204MOL0     C27423  -0.692   2.270   9.680  0.4792  0.5349 -0.2349
  204MOL0     C27424  -0.734   2.229   9.802  0.0037  0.9189 -0.9544
  204MOL0     C27425  -0.698   2.088   9.865  0.1620  0.8596  0.6082
  204MOL0     C27426  -0.557   2.034   9.858 -0.2522  0.0415 -0.4676
  204MOL0     C27427  -0.468   2.094   9.961  0.0939  0.0841 -0.3680
  204MOL0     C27428  -0.428   2.241   9.933  0.2812 -0.6040 -0.1058
  204MOL0     O27429  -0.364   2.252   9.800  0.5199  0.2360  0.0225
  204MOL0     C27430  -0.228   2.242   9.783  0.2367  0.3389  0.9506
  204MOL0     C27431  -0.139   2.318   9.866 -0.1548 -0.2467  0.4769
  204MOL0     C27432  -0.007   2.312   9.842 -0.2408  0.6977  0.2589
  204MOL0     C27433   0.056   2.232   9.746  0.1888 -0.1277 -0.6522
  204MOL0     C27434   0.206   2.254   9.717 -0.7013  0.5231 -0.4265
  204MOL0     O27435   0.266   2.371   9.757 -0.7851  0.2978  0.7813
  204MOL0     C27436   0.393   2.416   9.711  0.4866 -0.4682  0.5743
  204MOL0     C27437   0.494   2.335   9.662  0.9826  0.2831  0.1275
  204MOL0     C27438   0.601   2.388   9.599 -0.4261 -0.1315 -0.0865
  204MOL0     C27439   0.613   2.525   9.590  1.1152  0.4185 -1.2723
  204MOL0     O27440   0.724   2.572   9.533 -0.0833 -0.3821 -0.3477
  204MOL0     C27441   0.790   2.665   9.621  0.5651  0.0911 -1.0256
  204MOL0     C27442   0.943   2.656   9.598  0.4566  0.0416 -0.1440
  204MOL0     C27443   1.015   2.545   9.668  0.1897  1.2175 -0.1606
  204MOL0     C27444   0.962   2.404   9.636  0.2799 -0.6313 -0.1831
  204MOL0     C27445   1.055   2.292   9.670  0.2267  0.4337 -0.1244
  204MOL0     C27446   1.011   2.155   9.610  0.6447  0.4568 -0.0916
  204MOL0     C27447   1.085   2.033   9.680 -0.0551  0.5537  0.9966
  204MOL0     C27448   1.123   1.912   9.593  0.1920 -0.1514  0.2634
  204MOL0    Cl27449   1.174   1.783   9.708  0.3667 -0.2095  0.2132
  204MOL0     C27450   0.513   2.607   9.645 -0.5838  0.2577  0.7000
  204MOL0     C27451   0.401   2.553   9.701 -0.7291 -0.2980 -0.6219
  204MOL0     O27452   0.253   2.179   9.631 -0.9927  0.0080  0.7725
  204MOL0     C27453  -0.031   2.144   9.666  0.4784 -0.2560 -0.9633
  204MOL0     C27454  -0.170   2.145   9.687 -0.7009 -0.0368  0.4387
  204MOL0     N27455  -0.799   2.341   9.853  0.1024  0.4115  0.0476
  204MOL0     N27456  -0.805   2.432   9.765 -0.3411 -0.5181 -0.8197
  204MOL0     C27457   0.260   2.633   9.183 -0.0226  0.2928  0.1031
  204MOL0     C27458   0.383   2.696   9.177 -1.3477 -0.1321 -0.2223
  204MOL0     C27459   0.780   2.885   9.167 -0.3675  0.0127  0.1719
  204MOL0     C27460   0.892   2.801   9.145  0.5795  0.0269  0.4618
  204MOL0     C27461   1.011   2.848   9.093  0.0596 -0.5089  0.0798
  204MOL0     C27462   1.026   2.983   9.054  0.4141 -1.1124 -0.3356
  204MOL0     O27463   1.145   3.044   9.008 -0.5289 -0.4501 -0.4927
  204MOL0     C27464   1.267   2.974   9.030 -1.2074  0.0312  1.1205
  204MOL0     C27465   1.318   2.885   8.908  1.2393  0.0543 -0.3506
  204MOL0     C27466   1.336   2.980   8.788  0.0488  0.3391 -0.2211
  204MOL0     C27467   1.265   2.924   8.658  0.2302  0.3106 -0.6553
  204MOL0     C27468   1.117   2.903   8.667  0.7418  0.2211 -0.8408
  204MOL0     C27469   1.003   2.888   8.667  1.5136  0.3575  0.5721
  204MOL0     C27470   0.910   3.066   9.071 -0.1471 -0.2131  0.3181
  204MOL0     C27471   0.792   3.019   9.135 -0.0539  0.2085  0.3528
  204MOL0     C27472   0.671   3.110   9.139  0.3624  0.0357 -0.1403
  204MOL0     H27473   0.583   2.432   9.257 -0.9289 -0.5568  0.1496
  204MOL0     H27474   0.370   2.329   9.274 -2.6773  0.3821  1.2495
  204MOL0     H27475   0.158   2.255   9.185 -0.5008  0.4777 -0.2850
  204MOL0     H27476   0.167   2.296   9.355 -0.9526  1.3182  0.7848
  204MOL0     H27477  -0.029   2.172   9.335 -0.5430 -0.5087  1.5992
  204MOL0     H27478  -0.080   2.278   9.205 -0.4377  2.9944  0.3897
  204MOL0     H27479  -0.092   2.484   9.348  2.8801  0.4090  1.0687
  204MOL0     H27480  -0.035   2.391   9.486  2.8478  0.7245 -1.5849
  204MOL0     H27481  -0.286   2.331   9.311 -0.0030  0.4853  0.5075
  204MOL0     H27482  -0.249   2.275   9.475 -1.8641  1.5205  3.0173
  204MOL0     H27483  -0.271   2.493   9.578 -2.8086  3.3881  1.7388
  204MOL0     H27484  -0.314   2.556   9.413  1.5798  0.1376 -0.9122
  204MOL0     H27485  -0.509   2.392   9.404  0.1811 -0.7715  0.0506
  204MOL0     H27486  -0.452   2.340   9.568 -0.2299 -1.6705 -2.5580
  204MOL0     H27487  -0.557   2.608   9.470 -0.7736 -0.1613 -1.3673
  204MOL0     H27488  -0.519   2.570   9.640  0.8453  0.2019 -1.2164
  204MOL0     H27489  -0.759   2.575   9.539  1.5538  1.4426  2.7447
  204MOL0     H27490  -0.721   2.422   9.452  0.3430  0.8753 -0.3693
  204MOL0     H27491  -0.649   2.221   9.593 -0.7288  0.8257 -1.0192
  204MOL0     H27492  -0.723   2.092   9.972 -0.8377  1.7586  0.3534
  204MOL0     H27493  -0.759   2.017   9.809  2.7339  0.9413 -2.6183
  204MOL0     H27494  -0.562   1.926   9.877 -1.5810  0.6773  4.1771
  204MOL0     H27495  -0.510   2.041   9.760  1.9881 -0.8938  0.4662
  204MOL0     H27496  -0.370   2.046   9.971  1.0952  1.3577 -2.9940
  204MOL0     H27497  -0.513   2.088  10.060  1.1097 -0.6652  0.0659
  204MOL0     H27498  -0.364   2.281  10.013 -0.9951  0.5650  0.3693
  204MOL0     H27499  -0.518   2.303   9.931  0.0537 -0.9033  0.7521
  204MOL0     H27500  -0.169   2.387   9.944  2.7056  1.6302  0.1012
  204MOL0     H27501   0.061   2.376   9.897  1.4390 -1.8220  1.3211
  204MOL0     H27502   0.488   2.227   9.657 -1.4664  0.2955  1.1877
  204MOL0     H27503   0.686   2.330   9.565 -1.4189 -1.4293 -0.4650
  204MOL0     H27504   0.761   2.768   9.599  0.8519 -0.1683 -2.7766
  204MOL0     H27505   0.766   2.647   9.726  0.4222 -0.3177 -1.1268
  204MOL0     H27506   0.969   2.658   9.492  2.0050 -1.9934  0.1371
  204MOL0     H27507   0.976   2.755   9.629 -0.5553 -0.1654  1.7918
  204MOL0     H27508   1.119   2.550   9.633 -0.2251 -1.7665 -2.1470
  204MOL0     H27509   1.013   2.565   9.776 -1.6852 -0.5311  0.1845
  204MOL0     H27510   0.933   2.406   9.531  1.1655  3.4008 -0.5114
  204MOL0     H27511   0.879   2.389   9.705  2.7779 -0.8753  3.0394
  204MOL0     H27512   1.063   2.263   9.775 -0.1607 -1.9683 -0.6880
  204MOL0     H27513   1.154   2.315   9.631  1.4218  3.0746  3.8276
  204MOL0     H27514   0.911   2.147   9.654  1.1592  0.5787  1.1221
  204MOL0     H27515   1.016   2.152   9.500 -1.6038  1.5786 -0.2788
  204MOL0     H27516   1.029   1.999   9.767 -0.7081 -0.3022  0.2569
  204MOL0     H27517   1.174   2.082   9.720  0.7006 -1.2434  1.6373
  204MOL0     H27518   1.046   1.875   9.525  1.1498  0.6342 -1.3196
  204MOL0     H27519   1.204   1.942   9.525 -1.0803  0.4167 -1.0629
  204MOL0     H27520   0.525   2.713   9.625  1.5586  0.0570  0.7042
  204MOL0     H27521   0.328   2.624   9.739 -0.5519  0.1188 -1.0421
  204MOL0     H27522   0.015   2.070   9.601  0.7030  0.4367 -1.6029
  204MOL0     H27523  -0.249   2.085   9.643  0.5646 -0.8414 -0.8507
  204MOL0     H27524   0.163   2.675   9.160  0.4820  1.0782 -0.6555
  204MOL0     H27525   0.392   2.799   9.144 -0.4662  0.2931  1.2313
  204MOL0     H27526   0.892   2.697   9.175 -2.1478 -0.0244  0.5334
  204MOL0     H27527   1.098   2.785   9.077  1.7297  1.9724 -1.4703
  204MOL0     H27528   1.274   2.898   9.109  1.1761 -0.4819  0.5068
  204MOL0     H27529   1.340   3.052   9.054 -1.5803  0.8261 -0.2423
  204MOL0     H27530   1.231   2.821   8.888  0.6312  0.7914 -0.1438
  204MOL0     H27531   1.409   2.829   8.931  1.8217  1.1683  0.1376
  204MOL0     H27532   1.439   3.001   8.757  0.4123 -1.2749 -0.1919
  204MOL0     H27533   1.305   3.081   8.814 -0.2434  0.2160 -0.0745
  204MOL0     H27534   1.279   2.992   8.573 -0.0598 -0.3797 -1.2643
  204MOL0     H27535   1.316   2.833   8.627 -0.1011 -0.5010  1.0923
  204MOL0     H27536   0.896   2.886   8.673  1.5101 -0.5574  0.3330
  204MOL0     H27537   0.907   3.167   9.032  2.0031 -0.6636 -1.2213
  204MOL0     H27538   0.663   3.135   9.245  2.1941 -2.3285  0.6629
  204MOL0     H27539   0.678   3.191   9.067 -2.2208  0.9819  0.5631
  204MOL0     H27540   0.579   3.056   9.116  0.6346 -1.2150  1.4830
  205MOL0     O27541   0.910  10.679   8.782 -0.5324 -0.0884  0.1195
  205MOL0     C27542   0.890  10.726   8.670 -0.2316  0.6216 -0.1381
  205MOL0     O27543   0.983  10.798   8.597 -0.1970 -0.2030 -0.0583
  205MOL0     C27544   1.101  10.849   8.643  0.5197  0.4436 -0.1293
  205MOL0     C27545   1.154  10.876   8.772 -0.6196  0.4020 -0.1524
  205MOL0     C27546   1.289  10.923   8.784 -0.6338 -0.5166 -0.2447
  205MOL0     C27547   1.348  10.985   8.675  0.0940 -1.1817  0.4198
  205MOL0     O27548   1.484  11.022   8.674 -0.2682 -0.4077  0.3286
  205MOL0     C27549   1.555  11.064   8.791 -0.1283  0.4321  0.4698
  205MOL0     C27550   1.663  10.962   8.818  0.0850 -0.6870  1.0123
  205MOL0     C27551   1.758  11.004   8.939 -0.4906 -1.0265  0.1412
  205MOL0     C27552   1.889  11.075   8.901  1.0876 -0.5833  0.3571
  205MOL0     C27553   1.969  11.129   9.021  0.1179  0.3444 -0.2737
  205MOL0     C27554   2.105  11.195   8.974 -1.1841 -0.5508  0.0799
  205MOL0     C27555   2.208  11.208   9.088  0.2160  0.1642 -0.6226
  205MOL0     C27556   2.312  11.329   9.078 -0.2524  0.2251 -0.2578
  205MOL0     N27557   2.413  11.327   9.187  0.5771 -0.4036 -0.8049
  205MOL0     C27558   2.538  11.266   9.182  0.2914 -0.4684 -0.1089
  205MOL0     C27559   2.595  11.297   9.301 -0.3303 -0.2047 -0.1910
  205MOL0     C27560   2.729  11.249   9.356 -0.3546  0.2399  0.4328
  205MOL0     C27561   2.845  11.326   9.288  0.3028 -0.0352  0.1511
  205MOL0     C27562   2.973  11.320   9.362 -0.2917 -0.3361  0.6774
  205MOL0     C27563   3.072  11.426   9.317 -0.0234 -0.6429 -0.3871
  205MOL0     O27564   3.182  11.414   9.415 -0.4501 -0.0562  1.1960
  205MOL0     C27565   3.188  11.478   9.536  0.6181 -0.4079  0.0791
  205MOL0     C27566   3.090  11.571   9.583  0.0917 -0.7538 -0.1375
  205MOL0     C27567   3.118  11.641   9.709 -0.0295 -0.5725  0.5877
  205MOL0     C27568   3.235  11.628   9.778  1.0961 -0.1614 -1.2152
  205MOL0     C27569   3.268  11.721   9.887 -0.3710 -0.6272  0.4038
  205MOL0     O27570   3.394  11.739   9.911 -0.7983  0.6913 -0.7005
  205MOL0     C27571   3.434  11.806  10.025 -0.4032  0.6772 -0.3906
  205MOL0     C27572   3.375  11.823  10.145  0.1503 -0.2336  0.0754
  205MOL0     C27573   3.437  11.898  10.243  0.0812  0.4290 -0.4431
  205MOL0     C27574   3.569  11.952  10.240  0.8551  0.2314 -0.0496
  205MOL0     O27575   3.636  12.026  10.340  0.3666 -0.8445 -0.3147
  205MOL0     C27576   3.588  12.027  10.476 -0.5982 -0.9962  0.3829
  205MOL0     C27577   3.656  12.139  10.568 -0.1165  0.3300 -0.0570
  205MOL0     C27578   3.794  12.077  10.611 -0.5952 -0.4495  0.0109
  205MOL0     C27579   3.865  12.176  10.704 -1.0244  0.2575 -0.1607
  205MOL0     C27580   3.977  12.119  10.801 -0.2528 -0.0024  0.7849
  205MOL0     C27581   4.056  12.234  10.854 -0.9578  0.5476  0.1678
  205MOL0     C27582   4.151  12.272  10.729  0.4339  0.0102 -0.0793
  205MOL0     C27583   4.256  12.378  10.773 -0.4338  0.7645 -0.5645
  205MOL0    Cl27584   4.196  12.520  10.850  0.2461 -0.3912  0.4039
  205MOL0     C27585   3.625  11.936  10.116 -0.1646  0.2845  0.1975
  205MOL0     C27586   3.559  11.863  10.013  0.2616  0.6109  0.0278
  205MOL0     O27587   3.173  11.769   9.952 -0.4848 -0.4416  0.8851
  205MOL0     C27588   3.328  11.530   9.734  0.2261 -0.1701 -0.1899
  205MOL0     C27589   3.305  11.458   9.612 -0.5327  0.6765 -0.1123
  205MOL0     N27590   2.510  11.368   9.377  0.4838 -0.5358  0.0374
  205MOL0     N27591   2.404  11.393   9.306 -1.2124 -0.8826 -0.0065
  205MOL0     C27592   1.300  10.961   8.543 -0.0778 -0.5092  0.3803
  205MOL0     C27593   1.176  10.892   8.534 -0.0876 -0.0362 -0.3599
  205MOL0     C27594   0.757  10.705   8.618  0.8082  0.3801  0.5702
  205MOL0     C27595   0.743  10.710   8.483 -0.2230 -0.1621  0.0956
  205MOL0     C27596   0.621  10.709   8.413 -0.1616  1.0032 -0.3627
  205MOL0     C27597   0.504  10.685   8.477 -0.4580  0.3843 -0.0243
  205MOL0     O27598   0.387  10.699   8.406 -0.2010 -0.6514 -0.2878
  205MOL0     C27599   0.267  10.722   8.485 -0.4826 -0.6911 -0.0990
  205MOL0     C27600   0.158  10.795   8.401  0.0481  1.3207 -0.1920
  205MOL0     C27601   0.083  10.690   8.326 -0.3881 -0.6324  0.5679
  205MOL0     C27602   0.073  10.700   8.174 -0.4364 -0.5822 -0.4517
  205MOL0     C27603   0.004  10.581   8.127 -0.0981 -0.3756  0.1432
  205MOL0     C27604  -0.026  10.483   8.065 -0.1171 -0.5230 -0.8917
  205MOL0     C27605   0.514  10.662   8.622 -0.9557  0.5316 -0.4265
  205MOL0     C27606   0.639  10.665   8.698  0.3539 -0.4096  0.0426
  205MOL0     C27607   0.629  10.644   8.845  0.0662  0.2633 -0.1797
  205MOL0     H27608   1.107  10.846   8.865 -1.7466  0.7673 -0.5910
  205MOL0     H27609   1.332  10.938   8.882 -3.4996 -2.3187  1.4718
  205MOL0     H27610   1.603  11.157   8.758  1.3817  0.3413  2.2243
  205MOL0     H27611   1.484  11.081   8.872 -5.6120 -3.1470 -2.9597
  205MOL0     H27612   1.728  10.946   8.731 -2.0895 -1.7512 -0.4873
  205MOL0     H27613   1.614  10.864   8.822  0.7851 -1.3767 -2.7807
  205MOL0     H27614   1.797  10.916   8.990  1.0827  0.4687  1.6697
  205MOL0     H27615   1.701  11.060   9.014 -2.6088  0.5156 -2.4475
  205MOL0     H27616   1.947  10.997   8.851  0.1201 -2.1205  1.5349
  205MOL0     H27617   1.864  11.159   8.835 -0.3730 -0.9479  0.4065
  205MOL0     H27618   1.920  11.213   9.070  1.2463 -1.4194  4.4470
  205MOL0     H27619   1.992  11.048   9.091  0.6939  0.4859 -0.2985
  205MOL0     H27620   2.142  11.146   8.883  1.9263  1.0622  0.3257
  205MOL0     H27621   2.090  11.298   8.940 -2.4440 -0.3886  1.0703
  205MOL0     H27622   2.265  11.118   9.112 -0.0168  0.5029  1.3951
  205MOL0     H27623   2.162  11.227   9.186  2.5003 -0.0917  0.5834
  205MOL0     H27624   2.362  11.317   8.982 -2.3811 -3.2248 -1.0924
  205MOL0     H27625   2.247  11.418   9.085 -1.2015 -0.5078  0.6838
  205MOL0     H27626   2.587  11.198   9.115 -1.4598 -1.2721 -0.6281
  205MOL0     H27627   2.733  11.264   9.464 -2.0417 -1.1058  0.7156
  205MOL0     H27628   2.745  11.143   9.335  1.1553  0.6761 -0.8462
  205MOL0     H27629   2.864  11.281   9.190  1.8617  2.1816 -0.6553
  205MOL0     H27630   2.817  11.429   9.263 -3.1575 -0.3713  2.0389
  205MOL0     H27631   3.013  11.220   9.349  0.1205  0.0499 -1.2915
  205MOL0     H27632   2.938  11.338   9.464 -0.8108  1.5603  0.2093
  205MOL0     H27633   3.028  11.526   9.314  0.8469 -0.2581 -2.7796
  205MOL0     H27634   3.108  11.408   9.215  1.6446 -0.0661  0.0653
  205MOL0     H27635   2.996  11.587   9.530 -0.8061 -3.0711  0.6219
  205MOL0     H27636   3.041  11.712   9.738 -2.4431 -1.1953 -3.5475
  205MOL0     H27637   3.279  11.775  10.164  0.6478 -0.6367  1.7695
  205MOL0     H27638   3.381  11.907  10.335 -0.2424  1.2181 -0.7113
  205MOL0     H27639   3.484  12.060  10.464 -0.4952 -0.5967  0.5546
  205MOL0     H27640   3.605  11.924  10.506 -0.7775 -1.2063 -0.2159
  205MOL0     H27641   3.661  12.236  10.519  1.4028 -1.6832 -4.4141
  205MOL0     H27642   3.601  12.156  10.661  2.2955  4.1187  0.9086
  205MOL0     H27643   3.781  12.001  10.688  1.7738 -0.9751 -0.0249
  205MOL0     H27644   3.855  12.057  10.522 -0.7332  1.6587 -0.6294
  205MOL0     H27645   3.791  12.223  10.769 -0.7640 -2.9123  2.7085
  205MOL0     H27646   3.912  12.249  10.637  0.7576 -0.0107  0.7539
  205MOL0     H27647   4.040  12.042  10.754  1.1449  2.7963 -2.3600
  205MOL0     H27648   3.928  12.061  10.880  0.2053  1.6448  2.3296
  205MOL0     H27649   3.979  12.310  10.872 -3.5451 -2.1389  1.2934
  205MOL0     H27650   4.114  12.206  10.942  2.0040 -1.2888 -2.1392
  205MOL0     H27651   4.095  12.308  10.643 -1.4765 -2.9468 -0.2170
  205MOL0     H27652   4.213  12.189  10.692  1.5024  0.0039  1.5872
  205MOL0     H27653   4.322  12.327  10.844  0.3117 -0.9770 -2.4152
  205MOL0     H27654   4.316  12.404  10.685 -0.3525  0.9923 -0.4422
  205MOL0     H27655   3.710  12.000  10.094 -0.1734 -0.3192 -1.7080
  205MOL0     H27656   3.614  11.848   9.920 -0.1159 -0.7622  0.0072
  205MOL0     H27657   3.423  11.511   9.785 -1.1340  0.7655  2.9675
  205MOL0     H27658   3.389  11.392   9.594 -0.7322  0.6882 -1.1219
  205MOL0     H27659   1.366  10.994   8.464 -0.0625 -1.9682 -0.2369
  205MOL0     H27660   1.135  10.865   8.437 -1.7561  1.9999 -0.2852
  205MOL0     H27661   0.833  10.723   8.424  1.2241 -3.2869  1.3807
  205MOL0     H27662   0.602  10.719   8.307 -2.2852  2.1959  0.0703
  205MOL0     H27663   0.297  10.796   8.560 -1.6734  0.4936 -0.7531
  205MOL0     H27664   0.217  10.640   8.538 -0.9352 -0.4984 -0.2265
  205MOL0     H27665   0.210  10.857   8.327 -1.1835 -2.0216 -4.1727
  205MOL0     H27666   0.093  10.850   8.471  0.7010 -0.4809  1.9565
  205MOL0     H27667  -0.022  10.699   8.355 -0.2589  1.1910  0.5772
  205MOL0     H27668   0.126  10.592   8.349 -0.0528 -0.5124  0.4563
  205MOL0     H27669   0.017  10.790   8.145  3.8895  2.1265 -1.2602
  205MOL0     H27670   0.175  10.709   8.137 -0.0238 -0.5123  0.6701
  205MOL0     H27671  -0.069  10.408   8.001  0.0663  0.8213 -2.6845
  205MOL0     H27672   0.422  10.640   8.674 -0.5655  1.7713  0.8581
  205MOL0     H27673   0.697  10.708   8.902  0.7196 -0.7513  0.2102
  205MOL0     H27674   0.525  10.650   8.878  0.5979  0.9433  1.4585
  205MOL0     H27675   0.666  10.545   8.871  2.6305  1.0321 -0.6241
  206MOL0     O27676   7.601   2.142   7.394  0.1768 -0.3902 -0.8079
  206MOL0     C27677   7.532   2.043   7.421  0.1401  0.2057 -0.1092
  206MOL0     O27678   7.537   1.922   7.342  0.0089 -0.5731  0.0001
  206MOL0     C27679   7.644   1.901   7.258 -0.9867  0.9013  0.5567
  206MOL0     C27680   7.640   1.892   7.110  0.5943 -0.7951 -0.8069
  206MOL0     C27681   7.755   1.889   7.031  0.0573 -0.6251 -0.2034
  206MOL0     C27682   7.880   1.850   7.097  0.5986 -0.3847 -0.1194
  206MOL0     O27683   8.002   1.816   7.046  0.0528  0.3321 -0.3598
  206MOL0     C27684   8.018   1.840   6.903 -0.4246  0.0142 -0.0952
  206MOL0     C27685   8.056   1.983   6.883 -0.0468 -0.3524 -0.2725
  206MOL0     C27686   8.103   2.019   6.739  0.0693  0.2456  0.3255
  206MOL0     C27687   8.248   1.997   6.705  0.1557 -0.5033 -0.9798
  206MOL0     C27688   8.264   2.057   6.567 -0.4969 -0.1946 -1.0336
  206MOL0     C27689   8.411   2.067   6.532  0.4952 -0.0754  0.2046
  206MOL0     C27690   8.439   2.113   6.385  0.4469  0.7393  0.2507
  206MOL0     C27691   8.588   2.124   6.377 -1.1730 -0.4553 -0.9221
  206MOL0     N27692   8.634   2.217   6.267 -0.1689 -0.0667 -0.2078
  206MOL0     C27693   8.613   2.357   6.272 -0.2525  0.0595  0.2214
  206MOL0     C27694   8.713   2.417   6.209 -0.5665  0.1338 -0.2788
  206MOL0     C27695   8.752   2.566   6.170 -0.1942  0.9295 -0.0866
  206MOL0     C27696   8.904   2.589   6.187  0.6567  0.8463  0.1448
  206MOL0     C27697   8.944   2.735   6.156  0.8778  0.4857  0.0455
  206MOL0     C27698   8.871   2.838   6.238  0.8458  0.3985  0.4564
  206MOL0     O27699   8.937   2.966   6.239 -0.6844 -0.4434 -0.3037
  206MOL0     C27700   8.925   3.061   6.138  0.9836  0.1039 -0.5682
  206MOL0     C27701   8.854   3.021   6.028  0.1563 -0.2840  0.4122
  206MOL0     C27702   8.844   3.119   5.928 -0.0824 -1.8350 -0.8144
  206MOL0     C27703   8.909   3.243   5.937  0.0797 -0.4219 -0.2111
  206MOL0     C27704   8.911   3.333   5.811  0.3196 -0.7805  0.4830
  206MOL0     O27705   9.005   3.431   5.815 -0.2941 -0.0401 -0.6267
  206MOL0     C27706   9.011   3.509   5.702 -0.6204  1.0008  0.2620
  206MOL0     C27707   9.138   3.511   5.641  0.3497 -0.0711  0.2762
  206MOL0     C27708   9.163   3.599   5.537 -0.8303 -0.0789 -0.2261
  206MOL0     C27709   9.064   3.694   5.499  0.0620 -0.6773  0.2979
  206MOL0     O27710   9.082   3.789   5.403 -0.1359  0.3620 -0.1992
  206MOL0     C27711   9.201   3.832   5.351  0.6199  0.7992 -0.5515
  206MOL0     C27712   9.183   3.972   5.305 -0.2194  0.3372 -0.2858
  206MOL0     C27713   9.313   4.046   5.341  0.3282  0.8737  0.3269
  206MOL0     C27714   9.303   4.189   5.289  0.4345 -0.6474 -0.0865
  206MOL0     C27715   9.422   4.268   5.349  0.0226 -0.3706 -0.3746
  206MOL0     C27716   9.461   4.408   5.297 -0.8153  1.1285 -0.5278
  206MOL0     C27717   9.501   4.426   5.150 -0.6494 -0.2138 -0.5850
  206MOL0     C27718   9.520   4.576   5.130  1.3390  1.2630 -0.5047
  206MOL0    Cl27719   9.638   4.614   4.986  0.3186 -0.2205 -0.1589
  206MOL0     C27720   8.944   3.687   5.550 -0.4156 -0.1538 -0.1865
  206MOL0     C27721   8.906   3.590   5.647 -0.3395 -0.7817  0.6145
  206MOL0     O27722   8.848   3.301   5.707 -0.7837 -0.6169 -0.1098
  206MOL0     C27723   8.992   3.271   6.046 -0.5536  0.3833 -0.4280
  206MOL0     C27724   9.001   3.173   6.146  0.8513 -1.4201 -0.1762
  206MOL0     N27725   8.805   2.322   6.183 -1.1679  0.7311 -0.3174
  206MOL0     N27726   8.749   2.207   6.205 -0.5731  0.0734 -0.3410
  206MOL0     C27727   7.877   1.851   7.241  0.4031 -1.4271  0.2772
  206MOL0     C27728   7.769   1.885   7.318  0.1680 -0.6781 -0.7425
  206MOL0     C27729   7.453   2.052   7.534  0.7457 -0.1547  0.2770
  206MOL0     C27730   7.494   1.985   7.650  0.5263  0.0695  0.0483
  206MOL0     C27731   7.401   1.982   7.760 -0.2529  0.5994  0.1512
  206MOL0     C27732   7.288   2.064   7.766 -0.7392 -0.8977  0.6003
  206MOL0     O27733   7.223   2.085   7.886 -0.1667 -0.1037  0.7822
  206MOL0     C27734   7.084   2.043   7.897 -0.5493 -0.3360  0.7721
  206MOL0     C27735   6.984   2.134   7.829 -0.9487 -0.3771 -0.5513
  206MOL0     C27736   6.992   2.274   7.888  0.9725  0.5130  1.1388
  206MOL0     C27737   6.866   2.364   7.870  0.4289 -0.4140  0.0274
  206MOL0     C27738   6.754   2.321   7.949  0.3188 -0.4222 -0.3574
  206MOL0     C27739   6.654   2.272   7.993  0.8294  0.6212 -0.6916
  206MOL0     C27740   7.269   2.145   7.657  0.2364 -0.6344  0.5120
  206MOL0     C27741   7.348   2.146   7.536 -1.2714  0.1518 -0.0582
  206MOL0     C27742   7.328   2.242   7.425 -0.3333 -0.7582 -0.0882
  206MOL0     H27743   7.538   1.908   7.077  0.6368 -2.1111 -1.6148
  206MOL0     H27744   7.743   1.921   6.928 -2.3777 -0.2470  0.1263
  206MOL0     H27745   8.103   1.778   6.873  1.3586  1.3058  1.8776
  206MOL0     H27746   7.935   1.823   6.835  0.8862  0.5184 -1.9019
  206MOL0     H27747   8.122   2.025   6.960 -1.9657  3.4037 -0.4143
  206MOL0     H27748   7.965   2.039   6.905  2.2742  3.4758  0.5540
  206MOL0     H27749   8.069   2.120   6.713 -0.8560  0.1903  1.2422
  206MOL0     H27750   8.047   1.953   6.672  2.4654 -0.3740 -1.1788
  206MOL0     H27751   8.312   2.049   6.778  4.5262 -0.4562 -4.4758
  206MOL0     H27752   8.274   1.891   6.712 -1.8723 -0.9726  3.2380
  206MOL0     H27753   8.214   1.996   6.491 -2.2712 -2.4769  1.7582
  206MOL0     H27754   8.207   2.149   6.562 -1.7051 -0.9971 -3.6195
  206MOL0     H27755   8.458   2.146   6.591 -2.3037  2.1579 -0.3196
  206MOL0     H27756   8.452   1.967   6.549 -2.7815 -1.4854  0.5480
  206MOL0     H27757   8.391   2.207   6.358 -3.1283 -1.2599 -1.0949
  206MOL0     H27758   8.402   2.032   6.322 -0.1749  0.3405  1.0939
  206MOL0     H27759   8.627   2.147   6.476  0.5723 -1.6539 -1.2744
  206MOL0     H27760   8.639   2.029   6.360  1.0536  0.2778  1.1054
  206MOL0     H27761   8.524   2.410   6.303 -0.8632 -0.3610 -0.7714
  206MOL0     H27762   8.724   2.591   6.068 -0.1322 -2.1591 -0.9467
  206MOL0     H27763   8.688   2.635   6.227 -0.6587  0.4229  0.0151
  206MOL0     H27764   8.938   2.585   6.291 -0.8049  0.3609  0.6250
  206MOL0     H27765   8.961   2.521   6.123 -0.3736  0.1835 -0.0812
  206MOL0     H27766   8.910   2.741   6.052  0.6506 -1.6531 -0.0414
  206MOL0     H27767   9.052   2.756   6.152  0.5158  2.4251 -1.0586
  206MOL0     H27768   8.882   2.806   6.342 -4.4761  0.8621  1.4416
  206MOL0     H27769   8.766   2.853   6.210  1.5905  3.1700 -1.2452
  206MOL0     H27770   8.801   2.928   6.010  1.6383 -1.9517  3.8623
  206MOL0     H27771   8.788   3.098   5.837 -0.1692  0.3568 -1.3179
  206MOL0     H27772   9.218   3.447   5.678  1.4934  1.4130  0.4588
  206MOL0     H27773   9.260   3.594   5.488  0.0877 -0.8224  1.5810
  206MOL0     H27774   9.288   3.817   5.416  0.9179 -0.9086 -1.3078
  206MOL0     H27775   9.241   3.757   5.282 -2.9651 -1.9488  0.1021
  206MOL0     H27776   9.170   3.990   5.198  0.9545 -0.0039 -0.5044
  206MOL0     H27777   9.091   4.019   5.341 -0.5058 -0.0892 -0.4483
  206MOL0     H27778   9.305   4.047   5.450 -3.1993 -0.8562  0.1934
  206MOL0     H27779   9.405   4.004   5.299  0.6971  2.3043 -0.3888
  206MOL0     H27780   9.215   4.244   5.322  1.8336  1.6879 -0.0851
  206MOL0     H27781   9.305   4.192   5.180 -1.4444  0.4966 -0.1321
  206MOL0     H27782   9.509   4.204   5.332  1.8900  1.0175  3.0656
  206MOL0     H27783   9.405   4.268   5.457 -1.3008  1.0870 -0.5497
  206MOL0     H27784   9.379   4.478   5.316  0.7570  2.6489  0.9211
  206MOL0     H27785   9.537   4.450   5.363 -0.4961  0.3822 -0.4069
  206MOL0     H27786   9.429   4.374   5.086 -0.2442  1.1186 -2.2079
  206MOL0     H27787   9.586   4.360   5.130 -0.3164  0.6536 -2.2123
  206MOL0     H27788   9.416   4.607   5.114  0.4529 -0.2771  1.7268
  206MOL0     H27789   9.568   4.616   5.220 -2.0933 -0.7628  2.5327
  206MOL0     H27790   8.882   3.770   5.518  0.5417  0.8657  0.5223
  206MOL0     H27791   8.815   3.592   5.705 -0.1651 -0.2988  0.8733
  206MOL0     H27792   9.057   3.358   6.047 -0.9183  0.7004  1.7590
  206MOL0     H27793   9.056   3.209   6.233 -2.3266  2.3671  0.5629
  206MOL0     H27794   7.964   1.812   7.292  0.6773 -0.0598  0.8989
  206MOL0     H27795   7.780   1.913   7.422  1.5378  1.4596 -1.3893
  206MOL0     H27796   7.589   1.932   7.656  1.4426  1.7891  1.8978
  206MOL0     H27797   7.425   1.933   7.854 -0.1939 -3.2912 -1.6924
  206MOL0     H27798   7.084   2.061   8.005  0.7348  3.5502  0.2736
  206MOL0     H27799   7.070   1.939   7.866 -0.2455  0.3795 -1.9447
  206MOL0     H27800   6.883   2.101   7.853 -1.1564  1.3250  1.1498
  206MOL0     H27801   6.993   2.137   7.720  0.1281  1.5336 -0.4761
  206MOL0     H27802   7.076   2.326   7.841  0.8648 -1.3832 -1.3905
  206MOL0     H27803   7.015   2.260   7.994  1.1912 -2.1826  0.8043
  206MOL0     H27804   6.895   2.466   7.899  0.9419 -0.9407  1.4387
  206MOL0     H27805   6.835   2.368   7.766 -3.2874  2.3133  1.0078
  206MOL0     H27806   6.563   2.245   8.044  1.5302  1.0974  0.8952
  206MOL0     H27807   7.191   2.220   7.659  2.2252  1.5995  0.1121
  206MOL0     H27808   7.416   2.297   7.391 -1.2938  0.4982 -0.6469
  206MOL0     H27809   7.285   2.197   7.335  0.1055  0.1383 -0.7599
  206MOL0     H27810   7.268   2.328   7.456  2.0688  1.2603 -0.7393
  207MOL0     O27811   9.581  10.531  10.743  0.0587  1.4171  0.6985
  207MOL0     C27812   9.471  10.528  10.793  0.3518  0.2082  0.0163
  207MOL0     O27813   9.447  10.525  10.932  0.4670 -0.0701 -0.2616
  207MOL0     C27814   9.544  10.587  11.005  1.4990 -0.4125 -0.2387
  207MOL0     C27815   9.617  10.513  11.094 -0.6154  0.6521 -0.1649
  207MOL0     C27816   9.712  10.571  11.180  0.2229 -0.0174  0.2353
  207MOL0     C27817   9.739  10.705  11.167 -0.4381 -0.0969  0.2718
  207MOL0     O27818   9.830  10.765  11.242 -0.5168  0.1657  0.0699
  207MOL0     C27819   9.873  10.906  11.237 -0.1446  0.6239  0.2739
  207MOL0     C27820   9.972  10.919  11.358  0.9513  0.2726 -0.5841
  207MOL0     C27821  10.076  10.812  11.368 -1.0898  0.4709 -0.1046
  207MOL0     C27822  10.158  10.819  11.498  0.6690  0.5362 -0.0543
  207MOL0     C27823  10.270  10.923  11.494 -1.1935 -0.3427  0.6182
  207MOL0     C27824  10.311  10.951  11.646  0.5368  0.2539  0.3196
  207MOL0     C27825  10.452  11.019  11.668 -0.1400 -0.0710 -0.6813
  207MOL0     C27826  10.432  11.171  11.655  0.1252  0.1503 -0.1136
  207MOL0     N27827  10.401  11.212  11.522 -0.0974 -0.2177  0.0727
  207MOL0     C27828  10.493  11.228  11.422  0.0319 -0.1522  0.3476
  207MOL0     C27829  10.421  11.300  11.326 -0.9071 -0.2978 -0.4621
  207MOL0     C27830  10.454  11.339  11.185  0.7060 -0.2818  0.8479
  207MOL0     C27831  10.571  11.439  11.197 -0.2078  0.1065  0.1193
  207MOL0     C27832  10.525  11.565  11.275  0.4995 -0.8616 -0.7082
  207MOL0     C27833  10.646  11.642  11.312 -0.7060 -0.3814 -0.1454
  207MOL0     O27834  10.724  11.559  11.396 -0.2178 -0.0524  0.2835
  207MOL0     C27835  10.850  11.595  11.440 -1.0230 -0.5128  0.9134
  207MOL0     C27836  10.916  11.715  11.411  0.3546  0.2376  0.2346
  207MOL0     C27837  11.048  11.740  11.454  0.5949  0.1610  0.4742
  207MOL0     C27838  11.113  11.647  11.540  0.2851 -0.5946 -0.1561
  207MOL0     C27839  11.239  11.687  11.601  0.3901  0.8711 -0.8384
  207MOL0     O27840  11.285  11.588  11.690  0.8835  0.5360  0.8594
  207MOL0     C27841  11.412  11.597  11.725 -0.1564 -0.1804  0.2959
  207MOL0     C27842  11.442  11.624  11.860 -0.7670 -0.3515 -0.3730
  207MOL0     C27843  11.571  11.641  11.909 -0.4705 -0.2700  0.2030
  207MOL0     C27844  11.675  11.606  11.821 -0.2975  0.5392  0.0004
  207MOL0     O27845  11.799  11.608  11.869 -0.4854 -0.4889 -0.2008
  207MOL0     C27846  11.911  11.673  11.797  0.0231  0.6693  0.6045
  207MOL0     C27847  12.024  11.733  11.886 -0.7033  0.3596 -0.4310
  207MOL0     C27848  12.110  11.616  11.919  0.2337 -0.3168 -0.5387
  207MOL0     C27849  12.243  11.673  11.993  0.1330  0.0129  0.3548
  207MOL0     C27850  12.319  11.558  12.066  0.2027  0.4190 -0.9658
  207MOL0     C27851  12.395  11.468  11.969 -0.5183  0.2100 -0.2783
  207MOL0     C27852  12.464  11.361  12.063  0.8672 -0.0479  0.5367
  207MOL0     C27853  12.611  11.391  12.078  0.5276 -0.3837  0.2107
  207MOL0    Cl27854  12.669  11.250  12.174 -0.2980 -0.3909  0.0689
  207MOL0     C27855  11.655  11.566  11.685  0.3967  0.6099 -0.4989
  207MOL0     C27856  11.523  11.562  11.637 -0.2794  0.7011  1.1812
  207MOL0     O27857  11.312  11.783  11.564 -0.2988  0.1297 -0.1602
  207MOL0     C27858  11.053  11.524  11.574 -0.0049  0.2737  1.5367
  207MOL0     C27859  10.921  11.501  11.523 -0.0646  0.4548 -0.1269
  207MOL0     N27860  10.298  11.319  11.377  0.9048 -0.0038 -0.5793
  207MOL0     N27861  10.291  11.284  11.498  0.6025  0.2755 -0.3180
  207MOL0     C27862   9.665  10.783  11.076 -0.7186  0.4195  0.3972
  207MOL0     C27863   9.564  10.729  10.997 -0.0468 -0.8611  0.1023
  207MOL0     C27864   9.350  10.510  10.710  0.4146 -0.4976  0.4901
  207MOL0     C27865   9.237  10.440  10.764  0.8409 -1.1684 -0.7174
  207MOL0     C27866   9.132  10.400  10.690 -0.1159  0.4321 -0.4303
  207MOL0     C27867   9.122  10.439  10.558  0.5231 -0.8431  0.4879
  207MOL0     O27868   9.020  10.411  10.467  0.0328  0.4801 -0.0637
  207MOL0     C27869   8.899  10.338  10.508 -0.0851 -0.3573 -0.7934
  207MOL0     C27870   8.781  10.389  10.425  0.0332  0.1532 -1.0832
  207MOL0     C27871   8.760  10.542  10.442 -0.1654  0.3440  0.0855
  207MOL0     C27872   8.677  10.593  10.320 -0.2247  0.6723  0.0656
  207MOL0     C27873   8.551  10.525  10.295 -0.2197 -0.1096 -0.5992
  207MOL0     C27874   8.459  10.455  10.258  0.2575 -0.1083  0.3094
  207MOL0     C27875   9.235  10.507  10.502 -0.0920  0.1482  0.3958
  207MOL0     C27876   9.345  10.549  10.575 -0.5380  0.3516 -0.4574
  207MOL0     C27877   9.444  10.651  10.513  0.4351  0.8224 -0.3614
  207MOL0     H27878   9.600  10.406  11.095  2.6459  0.0185 -0.3971
  207MOL0     H27879   9.765  10.533  11.267  4.1236  1.8313 -1.1105
  207MOL0     H27880   9.935  10.918  11.148  0.9862 -6.9408 -0.6054
  207MOL0     H27881   9.786  10.973  11.236 -2.2726 -1.9518  0.4373
  207MOL0     H27882   9.909  10.911  11.447  1.4896  2.4965  0.0674
  207MOL0     H27883  10.035  11.009  11.355  1.8780 -0.3155  0.2959
  207MOL0     H27884  10.136  10.827  11.278 -1.5357 -1.1168 -0.6886
  207MOL0     H27885  10.044  10.709  11.352  3.7240 -1.0670 -1.5268
  207MOL0     H27886  10.097  10.846  11.585  0.0939  1.7410 -0.8118
  207MOL0     H27887  10.199  10.719  11.517  0.1188  0.4012  0.4540
  207MOL0     H27888  10.360  10.883  11.447 -1.7342  2.6723 -3.5737
  207MOL0     H27889  10.246  11.008  11.429 -0.5522 -1.3582 -0.9955
  207MOL0     H27890  10.228  11.002  11.696  0.0703  2.2880 -2.2842
  207MOL0     H27891  10.323  10.846  11.676 -0.3167  0.4111  1.2433
  207MOL0     H27892  10.528  10.983  11.599  0.8081  3.9942 -2.0190
  207MOL0     H27893  10.481  10.991  11.769  1.0046  0.2975 -0.8985
  207MOL0     H27894  10.349  11.212  11.713 -1.5865  0.4163 -2.5866
  207MOL0     H27895  10.527  11.221  11.673 -0.6991  1.8181 -0.1824
  207MOL0     H27896  10.595  11.191  11.422  0.7063  1.6282 -0.0433
  207MOL0     H27897  10.481  11.247  11.133 -2.7484 -2.2264  2.1119
  207MOL0     H27898  10.366  11.387  11.141  0.5590 -0.7045  0.6772
  207MOL0     H27899  10.657  11.394  11.249  0.2773 -2.0672 -2.3512
  207MOL0     H27900  10.611  11.471  11.100  2.6703  0.1121  1.2119
  207MOL0     H27901  10.483  11.529  11.369  1.2332  1.0803  0.4379
  207MOL0     H27902  10.449  11.623  11.222 -0.4497 -2.4932 -1.1718
  207MOL0     H27903  10.612  11.730  11.367  0.4556 -0.1908  0.2790
  207MOL0     H27904  10.699  11.662  11.219  0.0153 -2.8771 -0.3519
  207MOL0     H27905  10.866  11.799  11.363  0.9182  0.7353  0.5074
  207MOL0     H27906  11.102  11.832  11.436 -0.2935  0.3046 -1.7753
  207MOL0     H27907  11.348  11.645  11.910 -1.8456 -2.2961 -1.4651
  207MOL0     H27908  11.588  11.670  12.012  2.6358  2.3749 -0.8963
  207MOL0     H27909  11.951  11.601  11.724  1.4178  1.8549  0.1529
  207MOL0     H27910  11.883  11.760  11.737 -2.1337  0.7058  1.5755
  207MOL0     H27911  12.075  11.809  11.826  2.2408  0.7748  2.3763
  207MOL0     H27912  11.975  11.777  11.973 -1.4855 -1.3968  0.0650
  207MOL0     H27913  12.052  11.567  11.998 -2.1462  0.8791 -1.4342
  207MOL0     H27914  12.128  11.553  11.833  0.2582 -2.5063  0.9882
  207MOL0     H27915  12.227  11.752  12.066  2.9216 -0.0795  1.1740
  207MOL0     H27916  12.315  11.713  11.921  1.3880 -1.4210  0.7481
  207MOL0     H27917  12.249  11.497  12.124 -0.5667  0.2726 -2.0090
  207MOL0     H27918  12.385  11.602  12.141  1.3078  3.0267 -3.2963
  207MOL0     H27919  12.324  11.415  11.904 -1.0938  0.6225  0.0072
  207MOL0     H27920  12.467  11.520  11.905  1.1091 -0.0708  1.2499
  207MOL0     H27921  12.448  11.259  12.028 -0.0089  0.3105 -0.1492
  207MOL0     H27922  12.424  11.357  12.165 -2.7363 -1.9351 -0.7604
  207MOL0     H27923  12.650  11.392  11.976  1.9580  4.0928  0.6122
  207MOL0     H27924  12.641  11.490  12.113 -1.2558  0.0423  0.6127
  207MOL0     H27925  11.731  11.528  11.618 -0.3871  2.1326 -2.3717
  207MOL0     H27926  11.513  11.533  11.533 -2.1788  0.1538  1.4735
  207MOL0     H27927  11.092  11.446  11.638 -0.3622  1.2011  2.9227
  207MOL0     H27928  10.875  11.403  11.535 -1.1075  0.7274 -1.7219
  207MOL0     H27929   9.707  10.879  11.046 -0.9867  0.3552 -0.1913
  207MOL0     H27930   9.504  10.794  10.933  0.9372 -1.0119 -1.0239
  207MOL0     H27931   9.239  10.404  10.866  2.0313  0.6146 -0.0732
  207MOL0     H27932   9.060  10.330  10.733  1.8258 -1.9961 -0.9284
  207MOL0     H27933   8.887  10.366  10.613  2.2169  1.6617 -0.9730
  207MOL0     H27934   8.911  10.229  10.508 -1.7404 -0.6022  1.3964
  207MOL0     H27935   8.702  10.334  10.477 -1.7434  4.7083  1.6423
  207MOL0     H27936   8.791  10.379  10.316  1.9083  1.5861 -1.1110
  207MOL0     H27937   8.857  10.592  10.447 -0.5215  1.1333 -0.6492
  207MOL0     H27938   8.708  10.558  10.537 -0.1335 -2.0142  0.5655
  207MOL0     H27939   8.655  10.698  10.342 -0.8234  0.3812  0.8938
  207MOL0     H27940   8.730  10.601  10.225  2.6792  3.5993  1.7493
  207MOL0     H27941   8.379  10.403  10.210  1.0874 -0.4943 -0.6962
  207MOL0     H27942   9.232  10.536  10.397  0.6961 -0.0441  0.3125
  207MOL0     H27943   9.408  10.693  10.419 -0.7581  0.1465 -0.2283
  207MOL0     H27944   9.468  10.729  10.586  0.8013 -1.2112  1.8582
  207MOL0     H27945   9.536  10.594  10.499  0.2104  0.3123  0.1406
  208MOL0     O27946   2.383   5.850   4.650 -0.0528 -0.3326  0.2115
  208MOL0     C27947   2.415   5.885   4.761  0.2670  0.4739 -0.9625
  208MOL0     O27948   2.386   5.809   4.869  0.5400 -0.3320  0.1089
  208MOL0     C27949   2.304   5.697   4.857 -0.2692  0.1000  1.2430
  208MOL0     C27950   2.172   5.713   4.885  0.0058  0.5200  0.2853
  208MOL0     C27951   2.072   5.607   4.875 -1.0489 -0.2507 -0.9876
  208MOL0     C27952   2.110   5.481   4.844 -0.0408  0.1943 -0.0117
  208MOL0     O27953   2.027   5.369   4.836 -0.1934 -0.1610  0.8612
  208MOL0     C27954   1.899   5.362   4.910 -0.0081  0.2518  1.0270
  208MOL0     C27955   1.836   5.237   4.864 -0.8322 -0.4418  0.1161
  208MOL0     C27956   1.698   5.230   4.923 -0.6584 -0.4555  0.2526
  208MOL0     C27957   1.637   5.087   4.898 -0.2010  0.0722  0.0491
  208MOL0     C27958   1.483   5.098   4.892  0.5989  0.0246 -0.6495
  208MOL0     C27959   1.433   4.964   4.848  1.0618  0.2922  0.5654
  208MOL0     C27960   1.278   4.939   4.829  0.4512 -0.3560  0.5332
  208MOL0     C27961   1.214   5.025   4.719 -0.2284 -0.6372  0.7132
  208MOL0     N27962   1.073   4.990   4.712 -0.3676  0.5980 -0.0360
  208MOL0     C27963   0.991   4.943   4.808 -0.1799 -0.3954 -0.0175
  208MOL0     C27964   0.870   4.918   4.747  0.2113  0.0079  0.3810
  208MOL0     C27965   0.752   4.857   4.821 -0.7072  0.3764 -0.0237
  208MOL0     C27966   0.762   4.708   4.826  0.0126 -0.6690  0.2005
  208MOL0     C27967   0.879   4.638   4.903  0.8858 -0.5134  0.1434
  208MOL0     C27968   0.858   4.658   5.057  0.1588 -0.1182  0.4849
  208MOL0     O27969   0.744   4.580   5.084  0.3263  0.1364  0.3865
  208MOL0     C27970   0.726   4.492   5.184 -0.5804  0.3973 -1.2373
  208MOL0     C27971   0.814   4.485   5.291 -0.0248 -0.1066 -0.5284
  208MOL0     C27972   0.795   4.401   5.393  0.0775  0.1202 -0.3051
  208MOL0     C27973   0.680   4.312   5.394 -0.6352  0.0442 -0.5116
  208MOL0     C27974   0.673   4.210   5.501  0.8712  0.9191  0.1526
  208MOL0     O27975   0.781   4.189   5.582 -0.0320  0.2193  0.1253
  208MOL0     C27976   0.784   4.079   5.657 -1.0641  1.2093 -0.7538
  208MOL0     C27977   0.831   3.955   5.619  0.4491 -0.3877 -0.8838
  208MOL0     C27978   0.817   3.841   5.707 -0.2186 -0.6163 -0.5447
  208MOL0     C27979   0.761   3.851   5.836  0.1899 -0.8519  0.5380
  208MOL0     O27980   0.760   3.751   5.928  0.5539  0.2335  0.2203
  208MOL0     C27981   0.819   3.617   5.913 -0.2650 -0.8265 -0.3951
  208MOL0     C27982   0.964   3.606   5.967  0.0920  0.3099 -0.1865
  208MOL0     C27983   0.978   3.628   6.123  0.0218 -0.2330  0.0959
  208MOL0     C27984   1.041   3.763   6.166 -1.3730 -0.1327 -0.3195
  208MOL0     C27985   0.972   3.892   6.108 -1.3386 -0.2133 -0.0874
  208MOL0     C27986   1.033   4.030   6.145  0.1545  0.5054 -0.2878
  208MOL0     C27987   1.195   4.028   6.115  0.4151 -0.6473 -0.0802
  208MOL0     C27988   1.258   4.164   6.148 -0.6994  1.6911  0.3127
  208MOL0    Cl27989   1.219   4.283   6.026 -0.1094  0.0270 -0.0513
  208MOL0     C27990   0.723   3.983   5.876 -0.6625  0.7821  0.4491
  208MOL0     C27991   0.732   4.088   5.782 -0.1645 -0.2919 -0.1902
  208MOL0     O27992   0.567   4.151   5.506 -0.1710  0.4373 -0.8817
  208MOL0     C27993   0.585   4.314   5.289  1.0409  0.2803  0.7418
  208MOL0     C27994   0.612   4.405   5.186 -0.5215 -0.0065 -0.6238
  208MOL0     N27995   0.876   4.979   4.620 -0.2861 -0.6196 -0.4819
  208MOL0     N27996   1.001   5.014   4.603 -0.6529 -0.6716  0.4358
  208MOL0     C27997   2.249   5.456   4.807  0.3114 -0.2698 -0.0613
  208MOL0     C27998   2.350   5.564   4.810 -0.2139  0.4103 -0.9207
  208MOL0     C27999   2.477   6.012   4.800  0.9469 -0.1396  0.1094
  208MOL0     C28000   2.426   6.080   4.909  0.7796  0.2254 -0.0819
  208MOL0     C28001   2.489   6.197   4.963 -0.0426  0.5280  0.8398
  208MOL0     C28002   2.597   6.253   4.888 -0.3444 -0.4561 -0.5184
  208MOL0     O28003   2.671   6.365   4.923  0.6287 -0.0903  0.6591
  208MOL0     C28004   2.637   6.426   5.047  0.1153  0.3229  0.1645
  208MOL0     C28005   2.679   6.361   5.179  0.2677  0.0365  0.5489
  208MOL0     C28006   2.663   6.451   5.298  0.9804 -0.2676  0.2090
  208MOL0     C28007   2.623   6.383   5.428 -0.2940  0.6127  0.0231
  208MOL0     C28008   2.482   6.367   5.441 -0.5420  0.5196  0.6699
  208MOL0     C28009   2.369   6.349   5.469  0.0923  0.0418  0.3042
  208MOL0     C28010   2.638   6.184   4.777 -0.7240  0.3859  0.7433
  208MOL0     C28011   2.588   6.058   4.730 -0.6030 -0.2720  0.1661
  208MOL0     C28012   2.650   5.996   4.607 -1.1226 -0.1964  0.2336
  208MOL0     H28013   2.155   5.819   4.906  1.2211  0.7941 -0.0385
  208MOL0     H28014   1.968   5.626   4.898 -0.1203  0.8504  3.1665
  208MOL0     H28015   1.914   5.365   5.018 -1.2710  0.4299  1.2131
  208MOL0     H28016   1.846   5.448   4.868  2.1943 -0.0222 -2.7479
  208MOL0     H28017   1.904   5.160   4.902  0.1609  0.4037  0.1097
  208MOL0     H28018   1.833   5.233   4.755  3.7534  1.8505 -0.3626
  208MOL0     H28019   1.637   5.307   4.875 -0.3008 -0.3481 -0.0329
  208MOL0     H28020   1.706   5.253   5.030 -0.6245 -2.9393  0.8482
  208MOL0     H28021   1.677   5.053   4.802 -1.9660 -3.4275  0.3881
  208MOL0     H28022   1.684   5.012   4.962  1.1736 -0.1101 -1.1235
  208MOL0     H28023   1.439   5.105   4.992 -0.5646  1.4034 -1.2235
  208MOL0     H28024   1.436   5.174   4.830 -3.3787 -1.4958  0.1927
  208MOL0     H28025   1.475   4.935   4.751  0.6745 -0.0273  0.4901
  208MOL0     H28026   1.456   4.887   4.921 -0.1802 -0.1672  0.4920
  208MOL0     H28027   1.222   4.966   4.919 -1.4120 -0.3336 -0.5816
  208MOL0     H28028   1.264   4.833   4.806  0.9011 -0.4001  0.4561
  208MOL0     H28029   1.212   5.131   4.749 -2.9582 -1.0299  2.2901
  208MOL0     H28030   1.266   5.010   4.624 -1.2969 -0.2373  0.0389
  208MOL0     H28031   1.016   4.925   4.912  0.2820  1.3923  0.2130
  208MOL0     H28032   0.742   4.905   4.918  1.7848  1.2999 -0.1663
  208MOL0     H28033   0.661   4.883   4.766 -0.1330  1.6121 -0.4274
  208MOL0     H28034   0.670   4.664   4.865  0.3423 -0.5792  1.1279
  208MOL0     H28035   0.776   4.664   4.727 -0.7181 -2.5135  0.8611
  208MOL0     H28036   0.981   4.674   4.885  0.0751  0.6185 -2.6090
  208MOL0     H28037   0.877   4.533   4.872 -1.2051 -0.2882 -0.6229
  208MOL0     H28038   0.850   4.764   5.081  1.9003  0.1164  0.1552
  208MOL0     H28039   0.945   4.625   5.114  1.2431 -1.7919 -1.9538
  208MOL0     H28040   0.908   4.540   5.292 -0.1325  0.0856 -0.7954
  208MOL0     H28041   0.864   4.392   5.476 -2.4159  1.7162  2.1242
  208MOL0     H28042   0.869   3.942   5.519  2.5742  0.6574 -0.2884
  208MOL0     H28043   0.857   3.745   5.676  1.5833 -0.8109  2.0566
  208MOL0     H28044   0.751   3.556   5.975 -0.4255  2.0655  2.5543
  208MOL0     H28045   0.811   3.588   5.808 -2.3243 -1.3308 -0.1419
  208MOL0     H28046   1.002   3.506   5.946  1.9202  0.7668  0.7920
  208MOL0     H28047   1.022   3.673   5.904 -0.3878 -0.0517 -1.0390
  208MOL0     H28048   0.880   3.623   6.172 -0.6267 -0.7971 -1.2117
  208MOL0     H28049   1.043   3.548   6.159  0.9071 -0.6623 -2.3121
  208MOL0     H28050   1.147   3.767   6.139 -0.5411 -3.6056  1.7782
  208MOL0     H28051   1.033   3.773   6.274  3.3504 -3.1665  0.5897
  208MOL0     H28052   0.865   3.882   6.133 -1.0265 -1.5830  0.8568
  208MOL0     H28053   0.987   3.874   6.001  0.1505  2.4932 -0.4174
  208MOL0     H28054   0.981   4.101   6.080 -1.1677  0.6981  0.9118
  208MOL0     H28055   1.005   4.047   6.250  4.2199 -2.0896  1.4759
  208MOL0     H28056   1.223   4.000   6.013  4.8057  1.9619  0.1644
  208MOL0     H28057   1.238   3.948   6.175 -0.8672  0.5299  2.5754
  208MOL0     H28058   1.218   4.185   6.248 -1.2013  1.2231  0.2169
  208MOL0     H28059   1.367   4.161   6.155 -0.6316  0.0887 -1.0303
  208MOL0     H28060   0.699   3.999   5.980  1.1408 -1.6835  1.3430
  208MOL0     H28061   0.700   4.186   5.815 -1.7443 -0.2226 -1.7976
  208MOL0     H28062   0.499   4.248   5.291  0.0851  1.4759  0.5917
  208MOL0     H28063   0.532   4.433   5.118  0.0191 -2.0351 -2.1794
  208MOL0     H28064   2.271   5.355   4.774 -0.0670  0.7619 -3.9201
  208MOL0     H28065   2.451   5.539   4.779 -0.2312 -1.7399  0.4727
  208MOL0     H28066   2.341   6.038   4.961  1.2445  1.0141  1.3474
  208MOL0     H28067   2.456   6.229   5.061  2.2599  0.5510  1.6695
  208MOL0     H28068   2.530   6.442   5.033 -0.0889 -2.3588 -2.4946
  208MOL0     H28069   2.680   6.527   5.054  0.4207  0.1249  1.2256
  208MOL0     H28070   2.782   6.330   5.160  0.1268  0.3489 -0.7810
  208MOL0     H28071   2.618   6.272   5.202  0.5023  0.1340  1.5992
  208MOL0     H28072   2.592   6.534   5.290  1.1703 -0.0740  0.5556
  208MOL0     H28073   2.766   6.483   5.317  1.0645 -1.4709  2.0145
  208MOL0     H28074   2.676   6.290   5.449 -1.4403  0.1396  0.8548
  208MOL0     H28075   2.650   6.457   5.504 -2.2804  2.7958 -1.2401
  208MOL0     H28076   2.263   6.343   5.482  0.0764  1.7117  1.2010
  208MOL0     H28077   2.720   6.228   4.721  1.8516 -5.8339 -1.1907
  208MOL0     H28078   2.759   5.985   4.608 -0.8519  2.0557  0.2510
  208MOL0     H28079   2.606   5.902   4.572 -0.1828 -0.6295  0.1933
  208MOL0     H28080   2.637   6.075   4.532 -0.4673 -0.6852 -0.4085
  209MOL0     O28081   0.630   8.891   6.277 -0.8018 -0.4834 -0.1614
  209MOL0     C28082   0.607   8.955   6.174  0.5429 -1.1247  0.5332
  209MOL0     O28083   0.703   8.992   6.076  0.5400 -0.0886 -0.0473
  209MOL0     C28084   0.831   8.938   6.086 -0.2625 -0.3892 -0.0647
  209MOL0     C28085   0.860   8.810   6.137 -0.8079  0.2350 -0.2956
  209MOL0     C28086   0.997   8.758   6.133  0.0687 -0.3134 -0.2411
  209MOL0     C28087   1.098   8.843   6.086 -0.1365 -0.0592  0.2113
  209MOL0     O28088   1.224   8.790   6.076  0.3438  0.0005 -0.3151
  209MOL0     C28089   1.301   8.832   5.966 -0.4206 -0.2881  0.2461
  209MOL0     C28090   1.408   8.934   6.009  0.5968  0.2176 -0.3953
  209MOL0     C28091   1.508   8.964   5.901 -0.4219  0.2867 -0.0706
  209MOL0     C28092   1.600   8.840   5.879 -0.6240 -0.0738  0.1818
  209MOL0     C28093   1.704   8.870   5.777  0.4964 -0.0811  0.3213
  209MOL0     C28094   1.796   8.747   5.757 -0.1451  0.5720  0.0782
  209MOL0     C28095   1.944   8.783   5.718  0.3700  0.1875 -0.2553
  209MOL0     C28096   1.947   8.860   5.577  0.3545 -0.3062 -0.8702
  209MOL0     N28097   2.083   8.910   5.551 -0.1446 -0.2006 -0.1424
  209MOL0     C28098   2.126   8.940   5.422  0.0783  0.7347  0.2033
  209MOL0     C28099   2.241   9.010   5.437 -0.3607  0.0467 -0.9046
  209MOL0     C28100   2.317   9.082   5.329 -0.3803  0.5816  0.2488
  209MOL0     C28101   2.469   9.065   5.348 -0.1327  0.3402  0.1170
  209MOL0     C28102   2.552   9.126   5.234  1.0014  1.0254 -1.2016
  209MOL0     C28103   2.695   9.101   5.250  0.1384  0.0496 -0.1160
  209MOL0     O28104   2.736   9.148   5.379 -0.3702 -0.2203  0.0857
  209MOL0     C28105   2.864   9.104   5.420  0.2158 -0.7298  1.1118
  209MOL0     C28106   2.901   9.136   5.549  0.4681  0.8969 -0.4055
  209MOL0     C28107   3.033   9.112   5.598 -0.5146 -0.1317 -0.0083
  209MOL0     C28108   3.130   9.037   5.523 -0.2315 -0.0674 -1.0603
  209MOL0     C28109   3.265   9.003   5.574  0.3869  0.1667  0.9204
  209MOL0     O28110   3.308   9.077   5.678  0.1717 -0.0736 -0.0146
  209MOL0     C28111   3.444   9.072   5.687 -0.2833 -0.3270  0.0623
  209MOL0     C28112   3.538   9.140   5.594  0.3668  0.0084 -0.2446
  209MOL0     C28113   3.670   9.132   5.618  0.1168  0.0400  0.2422
  209MOL0     C28114   3.727   9.074   5.736  0.7557  0.2426  0.8787
  209MOL0     O28115   3.864   9.062   5.744 -0.5984 -0.7494  1.4344
  209MOL0     C28116   3.929   9.048   5.870  0.3123 -1.0554 -0.4975
  209MOL0     C28117   4.075   9.089   5.870 -1.1442 -0.4519 -0.4893
  209MOL0     C28118   4.149   9.076   6.004  0.3846  0.6924 -0.3336
  209MOL0     C28119   4.282   9.134   5.998 -0.7706 -0.8263 -0.2185
  209MOL0     C28120   4.370   9.121   6.125 -0.0355  0.5082  0.6071
  209MOL0     C28121   4.457   9.249   6.139  0.0595  0.1989 -0.2670
  209MOL0     C28122   4.520   9.301   6.011  0.5059  0.6961  0.4668
  209MOL0     C28123   4.614   9.202   5.941  0.7551 -1.0061 -0.2027
  209MOL0    Cl28124   4.754   9.162   6.040  0.2448 -0.8480  0.4639
  209MOL0     C28125   3.642   8.998   5.814 -0.1781 -0.6894  0.2431
  209MOL0     C28126   3.505   8.991   5.790 -0.2100 -0.5785  0.1508
  209MOL0     O28127   3.330   8.923   5.503 -0.1445 -0.1153 -0.5089
  209MOL0     C28128   3.082   8.989   5.399  0.4064 -0.0511  0.1913
  209MOL0     C28129   2.956   9.023   5.352 -0.2293 -0.4736 -0.1144
  209MOL0     N28130   2.256   9.039   5.573  0.3136  0.2092 -0.2843
  209MOL0     N28131   2.160   8.975   5.641  0.2826  1.0271 -0.1635
  209MOL0     C28132   1.070   8.974   6.042  0.5070  0.0365 -0.7368
  209MOL0     C28133   0.934   9.017   6.049  0.5975 -0.3810  0.2712
  209MOL0     C28134   0.469   9.004   6.164  0.4390 -0.8102  0.3495
  209MOL0     C28135   0.391   9.014   6.276  0.0008  0.2184  1.0603
  209MOL0     C28136   0.258   9.056   6.265  0.0640 -0.0196 -0.1720
  209MOL0     C28137   0.191   9.081   6.140 -0.1245 -0.2143  0.0859
  209MOL0     O28138   0.057   9.109   6.121  0.6796 -0.6119  0.1059
  209MOL0     C28139   0.039   9.249   6.165  0.0510 -0.6906  0.6517
  209MOL0     C28140  -0.092   9.292   6.100 -0.7441  0.4484 -0.0424
  209MOL0     C28141  -0.132   9.437   6.151 -0.3972 -0.0810 -0.1191
  209MOL0     C28142  -0.263   9.490   6.104 -0.1374  0.8701 -0.4375
  209MOL0     C28143  -0.373   9.396   6.150 -0.9924 -1.1215  1.4681
  209MOL0     C28144  -0.465   9.325   6.171 -0.3712  0.0736 -0.1406
  209MOL0     C28145   0.276   9.073   6.027  0.3434 -0.5442 -1.2560
  209MOL0     C28146   0.409   9.037   6.033  0.5093  0.3817  0.1245
  209MOL0     C28147   0.481   9.004   5.903  0.3234 -0.2764 -0.5003
  209MOL0     H28148   0.784   8.742   6.173 -1.4797  0.3454 -1.4598
  209MOL0     H28149   1.018   8.657   6.166 -2.0190 -0.5855  0.4459
  209MOL0     H28150   1.349   8.739   5.934 -1.2466 -0.2360 -1.2477
  209MOL0     H28151   1.251   8.879   5.881 -1.2723  2.1263  1.9801
  209MOL0     H28152   1.472   8.897   6.089 -0.5499 -1.0105 -0.0117
  209MOL0     H28153   1.365   9.024   6.054  0.2484 -0.6742  1.0998
  209MOL0     H28154   1.557   9.056   5.934  0.0284 -0.6224  1.9134
  209MOL0     H28155   1.454   8.988   5.809 -0.2252  0.4556 -0.1415
  209MOL0     H28156   1.646   8.800   5.970  1.2379  0.4644 -0.4604
  209MOL0     H28157   1.534   8.762   5.842 -2.4390  1.3525  0.2724
  209MOL0     H28158   1.659   8.905   5.683 -0.1467 -1.0025  0.2609
  209MOL0     H28159   1.758   8.952   5.823 -2.1992  1.6593  0.6270
  209MOL0     H28160   1.803   8.682   5.845 -3.3522  0.2006  0.1814
  209MOL0     H28161   1.759   8.674   5.686  2.2035 -0.8037  0.1807
  209MOL0     H28162   2.009   8.697   5.701  3.2064  1.9638  0.9124
  209MOL0     H28163   1.991   8.841   5.797 -2.1274  1.7276  0.2117
  209MOL0     H28164   1.912   8.789   5.501  1.0248 -2.1119  0.4427
  209MOL0     H28165   1.886   8.950   5.593  0.2358 -0.6992  1.0233
  209MOL0     H28166   2.075   8.903   5.333 -1.5281 -1.0410  1.7836
  209MOL0     H28167   2.294   9.045   5.229 -1.4143  1.2702  0.2203
  209MOL0     H28168   2.303   9.190   5.342  0.4191  0.9575 -1.6215
  209MOL0     H28169   2.485   9.101   5.451 -0.4229  0.7897  0.0076
  209MOL0     H28170   2.471   8.956   5.348  2.3238  0.3220 -0.8684
  209MOL0     H28171   2.547   9.235   5.236  1.6410  1.0463 -0.1979
  209MOL0     H28172   2.511   9.097   5.137  0.6236 -0.8565 -0.5279
  209MOL0     H28173   2.747   9.156   5.171 -0.1746  1.1226  0.4130
  209MOL0     H28174   2.706   8.993   5.238  1.0108  0.2685 -1.5310
  209MOL0     H28175   2.822   9.185   5.606 -2.3673 -2.5041 -1.0447
  209MOL0     H28176   3.059   9.148   5.697  1.4224  1.6362 -1.0674
  209MOL0     H28177   3.515   9.182   5.497  0.3800 -1.1559 -0.7701
  209MOL0     H28178   3.731   9.182   5.543 -0.7989  1.0985  0.1768
  209MOL0     H28179   3.881   9.120   5.938  1.2308  0.1966 -1.1427
  209MOL0     H28180   3.915   8.944   5.901  1.0734 -0.3130  2.7234
  209MOL0     H28181   4.121   9.018   5.801  2.6139  0.0837  1.2171
  209MOL0     H28182   4.092   9.190   5.832 -1.9523 -0.1679 -0.1184
  209MOL0     H28183   4.085   9.115   6.084 -1.8762 -0.0531 -1.6607
  209MOL0     H28184   4.166   8.968   6.004  3.5587  1.0819  1.2537
  209MOL0     H28185   4.268   9.241   5.983  0.2060 -1.0910 -4.2213
  209MOL0     H28186   4.332   9.096   5.909  0.7787 -2.8703  1.4084
  209MOL0     H28187   4.430   9.030   6.115  0.0835  0.7386 -1.1746
  209MOL0     H28188   4.307   9.107   6.213  0.0120 -1.0699  0.4116
  209MOL0     H28189   4.404   9.334   6.183 -0.4259  0.6558 -1.6828
  209MOL0     H28190   4.542   9.238   6.207 -0.7568 -2.0390  0.5032
  209MOL0     H28191   4.571   9.393   6.041  2.0012  1.1731 -3.0761
  209MOL0     H28192   4.453   9.331   5.930  2.3901 -0.7045 -1.7222
  209MOL0     H28193   4.568   9.112   5.900 -0.4358 -0.3240 -0.4072
  209MOL0     H28194   4.637   9.255   5.849  3.6098 -0.0437  0.9472
  209MOL0     H28195   3.674   8.936   5.897 -4.5975 -1.5141  1.6217
  209MOL0     H28196   3.438   8.932   5.851 -0.5561  0.4378  0.7848
  209MOL0     H28197   3.139   8.924   5.333 -1.7712  0.3470 -2.2571
  209MOL0     H28198   2.937   8.997   5.248  0.1938  1.8999 -0.8537
  209MOL0     H28199   1.149   9.040   6.009  0.5800  0.0588 -0.5209
  209MOL0     H28200   0.914   9.114   6.005  2.2451  0.0376  0.3758
  209MOL0     H28201   0.427   8.998   6.377 -0.2219 -2.7677  0.7674
  209MOL0     H28202   0.194   9.073   6.351 -0.0639  3.3593 -0.7835
  209MOL0     H28203   0.115   9.317   6.126 -0.4448 -1.1023 -1.1024
  209MOL0     H28204   0.036   9.267   6.273 -0.8573  0.7992  0.4210
  209MOL0     H28205  -0.170   9.223   6.132 -1.7723  0.1424 -2.9499
  209MOL0     H28206  -0.078   9.289   5.992 -0.4919 -1.2872  0.0082
  209MOL0     H28207  -0.062   9.509   6.108  1.2881 -1.2248  0.5861
  209MOL0     H28208  -0.114   9.447   6.258  1.9167  0.8497 -0.5425
  209MOL0     H28209  -0.265   9.591   6.145  2.1937  1.3755 -1.4158
  209MOL0     H28210  -0.263   9.492   5.994 -1.5040 -1.7593 -0.5638
  209MOL0     H28211  -0.555   9.271   6.191  0.3318 -0.1216  2.9846
  209MOL0     H28212   0.237   9.091   5.927 -1.8076 -1.1583 -0.5940
  209MOL0     H28213   0.554   9.085   5.889  1.3539 -1.1943 -0.5360
  209MOL0     H28214   0.544   8.915   5.902 -1.0179 -1.2516 -0.6625
  209MOL0     H28215   0.417   8.999   5.814 -0.0480 -0.1524 -0.2440
  210MOL0     O28216   8.285   1.998   2.119 -0.0157 -0.2556 -0.8031
  210MOL0     C28217   8.256   1.877   2.088 -1.3395 -0.4225 -0.4721
  210MOL0     O28218   8.248   1.779   2.172 -0.0832  0.5522  0.5930
  210MOL0     C28219   8.303   1.794   2.295 -0.4379  0.2368 -1.1802
  210MOL0     C28220   8.231   1.845   2.408 -0.0344 -0.6373 -1.2557
  210MOL0     C28221   8.303   1.869   2.528  0.0168  0.3596 -0.3994
  210MOL0     C28222   8.431   1.838   2.547  0.1147 -0.2483  0.2841
  210MOL0     O28223   8.483   1.881   2.669 -0.9006  0.1577  0.4781
  210MOL0     C28224   8.594   1.805   2.718  0.6608  0.3250 -0.2008
  210MOL0     C28225   8.628   1.863   2.855  0.7215  0.2223 -0.1978
  210MOL0     C28226   8.592   1.767   2.968 -0.4669  1.0028  0.2560
  210MOL0     C28227   8.441   1.764   2.993 -0.4761  0.2482  0.5596
  210MOL0     C28228   8.410   1.644   3.087  0.3965  0.1069  0.2797
  210MOL0     C28229   8.457   1.663   3.233  0.2738 -0.3331  0.3025
  210MOL0     C28230   8.399   1.544   3.320  0.3414 -0.7215 -0.0091
  210MOL0     C28231   8.247   1.534   3.313 -0.0065  0.1095 -0.4738
  210MOL0     N28232   8.189   1.668   3.320 -0.0176 -0.8151 -0.1476
  210MOL0     C28233   8.180   1.742   3.438 -0.9710 -0.3136  0.5256
  210MOL0     C28234   8.111   1.852   3.408  0.6004 -0.3631  0.8565
  210MOL0     C28235   8.073   1.960   3.497  0.1002 -0.2784  0.0020
  210MOL0     C28236   8.076   2.100   3.427  0.0052  0.2211  0.2703
  210MOL0     C28237   8.199   2.145   3.363 -0.6044 -0.2816  1.0357
  210MOL0     C28238   8.161   2.266   3.277 -0.5534  0.5256  0.6713
  210MOL0     O28239   8.276   2.345   3.231  0.2956  0.3911 -0.0541
  210MOL0     C28240   8.269   2.467   3.173 -0.3018 -0.2803 -1.0959
  210MOL0     C28241   8.151   2.529   3.152  0.2534  0.3838  0.2632
  210MOL0     C28242   8.146   2.659   3.094  0.1636  0.2363  0.3887
  210MOL0     C28243   8.265   2.730   3.068 -0.0474 -0.8408  0.3909
  210MOL0     C28244   8.267   2.873   3.030  0.7464 -1.1451  0.0180
  210MOL0     O28245   8.379   2.944   3.028 -0.0695  0.3973 -0.5961
  210MOL0     C28246   8.406   3.048   2.949 -0.1611 -0.2725  0.6645
  210MOL0     C28247   8.316   3.100   2.845  0.6263  0.4460  0.3719
  210MOL0     C28248   8.349   3.228   2.795  0.2720 -0.3350 -0.0041
  210MOL0     C28249   8.463   3.296   2.832 -0.3459  0.5273  0.5350
  210MOL0     O28250   8.503   3.410   2.764 -0.0336 -0.3009  0.0523
  210MOL0     C28251   8.636   3.449   2.754 -0.0788  0.0107 -0.6142
  210MOL0     C28252   8.647   3.537   2.633 -0.0853  0.4647 -0.2504
  210MOL0     C28253   8.795   3.564   2.607 -0.8898  0.4363 -0.5020
  210MOL0     C28254   8.825   3.707   2.579 -0.4392  0.2966  0.1396
  210MOL0     C28255   8.770   3.815   2.681 -0.2351 -0.1858 -0.2926
  210MOL0     C28256   8.801   3.778   2.823 -0.2832  0.9680 -0.3268
  210MOL0     C28257   8.948   3.774   2.861 -0.0377 -0.7715 -0.1928
  210MOL0     C28258   8.954   3.733   3.010 -0.7546  0.1538  0.0869
  210MOL0    Cl28259   8.882   3.861   3.123  0.2549 -0.5096 -0.2551
  210MOL0     C28260   8.539   3.244   2.938  0.2959 -0.2071 -0.2026
  210MOL0     C28261   8.517   3.119   2.987 -0.5431  0.9533  0.0547
  210MOL0     O28262   8.152   2.920   2.994  0.0232  0.2826  0.7080
  210MOL0     C28263   8.386   2.656   3.082 -0.2328  0.6157  0.1449
  210MOL0     C28264   8.390   2.525   3.131 -0.3904  0.9685  0.1623
  210MOL0     N28265   8.059   1.832   3.277 -0.2323  0.4728 -0.6544
  210MOL0     N28266   8.104   1.723   3.224  0.6636  0.0442 -0.7176
  210MOL0     C28267   8.501   1.779   2.435  0.2251  0.9125 -0.5435
  210MOL0     C28268   8.433   1.754   2.315  1.2523  0.8686 -0.8576
  210MOL0     C28269   8.236   1.853   1.942 -0.7695  0.6396 -0.3954
  210MOL0     C28270   8.213   1.964   1.854  0.8750 -0.0709 -0.4203
  210MOL0     C28271   8.183   1.945   1.720  0.5057 -0.2212  0.5524
  210MOL0     C28272   8.165   1.822   1.663  0.2611  0.4479  0.1476
  210MOL0     O28273   8.121   1.810   1.534  0.2162  0.0115  0.1739
  210MOL0     C28274   8.037   1.904   1.478 -0.1046 -0.0779 -0.4063
  210MOL0     C28275   7.941   1.818   1.390 -0.4427 -0.1238  0.0932
  210MOL0     C28276   7.864   1.720   1.478 -0.1096  0.4063  0.0249
  210MOL0     C28277   7.769   1.633   1.382  0.0884 -0.2789 -0.1495
  210MOL0     C28278   7.726   1.513   1.453 -0.0661  0.5030  0.7917
  210MOL0     C28279   7.685   1.409   1.505  0.4884 -0.0272  0.8246
  210MOL0     C28280   8.195   1.709   1.744 -0.2912 -0.5250  0.7388
  210MOL0     C28281   8.229   1.723   1.888 -0.2886 -0.8377 -0.0888
  210MOL0     C28282   8.248   1.595   1.969 -0.8692  0.6263 -0.4517
  210MOL0     H28283   8.125   1.871   2.408 -0.2005 -0.9390  1.8914
  210MOL0     H28284   8.260   1.932   2.606 -0.1066 -0.0837 -0.1037
  210MOL0     H28285   8.561   1.701   2.728  0.8507  0.2378 -0.4619
  210MOL0     H28286   8.686   1.813   2.658  1.0527 -1.5376  0.0747
  210MOL0     H28287   8.577   1.957   2.878  0.1536 -0.6660  2.6140
  210MOL0     H28288   8.735   1.883   2.847  0.1662  2.7670 -3.1064
  210MOL0     H28289   8.642   1.809   3.056 -1.7776  1.0442  1.0079
  210MOL0     H28290   8.618   1.662   2.957 -1.5738  0.7332  0.1636
  210MOL0     H28291   8.412   1.867   3.018  0.3438  0.6507 -0.1009
  210MOL0     H28292   8.385   1.749   2.900  0.8599  0.4564 -0.3078
  210MOL0     H28293   8.301   1.633   3.089  0.3976 -0.1478 -0.6087
  210MOL0     H28294   8.451   1.556   3.037 -0.8682 -1.5193  1.9362
  210MOL0     H28295   8.567   1.666   3.226  0.1893  0.6368 -0.9147
  210MOL0     H28296   8.428   1.757   3.280 -0.3528 -0.1124 -0.5124
  210MOL0     H28297   8.420   1.562   3.426 -2.2060  2.9500  0.0780
  210MOL0     H28298   8.433   1.448   3.283  0.5407 -0.2942 -0.9464
  210MOL0     H28299   8.212   1.500   3.215  0.8855 -0.2252 -0.6831
  210MOL0     H28300   8.205   1.452   3.371 -1.0194 -1.6906 -3.5111
  210MOL0     H28301   8.205   1.708   3.538 -0.1021 -1.1603  0.0374
  210MOL0     H28302   7.974   1.936   3.536  0.2557  1.7248  1.8037
  210MOL0     H28303   8.143   1.959   3.581 -1.9516  0.8685  1.8366
  210MOL0     H28304   8.008   2.091   3.342 -0.5633 -0.4225  0.7808
  210MOL0     H28305   8.034   2.174   3.496 -1.7463  0.2266 -0.7576
  210MOL0     H28306   8.229   2.060   3.303 -0.0377  0.0956  0.7792
  210MOL0     H28307   8.280   2.165   3.433  0.7146  0.0242 -0.5205
  210MOL0     H28308   8.083   2.326   3.325 -1.4880 -2.1096  2.7018
  210MOL0     H28309   8.108   2.217   3.195  1.0275  0.5071 -0.4005
  210MOL0     H28310   8.063   2.473   3.180  1.5508 -1.4751  0.8729
  210MOL0     H28311   8.043   2.686   3.074 -0.3834 -2.4624 -0.9407
  210MOL0     H28312   8.228   3.049   2.808 -0.1242  0.7275  1.6916
  210MOL0     H28313   8.296   3.275   2.712 -1.5215  0.7049  1.6459
  210MOL0     H28314   8.664   3.499   2.847 -1.1043  1.1113 -0.8752
  210MOL0     H28315   8.690   3.355   2.743 -0.6008 -0.7423  2.5131
  210MOL0     H28316   8.593   3.494   2.548  0.7462  0.1365 -0.6201
  210MOL0     H28317   8.590   3.630   2.645  0.5110  0.5789  2.1753
  210MOL0     H28318   8.860   3.528   2.687  0.2034  1.0343 -1.1064
  210MOL0     H28319   8.828   3.505   2.521 -0.4420 -0.4034  0.2401
  210MOL0     H28320   8.783   3.733   2.481  4.5605  0.5642 -2.2259
  210MOL0     H28321   8.933   3.720   2.572 -0.3787 -0.5535 -0.7439
  210MOL0     H28322   8.661   3.816   2.678 -0.2241  0.3656 -2.5591
  210MOL0     H28323   8.807   3.914   2.650  0.3350 -0.3047 -0.0143
  210MOL0     H28324   8.753   3.856   2.882 -1.0935  0.3426 -0.1509
  210MOL0     H28325   8.754   3.682   2.847  0.8948  0.2844 -0.6340
  210MOL0     H28326   9.004   3.868   2.849  0.0978 -0.9784 -1.2968
  210MOL0     H28327   8.997   3.694   2.805  0.8819  0.3189 -0.9987
  210MOL0     H28328   8.905   3.639   3.033 -0.5170  0.5444  2.4740
  210MOL0     H28329   9.059   3.730   3.042 -0.4069  3.8064 -0.2739
  210MOL0     H28330   8.624   3.290   2.988  0.4777 -1.4401  0.6714
  210MOL0     H28331   8.577   3.090   3.072 -0.8078  2.7220  0.8844
  210MOL0     H28332   8.478   2.707   3.055 -0.4820  0.7475 -0.4534
  210MOL0     H28333   8.485   2.473   3.137 -0.1581  1.3574 -0.0665
  210MOL0     H28334   8.605   1.748   2.445 -0.9260 -5.1163 -2.5970
  210MOL0     H28335   8.489   1.716   2.231  0.3533 -0.8653 -0.7065
  210MOL0     H28336   8.213   2.066   1.891 -0.9597 -0.3874  0.5978
  210MOL0     H28337   8.171   2.031   1.655  1.7207  0.4501  1.1982
  210MOL0     H28338   8.092   1.976   1.417  1.5071 -1.7680 -1.0394
  210MOL0     H28339   7.978   1.972   1.541  0.5827 -0.4396  0.6469
  210MOL0     H28340   7.983   1.767   1.303 -1.8780  2.0118 -1.9660
  210MOL0     H28341   7.880   1.886   1.329  1.9073 -1.6574 -4.4532
  210MOL0     H28342   7.796   1.776   1.544 -2.3096  0.1703 -1.8822
  210MOL0     H28343   7.925   1.650   1.535  0.1754  1.5023  1.1094
  210MOL0     H28344   7.683   1.694   1.355 -2.0028 -2.8490  0.3014
  210MOL0     H28345   7.809   1.596   1.287  2.8059  0.3765  0.6533
  210MOL0     H28346   7.638   1.315   1.525 -1.3177  0.7556  0.4503
  210MOL0     H28347   8.166   1.612   1.705 -1.8961 -0.4230  1.5642
  210MOL0     H28348   8.250   1.509   1.902 -1.1050  1.4987 -1.6211
  210MOL0     H28349   8.341   1.591   2.026 -1.0633  2.9639  0.1217
  210MOL0     H28350   8.167   1.590   2.043 -4.2691  1.5175 -3.8144
  211MOL0     O28351   0.331   9.477   5.169  0.1284 -0.0535  0.5172
  211MOL0     C28352   0.263   9.377   5.181 -0.2863 -0.9333  0.1044
  211MOL0     O28353   0.273   9.287   5.284 -0.4499  0.1857  1.2642
  211MOL0     C28354   0.395   9.284   5.355 -0.5935  0.0078  0.2132
  211MOL0     C28355   0.392   9.244   5.480  0.4296  0.5982 -0.7505
  211MOL0     C28356   0.506   9.225   5.560  0.3665 -0.3706  0.0835
  211MOL0     C28357   0.629   9.241   5.500 -0.0234  0.6369  0.1451
  211MOL0     O28358   0.738   9.211   5.579 -0.4986 -0.6460  0.4010
  211MOL0     C28359   0.842   9.143   5.511  0.1846 -0.5032  1.0241
  211MOL0     C28360   0.944   9.073   5.608 -0.8899 -0.1122  0.8157
  211MOL0     C28361   0.878   8.989   5.721 -0.2217  0.7073  0.6310
  211MOL0     C28362   0.792   8.870   5.661 -0.1504  0.2705  0.3181
  211MOL0     C28363   0.791   8.748   5.756 -0.5101  0.0417 -0.4128
  211MOL0     C28364   0.789   8.616   5.680  0.2557 -0.4564  0.1482
  211MOL0     C28365   0.726   8.495   5.750  0.4088 -0.0979  0.2203
  211MOL0     C28366   0.819   8.442   5.862 -0.4219 -0.4985 -0.6004
  211MOL0     N28367   0.957   8.423   5.811 -0.3956 -0.4665  0.1595
  211MOL0     C28368   1.071   8.506   5.816  0.6505  0.3431 -0.1560
  211MOL0     C28369   1.155   8.449   5.728 -0.0722  0.4293 -0.0145
  211MOL0     C28370   1.285   8.498   5.680  0.1249 -0.0838  0.4500
  211MOL0     C28371   1.276   8.546   5.536 -0.6476 -0.2057 -0.9615
  211MOL0     C28372   1.261   8.433   5.429  0.6386 -0.6816 -0.0069
  211MOL0     C28373   1.348   8.452   5.301  0.2097 -0.3187  0.1777
  211MOL0     O28374   1.351   8.337   5.216 -0.1666 -0.3198 -0.0632
  211MOL0     C28375   1.255   8.336   5.120 -0.5896  1.3511  0.3238
  211MOL0     C28376   1.124   8.285   5.150  0.0008  0.0721 -0.1089
  211MOL0     C28377   1.032   8.284   5.048  0.1316  0.3940 -0.5268
  211MOL0     C28378   1.068   8.319   4.911  0.0364 -0.0344 -0.4330
  211MOL0     C28379   0.977   8.301   4.796  1.9363 -0.6130  0.1382
  211MOL0     O28380   1.023   8.314   4.669  0.5191  0.1228  0.6209
  211MOL0     C28381   0.954   8.276   4.561  0.0319  0.3864  0.1802
  211MOL0     C28382   0.943   8.142   4.521 -0.5457  0.9200  0.2434
  211MOL0     C28383   0.870   8.105   4.413  1.0689 -0.3268  0.2266
  211MOL0     C28384   0.801   8.202   4.336 -0.1426  0.1572  0.5091
  211MOL0     O28385   0.713   8.159   4.241 -0.2492  0.2054 -1.3764
  211MOL0     C28386   0.675   8.246   4.142  0.2842 -0.1532 -0.7647
  211MOL0     C28387   0.626   8.166   4.018 -0.7045  0.3740 -0.8257
  211MOL0     C28388   0.743   8.079   3.950  1.0127 -0.5960  0.0755
  211MOL0     C28389   0.697   7.975   3.857 -0.3245 -0.3883 -0.2314
  211MOL0     C28390   0.809   7.870   3.831 -1.1393  0.1170 -0.7136
  211MOL0     C28391   0.782   7.774   3.717 -0.8933 -0.8223  0.2578
  211MOL0     C28392   0.904   7.679   3.719 -0.1429  0.5001  1.4171
  211MOL0     C28393   0.888   7.596   3.586 -0.1066  0.7260 -0.2363
  211MOL0    Cl28394   0.984   7.450   3.605  0.5877  0.4893 -0.1003
  211MOL0     C28395   0.816   8.339   4.372  0.0289  0.9003  0.1662
  211MOL0     C28396   0.888   8.371   4.491 -1.2513  0.1618  0.5714
  211MOL0     O28397   0.865   8.266   4.832  0.2456 -0.1586 -0.2692
  211MOL0     C28398   1.198   8.363   4.884  0.0558 -0.4580 -0.3485
  211MOL0     C28399   1.286   8.373   4.994 -0.5127  0.0241 -0.8751
  211MOL0     N28400   1.104   8.326   5.685 -0.2948 -0.1767  0.1542
  211MOL0     N28401   0.987   8.314   5.732 -0.3491  0.7614 -0.2396
  211MOL0     C28402   0.643   9.290   5.366 -0.7158 -0.0087  0.3348
  211MOL0     C28403   0.521   9.309   5.303 -0.4188 -0.2100 -0.5055
  211MOL0     C28404   0.168   9.367   5.072  0.0330  1.0819 -0.2977
  211MOL0     C28405   0.154   9.468   4.967 -0.3550 -0.0630  0.6312
  211MOL0     C28406   0.064   9.470   4.868  0.0274 -0.0262  0.3860
  211MOL0     C28407  -0.033   9.372   4.876  0.2375  0.1243  0.0526
  211MOL0     O28408  -0.110   9.366   4.767 -0.3570  0.2133 -1.1020
  211MOL0     C28409  -0.052   9.289   4.664 -0.8320  0.1543  0.6638
  211MOL0     C28410  -0.139   9.173   4.649 -1.1798  0.6078 -0.9486
  211MOL0     C28411  -0.056   9.050   4.599  0.0687 -0.0628 -0.1696
  211MOL0     C28412  -0.143   8.931   4.611  0.3437  1.4016  0.4172
  211MOL0     C28413  -0.174   8.909   4.751  0.3420  0.2999  0.1200
  211MOL0     C28414  -0.197   8.906   4.868 -0.6071  0.2626 -0.1827
  211MOL0     C28415  -0.033   9.277   4.977  0.7619 -0.5067  0.4173
  211MOL0     C28416   0.062   9.272   5.078  0.0785  0.7938  0.6774
  211MOL0     C28417   0.033   9.171   5.193  0.2768  0.3859  0.6660
  211MOL0     H28418   0.301   9.215   5.532 -0.9637  3.7521 -1.1161
  211MOL0     H28419   0.500   9.195   5.665  3.0814  1.9865  1.0403
  211MOL0     H28420   0.794   9.069   5.446 -1.6099  0.8757  0.6796
  211MOL0     H28421   0.895   9.211   5.444 -2.6785  1.6050  0.6663
  211MOL0     H28422   0.997   9.152   5.662  0.7572  1.7540 -3.1006
  211MOL0     H28423   1.013   9.022   5.540 -2.5159 -0.3191 -0.7567
  211MOL0     H28424   0.815   9.052   5.783 -0.3250  4.3709 -2.7770
  211MOL0     H28425   0.956   8.957   5.791  0.2123  3.2014  1.3965
  211MOL0     H28426   0.692   8.913   5.652  0.0320  0.3966 -1.2898
  211MOL0     H28427   0.832   8.846   5.562 -1.0047 -1.1956  0.2951
  211MOL0     H28428   0.885   8.743   5.811 -1.1142 -0.7406  0.5845
  211MOL0     H28429   0.708   8.757   5.827 -0.3194  0.1238 -0.1980
  211MOL0     H28430   0.718   8.640   5.600  0.7993 -1.8451 -0.7993
  211MOL0     H28431   0.879   8.586   5.625  0.3078  2.0650 -1.2875
  211MOL0     H28432   0.729   8.415   5.676 -1.3133  0.1642 -0.1745
  211MOL0     H28433   0.629   8.520   5.792  1.7830 -0.7003  4.2031
  211MOL0     H28434   0.815   8.516   5.943 -2.0886 -2.0517  0.8316
  211MOL0     H28435   0.774   8.346   5.888 -3.1615  1.1424  1.3552
  211MOL0     H28436   1.091   8.599   5.870  1.4963 -0.5024  1.0440
  211MOL0     H28437   1.328   8.574   5.745 -1.9070  1.6572 -0.1298
  211MOL0     H28438   1.351   8.411   5.681  0.7962  0.3021 -2.4812
  211MOL0     H28439   1.202   8.625   5.526  0.0144  0.6984  0.8957
  211MOL0     H28440   1.377   8.584   5.520 -1.0260  0.9680 -0.6019
  211MOL0     H28441   1.158   8.431   5.394  0.8162 -1.1116 -0.5287
  211MOL0     H28442   1.281   8.335   5.474 -0.0130 -1.1478 -0.7225
  211MOL0     H28443   1.449   8.488   5.321 -1.0027  2.3386  1.9880
  211MOL0     H28444   1.303   8.539   5.253 -2.7771 -1.5356  0.5326
  211MOL0     H28445   1.088   8.248   5.246 -0.1381  0.7876  0.1287
  211MOL0     H28446   0.936   8.247   5.082  0.2118  1.2252  0.6979
  211MOL0     H28447   0.993   8.063   4.576  0.2655  1.4805  0.3268
  211MOL0     H28448   0.843   8.003   4.389  1.4131 -0.1020 -1.1878
  211MOL0     H28449   0.590   8.305   4.177  0.2402  0.8062 -2.3929
  211MOL0     H28450   0.755   8.306   4.098 -0.5633 -0.7847 -3.3420
  211MOL0     H28451   0.555   8.094   4.058  2.4727 -1.9993  0.8896
  211MOL0     H28452   0.574   8.238   3.953  0.7255  1.3760 -0.8942
  211MOL0     H28453   0.803   8.156   3.900  0.9370 -0.5816  0.0078
  211MOL0     H28454   0.808   8.043   4.030  0.4154 -1.0641  0.3510
  211MOL0     H28455   0.663   8.020   3.764  0.0046  2.3162  0.8427
  211MOL0     H28456   0.608   7.927   3.899 -0.0821 -3.5517 -2.9530
  211MOL0     H28457   0.830   7.826   3.929  1.3688  1.7547 -0.4319
  211MOL0     H28458   0.889   7.932   3.790 -3.2108  2.4456 -1.5257
  211MOL0     H28459   0.692   7.717   3.739 -2.2103 -0.0290 -2.6069
  211MOL0     H28460   0.768   7.821   3.619  2.0416 -0.5618 -0.1219
  211MOL0     H28461   0.891   7.620   3.811  1.3223 -1.0493  0.6745
  211MOL0     H28462   1.002   7.725   3.731  0.0672 -0.1256  2.1555
  211MOL0     H28463   0.784   7.564   3.573  0.3977 -3.3058  3.3751
  211MOL0     H28464   0.914   7.650   3.494  2.0407  0.6626  0.2965
  211MOL0     H28465   0.771   8.428   4.327 -1.8888  1.4717  2.9679
  211MOL0     H28466   0.891   8.471   4.534 -1.6450 -0.3847  1.9332
  211MOL0     H28467   1.243   8.397   4.792  0.3172 -1.2593 -0.5231
  211MOL0     H28468   1.389   8.402   4.976 -0.7562  0.7700 -1.1476
  211MOL0     H28469   0.734   9.336   5.328 -0.5638  0.2360  0.9944
  211MOL0     H28470   0.520   9.336   5.198  0.4626 -2.4251 -1.1375
  211MOL0     H28471   0.220   9.554   4.965 -0.8974  0.3716 -1.9922
  211MOL0     H28472   0.060   9.559   4.806 -0.8069  0.5319  1.2161
  211MOL0     H28473   0.043   9.248   4.697 -0.0789 -0.6368 -2.1986
  211MOL0     H28474  -0.031   9.345   4.572  2.4016 -0.3591  0.9855
  211MOL0     H28475  -0.216   9.207   4.579 -0.6407  3.0827 -0.4337
  211MOL0     H28476  -0.184   9.151   4.746  3.4549 -1.0105  1.1016
  211MOL0     H28477   0.042   9.033   4.644 -0.5366  1.1723  1.7374
  211MOL0     H28478  -0.030   9.067   4.494  1.4072 -0.2561  0.1132
  211MOL0     H28479  -0.241   8.949   4.564  0.4715 -0.3343 -0.6363
  211MOL0     H28480  -0.107   8.836   4.570 -0.8107  0.2929  1.8515
  211MOL0     H28481  -0.214   8.925   4.973  1.3312  4.5988 -0.4326
  211MOL0     H28482  -0.113   9.205   4.974 -1.5653  1.9413 -0.9563
  211MOL0     H28483  -0.066   9.124   5.190 -0.6997  2.0551  3.4690
  211MOL0     H28484   0.106   9.089   5.193  0.9588  0.8047  4.3638
  211MOL0     H28485   0.035   9.217   5.293 -2.6641 -0.1242  1.0557
  212MOL0     O28486   2.731   1.128   4.475 -0.4898 -0.4878  0.0814
  212MOL0     C28487   2.625   1.098   4.535  0.1461 -0.3206  0.3530
  212MOL0     O28488   2.608   1.073   4.673 -0.0091  0.7835  0.1262
  212MOL0     C28489   2.717   1.110   4.746 -0.4189 -0.1789 -0.1226
  212MOL0     C28490   2.805   1.014   4.786  0.4408  0.2152  0.1985
  212MOL0     C28491   2.918   1.048   4.864 -0.1275  1.3130 -0.2034
  212MOL0     C28492   2.948   1.182   4.893 -0.2449 -0.1370  0.1183
  212MOL0     O28493   3.067   1.207   4.947  0.2340 -0.0949 -0.2468
  212MOL0     C28494   3.088   1.332   5.013 -0.1637  0.4383 -0.2029
  212MOL0     C28495   3.183   1.320   5.125 -0.0051 -0.0341  0.0139
  212MOL0     C28496   3.333   1.322   5.084  0.0740 -0.1829 -0.0432
  212MOL0     C28497   3.430   1.374   5.193 -0.2812  0.7155 -0.3093
  212MOL0     C28498   3.565   1.380   5.124  0.0977 -0.2744 -0.0848
  212MOL0     C28499   3.674   1.442   5.210 -0.9860  0.4550  0.5586
  212MOL0     C28500   3.817   1.454   5.137 -0.0252  0.0978 -0.1638
  212MOL0     C28501   3.834   1.571   5.049 -0.4359 -0.3183 -0.7098
  212MOL0     N28502   3.958   1.568   4.979 -1.4310  0.1627 -0.6748
  212MOL0     C28503   4.078   1.629   5.014 -0.2133 -1.1201 -0.6016
  212MOL0     C28504   4.161   1.621   4.910 -0.1313 -0.2721  0.0035
  212MOL0     C28505   4.292   1.697   4.900  0.6274  0.9531  0.9190
  212MOL0     C28506   4.379   1.688   4.780 -0.1361  0.4756 -0.1982
  212MOL0     C28507   4.510   1.765   4.777  0.0194  0.1186  0.2756
  212MOL0     C28508   4.565   1.761   4.632  0.3397  0.6140 -0.4425
  212MOL0     O28509   4.700   1.821   4.640  0.0446  0.5411  0.0461
  212MOL0     C28510   4.806   1.749   4.586 -0.2076 -1.3827 -0.4616
  212MOL0     C28511   4.821   1.618   4.568 -0.0294  0.3591 -0.5878
  212MOL0     C28512   4.943   1.561   4.527  0.4409  0.1773  0.2318
  212MOL0     C28513   5.050   1.639   4.475 -0.3164 -0.8094 -0.2833
  212MOL0     C28514   5.184   1.595   4.439 -0.9520 -0.0072 -1.5057
  212MOL0     O28515   5.279   1.691   4.419  0.8680 -0.0155 -0.4296
  212MOL0     C28516   5.405   1.669   4.386 -0.2144  0.4817 -0.5434
  212MOL0     C28517   5.471   1.754   4.301 -0.0063 -0.1230  0.3124
  212MOL0     C28518   5.614   1.736   4.277  0.4648  0.3166  0.0689
  212MOL0     C28519   5.691   1.640   4.344  0.4388  0.0629  0.3140
  212MOL0     O28520   5.828   1.649   4.331 -0.0090 -0.0689 -0.1966
  212MOL0     C28521   5.921   1.570   4.407  0.5932 -0.1014 -0.2980
  212MOL0     C28522   6.056   1.631   4.374 -0.4944  0.0285 -0.1810
  212MOL0     C28523   6.176   1.543   4.428 -0.8485  0.0670 -0.1947
  212MOL0     C28524   6.308   1.591   4.357  0.8558  0.0557  0.4965
  212MOL0     C28525   6.345   1.740   4.384 -0.2211  0.1952 -0.0793
  212MOL0     C28526   6.486   1.756   4.318  0.6652 -0.0162  0.0715
  212MOL0     C28527   6.551   1.901   4.362 -0.5926  0.5221  0.4831
  212MOL0     C28528   6.683   1.922   4.279 -0.7303  0.0810 -0.3712
  212MOL0    Cl28529   6.738   2.087   4.312  0.3257  0.1760 -0.0230
  212MOL0     C28530   5.627   1.566   4.449  0.6934 -0.5946  0.0586
  212MOL0     C28531   5.484   1.578   4.459  0.3166  0.4414 -0.0717
  212MOL0     O28532   5.209   1.477   4.426  0.7459 -0.0861  0.6013
  212MOL0     C28533   5.028   1.772   4.495  0.5857 -0.5716 -0.1402
  212MOL0     C28534   4.913   1.822   4.552  0.1388 -0.4569  0.1416
  212MOL0     N28535   4.099   1.535   4.818  0.6527  0.2550 -0.0722
  212MOL0     N28536   3.978   1.497   4.866  0.2461  0.1009  0.9464
  212MOL0     C28537   2.855   1.281   4.840  0.2826  0.5857 -0.5559
  212MOL0     C28538   2.745   1.241   4.765  0.3625  0.4805  0.8431
  212MOL0     C28539   2.501   1.106   4.454  0.8358  1.2889  0.1516
  212MOL0     C28540   2.385   1.131   4.517 -0.2868  0.0576  0.1851
  212MOL0     C28541   2.261   1.114   4.452  0.2746  0.0866 -0.5206
  212MOL0     C28542   2.263   1.089   4.314  0.0889 -0.6435  0.3075
  212MOL0     O28543   2.158   1.102   4.238 -0.1745  0.9573  0.2877
  212MOL0     C28544   2.033   1.162   4.287 -0.3190 -0.3077 -0.2242
  212MOL0     C28545   1.919   1.064   4.314  0.3675 -0.6702  1.0908
  212MOL0     C28546   1.775   1.120   4.284 -0.2739 -0.7890  0.1091
  212MOL0     C28547   1.670   1.011   4.315 -0.7707  0.5084  0.0782
  212MOL0     C28548   1.534   1.049   4.270  0.5504  0.0277  0.5854
  212MOL0     C28549   1.427   1.083   4.240 -1.3757 -1.3150 -0.8125
  212MOL0     C28550   2.379   1.066   4.246 -0.2166  0.5084 -0.1572
  212MOL0     C28551   2.501   1.060   4.315  1.0469 -1.5474 -0.1091
  212MOL0     C28552   2.624   1.009   4.243  0.5111 -0.2578 -0.1364
  212MOL0     H28553   2.794   0.911   4.753 -2.0808  1.1787 -2.3192
  212MOL0     H28554   2.993   0.984   4.910 -1.4542  2.1008  3.3887
  212MOL0     H28555   3.131   1.404   4.942 -1.2985 -1.3191 -2.8197
  212MOL0     H28556   2.990   1.371   5.040 -1.4697 -2.7802  0.1415
  212MOL0     H28557   3.160   1.226   5.176  0.1777 -0.2019 -0.2101
  212MOL0     H28558   3.171   1.400   5.199  0.1441  0.6995 -0.7441
  212MOL0     H28559   3.334   1.398   5.005 -1.6294  2.0998  1.9748
  212MOL0     H28560   3.369   1.229   5.039  2.2504  0.6398 -0.1192
  212MOL0     H28561   3.410   1.476   5.226  1.8597  1.5419 -1.3655
  212MOL0     H28562   3.426   1.307   5.280 -2.4543  1.7414  0.4554
  212MOL0     H28563   3.593   1.279   5.092 -0.6262 -0.1566 -1.1535
  212MOL0     H28564   3.561   1.443   5.034  0.3316  1.1932  0.9027
  212MOL0     H28565   3.654   1.547   5.232 -0.5394  0.3744  1.3894
  212MOL0     H28566   3.687   1.383   5.301  1.5800 -0.6437 -0.4211
  212MOL0     H28567   3.832   1.364   5.076  0.7583  0.2409 -0.1930
  212MOL0     H28568   3.902   1.461   5.206 -0.3141  0.0530  0.2027
  212MOL0     H28569   3.751   1.584   4.980 -1.2578  0.7340  0.4290
  212MOL0     H28570   3.836   1.663   5.109  1.2688  0.5781 -2.0257
  212MOL0     H28571   4.096   1.686   5.105 -2.1252  0.1878 -0.9696
  212MOL0     H28572   4.279   1.800   4.937 -1.5032  0.4683  1.6263
  212MOL0     H28573   4.366   1.653   4.968  3.7082  4.9529  0.6038
  212MOL0     H28574   4.401   1.583   4.763  0.9284  0.4646  1.0857
  212MOL0     H28575   4.313   1.720   4.699 -1.6102 -0.9670  0.3895
  212MOL0     H28576   4.573   1.725   4.857 -0.5673 -0.4918  0.4455
  212MOL0     H28577   4.476   1.865   4.805 -3.5970 -0.2951 -2.0891
  212MOL0     H28578   4.516   1.818   4.553 -1.1220 -1.3454 -1.0128
  212MOL0     H28579   4.576   1.656   4.603 -2.0298 -0.5689  2.4206
  212MOL0     H28580   4.744   1.545   4.592 -0.8477 -0.9271 -5.8505
  212MOL0     H28581   4.965   1.455   4.530  2.2320  0.2372 -3.8178
  212MOL0     H28582   5.413   1.828   4.247 -2.0177 -0.2482  2.1548
  212MOL0     H28583   5.671   1.808   4.219  3.1009  2.2213  4.5286
  212MOL0     H28584   5.892   1.588   4.511 -3.1112 -0.9509 -1.0213
  212MOL0     H28585   5.927   1.463   4.386  3.1753 -0.4505  1.7709
  212MOL0     H28586   6.057   1.653   4.267  1.4742 -2.0632 -0.6758
  212MOL0     H28587   6.064   1.729   4.423 -3.2961 -0.2617  1.0512
  212MOL0     H28588   6.183   1.563   4.535 -1.4879 -1.0927  0.0807
  212MOL0     H28589   6.154   1.439   4.402  0.3364  0.6459 -4.1766
  212MOL0     H28590   6.286   1.582   4.250 -1.5230  1.1395  0.8240
  212MOL0     H28591   6.387   1.521   4.382 -0.2597 -1.1529  0.7664
  212MOL0     H28592   6.350   1.773   4.488 -0.0462  3.3737 -1.0104
  212MOL0     H28593   6.268   1.797   4.331 -1.8039 -0.8352  1.0370
  212MOL0     H28594   6.545   1.673   4.356  1.3196  1.1502  1.7374
  212MOL0     H28595   6.471   1.755   4.209 -0.1936  2.3928  0.0883
  212MOL0     H28596   6.579   1.901   4.468  3.1222  1.6999 -0.3588
  212MOL0     H28597   6.478   1.981   4.346  0.1178  0.8146 -1.5103
  212MOL0     H28598   6.761   1.854   4.316 -3.5567 -2.8321  0.7865
  212MOL0     H28599   6.663   1.910   4.172  1.3381 -1.3603 -0.6605
  212MOL0     H28600   5.675   1.511   4.530  0.7180  1.1451  1.2827
  212MOL0     H28601   5.439   1.520   4.539 -0.8306  0.4129 -0.7088
  212MOL0     H28602   5.111   1.839   4.477  1.0687 -0.7889  1.2070
  212MOL0     H28603   4.911   1.929   4.571 -1.5941 -0.2789 -0.8077
  212MOL0     H28604   2.872   1.387   4.848  1.5209  0.3208  0.9336
  212MOL0     H28605   2.684   1.311   4.708  1.8942  1.3382  0.2054
  212MOL0     H28606   2.386   1.154   4.623  0.4477  1.1316 -0.0473
  212MOL0     H28607   2.166   1.134   4.501  0.1971 -1.4655  0.0070
  212MOL0     H28608   1.990   1.227   4.210 -0.3428  0.3167  0.3106
  212MOL0     H28609   2.045   1.224   4.376  2.0978 -0.7461 -0.1836
  212MOL0     H28610   1.916   1.022   4.415 -0.3421 -1.5069  0.7340
  212MOL0     H28611   1.932   0.982   4.243 -0.5955  0.1637 -0.1065
  212MOL0     H28612   1.776   1.155   4.181  0.8409 -0.1826  0.3051
  212MOL0     H28613   1.763   1.209   4.346 -0.7328  0.1235 -1.2564
  212MOL0     H28614   1.689   0.914   4.268 -2.3542  0.1491  0.0898
  212MOL0     H28615   1.679   0.997   4.423  1.5544 -0.0969 -0.1551
  212MOL0     H28616   1.331   1.124   4.216 -0.7690  0.7001 -0.0612
  212MOL0     H28617   2.381   1.037   4.142  2.4397  0.4149 -0.1457
  212MOL0     H28618   2.702   1.083   4.224 -0.2490  0.5082 -0.3196
  212MOL0     H28619   2.666   0.930   4.307  1.8113  1.7886  1.6686
  212MOL0     H28620   2.594   0.963   4.149 -3.4188 -0.7531  1.1901
  213MOL0     O28621   4.845   2.615   3.748  0.5154 -0.1145 -0.0525
  213MOL0     C28622   4.789   2.706   3.679 -0.0642  0.0822  0.1735
  213MOL0     O28623   4.849   2.817   3.638 -0.0055  0.0797 -0.5546
  213MOL0     C28624   4.981   2.815   3.663  0.5047 -0.0941  0.8625
  213MOL0     C28625   5.032   2.912   3.749  0.4135  0.8338 -0.2639
  213MOL0     C28626   5.176   2.924   3.770 -0.0723 -0.3107  0.2953
  213MOL0     C28627   5.262   2.846   3.695  0.2468  0.5868  0.1748
  213MOL0     O28628   5.402   2.831   3.697 -0.3658 -0.3781 -0.2705
  213MOL0     C28629   5.472   2.954   3.737 -1.0242  0.1857  0.2973
  213MOL0     C28630   5.567   2.915   3.849  0.1856  0.3994  0.2377
  213MOL0     C28631   5.496   2.863   3.971 -0.1758 -0.1469  0.1789
  213MOL0     C28632   5.587   2.822   4.086 -0.6920 -0.3532  0.1746
  213MOL0     C28633   5.515   2.778   4.204  1.0460  1.0320  0.1721
  213MOL0     C28634   5.606   2.758   4.333 -1.8477  0.1095  0.8536
  213MOL0     C28635   5.686   2.622   4.311  0.0113 -1.0197  0.6811
  213MOL0     C28636   5.805   2.613   4.408  0.3968 -0.3819  0.6743
  213MOL0     N28637   5.931   2.679   4.365  0.6412  0.1760  0.2480
  213MOL0     C28638   5.979   2.662   4.239  0.3518  0.6003  0.2113
  213MOL0     C28639   6.100   2.720   4.228  0.3638  0.4470  0.1279
  213MOL0     C28640   6.166   2.713   4.090 -1.2329  0.7474 -0.6587
  213MOL0     C28641   6.316   2.694   4.087 -0.6435  0.1305  0.2068
  213MOL0     C28642   6.371   2.710   3.946 -0.2142 -0.4547  0.8497
  213MOL0     C28643   6.513   2.674   3.940  0.0482 -0.2665 -0.9195
  213MOL0     O28644   6.558   2.688   3.804 -0.9398 -0.0095  0.0863
  213MOL0     C28645   6.689   2.680   3.776 -0.8855 -0.6109  1.0931
  213MOL0     C28646   6.796   2.649   3.865  0.1928  0.9341  0.3241
  213MOL0     C28647   6.930   2.652   3.823  1.0089 -0.2145  0.1901
  213MOL0     C28648   6.964   2.672   3.687 -0.0724 -0.6647  0.4524
  213MOL0     C28649   7.108   2.657   3.649  0.3593 -0.2627  0.5834
  213MOL0     O28650   7.134   2.681   3.512 -0.2548  0.3261 -0.1473
  213MOL0     C28651   7.259   2.648   3.470 -0.2760 -0.7813  0.0246
  213MOL0     C28652   7.360   2.750   3.461 -0.5474 -0.1556  0.0285
  213MOL0     C28653   7.479   2.723   3.393  0.2656 -0.4414 -0.4117
  213MOL0     C28654   7.496   2.612   3.312  0.1899 -1.0745 -1.0266
  213MOL0     O28655   7.621   2.598   3.255  0.3188 -0.8677  0.8570
  213MOL0     C28656   7.709   2.527   3.340 -0.1572 -0.8250 -0.2848
  213MOL0     C28657   7.788   2.617   3.440 -0.5656  0.7285 -0.2449
  213MOL0     C28658   7.861   2.740   3.375  0.1480 -0.3828 -0.0253
  213MOL0     C28659   7.958   2.799   3.474 -0.0831 -0.4834  0.2931
  213MOL0     C28660   8.011   2.937   3.428 -0.7739  0.1873 -0.1767
  213MOL0     C28661   8.135   2.985   3.502 -1.5115 -0.2000 -0.1201
  213MOL0     C28662   8.266   2.934   3.449 -1.0445 -0.0133 -0.1154
  213MOL0     C28663   8.386   2.979   3.533 -0.2648 -0.7306 -0.3865
  213MOL0    Cl28664   8.540   2.923   3.461  0.1869 -0.3969 -0.7418
  213MOL0     C28665   7.398   2.512   3.325 -0.1626  0.2523 -0.2176
  213MOL0     C28666   7.291   2.528   3.405  0.5415 -0.1148 -0.1986
  213MOL0     O28667   7.189   2.619   3.741  0.0562 -0.2199 -0.3900
  213MOL0     C28668   6.859   2.711   3.598 -0.0313  0.0764  0.4500
  213MOL0     C28669   6.725   2.718   3.645  0.0095 -0.0574 -0.3979
  213MOL0     N28670   6.127   2.769   4.346  0.1010  0.3761 -0.5725
  213MOL0     N28671   6.029   2.741   4.431 -0.0413 -0.3197 -0.5977
  213MOL0     C28672   5.210   2.748   3.615  0.6769 -0.3764  0.2683
  213MOL0     C28673   5.076   2.729   3.598  0.7909  0.6180  0.5392
  213MOL0     C28674   4.636   2.698   3.667 -0.2038  0.7047 -1.2876
  213MOL0     C28675   4.572   2.815   3.619 -0.7914 -0.0382  0.4645
  213MOL0     C28676   4.438   2.829   3.605 -0.9938 -1.0983 -0.3177
  213MOL0     C28677   4.366   2.718   3.623 -0.2919  0.0862 -1.3766
  213MOL0     O28678   4.236   2.744   3.591 -0.4143  0.4170  0.3629
  213MOL0     C28679   4.135   2.659   3.646  0.0006 -0.4191 -0.3303
  213MOL0     C28680   4.013   2.742   3.678  1.3326  0.0754  0.1211
  213MOL0     C28681   3.892   2.662   3.718  0.0272 -0.9084  0.6196
  213MOL0     C28682   3.750   2.725   3.674 -0.3679  0.1981 -0.8890
  213MOL0     C28683   3.726   2.732   3.526  0.4986 -0.3004  0.1942
  213MOL0     C28684   3.718   2.717   3.401 -0.6177  0.3106  0.1987
  213MOL0     C28685   4.423   2.598   3.657  0.2213  0.0927  0.3403
  213MOL0     C28686   4.558   2.580   3.688  0.1132 -1.1815  0.4922
  213MOL0     C28687   4.614   2.451   3.731 -0.4212  0.5440  0.3304
  213MOL0     H28688   4.960   2.974   3.800 -0.3055  0.9192 -1.3576
  213MOL0     H28689   5.211   3.000   3.839 -1.0382  2.5108 -2.1349
  213MOL0     H28690   5.525   2.997   3.651 -1.2414  0.7936  0.4587
  213MOL0     H28691   5.416   3.037   3.782  0.9197  0.5769  2.1617
  213MOL0     H28692   5.621   3.001   3.888 -0.5215  0.9139  0.1044
  213MOL0     H28693   5.640   2.841   3.814 -0.0503  0.5065 -0.5145
  213MOL0     H28694   5.440   2.777   3.933  0.5050 -0.5960  0.1695
  213MOL0     H28695   5.426   2.937   4.011 -2.4073 -2.3130  0.4532
  213MOL0     H28696   5.667   2.758   4.048  1.0883  1.7567  0.1776
  213MOL0     H28697   5.641   2.912   4.116  0.7680 -1.5007  1.1522
  213MOL0     H28698   5.439   2.853   4.226 -1.4226 -0.0847 -3.5590
  213MOL0     H28699   5.454   2.690   4.180 -0.1180  2.3951 -2.2221
  213MOL0     H28700   5.666   2.847   4.354 -3.8222  2.3134 -2.0985
  213MOL0     H28701   5.551   2.741   4.426  1.0367 -2.5542  2.2832
  213MOL0     H28702   5.716   2.609   4.207 -1.5797 -1.2270  0.2279
  213MOL0     H28703   5.614   2.543   4.337 -2.5803  0.5892 -1.1948
  213MOL0     H28704   5.773   2.640   4.508 -1.4068 -2.4856  0.7239
  213MOL0     H28705   5.836   2.508   4.414  1.6405 -0.1642 -0.9522
  213MOL0     H28706   5.919   2.622   4.158  2.0599  1.6132 -1.6389
  213MOL0     H28707   6.120   2.632   4.034  0.3183 -1.8402  1.5711
  213MOL0     H28708   6.152   2.812   4.044  0.1436  1.7055  0.8445
  213MOL0     H28709   6.363   2.775   4.145  0.3523 -1.1137  1.1959
  213MOL0     H28710   6.343   2.598   4.132  1.3947 -0.2130 -1.6186
  213MOL0     H28711   6.361   2.815   3.918  0.2874 -1.5466 -4.6314
  213MOL0     H28712   6.320   2.647   3.872  0.6980  2.0651 -2.1424
  213MOL0     H28713   6.530   2.577   3.987  0.6027  1.0036  1.6971
  213MOL0     H28714   6.566   2.752   3.996 -0.0891 -0.0458 -1.0926
  213MOL0     H28715   6.771   2.621   3.966  0.1687 -2.1829 -0.4482
  213MOL0     H28716   7.013   2.630   3.889  2.3971  0.2025 -1.3348
  213MOL0     H28717   7.351   2.848   3.506 -0.5490 -0.9152  1.7821
  213MOL0     H28718   7.567   2.785   3.388  2.0682 -2.9277 -2.0774
  213MOL0     H28719   7.649   2.459   3.401 -2.3743  2.2018  1.1463
  213MOL0     H28720   7.782   2.468   3.284 -0.1324 -1.0610 -0.0053
  213MOL0     H28721   7.727   2.643   3.527 -1.1722 -3.9822  1.0153
  213MOL0     H28722   7.868   2.559   3.488 -1.6455  1.6207  2.8975
  213MOL0     H28723   7.919   2.714   3.286 -1.5269 -2.8834 -0.4999
  213MOL0     H28724   7.789   2.817   3.345  0.2529 -1.1325 -2.4101
  213MOL0     H28725   8.037   2.725   3.488 -0.8030 -1.1734  0.8223
  213MOL0     H28726   7.915   2.829   3.570 -2.1850 -0.3024 -0.6588
  213MOL0     H28727   7.934   3.013   3.446 -0.0294  1.2353 -1.2291
  213MOL0     H28728   8.033   2.942   3.321  0.9420  0.3983  0.1666
  213MOL0     H28729   8.134   3.095   3.502  2.2175  0.0462  2.5400
  213MOL0     H28730   8.113   2.948   3.603 -1.4082 -0.2200 -0.1043
  213MOL0     H28731   8.274   2.976   3.348 -0.3157  1.2851  0.4556
  213MOL0     H28732   8.267   2.825   3.442 -0.3483  0.0546 -1.6477
  213MOL0     H28733   8.398   3.087   3.545  1.2494 -0.7327 -1.5157
  213MOL0     H28734   8.389   2.926   3.628  2.0358 -4.5870 -2.3694
  213MOL0     H28735   7.420   2.415   3.282 -4.4929 -1.5276  1.0158
  213MOL0     H28736   7.224   2.443   3.416  0.2656  0.2622  1.3774
  213MOL0     H28737   6.880   2.740   3.496 -1.1447  0.8308  0.4200
  213MOL0     H28738   6.651   2.751   3.573 -3.6876  0.2871  3.1989
  213MOL0     H28739   5.276   2.681   3.562 -1.0003 -2.0597  0.1966
  213MOL0     H28740   5.031   2.664   3.523  0.3521 -0.5464  1.7713
  213MOL0     H28741   4.624   2.906   3.592 -1.7905  1.1287  2.2617
  213MOL0     H28742   4.401   2.927   3.575 -1.0972 -1.6962 -2.2271
  213MOL0     H28743   4.168   2.618   3.742  2.3865  4.0832  1.0231
  213MOL0     H28744   4.110   2.591   3.564 -2.7858  0.8303 -0.6338
  213MOL0     H28745   3.987   2.791   3.584  0.3306 -0.1745  0.2616
  213MOL0     H28746   4.033   2.823   3.749 -1.5066 -0.3845  1.5827
  213MOL0     H28747   3.891   2.649   3.826 -1.8796  0.1918  0.7736
  213MOL0     H28748   3.893   2.560   3.678 -2.3691 -1.6138  2.1688
  213MOL0     H28749   3.678   2.658   3.721  2.7220 -3.0955 -0.4003
  213MOL0     H28750   3.740   2.822   3.725  0.8527  0.6106 -1.3909
  213MOL0     H28751   3.739   2.696   3.298  1.8522  2.0218  0.2619
  213MOL0     H28752   4.363   2.508   3.666  2.3832 -1.4029  0.4714
  213MOL0     H28753   4.696   2.421   3.665 -1.4262 -3.2807  0.5752
  213MOL0     H28754   4.663   2.454   3.829  3.3673 -1.1884 -1.3067
  213MOL0     H28755   4.536   2.376   3.714 -0.6730  0.9234 -0.1998
  214MOL0     O28756   8.265   9.035   9.513  0.5237 -0.4946  0.7130
  214MOL0     C28757   8.244   8.935   9.445 -0.6399  0.5734 -0.2040
  214MOL0     O28758   8.328   8.825   9.432 -0.0182 -0.2361 -0.1825
  214MOL0     C28759   8.453   8.857   9.491  1.1417 -0.8015  0.1002
  214MOL0     C28760   8.554   8.917   9.420 -0.8881 -0.1520  1.3984
  214MOL0     C28761   8.678   8.950   9.472 -0.5564  0.0899 -0.5301
  214MOL0     C28762   8.711   8.925   9.606 -0.6304 -0.0278  0.4253
  214MOL0     O28763   8.832   8.969   9.654  0.1680 -0.3401 -0.1480
  214MOL0     C28764   8.851   9.110   9.685  0.5952 -0.5689  0.2523
  214MOL0     C28765   9.002   9.141   9.685  1.2666 -0.2053  0.3414
  214MOL0     C28766   9.048   9.273   9.629 -0.6396  0.6302  0.0678
  214MOL0     C28767   9.063   9.255   9.474 -0.4618  0.8188 -0.0864
  214MOL0     C28768   9.102   9.376   9.396  0.2488  0.1298  0.1567
  214MOL0     C28769   9.241   9.445   9.414  0.7735  0.3743  0.9453
  214MOL0     C28770   9.355   9.354   9.396 -0.3489 -0.4451  0.0756
  214MOL0     C28771   9.467   9.453   9.412 -0.2915  0.8274 -0.2595
  214MOL0     N28772   9.588   9.386   9.363 -0.9247 -0.4920  0.5676
  214MOL0     C28773   9.619   9.375   9.236 -0.1308 -0.0883  0.0438
  214MOL0     C28774   9.725   9.287   9.237  0.1089  0.2838 -0.7344
  214MOL0     C28775   9.813   9.240   9.117  0.1464 -0.0726  0.3832
  214MOL0     C28776   9.858   9.352   9.042  0.5295 -1.0379  0.1950
  214MOL0     C28777   9.967   9.311   8.942  0.1928  0.1697 -0.0232
  214MOL0     C28778  10.071   9.426   8.925 -0.1055 -0.2197  0.2600
  214MOL0     O28779  10.138   9.468   9.038 -0.0771  0.0378 -0.2242
  214MOL0     C28780  10.219   9.379   9.116 -0.5640 -0.4636  0.7834
  214MOL0     C28781  10.250   9.426   9.240 -0.4206  0.2222  0.1301
  214MOL0     C28782  10.348   9.365   9.323  0.1872 -0.1037  0.1493
  214MOL0     C28783  10.432   9.265   9.255  1.2950  0.5556 -0.6051
  214MOL0     C28784  10.565   9.231   9.320  0.3923 -0.4298  0.2020
  214MOL0     O28785  10.590   9.303   9.432  0.6132 -0.7616 -0.1570
  214MOL0     C28786  10.694   9.275   9.512 -0.0633 -1.2680  0.5876
  214MOL0     C28787  10.679   9.255   9.647 -1.5049  0.3055  1.3900
  214MOL0     C28788  10.796   9.212   9.717 -0.3380 -0.3158  0.6819
  214MOL0     C28789  10.925   9.226   9.668 -0.1242  0.1932  1.2458
  214MOL0     O28790  11.041   9.194   9.743 -0.4067 -0.0302  0.3796
  214MOL0     C28791  11.153   9.270   9.710 -0.3267 -0.6611 -0.3437
  214MOL0     C28792  11.141   9.427   9.737 -0.0842  0.4619 -0.3461
  214MOL0     C28793  11.277   9.499   9.760  0.8851  0.8416  0.3921
  214MOL0     C28794  11.264   9.644   9.775 -0.1434  0.2427 -0.2558
  214MOL0     C28795  11.384   9.718   9.831 -0.0696  1.0019  0.1546
  214MOL0     C28796  11.348   9.862   9.841 -0.2191  0.4882 -0.4824
  214MOL0     C28797  11.476   9.934   9.817 -0.9753  0.0232  0.7441
  214MOL0     C28798  11.463  10.089   9.845  0.6800 -0.5949  0.2154
  214MOL0    Cl28799  11.491  10.118  10.017 -0.1826  0.0031  0.0644
  214MOL0     C28800  10.931   9.265   9.538 -0.8257  0.9498 -0.3489
  214MOL0     C28801  10.822   9.283   9.454 -0.0169 -0.9120 -0.0302
  214MOL0     O28802  10.647   9.158   9.266 -0.1876  0.3832 -0.6583
  214MOL0     C28803  10.388   9.211   9.135 -0.8386  0.2195  0.8478
  214MOL0     C28804  10.277   9.265   9.062 -0.8387 -0.3186 -0.3578
  214MOL0     N28805   9.754   9.271   9.372  0.0122 -0.5326  0.4666
  214MOL0     N28806   9.675   9.331   9.444 -0.9966  0.0542 -0.6086
  214MOL0     C28807   8.619   8.862   9.680 -0.6816  0.5197 -0.1823
  214MOL0     C28808   8.496   8.823   9.619  1.2711 -0.9119 -0.3454
  214MOL0     C28809   8.109   8.921   9.384 -0.2816 -0.3057 -0.4191
  214MOL0     C28810   8.107   8.842   9.260  0.0587  0.0773 -0.6992
  214MOL0     C28811   7.984   8.834   9.188 -0.9791 -1.2747  0.2548
  214MOL0     C28812   7.866   8.903   9.229 -1.7412 -0.4258 -0.3549
  214MOL0     O28813   7.750   8.875   9.159  0.5037  0.4957 -0.3448
  214MOL0     C28814   7.633   8.958   9.166 -0.5951  0.0221  0.5974
  214MOL0     C28815   7.555   8.933   9.042  0.4024 -0.3492 -0.3002
  214MOL0     C28816   7.440   9.042   9.027 -0.1901  1.0861  0.3260
  214MOL0     C28817   7.382   9.006   8.891 -0.8040 -0.3901  0.2680
  214MOL0     C28818   7.267   9.094   8.860 -0.3541  0.6075  1.1513
  214MOL0     C28819   7.167   9.148   8.814 -0.1127 -0.3047  0.3141
  214MOL0     C28820   7.872   8.980   9.344  0.1067 -0.0677 -1.0264
  214MOL0     C28821   7.991   8.993   9.419  1.2089 -0.1140  0.6497
  214MOL0     C28822   7.974   9.079   9.541 -0.7392 -0.5537  0.1727
  214MOL0     H28823   8.528   8.944   9.318  0.6839  1.0074  1.2723
  214MOL0     H28824   8.740   9.018   9.415  2.9100 -3.3633 -1.2179
  214MOL0     H28825   8.807   9.167   9.604  2.0136 -1.4802 -1.2186
  214MOL0     H28826   8.812   9.120   9.787  3.2924  0.3678  1.2905
  214MOL0     H28827   9.053   9.056   9.638 -0.3420 -0.8329 -0.3402
  214MOL0     H28828   9.040   9.136   9.787 -0.3591  2.9656  1.2194
  214MOL0     H28829   9.138   9.306   9.682 -0.3270  3.9646 -2.2470
  214MOL0     H28830   8.973   9.350   9.651 -0.5155  0.9285 -0.5257
  214MOL0     H28831   9.145   9.183   9.462  0.6910  2.2537 -1.1757
  214MOL0     H28832   8.974   9.201   9.440 -0.0725 -2.2893  3.1848
  214MOL0     H28833   9.087   9.345   9.292 -0.1794 -1.3986  0.6473
  214MOL0     H28834   9.037   9.460   9.421  2.8224  1.5500  2.6169
  214MOL0     H28835   9.250   9.539   9.359  1.4579  0.1337  0.6394
  214MOL0     H28836   9.242   9.467   9.521  1.5549 -0.3039  1.0767
  214MOL0     H28837   9.350   9.311   9.295  0.9591 -1.4295  0.4036
  214MOL0     H28838   9.357   9.281   9.478  1.1842  1.6658  2.0436
  214MOL0     H28839   9.453   9.544   9.353 -3.2787 -0.5754 -1.9319
  214MOL0     H28840   9.489   9.481   9.515  1.2843  1.7945 -0.8057
  214MOL0     H28841   9.573   9.424   9.151  2.0844  2.7932  0.3462
  214MOL0     H28842   9.901   9.180   9.144  0.2540 -0.2197 -0.2894
  214MOL0     H28843   9.745   9.183   9.054 -1.7605 -0.3911  2.5917
  214MOL0     H28844   9.777   9.404   8.990 -1.7887 -1.2117  3.3503
  214MOL0     H28845   9.892   9.421   9.119  1.2861 -1.9527  0.6959
  214MOL0     H28846   9.923   9.275   8.848 -0.8073  0.6097  0.2625
  214MOL0     H28847  10.026   9.229   8.984 -0.3927  0.8668  2.2625
  214MOL0     H28848  10.025   9.513   8.876 -0.4351 -0.8939 -0.6400
  214MOL0     H28849  10.142   9.388   8.852 -0.9233 -1.5434  0.1200
  214MOL0     H28850  10.192   9.505   9.288 -1.5593 -1.2394  1.2488
  214MOL0     H28851  10.371   9.404   9.421  2.0471 -0.4167 -0.1248
  214MOL0     H28852  10.580   9.259   9.691 -1.7801  0.8119  0.7468
  214MOL0     H28853  10.792   9.184   9.822  1.8773 -1.4355  0.5246
  214MOL0     H28854  11.239   9.230   9.765  1.3287  1.9912 -0.8106
  214MOL0     H28855  11.181   9.266   9.605 -1.3133  2.7482 -0.8505
  214MOL0     H28856  11.085   9.477   9.657 -3.0242 -1.5041  0.3594
  214MOL0     H28857  11.078   9.428   9.826  0.5686 -1.6686  0.1848
  214MOL0     H28858  11.314   9.449   9.850  0.8910  2.7274  1.4795
  214MOL0     H28859  11.335   9.460   9.676 -1.7207 -2.5437 -0.0723
  214MOL0     H28860  11.186   9.654   9.851 -1.8730 -0.5826 -1.8445
  214MOL0     H28861  11.227   9.684   9.680 -0.8299  0.9769  0.3054
  214MOL0     H28862  11.459   9.697   9.754 -1.1606  1.1007 -0.9487
  214MOL0     H28863  11.433   9.681   9.922  1.0326  1.8802 -0.0627
  214MOL0     H28864  11.272   9.904   9.775 -1.4878 -0.2440  0.4504
  214MOL0     H28865  11.303   9.873   9.941 -0.2123 -1.5045 -0.2095
  214MOL0     H28866  11.515   9.918   9.716 -2.0610 -0.0010  0.3149
  214MOL0     H28867  11.546   9.890   9.889  1.4126  0.0560 -1.4470
  214MOL0     H28868  11.541  10.140   9.786  0.9478 -1.0777  0.1452
  214MOL0     H28869  11.364  10.124   9.814  0.7451  0.3315  1.0009
  214MOL0     H28870  11.024   9.269   9.482 -0.3795 -0.5861  0.2293
  214MOL0     H28871  10.843   9.299   9.348 -0.6698 -2.1408 -0.3669
  214MOL0     H28872  10.441   9.149   9.064 -0.0123  1.6035  0.2027
  214MOL0     H28873  10.259   9.232   8.960 -0.1128  0.6372 -0.8116
  214MOL0     H28874   8.641   8.839   9.784  1.7193  1.7044 -0.3640
  214MOL0     H28875   8.423   8.793   9.693  0.2867  1.8328 -0.0704
  214MOL0     H28876   8.192   8.785   9.223  0.5392  0.4139 -0.1297
  214MOL0     H28877   7.972   8.750   9.120 -0.8938 -2.9191  2.1858
  214MOL0     H28878   7.674   9.059   9.168  2.7672 -1.0972 -2.0628
  214MOL0     H28879   7.570   8.940   9.254 -0.8460 -1.1982  0.1850
  214MOL0     H28880   7.523   8.829   9.045  6.3853 -2.6096 -1.1843
  214MOL0     H28881   7.615   8.948   8.952 -0.0919 -1.7635 -0.8914
  214MOL0     H28882   7.478   9.144   9.025 -1.9059  1.7476 -0.1710
  214MOL0     H28883   7.370   9.022   9.109 -0.8149  0.5146 -0.3251
  214MOL0     H28884   7.464   9.016   8.820 -2.3852 -2.1356 -1.9204
  214MOL0     H28885   7.330   8.910   8.886 -0.3284 -0.5877 -2.6074
  214MOL0     H28886   7.081   9.203   8.784  0.2952  0.3567  0.3341
  214MOL0     H28887   7.780   9.034   9.364 -0.2967 -0.6355 -1.3229
  214MOL0     H28888   7.866   9.096   9.551 -0.8701 -1.1752 -0.1099
  214MOL0     H28889   7.994   9.026   9.635  0.3774  2.5382  1.8400
  214MOL0     H28890   8.022   9.177   9.543  0.3760 -1.0836  0.0561
  215MOL0     O28891   4.848   1.488   8.396 -0.1660 -0.5224 -0.6263
  215MOL0     C28892   4.896   1.405   8.323 -0.3218  0.2501  0.9037
  215MOL0     O28893   4.820   1.302   8.275 -0.3759 -0.3963  0.4441
  215MOL0     C28894   4.688   1.302   8.263 -0.1195 -0.4238 -0.7690
  215MOL0     C28895   4.624   1.200   8.326  0.0091  0.5154  0.6396
  215MOL0     C28896   4.484   1.192   8.331 -0.3132 -0.6466 -0.1717
  215MOL0     C28897   4.408   1.303   8.282  0.2244  0.1788 -0.1857
  215MOL0     O28898   4.260   1.309   8.296 -0.0111 -0.0503 -0.2501
  215MOL0     C28899   4.175   1.201   8.283 -1.1125  1.8946  0.8812
  215MOL0     C28900   4.036   1.252   8.223  0.0051 -0.8152  0.7502
  215MOL0     C28901   4.053   1.316   8.084  0.1568 -0.6035 -0.4156
  215MOL0     C28902   3.917   1.374   8.039 -0.6226 -0.3896  0.2864
  215MOL0     C28903   3.864   1.482   8.133 -1.0980 -0.2698 -0.0542
  215MOL0     C28904   3.744   1.548   8.064  0.0209 -0.0033 -0.0232
  215MOL0     C28905   3.615   1.465   8.037 -0.0330  0.3679  0.7642
  215MOL0     C28906   3.484   1.536   8.076 -0.5107  0.1993  0.2984
  215MOL0     N28907   3.365   1.447   8.059 -0.5030  0.5343  0.5672
  215MOL0     C28908   3.313   1.373   8.163  0.3232  0.3213 -0.1724
  215MOL0     C28909   3.205   1.313   8.108 -0.5252  0.2323 -0.0386
  215MOL0     C28910   3.121   1.220   8.190  0.8964  0.7531  0.0497
  215MOL0     C28911   3.074   1.082   8.129 -0.6047  0.4783  0.8783
  215MOL0     C28912   2.960   1.116   8.021 -0.3245  0.2567 -0.1239
  215MOL0     C28913   2.859   1.005   8.008 -0.4165 -0.4323 -0.8842
  215MOL0     O28914   2.737   1.052   7.956 -0.2101 -0.6218  0.4948
  215MOL0     C28915   2.735   1.100   7.824 -0.1413  0.1005 -0.1433
  215MOL0     C28916   2.627   1.192   7.806  0.3353  0.0147 -0.1728
  215MOL0     C28917   2.605   1.233   7.678 -0.3216 -0.4276  0.4099
  215MOL0     C28918   2.684   1.202   7.566  0.6962  1.1427  0.2114
  215MOL0     C28919   2.659   1.250   7.433 -1.0591  1.4112 -0.7657
  215MOL0     O28920   2.540   1.318   7.408 -0.1018 -0.7860 -0.1772
  215MOL0     C28921   2.495   1.352   7.287  0.4994 -0.5686  0.6404
  215MOL0     C28922   2.360   1.385   7.284  0.5678  1.1270 -0.3203
  215MOL0     C28923   2.302   1.429   7.169  0.5709 -0.2637  0.3433
  215MOL0     C28924   2.387   1.443   7.055 -0.6624  0.3362 -0.0434
  215MOL0     O28925   2.338   1.503   6.941  0.0373 -0.8133  0.1943
  215MOL0     C28926   2.223   1.583   6.943 -0.5506  0.7960  0.3434
  215MOL0     C28927   2.220   1.640   6.809 -1.0590  0.2587 -0.2488
  215MOL0     C28928   2.195   1.542   6.694 -0.3692 -0.6507 -0.3840
  215MOL0     C28929   2.248   1.587   6.558 -0.1952  0.4356 -0.2565
  215MOL0     C28930   2.221   1.480   6.460 -0.7151 -0.7467 -0.6144
  215MOL0     C28931   2.310   1.494   6.341 -0.0195  0.6969  0.1917
  215MOL0     C28932   2.272   1.389   6.239  0.5811 -0.4987 -0.7549
  215MOL0     C28933   2.384   1.356   6.150  0.8346 -0.9249  0.2622
  215MOL0    Cl28934   2.407   1.484   6.024  0.0427 -0.0282 -0.5551
  215MOL0     C28935   2.520   1.404   7.050  0.1400  0.2912  0.1176
  215MOL0     C28936   2.576   1.344   7.170  0.6350  1.0480  0.8816
  215MOL0     O28937   2.735   1.198   7.352 -0.0830 -0.6768 -0.1681
  215MOL0     C28938   2.792   1.107   7.599 -0.4087 -0.8200 -0.2800
  215MOL0     C28939   2.819   1.057   7.724  0.4312 -1.3663  0.3507
  215MOL0     N28940   3.197   1.348   7.974 -0.9969  0.2953  0.4942
  215MOL0     N28941   3.295   1.432   7.950  0.2930  0.1230  0.6463
  215MOL0     C28942   4.469   1.413   8.229 -1.1520 -0.3868 -0.2958
  215MOL0     C28943   4.615   1.407   8.219 -0.1261 -0.1995 -0.4102
  215MOL0     C28944   5.049   1.402   8.296 -0.7116 -0.1116  0.4295
  215MOL0     C28945   5.098   1.291   8.221  0.2692 -0.3477  1.0396
  215MOL0     C28946   5.235   1.269   8.217  1.0651 -0.0133  0.0577
  215MOL0     C28947   5.326   1.364   8.275  0.1153  0.2840 -0.4604
  215MOL0     O28948   5.462   1.358   8.265  0.2192  0.0667  0.0409
  215MOL0     C28949   5.511   1.307   8.143  0.0821  0.7613  0.0088
  215MOL0     C28950   5.537   1.416   8.045 -0.1786 -0.0052 -0.8448
  215MOL0     C28951   5.413   1.486   7.986 -0.0460  0.0853 -0.6174
  215MOL0     C28952   5.367   1.398   7.863  0.6047  0.3868 -0.2702
  215MOL0     C28953   5.228   1.451   7.815  0.1518 -0.5650 -0.9618
  215MOL0     C28954   5.131   1.513   7.773 -0.0438 -0.2274  1.1629
  215MOL0     C28955   5.279   1.483   8.330  0.3723 -0.2814 -0.7457
  215MOL0     C28956   5.138   1.505   8.345 -0.2214  1.0953 -0.6149
  215MOL0     C28957   5.092   1.630   8.404  0.1751 -0.5490 -0.0680
  215MOL0     H28958   4.688   1.130   8.379 -0.4627 -0.4915 -0.0806
  215MOL0     H28959   4.427   1.121   8.391  0.3484  1.1201  2.7719
  215MOL0     H28960   4.223   1.119   8.230 -2.6027 -0.3292  2.7860
  215MOL0     H28961   4.161   1.154   8.380 -1.4888  1.3466  0.5664
  215MOL0     H28962   3.995   1.325   8.293  0.2331  0.9731 -0.9292
  215MOL0     H28963   3.965   1.169   8.211  0.4115 -1.3952  2.0999
  215MOL0     H28964   4.088   1.254   8.001  2.2264  2.3522 -1.9362
  215MOL0     H28965   4.123   1.399   8.093 -1.1452  0.5221 -0.2751
  215MOL0     H28966   3.928   1.415   7.938  1.1483 -3.6103 -0.9849
  215MOL0     H28967   3.846   1.293   8.022 -0.9878 -0.4556  1.9609
  215MOL0     H28968   3.830   1.432   8.224 -1.4371 -1.6639 -0.9185
  215MOL0     H28969   3.939   1.556   8.164 -0.2920 -0.8505 -0.5681
  215MOL0     H28970   3.711   1.637   8.119 -1.3176 -2.3038  3.2602
  215MOL0     H28971   3.781   1.586   7.969 -0.1401 -1.5165 -0.7269
  215MOL0     H28972   3.637   1.373   8.092 -0.1862  0.4655  0.9878
  215MOL0     H28973   3.597   1.443   7.931 -0.0643 -0.6114  0.9645
  215MOL0     H28974   3.501   1.553   8.183 -0.6513 -1.6969  0.6572
  215MOL0     H28975   3.465   1.626   8.017 -3.6623  0.9638  2.2509
  215MOL0     H28976   3.347   1.344   8.262 -0.1917 -0.9041 -0.3395
  215MOL0     H28977   3.174   1.190   8.280 -0.0647  1.2188  0.7881
  215MOL0     H28978   3.034   1.280   8.219  0.1733 -0.9645  1.5892
  215MOL0     H28979   3.155   1.020   8.090 -1.6261 -0.3005 -0.0651
  215MOL0     H28980   3.033   1.012   8.202  2.5461 -0.4436  1.9196
  215MOL0     H28981   3.010   1.145   7.928  1.0091 -0.7910  0.2188
  215MOL0     H28982   2.915   1.213   8.042  0.5017  0.6922 -0.3049
  215MOL0     H28983   2.843   0.969   8.110  3.4688 -1.2596 -0.3851
  215MOL0     H28984   2.897   0.920   7.949 -0.7953 -0.6909 -0.7616
  215MOL0     H28985   2.568   1.236   7.885  2.5059  4.6262 -0.7981
  215MOL0     H28986   2.515   1.292   7.671  1.0994  1.6453 -2.4290
  215MOL0     H28987   2.311   1.383   7.381  3.6717 -0.2477  1.3751
  215MOL0     H28988   2.198   1.459   7.160  0.4817 -0.2985  1.1600
  215MOL0     H28989   2.127   1.531   6.957  1.6553 -4.0013 -0.2479
  215MOL0     H28990   2.230   1.664   7.016  2.6164  0.4763  0.5161
  215MOL0     H28991   2.138   1.713   6.812 -1.8850 -0.6820  1.1146
  215MOL0     H28992   2.316   1.687   6.785 -0.9620  1.6811  2.4662
  215MOL0     H28993   2.242   1.447   6.721 -1.2626 -0.7869  0.7786
  215MOL0     H28994   2.088   1.521   6.685 -0.9271  1.2724  1.0173
  215MOL0     H28995   2.353   1.617   6.564  0.6782 -2.3706 -0.3758
  215MOL0     H28996   2.191   1.676   6.528  0.9247  1.5289  0.7594
  215MOL0     H28997   2.115   1.480   6.435 -0.4029  0.1620 -2.0664
  215MOL0     H28998   2.247   1.389   6.513 -0.2963  1.0844  2.5687
  215MOL0     H28999   2.297   1.592   6.294 -1.8325  0.3416 -0.0876
  215MOL0     H29000   2.411   1.465   6.373  0.2355 -0.8363 -1.8381
  215MOL0     H29001   2.179   1.424   6.193  0.2395  0.0227  0.2962
  215MOL0     H29002   2.250   1.297   6.293  0.3580  1.5623  3.0202
  215MOL0     H29003   2.476   1.342   6.207  1.2024 -1.5915 -0.4818
  215MOL0     H29004   2.365   1.259   6.103 -1.0263 -1.1379  1.3433
  215MOL0     H29005   2.575   1.398   6.957  0.9156  0.9947  0.5119
  215MOL0     H29006   2.680   1.317   7.161 -0.2467 -2.6985  0.4716
  215MOL0     H29007   2.856   1.074   7.517  0.8168  0.3224  0.1782
  215MOL0     H29008   2.891   0.981   7.752  1.8911 -0.3010 -0.3332
  215MOL0     H29009   4.410   1.489   8.180  3.0468  1.6129 -2.8555
  215MOL0     H29010   4.658   1.504   8.198 -1.7815  1.1385  1.8870
  215MOL0     H29011   5.032   1.220   8.173  1.7271  1.1649 -3.7997
  215MOL0     H29012   5.276   1.175   8.181  0.2311  0.5827 -2.6921
  215MOL0     H29013   5.454   1.229   8.093 -1.6272  2.2675 -0.5183
  215MOL0     H29014   5.593   1.249   8.186 -1.8295 -0.4314  2.2531
  215MOL0     H29015   5.598   1.389   7.959 -1.5096 -0.0949 -1.8047
  215MOL0     H29016   5.599   1.486   8.101 -1.1394  1.4020 -1.4670
  215MOL0     H29017   5.453   1.585   7.961  0.1600  0.2633  0.3811
  215MOL0     H29018   5.333   1.508   8.056 -0.6881  2.0241 -1.8663
  215MOL0     H29019   5.434   1.408   7.777 -1.0129  0.2559 -1.5916
  215MOL0     H29020   5.349   1.294   7.889 -5.0393  1.4497  1.5540
  215MOL0     H29021   5.054   1.574   7.731  2.0063  3.4069  2.2497
  215MOL0     H29022   5.359   1.548   8.364  0.5896 -0.7685 -0.3131
  215MOL0     H29023   5.172   1.705   8.411 -2.1957  2.2696 -1.2709
  215MOL0     H29024   4.998   1.664   8.362 -1.1237  0.4206  3.2990
  215MOL0     H29025   5.078   1.600   8.509  0.6531 -1.0124 -0.1285
  216MOL0     O29026   0.316   1.820   4.268 -0.2174  0.1309 -0.3932
  216MOL0     C29027   0.430   1.868   4.286  0.2508  1.3012 -0.2210
  216MOL0     O29028   0.532   1.807   4.358  0.2603  0.1129 -0.1155
  216MOL0     C29029   0.533   1.681   4.396  0.8210 -0.7186 -0.4576
  216MOL0     C29030   0.589   1.585   4.314  0.0478 -0.2947  1.1165
  216MOL0     C29031   0.602   1.460   4.362 -0.5089  0.6397 -1.1028
  216MOL0     C29032   0.563   1.436   4.500 -0.4849 -0.6588 -0.7343
  216MOL0     O29033   0.587   1.316   4.559  0.8179  0.3031 -0.1101
  216MOL0     C29034   0.527   1.207   4.488  0.2904 -0.9590 -0.1022
  216MOL0     C29035   0.509   1.082   4.581  0.6930  0.7501  0.9472
  216MOL0     C29036   0.414   0.983   4.501 -0.8784 -0.1131 -0.0031
  216MOL0     C29037   0.480   0.852   4.464 -0.1553 -0.7362  0.5244
  216MOL0     C29038   0.375   0.749   4.406  0.2896  0.0528 -0.1148
  216MOL0     C29039   0.261   0.708   4.497 -0.0922  0.1618  0.2722
  216MOL0     C29040   0.139   0.669   4.410  0.7145 -0.0506 -0.3639
  216MOL0     C29041   0.057   0.796   4.375  0.6710  0.8874  0.2544
  216MOL0     N29042  -0.014   0.770   4.252  0.0556 -0.1401 -0.6452
  216MOL0     C29043  -0.103   0.662   4.240 -0.2170 -0.1112  0.4951
  216MOL0     C29044  -0.147   0.663   4.107  0.0550 -0.5958  0.2229
  216MOL0     C29045  -0.227   0.555   4.037 -0.0423 -0.1831 -0.0709
  216MOL0     C29046  -0.142   0.447   3.967  1.5447 -0.3980  0.4510
  216MOL0     C29047  -0.053   0.512   3.860 -0.1110  0.5032  0.3224
  216MOL0     C29048   0.089   0.531   3.918  0.4564 -0.3022 -0.2475
  216MOL0     O29049   0.160   0.605   3.827 -0.1454  0.0912  0.2079
  216MOL0     C29050   0.273   0.661   3.879 -0.4544 -0.2368  0.2854
  216MOL0     C29051   0.349   0.624   3.989 -0.1640  0.8511 -1.1527
  216MOL0     C29052   0.462   0.689   4.032  0.8057  0.3216  1.2623
  216MOL0     C29053   0.513   0.799   3.952 -0.0290 -0.1967 -0.8906
  216MOL0     C29054   0.630   0.876   3.996 -0.3294 -0.6832  0.0322
  216MOL0     O29055   0.688   0.969   3.901 -0.4171  0.3394  0.1021
  216MOL0     C29056   0.813   1.014   3.920  0.2438  0.8650 -0.1793
  216MOL0     C29057   0.857   1.084   4.035 -1.0316  0.2460 -0.4164
  216MOL0     C29058   0.984   1.135   4.041 -0.1391 -0.1245 -0.3105
  216MOL0     C29059   1.078   1.136   3.940 -0.3004 -0.0319 -0.2663
  216MOL0     O29060   1.206   1.178   3.955 -0.4121 -0.3496 -0.2884
  216MOL0     C29061   1.285   1.246   3.842  0.7574 -0.5838 -0.1727
  216MOL0     C29062   1.416   1.289   3.910 -0.1465  0.6067 -0.9256
  216MOL0     C29063   1.395   1.390   4.020  0.4317 -0.0390  0.9237
  216MOL0     C29064   1.529   1.432   4.066  0.1345 -0.7793  0.2889
  216MOL0     C29065   1.555   1.457   4.216 -0.3127 -0.0192 -0.7012
  216MOL0     C29066   1.429   1.523   4.273 -0.4906  0.6209 -0.2306
  216MOL0     C29067   1.460   1.594   4.406  0.0700 -0.5040 -0.2624
  216MOL0     C29068   1.339   1.666   4.455  0.3194  0.2323  0.1799
  216MOL0    Cl29069   1.379   1.761   4.591 -0.3945 -0.5097  0.1957
  216MOL0     C29070   1.033   1.071   3.826  0.8373  0.3565 -0.3824
  216MOL0     C29071   0.898   1.019   3.815  0.5921 -0.2848  0.2638
  216MOL0     O29072   0.674   0.857   4.109  0.0336  0.9825 -0.0271
  216MOL0     C29073   0.445   0.831   3.837  0.2758 -0.7682 -0.3299
  216MOL0     C29074   0.323   0.768   3.804 -0.2250  0.6789 -0.7255
  216MOL0     N29075  -0.091   0.776   4.055 -0.1107  0.0586  0.3843
  216MOL0     N29076  -0.011   0.838   4.138  0.4700 -0.0029  0.0042
  216MOL0     C29077   0.503   1.533   4.580 -0.7275 -0.6929  0.4507
  216MOL0     C29078   0.474   1.660   4.519 -0.7351 -0.2225  0.1786
  216MOL0     C29079   0.458   2.003   4.247 -0.1224  0.1380  0.5127
  216MOL0     C29080   0.554   2.068   4.321 -0.3515 -0.2270 -0.4243
  216MOL0     C29081   0.597   2.204   4.294  0.7900 -0.6100 -0.3598
  216MOL0     C29082   0.529   2.272   4.194  0.1751 -0.6672 -0.4504
  216MOL0     O29083   0.565   2.408   4.169  0.3805 -0.4601  0.3497
  216MOL0     C29084   0.491   2.488   4.072 -0.2419 -1.2125 -0.1981
  216MOL0     C29085   0.554   2.622   4.070 -0.1585 -0.7293  0.3157
  216MOL0     C29086   0.528   2.700   3.944 -0.7049  0.1484 -0.4290
  216MOL0     C29087   0.603   2.835   3.936  0.4670 -1.4011  0.0314
  216MOL0     C29088   0.586   2.909   4.058  0.8209  0.5220  1.0218
  216MOL0     C29089   0.569   2.954   4.166  0.9624 -0.4475 -0.3341
  216MOL0     C29090   0.440   2.204   4.111 -0.0850 -0.7918  0.1086
  216MOL0     C29091   0.411   2.070   4.133 -0.5111 -0.0696  0.1613
  216MOL0     C29092   0.334   1.998   4.032  0.4546 -0.1587  0.2291
  216MOL0     H29093   0.625   1.615   4.217 -1.5041  1.1638  0.9314
  216MOL0     H29094   0.651   1.381   4.306 -0.9312  0.4727 -1.2447
  216MOL0     H29095   0.429   1.246   4.458  0.1161  0.8659  2.5305
  216MOL0     H29096   0.575   1.166   4.398  2.5997 -5.1130  2.6922
  216MOL0     H29097   0.456   1.094   4.676  0.3772  0.0986  0.8616
  216MOL0     H29098   0.610   1.044   4.600 -0.0587 -1.1777  1.2949
  216MOL0     H29099   0.377   1.022   4.405 -0.9354 -0.7631 -0.2466
  216MOL0     H29100   0.326   0.955   4.560 -1.9172 -0.0090 -1.4279
  216MOL0     H29101   0.542   0.875   4.378 -1.0755 -0.6772 -0.1392
  216MOL0     H29102   0.530   0.815   4.554  0.1766  1.8352  1.4638
  216MOL0     H29103   0.349   0.786   4.306 -0.0177 -2.9390 -1.2320
  216MOL0     H29104   0.430   0.656   4.388 -1.4203 -1.3334  1.3978
  216MOL0     H29105   0.296   0.613   4.538 -1.5835 -0.5038  0.0418
  216MOL0     H29106   0.231   0.773   4.580 -0.8020 -0.7425  0.7366
  216MOL0     H29107   0.084   0.591   4.464 -1.2061  1.8723  0.6160
  216MOL0     H29108   0.172   0.635   4.311  0.6721  1.9333 -1.1005
  216MOL0     H29109  -0.020   0.817   4.451 -3.4815 -0.8420 -3.0268
  216MOL0     H29110   0.123   0.882   4.360  0.6194  0.6260 -1.7471
  216MOL0     H29111  -0.124   0.592   4.320  2.2221 -0.5256  0.8359
  216MOL0     H29112  -0.299   0.518   4.111 -0.9970 -0.7192 -1.2321
  216MOL0     H29113  -0.298   0.606   3.971 -0.0801  0.7711  0.6716
  216MOL0     H29114  -0.090   0.385   4.041  1.6892 -1.0331 -0.1673
  216MOL0     H29115  -0.210   0.376   3.919 -0.5177 -0.0949  2.7268
  216MOL0     H29116  -0.094   0.611   3.839 -1.0644  0.1220  0.3366
  216MOL0     H29117  -0.055   0.461   3.763 -0.6166 -1.1813  1.1689
  216MOL0     H29118   0.143   0.436   3.928  1.4706 -0.4164 -4.7162
  216MOL0     H29119   0.099   0.588   4.011 -0.0590 -2.7901  1.4342
  216MOL0     H29120   0.318   0.543   4.054 -2.7160  1.0282 -2.0384
  216MOL0     H29121   0.503   0.647   4.124 -0.0786  1.3970  2.1719
  216MOL0     H29122   0.785   1.096   4.115 -2.7940  0.1361 -1.9188
  216MOL0     H29123   1.021   1.173   4.135  1.2429 -0.6236 -0.6232
  216MOL0     H29124   1.299   1.168   3.767 -1.7771 -2.1836  0.8812
  216MOL0     H29125   1.227   1.326   3.795 -0.3844 -1.8099 -0.9232
  216MOL0     H29126   1.452   1.201   3.964 -2.7441 -0.8699 -1.4121
  216MOL0     H29127   1.496   1.321   3.843 -0.1475 -0.5399 -1.4953
  216MOL0     H29128   1.323   1.467   3.993 -0.5641 -1.8373 -1.9985
  216MOL0     H29129   1.340   1.337   4.098  0.5649 -2.9204 -0.7735
  216MOL0     H29130   1.549   1.531   4.022  0.0517  0.0035  1.9539
  216MOL0     H29131   1.606   1.357   4.045 -0.3040 -1.2723  0.4247
  216MOL0     H29132   1.643   1.522   4.220  0.4605 -1.0593 -0.3610
  216MOL0     H29133   1.587   1.370   4.275  1.1657  2.0192  1.7521
  216MOL0     H29134   1.391   1.590   4.195 -1.0063 -1.1692 -1.5868
  216MOL0     H29135   1.348   1.454   4.298  0.4686 -0.2636  0.5172
  216MOL0     H29136   1.541   1.668   4.400  0.2361 -0.4860  1.5791
  216MOL0     H29137   1.493   1.514   4.473 -0.3575 -0.1452  0.3937
  216MOL0     H29138   1.298   1.736   4.381 -1.0498 -2.2037 -1.4874
  216MOL0     H29139   1.268   1.586   4.479 -0.8043  0.8553 -0.9423
  216MOL0     H29140   1.098   1.065   3.739  2.9720 -1.7063  1.2214
  216MOL0     H29141   0.848   0.973   3.731 -1.0644 -4.6382  3.2951
  216MOL0     H29142   0.479   0.903   3.763  1.1928 -2.2194 -1.3657
  216MOL0     H29143   0.269   0.796   3.714 -1.4377 -3.1078 -1.3752
  216MOL0     H29144   0.490   1.507   4.684  3.3574 -3.3534  0.5304
  216MOL0     H29145   0.424   1.747   4.562  2.0717  1.2189  0.8058
  216MOL0     H29146   0.596   2.021   4.409 -2.2223  0.6304  1.0016
  216MOL0     H29147   0.681   2.239   4.354  0.1791 -0.0705  0.1965
  216MOL0     H29148   0.387   2.491   4.109 -0.6023 -3.4312 -0.8959
  216MOL0     H29149   0.488   2.456   3.968 -0.1049  1.8762 -1.2679
  216MOL0     H29150   0.662   2.609   4.059 -0.3380 -0.3768 -2.6121
  216MOL0     H29151   0.528   2.674   4.162  2.9803 -0.0140  0.9178
  216MOL0     H29152   0.421   2.724   3.946 -0.2736  2.2975  1.8084
  216MOL0     H29153   0.546   2.636   3.857 -0.4389 -1.3428  0.6723
  216MOL0     H29154   0.711   2.822   3.928  0.4276 -1.4637 -0.3885
  216MOL0     H29155   0.564   2.899   3.857  0.1965  0.8904  1.8978
  216MOL0     H29156   0.547   3.006   4.257 -0.5774  0.8523 -1.3848
  216MOL0     H29157   0.394   2.265   4.034  1.3794  2.1871  1.4357
  216MOL0     H29158   0.345   1.890   4.026  2.4083  0.0210 -5.3610
  216MOL0     H29159   0.229   2.023   4.053  0.9176  0.6342  1.7578
  216MOL0     H29160   0.364   2.026   3.930 -0.8244  1.1548  0.1683
  217MOL0     O29161   1.158   4.695   0.648 -0.0420  0.0063  0.1987
  217MOL0     C29162   1.107   4.747   0.551  0.6248  1.2101  1.1585
  217MOL0     O29163   1.158   4.737   0.428 -0.5340  0.6293 -0.1488
  217MOL0     C29164   1.283   4.685   0.407  0.3755  0.1899 -0.4312
  217MOL0     C29165   1.295   4.595   0.294 -0.3878 -0.3813 -0.7260
  217MOL0     C29166   1.418   4.554   0.255 -0.4025 -0.0640  0.0791
  217MOL0     C29167   1.532   4.580   0.333 -0.6056 -0.4033  0.3836
  217MOL0     O29168   1.654   4.529   0.293  0.1577 -0.6635  0.0206
  217MOL0     C29169   1.671   4.396   0.314 -0.6705 -0.5557 -0.5224
  217MOL0     C29170   1.744   4.378   0.453 -0.1161  0.5225 -0.8252
  217MOL0     C29171   1.890   4.411   0.459 -0.4935 -0.9283 -0.3863
  217MOL0     C29172   1.931   4.474   0.590 -0.3976 -0.8330  0.1790
  217MOL0     C29173   2.087   4.510   0.594 -0.1019 -0.1805 -1.4348
  217MOL0     C29174   2.132   4.557   0.728  0.3671 -0.5348 -0.0050
  217MOL0     C29175   2.282   4.596   0.725  0.1753 -0.1437  0.1031
  217MOL0     C29176   2.384   4.481   0.740 -0.2863  0.5523 -0.8165
  217MOL0     N29177   2.403   4.426   0.877  0.6145 -0.0892 -0.0411
  217MOL0     C29178   2.503   4.449   0.965 -0.2816 -0.3980  0.4022
  217MOL0     C29179   2.489   4.360   1.063  0.6274  0.7348 -0.7147
  217MOL0     C29180   2.599   4.337   1.176  0.4029 -0.2536 -0.1250
  217MOL0     C29181   2.590   4.452   1.275  0.1759  0.8240  0.5786
  217MOL0     C29182   2.699   4.450   1.382 -0.1809 -0.0522 -0.2010
  217MOL0     C29183   2.678   4.344   1.485  0.6249  0.3433  0.1481
  217MOL0     O29184   2.778   4.362   1.590 -0.3448 -0.1186 -1.0838
  217MOL0     C29185   2.736   4.421   1.705  0.0802 -0.3478 -0.3197
  217MOL0     C29186   2.829   4.391   1.810  0.2814  0.1971 -0.3985
  217MOL0     C29187   2.803   4.423   1.938  0.9586 -0.2621 -0.2054
  217MOL0     C29188   2.679   4.479   1.976 -0.0398  0.6017  0.5336
  217MOL0     C29189   2.641   4.505   2.117  0.1636 -0.5572  0.4351
  217MOL0     O29190   2.728   4.482   2.224 -0.0878  0.5342  1.1768
  217MOL0     C29191   2.677   4.507   2.350 -0.0798  0.1715  0.3059
  217MOL0     C29192   2.674   4.632   2.407  0.0910 -0.3128  0.4275
  217MOL0     C29193   2.656   4.656   2.550 -0.7239  0.4974  0.2646
  217MOL0     C29194   2.621   4.545   2.633  0.2963  0.1805  0.6404
  217MOL0     O29195   2.593   4.570   2.768 -0.8623  0.4629  0.3200
  217MOL0     C29196   2.531   4.470   2.849 -0.9575  0.2126  0.1774
  217MOL0     C29197   2.633   4.380   2.917 -0.9029  0.4112 -0.3615
  217MOL0     C29198   2.736   4.452   3.007 -1.0323  0.0911 -0.2783
  217MOL0     C29199   2.685   4.453   3.147  0.0891  0.5604 -0.4593
  217MOL0     C29200   2.597   4.572   3.182  0.3255 -0.0070  0.1499
  217MOL0     C29201   2.618   4.628   3.321 -1.2851 -0.3888  1.2238
  217MOL0     C29202   2.539   4.742   3.363  0.1294  0.0780  0.6490
  217MOL0     C29203   2.573   4.808   3.489  0.0957 -0.2636  0.0369
  217MOL0    Cl29204   2.455   4.947   3.500 -0.0412 -0.0623  0.1105
  217MOL0     C29205   2.611   4.419   2.569 -0.2094 -0.8944  0.5950
  217MOL0     C29206   2.645   4.400   2.435 -0.1160  0.2017 -0.3387
  217MOL0     O29207   2.522   4.544   2.125  0.1521 -0.1367  0.2780
  217MOL0     C29208   2.589   4.518   1.869  0.1028 -0.2682 -0.0804
  217MOL0     C29209   2.615   4.480   1.736  0.4337 -0.4167  0.0366
  217MOL0     N29210   2.370   4.290   1.042  0.8346  0.1443  0.1451
  217MOL0     N29211   2.316   4.337   0.940 -0.0655 -0.0942 -0.2021
  217MOL0     C29212   1.524   4.669   0.442 -0.3649 -0.5883  0.2866
  217MOL0     C29213   1.395   4.723   0.474 -0.4071 -0.3166  0.2687
  217MOL0     C29214   0.975   4.806   0.566  0.9725  0.7783 -0.7263
  217MOL0     C29215   0.874   4.753   0.494  0.7665 -0.2324 -0.6140
  217MOL0     C29216   0.744   4.805   0.499  0.0100 -0.1574 -0.4968
  217MOL0     C29217   0.713   4.910   0.595 -0.9320  0.6507 -0.2911
  217MOL0     O29218   0.587   4.950   0.622  0.3396  0.0835 -0.4456
  217MOL0     C29219   0.478   4.887   0.548 -1.0233 -0.2692 -0.0137
  217MOL0     C29220   0.346   4.969   0.557 -0.3396 -0.3577  0.3028
  217MOL0     C29221   0.240   4.874   0.516 -0.4230 -0.7827 -0.2380
  217MOL0     C29222   0.092   4.925   0.546 -0.0451 -0.7903  0.7179
  217MOL0     C29223  -0.007   4.852   0.461 -0.5376 -0.7292  0.1042
  217MOL0     C29224  -0.089   4.795   0.395  0.4979 -0.0865  0.0025
  217MOL0     C29225   0.816   4.969   0.669 -0.9289  0.0506  0.3381
  217MOL0     C29226   0.948   4.918   0.657 -0.2810 -0.6587  0.3089
  217MOL0     C29227   1.055   4.987   0.731  0.2489 -0.3714 -0.0489
  217MOL0     H29228   1.203   4.562   0.246 -2.4765 -0.3330  2.8772
  217MOL0     H29229   1.429   4.487   0.171  1.4882 -0.1061  0.3227
  217MOL0     H29230   1.578   4.339   0.302 -0.9281  0.3402 -3.4364
  217MOL0     H29231   1.730   4.371   0.225 -0.7608  1.1013 -1.0827
  217MOL0     H29232   1.738   4.273   0.482  0.9276 -0.3967 -3.5635
  217MOL0     H29233   1.688   4.429   0.532 -0.4904 -3.1411  1.4825
  217MOL0     H29234   1.906   4.475   0.372 -0.1450 -0.1393  0.2459
  217MOL0     H29235   1.955   4.324   0.465  2.8354  1.2753 -1.5984
  217MOL0     H29236   1.862   4.556   0.612 -0.4707 -0.6283 -0.7812
  217MOL0     H29237   1.905   4.406   0.672 -0.5022 -0.7391  0.2231
  217MOL0     H29238   2.144   4.422   0.561  0.4407 -0.8806  1.2039
  217MOL0     H29239   2.111   4.588   0.521 -1.2688 -1.0511 -2.8260
  217MOL0     H29240   2.075   4.645   0.759 -1.4550 -2.7236  3.4430
  217MOL0     H29241   2.130   4.482   0.807  1.1787  0.1533  0.6772
  217MOL0     H29242   2.300   4.669   0.804 -1.1780  2.8666 -2.1620
  217MOL0     H29243   2.304   4.639   0.627  2.7497  1.3842  1.2513
  217MOL0     H29244   2.356   4.406   0.666  0.3586 -0.0995 -0.4135
  217MOL0     H29245   2.484   4.514   0.710  0.8078  1.9650  3.6216
  217MOL0     H29246   2.587   4.516   0.946  0.0567 -1.2084 -1.1069
  217MOL0     H29247   2.571   4.236   1.206 -1.0310  0.6977  2.0474
  217MOL0     H29248   2.701   4.337   1.138 -0.0624 -1.6087 -1.4573
  217MOL0     H29249   2.595   4.543   1.215  0.1550 -0.9891 -2.3528
  217MOL0     H29250   2.498   4.445   1.333  0.6664  0.8794  1.3760
  217MOL0     H29251   2.703   4.549   1.428  1.1548  0.8757 -2.1249
  217MOL0     H29252   2.802   4.442   1.345 -0.2990 -3.6460 -0.1429
  217MOL0     H29253   2.688   4.247   1.436  0.0473  0.3289  0.0505
  217MOL0     H29254   2.576   4.344   1.525  1.0062 -0.7102  1.1802
  217MOL0     H29255   2.918   4.339   1.776 -0.6741  0.2002 -3.2528
  217MOL0     H29256   2.883   4.391   2.005  0.0212 -3.7359 -0.5689
  217MOL0     H29257   2.679   4.713   2.334  0.9756 -0.5784  0.1799
  217MOL0     H29258   2.653   4.755   2.594 -1.1260  0.2404  0.8273
  217MOL0     H29259   2.459   4.513   2.919  1.6357 -0.2852  3.3979
  217MOL0     H29260   2.465   4.410   2.784 -0.3380 -1.1341  0.7614
  217MOL0     H29261   2.568   4.317   2.979 -0.9157  3.9298  3.6751
  217MOL0     H29262   2.676   4.314   2.842 -0.9415 -0.4963  0.3973
  217MOL0     H29263   2.836   4.406   3.008 -0.3204  1.2671 -3.6532
  217MOL0     H29264   2.748   4.552   2.965  2.8233  1.1202  2.6746
  217MOL0     H29265   2.771   4.451   3.215 -0.2841 -2.1091  0.0460
  217MOL0     H29266   2.636   4.359   3.171 -2.8196  2.3097  1.1384
  217MOL0     H29267   2.494   4.535   3.169  0.3159  1.0277 -4.6505
  217MOL0     H29268   2.615   4.661   3.121  0.6676 -0.5510 -0.5648
  217MOL0     H29269   2.592   4.553   3.396 -1.2719  0.1376  1.7607
  217MOL0     H29270   2.725   4.651   3.329 -1.1871 -0.8956  1.3875
  217MOL0     H29271   2.436   4.707   3.371  0.6520 -2.2907 -1.6773
  217MOL0     H29272   2.534   4.825   3.291  1.3376  1.0501  1.6224
  217MOL0     H29273   2.587   4.755   3.584  2.2145  1.2278  0.6425
  217MOL0     H29274   2.675   4.846   3.475 -0.3247  1.1795  0.6856
  217MOL0     H29275   2.587   4.323   2.615  1.0716 -1.2623  0.5213
  217MOL0     H29276   2.642   4.303   2.386 -0.5400  0.9500 -1.8601
  217MOL0     H29277   2.493   4.565   1.891  0.4837  0.4138  0.1640
  217MOL0     H29278   2.539   4.491   1.660  0.7401 -2.6918 -0.6577
  217MOL0     H29279   1.614   4.686   0.500 -0.7974  0.6594  0.6498
  217MOL0     H29280   1.385   4.785   0.562 -0.1458 -1.4158  1.0905
  217MOL0     H29281   0.879   4.658   0.444  0.6037 -0.4503 -0.2225
  217MOL0     H29282   0.664   4.746   0.454 -0.4246 -2.7127  3.2091
  217MOL0     H29283   0.468   4.786   0.591  0.5747 -0.1611  0.7203
  217MOL0     H29284   0.500   4.877   0.442 -0.7981  2.2717 -0.2573
  217MOL0     H29285   0.349   5.054   0.489  1.2713 -0.5179  0.1263
  217MOL0     H29286   0.347   5.015   0.656  2.2124 -0.4109  0.3879
  217MOL0     H29287   0.262   4.776   0.560  2.5437 -0.5782 -1.0854
  217MOL0     H29288   0.256   4.882   0.408 -1.0658  0.3109 -0.2686
  217MOL0     H29289   0.060   4.931   0.651  0.2875 -1.4203  0.8608
  217MOL0     H29290   0.091   5.028   0.508 -0.6814 -1.4531 -1.1521
  217MOL0     H29291  -0.158   4.738   0.337 -0.1165  0.7997 -0.1637
  217MOL0     H29292   0.797   5.056   0.730  1.3003  1.7566 -1.2371
  217MOL0     H29293   1.146   5.008   0.675 -0.3612  0.3953 -0.7714
  217MOL0     H29294   1.010   5.081   0.763  0.1422 -0.2408 -0.5851
  217MOL0     H29295   1.087   4.926   0.817  1.3175 -0.8215 -0.7546
  218MOL0     O29296   8.327   5.051   7.956 -0.1417  0.2982  0.3353
  218MOL0     C29297   8.237   4.982   7.922 -0.2566 -0.2757 -0.5304
  218MOL0     O29298   8.251   4.861   7.867 -0.4914  0.0000  0.4631
  218MOL0     C29299   8.384   4.808   7.874  0.1723  0.4773  0.0210
  218MOL0     C29300   8.447   4.785   7.758  0.0035 -0.0243  0.4471
  218MOL0     C29301   8.571   4.724   7.753  0.6233 -0.0981 -0.2304
  218MOL0     C29302   8.635   4.685   7.877  0.2329  1.2083  0.2179
  218MOL0     O29303   8.756   4.629   7.883 -0.0069  0.1864 -0.2993
  218MOL0     C29304   8.847   4.617   7.769  0.6238  0.5635 -0.6225
  218MOL0     C29305   8.982   4.549   7.803  0.2527 -0.3096  0.4006
  218MOL0     C29306   9.092   4.572   7.696 -0.6484  0.2028  0.2838
  218MOL0     C29307   9.072   4.516   7.561  0.3935 -0.4506 -0.6518
  218MOL0     C29308   9.184   4.536   7.472 -0.0476  0.4313  0.2223
  218MOL0     C29309   9.212   4.432   7.364 -0.2944  0.5847  0.5111
  218MOL0     C29310   9.305   4.510   7.269 -1.0706  0.3033 -0.1960
  218MOL0     C29311   9.405   4.610   7.320  0.0748 -0.8332 -1.1337
  218MOL0     N29312   9.515   4.634   7.224  0.9040  0.6315 -0.1981
  218MOL0     C29313   9.499   4.673   7.096  0.4203 -0.2855 -0.0056
  218MOL0     C29314   9.620   4.657   7.035 -0.4393  0.2227  0.7812
  218MOL0     C29315   9.637   4.641   6.887 -0.0757 -0.8097 -0.3795
  218MOL0     C29316   9.775   4.715   6.856  0.4812  0.3379  0.8712
  218MOL0     C29317   9.899   4.625   6.861 -0.2331 -1.2006 -0.7564
  218MOL0     C29318   9.903   4.513   6.752 -0.4178  0.1175 -0.2237
  218MOL0     O29319  10.015   4.425   6.761 -0.1065 -0.6714  0.2207
  218MOL0     C29320  10.148   4.457   6.736 -0.1132 -0.1315 -0.4040
  218MOL0     C29321  10.237   4.365   6.792  0.2005 -0.3669  0.2879
  218MOL0     C29322  10.375   4.385   6.781  0.2203 -0.0779 -1.0167
  218MOL0     C29323  10.425   4.482   6.701  0.1212 -0.0969  0.0897
  218MOL0     C29324  10.562   4.503   6.690 -0.4636 -0.2779 -0.0712
  218MOL0     O29325  10.606   4.629   6.674  1.2932 -0.2969 -0.6326
  218MOL0     C29326  10.739   4.651   6.656  0.1719  0.6605 -0.0466
  218MOL0     C29327  10.830   4.627   6.766  0.4287  0.7508  0.6200
  218MOL0     C29328  10.959   4.648   6.731  0.0384 -0.2257  0.0073
  218MOL0     C29329  11.004   4.704   6.602 -0.9289 -0.4902 -0.0247
  218MOL0     O29330  11.137   4.732   6.588  0.6896  0.8875  0.2648
  218MOL0     C29331  11.162   4.823   6.479  0.1000 -0.2164 -0.0655
  218MOL0     C29332  11.306   4.874   6.502  0.5769 -0.4391  0.4438
  218MOL0     C29333  11.308   4.992   6.607  0.0369 -0.0148 -0.4314
  218MOL0     C29334  11.313   4.944   6.748 -0.5726  0.1201  0.5200
  218MOL0     C29335  11.286   5.054   6.841  0.0722  0.5395  0.2262
  218MOL0     C29336  11.378   5.059   6.969  0.3124 -0.4399 -0.9720
  218MOL0     C29337  11.516   5.125   6.939 -0.3000 -0.5340 -0.1282
  218MOL0     C29338  11.605   5.104   7.067  0.0341  0.2648 -0.9549
  218MOL0    Cl29339  11.740   5.224   7.053 -0.0963 -0.2458 -0.4532
  218MOL0     C29340  10.912   4.709   6.498 -1.4817 -0.1312  0.2512
  218MOL0     C29341  10.781   4.679   6.528 -0.3090 -0.6194 -0.3996
  218MOL0     O29342  10.634   4.407   6.661 -0.5292 -0.0293 -0.5720
  218MOL0     C29343  10.333   4.583   6.652  0.3495 -0.2544 -0.3780
  218MOL0     C29344  10.195   4.571   6.680 -0.0447  0.0615 -0.1700
  218MOL0     N29345   9.708   4.617   7.134 -0.0016  0.3678 -0.9297
  218MOL0     N29346   9.644   4.607   7.243 -0.6813 -0.3155 -0.7937
  218MOL0     C29347   8.577   4.716   7.990 -0.6560 -0.1390 -0.4349
  218MOL0     C29348   8.447   4.767   7.991  0.3841 -0.5792  0.0504
  218MOL0     C29349   8.095   5.029   7.948 -0.0298 -0.0140  1.2515
  218MOL0     C29350   7.998   4.932   7.916 -0.0146 -0.6828 -0.1231
  218MOL0     C29351   7.860   4.964   7.939 -0.4847  0.3405  0.1650
  218MOL0     C29352   7.822   5.077   8.005 -0.0491  0.3201 -0.0728
  218MOL0     O29353   7.698   5.111   8.018  0.5489  0.4417  0.8625
  218MOL0     C29354   7.655   5.110   8.157  0.2992  0.4312 -0.3889
  218MOL0     C29355   7.551   5.003   8.156 -0.1502  0.3198  0.3797
  218MOL0     C29356   7.488   4.991   8.293 -0.0541 -0.6942  0.3559
  218MOL0     C29357   7.347   4.934   8.273 -1.0091  0.6019 -0.0455
  218MOL0     C29358   7.280   4.939   8.404  0.2489  0.0341  0.3842
  218MOL0     C29359   7.227   4.942   8.509  0.8218 -0.3956 -0.7381
  218MOL0     C29360   7.928   5.173   8.030 -0.5364  0.0719 -0.1649
  218MOL0     C29361   8.059   5.158   7.993  0.3214  1.0650  0.0485
  218MOL0     C29362   8.156   5.266   8.023 -0.2250 -0.2557 -1.2844
  218MOL0     H29363   8.392   4.806   7.667  3.7119 -1.1175 -2.3085
  218MOL0     H29364   8.624   4.695   7.663  2.7756  1.5677  0.4173
  218MOL0     H29365   8.801   4.564   7.684 -1.0179 -2.2607  1.8156
  218MOL0     H29366   8.869   4.717   7.732  1.1570 -0.0334 -2.0168
  218MOL0     H29367   8.960   4.442   7.808 -1.5741 -0.0818 -1.2332
  218MOL0     H29368   9.018   4.571   7.904  0.8348 -3.0481  0.8654
  218MOL0     H29369   9.178   4.517   7.736  0.0871  2.7888  2.6036
  218MOL0     H29370   9.110   4.680   7.691 -2.9896  0.5957 -0.4011
  218MOL0     H29371   9.067   4.407   7.572  4.0148 -0.8497 -1.7556
  218MOL0     H29372   8.977   4.551   7.519  0.0434  1.4589  1.5682
  218MOL0     H29373   9.155   4.630   7.423  2.8919  0.6967 -1.2125
  218MOL0     H29374   9.276   4.551   7.528  0.3285  2.5888 -0.8724
  218MOL0     H29375   9.264   4.348   7.412  1.9151  1.5825  0.0197
  218MOL0     H29376   9.125   4.396   7.309 -0.7285  2.0767  0.1817
  218MOL0     H29377   9.243   4.565   7.198 -1.1785  0.4687  0.0268
  218MOL0     H29378   9.359   4.431   7.216 -0.0625  1.1520 -0.4514
  218MOL0     H29379   9.365   4.706   7.355  0.0991 -1.0466 -0.5011
  218MOL0     H29380   9.458   4.567   7.405 -1.0877  0.8365  0.5338
  218MOL0     H29381   9.415   4.701   7.033  0.2520  0.9972  0.7536
  218MOL0     H29382   9.644   4.534   6.867 -0.3092 -0.6309 -1.4853
  218MOL0     H29383   9.562   4.698   6.832  1.2096 -1.2868 -2.7761
  218MOL0     H29384   9.774   4.756   6.755  1.5090 -4.8090 -1.5456
  218MOL0     H29385   9.793   4.788   6.935  2.3136 -1.9615  2.7361
  218MOL0     H29386   9.918   4.581   6.959  0.9070 -4.0759 -2.1468
  218MOL0     H29387   9.992   4.681   6.846 -0.4091 -1.0918 -1.4786
  218MOL0     H29388   9.897   4.560   6.653  3.7427  1.5311  0.0096
  218MOL0     H29389   9.821   4.442   6.767  2.8358 -3.7483  0.7461
  218MOL0     H29390  10.195   4.277   6.838 -0.6579 -2.0639 -3.3540
  218MOL0     H29391  10.448   4.316   6.823  2.1044  0.8297 -2.5998
  218MOL0     H29392  10.809   4.596   6.868 -0.2349  0.6845  0.4696
  218MOL0     H29393  11.037   4.618   6.800  0.5768 -1.3863 -1.0733
  218MOL0     H29394  11.161   4.784   6.377 -3.5812  0.1376 -0.3281
  218MOL0     H29395  11.091   4.906   6.483  4.3326  3.9820 -2.7301
  218MOL0     H29396  11.378   4.799   6.538  2.0753  0.2890 -0.8634
  218MOL0     H29397  11.355   4.906   6.409  1.9462 -0.8304  1.0113
  218MOL0     H29398  11.386   5.068   6.595 -2.3439  2.9137  1.3832
  218MOL0     H29399  11.214   5.045   6.592 -0.9518 -1.1948  1.1835
  218MOL0     H29400  11.412   4.900   6.766 -1.5229 -1.9075  1.0670
  218MOL0     H29401  11.238   4.865   6.758 -1.1845  0.5070 -0.7893
  218MOL0     H29402  11.186   5.034   6.880 -0.0139  2.4068  1.0887
  218MOL0     H29403  11.275   5.153   6.795 -3.0135  1.4886  2.6744
  218MOL0     H29404  11.324   5.111   7.048 -3.0054 -2.3430 -1.8131
  218MOL0     H29405  11.384   4.961   7.016  0.2110  0.5568  1.2328
  218MOL0     H29406  11.494   5.232   6.924  0.9585  0.1803  2.5497
  218MOL0     H29407  11.577   5.091   6.855  3.4392  3.9454  0.3728
  218MOL0     H29408  11.539   5.115   7.153 -0.9107  1.3082 -1.7678
  218MOL0     H29409  11.634   4.999   7.069 -4.2825 -1.1125  0.7262
  218MOL0     H29410  10.940   4.745   6.399  1.0236 -0.7652  0.6811
  218MOL0     H29411  10.708   4.694   6.449  3.2270  0.3585 -3.8803
  218MOL0     H29412  10.392   4.669   6.622  3.1466 -2.1436 -0.6241
  218MOL0     H29413  10.142   4.657   6.639  0.5949 -0.1468 -1.5076
  218MOL0     H29414   8.635   4.690   8.078  1.2246  2.3898 -0.8250
  218MOL0     H29415   8.406   4.819   8.077  3.1520  3.3784 -0.7902
  218MOL0     H29416   8.023   4.841   7.863 -1.2167  1.0683 -4.1133
  218MOL0     H29417   7.785   4.892   7.910  0.1290  0.3552 -1.5741
  218MOL0     H29418   7.606   5.201   8.193  0.1204  0.1145  0.1782
  218MOL0     H29419   7.734   5.078   8.226  0.3229 -0.1525 -0.6791
  218MOL0     H29420   7.599   4.918   8.107  0.7482  3.0390 -4.0189
  218MOL0     H29421   7.480   5.029   8.077 -1.6959  0.1502  1.6493
  218MOL0     H29422   7.479   5.094   8.328 -1.8978  0.3121 -2.7156
  218MOL0     H29423   7.549   4.931   8.361  1.8369 -0.1297 -0.7697
  218MOL0     H29424   7.299   4.981   8.187  0.6129  0.5887 -1.0052
  218MOL0     H29425   7.360   4.826   8.257  1.5184  0.8623 -0.1074
  218MOL0     H29426   7.203   4.925   8.612  0.5710 -3.1589 -1.1903
  218MOL0     H29427   7.887   5.265   8.070  0.7376  1.5820 -2.1033
  218MOL0     H29428   8.104   5.362   8.031  2.2529  1.0128  1.1560
  218MOL0     H29429   8.211   5.241   8.114  0.4661  0.3607 -1.5165
  218MOL0     H29430   8.229   5.285   7.943 -0.6049  1.7198 -1.2121
  219MOL0     O29431  10.055   1.902   4.516 -0.4011  0.3010 -0.8101
  219MOL0     C29432  10.078   1.782   4.525 -0.0482  0.0206 -0.3355
  219MOL0     O29433  10.196   1.719   4.490  0.4200 -0.2133 -0.1735
  219MOL0     C29434  10.298   1.794   4.440  0.2470  0.0668  0.3425
  219MOL0     C29435  10.388   1.868   4.521  0.5515  0.0382  1.1858
  219MOL0     C29436  10.513   1.907   4.462  0.6148  0.0186  0.0303
  219MOL0     C29437  10.549   1.883   4.327  0.0436 -0.7037  0.5643
  219MOL0     O29438  10.644   1.955   4.256  0.3023 -0.0516  0.3425
  219MOL0     C29439  10.752   2.016   4.329  0.0096 -0.8284  0.0840
  219MOL0     C29440  10.864   2.075   4.239 -0.3710  0.3893  0.2425
  219MOL0     C29441  10.795   2.182   4.161  0.5087 -0.0674  0.9769
  219MOL0     C29442  10.897   2.228   4.052  1.2564 -0.6484 -0.1241
  219MOL0     C29443  10.834   2.350   3.960  0.8274  0.6455 -0.5627
  219MOL0     C29444  10.942   2.383   3.858  0.0052  0.4537 -0.9495
  219MOL0     C29445  10.901   2.512   3.776  0.0335  0.5114 -0.6710
  219MOL0     C29446  10.882   2.642   3.854 -0.1550 -0.5183 -0.7030
  219MOL0     N29447  11.016   2.704   3.903 -0.1799  0.4647 -0.4819
  219MOL0     C29448  11.107   2.646   3.995  0.8753 -0.2213 -1.2193
  219MOL0     C29449  11.204   2.741   3.995  0.3293 -0.0649  0.4925
  219MOL0     C29450  11.349   2.728   4.045 -1.1192 -0.7006  0.0194
  219MOL0     C29451  11.367   2.796   4.188  0.7270  0.6272 -0.3069
  219MOL0     C29452  11.462   2.715   4.283  0.1771  0.5967  0.1384
  219MOL0     C29453  11.440   2.764   4.431  0.1333  0.2644  0.2565
  219MOL0     O29454  11.521   2.675   4.497 -0.3842 -0.3246  0.9054
  219MOL0     C29455  11.654   2.698   4.494 -0.2529  0.3136  0.0604
  219MOL0     C29456  11.698   2.810   4.561 -0.5983 -0.5310 -0.6509
  219MOL0     C29457  11.839   2.848   4.560  0.6888 -0.7706 -0.2126
  219MOL0     C29458  11.932   2.759   4.511  0.7780  1.0656  0.1634
  219MOL0     C29459  12.074   2.796   4.535 -1.2286 -0.1704  0.2971
  219MOL0     O29460  12.155   2.775   4.431 -0.4346 -0.4819  0.2929
  219MOL0     C29461  12.286   2.834   4.429  0.5403  0.0225  0.8917
  219MOL0     C29462  12.348   2.873   4.306  0.4514  0.2901  0.7787
  219MOL0     C29463  12.487   2.895   4.287  0.7797  0.4714 -0.8609
  219MOL0     C29464  12.559   2.885   4.403 -0.0682  0.1954  0.3933
  219MOL0     O29465  12.691   2.904   4.383 -0.2651 -0.6392 -0.3605
  219MOL0     C29466  12.772   2.795   4.429  0.6789  0.2707 -0.8079
  219MOL0     C29467  12.888   2.781   4.332  0.5607 -0.2998 -0.0951
  219MOL0     C29468  13.007   2.844   4.393 -0.4171 -0.0951  0.4072
  219MOL0     C29469  13.131   2.796   4.329 -0.5806  0.1417  0.4526
  219MOL0     C29470  13.259   2.858   4.373  0.6876  0.5353  0.2035
  219MOL0     C29471  13.282   2.997   4.323  0.4509 -0.5543  0.2585
  219MOL0     C29472  13.425   3.035   4.341  0.6824 -0.5967  0.1501
  219MOL0     C29473  13.446   3.189   4.340  0.0810 -0.3134  0.2670
  219MOL0    Cl29474  13.626   3.206   4.359 -0.6058 -0.1294  0.6963
  219MOL0     C29475  12.503   2.853   4.529 -0.8113 -0.1840 -0.8738
  219MOL0     C29476  12.368   2.833   4.536 -0.4877 -0.7911 -1.4527
  219MOL0     O29477  12.095   2.865   4.632  0.1525  0.3664 -0.9072
  219MOL0     C29478  11.891   2.638   4.449 -0.5575 -0.2136  0.3021
  219MOL0     C29479  11.748   2.614   4.442 -0.2414  0.5098  0.2941
  219MOL0     N29480  11.173   2.849   3.911 -0.1351  0.5349  0.5489
  219MOL0     N29481  11.056   2.826   3.858 -0.6392 -0.0799  0.1713
  219MOL0     C29482  10.444   1.833   4.248 -0.1290 -0.8355 -0.8713
  219MOL0     C29483  10.326   1.782   4.299 -0.4778 -0.0140  0.7081
  219MOL0     C29484   9.968   1.692   4.568  0.4710 -0.1838 -0.5988
  219MOL0     C29485   9.961   1.572   4.508  0.2705  1.0251  0.1704
  219MOL0     C29486   9.856   1.484   4.522 -0.5300  0.2719  0.4365
  219MOL0     C29487   9.748   1.519   4.604 -0.2311 -0.0811 -0.3606
  219MOL0     O29488   9.641   1.437   4.613 -0.5675  0.1222 -0.0074
  219MOL0     C29489   9.523   1.469   4.685 -0.1773  0.2348 -0.8871
  219MOL0     C29490   9.413   1.359   4.660 -0.2508 -0.4681 -0.5511
  219MOL0     C29491   9.386   1.277   4.788  0.0061  0.5466 -0.8455
  219MOL0     C29492   9.322   1.144   4.755  1.0959  0.2680 -0.5645
  219MOL0     C29493   9.330   1.069   4.882  0.6366 -0.8548 -0.4698
  219MOL0     C29494   9.324   1.014   4.990  0.0840  0.4400  1.0631
  219MOL0     C29495   9.753   1.646   4.667  0.5156 -0.5120 -0.1091
  219MOL0     C29496   9.858   1.734   4.649  0.1628  0.8852 -0.6795
  219MOL0     C29497   9.858   1.855   4.731 -0.0391 -0.5171  0.0237
  219MOL0     H29498  10.363   1.879   4.626 -0.9534 -1.4115  1.0077
  219MOL0     H29499  10.580   1.969   4.521 -1.1919 -0.6407  3.0054
  219MOL0     H29500  10.689   2.096   4.370  0.3365 -0.2425 -0.5290
  219MOL0     H29501  10.791   1.945   4.402  1.2016  0.5297  0.8154
  219MOL0     H29502  10.912   1.997   4.178 -1.9304 -1.6343  1.4601
  219MOL0     H29503  10.931   2.116   4.314  0.1816  1.1624 -0.6507
  219MOL0     H29504  10.780   2.265   4.231 -1.1989  1.6011 -1.2330
  219MOL0     H29505  10.696   2.170   4.118  0.1480  4.4109  0.0985
  219MOL0     H29506  10.991   2.255   4.102  2.9816 -0.0784 -3.3409
  219MOL0     H29507  10.934   2.150   3.985  0.3948 -2.3632  1.3323
  219MOL0     H29508  10.743   2.314   3.911  1.0994 -1.7320  0.5968
  219MOL0     H29509  10.830   2.443   4.018 -1.3630  0.0378  0.3352
  219MOL0     H29510  11.031   2.398   3.919 -0.8852  1.8451  0.0966
  219MOL0     H29511  10.951   2.290   3.802  1.8461 -1.8001  2.6901
  219MOL0     H29512  10.807   2.497   3.722  1.3401 -0.2874 -2.8496
  219MOL0     H29513  10.984   2.535   3.709  0.4419  1.0672  0.0083
  219MOL0     H29514  10.842   2.711   3.780  1.2403 -0.7924 -1.7597
  219MOL0     H29515  10.813   2.620   3.936 -0.4240  2.1241 -0.1468
  219MOL0     H29516  11.100   2.551   4.046 -0.3230 -0.2642 -1.4341
  219MOL0     H29517  11.361   2.620   4.046 -3.9198 -1.0658  1.1246
  219MOL0     H29518  11.421   2.777   3.978  2.1373 -1.9278  2.4074
  219MOL0     H29519  11.404   2.898   4.174  2.1354  0.5614  2.3766
  219MOL0     H29520  11.266   2.803   4.232  0.5481  0.6644 -0.7238
  219MOL0     H29521  11.567   2.731   4.255  0.1965  1.5782  0.7027
  219MOL0     H29522  11.432   2.611   4.272 -1.0749  1.1021 -1.4934
  219MOL0     H29523  11.336   2.741   4.456 -0.5203  1.7483 -0.9397
  219MOL0     H29524  11.449   2.868   4.463  0.8230 -0.1381  1.4297
  219MOL0     H29525  11.620   2.864   4.614  2.4062  4.7931 -0.9782
  219MOL0     H29526  11.876   2.942   4.599  2.0714 -0.9757 -0.9627
  219MOL0     H29527  12.284   2.876   4.218  0.7788 -3.7622  0.1946
  219MOL0     H29528  12.526   2.916   4.188 -0.7718  0.5174 -1.4859
  219MOL0     H29529  12.805   2.809   4.532  1.3333 -0.4136 -0.9151
  219MOL0     H29530  12.711   2.704   4.420 -0.4505  0.7931  1.0772
  219MOL0     H29531  12.891   2.674   4.310 -1.8796 -0.0215 -2.2935
  219MOL0     H29532  12.864   2.831   4.238  0.7513 -0.4609 -0.2288
  219MOL0     H29533  12.995   2.951   4.373 -1.1564 -0.3084 -0.3566
  219MOL0     H29534  13.016   2.845   4.502 -0.0990  1.1305  0.3858
  219MOL0     H29535  13.117   2.816   4.222 -4.1175  0.7412  0.9006
  219MOL0     H29536  13.138   2.688   4.349  2.1987  0.3366  0.8422
  219MOL0     H29537  13.353   2.806   4.352  0.9834  2.1316 -2.9345
  219MOL0     H29538  13.262   2.867   4.482 -1.2285 -0.8190  0.4146
  219MOL0     H29539  13.262   3.004   4.215 -1.5834  3.8287  0.6676
  219MOL0     H29540  13.211   3.070   4.364  1.4266  1.5404 -1.5505
  219MOL0     H29541  13.489   2.990   4.265  1.0042 -0.3375  0.2639
  219MOL0     H29542  13.450   2.987   4.436  0.8510  1.1231  1.0190
  219MOL0     H29543  13.417   3.233   4.244 -0.3166  1.0200  0.9640
  219MOL0     H29544  13.385   3.251   4.407 -2.8570 -1.9292 -0.7388
  219MOL0     H29545  12.577   2.854   4.608  1.6413  1.5765 -3.0200
  219MOL0     H29546  12.325   2.798   4.629  1.6675 -0.6417 -0.3435
  219MOL0     H29547  11.957   2.564   4.405  0.8904  0.3285  1.4685
  219MOL0     H29548  11.716   2.527   4.386  0.3138  1.8203 -2.1890
  219MOL0     H29549  10.445   1.826   4.140  3.1666  0.8249 -1.0739
  219MOL0     H29550  10.273   1.721   4.226 -1.2971  3.1751 -1.5530
  219MOL0     H29551  10.034   1.528   4.439  0.7212 -0.1043  1.3202
  219MOL0     H29552   9.860   1.384   4.480  1.7720 -0.5913  2.4955
  219MOL0     H29553   9.489   1.569   4.658  1.6345  1.5290  1.3092
  219MOL0     H29554   9.548   1.482   4.790 -1.3296  1.5263 -0.7427
  219MOL0     H29555   9.455   1.297   4.581  3.3614  2.1739 -0.9664
  219MOL0     H29556   9.323   1.406   4.618  1.7758  1.8368 -2.5960
  219MOL0     H29557   9.333   1.329   4.869 -1.4874 -0.4122 -1.1601
  219MOL0     H29558   9.487   1.258   4.823 -0.5255  2.6374  2.2287
  219MOL0     H29559   9.226   1.169   4.710  2.7743  2.8121 -3.1040
  219MOL0     H29560   9.373   1.093   4.672  0.7370  1.2842 -1.4381
  219MOL0     H29561   9.298   0.969   5.084  0.3353 -2.1022 -0.0119
  219MOL0     H29562   9.673   1.671   4.736 -0.3888  3.4317 -2.2824
  219MOL0     H29563   9.961   1.890   4.748 -0.7143  1.2186  0.7590
  219MOL0     H29564   9.805   1.926   4.667  1.4905 -1.1818 -2.0744
  219MOL0     H29565   9.814   1.848   4.831  0.8610  3.8789  0.9486
  220MOL0     O29566   5.994   4.214   7.681 -0.0824  0.0471  0.8523
  220MOL0     C29567   5.903   4.133   7.702 -0.2109 -0.3467 -0.5223
  220MOL0     O29568   5.840   4.067   7.597 -0.2242 -0.0877 -0.8433
  220MOL0     C29569   5.877   4.095   7.466 -0.8691 -0.8369 -0.4409
  220MOL0     C29570   5.851   4.222   7.417  0.7077 -0.6662  0.0714
  220MOL0     C29571   5.902   4.255   7.293  0.0105 -0.3889  0.2380
  220MOL0     C29572   5.965   4.167   7.217  0.6408 -0.5282  0.1751
  220MOL0     O29573   6.029   4.206   7.099  0.2695  0.3126  0.1042
  220MOL0     C29574   6.013   4.344   7.058 -0.2188 -0.3085  0.0701
  220MOL0     C29575   6.093   4.385   6.932  0.1726  0.0934 -0.5499
  220MOL0     C29576   6.099   4.540   6.919  0.7445 -0.0387 -0.7717
  220MOL0     C29577   6.226   4.579   6.838  0.7246  0.5912  1.2673
  220MOL0     C29578   6.249   4.734   6.812 -0.2453 -0.1608  0.0465
  220MOL0     C29579   6.362   4.732   6.706  0.2924 -0.0316  0.0720
  220MOL0     C29580   6.426   4.873   6.689 -0.9529  0.5129 -0.4598
  220MOL0     C29581   6.535   4.895   6.801  0.0666  0.0487  0.5536
  220MOL0     N29582   6.582   5.028   6.795  0.6055 -0.3704 -0.2396
  220MOL0     C29583   6.547   5.117   6.893 -0.4896 -0.1069 -0.1053
  220MOL0     C29584   6.585   5.238   6.837  0.8153  0.5437 -0.3973
  220MOL0     C29585   6.578   5.373   6.901  0.0089  0.6606  0.1134
  220MOL0     C29586   6.722   5.413   6.949 -0.4882  0.8463  0.9059
  220MOL0     C29587   6.735   5.535   7.036 -0.1987  0.7749 -0.3592
  220MOL0     C29588   6.878   5.559   7.084 -0.8586  0.2948  0.3689
  220MOL0     O29589   6.879   5.653   7.190  0.4010  0.3173  0.1622
  220MOL0     C29590   6.995   5.664   7.258  0.3983  0.4483  0.0026
  220MOL0     C29591   7.101   5.740   7.212 -0.2369 -0.5240  0.8498
  220MOL0     C29592   7.210   5.764   7.285 -0.3416  0.7250 -1.0083
  220MOL0     C29593   7.224   5.709   7.423  0.1048  0.2399  0.4718
  220MOL0     C29594   7.350   5.736   7.500  0.6200  0.0951  0.5070
  220MOL0     O29595   7.449   5.802   7.433 -0.3321  0.0356  0.3103
  220MOL0     C29596   7.571   5.790   7.490 -0.3975 -0.0049 -0.1488
  220MOL0     C29597   7.645   5.908   7.507 -0.0478 -0.2632 -1.0117
  220MOL0     C29598   7.780   5.896   7.557 -0.3459  0.3205 -0.4072
  220MOL0     C29599   7.841   5.772   7.583 -0.3783 -0.7226 -0.4125
  220MOL0     O29600   7.970   5.775   7.631  0.0071 -0.1178  0.3906
  220MOL0     C29601   7.987   5.771   7.777 -0.4901  0.2069  0.1999
  220MOL0     C29602   8.067   5.650   7.829 -1.2984  0.5539  0.7247
  220MOL0     C29603   8.195   5.634   7.738  0.1870 -0.7675 -0.2454
  220MOL0     C29604   8.236   5.488   7.738  0.2985 -0.3248  0.1339
  220MOL0     C29605   8.152   5.400   7.647  0.3054 -0.1576 -0.3081
  220MOL0     C29606   8.215   5.267   7.633 -0.5843  0.3585  0.5926
  220MOL0     C29607   8.147   5.189   7.529  0.3686  0.3883  0.0248
  220MOL0     C29608   8.193   5.041   7.522  0.0502 -0.1349 -0.6437
  220MOL0    Cl29609   8.078   4.940   7.429 -0.2596  0.0688  0.2373
  220MOL0     C29610   7.771   5.652   7.563  0.4972 -0.3393  1.1583
  220MOL0     C29611   7.640   5.671   7.516 -0.2154  1.1765  0.0095
  220MOL0     O29612   7.351   5.683   7.604  0.1355 -0.3080 -0.1424
  220MOL0     C29613   7.121   5.621   7.467  0.5075 -0.0839  0.2374
  220MOL0     C29614   7.008   5.598   7.379 -0.3228 -0.1279 -0.3082
  220MOL0     N29615   6.641   5.225   6.711  0.8357  0.6061 -0.0106
  220MOL0     N29616   6.642   5.097   6.691  1.0722  0.3002  0.1622
  220MOL0     C29617   5.983   4.035   7.257 -0.3529 -0.6909  0.0016
  220MOL0     C29618   5.941   3.998   7.384  0.2460  0.1101 -0.2951
  220MOL0     C29619   5.841   4.122   7.830  0.4264 -0.3743 -0.3702
  220MOL0     C29620   5.710   4.071   7.834 -0.8319 -0.4764 -0.2248
  220MOL0     C29621   5.639   4.058   7.955  0.2452  0.6214 -0.5734
  220MOL0     C29622   5.704   4.091   8.070 -0.0557 -0.1469  0.4725
  220MOL0     O29623   5.652   4.092   8.193 -0.1202  0.5876 -1.3536
  220MOL0     C29624   5.520   4.051   8.234 -0.1338 -0.6994 -0.1239
  220MOL0     C29625   5.417   4.151   8.198 -0.0023  0.9710  0.2576
  220MOL0     C29626   5.279   4.120   8.262  0.1671  0.9331  0.3896
  220MOL0     C29627   5.215   3.992   8.204  0.0266  0.5482  0.2008
  220MOL0     C29628   5.199   3.997   8.056 -0.0606 -0.2431 -0.0386
  220MOL0     C29629   5.188   3.973   7.938 -1.0281  0.3015 -0.2775
  220MOL0     C29630   5.833   4.143   8.067 -0.3428 -0.0790  0.2138
  220MOL0     C29631   5.902   4.159   7.951  0.0393 -0.9623 -0.2818
  220MOL0     C29632   6.049   4.204   7.961  0.2615 -0.0917  0.0528
  220MOL0     H29633   5.795   4.292   7.478 -0.3474 -1.3984 -0.0305
  220MOL0     H29634   5.885   4.356   7.258  1.4752  0.0686  0.7478
  220MOL0     H29635   5.908   4.370   7.041  0.1290  1.2410  0.0509
  220MOL0     H29636   6.044   4.413   7.137 -1.8065  1.1886 -0.5525
  220MOL0     H29637   6.049   4.344   6.841  1.8371  1.1217 -1.8737
  220MOL0     H29638   6.193   4.344   6.946  1.5584  3.1654 -0.5519
  220MOL0     H29639   6.112   4.586   7.018  3.2394 -0.1383 -0.9938
  220MOL0     H29640   6.008   4.592   6.888  2.0898  1.0369 -3.2828
  220MOL0     H29641   6.313   4.533   6.886  1.7139  0.3914 -0.6119
  220MOL0     H29642   6.220   4.531   6.739  2.3611 -0.6720  1.7315
  220MOL0     H29643   6.159   4.787   6.779  0.7728  2.9049  1.7500
  220MOL0     H29644   6.284   4.784   6.903 -1.5687  0.9131 -0.0069
  220MOL0     H29645   6.435   4.662   6.750 -0.9102  0.7655  3.6566
  220MOL0     H29646   6.335   4.682   6.612  2.3906 -1.7041  0.2660
  220MOL0     H29647   6.351   4.952   6.679  0.2130  1.6978 -0.0488
  220MOL0     H29648   6.479   4.885   6.595 -0.3932 -1.6125 -0.4623
  220MOL0     H29649   6.496   4.873   6.901  0.2668  0.5755  0.7502
  220MOL0     H29650   6.622   4.834   6.775  1.3195  1.1752  1.9188
  220MOL0     H29651   6.487   5.093   6.980 -0.4776 -0.9388 -0.3115
  220MOL0     H29652   6.540   5.449   6.831  1.2605 -1.3757 -3.0349
  220MOL0     H29653   6.507   5.370   6.983 -2.1113  0.2555 -1.6332
  220MOL0     H29654   6.763   5.329   7.006  4.4991  1.5175 -1.1663
  220MOL0     H29655   6.792   5.418   6.864 -2.2032 -2.0523 -0.8695
  220MOL0     H29656   6.666   5.509   7.116  2.2754 -4.4706  0.5020
  220MOL0     H29657   6.691   5.620   6.982 -0.5352  2.1591  1.9649
  220MOL0     H29658   6.943   5.595   7.004 -0.7290  3.5978  1.7959
  220MOL0     H29659   6.928   5.466   7.114  0.5326  0.5878 -0.9078
  220MOL0     H29660   7.103   5.778   7.111 -1.3759 -0.6798  0.7572
  220MOL0     H29661   7.296   5.819   7.250  1.9903 -0.8916  1.7010
  220MOL0     H29662   7.596   5.998   7.471 -2.7505 -1.5831 -0.8948
  220MOL0     H29663   7.836   5.988   7.569 -0.2923  0.3446 -0.8193
  220MOL0     H29664   8.027   5.865   7.815  0.7248 -0.3417  0.3304
  220MOL0     H29665   7.891   5.759   7.829 -0.8359 -0.4145 -0.5465
  220MOL0     H29666   8.102   5.670   7.930 -0.2551 -0.2941  0.5481
  220MOL0     H29667   8.011   5.556   7.827 -0.4653  0.0510 -0.3950
  220MOL0     H29668   8.176   5.677   7.639 -0.4453  3.8147  1.6295
  220MOL0     H29669   8.274   5.699   7.776  1.2099 -1.9989 -0.2044
  220MOL0     H29670   8.239   5.434   7.833  0.1217 -0.4916  0.0449
  220MOL0     H29671   8.336   5.465   7.702 -0.3501 -2.5795 -0.3678
  220MOL0     H29672   8.150   5.450   7.550 -0.7191  2.4114  0.9626
  220MOL0     H29673   8.057   5.392   7.701  1.4459 -0.4994  1.7819
  220MOL0     H29674   8.315   5.287   7.594 -1.3647  0.1255 -1.6911
  220MOL0     H29675   8.222   5.215   7.729  1.2754 -0.3788  0.0934
  220MOL0     H29676   8.164   5.243   7.436 -1.2539 -1.2437 -1.3079
  220MOL0     H29677   8.039   5.192   7.543  0.3921 -0.5662  0.4964
  220MOL0     H29678   8.298   5.041   7.491  1.2842 -0.3062  3.0752
  220MOL0     H29679   8.191   5.000   7.623  1.3972  1.6079  0.1574
  220MOL0     H29680   7.814   5.556   7.587 -1.2939 -1.3094  0.6462
  220MOL0     H29681   7.580   5.583   7.492  1.4672  0.4921 -2.0459
  220MOL0     H29682   7.127   5.560   7.557  0.2992 -0.6553 -0.1292
  220MOL0     H29683   6.931   5.532   7.416 -0.4249 -0.3236 -0.8712
  220MOL0     H29684   6.045   3.966   7.201 -0.7452 -1.6345  0.6892
  220MOL0     H29685   5.959   3.904   7.435  1.3516  0.9590  0.9477
  220MOL0     H29686   5.655   4.039   7.746 -1.4066  1.3106 -0.5437
  220MOL0     H29687   5.535   4.028   7.960 -0.2780  2.5216  1.4546
  220MOL0     H29688   5.532   4.053   8.343  1.8810 -0.0677 -0.3049
  220MOL0     H29689   5.503   3.948   8.200  3.5400 -1.9860  1.3219
  220MOL0     H29690   5.410   4.145   8.089 -4.5699  0.0712  0.4072
  220MOL0     H29691   5.446   4.254   8.222 -1.2041  1.0134  1.6393
  220MOL0     H29692   5.208   4.201   8.238  0.4400  0.9313 -0.4734
  220MOL0     H29693   5.287   4.116   8.371  0.3830  1.9646  0.4218
  220MOL0     H29694   5.272   3.902   8.227  0.1077  0.8317  1.1411
  220MOL0     H29695   5.116   3.981   8.250  0.1809 -1.8837  0.1173
  220MOL0     H29696   5.186   3.962   7.831 -0.7152  0.2731 -0.2810
  220MOL0     H29697   5.880   4.184   8.156 -1.5670  3.0750 -0.4546
  220MOL0     H29698   6.064   4.298   7.908 -3.7925  1.8010  1.8365
  220MOL0     H29699   6.076   4.209   8.067 -0.9013  4.1962  0.3035
  220MOL0     H29700   6.114   4.127   7.918 -1.3799 -1.3509 -0.2745
  221MOL0     O29701   1.365   2.236  11.098  0.3239 -0.5589 -0.3714
  221MOL0     C29702   1.292   2.180  11.011 -0.4516 -0.1361 -0.2068
  221MOL0     O29703   1.344   2.114  10.895 -0.5204 -0.0555 -0.6701
  221MOL0     C29704   1.471   2.157  10.840  0.6456 -0.1885 -0.8801
  221MOL0     C29705   1.521   2.285  10.847  0.3783 -0.2584  0.2027
  221MOL0     C29706   1.639   2.312  10.781  1.0000  0.3929  0.0937
  221MOL0     C29707   1.711   2.213  10.711 -0.0437  0.4276  0.9201
  221MOL0     O29708   1.823   2.238  10.630 -0.5238  0.7196 -0.5115
  221MOL0     C29709   1.804   2.321  10.520  0.1016 -0.5010  0.3346
  221MOL0     C29710   1.931   2.409  10.507  0.2525 -0.2263 -0.3457
  221MOL0     C29711   2.057   2.332  10.486 -0.1007  0.2547  0.1633
  221MOL0     C29712   2.173   2.429  10.482  0.2870  0.3123  0.2669
  221MOL0     C29713   2.303   2.360  10.459 -1.2284 -0.2718 -0.6798
  221MOL0     C29714   2.344   2.258  10.579  1.0168 -0.7331  0.3335
  221MOL0     C29715   2.479   2.209  10.563 -1.1088  0.7766 -0.7935
  221MOL0     C29716   2.587   2.314  10.564 -0.7160 -0.3539 -0.1902
  221MOL0     N29717   2.581   2.403  10.680  0.6131  0.2573 -0.9806
  221MOL0     C29718   2.642   2.372  10.798  0.0870  0.2601  1.1370
  221MOL0     C29719   2.620   2.479  10.877 -0.7925  0.5473  0.3850
  221MOL0     C29720   2.674   2.483  11.013  0.5996  0.7864  0.3646
  221MOL0     C29721   2.808   2.545  11.021  0.2357 -0.3363  0.1086
  221MOL0     C29722   2.868   2.535  11.156 -0.0933  0.0142 -0.6617
  221MOL0     C29723   3.003   2.614  11.167  0.2655 -0.0274 -0.1013
  221MOL0     O29724   3.114   2.546  11.088  0.0313 -0.6165  0.0446
  221MOL0     C29725   3.231   2.617  11.062  0.4836  0.4034  0.9086
  221MOL0     C29726   3.218   2.721  10.973 -0.4494 -0.2028  0.2405
  221MOL0     C29727   3.331   2.772  10.910  0.0103 -0.8354  0.3128
  221MOL0     C29728   3.461   2.732  10.944  0.3151 -0.0092 -0.3003
  221MOL0     C29729   3.585   2.804  10.903 -0.9685  0.2276  0.4615
  221MOL0     O29730   3.567   2.918  10.821  0.1766  0.6708  0.1905
  221MOL0     C29731   3.670   2.996  10.776 -0.3511  0.7474 -0.0856
  221MOL0     C29732   3.649   3.132  10.778  0.0335  0.3187  0.2524
  221MOL0     C29733   3.757   3.216  10.734 -0.0009 -0.4878  0.4930
  221MOL0     C29734   3.880   3.171  10.700 -0.2427 -0.3824  0.1804
  221MOL0     O29735   3.987   3.247  10.674 -0.0932 -0.0569  0.8320
  221MOL0     C29736   3.995   3.376  10.734 -0.4368 -0.7007  0.1019
  221MOL0     C29737   4.149   3.395  10.727  0.0021 -0.8076 -0.4111
  221MOL0     C29738   4.216   3.507  10.799 -0.7544 -0.6561 -0.8552
  221MOL0     C29739   4.178   3.515  10.948  0.0766  0.2001  0.1575
  221MOL0     C29740   4.252   3.635  11.008 -0.1576 -0.1416  0.5270
  221MOL0     C29741   4.182   3.686  11.134  0.1880  1.1158  0.3541
  221MOL0     C29742   4.223   3.830  11.164 -0.4069 -0.3132  0.3968
  221MOL0     C29743   4.346   3.851  11.266  0.4511 -0.0882  0.8371
  221MOL0    Cl29744   4.294   3.853  11.433  0.1137 -0.4622  0.0486
  221MOL0     C29745   3.888   3.034  10.680 -0.7125  0.7823 -0.3084
  221MOL0     C29746   3.788   2.940  10.719 -0.9399 -0.8015  0.6748
  221MOL0     O29747   3.695   2.761  10.940 -0.1302 -0.2511  0.3371
  221MOL0     C29748   3.468   2.632  11.042  0.0097 -0.3799  0.0491
  221MOL0     C29749   3.356   2.577  11.102  0.8863 -0.0511  1.2405
  221MOL0     N29750   2.545   2.568  10.806  0.3342 -0.3682 -0.4088
  221MOL0     N29751   2.518   2.522  10.686 -0.2548 -0.3635  0.0117
  221MOL0     C29752   1.673   2.080  10.729  0.1911 -0.1512  0.1882
  221MOL0     C29753   1.545   2.056  10.783 -0.5833  0.3164 -0.5556
  221MOL0     C29754   1.151   2.167  11.041 -0.1743  0.5725 -0.4275
  221MOL0     C29755   1.101   2.211  11.165  0.8902  0.2721 -0.4102
  221MOL0     C29756   0.971   2.184  11.216 -0.1286 -0.0698  0.5860
  221MOL0     C29757   0.886   2.104  11.136 -0.0954  0.5435 -0.2999
  221MOL0     O29758   0.766   2.053  11.179  0.8455 -0.0370  0.2345
  221MOL0     C29759   0.698   2.141  11.266  0.5843 -0.5214  0.0547
  221MOL0     C29760   0.547   2.113  11.258 -0.9540  0.3809 -0.1246
  221MOL0     C29761   0.485   2.141  11.125 -0.1429  0.5963  0.7098
  221MOL0     C29762   0.328   2.140  11.117 -1.2853 -0.1267 -0.7797
  221MOL0     C29763   0.273   2.036  11.205  0.3115 -0.8302  0.3261
  221MOL0     C29764   0.207   1.949  11.262 -0.2286 -0.1260 -0.6633
  221MOL0     C29765   0.930   2.072  11.016 -0.4704  0.2046  0.2630
  221MOL0     C29766   1.055   2.099  10.961 -0.0868 -0.6270 -0.7230
  221MOL0     C29767   1.076   2.046  10.820 -0.3945 -1.2315  0.2584
  221MOL0     H29768   1.461   2.359  10.900  0.0401 -1.2598  1.2663
  221MOL0     H29769   1.666   2.417  10.772 -1.9576  1.1006 -2.6094
  221MOL0     H29770   1.794   2.266  10.426  1.3993  3.7874 -2.5856
  221MOL0     H29771   1.714   2.382  10.525 -0.6484 -1.6425  2.0514
  221MOL0     H29772   1.935   2.479  10.590 -1.1658  0.0603 -0.4972
  221MOL0     H29773   1.909   2.470  10.419  0.4270  1.1142  0.5254
  221MOL0     H29774   2.052   2.269  10.396 -1.8024 -2.8702  2.2912
  221MOL0     H29775   2.067   2.261  10.568  0.8355  0.0204 -0.1347
  221MOL0     H29776   2.161   2.489  10.390  1.1520 -0.9415 -0.6978
  221MOL0     H29777   2.181   2.482  10.577 -0.1878 -1.7397  1.4963
  221MOL0     H29778   2.297   2.309  10.362  0.2479  0.1698 -1.0330
  221MOL0     H29779   2.382   2.435  10.452 -0.3317 -0.6831  2.9389
  221MOL0     H29780   2.349   2.318  10.671 -2.2262  1.6423 -0.8281
  221MOL0     H29781   2.267   2.181  10.581 -0.9776  1.1416  0.1301
  221MOL0     H29782   2.483   2.165  10.463  0.8474  1.2687 -0.9689
  221MOL0     H29783   2.496   2.122  10.628  0.8504  1.1796 -0.7086
  221MOL0     H29784   2.689   2.275  10.565 -2.0438 -4.2776  1.3131
  221MOL0     H29785   2.569   2.372  10.473 -1.2120 -0.3590 -0.1002
  221MOL0     H29786   2.689   2.276  10.818  1.0820  1.1372  3.3322
  221MOL0     H29787   2.595   2.514  11.082 -0.5972  0.2605 -0.7177
  221MOL0     H29788   2.690   2.379  11.043  2.4006  0.9106 -0.0645
  221MOL0     H29789   2.875   2.501  10.947 -4.0021 -3.7969 -2.1234
  221MOL0     H29790   2.789   2.652  11.006 -1.2385 -0.9076 -2.8532
  221MOL0     H29791   2.886   2.430  11.182  0.3367  0.3397  0.4175
  221MOL0     H29792   2.795   2.575  11.228  0.2792 -3.3379  1.8387
  221MOL0     H29793   3.035   2.635  11.269 -1.7054 -1.1071  0.7980
  221MOL0     H29794   2.975   2.713  11.127 -3.1626  0.1724  2.3345
  221MOL0     H29795   3.124   2.762  10.937 -0.2063 -0.4493 -0.6961
  221MOL0     H29796   3.316   2.857  10.843  1.0200  2.4363  3.8742
  221MOL0     H29797   3.554   3.176  10.807  0.4650 -0.2228  2.6818
  221MOL0     H29798   3.722   3.319  10.735  0.1701 -0.4240  0.1884
  221MOL0     H29799   3.936   3.459  10.693 -0.7479 -0.7365  0.4762
  221MOL0     H29800   3.961   3.368  10.837 -1.8494 -0.4884 -0.3303
  221MOL0     H29801   4.190   3.307  10.777 -1.2255  0.6237  3.5120
  221MOL0     H29802   4.178   3.407  10.622 -0.7291  0.3665 -0.4953
  221MOL0     H29803   4.325   3.495  10.800 -0.6487  0.0202 -2.2027
  221MOL0     H29804   4.210   3.604  10.748 -1.3097 -1.3544 -2.1665
  221MOL0     H29805   4.210   3.422  10.996 -1.1780  0.8319  2.3324
  221MOL0     H29806   4.071   3.528  10.964  0.4222  2.2555  1.1128
  221MOL0     H29807   4.240   3.717  10.937  0.0300  2.1592  2.9788
  221MOL0     H29808   4.357   3.611  11.026  0.8305  0.8707 -3.1253
  221MOL0     H29809   4.076   3.691  11.108 -0.3959 -0.6310  2.1671
  221MOL0     H29810   4.195   3.626  11.224  0.5758 -0.6200 -0.8147
  221MOL0     H29811   4.144   3.897  11.202 -0.3988 -0.3249  0.4344
  221MOL0     H29812   4.257   3.881  11.073 -0.2667  0.9702  1.1427
  221MOL0     H29813   4.429   3.786  11.235 -0.2805  0.4048 -2.6325
  221MOL0     H29814   4.381   3.951  11.237  0.6858 -0.3325  0.2640
  221MOL0     H29815   3.984   2.992  10.654 -0.3510  0.4693  1.3923
  221MOL0     H29816   3.819   2.836  10.711  1.2972 -0.2887  1.6732
  221MOL0     H29817   3.565   2.606  11.083  0.0312 -1.7576 -0.8327
  221MOL0     H29818   3.362   2.494  11.172  0.6264  1.0992  2.6602
  221MOL0     H29819   1.727   1.991  10.697 -0.0417 -0.1846 -0.1192
  221MOL0     H29820   1.497   1.959  10.776 -1.6844  0.5741  2.2702
  221MOL0     H29821   1.170   2.263  11.230 -1.0015  1.1698  0.9884
  221MOL0     H29822   0.942   2.200  11.319 -1.4361  1.0484  0.0744
  221MOL0     H29823   0.723   2.248  11.261 -0.9106  0.0237  2.4240
  221MOL0     H29824   0.726   2.107  11.366  3.1556  1.3906  0.0906
  221MOL0     H29825   0.491   2.168  11.334 -2.5155  0.7371 -1.4761
  221MOL0     H29826   0.538   2.008  11.289  0.2470  0.1108 -0.6010
  221MOL0     H29827   0.526   2.068  11.055 -0.5460 -1.1169  2.1979
  221MOL0     H29828   0.517   2.234  11.077 -0.1993  0.9062  1.2619
  221MOL0     H29829   0.281   2.233  11.151 -1.5587 -1.2597  2.3479
  221MOL0     H29830   0.299   2.118  11.014  2.2739 -1.8050 -1.5764
  221MOL0     H29831   0.147   1.885  11.324  0.0499 -1.2691 -1.5235
  221MOL0     H29832   0.870   2.015  10.946 -0.3960 -0.3570  0.6535
  221MOL0     H29833   0.992   1.991  10.777  0.5579 -2.3568 -0.2440
  221MOL0     H29834   1.098   2.134  10.759  1.7797 -0.7541  1.5942
  221MOL0     H29835   1.167   1.985  10.829  0.2331 -0.0607  2.5379
  222MOL0     O29836   1.861   5.999  11.425 -0.2916  0.1682 -0.1401
  222MOL0     C29837   1.869   5.927  11.321  0.2530 -0.6592 -0.0355
  222MOL0     O29838   1.978   5.855  11.283 -0.7338 -0.0013  0.0662
  222MOL0     C29839   2.067   5.813  11.379  0.4586 -0.7528  0.1701
  222MOL0     C29840   2.044   5.693  11.452 -0.4681 -0.5345  0.3147
  222MOL0     C29841   2.142   5.650  11.543  0.9925 -0.3023  0.3030
  222MOL0     C29842   2.248   5.724  11.567 -0.6684  0.5896  0.3929
  222MOL0     O29843   2.344   5.667  11.649 -0.0770 -0.4218 -0.2415
  222MOL0     C29844   2.298   5.652  11.788  0.1925 -0.1220  1.2145
  222MOL0     C29845   2.304   5.789  11.861  0.9777 -0.5087 -0.1555
  222MOL0     C29846   2.438   5.862  11.855 -0.2290  0.5357  0.1625
  222MOL0     C29847   2.553   5.783  11.924 -0.1099  0.6685 -0.8109
  222MOL0     C29848   2.670   5.877  11.949 -0.7223 -0.2015  0.4507
  222MOL0     C29849   2.753   5.837  12.075 -0.2894 -0.7068  0.6059
  222MOL0     C29850   2.827   5.710  12.060 -0.4568  0.5128 -0.1095
  222MOL0     C29851   2.940   5.701  11.953  0.8038 -0.0715  0.3747
  222MOL0     N29852   3.022   5.811  11.977 -0.0741 -0.3288 -0.1553
  222MOL0     C29853   3.130   5.812  12.061 -0.0085 -0.5517 -0.8159
  222MOL0     C29854   3.188   5.932  12.057 -0.5857 -1.2990  0.9065
  222MOL0     C29855   3.317   5.991  12.127 -0.0712 -0.3072 -1.0818
  222MOL0     C29856   3.278   6.073  12.244 -0.9817 -0.6721 -0.2418
  222MOL0     C29857   3.391   6.078  12.355 -0.5327  0.3569 -0.3436
  222MOL0     C29858   3.506   6.170  12.317  0.1786 -1.4181  0.5725
  222MOL0     O29859   3.578   6.135  12.197 -0.5426 -0.1633 -0.7197
  222MOL0     C29860   3.693   6.208  12.161 -0.3587  0.4033  0.5466
  222MOL0     C29861   3.763   6.176  12.052  0.0347 -0.1517  0.4300
  222MOL0     C29862   3.877   6.255  12.015  0.6301  0.6677  1.3853
  222MOL0     C29863   3.924   6.352  12.096 -0.1094 -0.4294 -0.8004
  222MOL0     C29864   4.021   6.442  12.045  0.1015  0.3156 -0.9333
  222MOL0     O29865   4.068   6.538  12.133  0.2406  0.2598 -0.1546
  222MOL0     C29866   4.175   6.618  12.105 -0.5494 -0.4862  0.1385
  222MOL0     C29867   4.262   6.646  12.208  1.7873  0.2506  0.6989
  222MOL0     C29868   4.379   6.726  12.190 -0.3431  0.5004 -0.0389
  222MOL0     C29869   4.416   6.750  12.058 -0.3037  0.1075  0.2969
  222MOL0     O29870   4.544   6.799  12.034 -1.1198  0.3547  0.1575
  222MOL0     C29871   4.568   6.937  11.995  0.6724  0.0285  0.1564
  222MOL0     C29872   4.710   6.992  11.995 -0.3965 -0.2850 -0.2565
  222MOL0     C29873   4.783   6.945  11.872  0.2583 -0.1884 -0.1301
  222MOL0     C29874   4.931   6.995  11.872 -0.1074 -0.0789 -0.1590
  222MOL0     C29875   5.004   6.949  11.736  0.0392  0.7428 -0.4436
  222MOL0     C29876   5.157   6.936  11.753 -0.6805 -0.4643  0.9941
  222MOL0     C29877   5.213   6.875  11.624 -0.6833 -0.2469 -0.4295
  222MOL0     C29878   5.364   6.858  11.649  0.3728  0.2819  1.3519
  222MOL0    Cl29879   5.426   6.820  11.490  0.3805  0.3039 -0.2988
  222MOL0     C29880   4.325   6.731  11.956 -0.1859 -1.0708  0.1741
  222MOL0     C29881   4.208   6.670  11.978 -0.2628  0.8805 -0.2287
  222MOL0     O29882   4.066   6.419  11.936 -0.0199 -0.6747  0.2206
  222MOL0     C29883   3.850   6.389  12.208  0.4669 -0.5384 -0.4636
  222MOL0     C29884   3.741   6.316  12.238  0.0399  0.2644 -0.0501
  222MOL0     N29885   3.106   6.008  11.970  0.5810 -0.6407  0.6874
  222MOL0     N29886   3.020   5.929  11.920 -0.3753 -0.1143 -0.4026
  222MOL0     C29887   2.274   5.851  11.498 -0.5218  0.4751  0.1322
  222MOL0     C29888   2.181   5.892  11.408 -0.5496  0.2416  0.1169
  222MOL0     C29889   1.766   5.936  11.216  0.4292 -0.3477  0.6814
  222MOL0     C29890   1.768   5.848  11.105  0.2313 -0.1660 -0.5437
  222MOL0     C29891   1.658   5.838  11.020  0.3197  0.3532  0.5324
  222MOL0     C29892   1.540   5.906  11.040 -0.1354 -0.0181 -0.9247
  222MOL0     O29893   1.442   5.900  10.942  0.6401 -0.2951  0.0437
  222MOL0     C29894   1.305   5.957  10.964  0.4840 -0.6594  0.3800
  222MOL0     C29895   1.224   5.867  11.060 -0.5264 -0.6746  0.4573
  222MOL0     C29896   1.107   5.962  11.119 -0.5084 -0.1054  0.6207
  222MOL0     C29897   1.021   5.887  11.227  0.2525 -0.0728 -0.3992
  222MOL0     C29898   0.936   5.786  11.178  1.2456  0.1646  0.2079
  222MOL0     C29899   0.872   5.688  11.144 -0.4384 -0.1832 -0.7332
  222MOL0     C29900   1.538   6.008  11.142  0.3142  1.6627  0.0082
  222MOL0     C29901   1.643   6.019  11.227 -0.8023 -0.1581 -0.3357
  222MOL0     C29902   1.617   6.119  11.332  0.5832 -0.0069 -0.5133
  222MOL0     H29903   1.957   5.629  11.448  0.5897 -2.1141  1.2292
  222MOL0     H29904   2.130   5.553  11.590  1.7334 -0.5823 -0.0556
  222MOL0     H29905   2.201   5.601  11.787  0.1450 -0.0719 -0.9675
  222MOL0     H29906   2.366   5.578  11.831  1.1424 -0.5688 -0.9051
  222MOL0     H29907   2.274   5.780  11.966  1.9563 -0.2658  0.1615
  222MOL0     H29908   2.233   5.860  11.818 -0.3875  0.3068  3.1159
  222MOL0     H29909   2.440   5.966  11.889  1.4869  1.1846 -1.7123
  222MOL0     H29910   2.457   5.871  11.748 -1.2969 -0.2797 -0.1100
  222MOL0     H29911   2.512   5.746  12.018  0.9312  2.1005  0.2452
  222MOL0     H29912   2.580   5.688  11.876  3.0552  1.9803 -1.9333
  222MOL0     H29913   2.721   5.866  11.852  0.4462 -3.0312  1.2737
  222MOL0     H29914   2.646   5.982  11.965  1.1145  0.3569 -0.1805
  222MOL0     H29915   2.818   5.923  12.095 -1.6734  0.5879 -0.2675
  222MOL0     H29916   2.682   5.838  12.159  0.4413 -0.5645  1.2374
  222MOL0     H29917   2.763   5.622  12.057  2.8863 -2.0827 -1.1643
  222MOL0     H29918   2.887   5.700  12.151 -0.3732  1.7698 -0.0053
  222MOL0     H29919   2.995   5.607  11.959 -0.3952 -0.7072  2.7875
  222MOL0     H29920   2.901   5.718  11.852  0.1955  2.7117  1.0202
  222MOL0     H29921   3.163   5.726  12.118  0.9880 -0.7521 -1.6505
  222MOL0     H29922   3.391   5.915  12.152  3.6204  2.1763 -3.4363
  222MOL0     H29923   3.361   6.058  12.052 -0.7265  2.5067  0.8639
  222MOL0     H29924   3.245   6.172  12.210 -0.5115 -0.3758  0.1649
  222MOL0     H29925   3.199   6.022  12.299  2.1075 -0.2478  5.2947
  222MOL0     H29926   3.426   5.975  12.369 -3.2458 -0.5340  0.3953
  222MOL0     H29927   3.348   6.110  12.450  3.1522  0.9912  1.2936
  222MOL0     H29928   3.575   6.178  12.401  1.8686  1.1876 -0.9129
  222MOL0     H29929   3.461   6.269  12.301  2.7609 -0.3936 -1.0034
  222MOL0     H29930   3.731   6.091  11.994 -0.6844  1.2887 -1.3906
  222MOL0     H29931   3.923   6.241  11.917 -3.2130  1.9336 -0.8329
  222MOL0     H29932   4.229   6.628  12.310  1.8510  0.6531  0.7939
  222MOL0     H29933   4.442   6.747  12.276  0.1283 -1.5835  0.1711
  222MOL0     H29934   4.527   6.946  11.894 -2.9931 -2.0605  1.2955
  222MOL0     H29935   4.510   7.005  12.058  0.5306  0.0531 -0.0003
  222MOL0     H29936   4.711   7.101  11.991 -3.8041 -0.0079  1.8952
  222MOL0     H29937   4.761   6.973  12.090 -3.0041 -1.1755  1.0660
  222MOL0     H29938   4.784   6.836  11.864 -0.6323 -0.3517  1.5442
  222MOL0     H29939   4.727   6.965  11.781 -2.4378 -0.9295  1.2689
  222MOL0     H29940   4.977   6.942  11.956  0.8565 -3.1964 -2.4602
  222MOL0     H29941   4.938   7.102  11.894 -1.0427 -0.6115  3.3688
  222MOL0     H29942   4.977   7.021  11.658  1.0663  2.9792  1.1745
  222MOL0     H29943   4.960   6.852  11.710 -0.6130  0.9396 -0.0836
  222MOL0     H29944   5.212   7.028  11.773 -2.6439  0.8600  0.5548
  222MOL0     H29945   5.189   6.858  11.823  0.3680 -2.0456 -1.1514
  222MOL0     H29946   5.184   6.939  11.541 -1.8356 -1.2140 -0.8006
  222MOL0     H29947   5.156   6.782  11.615 -1.6980  0.5476 -3.4715
  222MOL0     H29948   5.410   6.948  11.692 -2.4001  3.1143 -1.1610
  222MOL0     H29949   5.390   6.768  11.706  1.8789 -0.5558 -0.5210
  222MOL0     H29950   4.356   6.769  11.860  2.0076 -2.1314  0.3806
  222MOL0     H29951   4.145   6.653  11.891  1.7277  2.1241 -2.0048
  222MOL0     H29952   3.861   6.476  12.271  0.2540  0.2202 -1.4485
  222MOL0     H29953   3.679   6.335  12.325  0.3706 -2.1154  0.7899
  222MOL0     H29954   2.356   5.921  11.507 -1.0486  1.3679 -1.5639
  222MOL0     H29955   2.186   5.987  11.356 -1.1364 -0.6310 -1.6400
  222MOL0     H29956   1.850   5.780  11.085  2.2530  2.0520 -0.1296
  222MOL0     H29957   1.661   5.788  10.924 -2.7896  2.3474 -0.7713
  222MOL0     H29958   1.265   5.967  10.863  2.8993  2.1285 -0.4516
  222MOL0     H29959   1.319   6.058  11.004 -3.1273  0.0536  0.1877
  222MOL0     H29960   1.280   5.820  11.141 -1.6263 -0.0024  1.6383
  222MOL0     H29961   1.176   5.782  11.010 -0.5000 -1.5238  1.8369
  222MOL0     H29962   1.043   5.993  11.036 -1.1651  2.7269  2.0770
  222MOL0     H29963   1.147   6.056  11.157  0.0445 -0.0035 -0.1836
  222MOL0     H29964   1.100   5.854  11.295  0.2324 -2.6089 -1.4672
  222MOL0     H29965   0.954   5.956  11.280  0.8487 -0.6005  1.1016
  222MOL0     H29966   0.815   5.606  11.103 -0.8255 -0.0393 -0.4871
  222MOL0     H29967   1.441   6.046  11.174  0.0516  3.9503 -3.0411
  222MOL0     H29968   1.687   6.201  11.316  0.6339 -0.0293 -0.4065
  222MOL0     H29969   1.513   6.153  11.329  0.0779 -1.4610 -0.4371
  222MOL0     H29970   1.629   6.076  11.432  0.4202 -0.2566 -0.5983
  223MOL0     O29971  11.081   1.773   1.406  0.0607 -0.1199 -0.3360
  223MOL0     C29972  11.116   1.773   1.287  0.1636 -0.3599  0.6405
  223MOL0     O29973  11.114   1.667   1.207 -0.0929 -0.3431 -0.7414
  223MOL0     C29974  11.021   1.570   1.215  0.4140 -0.2096 -0.0446
  223MOL0     C29975  11.046   1.442   1.177 -0.7096  0.2054 -0.8673
  223MOL0     C29976  10.956   1.337   1.204 -0.6627 -0.0155  0.4458
  223MOL0     C29977  10.832   1.354   1.255  0.1124 -0.2505  0.5481
  223MOL0     O29978  10.742   1.246   1.254 -0.3492  0.1385  0.0975
  223MOL0     C29979  10.681   1.220   1.379 -0.5312 -0.1176  0.2752
  223MOL0     C29980  10.608   1.087   1.350  0.0320 -0.8123 -0.5219
  223MOL0     C29981  10.499   1.053   1.450 -0.4362 -0.2576 -0.2601
  223MOL0     C29982  10.420   0.933   1.388 -0.4393 -0.7902 -0.2759
  223MOL0     C29983  10.290   0.906   1.474 -0.1311  0.2671  0.7512
  223MOL0     C29984  10.192   0.801   1.412 -0.5054 -0.2637  0.2762
  223MOL0     C29985  10.080   0.856   1.326  0.0418 -0.3652  0.1322
  223MOL0     C29986  10.121   0.890   1.182 -0.4063 -0.7919  0.4575
  223MOL0     N29987   9.999   0.907   1.105  0.3302  0.6509 -0.3048
  223MOL0     C29988   9.924   0.807   1.044 -0.2692 -0.0797 -0.5832
  223MOL0     C29989   9.813   0.870   0.991  0.4764 -0.9309 -0.8703
  223MOL0     C29990   9.691   0.810   0.932  0.0225 -0.1837  0.1878
  223MOL0     C29991   9.607   0.761   1.054  0.4438  0.5704 -0.6002
  223MOL0     C29992   9.477   0.673   1.010 -0.1783 -0.4544 -0.9262
  223MOL0     C29993   9.376   0.776   0.937 -0.9120 -0.8512 -0.0019
  223MOL0     O29994   9.327   0.881   1.030  0.7545 -0.5262 -0.2599
  223MOL0     C29995   9.246   0.831   1.130  0.1667 -0.3312 -0.2390
  223MOL0     C29996   9.256   0.883   1.259 -0.3094  0.6277 -0.2749
  223MOL0     C29997   9.190   0.845   1.366 -0.0563  0.8777 -0.2792
  223MOL0     C29998   9.086   0.744   1.350  0.0763 -0.0088 -0.3772
  223MOL0     C29999   8.993   0.695   1.462 -0.5396  0.0278 -0.2527
  223MOL0     O30000   9.036   0.693   1.593  0.3929  0.2668  0.6544
  223MOL0     C30001   8.965   0.619   1.679  0.4914 -0.5582 -0.2907
  223MOL0     C30002   8.930   0.696   1.792  0.8597  0.3598  1.4350
  223MOL0     C30003   8.873   0.636   1.897  0.3821 -0.3766 -0.6211
  223MOL0     C30004   8.837   0.499   1.897  0.3695  0.2309  0.1468
  223MOL0     O30005   8.771   0.435   2.000  0.3008 -0.4678  0.2790
  223MOL0     C30006   8.711   0.518   2.102 -0.4844  0.1355  0.1908
  223MOL0     C30007   8.648   0.437   2.207  0.9225  0.1192 -0.3010
  223MOL0     C30008   8.524   0.503   2.269 -0.1843  0.3186  0.2158
  223MOL0     C30009   8.470   0.409   2.379  1.4510  0.8159  0.6231
  223MOL0     C30010   8.370   0.475   2.467 -0.6505 -0.2077  1.1875
  223MOL0     C30011   8.323   0.397   2.594 -0.2133  0.4354 -0.3314
  223MOL0     C30012   8.205   0.473   2.652 -0.5170  0.2156  0.2480
  223MOL0     C30013   8.155   0.408   2.775 -0.1362 -0.0013 -0.4506
  223MOL0    Cl30014   8.070   0.259   2.714  0.7264  0.8185 -0.2785
  223MOL0     C30015   8.876   0.419   1.785 -0.4598 -0.3119 -0.3113
  223MOL0     C30016   8.940   0.485   1.676 -0.8670  0.4926  0.1693
  223MOL0     O30017   8.888   0.645   1.428 -0.3204 -0.3836  0.1685
  223MOL0     C30018   9.061   0.710   1.223 -0.5746  0.5368  0.9653
  223MOL0     C30019   9.138   0.750   1.114  1.1924  0.1968 -0.4984
  223MOL0     N30020   9.815   0.997   1.029  0.1829 -0.1405  0.3046
  223MOL0     N30021   9.929   1.018   1.089 -0.0176 -0.2435 -0.3808
  223MOL0     C30022  10.797   1.484   1.273 -0.3015 -1.0105 -1.1467
  223MOL0     C30023  10.890   1.591   1.267  0.0716  0.7073  0.5464
  223MOL0     C30024  11.159   1.902   1.227 -0.0818  0.0615  0.3336
  223MOL0     C30025  11.089   2.010   1.262 -0.2261 -0.2749 -0.7101
  223MOL0     C30026  11.124   2.139   1.218 -0.3382  1.2416  0.5663
  223MOL0     C30027  11.221   2.153   1.117  0.2843  0.3787 -0.3984
  223MOL0     O30028  11.258   2.273   1.053  0.4400 -0.1314 -0.5091
  223MOL0     C30029  11.219   2.402   1.112 -0.1903 -0.0579 -0.0575
  223MOL0     C30030  11.273   2.521   1.019 -0.0478 -0.4831  0.0445
  223MOL0     C30031  11.218   2.663   1.051 -0.1645 -0.5118  1.0428
  223MOL0     C30032  11.245   2.773   0.945 -0.0442  0.2476 -0.8654
  223MOL0     C30033  11.380   2.770   0.894  0.0049 -0.2513  0.0713
  223MOL0     C30034  11.496   2.768   0.855  0.2701 -0.1546  0.7211
  223MOL0     C30035  11.283   2.040   1.069 -0.0940 -0.0523 -0.3558
  223MOL0     C30036  11.257   1.915   1.126 -0.3572  0.1444  0.3259
  223MOL0     C30037  11.353   1.804   1.086 -0.1740 -0.1311 -0.3407
  223MOL0     H30038  11.143   1.420   1.133 -0.6171 -0.3431 -0.3966
  223MOL0     H30039  10.990   1.235   1.191  2.0895  1.1377 -2.8748
  223MOL0     H30040  10.735   1.210   1.473  0.9659  1.1110 -0.4202
  223MOL0     H30041  10.605   1.298   1.392 -0.6503 -0.2406  0.3254
  223MOL0     H30042  10.683   1.008   1.356 -2.2925 -3.1103  0.1924
  223MOL0     H30043  10.552   1.094   1.256 -2.5206 -0.8910  0.8866
  223MOL0     H30044  10.437   1.143   1.456 -2.2961 -1.2534 -3.0170
  223MOL0     H30045  10.547   1.030   1.546 -0.2872 -2.2378 -0.7714
  223MOL0     H30046  10.390   0.956   1.285 -2.3250  0.4744  0.5137
  223MOL0     H30047  10.480   0.842   1.386 -0.2955 -0.7787  1.5990
  223MOL0     H30048  10.338   0.877   1.568  3.0532  2.1718 -0.1284
  223MOL0     H30049  10.243   1.005   1.484 -1.5753 -0.3940  0.8477
  223MOL0     H30050  10.253   0.728   1.358  0.8847  1.6080 -0.8302
  223MOL0     H30051  10.149   0.752   1.500 -1.0638  0.9385  0.6955
  223MOL0     H30052  10.027   0.943   1.365  0.4162 -0.5531  1.0944
  223MOL0     H30053  10.005   0.777   1.327 -1.4274  0.9533 -0.8524
  223MOL0     H30054  10.184   0.978   1.203 -1.3205 -0.0712  0.2621
  223MOL0     H30055  10.180   0.810   1.137 -0.1267  0.1844 -1.0256
  223MOL0     H30056   9.943   0.701   1.040  3.1493  0.3601  0.4569
  223MOL0     H30057   9.633   0.862   0.855 -2.4985  0.4275  2.3560
  223MOL0     H30058   9.729   0.728   0.871 -3.7713  0.5200 -3.6167
  223MOL0     H30059   9.667   0.697   1.118 -2.1346 -2.5957 -1.0743
  223MOL0     H30060   9.590   0.847   1.119  0.1816 -1.5034  2.2564
  223MOL0     H30061   9.427   0.637   1.100  2.8313  2.0828  2.0492
  223MOL0     H30062   9.497   0.588   0.944 -0.3728 -0.1822 -1.3418
  223MOL0     H30063   9.288   0.721   0.903 -2.2702  0.9012  0.5502
  223MOL0     H30064   9.410   0.811   0.840 -0.6112 -2.9169 -0.6924
  223MOL0     H30065   9.345   0.946   1.262  0.6127 -0.5896 -0.9095
  223MOL0     H30066   9.223   0.883   1.462  0.9936 -2.0607  0.6282
  223MOL0     H30067   8.952   0.802   1.787  2.5618 -0.0094 -1.7949
  223MOL0     H30068   8.840   0.697   1.980  0.0575  0.6650 -1.5021
  223MOL0     H30069   8.790   0.576   2.151  0.2754 -1.3601  0.8019
  223MOL0     H30070   8.635   0.587   2.065 -0.2020  1.0131  1.1819
  223MOL0     H30071   8.620   0.334   2.180 -1.9896  0.1464  2.0124
  223MOL0     H30072   8.723   0.420   2.284 -0.0183 -0.4741  0.5192
  223MOL0     H30073   8.562   0.596   2.311  3.1912 -1.0160  0.3936
  223MOL0     H30074   8.451   0.499   2.188  0.3628  0.1297 -0.2687
  223MOL0     H30075   8.557   0.372   2.435  1.9188  1.1328  0.1066
  223MOL0     H30076   8.423   0.324   2.329  3.3196  1.0417 -1.6474
  223MOL0     H30077   8.287   0.497   2.400  1.8330 -0.0341 -2.0913
  223MOL0     H30078   8.418   0.566   2.505  0.9242 -1.0051  1.1922
  223MOL0     H30079   8.292   0.295   2.573 -0.7739 -0.1532  2.9317
  223MOL0     H30080   8.399   0.399   2.672  0.4087 -3.1425 -0.6920
  223MOL0     H30081   8.124   0.498   2.582 -2.7996  0.2048  2.7168
  223MOL0     H30082   8.233   0.575   2.680 -1.0189  1.5665 -3.5837
  223MOL0     H30083   8.233   0.386   2.848  1.8305  1.2946 -2.0770
  223MOL0     H30084   8.079   0.467   2.828 -1.7231  0.6987 -3.3106
  223MOL0     H30085   8.827   0.326   1.761 -3.3977  1.3378 -1.2325
  223MOL0     H30086   8.966   0.424   1.590  2.0658  2.3204 -0.3792
  223MOL0     H30087   8.978   0.649   1.189 -0.6575  2.6649 -3.3354
  223MOL0     H30088   9.108   0.715   1.015 -1.2066  0.6593  0.0154
  223MOL0     H30089  10.695   1.505   1.305  1.4451  0.3753  4.8046
  223MOL0     H30090  10.859   1.692   1.292  0.1928  1.0198 -0.4907
  223MOL0     H30091  11.014   2.004   1.341  0.4373  0.2354 -0.0220
  223MOL0     H30092  11.073   2.223   1.265  2.9846  0.9224  5.4216
  223MOL0     H30093  11.266   2.408   1.211 -0.3711 -0.9275  0.0852
  223MOL0     H30094  11.110   2.405   1.118 -0.1574 -0.8106  1.6293
  223MOL0     H30095  11.240   2.504   0.917  0.7624  1.8063 -0.6618
  223MOL0     H30096  11.382   2.526   1.025 -0.0940 -0.3581  1.0760
  223MOL0     H30097  11.261   2.696   1.145  0.2016  1.7438  0.1623
  223MOL0     H30098  11.112   2.665   1.077 -1.0657  2.9435 -1.9585
  223MOL0     H30099  11.176   2.750   0.864  0.4213 -1.5091 -0.8027
  223MOL0     H30100  11.228   2.872   0.988  0.6487 -0.2516  0.6491
  223MOL0     H30101  11.600   2.769   0.831  0.1510  1.4185  0.1294
  223MOL0     H30102  11.365   2.068   1.003 -0.3263  3.5589  0.6559
  223MOL0     H30103  11.364   1.737   1.172  0.6236  0.5774  0.1315
  223MOL0     H30104  11.324   1.750   0.996 -3.8996  3.3637 -1.5312
  223MOL0     H30105  11.451   1.848   1.063 -0.8502  0.9566 -1.2122
  224MOL0     O30106   5.430   7.929   8.390  0.3265  0.1605 -0.1306
  224MOL0     C30107   5.337   7.996   8.432 -0.0178  0.1872  0.1474
  224MOL0     O30108   5.289   7.994   8.560 -0.3018 -0.6318  0.3772
  224MOL0     C30109   5.361   7.987   8.675  0.1533  0.2990  0.6335
  224MOL0     C30110   5.290   7.947   8.793  0.2186  0.0816  0.6023
  224MOL0     C30111   5.364   7.925   8.909  0.4514  0.5763  0.8178
  224MOL0     C30112   5.505   7.942   8.909  0.3613 -0.5837 -0.5704
  224MOL0     O30113   5.584   7.900   9.017  0.1174  0.5216  0.6225
  224MOL0     C30114   5.718   7.954   9.036  0.3615  0.5142 -0.1823
  224MOL0     C30115   5.768   7.918   9.179  0.5385  0.2281 -0.1778
  224MOL0     C30116   5.910   7.953   9.212  1.4059  0.3893  0.0595
  224MOL0     C30117   5.981   7.874   9.318 -0.8780  0.6385 -0.0509
  224MOL0     C30118   6.130   7.928   9.330  0.4934 -1.2949  0.0458
  224MOL0     C30119   6.227   7.824   9.396 -0.3407 -0.2757  0.9441
  224MOL0     C30120   6.177   7.752   9.513  0.0417 -0.0635  1.1770
  224MOL0     C30121   6.274   7.683   9.603  1.5156  0.1262 -0.4224
  224MOL0     N30122   6.353   7.772   9.689  0.0995  0.1187  0.2488
  224MOL0     C30123   6.477   7.820   9.656 -0.8911 -0.6391 -0.3821
  224MOL0     C30124   6.523   7.869   9.778  0.1652 -0.2786  0.2207
  224MOL0     C30125   6.659   7.928   9.799  0.8351 -0.6509 -0.2375
  224MOL0     C30126   6.759   7.855   9.719  1.2796  1.3648  0.6018
  224MOL0     C30127   6.777   7.695   9.746  1.4451 -1.1720  0.0469
  224MOL0     C30128   6.903   7.638   9.671  0.5606  0.2296 -0.0494
  224MOL0     O30129   7.017   7.676   9.747 -0.1287 -0.0801 -0.2628
  224MOL0     C30130   7.139   7.665   9.700 -0.0715  0.5345  0.1000
  224MOL0     C30131   7.244   7.675   9.792 -0.3550  0.4299 -0.0288
  224MOL0     C30132   7.379   7.677   9.761  0.5235 -0.4388  0.0650
  224MOL0     C30133   7.414   7.659   9.624 -0.5670  0.4598 -0.5090
  224MOL0     C30134   7.549   7.658   9.574 -0.1773  0.0582 -1.0988
  224MOL0     O30135   7.649   7.702   9.662 -0.6975  0.0073 -0.5022
  224MOL0     C30136   7.781   7.700   9.617  0.0095  0.2125 -0.5694
  224MOL0     C30137   7.843   7.829   9.594  0.2825  0.1897  0.2578
  224MOL0     C30138   7.974   7.830   9.542  0.3520 -0.6185 -0.5902
  224MOL0     C30139   8.039   7.712   9.527 -0.5444 -0.2943  0.2849
  224MOL0     O30140   8.161   7.717   9.459 -0.2269  0.4506  0.1822
  224MOL0     C30141   8.275   7.700   9.543  0.6387 -1.1647 -0.1763
  224MOL0     C30142   8.406   7.699   9.460  0.5747  0.4265 -0.3299
  224MOL0     C30143   8.533   7.744   9.534 -0.5113  0.0573 -0.1112
  224MOL0     C30144   8.652   7.732   9.432 -0.7639 -0.0438 -0.5539
  224MOL0     C30145   8.712   7.591   9.447  0.8389  0.0531 -0.0889
  224MOL0     C30146   8.844   7.581   9.381  0.7398 -1.1069  0.9249
  224MOL0     C30147   8.897   7.437   9.364  0.1106  0.5957 -0.4997
  224MOL0     C30148   9.046   7.436   9.301  0.1526 -0.2888 -0.5510
  224MOL0    Cl30149   9.122   7.277   9.313  0.3674 -0.4339 -0.3340
  224MOL0     C30150   7.994   7.591   9.565  0.6842 -0.8099  0.6420
  224MOL0     C30151   7.855   7.583   9.595  0.1034  0.6594  0.6485
  224MOL0     O30152   7.566   7.592   9.476 -0.5121  0.1002 -0.5595
  224MOL0     C30153   7.308   7.645   9.534 -0.7985  0.5827  0.2724
  224MOL0     C30154   7.174   7.654   9.566  0.6508  0.4906 -0.0866
  224MOL0     N30155   6.424   7.872   9.872  0.1755 -0.7944 -0.4586
  224MOL0     N30156   6.324   7.808   9.817 -1.3126  0.5246  0.5353
  224MOL0     C30157   5.570   7.977   8.795  0.6579  0.1565 -0.3053
  224MOL0     C30158   5.501   8.001   8.680  0.5850 -0.1233  0.7448
  224MOL0     C30159   5.248   8.067   8.333 -0.1612  0.4973  0.0337
  224MOL0     C30160   5.252   8.011   8.206 -1.0955 -0.1306  0.3986
  224MOL0     C30161   5.169   8.052   8.105  0.4997  0.4682  0.7756
  224MOL0     C30162   5.079   8.157   8.125  0.2744  0.0656  0.9176
  224MOL0     O30163   4.991   8.206   8.031  1.1176 -0.4226 -0.8815
  224MOL0     C30164   4.904   8.105   7.982  0.1786  0.2058  1.1134
  224MOL0     C30165   4.930   8.092   7.827  0.5918  0.6134 -0.5937
  224MOL0     C30166   4.840   7.982   7.774 -0.4102  0.1211 -0.0689
  224MOL0     C30167   4.687   8.024   7.756 -0.7437  0.1290  0.2506
  224MOL0     C30168   4.605   8.033   7.887  1.2026  0.5799  1.1738
  224MOL0     C30169   4.524   8.050   7.977  0.8562  0.4342  0.4468
  224MOL0     C30170   5.076   8.221   8.252  0.0432  0.6240 -0.2470
  224MOL0     C30171   5.158   8.175   8.357 -0.4688 -0.0444  0.7348
  224MOL0     C30172   5.140   8.242   8.492 -0.4315  0.4666  0.0596
  224MOL0     H30173   5.182   7.938   8.796  0.2346 -0.0082  1.0377
  224MOL0     H30174   5.312   7.893   8.998 -2.4266  3.9047  0.5862
  224MOL0     H30175   5.783   7.900   8.966  0.9571 -2.2936  2.3157
  224MOL0     H30176   5.722   8.062   9.019 -1.3622  0.9613  1.8619
  224MOL0     H30177   5.753   7.812   9.201  1.7439  0.4003  1.6896
  224MOL0     H30178   5.709   7.984   9.244  0.7207 -1.7412  2.1439
  224MOL0     H30179   5.905   8.057   9.245 -2.7794  0.9567 -1.7351
  224MOL0     H30180   5.961   7.930   9.118 -1.4979 -3.4456 -0.8476
  224MOL0     H30181   5.933   7.882   9.416 -1.6519 -1.4685 -0.2014
  224MOL0     H30182   5.983   7.769   9.289  0.1408  0.3739  0.9196
  224MOL0     H30183   6.170   7.962   9.234  0.8697  0.3660  0.7482
  224MOL0     H30184   6.126   8.017   9.394  2.5090 -0.7248 -0.5393
  224MOL0     H30185   6.256   7.744   9.327 -0.7837 -0.1312  0.5913
  224MOL0     H30186   6.308   7.886   9.436  0.1364  0.5206 -1.1085
  224MOL0     H30187   6.107   7.674   9.482  0.2736 -0.2700  1.1657
  224MOL0     H30188   6.119   7.827   9.567 -1.7278 -0.8229  0.4353
  224MOL0     H30189   6.216   7.621   9.672  2.4740  1.4074  1.6476
  224MOL0     H30190   6.337   7.611   9.551  0.5195 -0.5416 -0.7357
  224MOL0     H30191   6.521   7.814   9.556 -1.3524 -1.0393 -0.5635
  224MOL0     H30192   6.655   8.036   9.781 -3.5221 -0.0951  2.7316
  224MOL0     H30193   6.674   7.912   9.906 -2.3860 -1.2198  0.2117
  224MOL0     H30194   6.739   7.850   9.612  2.6064  0.8659  0.3558
  224MOL0     H30195   6.857   7.900   9.736  2.8117 -0.9707 -1.3626
  224MOL0     H30196   6.693   7.640   9.702  0.1092  0.9269 -0.1579
  224MOL0     H30197   6.784   7.675   9.853  3.8395 -0.0720  0.1804
  224MOL0     H30198   6.913   7.680   9.571  2.5112 -0.1048 -0.0342
  224MOL0     H30199   6.895   7.530   9.656 -1.5192  0.1092  1.5447
  224MOL0     H30200   7.214   7.690   9.896 -0.1625  1.3665 -0.1035
  224MOL0     H30201   7.444   7.698   9.845 -0.4539  1.7679  0.3340
  224MOL0     H30202   7.807   7.932   9.595  1.9325  0.8628 -1.5333
  224MOL0     H30203   8.028   7.921   9.519 -1.2693  0.7793  0.8479
  224MOL0     H30204   8.266   7.785   9.611 -2.9262 -1.7789  0.3061
  224MOL0     H30205   8.267   7.610   9.605  2.2237 -1.3239 -0.1647
  224MOL0     H30206   8.421   7.602   9.411 -0.0114  0.2030 -0.0679
  224MOL0     H30207   8.385   7.773   9.383  0.4381 -0.8910 -1.6194
  224MOL0     H30208   8.522   7.850   9.556  1.3358  0.1284  0.6421
  224MOL0     H30209   8.551   7.702   9.633 -0.6752  0.5280  0.1199
  224MOL0     H30210   8.727   7.809   9.453 -1.2101  0.2235  0.0889
  224MOL0     H30211   8.622   7.747   9.328 -0.5499  1.0871 -0.4699
  224MOL0     H30212   8.635   7.530   9.400 -2.2538  2.4980  1.3770
  224MOL0     H30213   8.714   7.556   9.551  1.7769 -0.0170 -0.1251
  224MOL0     H30214   8.846   7.629   9.283  4.7621  1.8959  2.2019
  224MOL0     H30215   8.908   7.652   9.433  0.0230  1.1973 -1.1384
  224MOL0     H30216   8.833   7.376   9.299 -2.3780  1.9306  0.5869
  224MOL0     H30217   8.902   7.383   9.459  1.6148 -1.2552 -1.5548
  224MOL0     H30218   9.038   7.456   9.194  0.3446  1.0639 -0.3206
  224MOL0     H30219   9.110   7.508   9.352 -1.6530  2.4819 -1.9966
  224MOL0     H30220   8.055   7.502   9.551  2.5618  0.5471 -0.1573
  224MOL0     H30221   7.803   7.490   9.612 -0.3422  0.8028  0.1114
  224MOL0     H30222   7.332   7.626   9.430  1.4439  0.2980  0.7781
  224MOL0     H30223   7.109   7.655   9.479  1.3705 -1.3347 -0.7010
  224MOL0     H30224   5.678   7.984   8.784  0.6384  0.1475 -0.5034
  224MOL0     H30225   5.558   8.019   8.590  3.5402 -1.7555  2.1145
  224MOL0     H30226   5.308   7.919   8.188  0.3816  0.9523 -0.8689
  224MOL0     H30227   5.174   8.005   8.008 -1.0248 -0.3993  1.0824
  224MOL0     H30228   4.801   8.129   8.010 -1.4400 -2.4596 -1.8749
  224MOL0     H30229   4.919   8.008   8.030 -3.9420  0.6267  3.7847
  224MOL0     H30230   5.033   8.058   7.814 -0.2123 -2.1093 -0.3805
  224MOL0     H30231   4.908   8.187   7.777 -1.0760  1.3674  1.4063
  224MOL0     H30232   4.843   7.896   7.841 -1.4750  0.7326  0.8195
  224MOL0     H30233   4.880   7.957   7.675  1.8674  2.1185  0.2457
  224MOL0     H30234   4.685   8.121   7.706  2.2626  0.2056  0.1459
  224MOL0     H30235   4.630   7.954   7.693 -2.0575 -0.8698  2.4224
  224MOL0     H30236   4.462   8.081   8.059  1.3991  4.5478 -0.4511
  224MOL0     H30237   5.000   8.298   8.254 -0.6611  0.0170 -1.7090
  224MOL0     H30238   5.103   8.345   8.490  1.8452  1.4061  1.9292
  224MOL0     H30239   5.073   8.192   8.562  1.5819 -2.6205  0.0021
  224MOL0     H30240   5.239   8.240   8.538 -0.5710 -1.2363  0.3300
  225MOL0     O30241   3.542  10.250   9.042 -0.3871 -0.4219  0.3318
  225MOL0     C30242   3.612  10.281   9.146  0.1296  0.5802  1.0396
  225MOL0     O30243   3.604  10.214   9.260  0.3545  0.0978  0.3539
  225MOL0     C30244   3.487  10.135   9.283 -0.5543 -0.1763  1.0203
  225MOL0     C30245   3.380  10.198   9.342 -0.6115  0.4297  0.3976
  225MOL0     C30246   3.260  10.144   9.360  0.4633  0.4541  0.2026
  225MOL0     C30247   3.243  10.007   9.314 -0.4736 -0.6001 -0.1920
  225MOL0     O30248   3.114   9.954   9.340  0.7778 -0.0228 -0.8470
  225MOL0     C30249   3.087   9.827   9.280 -0.2350 -0.3067 -0.2669
  225MOL0     C30250   2.934   9.791   9.321  0.0453  0.3928  0.2304
  225MOL0     C30251   2.853   9.828   9.201  0.7539  0.3518 -0.3633
  225MOL0     C30252   2.711   9.762   9.205 -0.8554 -0.3930  0.1718
  225MOL0     C30253   2.623   9.817   9.092  0.1124  0.3461  0.4557
  225MOL0     C30254   2.486   9.748   9.071 -0.0846  0.2137  0.3182
  225MOL0     C30255   2.395   9.781   9.185  0.5085  0.0805  0.0735
  225MOL0     C30256   2.276   9.675   9.192 -0.2837 -0.5308 -1.1896
  225MOL0     N30257   2.182   9.683   9.082  1.7608  0.4037  0.5149
  225MOL0     C30258   2.145   9.582   8.992  0.0340  1.4985 -0.1406
  225MOL0     C30259   2.070   9.646   8.894 -0.1651  0.0563 -1.2100
  225MOL0     C30260   2.004   9.585   8.773  0.4813 -0.7400 -0.0636
  225MOL0     C30261   1.892   9.478   8.793  0.8559 -0.3032 -0.1408
  225MOL0     C30262   1.826   9.415   8.666  0.1720 -0.1877  0.5553
  225MOL0     C30263   1.719   9.310   8.700  0.4556 -0.3039 -0.5269
  225MOL0     O30264   1.676   9.233   8.587 -0.4495 -0.3489 -0.5007
  225MOL0     C30265   1.572   9.285   8.506  0.6374 -0.2295 -0.8522
  225MOL0     C30266   1.569   9.228   8.375  0.2447 -0.2981 -0.0579
  225MOL0     C30267   1.468   9.255   8.284  0.1741  0.1099  0.6778
  225MOL0     C30268   1.368   9.348   8.322  0.6832 -0.4552 -0.0981
  225MOL0     C30269   1.259   9.377   8.241 -0.8135 -0.5014 -0.2817
  225MOL0     O30270   1.218   9.505   8.243 -0.0892 -0.2246 -0.3409
  225MOL0     C30271   1.106   9.537   8.167 -0.7148  0.9147 -0.2624
  225MOL0     C30272   1.132   9.640   8.078 -1.4415 -1.0622 -0.0569
  225MOL0     C30273   1.030   9.701   8.009 -0.0370  0.9367  0.2433
  225MOL0     C30274   0.895   9.659   8.022 -0.2775 -0.1126  0.6252
  225MOL0     O30275   0.785   9.707   7.949 -0.5503 -0.5890 -0.2684
  225MOL0     C30276   0.802   9.740   7.808 -1.5442  0.3485  0.1303
  225MOL0     C30277   0.671   9.728   7.718 -1.2455  0.3781  0.4317
  225MOL0     C30278   0.581   9.603   7.745 -0.8449  0.5388 -0.1354
  225MOL0     C30279   0.467   9.573   7.649  0.5275 -1.6576  0.2198
  225MOL0     C30280   0.375   9.680   7.621 -0.0659 -0.8892  0.1807
  225MOL0     C30281   0.267   9.654   7.515 -0.1090 -0.0011  0.5434
  225MOL0     C30282   0.154   9.758   7.512  0.6990 -0.3392 -0.4449
  225MOL0     C30283   0.035   9.733   7.415 -0.1660  0.2009 -0.2028
  225MOL0    Cl30284   0.048   9.803   7.259  0.3629  0.0840  0.3693
  225MOL0     C30285   0.880   9.557   8.123 -0.5233  0.2146  0.3684
  225MOL0     C30286   0.981   9.488   8.183  0.0277  0.4366  0.1973
  225MOL0     O30287   1.204   9.289   8.184  0.4093 -0.6218  0.1733
  225MOL0     C30288   1.380   9.411   8.450 -0.0861  0.2421 -0.3273
  225MOL0     C30289   1.483   9.380   8.536  1.0043  0.5126 -0.1146
  225MOL0     N30290   2.046   9.778   8.940  0.3252  0.4433  0.0649
  225MOL0     N30291   2.121   9.793   9.046  0.5072  0.3012 -0.1074
  225MOL0     C30292   3.350   9.941   9.261  0.2771 -0.1880 -0.9350
  225MOL0     C30293   3.471  10.010   9.232  0.8412 -0.7608  0.2271
  225MOL0     C30294   3.720  10.381   9.122 -0.1395  0.1428  0.4853
  225MOL0     C30295   3.777  10.394   8.989 -1.0651  0.0352  0.1308
  225MOL0     C30296   3.888  10.484   8.969 -0.1458 -0.1944  0.3317
  225MOL0     C30297   3.948  10.551   9.081 -0.5645 -0.1999 -0.4553
  225MOL0     O30298   4.052  10.639   9.054  0.4214 -0.4559  0.3481
  225MOL0     C30299   4.102  10.719   9.155 -0.3655  0.6053 -0.1492
  225MOL0     C30300   4.228  10.787   9.112 -0.5911 -0.0663 -0.0688
  225MOL0     C30301   4.214  10.872   8.981 -0.3690  0.6528 -1.0264
  225MOL0     C30302   4.339  10.960   8.969  0.6038  0.2276 -0.0060
  225MOL0     C30303   4.470  10.891   8.954  0.0314 -0.0944  0.4243
  225MOL0     C30304   4.580  10.854   8.953 -0.2864 -0.3236 -0.3686
  225MOL0     C30305   3.894  10.531   9.209  0.9343  0.7172  0.0547
  225MOL0     C30306   3.777  10.455   9.233 -0.1031  0.0701  0.1864
  225MOL0     C30307   3.708  10.451   9.373  0.1096  0.2824 -0.5856
  225MOL0     H30308   3.393  10.302   9.371 -2.1393  0.7208  0.1402
  225MOL0     H30309   3.182  10.188   9.422  0.1553 -1.8386  1.5856
  225MOL0     H30310   3.105   9.846   9.174  1.8343 -0.4558  0.0281
  225MOL0     H30311   3.154   9.748   9.314 -0.7810 -0.4390  0.5129
  225MOL0     H30312   2.910   9.846   9.413  1.1615  3.5229 -1.2188
  225MOL0     H30313   2.925   9.684   9.341 -0.0352  0.1029 -1.2932
  225MOL0     H30314   2.906   9.793   9.111  0.4747 -0.4579 -0.2193
  225MOL0     H30315   2.842   9.936   9.184  2.1471  0.0879 -3.7931
  225MOL0     H30316   2.727   9.654   9.199  2.2516 -0.3862  3.9606
  225MOL0     H30317   2.673   9.777   9.307  2.7904 -0.3020  1.6929
  225MOL0     H30318   2.610   9.923   9.115  0.9901  0.1977  1.7704
  225MOL0     H30319   2.678   9.816   8.997  0.3886 -0.1829  0.6195
  225MOL0     H30320   2.447   9.781   8.974  2.5312  0.9783 -0.5602
  225MOL0     H30321   2.506   9.643   9.048  0.5889  0.7513 -1.8094
  225MOL0     H30322   2.364   9.885   9.174  2.7756  0.9865  1.6413
  225MOL0     H30323   2.455   9.772   9.276 -2.8652  0.5219  2.5233
  225MOL0     H30324   2.326   9.579   9.175 -0.0789 -0.4035 -1.3099
  225MOL0     H30325   2.217   9.680   9.285 -0.7893 -2.6773 -1.3442
  225MOL0     H30326   2.184   9.481   8.991  0.0485  1.4506  1.8161
  225MOL0     H30327   1.966   9.669   8.714  1.1362  1.2495  2.2060
  225MOL0     H30328   2.081   9.538   8.711  0.1106  0.2366 -1.2932
  225MOL0     H30329   1.939   9.394   8.844 -0.4318 -0.7831  0.3148
  225MOL0     H30330   1.814   9.524   8.856 -1.9072 -0.8337 -2.9107
  225MOL0     H30331   1.900   9.363   8.605 -2.1920 -2.7166 -0.3492
  225MOL0     H30332   1.777   9.489   8.602  1.1816  2.5196  2.7121
  225MOL0     H30333   1.629   9.360   8.738  0.4760  0.3539 -1.3184
  225MOL0     H30334   1.759   9.242   8.776 -0.0886 -0.1665 -0.1018
  225MOL0     H30335   1.654   9.171   8.339  0.3641 -0.0857 -0.1126
  225MOL0     H30336   1.470   9.204   8.188  1.4692 -0.7489  1.1406
  225MOL0     H30337   1.237   9.668   8.073 -1.7646  0.4443  0.8810
  225MOL0     H30338   1.057   9.778   7.937 -0.0403 -0.6911 -1.5949
  225MOL0     H30339   0.844   9.841   7.813  0.7489 -0.5217 -0.1958
  225MOL0     H30340   0.882   9.679   7.765 -0.5381  2.0681 -0.5493
  225MOL0     H30341   0.617   9.822   7.726  3.0561  3.0713  0.5418
  225MOL0     H30342   0.706   9.715   7.615  0.9978 -3.3166  1.4640
  225MOL0     H30343   0.647   9.518   7.765  1.5787  2.3411 -0.0178
  225MOL0     H30344   0.540   9.615   7.846  0.9924 -1.1687  0.8874
  225MOL0     H30345   0.401   9.492   7.680 -2.9896  0.6619 -0.5863
  225MOL0     H30346   0.512   9.552   7.552  4.5672  1.6938  1.0715
  225MOL0     H30347   0.416   9.778   7.596  0.7008 -1.4457 -0.8235
  225MOL0     H30348   0.315   9.684   7.712 -0.2186 -0.2592  0.0574
  225MOL0     H30349   0.320   9.649   7.419  2.2089 -1.1775  1.7881
  225MOL0     H30350   0.217   9.559   7.537 -2.4753  1.7207  3.3670
  225MOL0     H30351   0.207   9.845   7.472  0.0085 -0.4817 -1.7143
  225MOL0     H30352   0.120   9.782   7.613 -1.6632  0.0226 -1.2762
  225MOL0     H30353   0.015   9.626   7.402 -4.3866  1.0993 -3.0584
  225MOL0     H30354  -0.053   9.782   7.458  0.7244  1.4850  0.2307
  225MOL0     H30355   0.779   9.528   8.152 -0.8516  1.9252  1.0300
  225MOL0     H30356   0.955   9.413   8.257 -2.4099  0.4195 -0.5780
  225MOL0     H30357   1.317   9.494   8.480 -0.1176 -0.1295  0.6530
  225MOL0     H30358   1.474   9.440   8.625 -4.3994  1.2381 -0.8006
  225MOL0     H30359   3.350   9.837   9.229  3.2487  0.1006 -2.2039
  225MOL0     H30360   3.562   9.961   9.199  1.8669  1.3085 -0.1515
  225MOL0     H30361   3.733  10.347   8.902  0.3111 -4.6309  1.6286
  225MOL0     H30362   3.940  10.495   8.875 -0.4979 -2.6215 -0.2195
  225MOL0     H30363   4.128  10.657   9.241 -3.0638 -1.3268 -0.6093
  225MOL0     H30364   4.014  10.773   9.190 -1.1297 -0.4016 -0.4690
  225MOL0     H30365   4.299  10.707   9.091 -2.4427 -2.1742  1.3263
  225MOL0     H30366   4.263  10.845   9.198  0.6713  0.9268 -1.1979
  225MOL0     H30367   4.138  10.951   8.977  0.9336  2.0325  0.4331
  225MOL0     H30368   4.215  10.806   8.894  1.7612  2.2079 -2.3041
  225MOL0     H30369   4.323  11.010   8.873 -1.1442  0.2950  0.2944
  225MOL0     H30370   4.340  11.035   9.048 -0.6630 -0.1020  0.3471
  225MOL0     H30371   4.686  10.843   8.939  0.4099  3.5090  0.7705
  225MOL0     H30372   3.924  10.583   9.299 -0.3881  0.4902  0.6414
  225MOL0     H30373   3.755  10.534   9.427  1.4495  0.8260 -2.4641
  225MOL0     H30374   3.600  10.468   9.366  0.2389  1.2433 -0.4122
  225MOL0     H30375   3.720  10.358   9.429  4.0093  0.4532 -0.8212
  226MOL0     O30376  10.621   3.994   0.414  0.0165  0.0585  0.9931
  226MOL0     C30377  10.634   3.904   0.494 -0.1376  0.7588  0.2916
  226MOL0     O30378  10.746   3.832   0.517 -0.5118  1.0165  0.0865
  226MOL0     C30379  10.867   3.870   0.459 -0.3908 -0.4915 -0.9247
  226MOL0     C30380  10.964   3.931   0.537  0.3571 -0.0912 -0.0568
  226MOL0     C30381  11.086   3.978   0.480  0.3339 -0.6404 -0.5468
  226MOL0     C30382  11.120   3.955   0.343 -0.8678 -0.7395 -1.3152
  226MOL0     O30383  11.238   4.001   0.302  0.1307  0.2009 -0.0789
  226MOL0     C30384  11.283   3.992   0.166  0.0122 -0.5835  0.5858
  226MOL0     C30385  11.400   4.081   0.141 -0.1918 -1.3609 -0.3902
  226MOL0     C30386  11.502   4.034   0.045 -0.0612  0.4617  0.0831
  226MOL0     C30387  11.619   4.133   0.042  0.6194 -0.5699 -0.2391
  226MOL0     C30388  11.746   4.085  -0.010  0.3592 -0.0381  1.0884
  226MOL0     C30389  11.854   4.188  -0.008 -0.2134 -0.3310  0.9221
  226MOL0     C30390  11.949   4.188  -0.134  0.2646  0.4779 -0.6199
  226MOL0     C30391  12.022   4.047  -0.157  0.3461  0.0823 -0.3368
  226MOL0     N30392  12.089   4.042  -0.287 -0.4406  0.2502  0.5005
  226MOL0     C30393  12.208   4.089  -0.327  0.7322 -0.0685  0.1844
  226MOL0     C30394  12.220   4.053  -0.459  0.0685 -1.0040  0.4004
  226MOL0     C30395  12.349   4.083  -0.536  0.2113 -1.1740 -0.1860
  226MOL0     C30396  12.318   4.159  -0.672 -0.2379 -0.1370 -0.2176
  226MOL0     C30397  12.430   4.149  -0.765  0.4205  0.1012  0.3279
  226MOL0     C30398  12.565   4.211  -0.730 -0.3580 -0.4598  0.3899
  226MOL0     O30399  12.560   4.360  -0.711 -0.1477  0.0308 -0.5662
  226MOL0     C30400  12.668   4.414  -0.653 -0.0625 -0.1472 -0.5037
  226MOL0     C30401  12.714   4.532  -0.709 -0.6675 -0.6799 -0.5292
  226MOL0     C30402  12.836   4.580  -0.659 -0.5369  0.2442 -0.5316
  226MOL0     C30403  12.917   4.516  -0.562 -0.9648 -0.1631 -0.1534
  226MOL0     C30404  13.058   4.560  -0.531  0.0853  1.0047 -0.4379
  226MOL0     O30405  13.132   4.480  -0.449  0.1775  0.0392  0.3882
  226MOL0     C30406  13.266   4.504  -0.430 -0.5389 -0.6590 -0.2201
  226MOL0     C30407  13.358   4.392  -0.461 -0.4871 -0.2511 -0.7643
  226MOL0     C30408  13.498   4.406  -0.453 -0.2916  0.3185  0.6635
  226MOL0     C30409  13.558   4.530  -0.423 -0.6033 -0.0083 -1.2331
  226MOL0     O30410  13.692   4.555  -0.408 -0.4373 -0.6193  0.6780
  226MOL0     C30411  13.781   4.453  -0.369  0.7775  0.2314 -0.8326
  226MOL0     C30412  13.908   4.521  -0.307  0.1289 -0.0939  0.4546
  226MOL0     C30413  13.971   4.590  -0.432 -0.4451 -0.2981 -0.7870
  226MOL0     C30414  14.122   4.623  -0.409 -0.1635 -0.1381 -0.1826
  226MOL0     C30415  14.161   4.750  -0.478  0.8322 -0.6093  0.3440
  226MOL0     C30416  14.161   4.730  -0.634  0.2341  0.8223 -1.0088
  226MOL0     C30417  14.215   4.851  -0.705  0.0556 -0.0951  0.1796
  226MOL0     C30418  14.249   4.825  -0.849 -0.2906 -0.0474  0.4453
  226MOL0    Cl30419  14.351   4.957  -0.936  0.3127 -0.0207  0.0746
  226MOL0     C30420  13.465   4.638  -0.398 -0.2190 -0.3130 -0.3596
  226MOL0     C30421  13.332   4.623  -0.385  0.8442 -0.4022 -0.5472
  226MOL0     O30422  13.096   4.665  -0.593 -1.2927 -0.7778 -0.2643
  226MOL0     C30423  12.860   4.404  -0.510 -0.1743  0.0513 -1.3719
  226MOL0     C30424  12.734   4.349  -0.548 -0.5754  0.0322 -0.6423
  226MOL0     N30425  12.114   3.978  -0.492  0.5159  0.0175  0.7015
  226MOL0     N30426  12.030   3.969  -0.397  0.1699 -0.3370 -0.2451
  226MOL0     C30427  11.031   3.880   0.274 -0.0029 -0.0860  0.2047
  226MOL0     C30428  10.905   3.839   0.330 -0.3056  0.7876  0.1313
  226MOL0     C30429  10.513   3.868   0.571  0.2614  0.6073  0.2740
  226MOL0     C30430  10.523   3.748   0.655 -0.8183 -0.9312 -0.3088
  226MOL0     C30431  10.419   3.707   0.728  0.6885  0.0946  0.9389
  226MOL0     C30432  10.297   3.773   0.715  0.9521  1.4366 -0.0270
  226MOL0     O30433  10.174   3.725   0.772  0.1789  0.0411 -0.0859
  226MOL0     C30434  10.175   3.596   0.848 -0.4081 -0.2826 -0.1655
  226MOL0     C30435  10.041   3.556   0.905  0.0004  0.3192 -0.5936
  226MOL0     C30436   9.927   3.555   0.801 -0.4213  0.8344 -0.2376
  226MOL0     C30437   9.798   3.530   0.863  0.8659  0.6020 -0.3108
  226MOL0     C30438   9.745   3.659   0.923  0.0442  0.6818 -0.2339
  226MOL0     C30439   9.698   3.764   0.956  0.4008 -1.0665  0.2537
  226MOL0     C30440  10.285   3.887   0.651  0.0010  0.6545 -0.5369
  226MOL0     C30441  10.392   3.943   0.573 -0.4000 -0.5110 -0.0500
  226MOL0     C30442  10.357   4.075   0.496  0.0036  0.7756  0.4227
  226MOL0     H30443  10.949   3.954   0.642  0.5016 -1.2674  0.2382
  226MOL0     H30444  11.170   4.014   0.538  1.6141 -0.3875 -2.4647
  226MOL0     H30445  11.308   3.886   0.161 -0.6356 -0.7584  0.9842
  226MOL0     H30446  11.194   4.012   0.106  2.1754  1.6866 -2.1674
  226MOL0     H30447  11.461   4.083   0.232  1.7687 -3.2244 -1.5690
  226MOL0     H30448  11.363   4.175   0.100 -0.4254 -1.7241 -1.0262
  226MOL0     H30449  11.464   4.013  -0.055  2.1049  2.1317 -1.2035
  226MOL0     H30450  11.536   3.938   0.085 -0.1509  1.0608  1.6926
  226MOL0     H30451  11.592   4.221  -0.017  1.2968 -0.1437  0.0658
  226MOL0     H30452  11.630   4.164   0.147 -3.7841  1.6294 -0.2213
  226MOL0     H30453  11.775   4.006   0.059  2.7803  0.2120  0.4559
  226MOL0     H30454  11.737   4.036  -0.107  3.4813 -0.2451  0.7915
  226MOL0     H30455  11.815   4.290  -0.006  1.9578  0.6183 -0.6433
  226MOL0     H30456  11.922   4.179   0.077  5.9692  2.1957 -3.0130
  226MOL0     H30457  12.031   4.260  -0.123  0.6994 -0.0462 -0.3891
  226MOL0     H30458  11.883   4.217  -0.216 -2.1330  1.3433  1.4693
  226MOL0     H30459  12.099   4.036  -0.080  0.5116  1.5796 -0.2619
  226MOL0     H30460  11.954   3.962  -0.158 -2.4153  2.1304  0.0028
  226MOL0     H30461  12.277   4.151  -0.271  2.7391 -1.0058 -1.1472
  226MOL0     H30462  12.416   4.138  -0.470 -0.8096 -1.8369  1.4538
  226MOL0     H30463  12.405   3.993  -0.563  0.0313 -1.0481 -1.0219
  226MOL0     H30464  12.226   4.128  -0.724 -1.0564 -0.5350  1.3967
  226MOL0     H30465  12.292   4.261  -0.644  0.3730 -0.2836  0.9706
  226MOL0     H30466  12.409   4.194  -0.863  1.6566 -3.0384 -1.5214
  226MOL0     H30467  12.429   4.041  -0.783 -0.5026 -0.5887  3.7684
  226MOL0     H30468  12.618   4.196  -0.825 -2.0485 -1.2077 -0.4704
  226MOL0     H30469  12.602   4.144  -0.651  0.6455 -0.3145  0.0624
  226MOL0     H30470  12.654   4.568  -0.791  1.2559 -3.0123 -3.1627
  226MOL0     H30471  12.880   4.669  -0.702  1.6640  0.7889  2.5568
  226MOL0     H30472  13.316   4.296  -0.488 -0.7011 -0.0550 -1.1381
  226MOL0     H30473  13.547   4.312  -0.477 -1.7632 -0.2026 -0.4906
  226MOL0     H30474  13.735   4.386  -0.296  1.9087 -0.7580 -0.9962
  226MOL0     H30475  13.815   4.388  -0.451  4.0168  2.2729 -1.2787
  226MOL0     H30476  13.883   4.598  -0.233 -0.8155  0.2231 -0.1665
  226MOL0     H30477  13.982   4.453  -0.263  1.9829  1.8155  0.4552
  226MOL0     H30478  13.987   4.542  -0.529 -1.1806  1.5640 -1.8979
  226MOL0     H30479  13.917   4.681  -0.459  0.0472  0.2783  0.1334
  226MOL0     H30480  14.182   4.541  -0.450 -0.5792 -0.5348  0.0017
  226MOL0     H30481  14.157   4.640  -0.307 -1.9098 -0.0275  0.4299
  226MOL0     H30482  14.252   4.792  -0.436  0.9127  1.2381 -1.4800
  226MOL0     H30483  14.084   4.826  -0.465  2.7469  1.5519 -0.3096
  226MOL0     H30484  14.231   4.647  -0.650  0.0001 -0.2702  2.6263
  226MOL0     H30485  14.063   4.698  -0.669 -0.7244  1.0104  1.3186
  226MOL0     H30486  14.304   4.894  -0.657  0.6051 -1.4564  0.4221
  226MOL0     H30487  14.145   4.933  -0.685  1.0547 -0.0354  4.3452
  226MOL0     H30488  14.304   4.733  -0.868 -0.5909 -0.0512 -0.4479
  226MOL0     H30489  14.153   4.806  -0.897 -0.6832 -3.2466  2.1971
  226MOL0     H30490  13.522   4.729  -0.379 -1.9115  0.8123 -0.4414
  226MOL0     H30491  13.253   4.698  -0.377  2.2573  0.8952  2.8232
  226MOL0     H30492  12.913   4.348  -0.435 -0.2206 -1.2072 -2.2501
  226MOL0     H30493  12.691   4.265  -0.495  1.2475 -0.8515 -0.4838
  226MOL0     H30494  11.037   3.849   0.170 -1.5449  0.4663 -0.0785
  226MOL0     H30495  10.839   3.775   0.273  1.3160 -0.7886 -0.0975
  226MOL0     H30496  10.622   3.709   0.676 -0.1376  0.3712 -0.9241
  226MOL0     H30497  10.438   3.620   0.790 -2.1827 -1.7720 -0.5457
  226MOL0     H30498  10.248   3.601   0.930 -2.2574  0.7332  1.4918
  226MOL0     H30499  10.214   3.525   0.774  3.2522  0.4605  0.8157
  226MOL0     H30500  10.010   3.607   0.997  0.1505  1.1309 -0.9830
  226MOL0     H30501  10.052   3.455   0.945  3.3028  1.5217  1.9619
  226MOL0     H30502   9.958   3.478   0.729 -3.5061 -1.4008  0.6407
  226MOL0     H30503   9.916   3.653   0.755 -1.4693  2.1951  2.6740
  226MOL0     H30504   9.721   3.498   0.792  0.1258  0.6044  0.4752
  226MOL0     H30505   9.816   3.456   0.942 -0.1637 -0.1166 -0.7321
  226MOL0     H30506   9.663   3.858   0.993 -0.3543 -0.1716 -2.5584
  226MOL0     H30507  10.186   3.934   0.648 -0.6216 -0.6655 -1.7083
  226MOL0     H30508  10.304   4.145   0.561 -0.6818 -0.4853  1.2374
  226MOL0     H30509  10.439   4.129   0.446 -1.2030 -0.1929 -2.8625
  226MOL0     H30510  10.295   4.046   0.411 -0.5448 -0.8670  1.3585
  227MOL0     O30511   5.439   8.484   4.966 -0.3307 -0.2863 -0.2703
  227MOL0     C30512   5.354   8.551   4.921  0.7749 -0.6285  0.3083
  227MOL0     O30513   5.372   8.676   4.875  0.4389  0.5452  0.6901
  227MOL0     C30514   5.505   8.722   4.880  0.3579  0.0822  0.8609
  227MOL0     C30515   5.543   8.823   4.972 -0.5159  0.9077 -0.3712
  227MOL0     C30516   5.676   8.877   4.964 -0.1557 -1.1556  0.3959
  227MOL0     C30517   5.764   8.837   4.871 -0.6344 -0.3424  0.5494
  227MOL0     O30518   5.888   8.881   4.882  0.8190 -0.6196  0.2340
  227MOL0     C30519   5.968   8.894   4.759 -0.3685  0.6971 -0.7623
  227MOL0     C30520   6.093   8.963   4.789 -0.1450 -0.1723 -0.1710
  227MOL0     C30521   6.077   9.104   4.845 -0.3257  1.0978  1.0644
  227MOL0     C30522   6.111   9.108   4.990 -0.1591  0.3508  0.1371
  227MOL0     C30523   6.259   9.147   5.020  0.0379  0.1059  0.2909
  227MOL0     C30524   6.281   9.298   4.987 -0.8023 -0.2728  0.0822
  227MOL0     C30525   6.402   9.361   5.066  0.6103  1.0537 -0.2754
  227MOL0     C30526   6.546   9.298   5.046  0.4080  0.3627 -0.6831
  227MOL0     N30527   6.599   9.322   4.911  0.5178 -0.1279  0.3069
  227MOL0     C30528   6.736   9.319   4.884 -0.1716 -0.2128  0.6822
  227MOL0     C30529   6.738   9.367   4.757  0.1316  0.4450 -0.8003
  227MOL0     C30530   6.871   9.394   4.683 -0.8028  0.6417 -0.3618
  227MOL0     C30531   6.963   9.493   4.767  0.6176  0.2399  0.1832
  227MOL0     C30532   7.029   9.604   4.681 -0.2498  0.4318 -0.3901
  227MOL0     C30533   7.142   9.680   4.756  0.4617  0.5540 -0.3339
  227MOL0     O30534   7.188   9.786   4.668 -0.5613  0.2011 -0.3397
  227MOL0     C30535   7.329   9.797   4.657  0.4739 -0.8871 -0.5382
  227MOL0     C30536   7.396   9.709   4.576 -0.2225 -0.1633 -0.6827
  227MOL0     C30537   7.530   9.722   4.541 -0.6345  0.3733 -1.1321
  227MOL0     C30538   7.601   9.831   4.596 -0.1936  0.1060 -0.9423
  227MOL0     C30539   7.743   9.864   4.566 -0.0158 -0.5522 -0.5431
  227MOL0     O30540   7.803   9.758   4.493  0.6252  0.2772 -0.4546
  227MOL0     C30541   7.922   9.785   4.445 -0.2642 -0.7048  0.3171
  227MOL0     C30542   8.046   9.741   4.494 -0.5767 -0.3051 -0.9574
  227MOL0     C30543   8.164   9.784   4.434 -0.3415 -0.4858  0.5959
  227MOL0     C30544   8.163   9.868   4.324  0.2611 -0.2472 -0.3438
  227MOL0     O30545   8.288   9.891   4.270 -0.2214  0.4856 -0.1474
  227MOL0     C30546   8.305   9.934   4.134 -0.5350 -0.0044  0.0393
  227MOL0     C30547   8.451   9.936   4.100  0.3224  0.7539  0.6425
  227MOL0     C30548   8.489  10.068   4.033  0.8143  1.0987 -0.6860
  227MOL0     C30549   8.449  10.064   3.881  0.3465  0.2921 -1.2253
  227MOL0     C30550   8.494  10.183   3.792 -0.7700  0.7362 -0.6890
  227MOL0     C30551   8.393  10.303   3.800  0.0000 -0.4251  0.7028
  227MOL0     C30552   8.434  10.412   3.693  0.2080  0.8988 -0.0807
  227MOL0     C30553   8.572  10.476   3.723 -0.2900  0.2661  0.2669
  227MOL0    Cl30554   8.574  10.628   3.613 -0.3673 -0.1991 -0.3783
  227MOL0     C30555   8.037   9.909   4.263  0.5942 -0.0077 -0.4260
  227MOL0     C30556   7.919   9.872   4.337 -0.4823 -0.3395  1.0733
  227MOL0     O30557   7.792   9.970   4.612 -0.5563  0.3030  0.1812
  227MOL0     C30558   7.532   9.916   4.685 -1.2312 -0.3230 -0.3666
  227MOL0     C30559   7.392   9.908   4.703  0.3579 -0.6842 -0.2633
  227MOL0     N30560   6.608   9.413   4.727 -0.2485  0.6672 -0.2585
  227MOL0     N30561   6.525   9.369   4.809  0.6760 -0.8243  0.2739
  227MOL0     C30562   5.727   8.737   4.777 -0.5735  0.3964 -0.2019
  227MOL0     C30563   5.602   8.679   4.779  0.3946 -0.4660 -0.2133
  227MOL0     C30564   5.207   8.509   4.901 -0.6778  1.2171 -0.4197
  227MOL0     C30565   5.119   8.602   4.827 -0.9219  0.3953 -0.7388
  227MOL0     C30566   4.983   8.588   4.816  0.3878  0.9246 -0.8343
  227MOL0     C30567   4.923   8.476   4.877 -0.0238 -0.3836 -0.3053
  227MOL0     O30568   4.784   8.452   4.883 -0.6038 -0.5315  0.2907
  227MOL0     C30569   4.683   8.557   4.864  0.0327 -0.2544 -0.1555
  227MOL0     C30570   4.548   8.505   4.912  0.2871 -0.5492 -0.4548
  227MOL0     C30571   4.442   8.614   4.906  0.1211 -0.4599 -0.4103
  227MOL0     C30572   4.447   8.709   5.032  0.4526 -0.6244  0.6061
  227MOL0     C30573   4.303   8.742   5.057 -0.4770 -0.2542  0.3175
  227MOL0     C30574   4.188   8.777   5.084 -0.0969  0.1377  0.1498
  227MOL0     C30575   5.003   8.383   4.931  0.0334  0.3047  1.5032
  227MOL0     C30576   5.146   8.394   4.945 -0.3934 -0.8820 -0.7994
  227MOL0     C30577   5.215   8.290   5.031  0.2511 -0.7726 -0.3360
  227MOL0     H30578   5.481   8.852   5.057 -2.7266 -0.4317 -1.4340
  227MOL0     H30579   5.706   8.961   5.026  1.9591 -1.4432 -0.1753
  227MOL0     H30580   6.001   8.790   4.743  0.0680  0.4673  1.2977
  227MOL0     H30581   5.930   8.944   4.670 -0.1638  2.0930 -0.0899
  227MOL0     H30582   6.155   8.969   4.699 -0.6477 -1.8617 -0.6746
  227MOL0     H30583   6.157   8.905   4.855  1.1466  0.5972 -0.7204
  227MOL0     H30584   5.972   9.135   4.833 -0.2287  0.6509 -1.6052
  227MOL0     H30585   6.136   9.170   4.781 -1.5080  2.4147  1.2603
  227MOL0     H30586   6.032   9.168   5.037 -2.1544 -1.2517 -0.9939
  227MOL0     H30587   6.105   9.010   5.037  2.3658  1.2612  2.6321
  227MOL0     H30588   6.277   9.125   5.126 -0.5594  0.3222  0.4429
  227MOL0     H30589   6.328   9.088   4.960  0.0709 -1.8591  2.1319
  227MOL0     H30590   6.275   9.315   4.879 -2.8352 -1.5091 -0.0542
  227MOL0     H30591   6.197   9.360   5.021 -0.8055 -0.8434  1.1451
  227MOL0     H30592   6.374   9.358   5.171  1.0061 -0.7765 -0.1823
  227MOL0     H30593   6.410   9.467   5.042 -4.4179  2.0657  1.3392
  227MOL0     H30594   6.608   9.347   5.122 -2.7522  3.2077  0.3366
  227MOL0     H30595   6.556   9.194   5.076 -1.6316  0.4830  0.6150
  227MOL0     H30596   6.824   9.279   4.933 -0.5769 -0.5348  1.1600
  227MOL0     H30597   6.927   9.300   4.682 -1.9878 -0.1301  1.1107
  227MOL0     H30598   6.839   9.422   4.582 -2.0664  0.0271 -0.1475
  227MOL0     H30599   6.905   9.549   4.841  2.0561  0.2947  1.3061
  227MOL0     H30600   7.039   9.429   4.812 -0.1703 -1.3812 -0.6933
  227MOL0     H30601   6.951   9.673   4.647 -0.9293  1.5978  3.1187
  227MOL0     H30602   7.079   9.562   4.593 -0.0297 -3.6094  1.4699
  227MOL0     H30603   7.226   9.615   4.779  2.2664  2.6542 -0.6111
  227MOL0     H30604   7.099   9.731   4.843  2.4119 -0.1007  1.0828
  227MOL0     H30605   7.336   9.624   4.546 -1.3098  0.9149 -1.7077
  227MOL0     H30606   7.573   9.658   4.465  0.2842  1.0891 -1.2265
  227MOL0     H30607   8.049   9.666   4.572  1.0851  0.2678 -0.4103
  227MOL0     H30608   8.257   9.742   4.471 -0.7076 -0.4850  1.5396
  227MOL0     H30609   8.251   9.860   4.073 -0.7176  1.6888 -1.9408
  227MOL0     H30610   8.257  10.030   4.114 -0.9834 -0.3889 -0.7848
  227MOL0     H30611   8.504   9.928   4.195 -0.1403  2.5816  1.0916
  227MOL0     H30612   8.477   9.857   4.029  1.9805  3.2791 -1.8099
  227MOL0     H30613   8.437  10.147   4.088  1.4407  1.5023 -0.6634
  227MOL0     H30614   8.593  10.097   4.051  2.0109 -3.0823  0.1544
  227MOL0     H30615   8.342  10.043   3.866  0.1761  0.1545  0.0835
  227MOL0     H30616   8.501   9.974   3.847 -1.4092 -1.2577 -0.0437
  227MOL0     H30617   8.521  10.156   3.690 -1.0502  1.9478 -1.1024
  227MOL0     H30618   8.595  10.208   3.826 -0.4075 -1.1176 -0.2969
  227MOL0     H30619   8.294  10.291   3.754 -0.2230  3.1077 -0.0319
  227MOL0     H30620   8.384  10.351   3.898  1.6723  1.7077 -0.1166
  227MOL0     H30621   8.360  10.492   3.699  1.9300  2.4570  1.6115
  227MOL0     H30622   8.427  10.375   3.590 -0.9454  1.4144 -0.2126
  227MOL0     H30623   8.586  10.505   3.827  2.1738  3.5738 -0.8333
  227MOL0     H30624   8.651  10.405   3.697 -1.3313 -0.9905  0.4252
  227MOL0     H30625   8.039   9.976   4.178  3.0597  0.8148  0.1790
  227MOL0     H30626   7.823   9.902   4.295  1.0703  0.7352 -2.0397
  227MOL0     H30627   7.583   9.997   4.737 -1.3330  1.0770 -2.3563
  227MOL0     H30628   7.338   9.984   4.759  0.5155 -0.6107 -0.2118
  227MOL0     H30629   5.796   8.698   4.703 -2.1374  1.6442 -2.4502
  227MOL0     H30630   5.571   8.606   4.706  0.3320  0.5092 -1.1849
  227MOL0     H30631   5.159   8.692   4.780  1.9075 -0.1441  0.4800
  227MOL0     H30632   4.913   8.640   4.751 -0.1065  0.1195 -0.9588
  227MOL0     H30633   4.667   8.572   4.757  0.4740  0.1534 -0.1652
  227MOL0     H30634   4.699   8.650   4.919 -2.7637 -0.8915  1.9833
  227MOL0     H30635   4.551   8.466   5.014 -0.4927  0.4351 -0.0499
  227MOL0     H30636   4.518   8.422   4.847 -2.4982 -0.2381  0.3310
  227MOL0     H30637   4.346   8.567   4.880  1.5176 -2.7136 -1.8183
  227MOL0     H30638   4.469   8.688   4.830  1.6962  1.4841  1.8654
  227MOL0     H30639   4.488   8.644   5.110  0.7878 -3.3097 -1.6673
  227MOL0     H30640   4.512   8.796   5.018 -4.5344  3.1572 -2.0856
  227MOL0     H30641   4.085   8.807   5.086 -0.1104  0.3031 -1.6661
  227MOL0     H30642   4.965   8.302   4.992 -0.8705  1.7595  2.9484
  227MOL0     H30643   5.252   8.336   5.123  0.2575  1.1314 -1.2273
  227MOL0     H30644   5.162   8.195   5.043  2.2188 -1.9808 -0.7939
  227MOL0     H30645   5.307   8.250   4.986  1.7499 -1.3493  2.9570
  228MOL0     O30646   3.748   4.552   0.545  0.1000 -0.4263 -0.0024
  228MOL0     C30647   3.666   4.462   0.567  0.2132  0.1492 -0.4787
  228MOL0     O30648   3.682   4.375   0.668  0.6898  0.4799  0.1746
  228MOL0     C30649   3.787   4.369   0.752 -1.2457 -0.3617  0.4459
  228MOL0     C30650   3.858   4.476   0.800  0.3972 -0.4509  0.1896
  228MOL0     C30651   3.952   4.462   0.892 -0.5072 -0.4626  0.3105
  228MOL0     C30652   3.979   4.347   0.959  0.8322  0.1622  0.4417
  228MOL0     O30653   4.072   4.336   1.062  0.0685  0.2140  0.0725
  228MOL0     C30654   4.187   4.423   1.061 -0.3492 -0.5050 -0.3894
  228MOL0     C30655   4.306   4.374   1.152  0.6899 -0.3842 -0.3936
  228MOL0     C30656   4.362   4.240   1.096 -0.1092 -0.1302  0.6934
  228MOL0     C30657   4.457   4.175   1.205  0.4734 -0.3329  0.0434
  228MOL0     C30658   4.550   4.070   1.146 -0.1082 -0.1844 -0.2912
  228MOL0     C30659   4.613   3.997   1.260  0.5439  0.0160 -0.2460
  228MOL0     C30660   4.700   4.082   1.360  0.4066 -0.1720 -0.4377
  228MOL0     C30661   4.757   4.009   1.477 -0.4342 -0.2453  0.6427
  228MOL0     N30662   4.660   3.958   1.575 -1.2282  0.3894 -0.1985
  228MOL0     C30663   4.678   3.871   1.680 -0.8122 -0.9543 -0.3657
  228MOL0     C30664   4.566   3.887   1.762  0.6848  0.5919 -0.0014
  228MOL0     C30665   4.549   3.822   1.892  0.2225 -0.1344  0.4391
  228MOL0     C30666   4.632   3.888   2.003 -0.3219  0.1111  0.0020
  228MOL0     C30667   4.578   3.885   2.141  1.6587  0.3853 -1.2409
  228MOL0     C30668   4.661   3.970   2.242 -0.8448  0.2031  0.2006
  228MOL0     O30669   4.780   3.896   2.282  0.0510 -0.2671 -1.0173
  228MOL0     C30670   4.834   3.939   2.410 -0.0776  0.5004 -0.8267
  228MOL0     C30671   4.820   4.063   2.454 -0.1304 -0.5979 -0.0093
  228MOL0     C30672   4.870   4.104   2.580 -0.2285 -0.1835  0.5123
  228MOL0     C30673   4.942   4.008   2.665 -0.0879 -0.0506 -1.0176
  228MOL0     C30674   5.003   4.039   2.793  0.2350 -0.2442  0.3257
  228MOL0     O30675   5.109   3.962   2.837 -0.2023  0.6986  0.3700
  228MOL0     C30676   5.128   3.968   2.969  0.0401 -0.0127 -0.9659
  228MOL0     C30677   5.257   4.013   2.995  0.1213 -0.0685  0.4171
  228MOL0     C30678   5.301   4.012   3.129 -0.0353 -1.1898 -0.2573
  228MOL0     C30679   5.217   3.971   3.235 -0.7815  0.6637 -0.4229
  228MOL0     O30680   5.260   3.992   3.365  0.1304 -0.0349 -0.1610
  228MOL0     C30681   5.214   3.902   3.469 -0.3038  0.1970 -0.4498
  228MOL0     C30682   5.315   3.868   3.576 -0.1887 -0.3936 -0.1467
  228MOL0     C30683   5.264   3.757   3.671 -0.4270  0.0240 -0.3260
  228MOL0     C30684   5.137   3.805   3.744 -0.9993 -0.4915 -0.5563
  228MOL0     C30685   5.030   3.707   3.720  0.5103  0.9513 -0.5035
  228MOL0     C30686   5.042   3.585   3.820 -0.2928  0.6542  0.6427
  228MOL0     C30687   4.926   3.492   3.793 -0.0705  0.5676  0.0744
  228MOL0     C30688   4.913   3.399   3.913  0.0988 -0.2589 -0.2937
  228MOL0    Cl30689   4.800   3.276   3.874  0.2069  0.1255 -0.2532
  228MOL0     C30690   5.085   3.926   3.209 -0.0522 -0.8889 -0.0543
  228MOL0     C30691   5.048   3.927   3.071 -0.6379 -0.2481 -0.4833
  228MOL0     O30692   4.957   4.140   2.850  0.1003  0.2409  0.4416
  228MOL0     C30693   4.953   3.873   2.621  0.3622  0.1798  1.4639
  228MOL0     C30694   4.912   3.840   2.485 -0.0683 -0.4020 -0.0322
  228MOL0     N30695   4.480   3.971   1.700 -0.5563  0.5228 -0.1557
  228MOL0     N30696   4.527   4.002   1.583 -0.0732  0.0150  0.6695
  228MOL0     C30697   3.911   4.237   0.900 -0.9733  0.4217  0.7654
  228MOL0     C30698   3.824   4.241   0.796 -0.1214  0.8592 -1.1789
  228MOL0     C30699   3.555   4.434   0.476  0.0320  1.1368  0.4219
  228MOL0     C30700   3.485   4.309   0.495  0.5799 -0.9108  1.2353
  228MOL0     C30701   3.364   4.280   0.421 -0.2518 -0.5669 -0.4248
  228MOL0     C30702   3.304   4.368   0.340 -0.8589 -0.3862  0.1136
  228MOL0     O30703   3.169   4.346   0.313  0.3742  0.6612  0.2696
  228MOL0     C30704   3.090   4.453   0.261 -1.0837 -0.1515  0.1664
  228MOL0     C30705   2.969   4.393   0.194 -0.5440 -0.2658  0.3890
  228MOL0     C30706   2.853   4.489   0.169  0.1121 -0.4091  0.3802
  228MOL0     C30707   2.806   4.500   0.022 -0.2121 -0.1606 -0.1192
  228MOL0     C30708   2.731   4.620  -0.004 -0.2735 -0.7445  0.9163
  228MOL0     C30709   2.666   4.714  -0.040  1.0302  0.3939  0.5496
  228MOL0     C30710   3.380   4.487   0.309 -0.5727 -0.7072  0.1008
  228MOL0     C30711   3.515   4.510   0.369  0.2615 -0.0401 -0.3086
  228MOL0     C30712   3.597   4.615   0.298  0.0681  0.1864 -1.2326
  228MOL0     H30713   3.845   4.575   0.759  1.0665 -0.9280 -1.2517
  228MOL0     H30714   4.017   4.538   0.934  2.4119 -2.0218 -1.1043
  228MOL0     H30715   4.229   4.442   0.962  0.2869  3.2301  0.4381
  228MOL0     H30716   4.162   4.519   1.107  1.2732 -1.3367  2.4681
  228MOL0     H30717   4.262   4.349   1.249  0.0913  2.0775  0.0172
  228MOL0     H30718   4.381   4.451   1.173 -1.1809  0.9195  2.0157
  228MOL0     H30719   4.429   4.261   1.013 -0.2633 -1.6925  0.1534
  228MOL0     H30720   4.288   4.164   1.071  0.5778 -0.8931  0.9541
  228MOL0     H30721   4.519   4.256   1.245  0.6614 -1.1640  1.4610
  228MOL0     H30722   4.390   4.136   1.282 -1.4053 -0.1960 -1.4537
  228MOL0     H30723   4.492   3.994   1.093 -0.0688  0.9772 -2.1113
  228MOL0     H30724   4.630   4.107   1.081  0.6538 -1.6779 -0.2403
  228MOL0     H30725   4.541   3.937   1.317  0.6473 -1.9578 -2.0462
  228MOL0     H30726   4.676   3.916   1.221 -1.0752 -2.1942  1.4540
  228MOL0     H30727   4.630   4.159   1.393  0.2286 -0.7968  0.6738
  228MOL0     H30728   4.781   4.132   1.305 -1.4045  2.3588 -0.9773
  228MOL0     H30729   4.814   3.924   1.438  1.4637  1.8198 -1.3466
  228MOL0     H30730   4.827   4.071   1.533 -2.4341  2.2563  0.5473
  228MOL0     H30731   4.767   3.816   1.708  0.8613  1.3109 -0.8901
  228MOL0     H30732   4.441   3.825   1.910  0.3817  1.1192  1.2996
  228MOL0     H30733   4.584   3.719   1.888  1.8683  0.3694  1.2423
  228MOL0     H30734   4.732   3.844   2.002 -0.9478 -1.4778 -2.7364
  228MOL0     H30735   4.642   3.995   1.983  1.1202  0.2406  1.2055
  228MOL0     H30736   4.574   3.782   2.178  0.6932 -1.0293 -4.8589
  228MOL0     H30737   4.475   3.920   2.142  0.5851 -2.3461  1.2627
  228MOL0     H30738   4.595   3.987   2.327  2.2619 -0.0441  2.8506
  228MOL0     H30739   4.687   4.071   2.210  1.5863 -0.3221  0.3076
  228MOL0     H30740   4.764   4.133   2.392  0.9118 -0.6381 -1.0369
  228MOL0     H30741   4.846   4.204   2.617 -2.4904  0.1059 -1.4982
  228MOL0     H30742   5.322   4.049   2.916  1.8788  3.2567  3.0775
  228MOL0     H30743   5.403   4.040   3.155 -0.7144  5.1965 -2.8088
  228MOL0     H30744   5.122   3.940   3.516 -0.3209  0.5906 -0.7946
  228MOL0     H30745   5.203   3.803   3.425  4.9178  0.2837 -2.6597
  228MOL0     H30746   5.406   3.833   3.526  0.0743  0.0607  0.0106
  228MOL0     H30747   5.329   3.960   3.633 -2.1350  1.9648 -3.1709
  228MOL0     H30748   5.246   3.664   3.616 -1.0913 -1.2270  1.8548
  228MOL0     H30749   5.343   3.729   3.741  1.0589 -1.0391 -2.3184
  228MOL0     H30750   5.106   3.907   3.722 -5.6607 -1.3787  0.8077
  228MOL0     H30751   5.162   3.803   3.851 -1.0807 -0.0876 -0.5303
  228MOL0     H30752   5.030   3.688   3.612  0.0001  0.6967 -0.4636
  228MOL0     H30753   4.933   3.755   3.738 -0.5083 -1.4109  0.6616
  228MOL0     H30754   5.139   3.535   3.815 -0.2019  0.7787  1.1006
  228MOL0     H30755   5.034   3.634   3.918  2.4310  2.1468  0.2092
  228MOL0     H30756   4.948   3.438   3.700  1.7503  1.5497 -0.0986
  228MOL0     H30757   4.829   3.542   3.802 -0.9149 -0.8449 -0.6824
  228MOL0     H30758   4.998   3.332   3.932 -1.8909 -2.5040  1.4382
  228MOL0     H30759   4.898   3.452   4.007  2.8897 -0.0083  0.0854
  228MOL0     H30760   5.006   3.900   3.279 -1.8860  0.0846 -1.6634
  228MOL0     H30761   4.949   3.887   3.055 -1.3884 -0.0564  2.9252
  228MOL0     H30762   4.995   3.792   2.679  0.1026  0.1107  1.5569
  228MOL0     H30763   4.933   3.742   2.444  3.4648  0.5368 -0.8142
  228MOL0     H30764   3.914   4.142   0.951  1.5547  2.2204  4.4481
  228MOL0     H30765   3.771   4.155   0.755  2.8739 -1.5838 -0.3372
  228MOL0     H30766   3.496   4.233   0.572 -2.7262 -2.1647  0.6454
  228MOL0     H30767   3.321   4.180   0.427  2.7166 -2.1220 -2.5476
  228MOL0     H30768   3.151   4.500   0.182  0.2929 -0.0195  1.2695
  228MOL0     H30769   3.070   4.516   0.348 -2.5651  1.0978 -1.0210
  228MOL0     H30770   2.934   4.301   0.242 -0.8850 -0.4558 -0.2025
  228MOL0     H30771   3.006   4.370   0.094  1.9248  3.4813  0.2593
  228MOL0     H30772   2.886   4.587   0.203 -0.5244 -0.7280  2.0220
  228MOL0     H30773   2.765   4.473   0.232 -0.1948  2.8194  0.9340
  228MOL0     H30774   2.897   4.511  -0.038 -1.4968  0.4145 -2.0544
  228MOL0     H30775   2.747   4.416  -0.014 -0.5481 -0.2285  0.5717
  228MOL0     H30776   2.618   4.796  -0.088  2.7579  1.2374  0.1866
  228MOL0     H30777   3.349   4.560   0.234  0.5143 -0.7691 -0.4252
  228MOL0     H30778   3.698   4.573   0.298 -0.2825 -1.7211  5.2467
  228MOL0     H30779   3.559   4.647   0.200  0.0277  1.5474 -0.7943
  228MOL0     H30780   3.612   4.709   0.352  1.4516 -0.7104  0.0291
  229MOL0     O30781   4.069   1.775   2.446 -0.5037  0.0881 -0.1907
  229MOL0     C30782   4.060   1.652   2.429 -0.7386 -0.3380  0.3528
  229MOL0     O30783   3.960   1.587   2.357 -0.4899 -0.2694 -1.1215
  229MOL0     C30784   3.858   1.673   2.333  0.3425 -0.5951 -0.0662
  229MOL0     C30785   3.770   1.718   2.434 -0.4914 -0.5658  0.3218
  229MOL0     C30786   3.647   1.781   2.402 -0.1828 -0.6936 -0.0105
  229MOL0     C30787   3.620   1.820   2.273  0.4949  0.5821 -0.1489
  229MOL0     O30788   3.509   1.872   2.225  0.1672  0.5603  0.3611
  229MOL0     C30789   3.447   1.977   2.300  0.4263 -0.3317 -0.2207
  229MOL0     C30790   3.298   1.947   2.311  0.3538  1.0554  0.1072
  229MOL0     C30791   3.245   1.900   2.182  0.4056 -0.1654 -0.4404
  229MOL0     C30792   3.095   1.915   2.191 -0.2072 -0.9697  0.0435
  229MOL0     C30793   3.020   1.872   2.060 -0.6205 -0.2327 -0.2109
  229MOL0     C30794   3.042   1.953   1.933  0.1642 -0.1174  0.0603
  229MOL0     C30795   3.059   1.856   1.815 -0.4330 -0.5928 -0.1311
  229MOL0     C30796   3.082   1.917   1.677  0.2770 -0.2667 -0.5760
  229MOL0     N30797   3.219   1.967   1.667  0.7535 -0.2849  0.4131
  229MOL0     C30798   3.336   1.897   1.669 -0.0610 -0.6152  1.3624
  229MOL0     C30799   3.428   2.002   1.680  0.1270  0.1039  0.7801
  229MOL0     C30800   3.579   1.983   1.699 -0.5652  0.0481  0.0225
  229MOL0     C30801   3.624   1.994   1.842 -0.5651  0.9291 -0.1406
  229MOL0     C30802   3.662   2.133   1.883  0.7039 -0.5673 -0.4445
  229MOL0     C30803   3.666   2.167   2.032  0.6712 -0.1746 -0.2213
  229MOL0     O30804   3.748   2.083   2.104  0.0622  0.3458 -0.5257
  229MOL0     C30805   3.872   2.128   2.139  0.7136  0.5250 -0.4657
  229MOL0     C30806   3.921   2.064   2.254 -1.0326 -0.3331  0.2150
  229MOL0     C30807   4.042   2.112   2.306 -0.9377  0.2526  0.0297
  229MOL0     C30808   4.112   2.213   2.244  0.2713 -0.1911  0.3340
  229MOL0     C30809   4.245   2.240   2.301 -0.6941 -0.3095  0.2966
  229MOL0     O30810   4.338   2.290   2.209 -0.3389  0.4418  0.4103
  229MOL0     C30811   4.463   2.328   2.238 -0.4549 -0.4316 -1.0009
  229MOL0     C30812   4.519   2.313   2.370  0.0622 -0.4726  1.9379
  229MOL0     C30813   4.649   2.336   2.390 -0.0371 -0.6339  0.1480
  229MOL0     C30814   4.725   2.407   2.300 -0.0335  0.3247  0.3619
  229MOL0     O30815   4.853   2.443   2.343  0.6209  0.4869  0.2074
  229MOL0     C30816   4.912   2.552   2.273  0.2400 -0.3989 -0.3114
  229MOL0     C30817   5.046   2.502   2.221  0.0750 -0.2643 -0.1428
  229MOL0     C30818   5.140   2.462   2.346 -0.2066 -0.2714 -0.4096
  229MOL0     C30819   5.282   2.431   2.298 -0.2876  0.4097  0.7599
  229MOL0     C30820   5.372   2.378   2.401  0.2505  0.6067 -0.8310
  229MOL0     C30821   5.513   2.329   2.345 -0.6317 -1.2811  0.1707
  229MOL0     C30822   5.609   2.293   2.465  0.6642 -1.1289 -1.5391
  229MOL0     C30823   5.541   2.196   2.563 -1.2159  0.4015  0.3427
  229MOL0    Cl30824   5.559   2.039   2.483  0.2732 -0.3962 -0.5970
  229MOL0     C30825   4.674   2.423   2.166 -0.7985  0.3373  0.0758
  229MOL0     C30826   4.543   2.382   2.138 -0.0566  0.2935 -0.1556
  229MOL0     O30827   4.251   2.235   2.428  0.0858 -0.1448  0.1087
  229MOL0     C30828   4.060   2.277   2.126 -0.3593 -0.5687  0.1989
  229MOL0     C30829   3.941   2.234   2.074 -0.4067  0.0172 -0.0387
  229MOL0     N30830   3.368   2.129   1.694  0.6567 -0.3438  0.0655
  229MOL0     N30831   3.245   2.104   1.671 -0.6572  0.5277  0.5650
  229MOL0     C30832   3.703   1.773   2.172  0.1743 -0.5955  0.5770
  229MOL0     C30833   3.819   1.699   2.201 -0.3085  0.2134  0.3066
  229MOL0     C30834   4.176   1.572   2.484  0.8397  0.2867  0.3508
  229MOL0     C30835   4.157   1.430   2.501  0.8703 -0.4210 -0.1434
  229MOL0     C30836   4.257   1.359   2.561  0.6065 -0.0971  0.3000
  229MOL0     C30837   4.372   1.412   2.600 -0.4290 -0.3975 -0.5133
  229MOL0     O30838   4.474   1.322   2.641  0.2604 -0.5872  0.4858
  229MOL0     C30839   4.598   1.366   2.690  0.4962  0.6841  0.1754
  229MOL0     C30840   4.573   1.402   2.835  0.9703 -0.3143  0.2601
  229MOL0     C30841   4.704   1.419   2.931  0.7458  0.2664 -0.2628
  229MOL0     C30842   4.802   1.508   2.872 -0.4451 -0.1118 -0.3344
  229MOL0     C30843   4.757   1.627   2.810 -0.2959  0.4392 -0.2790
  229MOL0     C30844   4.720   1.721   2.744 -1.2136 -0.4667  0.4973
  229MOL0     C30845   4.392   1.544   2.585 -0.1206  0.0185  0.1245
  229MOL0     C30846   4.303   1.627   2.518 -0.7083 -0.1372 -0.5736
  229MOL0     C30847   4.337   1.771   2.503 -0.2702 -0.7302  0.4922
  229MOL0     H30848   3.787   1.709   2.541 -0.6985  2.2872  0.6622
  229MOL0     H30849   3.570   1.797   2.477 -0.8640 -0.3578 -0.7627
  229MOL0     H30850   3.485   1.980   2.402 -2.5079  1.2218  0.9558
  229MOL0     H30851   3.445   2.080   2.263 -2.5441 -0.7155 -1.4160
  229MOL0     H30852   3.241   2.030   2.354 -1.5236 -1.5562  3.0611
  229MOL0     H30853   3.289   1.857   2.373  0.2995 -0.1637 -1.5947
  229MOL0     H30854   3.266   1.793   2.177  1.1984 -0.0005 -0.9960
  229MOL0     H30855   3.290   1.952   2.096  0.5544  1.1221  0.3870
  229MOL0     H30856   3.053   1.851   2.269 -0.4023 -1.0747 -0.1446
  229MOL0     H30857   3.068   2.018   2.218 -3.3721 -2.5358  3.7871
  229MOL0     H30858   3.049   1.768   2.048 -0.5415 -0.0763 -1.4596
  229MOL0     H30859   2.913   1.871   2.085 -0.1063  1.6372  2.7090
  229MOL0     H30860   2.958   2.019   1.914 -0.4662 -0.6713  0.8482
  229MOL0     H30861   3.135   2.009   1.947  1.4214 -2.1931  0.4552
  229MOL0     H30862   2.968   1.797   1.799 -0.2646 -0.6728 -0.8549
  229MOL0     H30863   3.145   1.790   1.830  1.7287  1.5942 -1.9150
  229MOL0     H30864   3.073   1.840   1.600 -0.1529 -1.0402  0.2279
  229MOL0     H30865   3.007   1.995   1.661  0.6607  0.7741  2.1408
  229MOL0     H30866   3.361   1.793   1.689 -1.7693 -1.1074  1.1158
  229MOL0     H30867   3.607   1.885   1.659  0.2751  0.0798  0.5085
  229MOL0     H30868   3.625   2.062   1.638  0.9161  0.0236  1.0473
  229MOL0     H30869   3.551   1.952   1.911 -1.3764  1.4571 -0.6648
  229MOL0     H30870   3.709   1.927   1.857 -1.8528 -0.5416  0.9807
  229MOL0     H30871   3.607   2.206   1.824  0.4269 -0.3514  0.0722
  229MOL0     H30872   3.766   2.153   1.857  1.2577  2.6737  3.2734
  229MOL0     H30873   3.568   2.148   2.078  0.8639 -0.9118 -0.0970
  229MOL0     H30874   3.689   2.270   2.060 -2.6700  0.1800  1.7868
  229MOL0     H30875   3.868   1.989   2.311  0.0146  0.9028  2.9914
  229MOL0     H30876   4.085   2.067   2.394 -0.7093 -0.0895 -0.2526
  229MOL0     H30877   4.478   2.252   2.450 -2.2450 -2.2934 -0.4781
  229MOL0     H30878   4.692   2.310   2.486  0.0270 -5.1444 -0.9192
  229MOL0     H30879   4.846   2.600   2.200 -0.0794  1.6403  1.2443
  229MOL0     H30880   4.929   2.623   2.354 -0.0037 -1.2367  0.4939
  229MOL0     H30881   5.025   2.430   2.142 -1.9076 -0.7015  0.7124
  229MOL0     H30882   5.095   2.586   2.171 -1.4740 -0.3694 -1.9324
  229MOL0     H30883   5.139   2.541   2.422  0.5881  1.0701 -1.7343
  229MOL0     H30884   5.095   2.378   2.399  0.8810 -0.1604  0.7384
  229MOL0     H30885   5.329   2.527   2.274  0.9203 -0.5065 -0.6510
  229MOL0     H30886   5.282   2.371   2.207  2.2209  2.2527 -0.5680
  229MOL0     H30887   5.319   2.302   2.459  2.8051 -0.3382  0.3830
  229MOL0     H30888   5.400   2.461   2.467 -1.3402 -0.8564  1.8633
  229MOL0     H30889   5.496   2.243   2.279  1.7216 -0.8651 -1.0872
  229MOL0     H30890   5.560   2.404   2.280  0.6191 -1.8460  0.3824
  229MOL0     H30891   5.630   2.387   2.515 -0.8089 -0.9289 -1.2518
  229MOL0     H30892   5.706   2.248   2.442  2.4987  0.6727  1.9338
  229MOL0     H30893   5.602   2.188   2.654 -3.8324 -0.1524  2.1755
  229MOL0     H30894   5.441   2.228   2.593 -0.0882  1.4763  3.3113
  229MOL0     H30895   4.731   2.467   2.084 -0.6542 -0.3702 -0.2085
  229MOL0     H30896   4.493   2.386   2.042  1.9753  1.7841 -1.2271
  229MOL0     H30897   4.118   2.347   2.067 -2.3924  1.6844  0.7145
  229MOL0     H30898   3.910   2.273   1.978  0.2478 -0.1936 -0.3454
  229MOL0     H30899   3.671   1.790   2.070 -0.6249  2.4483  1.2595
  229MOL0     H30900   3.867   1.662   2.111 -0.8019  1.2708 -0.4209
  229MOL0     H30901   4.061   1.392   2.467  1.7507  0.0302 -3.5206
  229MOL0     H30902   4.230   1.256   2.578  1.7452 -0.7309 -1.4721
  229MOL0     H30903   4.628   1.438   2.614 -1.8466  0.1470 -1.3667
  229MOL0     H30904   4.680   1.293   2.688  0.5861  0.7991 -0.3654
  229MOL0     H30905   4.511   1.323   2.880  0.5524 -0.5811 -0.7446
  229MOL0     H30906   4.512   1.493   2.833  1.6464  0.1789  1.2296
  229MOL0     H30907   4.755   1.327   2.959  0.5633  0.2750  0.0992
  229MOL0     H30908   4.668   1.468   3.022 -3.7920 -2.4738 -0.2993
  229MOL0     H30909   4.869   1.554   2.946 -0.2410  2.2481 -1.8678
  229MOL0     H30910   4.878   1.465   2.806  0.1809  0.0353  0.2694
  229MOL0     H30911   4.707   1.795   2.668 -2.4865 -2.1101 -0.9609
  229MOL0     H30912   4.480   1.586   2.633 -0.8853  1.2167  0.5223
  229MOL0     H30913   4.270   1.840   2.555 -1.5585 -0.7272 -1.1108
  229MOL0     H30914   4.431   1.787   2.558  0.6499 -1.3281 -0.8475
  229MOL0     H30915   4.342   1.799   2.397  2.0869  2.3915  1.2502
  230MOL0     O30916   5.831   9.976   7.230 -0.1551  1.3333  0.4374
  230MOL0     C30917   5.793  10.008   7.347  0.0441 -0.2877  0.7584
  230MOL0     O30918   5.857  10.091   7.434 -0.5493  0.2077 -0.3757
  230MOL0     C30919   5.970  10.156   7.389 -0.4719  0.4225 -0.1024
  230MOL0     C30920   6.104  10.130   7.443  1.0623 -0.6416  0.6218
  230MOL0     C30921   6.215  10.209   7.399 -0.7034  0.0640  0.4274
  230MOL0     C30922   6.195  10.324   7.313 -0.3986 -0.1895  0.3010
  230MOL0     O30923   6.287  10.402   7.251 -0.8617  0.2437 -0.5934
  230MOL0     C30924   6.423  10.406   7.312 -0.2633 -0.0187  1.2605
  230MOL0     C30925   6.521  10.286   7.268 -1.1086 -0.8846  0.3865
  230MOL0     C30926   6.567  10.306   7.116 -0.0210 -0.0867  0.3382
  230MOL0     C30927   6.628  10.181   7.057 -1.0594  0.4585 -1.0909
  230MOL0     C30928   6.671  10.205   6.912 -0.3687 -0.5506  0.0555
  230MOL0     C30929   6.686  10.065   6.845 -0.1173 -0.2575  0.0649
  230MOL0     C30930   6.819   9.992   6.884  0.1775  0.0607 -0.1098
  230MOL0     C30931   6.954  10.070   6.846  0.2727 -0.0729  0.0593
  230MOL0     N30932   7.069   9.981   6.807  0.2755 -0.2265 -1.1512
  230MOL0     C30933   7.086   9.913   6.692  0.2703 -1.0756  0.5866
  230MOL0     C30934   7.215   9.876   6.680  0.4511 -0.4947  1.2288
  230MOL0     C30935   7.272   9.797   6.562 -0.0546  0.6878 -1.0538
  230MOL0     C30936   7.262   9.653   6.584  0.9527  0.2995 -0.5100
  230MOL0     C30937   7.333   9.588   6.710 -0.7167 -1.2866  0.4749
  230MOL0     C30938   7.472   9.654   6.710  0.1947 -0.1903 -0.6424
  230MOL0     O30939   7.582   9.579   6.778  0.3680 -0.6411  0.2706
  230MOL0     C30940   7.570   9.548   6.909 -0.3840  0.0274 -0.3569
  230MOL0     C30941   7.505   9.622   7.007 -0.8524  0.4723 -0.1805
  230MOL0     C30942   7.496   9.583   7.141 -0.4773  0.8711 -0.5670
  230MOL0     C30943   7.568   9.470   7.184  0.0633  0.3174  0.3160
  230MOL0     C30944   7.566   9.442   7.335 -0.0325  0.3301  0.7017
  230MOL0     O30945   7.525   9.549   7.415 -0.5737 -0.0390  0.0341
  230MOL0     C30946   7.548   9.530   7.550  0.3332  0.2164  0.0878
  230MOL0     C30947   7.444   9.532   7.639  0.4287  0.4677 -0.4188
  230MOL0     C30948   7.460   9.537   7.774  0.1426  0.6055  0.9817
  230MOL0     C30949   7.586   9.526   7.826  0.0260  0.4667 -0.0663
  230MOL0     O30950   7.596   9.509   7.962 -0.5235  0.0187 -0.2588
  230MOL0     C30951   7.724   9.569   8.015 -0.5805 -0.1425 -0.1639
  230MOL0     C30952   7.726   9.584   8.170 -0.1740  1.1794 -0.2810
  230MOL0     C30953   7.835   9.671   8.240  0.0076  1.6288  0.3447
  230MOL0     C30954   7.962   9.575   8.270  0.5596  0.0171  0.2325
  230MOL0     C30955   8.072   9.645   8.341  1.2011  0.6873  0.3904
  230MOL0     C30956   8.150   9.738   8.253 -0.7780  0.4818  0.1719
  230MOL0     C30957   8.295   9.771   8.318 -0.1863  0.5320  0.3832
  230MOL0     C30958   8.284   9.828   8.454 -0.2682  0.1342  0.3066
  230MOL0    Cl30959   8.450   9.876   8.491 -0.6363 -0.1371 -0.0493
  230MOL0     C30960   7.691   9.517   7.738 -0.0401 -0.6807 -0.2356
  230MOL0     C30961   7.673   9.524   7.602  0.6425 -0.0301  0.0248
  230MOL0     O30962   7.605   9.333   7.376 -0.0604  0.3400  0.6701
  230MOL0     C30963   7.633   9.388   7.090  0.1009 -0.6938 -1.4351
  230MOL0     C30964   7.643   9.432   6.956  0.1853 -0.8774  0.2327
  230MOL0     N30965   7.273   9.919   6.796  0.2921 -1.2613 -0.4830
  230MOL0     N30966   7.185   9.979   6.869  0.0758 -0.6104  0.3984
  230MOL0     C30967   6.065  10.340   7.265 -0.1058  0.2564 -0.7621
  230MOL0     C30968   5.958  10.264   7.307  0.2951  0.7464 -0.2966
  230MOL0     C30969   5.651   9.976   7.379 -0.2989 -0.0436  0.2968
  230MOL0     C30970   5.617  10.000   7.515  0.0170 -0.0412  0.4515
  230MOL0     C30971   5.487   9.974   7.553  0.3319  0.0510  0.6756
  230MOL0     C30972   5.389   9.945   7.455 -0.2571  0.2628  0.6485
  230MOL0     O30973   5.258   9.903   7.480  0.7334  0.2425 -0.2265
  230MOL0     C30974   5.150   9.993   7.460 -0.3339  0.0325  0.1683
  230MOL0     C30975   5.138  10.094   7.581  0.2029 -0.2600  1.3769
  230MOL0     C30976   5.011  10.174   7.564 -0.0352  0.4332 -0.0855
  230MOL0     C30977   5.004  10.287   7.663  0.7457  0.7613 -0.9658
  230MOL0     C30978   4.864  10.329   7.662  0.2397 -0.2665  0.0169
  230MOL0     C30979   4.745  10.340   7.685 -0.6289  0.3285 -0.1074
  230MOL0     C30980   5.424   9.925   7.320 -0.6510 -0.9077 -0.6620
  230MOL0     C30981   5.559   9.949   7.276  0.8735 -0.0140  0.4352
  230MOL0     C30982   5.575   9.944   7.127  0.6362 -0.4484 -1.1904
  230MOL0     H30983   6.130  10.061   7.522 -0.4348 -0.5333  1.2536
  230MOL0     H30984   6.313  10.189   7.442 -0.1629 -1.9249 -1.5552
  230MOL0     H30985   6.469  10.491   7.263  0.5123 -0.6901  0.8056
  230MOL0     H30986   6.422  10.420   7.421  0.7748  3.7457  0.8979
  230MOL0     H30987   6.482  10.185   7.280  2.1611 -2.4671 -1.0329
  230MOL0     H30988   6.614  10.279   7.324 -0.3586 -0.1113 -0.7113
  230MOL0     H30989   6.640  10.385   7.098 -0.3331 -0.4427 -3.0910
  230MOL0     H30990   6.480  10.332   7.055  1.3620  2.7846 -0.5729
  230MOL0     H30991   6.716  10.154   7.116 -1.3710  1.5643 -0.0811
  230MOL0     H30992   6.552  10.103   7.070  0.9061 -1.1396  1.8016
  230MOL0     H30993   6.580  10.248   6.868 -0.1438 -0.9050 -0.7806
  230MOL0     H30994   6.762  10.266   6.910  0.5016 -1.7431  1.3535
  230MOL0     H30995   6.609   9.992   6.873  2.7823 -3.3104  0.8325
  230MOL0     H30996   6.673  10.069   6.737 -3.9361 -3.2633  0.1839
  230MOL0     H30997   6.814   9.898   6.829  0.2129 -0.4434  0.7480
  230MOL0     H30998   6.828   9.991   6.993 -2.0604 -2.9653  0.1813
  230MOL0     H30999   6.943  10.153   6.776  2.2032 -0.4648 -0.7637
  230MOL0     H31000   6.980  10.116   6.942  1.1018  0.3329 -0.3553
  230MOL0     H31001   7.008   9.901   6.617  1.3212 -0.5115 -0.6494
  230MOL0     H31002   7.225   9.835   6.471 -0.3339  0.2533 -1.0944
  230MOL0     H31003   7.376   9.825   6.541  0.5149 -1.2307 -0.9620
  230MOL0     H31004   7.153   9.648   6.596  1.1755 -0.1556  1.7348
  230MOL0     H31005   7.275   9.590   6.495 -2.3008 -1.9442  0.3857
  230MOL0     H31006   7.324   9.479   6.701  1.1960 -1.5233  1.0188
  230MOL0     H31007   7.284   9.626   6.800 -0.8191 -0.9364  0.2722
  230MOL0     H31008   7.456   9.747   6.765  3.6166 -0.5299  1.1960
  230MOL0     H31009   7.498   9.674   6.606  0.5399  3.8689  0.0805
  230MOL0     H31010   7.440   9.703   6.976 -1.0314 -0.2140 -1.7132
  230MOL0     H31011   7.447   9.641   7.218  1.0488 -2.1832  3.0327
  230MOL0     H31012   7.343   9.532   7.599 -0.5259  1.3940  1.8563
  230MOL0     H31013   7.371   9.514   7.831 -2.2280 -2.2097 -3.2266
  230MOL0     H31014   7.806   9.505   7.983  0.1509 -0.8718  2.8068
  230MOL0     H31015   7.750   9.661   7.963  0.3221 -0.5363 -0.4234
  230MOL0     H31016   7.640   9.646   8.198 -1.2069  0.4642 -1.7715
  230MOL0     H31017   7.719   9.490   8.226 -3.1354  1.5026  0.0727
  230MOL0     H31018   7.868   9.756   8.180  0.8649  0.1131 -1.4742
  230MOL0     H31019   7.795   9.715   8.332  1.1388  2.1557  0.5919
  230MOL0     H31020   7.994   9.512   8.186 -2.6775  3.3471 -3.9477
  230MOL0     H31021   7.926   9.503   8.343 -2.2487 -0.3215 -1.3457
  230MOL0     H31022   8.136   9.568   8.386  0.3283 -1.1748 -1.3766
  230MOL0     H31023   8.037   9.709   8.422  0.9217  1.7419 -0.5385
  230MOL0     H31024   8.162   9.698   8.152  4.2108  0.6209  0.4210
  230MOL0     H31025   8.106   9.836   8.233 -0.6399  1.2053  2.9789
  230MOL0     H31026   8.360   9.837   8.260 -2.2561  2.9975  0.7072
  230MOL0     H31027   8.349   9.676   8.322 -0.3303  0.4750  2.7450
  230MOL0     H31028   8.220   9.916   8.447 -0.1867  0.2340  0.8001
  230MOL0     H31029   8.237   9.761   8.526 -0.9265  0.2508 -0.0084
  230MOL0     H31030   7.790   9.487   7.773 -1.1073 -2.8714  1.1322
  230MOL0     H31031   7.761   9.513   7.539  0.1053 -1.9993 -0.4742
  230MOL0     H31032   7.691   9.301   7.121 -0.7597 -0.9377 -0.4431
  230MOL0     H31033   7.724   9.387   6.899  0.2320  1.4597 -1.6828
  230MOL0     H31034   6.045  10.417   7.191 -0.8950 -0.2000 -1.0434
  230MOL0     H31035   5.853  10.279   7.282  0.3498  1.4112 -0.1514
  230MOL0     H31036   5.685  10.033   7.593  3.0241 -0.6121 -1.7345
  230MOL0     H31037   5.456   9.964   7.657 -0.9112 -1.0463  0.2240
  230MOL0     H31038   5.061   9.935   7.434 -0.3393  0.9006 -2.0249
  230MOL0     H31039   5.165  10.055   7.371  0.1496 -2.4187 -1.5573
  230MOL0     H31040   5.228  10.155   7.578  0.5938 -0.8691 -1.3753
  230MOL0     H31041   5.135  10.040   7.676  1.3719  0.1714  1.6694
  230MOL0     H31042   4.928  10.106   7.588 -0.0667  0.0516 -1.2135
  230MOL0     H31043   5.016  10.215   7.463  2.8396 -0.8737 -0.5746
  230MOL0     H31044   5.026  10.253   7.765 -0.6850  1.2660 -0.4677
  230MOL0     H31045   5.067  10.374   7.641  2.4016  0.3478  1.5971
  230MOL0     H31046   4.639  10.344   7.700 -0.7510 -2.5433  0.2121
  230MOL0     H31047   5.352   9.901   7.242  0.1674 -1.1998 -1.3527
  230MOL0     H31048   5.575  10.048   7.093  1.5377  0.6680  1.8521
  230MOL0     H31049   5.672   9.903   7.097  2.2146  3.6399 -2.3578
  230MOL0     H31050   5.494   9.886   7.083  1.2851 -1.8498 -0.6281
  231MOL0     O31051   8.434   6.190   5.728 -0.7448 -0.9481 -0.4799
  231MOL0     C31052   8.467   6.088   5.671  0.1317 -0.0969 -0.7391
  231MOL0     O31053   8.412   5.967   5.695  1.0711 -0.4898  0.1947
  231MOL0     C31054   8.319   5.961   5.788  0.5187 -0.0008  0.2272
  231MOL0     C31055   8.341   5.923   5.921  0.5788  0.7423 -0.0916
  231MOL0     C31056   8.233   5.907   6.003 -0.2498  1.1911 -0.1235
  231MOL0     C31057   8.098   5.917   5.960 -0.9428 -0.8772 -0.1652
  231MOL0     O31058   8.000   5.876   6.042  0.3624  0.7174  0.0921
  231MOL0     C31059   7.866   5.850   5.991  0.2783 -0.0443 -0.1506
  231MOL0     C31060   7.765   5.791   6.092  0.1926  0.1104 -0.0522
  231MOL0     C31061   7.629   5.773   6.028  0.8855 -0.0821  0.0201
  231MOL0     C31062   7.520   5.718   6.124  0.3022 -0.4523 -0.2653
  231MOL0     C31063   7.387   5.740   6.049 -1.3250 -0.2056  0.2139
  231MOL0     C31064   7.271   5.661   6.106  1.9516  0.3677  0.2628
  231MOL0     C31065   7.136   5.712   6.052 -0.0939 -0.7701 -0.0988
  231MOL0     C31066   7.027   5.631   6.117 -0.0393  0.1446 -0.6671
  231MOL0     N31067   6.904   5.690   6.120  0.7110 -0.8176  0.0471
  231MOL0     C31068   6.816   5.685   6.019 -0.7889 -0.7395 -0.4842
  231MOL0     C31069   6.700   5.727   6.081  0.9902 -0.7239  0.0091
  231MOL0     C31070   6.565   5.729   6.008 -0.2536  0.1919  0.6398
  231MOL0     C31071   6.514   5.861   5.976 -0.3832 -0.3501 -0.4241
  231MOL0     C31072   6.490   5.968   6.094  0.0521  1.1095 -0.2559
  231MOL0     C31073   6.402   5.911   6.206  0.0870  0.2066  0.0938
  231MOL0     O31074   6.340   6.020   6.282 -0.0809  0.1787  0.0938
  231MOL0     C31075   6.214   5.992   6.337  0.3226  0.4178  0.5818
  231MOL0     C31076   6.121   6.094   6.341 -0.0152  0.9080  0.2736
  231MOL0     C31077   5.999   6.071   6.403 -0.2999 -1.0054 -0.7094
  231MOL0     C31078   5.975   5.947   6.472 -0.4519 -0.2596 -0.0408
  231MOL0     C31079   5.846   5.932   6.550 -0.4712  0.4681  0.7154
  231MOL0     O31080   5.780   6.042   6.589 -0.4711  0.1014 -0.8810
  231MOL0     C31081   5.670   6.046   6.677 -0.6421  0.1901  0.2497
  231MOL0     C31082   5.619   6.170   6.699  0.1506  0.4846  0.4230
  231MOL0     C31083   5.498   6.193   6.770 -0.4005  0.3826  0.1744
  231MOL0     C31084   5.419   6.084   6.816  0.9788 -0.6607  0.7711
  231MOL0     O31085   5.286   6.089   6.849 -1.1417  0.0097  0.5061
  231MOL0     C31086   5.214   6.203   6.815  0.0629  0.7044 -0.7216
  231MOL0     C31087   5.079   6.184   6.880  1.7634 -0.5768  1.3983
  231MOL0     C31088   4.985   6.309   6.870  0.2759 -0.1123 -0.0248
  231MOL0     C31089   4.839   6.309   6.942  0.1302  0.4337  0.1263
  231MOL0     C31090   4.755   6.417   6.883 -0.7017  0.0782  0.2818
  231MOL0     C31091   4.661   6.362   6.768  0.3649  0.5715  0.3634
  231MOL0     C31092   4.551   6.463   6.740  0.7784  0.2398 -0.1230
  231MOL0     C31093   4.466   6.393   6.641  0.6606  0.5295 -0.5335
  231MOL0    Cl31094   4.305   6.471   6.602 -0.3619 -0.5189 -0.6401
  231MOL0     C31095   5.474   5.956   6.797  0.2032 -0.1590 -0.2534
  231MOL0     C31096   5.592   5.938   6.726 -0.0600 -0.0841  0.4454
  231MOL0     O31097   5.812   5.812   6.573  0.5981 -0.6396  0.0490
  231MOL0     C31098   6.073   5.855   6.467 -0.6810  0.0597 -0.0473
  231MOL0     C31099   6.189   5.869   6.396 -0.0249  0.5424  1.5618
  231MOL0     N31100   6.727   5.769   6.204 -0.4742 -0.4829 -0.1141
  231MOL0     N31101   6.849   5.743   6.234 -0.3506 -0.2187  0.0754
  231MOL0     C31102   8.079   5.958   5.833  0.1891  0.2220  0.4028
  231MOL0     C31103   8.185   5.975   5.748  0.8660  1.3391  0.6460
  231MOL0     C31104   8.586   6.092   5.592  0.4845 -0.4177  0.3332
  231MOL0     C31105   8.673   6.201   5.601 -0.3830  0.1438  0.2193
  231MOL0     C31106   8.781   6.211   5.522 -0.1229  0.4366  0.7606
  231MOL0     C31107   8.818   6.114   5.421  0.5545 -0.4944 -1.0204
  231MOL0     O31108   8.931   6.147   5.357  0.2820 -0.4933  0.7880
  231MOL0     C31109   9.005   6.056   5.282 -0.2529 -0.1729 -0.5296
  231MOL0     C31110   9.147   6.097   5.286 -0.8918  0.2540  0.0927
  231MOL0     C31111   9.173   6.231   5.225 -0.1992 -0.4496  0.7670
  231MOL0     C31112   9.316   6.239   5.151  0.7627  0.2332 -0.0097
  231MOL0     C31113   9.436   6.214   5.230  0.0794  0.8731  0.4870
  231MOL0     C31114   9.510   6.200   5.329 -1.2296 -0.0466 -0.3187
  231MOL0     C31115   8.745   5.998   5.420  0.3157  0.4124  0.4858
  231MOL0     C31116   8.629   5.984   5.503  0.1079  1.0624  0.0106
  231MOL0     C31117   8.560   5.845   5.492  1.0950 -0.0457 -0.7036
  231MOL0     H31118   8.443   5.920   5.958  1.4777 -0.0951 -2.4485
  231MOL0     H31119   8.258   5.869   6.101 -0.6460  2.1461  0.3700
  231MOL0     H31120   7.827   5.940   5.943 -0.5369 -0.0574  0.4638
  231MOL0     H31121   7.870   5.782   5.906 -1.4030 -1.0547  0.5385
  231MOL0     H31122   7.758   5.866   6.172 -0.6993 -0.5731  0.5256
  231MOL0     H31123   7.794   5.692   6.126 -0.6269 -0.0503  0.2142
  231MOL0     H31124   7.642   5.711   5.939  0.4681 -1.6992  1.0375
  231MOL0     H31125   7.598   5.871   5.993 -0.5839 -0.7918 -0.7498
  231MOL0     H31126   7.553   5.616   6.141 -0.9343 -0.6343  1.2265
  231MOL0     H31127   7.512   5.766   6.222 -0.1973  0.0131 -0.5267
  231MOL0     H31128   7.368   5.848   6.050  0.8661  0.2887  3.3608
  231MOL0     H31129   7.401   5.723   5.942 -1.7539  2.0249 -0.2596
  231MOL0     H31130   7.289   5.553   6.099 -0.8504 -0.0419 -2.4228
  231MOL0     H31131   7.267   5.683   6.213  1.9843  0.4513  0.2462
  231MOL0     H31132   7.125   5.700   5.944  0.3975  1.7816 -0.4864
  231MOL0     H31133   7.122   5.819   6.072 -3.5722 -0.6035 -2.4327
  231MOL0     H31134   7.020   5.539   6.060  1.1328 -0.1246 -0.3985
  231MOL0     H31135   7.059   5.603   6.218  0.4338  0.7195 -0.6470
  231MOL0     H31136   6.834   5.638   5.923  2.0380 -1.1132  0.1449
  231MOL0     H31137   6.570   5.677   5.912  0.5328  0.8366  0.3277
  231MOL0     H31138   6.492   5.673   6.068 -1.4829  0.3574 -0.6388
  231MOL0     H31139   6.585   5.907   5.907 -0.1885  0.3143  0.2091
  231MOL0     H31140   6.415   5.849   5.931  0.1479 -0.1954 -1.6599
  231MOL0     H31141   6.442   6.056   6.050 -0.9192  0.7470  0.0732
  231MOL0     H31142   6.587   5.994   6.139  0.4656  1.0277 -1.0853
  231MOL0     H31143   6.461   5.857   6.280 -1.5240 -1.8666 -0.0199
  231MOL0     H31144   6.325   5.845   6.163  0.2511  1.0408 -1.5680
  231MOL0     H31145   6.155   6.191   6.306 -0.1786  0.1649 -2.1107
  231MOL0     H31146   5.927   6.153   6.410 -0.5328 -1.0877 -1.9490
  231MOL0     H31147   5.663   6.263   6.667 -0.1424  1.6241  3.0701
  231MOL0     H31148   5.462   6.293   6.792  1.2936  1.0527  0.1119
  231MOL0     H31149   5.255   6.294   6.859  0.1967 -0.5399  1.8876
  231MOL0     H31150   5.220   6.221   6.707  1.6848 -1.0219 -0.9667
  231MOL0     H31151   5.039   6.101   6.821  0.0745  0.8452  0.4522
  231MOL0     H31152   5.075   6.150   6.984 -2.6348 -1.1052  1.2326
  231MOL0     H31153   5.041   6.395   6.909 -0.8978  0.6319  0.0648
  231MOL0     H31154   4.974   6.320   6.762  3.8816  0.9975 -0.4171
  231MOL0     H31155   4.849   6.322   7.050  1.7860  1.3794 -0.1159
  231MOL0     H31156   4.788   6.215   6.918  1.3561 -0.3611  0.5148
  231MOL0     H31157   4.825   6.495   6.852  1.0912 -0.3992  2.7567
  231MOL0     H31158   4.689   6.446   6.966  0.5467 -1.9482  2.0718
  231MOL0     H31159   4.709   6.344   6.671 -0.8851  1.5065 -0.4644
  231MOL0     H31160   4.608   6.278   6.814 -0.1903  0.8585  0.2679
  231MOL0     H31161   4.596   6.553   6.699  0.8152 -0.6450 -2.1495
  231MOL0     H31162   4.483   6.482   6.824  1.5503  4.9867 -0.3383
  231MOL0     H31163   4.521   6.388   6.546  4.3187  2.4947  1.2255
  231MOL0     H31164   4.444   6.288   6.661  0.3072  0.2937 -2.0518
  231MOL0     H31165   5.416   5.867   6.819 -4.2070  2.0512 -1.7426
  231MOL0     H31166   5.615   5.832   6.717 -1.1839 -0.3128  0.1358
  231MOL0     H31167   6.067   5.760   6.520 -1.7598  1.4042  2.4200
  231MOL0     H31168   6.259   5.786   6.392  1.1342  1.5393 -0.7097
  231MOL0     H31169   7.983   5.971   5.782  2.0041  1.3872 -3.0568
  231MOL0     H31170   8.168   5.997   5.643 -0.0488  2.7939  1.0672
  231MOL0     H31171   8.660   6.283   5.671  2.4942  0.8275  0.0651
  231MOL0     H31172   8.858   6.285   5.540  2.1465 -0.9735 -2.1381
  231MOL0     H31173   8.959   6.056   5.183  3.6839  3.0173 -2.6311
  231MOL0     H31174   9.004   5.953   5.318  0.9616 -0.1112 -0.2956
  231MOL0     H31175   9.204   6.014   5.244 -1.8342  0.9203 -2.7143
  231MOL0     H31176   9.173   6.095   5.392 -2.9542 -1.3535  0.6421
  231MOL0     H31177   9.150   6.308   5.298  3.4090  1.2652  0.2984
  231MOL0     H31178   9.102   6.258   5.146 -0.3806 -3.5824 -0.2877
  231MOL0     H31179   9.308   6.178   5.060 -0.3717  2.9027 -1.8529
  231MOL0     H31180   9.320   6.347   5.134 -1.8326  0.1751 -1.4938
  231MOL0     H31181   9.577   6.188   5.411 -2.9116 -1.4104  0.9558
  231MOL0     H31182   8.774   5.912   5.361  2.0157  0.6278  0.9579
  231MOL0     H31183   8.614   5.779   5.423  1.0248 -0.2022 -0.6091
  231MOL0     H31184   8.562   5.804   5.593  2.6281 -1.5296 -1.2844
  231MOL0     H31185   8.456   5.861   5.462  1.0268  2.9966  0.8024
  232MOL0     O31186   2.833   8.527  11.194 -0.9255  0.8535 -0.6687
  232MOL0     C31187   2.777   8.427  11.232  0.1062  0.2903  0.6404
  232MOL0     O31188   2.681   8.418  11.326 -0.3651 -0.5492  0.2935
  232MOL0     C31189   2.612   8.533  11.354 -0.8125 -0.3270 -0.1789
  232MOL0     C31190   2.497   8.569  11.293 -0.4722  0.3539  0.0489
  232MOL0     C31191   2.428   8.686  11.325  0.3776  0.5758 -0.4823
  232MOL0     C31192   2.461   8.766  11.433 -0.7307  0.0538  0.6332
  232MOL0     O31193   2.404   8.882  11.474 -0.1209  0.1548 -0.2446
  232MOL0     C31194   2.266   8.894  11.443  0.1151  0.1863 -0.2474
  232MOL0     C31195   2.171   8.793  11.508 -0.1836 -0.4453  0.1118
  232MOL0     C31196   2.158   8.801  11.660 -0.8290 -0.5409 -0.0733
  232MOL0     C31197   2.279   8.768  11.749 -0.3836 -0.3392 -0.0847
  232MOL0     C31198   2.235   8.738  11.891  0.6468  0.3906 -0.5557
  232MOL0     C31199   2.364   8.741  11.976 -1.1964 -0.1842 -0.9279
  232MOL0     C31200   2.333   8.736  12.123  0.4650 -0.3721  0.8928
  232MOL0     C31201   2.457   8.696  12.202  0.0783 -0.6670 -1.2461
  232MOL0     N31202   2.431   8.695  12.349  0.0783  0.4471  0.0780
  232MOL0     C31203   2.356   8.779  12.414  0.4682 -0.8690 -0.0177
  232MOL0     C31204   2.311   8.714  12.527  0.5338 -0.3556  0.2589
  232MOL0     C31205   2.227   8.793  12.623  0.2073  0.2999  1.2419
  232MOL0     C31206   2.162   8.726  12.739 -1.3735 -0.2374  0.1762
  232MOL0     C31207   2.047   8.648  12.685  0.3757 -0.3236 -0.5403
  232MOL0     C31208   1.962   8.577  12.789  0.4705  0.1642 -0.7068
  232MOL0     O31209   2.053   8.515  12.886  0.4386 -0.4327 -0.0760
  232MOL0     C31210   2.010   8.514  13.013  0.0919 -0.1043 -0.1871
  232MOL0     C31211   2.092   8.504  13.123 -0.1736 -0.6325 -1.1007
  232MOL0     C31212   2.039   8.468  13.247 -0.3547 -0.0591  0.1700
  232MOL0     C31213   1.903   8.434  13.270  0.0104 -0.3274  0.3832
  232MOL0     C31214   1.843   8.386  13.407  0.1582 -1.0616  0.6232
  232MOL0     O31215   1.707   8.379  13.408  0.3257  0.8149 -0.2900
  232MOL0     C31216   1.639   8.350  13.527 -0.0521 -0.3707 -0.2529
  232MOL0     C31217   1.691   8.371  13.663  0.3948 -0.3994  0.4758
  232MOL0     C31218   1.631   8.311  13.762 -0.1602 -0.2136 -0.5809
  232MOL0     C31219   1.507   8.251  13.752  0.1878  0.1612 -0.2581
  232MOL0     O31220   1.473   8.187  13.868  1.1212  0.5952  0.0229
  232MOL0     C31221   1.370   8.092  13.862 -0.7885 -0.0638 -0.2265
  232MOL0     C31222   1.313   8.076  14.000 -0.7630 -0.3799  0.2050
  232MOL0     C31223   1.228   8.185  14.043  0.5458 -0.0696 -0.4652
  232MOL0     C31224   1.165   8.147  14.181 -0.4002  0.8480  0.8689
  232MOL0     C31225   1.119   8.269  14.252 -0.5214 -0.8038 -0.6234
  232MOL0     C31226   1.004   8.332  14.169  0.5710  0.2576  0.0415
  232MOL0     C31227   0.881   8.266  14.208 -1.0578  0.1106 -0.5036
  232MOL0     C31228   0.766   8.287  14.115 -0.5077 -0.0953  0.2639
  232MOL0    Cl31229   0.674   8.444  14.123  0.0377 -0.4995 -0.3308
  232MOL0     C31230   1.457   8.229  13.623  0.1931 -0.2618  0.4585
  232MOL0     C31231   1.526   8.275  13.508 -0.1802 -0.5107 -0.2338
  232MOL0     O31232   1.922   8.372  13.502  0.3817 -0.0571 -0.5932
  232MOL0     C31233   1.822   8.442  13.156  0.1202  0.2072  0.4505
  232MOL0     C31234   1.873   8.482  13.035 -1.1249 -0.9748 -0.1678
  232MOL0     N31235   2.363   8.589  12.525  0.3311  0.1051 -0.7868
  232MOL0     N31236   2.435   8.572  12.416  0.2878 -0.0111 -0.8434
  232MOL0     C31237   2.582   8.730  11.501 -1.1702 -1.0444 -0.2857
  232MOL0     C31238   2.660   8.615  11.456 -0.3251 -0.0402 -0.1584
  232MOL0     C31239   2.826   8.290  11.175  0.2002  0.1567 -0.6198
  232MOL0     C31240   2.737   8.179  11.178 -0.8505  0.3635  0.5637
  232MOL0     C31241   2.775   8.057  11.112 -0.3581  1.1387 -0.6004
  232MOL0     C31242   2.898   8.049  11.045 -0.3396 -0.1490  0.1581
  232MOL0     O31243   2.922   7.938  10.969  0.4004  0.1197  0.1031
  232MOL0     C31244   2.838   7.930  10.847 -0.6547 -0.2016  0.3693
  232MOL0     C31245   2.926   7.908  10.720  0.6957  0.6614 -0.5761
  232MOL0     C31246   2.988   8.039  10.677  0.1426 -0.4506  0.5281
  232MOL0     C31247   3.031   8.029  10.525  0.5943 -0.6515 -1.0066
  232MOL0     C31248   2.923   7.974  10.437 -0.1729 -0.0643 -0.2114
  232MOL0     C31249   2.842   7.928  10.356 -0.0383 -0.2039  0.6418
  232MOL0     C31250   2.987   8.156  11.054 -0.2399 -0.6612 -0.0334
  232MOL0     C31251   2.959   8.270  11.119  0.5590 -0.5128  0.7494
  232MOL0     C31252   3.063   8.378  11.117  0.4529 -0.5336  0.3506
  232MOL0     H31253   2.452   8.502  11.221 -1.1188 -2.0029  2.4889
  232MOL0     H31254   2.337   8.702  11.268 -1.7750  0.7445  2.6827
  232MOL0     H31255   2.242   8.997  11.472  3.0996  1.8742 -3.0261
  232MOL0     H31256   2.249   8.881  11.336 -0.2754 -2.8696  0.1113
  232MOL0     H31257   2.190   8.688  11.487 -1.2854 -0.3764 -1.3920
  232MOL0     H31258   2.069   8.807  11.471 -1.1987 -4.5159  0.9371
  232MOL0     H31259   2.084   8.727  11.691 -0.4474 -1.0894 -0.4466
  232MOL0     H31260   2.122   8.900  11.688 -1.4142  0.1608 -2.9459
  232MOL0     H31261   2.328   8.681  11.706 -1.1476 -0.1739 -1.3502
  232MOL0     H31262   2.343   8.857  11.752 -0.7347 -0.0188 -1.4678
  232MOL0     H31263   2.162   8.812  11.925 -2.5297 -2.4021 -0.7730
  232MOL0     H31264   2.196   8.636  11.892  1.9446 -0.1430 -1.2425
  232MOL0     H31265   2.411   8.645  11.953 -3.4337 -1.6873  0.3917
  232MOL0     H31266   2.428   8.829  11.971 -2.8472  1.6268  3.7898
  232MOL0     H31267   2.252   8.665  12.144 -0.6756  0.6152 -0.0306
  232MOL0     H31268   2.293   8.835  12.147 -1.7318 -1.3023  1.2669
  232MOL0     H31269   2.504   8.605  12.164  1.6981 -0.5188  0.2686
  232MOL0     H31270   2.530   8.777  12.190 -2.2426  1.4303 -1.9958
  232MOL0     H31271   2.317   8.876  12.386 -1.9645 -2.1548 -1.4629
  232MOL0     H31272   2.285   8.882  12.647 -0.0435  1.8174 -3.0072
  232MOL0     H31273   2.150   8.837  12.558 -0.1573 -0.7707  0.9140
  232MOL0     H31274   2.232   8.651  12.777 -3.7604 -3.5496 -1.5063
  232MOL0     H31275   2.146   8.795  12.822  0.3492  0.3957  0.0382
  232MOL0     H31276   2.079   8.574  12.611 -3.6444 -2.7162 -0.1740
  232MOL0     H31277   1.982   8.719  12.633  0.1379  1.2704  1.7779
  232MOL0     H31278   1.880   8.516  12.752  0.9504  1.0831 -3.5752
  232MOL0     H31279   1.917   8.661  12.842 -1.7391 -1.1310 -0.4356
  232MOL0     H31280   2.199   8.519  13.119  0.1371 -1.9427  0.9322
  232MOL0     H31281   2.108   8.444  13.327  0.8963  2.1330 -0.1640
  232MOL0     H31282   1.785   8.421  13.681 -0.5619  2.0366 -0.8698
  232MOL0     H31283   1.671   8.316  13.863  1.1679 -1.8769 -0.9725
  232MOL0     H31284   1.300   8.121  13.783 -0.2317  0.9223 -0.3784
  232MOL0     H31285   1.419   7.997  13.841  3.1095  1.6577  0.1721
  232MOL0     H31286   1.265   7.978  13.996  1.9179 -1.7924  0.5158
  232MOL0     H31287   1.393   8.074  14.075  0.7133  0.7017 -1.2682
  232MOL0     H31288   1.298   8.269  14.053 -1.4049  1.6820 -0.8021
  232MOL0     H31289   1.156   8.211  13.965  0.8127  1.1860 -0.3290
  232MOL0     H31290   1.235   8.085  14.237  0.1740 -2.4994 -3.1073
  232MOL0     H31291   1.092   8.072  14.151  0.0028  0.7094  0.2096
  232MOL0     H31292   1.188   8.351  14.271 -1.2824 -0.1361 -0.6658
  232MOL0     H31293   1.095   8.228  14.351  2.0342 -0.5012  0.2014
  232MOL0     H31294   0.999   8.438  14.198  0.6014  0.8405 -1.8862
  232MOL0     H31295   1.014   8.337  14.060  0.7142  0.3575  0.0578
  232MOL0     H31296   0.857   8.295  14.310 -4.2837 -2.2280 -0.4366
  232MOL0     H31297   0.897   8.158  14.206 -1.0285  0.1197 -1.1820
  232MOL0     H31298   0.797   8.276  14.010 -1.4650  1.0273 -0.1538
  232MOL0     H31299   0.688   8.212  14.132 -1.3477  0.0668 -2.4158
  232MOL0     H31300   1.368   8.172  13.600 -0.8508  0.8713  1.5846
  232MOL0     H31301   1.501   8.237  13.410 -0.2123 -0.5027 -0.2286
  232MOL0     H31302   1.718   8.413  13.167  0.7494 -1.8179  1.4330
  232MOL0     H31303   1.803   8.503  12.955  1.9388 -0.4498 -2.9476
  232MOL0     H31304   2.623   8.807  11.565  1.0717 -1.1793 -1.4775
  232MOL0     H31305   2.757   8.591  11.500  0.2800  0.8688 -0.9354
  232MOL0     H31306   2.641   8.193  11.226  0.2573 -0.4226  3.1609
  232MOL0     H31307   2.716   7.966  11.113 -0.3996  1.1194  1.9684
  232MOL0     H31308   2.780   8.022  10.839  1.2340  0.9280 -0.8227
  232MOL0     H31309   2.766   7.849  10.865 -2.6259  1.7992  2.0651
  232MOL0     H31310   2.853   7.875  10.646  1.0883  1.5748 -1.3875
  232MOL0     H31311   3.009   7.839  10.738  0.9215  1.2033  0.5732
  232MOL0     H31312   3.077   8.064  10.735 -1.9781  3.1350  2.5968
  232MOL0     H31313   2.909   8.115  10.687 -1.3926 -2.0723  1.2944
  232MOL0     H31314   3.058   8.125  10.480 -0.0058 -1.5741 -3.4797
  232MOL0     H31315   3.116   7.963  10.505 -0.2286 -1.7933 -0.7883
  232MOL0     H31316   2.772   7.880  10.292  0.7089 -0.1159 -0.2632
  232MOL0     H31317   3.079   8.148  10.997  0.5906  0.1255  1.1527
  232MOL0     H31318   3.042   8.447  11.035 -0.3419 -0.2167  0.8049
  232MOL0     H31319   3.054   8.439  11.208 -0.6154 -2.0271  1.2964
  232MOL0     H31320   3.165   8.342  11.106  1.1570  1.5465 -0.5344
  233MOL0     O31321   4.804   2.980   0.376  0.4266 -0.8966  0.3409
  233MOL0     C31322   4.881   2.885   0.356 -0.0411 -0.0639  0.6802
  233MOL0     O31323   4.998   2.852   0.429  0.1346 -0.1668  0.1210
  233MOL0     C31324   5.046   2.928   0.538 -0.1297 -0.3553  0.4397
  233MOL0     C31325   4.978   3.014   0.619 -0.2991 -0.0251 -0.0971
  233MOL0     C31326   5.038   3.059   0.738 -0.3847  0.2674 -0.1124
  233MOL0     C31327   5.167   3.014   0.776 -0.1820  0.7896  0.0362
  233MOL0     O31328   5.231   3.046   0.889  0.0450  0.2434  0.9055
  233MOL0     C31329   5.192   3.152   0.972 -0.4532 -0.3282 -0.5851
  233MOL0     C31330   5.273   3.154   1.107 -0.0303  0.2193 -0.5069
  233MOL0     C31331   5.242   3.042   1.205  0.3248 -0.2651 -0.2659
  233MOL0     C31332   5.338   3.061   1.328 -0.8882 -0.5012 -0.5550
  233MOL0     C31333   5.320   2.929   1.416 -0.0300  0.2530  0.4607
  233MOL0     C31334   5.449   2.905   1.512  0.8974 -0.2015 -0.4130
  233MOL0     C31335   5.490   3.027   1.593  0.0195  1.0561 -0.7414
  233MOL0     C31336   5.629   2.997   1.657 -0.1273 -0.4465  0.4328
  233MOL0     N31337   5.738   3.042   1.576 -0.1905  0.4920 -0.4747
  233MOL0     C31338   5.823   2.965   1.496 -0.2833 -0.1532  0.6420
  233MOL0     C31339   5.907   3.060   1.450  0.1978 -0.3239  0.9211
  233MOL0     C31340   6.031   3.032   1.368  1.2236 -0.7249 -0.4581
  233MOL0     C31341   6.000   2.996   1.219 -0.6598  0.3124  0.2576
  233MOL0     C31342   5.895   3.091   1.160  0.7171  0.2211  0.0521
  233MOL0     C31343   5.884   3.087   1.010  0.2314 -0.0502 -0.0879
  233MOL0     O31344   6.015   3.117   0.950 -0.3087  0.2772  0.1728
  233MOL0     C31345   6.001   3.131   0.817 -0.0882  0.0194 -0.1468
  233MOL0     C31346   5.927   3.234   0.759  0.1110  0.6798  0.1558
  233MOL0     C31347   5.930   3.266   0.627  0.3091  0.5599 -0.5126
  233MOL0     C31348   5.990   3.181   0.534  0.1329 -0.0853 -0.6430
  233MOL0     C31349   5.997   3.215   0.387  0.3766 -0.7041  1.0452
  233MOL0     O31350   5.921   3.318   0.340  0.3498 -0.2448 -0.1533
  233MOL0     C31351   5.943   3.366   0.213 -0.4285 -0.5719 -0.1528
  233MOL0     C31352   6.075   3.389   0.165  0.4592 -0.0228 -0.2484
  233MOL0     C31353   6.093   3.440   0.032  0.3450  0.1334 -0.3454
  233MOL0     C31354   5.981   3.475  -0.051  0.3489  0.0839 -0.9278
  233MOL0     O31355   5.981   3.529  -0.170  0.0571  0.4219  0.0206
  233MOL0     C31356   6.105   3.529  -0.244  0.2608  0.2324  0.7571
  233MOL0     C31357   6.094   3.590  -0.388  0.5300 -0.2469  0.0105
  233MOL0     C31358   6.077   3.741  -0.369 -0.3219  0.1988 -0.9586
  233MOL0     C31359   6.055   3.824  -0.499 -0.4585 -0.2051 -0.8630
  233MOL0     C31360   6.167   3.836  -0.599  1.3552 -0.4049  0.2365
  233MOL0     C31361   6.118   3.931  -0.718 -0.1819 -0.3837 -0.0957
  233MOL0     C31362   6.004   3.868  -0.800  0.0547 -1.2917  0.9816
  233MOL0     C31363   6.027   3.739  -0.875 -0.2877  0.2707  0.5654
  233MOL0    Cl31364   5.869   3.722  -0.979  0.2674 -0.0458  0.2603
  233MOL0     C31365   5.852   3.464   0.000 -0.1158 -0.3147  0.3676
  233MOL0     C31366   5.835   3.406   0.131 -0.1912  0.4942  0.4262
  233MOL0     O31367   6.066   3.146   0.313  0.7199 -0.2206  0.1616
  233MOL0     C31368   6.063   3.078   0.588  0.2262  0.7966  0.5298
  233MOL0     C31369   6.077   3.058   0.730  0.3381  0.1017 -0.6657
  233MOL0     N31370   5.860   3.187   1.488 -0.2565  0.4800  0.5354
  233MOL0     N31371   5.765   3.175   1.570 -0.2541 -0.0126  0.1422
  233MOL0     C31372   5.235   2.933   0.683 -0.3662  0.2621 -0.4754
  233MOL0     C31373   5.178   2.897   0.564  0.4392 -0.2876  0.3132
  233MOL0     C31374   4.840   2.789   0.247 -0.7765 -0.3035  0.3367
  233MOL0     C31375   4.888   2.660   0.260 -0.2055  0.0942 -0.2222
  233MOL0     C31376   4.878   2.573   0.153  0.4980  0.4294 -0.0771
  233MOL0     C31377   4.829   2.609   0.026  0.2214  0.1058 -0.1419
  233MOL0     O31378   4.824   2.520  -0.080 -0.3520 -0.5695  0.0619
  233MOL0     C31379   4.861   2.386  -0.065  0.0515  0.0342  0.2335
  233MOL0     C31380   5.016   2.373  -0.082  0.0117 -0.4311  0.1570
  233MOL0     C31381   5.064   2.421  -0.217  0.7945  0.3936  1.0461
  233MOL0     C31382   5.224   2.413  -0.215  1.1172  0.2933  0.4869
  233MOL0     C31383   5.284   2.519  -0.286 -0.3281  0.4855  0.2093
  233MOL0     C31384   5.331   2.609  -0.352 -0.6857 -0.1429 -0.5891
  233MOL0     C31385   4.771   2.734   0.011 -0.2437  0.3475 -0.0962
  233MOL0     C31386   4.778   2.825   0.125  0.1853  0.7541 -0.0081
  233MOL0     C31387   4.701   2.961   0.103  0.0095 -0.6384 -0.2570
  233MOL0     H31388   4.873   3.027   0.599 -0.7737 -0.0518  2.0719
  233MOL0     H31389   4.975   3.121   0.802  0.1790  0.3396  0.3773
  233MOL0     H31390   5.186   3.250   0.924 -1.8516  0.4327  0.9965
  233MOL0     H31391   5.088   3.131   0.998 -0.2783  0.6627  1.0965
  233MOL0     H31392   5.254   3.244   1.166 -0.3797 -1.2444  1.7414
  233MOL0     H31393   5.380   3.153   1.084  0.1453  0.6304  0.2311
  233MOL0     H31394   5.284   2.960   1.145  0.2257  1.2416 -2.5335
  233MOL0     H31395   5.134   3.041   1.226  0.4516 -1.8293  0.4375
  233MOL0     H31396   5.439   3.067   1.286 -0.1565  2.5423  1.3420
  233MOL0     H31397   5.316   3.151   1.386 -0.5763  0.8626 -2.4618
  233MOL0     H31398   5.230   2.940   1.477 -0.7116  3.2941 -0.9216
  233MOL0     H31399   5.310   2.847   1.344 -1.2529 -0.6170  1.5909
  233MOL0     H31400   5.423   2.826   1.583  1.6670 -0.3812 -0.3216
  233MOL0     H31401   5.532   2.874   1.448  1.2901  0.6955 -0.3592
  233MOL0     H31402   5.411   3.054   1.662 -1.8010 -0.2972 -2.2001
  233MOL0     H31403   5.500   3.115   1.528 -1.3962  1.3796 -0.5540
  233MOL0     H31404   5.636   3.055   1.750 -1.0872 -0.6938  0.6737
  233MOL0     H31405   5.645   2.890   1.674  1.3590 -0.3132  0.0142
  233MOL0     H31406   5.839   2.859   1.480  2.1635  0.2853 -0.1862
  233MOL0     H31407   6.107   3.110   1.373  0.8423 -0.2814 -1.3372
  233MOL0     H31408   6.083   2.947   1.414 -0.3701 -0.9095  1.1015
  233MOL0     H31409   6.086   2.996   1.151 -0.8172  1.9332  0.0198
  233MOL0     H31410   5.960   2.895   1.206  1.2488 -0.1161 -3.5294
  233MOL0     H31411   5.925   3.194   1.178 -0.4609  1.0677 -2.3972
  233MOL0     H31412   5.798   3.063   1.203  0.9985  1.4721  1.5752
  233MOL0     H31413   5.810   3.161   0.979  0.8136  1.5683  2.0711
  233MOL0     H31414   5.856   2.983   0.993  1.1086 -0.5067  1.0978
  233MOL0     H31415   5.877   3.294   0.834 -1.9635  0.5469 -1.0596
  233MOL0     H31416   5.876   3.357   0.604  1.7724  0.9974 -2.5313
  233MOL0     H31417   6.165   3.364   0.220  0.1299 -1.3967 -0.3002
  233MOL0     H31418   6.196   3.452  -0.001  1.1706 -4.4868 -0.0555
  233MOL0     H31419   6.174   3.595  -0.190  1.3835  0.1092 -0.4739
  233MOL0     H31420   6.149   3.429  -0.251  1.5381  0.8795 -2.5935
  233MOL0     H31421   6.184   3.560  -0.443  1.4046 -0.2314  1.3639
  233MOL0     H31422   6.000   3.555  -0.429  1.7543 -1.7275 -1.6850
  233MOL0     H31423   5.992   3.763  -0.303  0.3967  1.2369 -0.3442
  233MOL0     H31424   6.168   3.784  -0.326 -1.1134  1.2556 -0.2952
  233MOL0     H31425   6.047   3.930  -0.474  1.9046 -0.2381  0.3441
  233MOL0     H31426   5.963   3.792  -0.547 -1.1243  0.6971 -0.2222
  233MOL0     H31427   6.197   3.740  -0.642 -0.4484 -1.4309  1.1605
  233MOL0     H31428   6.257   3.878  -0.552  0.1739  3.8931 -0.8875
  233MOL0     H31429   6.086   4.027  -0.676  1.5624  0.7398 -1.2172
  233MOL0     H31430   6.202   3.955  -0.784 -1.4404  0.8406 -1.3250
  233MOL0     H31431   5.979   3.941  -0.878 -0.4621 -2.4275  0.0666
  233MOL0     H31432   5.916   3.855  -0.736 -0.4436 -0.2330  0.5368
  233MOL0     H31433   6.113   3.753  -0.942 -0.1723 -1.6929  0.2385
  233MOL0     H31434   6.037   3.652  -0.809 -3.8320  1.3301  2.7998
  233MOL0     H31435   5.766   3.491  -0.061  1.8593  1.6530 -1.7319
  233MOL0     H31436   5.735   3.377   0.162 -0.0257 -2.1521 -1.1742
  233MOL0     H31437   6.132   3.021   0.527 -0.7573 -1.4408  1.4242
  233MOL0     H31438   6.150   2.993   0.778 -2.8295 -1.7430  2.1127
  233MOL0     H31439   5.334   2.900   0.713 -0.6145  1.7979  2.3305
  233MOL0     H31440   5.238   2.842   0.492  1.3594  1.2710 -0.1652
  233MOL0     H31441   4.929   2.625   0.354 -1.1562  0.2634  0.2773
  233MOL0     H31442   4.922   2.474   0.147 -0.2667  0.1728 -2.8291
  233MOL0     H31443   4.812   2.319  -0.137 -1.4125 -0.6731  1.8270
  233MOL0     H31444   4.819   2.350   0.029 -3.6572  0.9704 -0.9049
  233MOL0     H31445   5.049   2.271  -0.060  1.7662  0.3759  1.5293
  233MOL0     H31446   5.066   2.433  -0.006  0.6678  0.6360 -1.0871
  233MOL0     H31447   5.035   2.524  -0.241 -2.2524 -0.9020 -1.6094
  233MOL0     H31448   5.029   2.364  -0.304 -0.8880 -0.7462  2.4012
  233MOL0     H31449   5.251   2.422  -0.109 -2.2091 -0.4748  1.5545
  233MOL0     H31450   5.247   2.318  -0.263 -0.8206  1.2476 -2.6365
  233MOL0     H31451   5.367   2.696  -0.404  0.2076  0.9558  1.7517
  233MOL0     H31452   4.731   2.764  -0.085 -0.0004  0.2896 -0.2167
  233MOL0     H31453   4.675   2.970  -0.003 -1.7584 -1.2534  0.0928
  233MOL0     H31454   4.609   2.946   0.161  0.2123  2.3496  1.0028
  233MOL0     H31455   4.752   3.053   0.132 -1.9941  0.1213  1.0944
  234MOL0     O31456   9.143   9.974   7.293 -0.4841  0.0853  0.2120
  234MOL0     C31457   9.065  10.029   7.371 -1.3829 -0.5377 -0.6256
  234MOL0     O31458   9.109  10.073   7.492  0.8514  0.7914  0.4139
  234MOL0     C31459   9.231  10.051   7.537  0.8303  0.7149 -0.6717
  234MOL0     C31460   9.296   9.925   7.526  0.0464  0.5397 -0.2804
  234MOL0     C31461   9.428   9.913   7.581 -0.1844 -0.1109  0.1204
  234MOL0     C31462   9.485  10.015   7.662 -0.2736  0.8017 -0.3709
  234MOL0     O31463   9.618   9.999   7.711  0.7292  0.2626 -0.4303
  234MOL0     C31464   9.628   9.919   7.826  0.0339  0.8441  0.3634
  234MOL0     C31465   9.607   9.998   7.948 -0.7839  0.0801  0.5221
  234MOL0     C31466   9.726  10.100   7.975  0.7634  0.2307  0.2399
  234MOL0     C31467   9.739  10.144   8.122  0.5141 -0.6056 -0.2958
  234MOL0     C31468   9.625  10.247   8.166  0.2815 -0.3442  0.0005
  234MOL0     C31469   9.659  10.300   8.304 -0.0997 -0.4269 -0.3639
  234MOL0     C31470   9.792  10.364   8.317 -0.4319  0.3941 -0.0425
  234MOL0     C31471   9.883  10.285   8.412  0.4521  0.2374  0.2583
  234MOL0     N31472  10.022  10.333   8.429  0.5558  0.2827 -0.5282
  234MOL0     C31473  10.111  10.362   8.325  0.1820  0.3254  0.0851
  234MOL0     C31474  10.216  10.418   8.385 -0.1652 -0.4401 -0.3175
  234MOL0     C31475  10.343  10.458   8.309  0.7094 -0.4611 -0.0794
  234MOL0     C31476  10.456  10.358   8.325  0.7538 -0.5899  0.1661
  234MOL0     C31477  10.558  10.386   8.436 -0.4448  0.0306  0.4983
  234MOL0     C31478  10.703  10.338   8.409  1.0044  0.4864  0.2905
  234MOL0     O31479  10.796  10.445   8.417 -0.0256 -0.0571 -0.4457
  234MOL0     C31480  10.926  10.420   8.413  0.2627  0.3283 -0.0821
  234MOL0     C31481  11.020  10.520   8.467 -0.4988  1.0096 -0.4638
  234MOL0     C31482  11.156  10.477   8.480 -0.2769 -1.1097 -0.7086
  234MOL0     C31483  11.208  10.356   8.428 -0.0630  0.9269  0.0256
  234MOL0     C31484  11.356  10.306   8.446  0.5793  0.9059 -0.1374
  234MOL0     O31485  11.439  10.372   8.531  0.2143  0.7432  0.3991
  234MOL0     C31486  11.568  10.354   8.523 -0.1408  0.3105  0.1545
  234MOL0     C31487  11.640  10.307   8.413 -0.1121  0.6459  0.4956
  234MOL0     C31488  11.783  10.274   8.426 -0.0061 -0.3842  0.0088
  234MOL0     C31489  11.842  10.296   8.557  0.8401 -0.1309  0.8582
  234MOL0     O31490  11.975  10.268   8.563  0.0956  0.4671  0.3346
  234MOL0     C31491  12.050  10.293   8.683 -0.0966 -0.3083  0.0201
  234MOL0     C31492  12.202  10.276   8.655  0.2332  0.0253  1.0491
  234MOL0     C31493  12.278  10.235   8.784  0.6206 -0.3692  0.3231
  234MOL0     C31494  12.427  10.203   8.766 -0.1502  0.2816 -0.2330
  234MOL0     C31495  12.509  10.320   8.710 -0.5598  0.5757 -0.1509
  234MOL0     C31496  12.558  10.398   8.827  0.2365 -0.8411  0.0698
  234MOL0     C31497  12.653  10.512   8.798 -0.1714  0.2574  0.1818
  234MOL0     C31498  12.801  10.459   8.795  0.0048  0.3183 -0.3685
  234MOL0    Cl31499  12.912  10.583   8.736  0.2865 -0.0114  0.1525
  234MOL0     C31500  11.772  10.352   8.667  1.0521  0.6075  0.9809
  234MOL0     C31501  11.635  10.376   8.641 -0.7622  0.7571 -0.2375
  234MOL0     O31502  11.383  10.211   8.366 -0.8828  0.0802 -0.1030
  234MOL0     C31503  11.115  10.269   8.362  0.0921  0.3168 -1.6246
  234MOL0     C31504  10.981  10.302   8.359  0.9720  0.1123 -0.1803
  234MOL0     N31505  10.198  10.430   8.520  0.0035  0.0498  0.1081
  234MOL0     N31506  10.087  10.380   8.541 -0.3902 -0.0593 -0.5922
  234MOL0     C31507   9.412  10.133   7.677 -0.1062  0.5516  0.0530
  234MOL0     C31508   9.286  10.148   7.615 -0.9861 -0.1267 -0.5162
  234MOL0     C31509   8.926  10.041   7.342  0.3650 -0.5689 -0.1156
  234MOL0     C31510   8.849  10.120   7.432  0.1328 -0.4649 -0.5596
  234MOL0     C31511   8.713  10.140   7.417  0.4637 -0.1559  0.2899
  234MOL0     C31512   8.646  10.090   7.301 -0.0961 -0.5626 -0.2918
  234MOL0     O31513   8.510  10.112   7.266 -0.1809  0.2458 -0.8629
  234MOL0     C31514   8.435   9.986   7.282 -0.7703 -0.3947  0.7817
  234MOL0     C31515   8.282  10.018   7.292  0.2135 -0.3147  0.2532
  234MOL0     C31516   8.230  10.102   7.167  0.7666  0.3792  0.2580
  234MOL0     C31517   8.096  10.174   7.189  0.2072 -0.1419 -0.8418
  234MOL0     C31518   8.118  10.288   7.278 -0.1121  0.3687  0.2330
  234MOL0     C31519   8.108  10.392   7.341 -0.2145 -0.1915  0.3305
  234MOL0     C31520   8.717  10.005   7.214 -0.2777  0.1416  0.8799
  234MOL0     C31521   8.854   9.985   7.227 -1.2554  0.1588 -0.0107
  234MOL0     C31522   8.927   9.907   7.120 -0.2631 -0.8294  0.4221
  234MOL0     H31523   9.249   9.848   7.465  1.8836 -0.4605 -0.5301
  234MOL0     H31524   9.479   9.817   7.577 -0.4410 -0.2663  0.4943
  234MOL0     H31525   9.558   9.834   7.832 -2.0477  2.5688  2.7845
  234MOL0     H31526   9.721   9.867   7.800 -0.1665  0.4389  0.4352
  234MOL0     H31527   9.613   9.925   8.030  1.5010 -3.8528 -2.7691
  234MOL0     H31528   9.514  10.055   7.944 -0.3941  0.6639 -0.3810
  234MOL0     H31529   9.703  10.186   7.911 -0.6986 -0.8215 -0.7050
  234MOL0     H31530   9.821  10.057   7.941  0.4896 -1.7037  1.7382
  234MOL0     H31531   9.741  10.062   8.194 -2.2305 -0.0237  0.5410
  234MOL0     H31532   9.841  10.184   8.131  0.1926  0.8637 -2.4621
  234MOL0     H31533   9.608  10.326   8.092 -3.3912 -0.3894  0.6380
  234MOL0     H31534   9.528  10.197   8.165 -1.3970  2.6732  0.0943
  234MOL0     H31535   9.593  10.387   8.308  0.8324  0.2917 -0.3062
  234MOL0     H31536   9.629  10.234   8.386  2.8485 -1.6692 -0.1706
  234MOL0     H31537   9.782  10.459   8.370  4.0069  1.3380 -0.4780
  234MOL0     H31538   9.844  10.377   8.221  1.8394 -0.3586  1.0423
  234MOL0     H31539   9.831  10.284   8.508 -0.9867 -0.1516 -0.4876
  234MOL0     H31540   9.882  10.180   8.382  0.1651 -0.2151  1.7568
  234MOL0     H31541  10.098  10.359   8.217  1.5637 -0.4202 -0.0928
  234MOL0     H31542  10.331  10.475   8.202  1.1725  2.7176  0.2930
  234MOL0     H31543  10.373  10.554   8.350 -3.5453  0.8271  0.5342
  234MOL0     H31544  10.402  10.263   8.335 -1.0340  0.3859  0.2269
  234MOL0     H31545  10.509  10.373   8.231 -0.5235  4.3354 -0.0489
  234MOL0     H31546  10.527  10.334   8.527 -4.4958 -2.0029 -1.7317
  234MOL0     H31547  10.563  10.491   8.467  0.6479  0.6620 -1.6528
  234MOL0     H31548  10.696  10.293   8.309 -2.8939 -0.8879  1.0181
  234MOL0     H31549  10.743  10.263   8.479  0.2753 -0.6572 -0.4748
  234MOL0     H31550  10.987  10.613   8.513  1.4261  1.6230 -0.2397
  234MOL0     H31551  11.227  10.540   8.532 -2.5465  0.1496  1.0603
  234MOL0     H31552  11.602  10.290   8.313 -0.6933  2.1410  0.4367
  234MOL0     H31553  11.838  10.222   8.347  1.5103  0.0964  0.7067
  234MOL0     H31554  12.055  10.395   8.720  0.1330 -1.3837  3.2804
  234MOL0     H31555  12.021  10.230   8.768 -0.1723  0.9067  0.9113
  234MOL0     H31556  12.212  10.202   8.575 -0.8964  1.6053 -0.6389
  234MOL0     H31557  12.227  10.372   8.609 -3.4479  1.3218  1.4278
  234MOL0     H31558  12.252  10.313   8.856  1.5437  2.4854 -2.2700
  234MOL0     H31559  12.240  10.141   8.827 -0.0649 -0.2185  0.0637
  234MOL0     H31560  12.444  10.115   8.703  1.1455 -0.0442  0.5399
  234MOL0     H31561  12.459  10.168   8.864  1.3899  0.6328 -0.5837
  234MOL0     H31562  12.448  10.375   8.636 -3.9981 -0.8960  1.3729
  234MOL0     H31563  12.593  10.267   8.664  0.1642  0.8256  0.8616
  234MOL0     H31564  12.471  10.439   8.879  0.2245 -0.9673  0.1473
  234MOL0     H31565  12.621  10.339   8.893  2.5313 -0.7697 -1.9197
  234MOL0     H31566  12.656  10.581   8.883 -0.9326 -0.7352  1.0541
  234MOL0     H31567  12.633  10.583   8.718 -3.3213  0.8281  1.3501
  234MOL0     H31568  12.841  10.427   8.892 -1.0313 -1.7878 -0.5691
  234MOL0     H31569  12.804  10.370   8.731 -1.0945 -0.1775  0.2298
  234MOL0     H31570  11.822  10.373   8.761 -0.4705 -2.0122  2.4939
  234MOL0     H31571  11.576  10.412   8.725  0.5345  1.8689  0.2224
  234MOL0     H31572  11.143  10.168   8.334  3.0685 -0.1413  2.2155
  234MOL0     H31573  10.918  10.226   8.314 -1.2032 -2.2490  5.8011
  234MOL0     H31574   9.444  10.206   7.751 -3.2628  2.3444 -0.1668
  234MOL0     H31575   9.236  10.244   7.623  1.2599  1.4891 -3.5378
  234MOL0     H31576   8.894  10.172   7.516  1.1022  0.7943 -1.7846
  234MOL0     H31577   8.660  10.193   7.496 -0.5248  0.1720 -0.5702
  234MOL0     H31578   8.460   9.938   7.377  0.9858  1.7143  1.4736
  234MOL0     H31579   8.459   9.915   7.203 -0.5749  0.9288 -0.3862
  234MOL0     H31580   8.265  10.070   7.388  0.6705  2.8586 -1.2415
  234MOL0     H31581   8.226   9.925   7.300 -3.1280  1.5913  0.9351
  234MOL0     H31582   8.212  10.032   7.085  2.6745  1.1125 -0.8751
  234MOL0     H31583   8.304  10.179   7.142  0.1276  0.9882  0.1842
  234MOL0     H31584   8.045  10.213   7.101 -1.7202 -2.9562 -1.0855
  234MOL0     H31585   8.033  10.096   7.233  2.4966 -2.2917 -1.1569
  234MOL0     H31586   8.118  10.482   7.400  0.1276  0.5533 -0.8275
  234MOL0     H31587   8.663   9.951   7.136 -3.0715  0.4843  2.4227
  234MOL0     H31588   9.001   9.970   7.070  0.5308 -1.0742  1.2597
  234MOL0     H31589   8.975   9.823   7.171 -1.3125 -2.2792 -0.8669
  234MOL0     H31590   8.865   9.856   7.046 -1.3094  0.0500  0.6575
  235MOL0     O31591   1.035   6.099   2.542  0.6452  0.8430  0.6740
  235MOL0     C31592   1.028   6.221   2.540 -0.1267  0.1594  1.2840
  235MOL0     O31593   1.031   6.298   2.422 -0.1837  0.0849 -0.2240
  235MOL0     C31594   1.022   6.243   2.292 -0.3493 -0.1343  0.3689
  235MOL0     C31595   0.974   6.125   2.252 -0.0406 -0.0171  0.4015
  235MOL0     C31596   0.953   6.092   2.120 -0.0246  0.4758  0.9639
  235MOL0     C31597   0.991   6.183   2.021 -0.1776 -0.2766 -0.5946
  235MOL0     O31598   0.969   6.157   1.890  0.1711 -1.2083 -0.1182
  235MOL0     C31599   1.031   6.032   1.846 -0.3430 -0.8140 -0.3648
  235MOL0     C31600   0.928   5.949   1.774  0.2954 -0.4281  0.6159
  235MOL0     C31601   0.914   5.994   1.624  0.0705 -1.5790  0.1114
  235MOL0     C31602   0.805   5.932   1.550  0.3465  0.1415 -0.3602
  235MOL0     C31603   0.795   5.975   1.401 -0.6449 -0.9181 -1.2053
  235MOL0     C31604   0.658   5.938   1.342  0.4775  0.5461 -0.3239
  235MOL0     C31605   0.672   5.995   1.195 -0.5980 -0.8189 -0.3483
  235MOL0     C31606   0.552   5.963   1.110 -0.7591 -0.5531 -0.5560
  235MOL0     N31607   0.531   5.823   1.088 -0.5835  0.1231  0.3589
  235MOL0     C31608   0.434   5.753   1.152 -0.1996  0.0064 -0.4552
  235MOL0     C31609   0.442   5.628   1.106 -0.2118 -0.2651  0.1422
  235MOL0     C31610   0.380   5.510   1.181 -0.1004  0.5518  0.0867
  235MOL0     C31611   0.444   5.476   1.321  0.8079  0.0070  0.2076
  235MOL0     C31612   0.365   5.362   1.376 -0.1675 -0.3061  0.6168
  235MOL0     C31613   0.425   5.327   1.503 -1.5244 -0.1449 -0.2623
  235MOL0     O31614   0.401   5.192   1.525  0.7989 -0.4180  0.6719
  235MOL0     C31615   0.497   5.132   1.603 -0.0764 -0.1151  0.6304
  235MOL0     C31616   0.550   5.013   1.551 -0.1637 -1.1126  0.3328
  235MOL0     C31617   0.648   4.939   1.620 -0.6851 -0.6920 -0.4655
  235MOL0     C31618   0.693   4.999   1.745 -0.3444  0.6045 -0.6583
  235MOL0     C31619   0.798   4.927   1.819 -0.2837 -0.4252 -0.9434
  235MOL0     O31620   0.839   4.813   1.770  0.1667 -1.2836 -0.4167
  235MOL0     C31621   0.930   4.736   1.840  0.0482  0.7842 -0.6619
  235MOL0     C31622   1.071   4.754   1.831  0.7874  0.0681  0.0884
  235MOL0     C31623   1.162   4.678   1.904  0.4038  0.2811 -1.0096
  235MOL0     C31624   1.111   4.572   1.980 -0.0266 -0.6382 -0.0146
  235MOL0     O31625   1.193   4.477   2.040  0.1514  0.1335 -0.3611
  235MOL0     C31626   1.299   4.518   2.130  0.1823 -0.0496  0.2002
  235MOL0     C31627   1.366   4.396   2.204 -0.0914 -0.3491 -0.3738
  235MOL0     C31628   1.515   4.398   2.191 -1.0778  0.8790 -0.0282
  235MOL0     C31629   1.599   4.494   2.275 -0.1958  0.6566  0.2831
  235MOL0     C31630   1.750   4.499   2.246 -0.3536  0.2885  0.3803
  235MOL0     C31631   1.798   4.523   2.108  0.1674  0.2895  0.0347
  235MOL0     C31632   1.949   4.546   2.088 -0.3340 -0.1663 -0.0875
  235MOL0     C31633   2.029   4.418   2.105  1.1244 -0.3426  0.7448
  235MOL0    Cl31634   2.198   4.461   2.051  0.5248 -0.5986 -0.3570
  235MOL0     C31635   0.973   4.558   1.997 -0.7999 -0.2010 -0.1655
  235MOL0     C31636   0.879   4.645   1.935 -0.6342  0.4266  0.1178
  235MOL0     O31637   0.831   4.974   1.927  0.1219 -0.4480 -0.2948
  235MOL0     C31638   0.622   5.110   1.805  0.4976 -0.3255 -0.1034
  235MOL0     C31639   0.538   5.186   1.726 -0.6236 -0.0274 -0.5552
  235MOL0     N31640   0.541   5.632   1.016  0.1784  0.4957  0.2675
  235MOL0     N31641   0.597   5.745   0.998  0.8274 -0.5592 -0.2570
  235MOL0     C31642   1.038   6.310   2.057 -0.0706  0.1724  0.1570
  235MOL0     C31643   1.057   6.331   2.192 -1.1450  0.7133 -0.1394
  235MOL0     C31644   1.025   6.286   2.673  0.4551 -0.0275  0.3540
  235MOL0     C31645   0.994   6.207   2.789  0.1091 -0.7215  0.0168
  235MOL0     C31646   0.978   6.272   2.909 -0.2987  0.6240  0.1955
  235MOL0     C31647   0.971   6.413   2.920  0.8657  0.7694  0.2663
  235MOL0     O31648   0.937   6.458   3.047  0.1250  0.4449 -0.6647
  235MOL0     C31649   0.919   6.599   3.063  0.9168  0.3995  0.1201
  235MOL0     C31650   1.049   6.677   3.096  0.1298 -0.2219 -0.1005
  235MOL0     C31651   1.072   6.688   3.244  0.3734 -0.9952 -0.4491
  235MOL0     C31652   1.195   6.756   3.286  0.5001  0.1087  0.5658
  235MOL0     C31653   1.308   6.661   3.295 -0.8216 -0.3869  0.6420
  235MOL0     C31654   1.398   6.584   3.307  0.1599 -0.2447 -0.4380
  235MOL0     C31655   1.010   6.486   2.818 -0.0492  0.2443  0.3147
  235MOL0     C31656   1.040   6.428   2.691 -0.0872 -0.0095 -0.0952
  235MOL0     C31657   1.092   6.525   2.588  0.5314 -0.9782  0.1057
  235MOL0     H31658   0.942   6.051   2.324  2.6882  0.0583  1.8181
  235MOL0     H31659   0.901   6.001   2.091  0.8057  0.0178  0.8724
  235MOL0     H31660   1.108   6.062   1.774 -0.3641  0.7033  0.2179
  235MOL0     H31661   1.091   5.987   1.926  0.9393  1.8775  0.2987
  235MOL0     H31662   0.835   5.961   1.830  1.3191 -2.8685  3.0234
  235MOL0     H31663   0.943   5.842   1.784  3.5416 -0.2367 -0.9731
  235MOL0     H31664   1.008   5.963   1.576  0.6170 -1.5431  1.1277
  235MOL0     H31665   0.894   6.101   1.628 -0.8545 -1.7209 -0.5774
  235MOL0     H31666   0.829   5.825   1.554  1.8806  0.3770 -2.0018
  235MOL0     H31667   0.713   5.949   1.607 -0.7161 -1.9935 -1.3013
  235MOL0     H31668   0.803   6.084   1.394 -2.2882 -0.8210 -1.8770
  235MOL0     H31669   0.886   5.937   1.354  1.3375  1.4321  0.5030
  235MOL0     H31670   0.640   5.830   1.346 -2.9647  1.0405  3.0535
  235MOL0     H31671   0.584   5.994   1.400  0.3632  1.0291 -0.9211
  235MOL0     H31672   0.765   5.962   1.147 -0.9331  2.7360 -4.0247
  235MOL0     H31673   0.672   6.105   1.194  2.3380 -0.7526 -0.3799
  235MOL0     H31674   0.463   6.007   1.157  0.2445 -0.6251  1.4797
  235MOL0     H31675   0.562   6.011   1.012  0.8855  2.3510  0.8998
  235MOL0     H31676   0.373   5.789   1.234  2.3791 -0.1604  1.6720
  235MOL0     H31677   0.273   5.528   1.196 -0.7138 -2.0653 -0.5935
  235MOL0     H31678   0.390   5.417   1.124 -2.2193 -0.4095  1.1729
  235MOL0     H31679   0.549   5.443   1.319  0.0925 -2.5702  0.9476
  235MOL0     H31680   0.423   5.559   1.390  4.4486  1.9623 -0.7823
  235MOL0     H31681   0.371   5.273   1.313 -1.9366 -1.1474  1.5554
  235MOL0     H31682   0.265   5.405   1.377  0.9734  2.6482 -1.0753
  235MOL0     H31683   0.385   5.387   1.585 -1.1389 -0.6350  0.2969
  235MOL0     H31684   0.533   5.346   1.504 -1.7796  1.4986  0.8407
  235MOL0     H31685   0.510   4.973   1.459  0.6957  2.6212 -1.8549
  235MOL0     H31686   0.682   4.839   1.594 -1.8412 -1.2550  0.0985
  235MOL0     H31687   1.109   4.839   1.775 -0.6876 -0.0032 -1.0979
  235MOL0     H31688   1.269   4.687   1.891  0.3745 -0.9825 -2.2747
  235MOL0     H31689   1.377   4.572   2.077 -0.9365  0.9750 -0.4657
  235MOL0     H31690   1.272   4.596   2.202 -0.6638  0.7046 -0.9017
  235MOL0     H31691   1.329   4.402   2.307 -3.0490 -0.1267 -1.3681
  235MOL0     H31692   1.338   4.297   2.167  0.8985 -1.2368  1.1611
  235MOL0     H31693   1.553   4.298   2.214 -1.4134  0.4226 -1.3955
  235MOL0     H31694   1.532   4.415   2.085 -2.8307  1.6404 -0.2126
  235MOL0     H31695   1.590   4.477   2.383  2.4411  1.5734  0.7184
  235MOL0     H31696   1.548   4.589   2.261  1.1104  1.0605 -2.4610
  235MOL0     H31697   1.792   4.410   2.295 -2.1458 -0.2126  1.0747
  235MOL0     H31698   1.794   4.579   2.307  1.9078 -0.4111 -0.2329
  235MOL0     H31699   1.769   4.450   2.032  3.3786 -0.7673 -0.3394
  235MOL0     H31700   1.760   4.619   2.073 -0.2325  0.2965  0.4710
  235MOL0     H31701   1.979   4.615   2.167  3.3256  0.0473 -1.4559
  235MOL0     H31702   1.967   4.585   1.987 -1.3479  1.3834  0.2943
  235MOL0     H31703   2.028   4.384   2.209 -1.1743 -1.0827  0.5294
  235MOL0     H31704   1.998   4.341   2.033  1.7571 -0.4146  0.5424
  235MOL0     H31705   0.943   4.484   2.071 -0.9774  0.1640  0.1323
  235MOL0     H31706   0.772   4.641   1.951 -0.4438  1.2553  1.8728
  235MOL0     H31707   0.628   5.134   1.911 -2.1181 -1.7508  0.4567
  235MOL0     H31708   0.504   5.283   1.763  0.8717  1.8960 -3.7404
  235MOL0     H31709   1.059   6.400   2.001 -0.9710  2.1829  2.8504
  235MOL0     H31710   1.100   6.426   2.221 -0.3018  1.0780 -2.4029
  235MOL0     H31711   0.996   6.099   2.799 -2.5249 -0.6686  2.6869
  235MOL0     H31712   0.966   6.223   3.005  1.3342  1.5342  0.8986
  235MOL0     H31713   0.847   6.604   3.146 -1.9522  0.7808 -2.2297
  235MOL0     H31714   0.865   6.647   2.981  0.2888 -1.2006 -0.4536
  235MOL0     H31715   1.045   6.775   3.050 -2.3475 -0.1061  0.2284
  235MOL0     H31716   1.128   6.618   3.048 -2.4997 -1.9359 -2.5672
  235MOL0     H31717   1.069   6.588   3.287  0.9263 -1.5898 -1.7408
  235MOL0     H31718   0.990   6.748   3.286 -1.0362 -0.0763 -4.1443
  235MOL0     H31719   1.225   6.843   3.227  1.2231 -1.8585 -2.1782
  235MOL0     H31720   1.175   6.797   3.385  1.9624  3.0987 -0.2971
  235MOL0     H31721   1.478   6.513   3.302 -0.4143 -1.1875  2.2807
  235MOL0     H31722   1.024   6.594   2.829  2.9601 -0.0098 -0.0324
  235MOL0     H31723   1.106   6.625   2.631  1.5557 -1.3176  0.5890
  235MOL0     H31724   1.194   6.494   2.563  1.4656  0.4346  1.9299
  235MOL0     H31725   1.020   6.526   2.506 -0.5975  0.1766  1.0749
  236MOL0     O31726   8.376   5.508   6.836 -1.6820  0.2486 -0.1753
  236MOL0     C31727   8.443   5.525   6.733 -0.0090 -0.3223 -0.4720
  236MOL0     O31728   8.574   5.559   6.726  0.0079  0.5962  0.2373
  236MOL0     C31729   8.629   5.578   6.846 -0.4203 -0.3454  0.5286
  236MOL0     C31730   8.710   5.689   6.870  0.6160 -0.1681 -0.1839
  236MOL0     C31731   8.811   5.688   6.965  0.1795  0.5443  0.0718
  236MOL0     C31732   8.816   5.588   7.053 -0.3061  0.2416 -0.0426
  236MOL0     O31733   8.907   5.601   7.165 -0.3405 -0.0593  0.4001
  236MOL0     C31734   8.965   5.479   7.227  0.3053 -0.0742 -0.8501
  236MOL0     C31735   9.049   5.553   7.338  0.2817 -0.6212  0.6154
  236MOL0     C31736   9.150   5.458   7.398  0.4220  1.2265  0.1096
  236MOL0     C31737   9.198   5.522   7.526  0.8790 -0.0998 -1.1375
  236MOL0     C31738   9.343   5.482   7.563 -0.3806  0.2382 -0.2419
  236MOL0     C31739   9.383   5.534   7.699  0.4183  0.0056 -0.2650
  236MOL0     C31740   9.530   5.507   7.727  0.4688 -0.0720 -0.7692
  236MOL0     C31741   9.569   5.361   7.752  0.2726  0.1144  1.1436
  236MOL0     N31742   9.701   5.362   7.802  0.2968  0.0115 -0.2592
  236MOL0     C31743   9.804   5.340   7.708  0.0385 -0.4790  0.0669
  236MOL0     C31744   9.913   5.382   7.771  0.7798  0.2928  0.9044
  236MOL0     C31745  10.046   5.374   7.704  0.5358  0.4653 -0.3556
  236MOL0     C31746  10.172   5.437   7.771  0.4242 -0.6166  0.0257
  236MOL0     C31747  10.284   5.394   7.667  0.4215  0.5090 -1.0650
  236MOL0     C31748  10.421   5.440   7.708 -0.4868  0.0216  0.4117
  236MOL0     O31749  10.446   5.423   7.849  0.4430 -0.6906  0.2620
  236MOL0     C31750  10.577   5.439   7.886 -0.2976 -0.3776 -0.4289
  236MOL0     C31751  10.679   5.494   7.804  0.5758  0.6071 -0.3985
  236MOL0     C31752  10.809   5.488   7.864  0.3314  0.2283 -0.3587
  236MOL0     C31753  10.832   5.442   7.990 -0.8388  0.2098  0.2048
  236MOL0     C31754  10.975   5.435   8.041 -0.6078 -0.3280  0.0555
  236MOL0     O31755  11.006   5.360   8.149 -0.0743  0.5387  0.9265
  236MOL0     C31756  11.139   5.346   8.187 -0.6533  0.2425  0.6909
  236MOL0     C31757  11.206   5.237   8.129 -0.4631 -0.0539  0.5712
  236MOL0     C31758  11.343   5.217   8.167  0.0117  0.4673 -0.2062
  236MOL0     C31759  11.397   5.293   8.273 -0.5930  0.5373 -0.0578
  236MOL0     O31760  11.532   5.258   8.300  0.2716 -0.0546  0.1408
  236MOL0     C31761  11.601   5.351   8.383  0.1589 -0.2785 -0.6150
  236MOL0     C31762  11.755   5.334   8.367  0.3204  0.2371 -0.8255
  236MOL0     C31763  11.819   5.456   8.446  0.1751  0.4648  1.2190
  236MOL0     C31764  11.977   5.445   8.440 -0.0558  0.5325  0.4282
  236MOL0     C31765  12.038   5.543   8.534  0.4501  0.3761  0.5595
  236MOL0     C31766  12.178   5.527   8.550 -0.3929  1.1581 -0.2337
  236MOL0     C31767  12.232   5.378   8.600  0.4599  0.7115  0.4917
  236MOL0     C31768  12.384   5.380   8.637  0.0508 -0.3980  0.7237
  236MOL0    Cl31769  12.478   5.386   8.476 -0.2398 -0.0581 -0.3900
  236MOL0     C31770  11.319   5.386   8.334 -0.1901 -0.7648  0.3247
  236MOL0     C31771  11.195   5.426   8.288  0.8774  0.1335  0.1591
  236MOL0     O31772  11.052   5.520   7.996  0.3330  1.2525 -0.2403
  236MOL0     C31773  10.727   5.409   8.073  0.1839  0.2726  0.2661
  236MOL0     C31774  10.596   5.405   8.023 -0.3379  0.5566  0.0395
  236MOL0     N31775   9.879   5.457   7.887  1.0184 -0.1901  0.9119
  236MOL0     N31776   9.747   5.439   7.912 -1.0999 -0.1895 -0.6482
  236MOL0     C31777   8.725   5.481   7.043 -0.7826 -0.2012  0.1586
  236MOL0     C31778   8.635   5.468   6.941  0.4478 -0.2444  0.1038
  236MOL0     C31779   8.371   5.518   6.603  0.3636 -0.3981  0.0785
  236MOL0     C31780   8.387   5.622   6.514  0.9413 -0.1522 -0.0416
  236MOL0     C31781   8.317   5.623   6.392 -0.9110  0.6338 -1.0503
  236MOL0     C31782   8.238   5.520   6.346 -0.4657  0.6112  0.7698
  236MOL0     O31783   8.172   5.541   6.222 -0.1329  0.7209 -0.4510
  236MOL0     C31784   8.029   5.503   6.231 -0.3508 -0.0543 -0.7257
  236MOL0     C31785   8.004   5.379   6.140  0.1654 -0.0336 -0.2114
  236MOL0     C31786   7.876   5.390   6.048 -0.4877 -0.2134  0.2025
  236MOL0     C31787   7.859   5.250   5.969  1.1225  0.5145 -0.3965
  236MOL0     C31788   7.978   5.208   5.884  0.1572 -0.4613 -0.1533
  236MOL0     C31789   8.068   5.184   5.807  0.4249 -0.3115 -0.0557
  236MOL0     C31790   8.219   5.415   6.441 -0.7699  0.1581  0.6612
  236MOL0     C31791   8.281   5.415   6.564  0.1830 -0.2469 -1.2201
  236MOL0     C31792   8.255   5.293   6.659  0.2796  0.0059  1.1135
  236MOL0     H31793   8.725   5.757   6.787 -0.7537 -0.2138 -0.4981
  236MOL0     H31794   8.892   5.760   6.965  1.7436 -1.0612  1.8138
  236MOL0     H31795   8.897   5.407   7.272  1.1697 -1.0929 -1.1365
  236MOL0     H31796   9.019   5.420   7.152  1.2328  1.6143 -1.5615
  236MOL0     H31797   8.985   5.604   7.410  2.8659  0.1042  2.5432
  236MOL0     H31798   9.108   5.630   7.288 -2.3039 -0.0781 -1.8979
  236MOL0     H31799   9.233   5.449   7.326 -0.9091  3.2272 -1.8254
  236MOL0     H31800   9.117   5.357   7.422  2.4465  0.5066  0.0802
  236MOL0     H31801   9.194   5.629   7.505 -0.5615 -0.4506 -2.8520
  236MOL0     H31802   9.137   5.510   7.616  0.5473 -0.4951 -1.4137
  236MOL0     H31803   9.358   5.374   7.569 -2.5570 -0.0778  0.5199
  236MOL0     H31804   9.415   5.513   7.487  2.9549 -1.4159  1.9918
  236MOL0     H31805   9.361   5.641   7.696 -2.9028 -0.4457  2.2292
  236MOL0     H31806   9.319   5.500   7.780  1.1132  1.1383  0.7953
  236MOL0     H31807   9.565   5.567   7.811  2.2021 -0.5746 -1.0902
  236MOL0     H31808   9.583   5.549   7.641 -0.6722  2.7318 -0.2206
  236MOL0     H31809   9.494   5.318   7.819 -0.6422  2.2938  1.5901
  236MOL0     H31810   9.554   5.309   7.657  0.1581  1.3868  0.4520
  236MOL0     H31811   9.781   5.289   7.615 -0.4356  1.7793 -1.1329
  236MOL0     H31812  10.056   5.265   7.704  0.1771  0.2859  3.6080
  236MOL0     H31813  10.044   5.417   7.603  2.7740 -0.2807 -0.7752
  236MOL0     H31814  10.167   5.546   7.781  0.6890 -0.7031  1.2407
  236MOL0     H31815  10.182   5.389   7.869  0.4697 -0.4802  0.0879
  236MOL0     H31816  10.260   5.434   7.568  1.2282  1.1491 -1.0153
  236MOL0     H31817  10.293   5.285   7.670  2.0972  0.6333  1.3378
  236MOL0     H31818  10.424   5.546   7.681 -1.0145 -0.7893 -3.4271
  236MOL0     H31819  10.499   5.394   7.647  0.7170  4.1101 -1.4925
  236MOL0     H31820  10.652   5.528   7.705 -1.2896 -1.2570 -0.6162
  236MOL0     H31821  10.889   5.520   7.798 -2.2273  2.8845 -2.4361
  236MOL0     H31822  11.167   5.177   8.047 -1.1295  1.8733 -0.5666
  236MOL0     H31823  11.391   5.134   8.115  1.2172  2.3460 -2.2508
  236MOL0     H31824  11.567   5.450   8.353  0.5505  0.5640  1.5339
  236MOL0     H31825  11.579   5.343   8.490  1.9784  4.4020  0.3317
  236MOL0     H31826  11.771   5.232   8.401 -3.0497 -0.3791 -0.6934
  236MOL0     H31827  11.775   5.345   8.260 -1.2900  2.8813 -0.9593
  236MOL0     H31828  11.781   5.548   8.400  1.5367 -0.6871 -2.6205
  236MOL0     H31829  11.794   5.461   8.552  0.1956  1.2858  1.1898
  236MOL0     H31830  12.023   5.447   8.340  3.2794  2.1596  1.8388
  236MOL0     H31831  12.019   5.351   8.476  0.7991 -0.5465 -2.9628
  236MOL0     H31832  11.995   5.544   8.634  1.1840 -0.1938  0.8882
  236MOL0     H31833  12.020   5.644   8.496  1.2131 -0.0583 -1.0715
  236MOL0     H31834  12.229   5.559   8.458  1.1479  0.3642  0.2978
  236MOL0     H31835  12.209   5.594   8.631 -1.1886  0.0598  1.0202
  236MOL0     H31836  12.226   5.308   8.516  2.7584 -0.8014  1.4767
  236MOL0     H31837  12.163   5.347   8.679 -0.7755  0.7792 -0.5332
  236MOL0     H31838  12.399   5.471   8.696  2.0813 -0.2055  0.0011
  236MOL0     H31839  12.417   5.295   8.696 -1.0172 -2.0882 -0.9974
  236MOL0     H31840  11.342   5.432   8.429 -2.7861  1.7301 -0.1193
  236MOL0     H31841  11.124   5.485   8.345  0.3657 -1.4762  1.2821
  236MOL0     H31842  10.756   5.390   8.176 -1.3074  0.7206  0.7974
  236MOL0     H31843  10.511   5.367   8.079  1.0836 -2.0858  0.5804
  236MOL0     H31844   8.739   5.404   7.119  1.4179  0.0528  0.0719
  236MOL0     H31845   8.571   5.380   6.942  0.6467 -0.4332  2.2082
  236MOL0     H31846   8.453   5.704   6.537 -0.9182  0.9223  1.8060
  236MOL0     H31847   8.319   5.709   6.327 -1.5467  1.0378 -0.5470
  236MOL0     H31848   7.971   5.589   6.197  0.9462  0.2699 -2.2780
  236MOL0     H31849   7.993   5.475   6.330  1.2337 -1.1849 -0.4296
  236MOL0     H31850   7.983   5.301   6.213 -1.1514  1.5815  1.2253
  236MOL0     H31851   8.094   5.355   6.082  0.4217 -2.5413  1.1254
  236MOL0     H31852   7.888   5.464   5.967  2.3656 -0.6589  0.1529
  236MOL0     H31853   7.787   5.404   6.111 -0.4006 -3.2018  1.1434
  236MOL0     H31854   7.843   5.165   6.037  4.4876  0.3415  0.3431
  236MOL0     H31855   7.773   5.272   5.905  0.5095  3.1257  1.1836
  236MOL0     H31856   8.154   5.159   5.748 -0.3935 -1.8630 -0.6603
  236MOL0     H31857   8.140   5.343   6.425 -0.6127 -0.0022  0.5999
  236MOL0     H31858   8.178   5.241   6.601  1.0656  1.6747 -1.6208
  236MOL0     H31859   8.341   5.225   6.658 -2.1135 -3.2221 -0.1435
  236MOL0     H31860   8.228   5.315   6.763 -2.0428 -2.2141  1.0851
  237MOL0     O31861   2.375   5.631   3.120 -0.2298  0.0813 -0.0086
  237MOL0     C31862   2.368   5.622   2.997  0.0403 -0.2462  0.1306
  237MOL0     O31863   2.473   5.596   2.918  0.6205  0.3537 -0.4923
  237MOL0     C31864   2.593   5.598   2.974 -0.0439  0.1827 -0.2885
  237MOL0     C31865   2.661   5.716   2.967 -0.2284 -0.7239  0.3734
  237MOL0     C31866   2.792   5.714   3.015 -0.1510  0.2788 -0.2271
  237MOL0     C31867   2.854   5.600   3.078 -0.1715 -0.3065 -0.3784
  237MOL0     O31868   2.979   5.623   3.124  0.1540  0.8909  0.0186
  237MOL0     C31869   3.058   5.507   3.171  0.9523  0.0907  0.0770
  237MOL0     C31870   3.193   5.572   3.210  0.9182 -0.3369  0.8722
  237MOL0     C31871   3.277   5.493   3.308 -0.3384 -0.6363 -0.2138
  237MOL0     C31872   3.347   5.373   3.248 -0.5901 -0.2633  0.8865
  237MOL0     C31873   3.470   5.406   3.159  0.3333  0.4496  0.8725
  237MOL0     C31874   3.601   5.454   3.224  0.2019  0.5819 -0.8098
  237MOL0     C31875   3.634   5.380   3.350 -0.0951  0.7051  0.7390
  237MOL0     C31876   3.788   5.357   3.381 -0.8666  0.3542  0.3090
  237MOL0     N31877   3.860   5.483   3.428 -0.7479 -0.4083  0.8048
  237MOL0     C31878   3.949   5.480   3.530  0.4357 -0.7615 -0.3829
  237MOL0     C31879   3.948   5.610   3.568  0.3839 -1.0497 -0.4491
  237MOL0     C31880   4.036   5.654   3.684 -0.9915 -0.6858  0.3374
  237MOL0     C31881   4.174   5.685   3.632  0.7634 -0.3329  0.1892
  237MOL0     C31882   4.218   5.824   3.687 -0.4907  0.1232 -1.3565
  237MOL0     C31883   4.374   5.834   3.661  0.5856 -0.1279  0.4454
  237MOL0     O31884   4.411   5.964   3.708 -0.0021  0.3168  0.0737
  237MOL0     C31885   4.544   6.009   3.700  0.4865 -0.4984  0.2807
  237MOL0     C31886   4.651   5.951   3.629  0.2310  0.1772  0.2260
  237MOL0     C31887   4.772   6.003   3.622  0.2058  0.3243 -0.6348
  237MOL0     C31888   4.806   6.122   3.698  0.6276  1.1821 -0.3471
  237MOL0     C31889   4.946   6.182   3.695  1.1545  1.0198 -0.1149
  237MOL0     O31890   5.034   6.125   3.617 -1.0427  0.9735 -0.9328
  237MOL0     C31891   5.164   6.172   3.617  0.3323  0.1525 -0.0393
  237MOL0     C31892   5.209   6.307   3.639 -0.0614 -0.0589 -0.1068
  237MOL0     C31893   5.346   6.332   3.622 -0.3700  0.7493 -0.0756
  237MOL0     C31894   5.442   6.227   3.606  0.6431  0.2785  0.7162
  237MOL0     O31895   5.580   6.233   3.611 -0.2432 -0.7505 -0.6740
  237MOL0     C31896   5.641   6.358   3.582 -0.2594 -0.3969 -0.7085
  237MOL0     C31897   5.797   6.362   3.560  0.1835  0.6489 -0.0483
  237MOL0     C31898   5.848   6.245   3.465  0.2029  0.0489  0.1214
  237MOL0     C31899   6.001   6.228   3.467  0.2374 -0.0207 -0.1009
  237MOL0     C31900   6.043   6.159   3.335  0.1553  0.2560  0.3608
  237MOL0     C31901   6.195   6.146   3.320  0.0940 -0.4807  0.3730
  237MOL0     C31902   6.259   6.262   3.236 -0.7101 -0.4947  0.2836
  237MOL0     C31903   6.415   6.248   3.242  0.4261  0.9195 -0.3472
  237MOL0    Cl31904   6.471   6.317   3.394 -0.1725 -0.4121  0.0581
  237MOL0     C31905   5.384   6.101   3.579 -0.5475  0.0682  0.8018
  237MOL0     C31906   5.246   6.076   3.576  0.2719  0.8446  0.1799
  237MOL0     O31907   4.952   6.289   3.751  0.1576 -0.8700  0.5151
  237MOL0     C31908   4.700   6.178   3.773 -0.0273  0.9324  0.7118
  237MOL0     C31909   4.575   6.118   3.780 -0.0514 -0.3203 -0.5749
  237MOL0     N31910   3.872   5.691   3.482 -0.6196 -0.0643 -0.0921
  237MOL0     N31911   3.822   5.610   3.402 -0.2191  0.2248 -0.2505
  237MOL0     C31912   2.776   5.484   3.087  0.5803  0.2452 -1.0660
  237MOL0     C31913   2.650   5.487   3.037  0.1846  0.2774  0.4346
  237MOL0     C31914   2.235   5.640   2.944 -0.0309  0.6102 -0.6234
  237MOL0     C31915   2.130   5.601   3.036 -0.1711 -0.5654  0.4967
  237MOL0     C31916   1.999   5.613   2.993  1.0182 -1.4244 -0.1256
  237MOL0     C31917   1.956   5.657   2.873 -0.2993  0.3491 -0.0519
  237MOL0     O31918   1.821   5.677   2.840  0.6030  0.4348  0.4521
  237MOL0     C31919   1.711   5.626   2.923  0.8414  0.0644 -0.1472
  237MOL0     C31920   1.589   5.711   2.880 -0.0251 -0.3354  0.6315
  237MOL0     C31921   1.469   5.697   2.963  0.9567  0.1470 -0.7640
  237MOL0     C31922   1.330   5.724   2.912  0.3882  0.4143 -0.5203
  237MOL0     C31923   1.325   5.847   2.837  0.1863 -0.0274 -0.3607
  237MOL0     C31924   1.316   5.961   2.785  0.1399 -0.0483 -1.0183
  237MOL0     C31925   2.058   5.695   2.781 -0.5846  0.1738  0.0036
  237MOL0     C31926   2.197   5.680   2.811 -0.3539 -0.0853  0.1735
  237MOL0     C31927   2.310   5.694   2.704 -0.2400 -0.9636 -1.2731
  237MOL0     H31928   2.625   5.811   2.927  0.1124 -0.7548 -0.0162
  237MOL0     H31929   2.844   5.807   2.996 -2.0029  1.4195  0.0308
  237MOL0     H31930   3.007   5.460   3.256  1.8826 -0.2061  0.4775
  237MOL0     H31931   3.066   5.434   3.090  0.3713 -2.1979  1.9683
  237MOL0     H31932   3.175   5.668   3.261 -0.8966 -0.4020  0.4459
  237MOL0     H31933   3.249   5.590   3.118 -2.1794 -0.0046 -1.0937
  237MOL0     H31934   3.214   5.467   3.394 -2.0710  1.5190 -0.7362
  237MOL0     H31935   3.350   5.565   3.349 -1.4344  1.4990 -1.7995
  237MOL0     H31936   3.377   5.304   3.327 -0.7101  0.6135  1.7154
  237MOL0     H31937   3.276   5.325   3.180  2.5547 -0.1187 -2.8675
  237MOL0     H31938   3.494   5.325   3.089  0.0005  2.0680 -1.2038
  237MOL0     H31939   3.440   5.484   3.090  0.8472  0.0178  0.1455
  237MOL0     H31940   3.687   5.440   3.158  0.4608 -0.1964 -0.3171
  237MOL0     H31941   3.588   5.560   3.247  0.4193 -0.2285  4.1157
  237MOL0     H31942   3.594   5.279   3.338 -2.1841  1.7460 -2.2429
  237MOL0     H31943   3.579   5.418   3.437  1.2644  0.4991  1.7268
  237MOL0     H31944   3.791   5.277   3.456 -0.0964  0.1490  0.0649
  237MOL0     H31945   3.848   5.330   3.294 -0.8353  1.1611  0.0724
  237MOL0     H31946   3.987   5.391   3.577  3.2240  0.6613  0.2350
  237MOL0     H31947   3.989   5.739   3.735 -1.9239 -2.7430  3.1665
  237MOL0     H31948   4.038   5.575   3.760  1.8263  0.7605  1.9384
  237MOL0     H31949   4.244   5.610   3.670 -1.4083 -2.0079  1.1236
  237MOL0     H31950   4.164   5.677   3.524  1.6892 -0.9567  0.1409
  237MOL0     H31951   4.204   5.835   3.795  0.4529  4.8138 -1.4719
  237MOL0     H31952   4.157   5.899   3.636 -0.4958  0.1554 -1.3032
  237MOL0     H31953   4.409   5.820   3.559  0.9475  2.1764  0.1896
  237MOL0     H31954   4.420   5.756   3.723 -0.5789 -0.9227  0.3307
  237MOL0     H31955   4.640   5.871   3.556 -1.0334 -1.2892  1.9608
  237MOL0     H31956   4.846   5.957   3.557  2.9488  3.1303  0.2176
  237MOL0     H31957   5.146   6.392   3.662  0.0083 -0.1654  0.5025
  237MOL0     H31958   5.380   6.434   3.639  0.0866  0.3476  1.7000
  237MOL0     H31959   5.593   6.401   3.494 -0.6908  1.4872  0.3980
  237MOL0     H31960   5.619   6.424   3.666 -1.3663  1.1857 -2.1731
  237MOL0     H31961   5.820   6.464   3.526  0.7490  0.0540 -1.5420
  237MOL0     H31962   5.838   6.349   3.661 -2.4121  0.4229  1.0573
  237MOL0     H31963   5.812   6.150   3.505 -1.5404 -1.4510 -4.4338
  237MOL0     H31964   5.813   6.269   3.364 -2.1511  1.6502  1.2208
  237MOL0     H31965   6.042   6.178   3.555  1.7677  0.3321 -0.5900
  237MOL0     H31966   6.044   6.329   3.460 -0.6556  0.2817 -1.9354
  237MOL0     H31967   5.997   6.203   3.246  1.1830 -1.1088 -0.9074
  237MOL0     H31968   5.989   6.064   3.338 -0.2014  0.3006  5.8316
  237MOL0     H31969   6.230   6.118   3.420 -0.1237 -1.7737  0.0988
  237MOL0     H31970   6.233   6.065   3.258  1.5574  1.4036 -1.3493
  237MOL0     H31971   6.232   6.364   3.266 -3.1509 -1.2007  0.6918
  237MOL0     H31972   6.236   6.246   3.130 -0.2581 -0.8054  0.2294
  237MOL0     H31973   6.438   6.142   3.228 -3.4593 -0.0377 -0.8463
  237MOL0     H31974   6.459   6.305   3.160  3.0826 -0.6238 -0.1159
  237MOL0     H31975   5.457   6.022   3.564 -1.6797 -1.1811  1.6480
  237MOL0     H31976   5.207   5.979   3.548  3.5238 -0.4073 -0.4482
  237MOL0     H31977   4.731   6.266   3.831  1.2913  0.4790  0.7391
  237MOL0     H31978   4.496   6.158   3.843  1.5395 -1.3689  2.2500
  237MOL0     H31979   2.810   5.392   3.132 -0.4024  1.5093  2.5772
  237MOL0     H31980   2.598   5.392   3.030  1.9235 -0.6511 -0.6334
  237MOL0     H31981   2.145   5.576   3.141 -1.1368  1.0815  1.0541
  237MOL0     H31982   1.930   5.595   3.075  0.0206 -2.4793 -1.1541
  237MOL0     H31983   1.734   5.642   3.029  1.1056 -0.3669 -0.1370
  237MOL0     H31984   1.689   5.520   2.905 -1.9220  0.6576 -0.8228
  237MOL0     H31985   1.559   5.674   2.782  2.1698  0.9917 -0.6242
  237MOL0     H31986   1.626   5.814   2.870  1.8799 -1.0351  0.0429
  237MOL0     H31987   1.476   5.753   3.057  1.5997 -1.1829  0.0250
  237MOL0     H31988   1.461   5.590   2.986  1.1991  0.6040  1.7710
  237MOL0     H31989   1.282   5.643   2.855  2.3815  1.4856 -4.0457
  237MOL0     H31990   1.279   5.731   3.008  3.6759  1.0690  1.3237
  237MOL0     H31991   1.294   6.061   2.757 -2.3910 -0.4159 -0.5560
  237MOL0     H31992   2.024   5.733   2.685 -0.3072 -2.0735 -1.0430
  237MOL0     H31993   2.264   5.738   2.615  0.3288  2.4547 -0.0188
  237MOL0     H31994   2.386   5.766   2.736 -1.1729  0.3330 -1.8580
  237MOL0     H31995   2.347   5.596   2.675 -3.8606 -2.6964 -0.6290
  238MOL0     O31996   7.107   0.669   8.533  0.5833 -0.4497  0.1055
  238MOL0     C31997   7.003   0.690   8.473  0.1293  0.2140 -0.2447
  238MOL0     O31998   6.979   0.798   8.387  0.7000  0.4294 -0.1019
  238MOL0     C31999   7.072   0.897   8.379 -0.0484 -0.1163  0.0492
  238MOL0     C32000   7.145   0.905   8.253  0.3975  0.6972 -0.3389
  238MOL0     C32001   7.220   1.012   8.224 -0.6569 -0.8682  0.0550
  238MOL0     C32002   7.250   1.106   8.321 -0.0633  0.0672  0.1105
  238MOL0     O32003   7.340   1.206   8.292  0.2659 -0.4053 -0.6166
  238MOL0     C32004   7.315   1.334   8.360  0.4553  0.8682  0.2432
  238MOL0     C32005   7.406   1.446   8.310 -0.5670 -0.2430 -0.3801
  238MOL0     C32006   7.551   1.399   8.324 -0.3482  1.0377  0.5587
  238MOL0     C32007   7.634   1.518   8.270  0.1723 -0.6300 -0.4234
  238MOL0     C32008   7.786   1.507   8.266  0.3604  0.0030 -0.7764
  238MOL0     C32009   7.835   1.477   8.122 -0.1094  0.3213  0.5166
  238MOL0     C32010   7.844   1.587   8.033  0.1887 -0.0619  0.7999
  238MOL0     C32011   7.915   1.716   8.079 -0.6522 -1.5619  0.4925
  238MOL0     N32012   7.880   1.832   7.992  0.0431  1.6049  0.6434
  238MOL0     C32013   7.959   1.907   7.913  0.5078 -0.6038  0.4963
  238MOL0     C32014   7.883   1.976   7.836  0.0886  1.1432  0.6524
  238MOL0     C32015   7.916   2.049   7.703  0.1894 -0.6768  0.1343
  238MOL0     C32016   7.990   2.172   7.729 -0.7966  0.3120 -0.3040
  238MOL0     C32017   8.112   2.198   7.635  0.5095  0.0234  0.0548
  238MOL0     C32018   8.230   2.102   7.644 -0.7119 -0.7046  0.4435
  238MOL0     O32019   8.270   2.062   7.783 -0.4078 -0.2500  0.7903
  238MOL0     C32020   8.369   1.969   7.786  0.4757 -0.3183  0.3443
  238MOL0     C32021   8.361   1.857   7.867 -0.4813  0.1670  0.2829
  238MOL0     C32022   8.476   1.776   7.885  0.3272 -0.2244  0.2084
  238MOL0     C32023   8.603   1.804   7.823  0.0059 -1.2300 -0.2181
  238MOL0     C32024   8.721   1.713   7.853 -0.4797 -0.6646 -0.3761
  238MOL0     O32025   8.832   1.750   7.793  0.0098 -0.2459  0.0586
  238MOL0     C32026   8.957   1.707   7.808  0.0042 -0.1272  0.0612
  238MOL0     C32027   9.011   1.617   7.895  0.0500 -0.1004 -0.6227
  238MOL0     C32028   9.146   1.587   7.895 -0.7051  0.0693 -0.0332
  238MOL0     C32029   9.240   1.650   7.806  0.1663 -0.1177  1.1130
  238MOL0     O32030   9.373   1.617   7.803 -0.2020 -0.4733  0.9378
  238MOL0     C32031   9.430   1.533   7.907  1.7169 -0.3953  0.6056
  238MOL0     C32032   9.575   1.502   7.898  1.4534 -0.4281 -0.1085
  238MOL0     C32033   9.613   1.469   7.748 -0.3782  0.1301 -1.1431
  238MOL0     C32034   9.768   1.451   7.737 -0.6546  0.1383  0.6647
  238MOL0     C32035   9.808   1.437   7.588 -0.8739 -0.0332 -0.0760
  238MOL0     C32036   9.962   1.418   7.570 -0.1710  0.1956  1.3364
  238MOL0     C32037   9.998   1.434   7.420 -0.4118  0.5294  0.3693
  238MOL0     C32038   9.901   1.354   7.325 -0.4759 -0.1629  0.1021
  238MOL0    Cl32039   9.909   1.181   7.391 -0.5311  0.2146 -0.0193
  238MOL0     C32040   9.191   1.751   7.722 -0.1982 -0.4736  0.6679
  238MOL0     C32041   9.054   1.768   7.720 -0.4435  0.6071  0.6002
  238MOL0     O32042   8.710   1.618   7.925  0.3781  0.1217  0.8623
  238MOL0     C32043   8.605   1.920   7.755  1.0001  0.4501  0.4273
  238MOL0     C32044   8.499   1.996   7.729 -0.0813 -0.8660 -0.3775
  238MOL0     N32045   7.750   1.961   7.878  0.9468 -0.0838 -0.4667
  238MOL0     N32046   7.755   1.880   7.975  0.2525 -0.9039  0.7182
  238MOL0     C32047   7.188   1.095   8.445  0.5427 -0.3353  0.0651
  238MOL0     C32048   7.102   0.990   8.474  1.1740 -0.5417  1.0502
  238MOL0     C32049   6.889   0.591   8.502 -1.4300  0.1568 -0.8411
  238MOL0     C32050   6.762   0.630   8.466  0.1088  0.4164 -0.2977
  238MOL0     C32051   6.653   0.545   8.499 -0.9421  0.6459  0.1830
  238MOL0     C32052   6.672   0.430   8.568  0.1121  0.2333  0.0292
  238MOL0     O32053   6.549   0.365   8.583 -0.5938  1.2279  0.2145
  238MOL0     C32054   6.523   0.291   8.710 -0.2537 -0.0752 -0.2287
  238MOL0     C32055   6.407   0.198   8.703 -0.2856 -0.6987  0.3363
  238MOL0     C32056   6.284   0.254   8.635  0.1756  0.2813 -0.0319
  238MOL0     C32057   6.216   0.388   8.698  0.8848  0.4212 -0.4623
  238MOL0     C32058   6.141   0.351   8.823 -0.3609 -0.2601 -0.1100
  238MOL0     C32059   6.083   0.308   8.920 -0.8986  0.7151 -0.4707
  238MOL0     C32060   6.792   0.391   8.607  0.4014 -0.2450  0.4562
  238MOL0     C32061   6.904   0.467   8.578 -0.2327  0.6124 -0.2153
  238MOL0     C32062   7.031   0.406   8.608 -0.1769 -0.2071 -0.2219
  238MOL0     H32063   7.134   0.829   8.177  3.6102  0.2617 -0.5145
  238MOL0     H32064   7.266   1.017   8.126  0.1944 -2.8695  0.2933
  238MOL0     H32065   7.215   1.364   8.328  0.3486  1.3476  1.0002
  238MOL0     H32066   7.329   1.336   8.469  0.9251  1.3773  0.1782
  238MOL0     H32067   7.373   1.537   8.360  1.0576 -0.9523  2.1621
  238MOL0     H32068   7.379   1.472   8.207  1.6803 -0.6145 -1.1154
  238MOL0     H32069   7.568   1.303   8.276  0.5930  2.6015 -2.5584
  238MOL0     H32070   7.584   1.376   8.425 -0.0188 -2.2835 -0.1950
  238MOL0     H32071   7.611   1.535   8.165  2.0076 -2.6932 -1.2222
  238MOL0     H32072   7.609   1.609   8.326  0.8956 -0.0018 -1.1022
  238MOL0     H32073   7.832   1.599   8.301 -0.1177  0.1975 -0.6451
  238MOL0     H32074   7.810   1.423   8.332 -3.5948 -0.5975  0.1925
  238MOL0     H32075   7.935   1.432   8.123  0.3590  1.3212  0.2806
  238MOL0     H32076   7.778   1.399   8.071  1.5742  0.5560 -1.8956
  238MOL0     H32077   7.745   1.622   8.002  0.6026  0.6416  0.2323
  238MOL0     H32078   7.887   1.552   7.938 -2.5113  0.4271 -0.7119
  238MOL0     H32079   7.871   1.752   8.172  0.2964  1.4947 -0.1269
  238MOL0     H32080   8.022   1.697   8.091 -0.5453 -1.0613  0.3712
  238MOL0     H32081   8.066   1.897   7.896  0.2033  1.3198 -3.7456
  238MOL0     H32082   7.965   1.975   7.638 -1.1236 -1.3299 -0.1597
  238MOL0     H32083   7.819   2.065   7.656  0.6013  3.0717  0.3212
  238MOL0     H32084   7.921   2.256   7.719  0.4953  1.3782 -0.5692
  238MOL0     H32085   8.037   2.156   7.827  2.6238 -0.9324 -1.9632
  238MOL0     H32086   8.160   2.292   7.664  0.2271  0.2307 -0.1414
  238MOL0     H32087   8.073   2.219   7.535 -0.1269  1.5051  0.5870
  238MOL0     H32088   8.311   2.159   7.598 -2.0216 -0.3002 -1.5155
  238MOL0     H32089   8.220   2.023   7.568 -0.3613 -0.1363 -0.2010
  238MOL0     H32090   8.273   1.817   7.915  1.0379 -3.7987  0.1501
  238MOL0     H32091   8.474   1.688   7.948 -1.4737  0.6031  1.3775
  238MOL0     H32092   8.945   1.565   7.964 -0.5015  1.2706 -0.0754
  238MOL0     H32093   9.183   1.521   7.973  1.0334  0.2211 -0.6745
  238MOL0     H32094   9.415   1.587   8.001  1.9997  0.0732  0.3820
  238MOL0     H32095   9.375   1.438   7.902 -1.7795  1.5036 -2.7327
  238MOL0     H32096   9.627   1.591   7.935  1.2777 -0.7248  0.8818
  238MOL0     H32097   9.610   1.422   7.963  3.8582  0.7035  0.1052
  238MOL0     H32098   9.563   1.378   7.714 -0.1906 -1.0163  1.4145
  238MOL0     H32099   9.586   1.551   7.681 -3.5364  0.3930  0.2798
  238MOL0     H32100   9.786   1.354   7.784 -0.5788 -0.7927 -1.1790
  238MOL0     H32101   9.832   1.523   7.789  2.8139 -1.7044 -0.7461
  238MOL0     H32102   9.774   1.531   7.543  1.5923  1.8652  1.7529
  238MOL0     H32103   9.752   1.356   7.541 -1.0514 -0.4782  0.8839
  238MOL0     H32104  10.014   1.489   7.635 -0.8374  2.6074 -0.6235
  238MOL0     H32105   9.994   1.316   7.595 -1.8565 -0.1462  2.2204
  238MOL0     H32106  10.104   1.408   7.410 -1.1353 -2.3486 -0.6319
  238MOL0     H32107   9.973   1.535   7.385 -0.5095  0.8982  1.4747
  238MOL0     H32108   9.807   1.410   7.322  0.1542  1.0162  1.0910
  238MOL0     H32109   9.945   1.368   7.226  1.3267  1.8389  1.1007
  238MOL0     H32110   9.260   1.787   7.646 -0.5568 -0.6009  0.2812
  238MOL0     H32111   9.029   1.836   7.639  2.0479  2.3892  1.1946
  238MOL0     H32112   8.694   1.980   7.741 -0.6639  3.1057  0.7132
  238MOL0     H32113   8.503   2.091   7.676  0.0871 -0.4677  0.3342
  238MOL0     H32114   7.206   1.163   8.528 -2.1962 -0.0098  0.4868
  238MOL0     H32115   7.039   0.989   8.563 -2.9058 -4.8720 -1.3959
  238MOL0     H32116   6.749   0.724   8.412 -0.0027  0.5038 -0.1210
  238MOL0     H32117   6.552   0.574   8.471 -0.7163  1.6380  0.3476
  238MOL0     H32118   6.497   0.367   8.784  1.8051 -0.7978  1.3264
  238MOL0     H32119   6.619   0.244   8.732  0.5971  1.4343 -0.5736
  238MOL0     H32120   6.381   0.176   8.807 -0.2453 -2.4206  0.0049
  238MOL0     H32121   6.439   0.103   8.659 -0.8866 -0.1004 -1.4951
  238MOL0     H32122   6.211   0.174   8.621 -0.0393  0.3254  0.8091
  238MOL0     H32123   6.310   0.276   8.531 -0.7418 -1.9909 -0.7972
  238MOL0     H32124   6.294   0.458   8.729 -0.3510  1.2341  0.8814
  238MOL0     H32125   6.146   0.443   8.634 -0.8960  0.8939  1.7469
  238MOL0     H32126   6.039   0.277   9.013  4.0222  0.8622  2.2331
  238MOL0     H32127   6.807   0.294   8.654  3.3257 -0.4996 -0.7747
  238MOL0     H32128   7.019   0.298   8.600 -3.5192  0.1463 -1.4826
  238MOL0     H32129   7.115   0.434   8.544 -0.3034  2.1435  0.5114
  238MOL0     H32130   7.047   0.438   8.712  1.9086  1.0798 -0.8786
  239MOL0     O32131  10.600  10.197   2.082 -1.0270  0.3232  0.5106
  239MOL0     C32132  10.559  10.265   1.988  0.2008  0.1030 -0.0375
  239MOL0     O32133  10.634  10.370   1.938 -0.9411 -0.0707  0.2863
  239MOL0     C32134  10.759  10.386   1.986 -1.2542  0.3119  0.0487
  239MOL0     C32135  10.786  10.496   2.067 -0.2073  0.1051 -0.7259
  239MOL0     C32136  10.924  10.517   2.116  0.3756 -0.1344  0.2908
  239MOL0     C32137  11.026  10.432   2.074 -0.0719  0.8236  0.0958
  239MOL0     O32138  11.149  10.468   2.120 -0.3694 -1.0424  0.7000
  239MOL0     C32139  11.270  10.433   2.044  0.5181  0.0027  0.4453
  239MOL0     C32140  11.392  10.446   2.142  0.5533  0.5277 -0.4557
  239MOL0     C32141  11.520  10.420   2.078 -0.7356 -1.3531 -0.4490
  239MOL0     C32142  11.638  10.446   2.170  0.3765 -0.5325  0.4782
  239MOL0     C32143  11.771  10.392   2.101  0.1199  0.1479 -0.0782
  239MOL0     C32144  11.787  10.446   1.954 -0.2888  0.0279 -0.7162
  239MOL0     C32145  11.936  10.426   1.909  0.3458  0.5018  0.5529
  239MOL0     C32146  11.935  10.454   1.754 -0.6902  0.1538 -0.1028
  239MOL0     N32147  12.064  10.470   1.689  0.3999 -0.6074 -0.6433
  239MOL0     C32148  12.157  10.565   1.720  0.7897 -0.9113 -0.1474
  239MOL0     C32149  12.277  10.525   1.676 -0.0241 -1.0327 -0.0007
  239MOL0     C32150  12.404  10.595   1.671 -0.3585 -0.4436  0.0398
  239MOL0     C32151  12.437  10.689   1.562 -0.6151  0.0859  0.1622
  239MOL0     C32152  12.588  10.708   1.549  0.1875 -0.6793 -0.6359
  239MOL0     C32153  12.613  10.848   1.495  0.0787  0.2910 -0.0380
  239MOL0     O32154  12.721  10.835   1.406  0.2700 -0.6868  0.6953
  239MOL0     C32155  12.837  10.880   1.452 -0.0098 -0.6504  0.3459
  239MOL0     C32156  12.920  10.791   1.517 -1.4721 -0.2791  0.8179
  239MOL0     C32157  13.029  10.844   1.588 -1.1207  0.1407 -0.9833
  239MOL0     C32158  13.051  10.979   1.602 -0.1031 -0.3891 -0.3711
  239MOL0     C32159  13.162  11.033   1.679 -0.2487 -0.3052  0.0938
  239MOL0     O32160  13.185  11.168   1.668  0.5764  0.1353  0.3213
  239MOL0     C32161  13.273  11.240   1.742 -0.9575  0.1054 -0.5756
  239MOL0     C32162  13.407  11.234   1.710 -0.5930 -0.0441 -0.5925
  239MOL0     C32163  13.503  11.303   1.787  0.4867 -0.5957  0.3194
  239MOL0     C32164  13.460  11.389   1.888  0.3842  0.3201 -0.6402
  239MOL0     O32165  13.552  11.456   1.957 -0.0298 -0.4120 -0.7902
  239MOL0     C32166  13.592  11.398   2.082 -0.2413 -0.1742  0.2871
  239MOL0     C32167  13.569  11.485   2.190  0.5458  0.0657  1.0123
  239MOL0     C32168  13.649  11.469   2.319 -0.2101 -0.0067 -0.6908
  239MOL0     C32169  13.632  11.338   2.382  0.5808  0.4175  0.2211
  239MOL0     C32170  13.719  11.322   2.505  0.0211 -0.5789 -0.2504
  239MOL0     C32171  13.654  11.377   2.630 -0.6598  0.6274  0.1129
  239MOL0     C32172  13.754  11.371   2.749 -1.0281 -0.2976  1.5286
  239MOL0     C32173  13.701  11.460   2.857  0.5174  0.3746 -0.2461
  239MOL0    Cl32174  13.537  11.391   2.909 -0.0247  0.1224 -0.2847
  239MOL0     C32175  13.327  11.379   1.920  0.7684  0.4197 -0.2211
  239MOL0     C32176  13.235  11.314   1.851 -0.7147  0.2661 -0.3155
  239MOL0     O32177  13.229  10.957   1.744 -0.6313  0.6267 -0.5453
  239MOL0     C32178  12.964  11.066   1.546  0.1836 -0.3569  0.6994
  239MOL0     C32179  12.850  11.012   1.473 -0.5568 -0.7829 -0.4861
  239MOL0     N32180  12.258  10.406   1.619 -0.1337 -0.6148  0.1492
  239MOL0     N32181  12.134  10.377   1.622 -0.2344  0.6572 -0.0255
  239MOL0     C32182  10.990  10.319   2.003 -1.0276  0.3477 -1.2317
  239MOL0     C32183  10.861  10.298   1.961  0.2861 -0.3082 -0.3275
  239MOL0     C32184  10.427  10.241   1.924  0.1293 -0.7438  1.3827
  239MOL0     C32185  10.382  10.341   1.836 -0.6397  0.9665 -0.0096
  239MOL0     C32186  10.256  10.324   1.780 -1.5144  0.1196 -0.3102
  239MOL0     C32187  10.175  10.234   1.828 -0.3061  0.6252  0.1137
  239MOL0     O32188  10.048  10.246   1.784 -0.1777 -0.2183  0.0267
  239MOL0     C32189   9.946  10.233   1.886  0.4133 -0.5875 -0.2139
  239MOL0     C32190   9.807  10.254   1.831  0.0282  0.4196 -0.3896
  239MOL0     C32191   9.791  10.388   1.752  0.2396  0.9886 -1.1083
  239MOL0     C32192   9.647  10.446   1.743  0.0839 -0.7821  1.8557
  239MOL0     C32193   9.553  10.341   1.714 -0.0844 -0.5604 -0.5274
  239MOL0     C32194   9.466  10.257   1.692 -0.4590 -0.0824 -0.0666
  239MOL0     C32195  10.215  10.123   1.901  0.5750  0.1124 -1.0746
  239MOL0     C32196  10.352  10.122   1.939  0.5225  0.0301  0.1102
  239MOL0     C32197  10.401   9.998   2.000  0.3817  0.9365 -0.5020
  239MOL0     H32198  10.711  10.568   2.099 -1.1117 -1.1850  0.1788
  239MOL0     H32199  10.956  10.588   2.191  3.3358  0.9178 -1.7679
  239MOL0     H32200  11.270  10.329   2.010  1.3087 -0.0540  0.6003
  239MOL0     H32201  11.282  10.498   1.957  1.0560 -2.9942 -1.8692
  239MOL0     H32202  11.372  10.377   2.225  1.1731 -0.7021 -1.2932
  239MOL0     H32203  11.387  10.541   2.195 -0.4292 -0.1745  0.7582
  239MOL0     H32204  11.525  10.483   1.988 -4.5465 -2.1159 -1.3887
  239MOL0     H32205  11.513  10.318   2.038 -1.2795 -2.0433  1.3418
  239MOL0     H32206  11.642  10.554   2.188  0.3630 -0.6884  1.4727
  239MOL0     H32207  11.608  10.392   2.260 -0.4372 -0.0851  0.4792
  239MOL0     H32208  11.853  10.427   2.164  0.9895  1.6123 -1.9221
  239MOL0     H32209  11.756  10.284   2.099  0.7173 -0.0282  2.2600
  239MOL0     H32210  11.724  10.395   1.880  0.0411 -0.7614 -0.4691
  239MOL0     H32211  11.767  10.553   1.951 -0.1407  0.1083  0.5248
  239MOL0     H32212  11.975  10.327   1.934 -0.5510 -0.3366 -1.2178
  239MOL0     H32213  12.007  10.502   1.944  1.1294  0.2520 -0.4513
  239MOL0     H32214  11.898  10.365   1.703  0.0612  0.4552 -1.1925
  239MOL0     H32215  11.871  10.540   1.735  0.0839  0.2790 -2.3932
  239MOL0     H32216  12.132  10.646   1.788 -0.0335  0.3427 -1.8374
  239MOL0     H32217  12.428  10.642   1.767  2.4244  1.0641 -1.2774
  239MOL0     H32218  12.474  10.512   1.660 -1.0161 -0.8757 -0.9995
  239MOL0     H32219  12.407  10.654   1.463  2.4569  0.8896 -1.1647
  239MOL0     H32220  12.382  10.780   1.587 -1.1129  0.7368 -2.9709
  239MOL0     H32221  12.640  10.638   1.483  1.5030  0.0772 -0.4486
  239MOL0     H32222  12.637  10.712   1.647 -1.6191  1.5869  0.2473
  239MOL0     H32223  12.634  10.916   1.578  0.2162 -0.1821  0.3112
  239MOL0     H32224  12.528  10.888   1.438 -0.4069  0.8689  1.0476
  239MOL0     H32225  12.898  10.685   1.521 -1.1207 -0.3393  1.2052
  239MOL0     H32226  13.097  10.770   1.630  0.6421 -0.1201 -3.9904
  239MOL0     H32227  13.424  11.163   1.630  0.9717  0.1692 -0.4751
  239MOL0     H32228  13.610  11.298   1.769  1.0399  0.3470  2.8939
  239MOL0     H32229  13.532  11.311   2.111 -0.0971 -0.4286 -0.1601
  239MOL0     H32230  13.698  11.372   2.075 -0.0972  0.7271 -1.5385
  239MOL0     H32231  13.590  11.584   2.148 -3.2745  0.7131  0.2386
  239MOL0     H32232  13.462  11.476   2.212  0.6467 -1.7465  0.8822
  239MOL0     H32233  13.757  11.484   2.308 -0.4240  1.0355 -1.5761
  239MOL0     H32234  13.628  11.556   2.382  0.2735 -0.4798  0.1298
  239MOL0     H32235  13.658  11.257   2.313  0.7603 -0.6638  1.4992
  239MOL0     H32236  13.526  11.316   2.398  0.4568 -1.0533 -2.1419
  239MOL0     H32237  13.813  11.377   2.492 -0.2293  0.6875  2.4340
  239MOL0     H32238  13.744  11.219   2.531 -1.9940 -0.9538  0.3962
  239MOL0     H32239  13.621  11.480   2.613 -2.5237 -0.2718 -2.3388
  239MOL0     H32240  13.565  11.314   2.639 -0.3261  0.1902  0.3764
  239MOL0     H32241  13.851  11.405   2.712 -1.6932  0.1357  0.1249
  239MOL0     H32242  13.769  11.269   2.785 -1.5401 -0.5594  1.0151
  239MOL0     H32243  13.761  11.445   2.947 -0.5247 -1.6960  0.1728
  239MOL0     H32244  13.688  11.563   2.822 -0.9402 -0.1834 -1.4237
  239MOL0     H32245  13.301  11.443   2.004  3.5801 -0.3087  1.3334
  239MOL0     H32246  13.139  11.311   1.900 -0.5413  1.8231  0.1642
  239MOL0     H32247  12.970  11.174   1.547  0.6574 -0.3804  1.6482
  239MOL0     H32248  12.778  11.081   1.429  1.2749  0.6137 -1.4102
  239MOL0     H32249  11.075  10.258   1.975  0.5422  1.8820 -0.0618
  239MOL0     H32250  10.833  10.218   1.893 -0.6324  1.8793 -2.6924
  239MOL0     H32251  10.438  10.432   1.819 -1.5150  0.9900 -3.4183
  239MOL0     H32252  10.219  10.409   1.723 -0.3475  0.1821 -1.0190
  239MOL0     H32253   9.965  10.315   1.956 -4.8751 -0.7014  1.8730
  239MOL0     H32254   9.941  10.145   1.951 -1.6225  0.4503  1.1761
  239MOL0     H32255   9.734  10.249   1.912 -2.3280 -5.5471 -2.2840
  239MOL0     H32256   9.794  10.163   1.771  0.2967  0.2406 -0.1783
  239MOL0     H32257   9.831  10.372   1.652 -0.6529 -0.5272 -1.2467
  239MOL0     H32258   9.855  10.460   1.804  1.3620  0.1951 -1.3603
  239MOL0     H32259   9.620  10.478   1.844  2.9586  2.5097  1.7565
  239MOL0     H32260   9.642  10.524   1.666  2.6908 -2.5794 -0.3470
  239MOL0     H32261   9.386  10.185   1.690 -2.1465  1.6364  1.5523
  239MOL0     H32262  10.152  10.038   1.925 -0.7372  0.6816 -2.3507
  239MOL0     H32263  10.333   9.912   2.003  4.3794 -2.5600  1.5789
  239MOL0     H32264  10.491   9.977   1.941  0.5851 -0.4733  0.2488
  239MOL0     H32265  10.423  10.009   2.107  1.3092 -1.6806 -0.3478
  240MOL0     O32266   6.928   9.184   6.917 -0.2433  0.3522  0.3296
  240MOL0     C32267   6.914   9.193   6.798 -0.7181  0.5483  0.5307
  240MOL0     O32268   7.013   9.167   6.706  0.6924  0.0980 -0.4906
  240MOL0     C32269   7.140   9.157   6.756  0.3633 -1.0006 -0.1083
  240MOL0     C32270   7.220   9.066   6.703  0.6976 -0.0869 -0.3650
  240MOL0     C32271   7.353   9.070   6.734  0.8464 -0.6893  0.4773
  240MOL0     C32272   7.404   9.152   6.836 -0.0107  0.3399  0.4390
  240MOL0     O32273   7.540   9.158   6.858  0.0655  0.7177  0.2942
  240MOL0     C32274   7.608   9.032   6.856  0.2430 -0.2727  1.1285
  240MOL0     C32275   7.741   9.030   6.933 -0.4397  0.2195 -0.5616
  240MOL0     C32276   7.816   8.897   6.918  0.9214  0.5890 -0.2209
  240MOL0     C32277   7.967   8.909   6.944  0.5723 -0.2709 -0.6363
  240MOL0     C32278   8.040   8.775   6.971  0.2691 -0.1179 -0.2807
  240MOL0     C32279   8.011   8.667   6.860 -0.0824 -0.1855 -1.0656
  240MOL0     C32280   8.038   8.708   6.723  0.2141 -0.2438  0.5679
  240MOL0     C32281   8.186   8.703   6.680  0.3762  0.0980  0.1983
  240MOL0     N32282   8.210   8.733   6.540  0.5268  0.7540  0.0695
  240MOL0     C32283   8.197   8.858   6.488  0.0187  0.5365 -0.4813
  240MOL0     C32284   8.244   8.843   6.361 -0.2522  0.4087 -1.2422
  240MOL0     C32285   8.260   8.951   6.258 -0.0889  1.3307 -0.4436
  240MOL0     C32286   8.220   8.897   6.115  0.5067  0.7917 -0.0507
  240MOL0     C32287   8.160   9.001   6.027  1.1504 -0.4805 -0.9973
  240MOL0     C32288   8.259   9.076   5.946  0.1640 -0.3014 -1.5089
  240MOL0     O32289   8.352   9.138   6.032 -0.2154 -0.5249 -0.0095
  240MOL0     C32290   8.477   9.156   5.975 -1.3032  0.1901  0.1875
  240MOL0     C32291   8.521   9.141   5.844 -0.2223 -0.3858  0.9212
  240MOL0     C32292   8.658   9.143   5.804 -0.3285 -0.0368 -0.0786
  240MOL0     C32293   8.761   9.166   5.892  0.1754 -0.0845  0.9395
  240MOL0     C32294   8.903   9.168   5.859 -0.7619  0.7184  0.4838
  240MOL0     O32295   8.995   9.160   5.956 -0.0926  0.9377 -0.4631
  240MOL0     C32296   9.127   9.141   5.932 -0.4149  0.9211  0.4853
  240MOL0     C32297   9.197   9.067   6.032  0.9228  0.2073  0.1457
  240MOL0     C32298   9.332   9.033   6.025 -0.2302 -0.0756 -0.3543
  240MOL0     C32299   9.401   9.065   5.906 -0.1158 -1.1182 -0.3984
  240MOL0     O32300   9.533   9.026   5.904 -0.0718 -0.8940  0.0450
  240MOL0     C32301   9.561   8.892   5.873  0.0798  0.0249 -0.4503
  240MOL0     C32302   9.636   8.881   5.739 -0.2432  0.3947  0.1831
  240MOL0     C32303   9.778   8.942   5.746  0.3028 -0.0101 -0.8192
  240MOL0     C32304   9.851   8.947   5.610 -0.2687  0.4710  0.2440
  240MOL0     C32305   9.996   9.001   5.627 -0.6246 -0.8071  0.0111
  240MOL0     C32306   9.988   9.154   5.633 -0.6162  0.5297  0.2710
  240MOL0     C32307  10.131   9.215   5.637  0.6354  0.0144  0.6677
  240MOL0     C32308  10.117   9.359   5.681  0.6235 -0.0830 -0.7251
  240MOL0    Cl32309  10.278   9.443   5.673  0.4121  0.1610 -0.9027
  240MOL0     C32310   9.337   9.145   5.801  0.2522 -0.0549 -0.2006
  240MOL0     C32311   9.202   9.179   5.814  0.4041  0.3890 -0.9798
  240MOL0     O32312   8.931   9.169   5.739  0.5304 -0.2262  0.1619
  240MOL0     C32313   8.718   9.181   6.024 -0.1816 -0.3003 -0.4630
  240MOL0     C32314   8.575   9.186   6.062  0.1635 -0.3683  1.1226
  240MOL0     N32315   8.283   8.709   6.345 -0.4984  0.0724  0.2951
  240MOL0     N32316   8.259   8.648   6.448 -0.8314  0.3360  0.2526
  240MOL0     C32317   7.313   9.246   6.889 -0.9025 -0.0587  0.2172
  240MOL0     C32318   7.186   9.253   6.850  0.2348 -0.3184 -0.8273
  240MOL0     C32319   6.779   9.223   6.751 -0.1875 -0.9026 -0.0428
  240MOL0     C32320   6.674   9.194   6.836 -1.2867 -0.4787  0.6570
  240MOL0     C32321   6.551   9.239   6.802  0.3726 -0.1770  0.1722
  240MOL0     C32322   6.517   9.313   6.694 -0.4983 -0.3047 -0.6570
  240MOL0     O32323   6.392   9.355   6.670  0.4882 -1.0817 -0.3270
  240MOL0     C32324   6.277   9.297   6.739  0.0362  0.0039  0.0610
  240MOL0     C32325   6.141   9.379   6.729 -0.1759  0.1277 -0.2028
  240MOL0     C32326   6.094   9.379   6.581  1.2423  1.1201 -0.0536
  240MOL0     C32327   5.948   9.430   6.578  0.2095  0.7981  0.2466
  240MOL0     C32328   5.861   9.316   6.618  0.7140 -0.0602  0.6554
  240MOL0     C32329   5.771   9.230   6.634  0.3153 -0.1967 -0.4907
  240MOL0     C32330   6.622   9.347   6.614  0.8783  0.1768  0.5431
  240MOL0     C32331   6.750   9.306   6.640 -0.0741 -0.4106 -0.1947
  240MOL0     C32332   6.866   9.355   6.555  0.2040 -0.1772 -0.3535
  240MOL0     H32333   7.188   8.982   6.642  0.3434 -1.4520  1.5960
  240MOL0     H32334   7.420   8.997   6.688  0.4206 -1.5829  1.2311
  240MOL0     H32335   7.541   8.953   6.891 -1.9034 -0.0770 -2.1170
  240MOL0     H32336   7.633   8.997   6.755  0.4392 -0.7934  1.3537
  240MOL0     H32337   7.732   9.050   7.040  2.3481 -2.4902  0.3176
  240MOL0     H32338   7.807   9.099   6.880 -2.0999  1.7475 -0.7600
  240MOL0     H32339   7.779   8.845   6.829 -2.5412  1.0735  0.8106
  240MOL0     H32340   7.786   8.825   6.994 -0.8821  2.9214  1.4294
  240MOL0     H32341   8.014   8.970   6.866  1.0755 -0.5324 -0.5447
  240MOL0     H32342   7.990   8.965   7.035 -1.0398  0.0915 -0.4279
  240MOL0     H32343   8.147   8.781   6.994 -0.1360 -1.5211  2.2742
  240MOL0     H32344   8.001   8.735   7.065  0.3675  1.3530  0.4180
  240MOL0     H32345   8.061   8.573   6.887 -0.4795 -0.2838 -0.6525
  240MOL0     H32346   7.905   8.641   6.867 -0.7637  2.7386  1.3501
  240MOL0     H32347   7.979   8.799   6.709 -0.7832 -0.2806  3.7381
  240MOL0     H32348   7.993   8.634   6.658  2.0296  0.5158 -1.6889
  240MOL0     H32349   8.249   8.777   6.731  1.5320 -0.6271 -0.1303
  240MOL0     H32350   8.234   8.606   6.699  0.5467 -0.4548 -2.6017
  240MOL0     H32351   8.152   8.945   6.533  2.3701 -0.1038  3.5584
  240MOL0     H32352   8.202   9.043   6.271 -0.6229  1.6134 -3.8758
  240MOL0     H32353   8.367   8.970   6.244  0.9471 -1.6786  2.1745
  240MOL0     H32354   8.302   8.845   6.065  0.1308 -1.6397  1.6437
  240MOL0     H32355   8.140   8.822   6.126  0.4867  0.2704 -3.0239
  240MOL0     H32356   8.095   9.071   6.080 -0.5390  0.7039 -4.3265
  240MOL0     H32357   8.101   8.949   5.951 -3.8353 -0.6619  2.5108
  240MOL0     H32358   8.210   9.150   5.882 -0.4394  0.2482 -0.4286
  240MOL0     H32359   8.316   9.004   5.886  2.5964 -2.4233  2.8625
  240MOL0     H32360   8.444   9.134   5.768  1.4869  1.7217 -1.1805
  240MOL0     H32361   8.665   9.143   5.696 -1.6438 -2.3334 -0.2144
  240MOL0     H32362   9.134   9.040   6.117  0.9041 -2.4512 -0.6105
  240MOL0     H32363   9.368   8.971   6.106 -3.7506 -1.8346  0.0282
  240MOL0     H32364   9.626   8.851   5.952 -0.1719  3.6496  1.8921
  240MOL0     H32365   9.471   8.832   5.861  0.0257  0.1263 -0.5578
  240MOL0     H32366   9.640   8.774   5.716  4.8107  0.2249  0.7030
  240MOL0     H32367   9.587   8.946   5.666  3.6008  1.4401 -1.7706
  240MOL0     H32368   9.776   9.040   5.795  3.1464 -0.5645  0.6125
  240MOL0     H32369   9.834   8.869   5.805 -1.5199 -1.7716 -1.2066
  240MOL0     H32370   9.786   9.011   5.549 -1.8592  0.1584  1.5351
  240MOL0     H32371   9.851   8.845   5.571 -0.2832  0.9660 -1.0983
  240MOL0     H32372  10.046   8.965   5.537 -2.2485 -3.1654 -0.0291
  240MOL0     H32373  10.053   8.971   5.716 -0.6367  0.0810  0.3258
  240MOL0     H32374   9.938   9.178   5.539  0.3781 -2.5776 -1.1873
  240MOL0     H32375   9.933   9.189   5.721 -0.8106  1.0263 -0.0467
  240MOL0     H32376  10.185   9.203   5.543 -2.3119  1.6149 -1.3996
  240MOL0     H32377  10.184   9.161   5.716  2.2277  2.8269  1.6273
  240MOL0     H32378  10.051   9.412   5.611 -1.2321  0.2315  1.1523
  240MOL0     H32379  10.075   9.352   5.782  0.9028 -0.0282 -0.6062
  240MOL0     H32380   9.392   9.198   5.724  0.0039  2.0983  1.0457
  240MOL0     H32381   9.148   9.227   5.734  0.5970 -2.6721 -3.1083
  240MOL0     H32382   8.788   9.205   6.103 -2.2957  1.1349  1.0966
  240MOL0     H32383   8.534   9.205   6.161 -2.2461 -2.2141  0.5746
  240MOL0     H32384   7.350   9.315   6.964  0.4190 -1.7566  1.2338
  240MOL0     H32385   7.117   9.328   6.888  1.4516  1.8605 -2.6750
  240MOL0     H32386   6.688   9.145   6.932  1.4212  0.5552  0.8785
  240MOL0     H32387   6.473   9.206   6.870  1.7521 -0.9817  1.4319
  240MOL0     H32388   6.303   9.294   6.845 -0.2399  3.4183  0.3413
  240MOL0     H32389   6.255   9.194   6.709 -2.9151  0.6401 -0.2808
  240MOL0     H32390   6.165   9.481   6.762  1.4350 -0.3876  0.3023
  240MOL0     H32391   6.072   9.335   6.802  0.7847 -0.9412  0.0745
  240MOL0     H32392   6.103   9.282   6.531  0.2995  0.7437  0.4689
  240MOL0     H32393   6.142   9.456   6.520 -1.6910  2.1205 -1.3038
  240MOL0     H32394   5.931   9.511   6.650 -2.3949  1.1341 -0.6346
  240MOL0     H32395   5.923   9.466   6.478  1.3714  0.9665 -0.0013
  240MOL0     H32396   5.688   9.162   6.644  2.3739 -3.1045 -1.6873
  240MOL0     H32397   6.606   9.423   6.539 -0.5321  0.0568  0.7044
  240MOL0     H32398   6.832   9.430   6.483 -1.1414  0.1838  0.6206
  240MOL0     H32399   6.946   9.406   6.609 -0.9509  2.1536 -0.7106
  240MOL0     H32400   6.906   9.265   6.506  0.1065 -1.5451  1.9278
  241MOL0     O32401   4.403   6.610   9.019 -0.1512  0.1816 -0.5057
  241MOL0     C32402   4.395   6.502   8.956  0.0377  0.4108 -0.0728
  241MOL0     O32403   4.280   6.432   8.941  0.5218 -0.7339  0.2423
  241MOL0     C32404   4.173   6.498   8.992 -0.1063 -0.4185  0.4886
  241MOL0     C32405   4.096   6.556   8.898 -0.3930  0.8825 -0.2939
  241MOL0     C32406   3.984   6.633   8.933  0.6470  0.3849  0.2444
  241MOL0     C32407   3.941   6.647   9.057 -0.0659 -0.3346 -0.6952
  241MOL0     O32408   3.823   6.720   9.096  0.0901  0.4706 -0.7547
  241MOL0     C32409   3.710   6.741   9.008 -0.7168 -0.3998 -0.0826
  241MOL0     C32410   3.632   6.614   8.984 -0.5549  0.2524  0.2823
  241MOL0     C32411   3.481   6.636   8.966 -0.5908  1.0747 -0.9523
  241MOL0     C32412   3.444   6.675   8.824  0.6862  0.5464 -0.8228
  241MOL0     C32413   3.294   6.676   8.808  0.1826  0.5863 -0.4355
  241MOL0     C32414   3.224   6.760   8.920 -1.0360  0.0967 -0.2640
  241MOL0     C32415   3.085   6.811   8.871  0.0111 -0.2273  0.3010
  241MOL0     C32416   2.976   6.821   8.978 -0.3113 -1.0308 -0.7189
  241MOL0     N32417   3.010   6.937   9.065 -0.2472  0.0588 -0.4618
  241MOL0     C32418   2.958   7.057   9.051 -0.0918 -0.1164 -0.0788
  241MOL0     C32419   3.022   7.125   9.149  0.0968 -0.8916 -0.6543
  241MOL0     C32420   2.973   7.267   9.165 -0.7342 -0.2020  0.6460
  241MOL0     C32421   3.061   7.360   9.079 -0.0988  0.2420  0.8147
  241MOL0     C32422   3.195   7.376   9.135 -0.3404  0.4692  0.5246
  241MOL0     C32423   3.284   7.462   9.043  0.0346 -0.3648  0.5841
  241MOL0     O32424   3.418   7.465   9.112  0.1264  0.8764 -0.2721
  241MOL0     C32425   3.523   7.478   9.029  0.0931  0.4233 -0.7067
  241MOL0     C32426   3.524   7.495   8.889 -0.0143  0.4845 -0.4212
  241MOL0     C32427   3.641   7.503   8.814 -0.2687  0.4158 -0.4372
  241MOL0     C32428   3.767   7.497   8.882  0.9970 -0.4637 -0.1249
  241MOL0     C32429   3.898   7.518   8.810  0.3730 -0.4817 -0.6674
  241MOL0     O32430   3.896   7.505   8.680 -0.3421  0.1878 -0.7717
  241MOL0     C32431   3.998   7.557   8.597 -0.5967 -0.5905 -1.2204
  241MOL0     C32432   4.071   7.675   8.629  0.6788  1.1335 -0.9641
  241MOL0     C32433   4.173   7.720   8.539 -0.0484  0.0685 -0.7448
  241MOL0     C32434   4.202   7.654   8.415 -1.1404  0.2542 -0.3471
  241MOL0     O32435   4.309   7.702   8.343 -1.1873 -0.2188 -0.1072
  241MOL0     C32436   4.308   7.684   8.199 -0.0875 -0.2927  0.4819
  241MOL0     C32437   4.421   7.769   8.135 -0.7165 -0.7658  0.4270
  241MOL0     C32438   4.540   7.673   8.108  0.7073 -0.3940  0.8931
  241MOL0     C32439   4.636   7.631   8.222 -0.9757 -0.1136  0.2367
  241MOL0     C32440   4.735   7.742   8.235 -0.8236  0.7607 -0.2095
  241MOL0     C32441   4.831   7.725   8.350  1.5250  0.5620  0.6504
  241MOL0     C32442   4.876   7.877   8.393  1.3841 -0.0866 -0.0171
  241MOL0     C32443   4.971   7.885   8.514  0.8558  0.9251 -0.3729
  241MOL0    Cl32444   4.887   7.802   8.653 -0.0894  0.0303  0.4087
  241MOL0     C32445   4.115   7.541   8.381  0.0324  0.6161 -0.3019
  241MOL0     C32446   4.021   7.496   8.473 -0.5690 -0.1671  0.0016
  241MOL0     O32447   3.996   7.539   8.882  0.0714 -0.3162 -0.5693
  241MOL0     C32448   3.770   7.478   9.019  0.7974 -0.3235 -0.0487
  241MOL0     C32449   3.649   7.457   9.092  0.0901  0.8318 -0.5282
  241MOL0     N32450   3.115   7.046   9.214 -0.2444 -0.5014  0.4997
  241MOL0     N32451   3.113   6.930   9.159  0.2686 -0.5321 -0.1633
  241MOL0     C32452   4.022   6.596   9.153 -0.1430  0.0434  0.1368
  241MOL0     C32453   4.131   6.515   9.123 -0.1515 -0.7815  0.0458
  241MOL0     C32454   4.519   6.428   8.911  0.6759 -0.1193 -0.1881
  241MOL0     C32455   4.640   6.473   8.973  1.0327 -0.1904 -0.1996
  241MOL0     C32456   4.759   6.420   8.931  0.1207 -0.1008 -0.2867
  241MOL0     C32457   4.768   6.325   8.830 -0.2231  0.0940 -0.0910
  241MOL0     O32458   4.889   6.275   8.786 -0.5538 -0.5143 -0.7099
  241MOL0     C32459   4.994   6.277   8.875 -0.8581 -0.5556  0.0447
  241MOL0     C32460   5.111   6.206   8.796 -0.1939 -0.0291  0.0814
  241MOL0     C32461   5.068   6.086   8.709  0.5973 -0.2163  0.3296
  241MOL0     C32462   5.021   6.117   8.570 -0.6653 -0.0077  0.6530
  241MOL0     C32463   4.971   5.997   8.504  0.4663  0.5659  0.6220
  241MOL0     C32464   4.932   5.898   8.453  0.8667  0.1198 -0.4177
  241MOL0     C32465   4.654   6.286   8.760 -1.1345  1.0815  0.3123
  241MOL0     C32466   4.529   6.332   8.804 -0.2424 -0.0111 -0.2039
  241MOL0     C32467   4.404   6.291   8.727 -0.4847  0.3159 -0.1476
  241MOL0     H32468   4.119   6.532   8.795 -0.7507 -0.4123 -0.0892
  241MOL0     H32469   3.922   6.656   8.847 -0.7333  0.6995  1.2813
  241MOL0     H32470   3.656   6.828   9.045  1.7658  1.2595 -0.0615
  241MOL0     H32471   3.749   6.791   8.918 -5.6732  2.1878 -1.1336
  241MOL0     H32472   3.646   6.548   9.071 -0.9216  1.3522  1.2024
  241MOL0     H32473   3.675   6.558   8.900  2.6275 -0.7883  2.4092
  241MOL0     H32474   3.439   6.713   9.032 -0.2927 -2.1031  3.3683
  241MOL0     H32475   3.432   6.541   8.989 -0.4742  0.5478 -2.7171
  241MOL0     H32476   3.484   6.772   8.796 -0.0704  1.2153  0.3483
  241MOL0     H32477   3.469   6.605   8.743 -1.2560  3.1327 -3.9128
  241MOL0     H32478   3.281   6.731   8.714 -2.4139  6.8993  2.9850
  241MOL0     H32479   3.253   6.575   8.803  2.4280 -0.7856  3.9209
  241MOL0     H32480   3.212   6.703   9.013 -0.4361 -1.1370 -0.9250
  241MOL0     H32481   3.283   6.848   8.946 -0.9613 -0.3860  1.2875
  241MOL0     H32482   3.048   6.752   8.786 -1.8120  2.5216 -0.9576
  241MOL0     H32483   3.101   6.908   8.824  3.2594 -1.2318 -0.9352
  241MOL0     H32484   2.883   6.831   8.923 -0.2514  2.0153 -0.4336
  241MOL0     H32485   2.975   6.738   9.050  0.4178 -1.5909 -1.3348
  241MOL0     H32486   2.875   7.087   8.987  2.2802 -0.8302 -3.8290
  241MOL0     H32487   2.873   7.281   9.123 -0.1339  1.2792 -0.3861
  241MOL0     H32488   2.985   7.292   9.271  1.7779  0.0007  0.3668
  241MOL0     H32489   3.060   7.328   8.974  0.9304  1.2648  0.4634
  241MOL0     H32490   3.001   7.452   9.074 -3.8197 -2.0268  0.2182
  241MOL0     H32491   3.229   7.275   9.159 -0.8835  0.1320 -0.1047
  241MOL0     H32492   3.200   7.421   9.235  0.2720 -1.1826  1.2688
  241MOL0     H32493   3.249   7.565   9.037 -0.0128 -0.4480 -2.2424
  241MOL0     H32494   3.281   7.421   8.941 -1.9095 -0.5808  0.6822
  241MOL0     H32495   3.430   7.500   8.834 -0.5453 -0.6055  0.3663
  241MOL0     H32496   3.629   7.520   8.707 -0.8559 -0.7280 -0.5646
  241MOL0     H32497   4.061   7.740   8.715  2.8942 -0.3809  0.5511
  241MOL0     H32498   4.222   7.809   8.577  0.6563 -0.4313 -0.4650
  241MOL0     H32499   4.318   7.578   8.175 -1.5284 -0.0419 -1.5389
  241MOL0     H32500   4.211   7.722   8.166 -0.9334 -0.3663  2.7437
  241MOL0     H32501   4.381   7.808   8.042 -1.9088 -1.4965  0.6165
  241MOL0     H32502   4.452   7.850   8.202 -1.5397 -0.5136  0.5136
  241MOL0     H32503   4.502   7.580   8.063 -1.1277  0.5727  0.3332
  241MOL0     H32504   4.603   7.710   8.027 -0.9181  1.5848  0.4691
  241MOL0     H32505   4.695   7.543   8.195  3.4683  2.5289  0.3648
  241MOL0     H32506   4.584   7.597   8.312 -0.7752 -2.1010 -0.3499
  241MOL0     H32507   4.675   7.833   8.245 -2.3144 -0.2092  0.0976
  241MOL0     H32508   4.794   7.757   8.144  2.8978 -1.2841  1.6401
  241MOL0     H32509   4.773   7.683   8.433  1.9280 -2.0059 -0.2799
  241MOL0     H32510   4.922   7.671   8.321  2.0558  1.6867  0.1420
  241MOL0     H32511   4.789   7.940   8.410  1.7628  0.5906 -0.5430
  241MOL0     H32512   4.916   7.929   8.306  0.6399  2.9272  1.3330
  241MOL0     H32513   5.058   7.825   8.488  1.2517  2.5507 -3.3485
  241MOL0     H32514   4.984   7.990   8.541 -1.4326  0.6861  2.0789
  241MOL0     H32515   4.127   7.492   8.285  0.0754  2.0556 -1.0650
  241MOL0     H32516   3.961   7.409   8.449 -0.6630  0.5928 -2.9976
  241MOL0     H32517   3.865   7.469   9.071  0.2865 -1.5689  0.7157
  241MOL0     H32518   3.654   7.434   9.198  1.3408  1.1309 -0.5114
  241MOL0     H32519   3.996   6.619   9.256 -2.8840 -1.3318 -0.1359
  241MOL0     H32520   4.189   6.469   9.202  2.4762  1.1908 -0.5926
  241MOL0     H32521   4.641   6.558   9.039  1.1325 -1.5155  1.5829
  241MOL0     H32522   4.849   6.466   8.972 -0.6657 -0.3500  1.8619
  241MOL0     H32523   4.972   6.215   8.962  0.4984 -0.6388  0.3519
  241MOL0     H32524   5.031   6.376   8.902  1.8581 -0.9592 -1.8146
  241MOL0     H32525   5.181   6.173   8.873 -0.9084  1.3188  1.3567
  241MOL0     H32526   5.163   6.287   8.745  0.7756 -0.0535  0.9887
  241MOL0     H32527   4.989   6.032   8.762  1.3174 -0.1424  1.5201
  241MOL0     H32528   5.157   6.022   8.708  1.1730  0.4429  2.8137
  241MOL0     H32529   4.934   6.183   8.580 -0.7537 -0.1517  0.8548
  241MOL0     H32530   5.094   6.164   8.504  0.1872 -0.8748  0.9610
  241MOL0     H32531   4.905   5.810   8.398 -0.4351  0.6851 -0.7190
  241MOL0     H32532   4.662   6.217   8.677 -2.2554  2.0993 -0.6778
  241MOL0     H32533   4.341   6.379   8.715 -0.9948 -0.2210 -1.6594
  241MOL0     H32534   4.437   6.251   8.631  3.1476 -2.9901  2.1949
  241MOL0     H32535   4.337   6.220   8.777  1.7949 -0.8561  1.3932
  242MOL0     O32536  11.281   3.414   7.933  0.5175  0.0271  0.3548
  242MOL0     C32537  11.250   3.325   8.008 -0.2994 -0.1102  0.4501
  242MOL0     O32538  11.331   3.223   8.056  0.7117  0.4507  0.0770
  242MOL0     C32539  11.462   3.204   8.019 -0.1137 -0.4509  0.3952
  242MOL0     C32540  11.523   3.087   8.068  0.5723  0.0495 -0.7780
  242MOL0     C32541  11.658   3.064   8.057 -0.2257  0.3416 -0.2422
  242MOL0     C32542  11.742   3.155   7.989 -0.0272 -0.7638 -0.1659
  242MOL0     O32543  11.875   3.139   7.969  0.4538  0.6758  0.1313
  242MOL0     C32544  11.940   3.043   8.056 -0.9819 -0.9202  0.1883
  242MOL0     C32545  12.092   3.084   8.067 -0.0270  0.0481  0.7313
  242MOL0     C32546  12.172   3.050   7.934  0.1233 -0.2580 -0.3424
  242MOL0     C32547  12.151   3.150   7.822  0.1483  0.2881 -0.3016
  242MOL0     C32548  12.216   3.124   7.683 -1.1616  0.7234 -0.7057
  242MOL0     C32549  12.188   2.991   7.615 -0.2899  0.3142  0.7115
  242MOL0     C32550  12.268   2.976   7.481 -0.3893  0.1500  0.1306
  242MOL0     C32551  12.410   2.908   7.513  0.1789  0.3693 -0.3950
  242MOL0     N32552  12.493   2.889   7.389  0.2096 -0.3221  0.0470
  242MOL0     C32553  12.606   2.811   7.389  0.4707 -0.7169  0.1032
  242MOL0     C32554  12.662   2.818   7.270  0.6795  0.1551  0.1582
  242MOL0     C32555  12.791   2.765   7.219 -0.4830 -0.8687 -0.2579
  242MOL0     C32556  12.829   2.785   7.075 -0.9545 -0.1811 -0.7124
  242MOL0     C32557  12.975   2.735   7.033  0.9887 -0.3224 -0.0632
  242MOL0     C32558  13.092   2.806   7.098 -0.5506  0.7157  0.2782
  242MOL0     O32559  13.111   2.937   7.046 -0.8433 -0.0792  0.2361
  242MOL0     C32560  13.223   2.946   6.970 -1.3535  0.6897  0.7305
  242MOL0     C32561  13.209   2.964   6.831  0.6538 -0.2580  0.1984
  242MOL0     C32562  13.327   2.990   6.756 -0.2991 -0.4981  0.5285
  242MOL0     C32563  13.451   3.011   6.817 -0.3915  0.1267 -0.2342
  242MOL0     C32564  13.569   3.061   6.742  0.1017 -0.1807  0.2649
  242MOL0     O32565  13.548   3.100   6.615 -0.4061  0.6110  1.0755
  242MOL0     C32566  13.655   3.132   6.540 -0.7913  0.6282 -0.2783
  242MOL0     C32567  13.695   3.034   6.443  0.1276 -0.1415  0.3974
  242MOL0     C32568  13.797   3.060   6.360 -0.5058 -0.3351 -0.1316
  242MOL0     C32569  13.862   3.181   6.358 -0.2284 -0.5019  0.5008
  242MOL0     O32570  13.963   3.191   6.270  0.2379 -0.5148 -0.3911
  242MOL0     C32571  14.087   3.250   6.316 -0.8643  0.6100 -0.5133
  242MOL0     C32572  14.166   3.150   6.411 -0.7266 -1.1599 -0.4228
  242MOL0     C32573  14.213   3.016   6.359  0.1893  0.0160  0.3533
  242MOL0     C32574  14.321   3.047   6.256  0.4499 -0.1918 -0.4779
  242MOL0     C32575  14.438   2.948   6.244  0.2182  0.1058 -0.0517
  242MOL0     C32576  14.529   2.948   6.374  0.5957 -1.3998  0.4570
  242MOL0     C32577  14.640   2.853   6.343  0.8129 -0.7503 -0.4711
  242MOL0     C32578  14.758   2.913   6.274  0.2348  0.5828 -0.4039
  242MOL0    Cl32579  14.854   2.769   6.234 -0.2699  0.0375 -0.0192
  242MOL0     C32580  13.822   3.281   6.455  0.0366  0.1582  0.7638
  242MOL0     C32581  13.723   3.256   6.548  1.0160 -0.9566  0.5932
  242MOL0     O32582  13.672   3.074   6.805  0.4638 -0.7602  0.1258
  242MOL0     C32583  13.453   3.000   6.955  0.0348 -0.2391 -0.5161
  242MOL0     C32584  13.345   2.958   7.032 -0.2607  0.6111 -0.1920
  242MOL0     N32585  12.572   2.888   7.189 -0.7950 -0.5669 -0.3993
  242MOL0     N32586  12.468   2.918   7.258 -0.6167  0.3502 -0.1755
  242MOL0     C32587  11.683   3.269   7.932  0.3778 -0.0380  1.0701
  242MOL0     C32588  11.543   3.288   7.934  0.8719  0.0946 -0.3711
  242MOL0     C32589  11.113   3.310   8.027 -0.3256  0.2025  0.0798
  242MOL0     C32590  11.053   3.406   8.102  0.4652 -0.4177 -0.4693
  242MOL0     C32591  10.914   3.397   8.122 -0.3302 -0.1473  0.3239
  242MOL0     C32592  10.832   3.311   8.049  0.2145  1.1465 -0.2685
  242MOL0     O32593  10.694   3.311   8.045  0.3822 -0.1625  0.9237
  242MOL0     C32594  10.639   3.436   7.999  0.3762 -0.3896  0.5953
  242MOL0     C32595  10.491   3.444   7.976 -0.1161 -0.2701  0.0668
  242MOL0     C32596  10.421   3.401   8.107  0.7338  0.8966  0.4692
  242MOL0     C32597  10.265   3.427   8.095  0.0974  0.1690  0.3345
  242MOL0     C32598  10.247   3.564   8.163 -0.6576  0.6282 -0.4573
  242MOL0     C32599  10.236   3.674   8.211  0.9342  0.8834 -0.3420
  242MOL0     C32600  10.897   3.211   7.979  0.4554  0.2846  0.0236
  242MOL0     C32601  11.038   3.212   7.964 -0.7633 -0.0046  1.1841
  242MOL0     C32602  11.103   3.111   7.873  0.8677  0.4538  0.1313
  242MOL0     H32603  11.470   3.001   8.106  0.8393 -0.5691 -1.7637
  242MOL0     H32604  11.701   2.968   8.086 -0.0327  0.6289  0.4422
  242MOL0     H32605  11.907   3.063   8.159 -0.9523  2.0569 -0.2870
  242MOL0     H32606  11.919   2.939   8.030  1.7795 -2.1849  2.4505
  242MOL0     H32607  12.141   3.017   8.138 -0.1046 -1.1196 -0.2749
  242MOL0     H32608  12.091   3.191   8.089  0.3968  0.7393 -2.1781
  242MOL0     H32609  12.141   2.953   7.894 -1.8810 -0.0592  0.6202
  242MOL0     H32610  12.279   3.046   7.955  0.0775  1.8505  0.5886
  242MOL0     H32611  12.046   3.161   7.795  0.6269  1.5312 -1.8378
  242MOL0     H32612  12.183   3.249   7.855  1.0362 -0.2293  0.4271
  242MOL0     H32613  12.179   3.209   7.626 -2.8112  2.1365  2.2505
  242MOL0     H32614  12.324   3.134   7.695 -1.2687  3.9736 -1.6502
  242MOL0     H32615  12.222   2.913   7.685  0.3840  4.2238  5.2604
  242MOL0     H32616  12.086   2.961   7.591  0.3073 -0.7551 -0.6378
  242MOL0     H32617  12.283   3.074   7.434 -3.0611  0.4333 -0.3170
  242MOL0     H32618  12.213   2.905   7.418  3.8364 -4.2333  0.8509
  242MOL0     H32619  12.478   2.955   7.585  0.9569  0.1742 -0.9898
  242MOL0     H32620  12.394   2.807   7.552 -3.0818  0.5323 -1.0298
  242MOL0     H32621  12.656   2.771   7.476  3.2948  1.0089 -0.5933
  242MOL0     H32622  12.863   2.819   7.281 -1.4306  0.3902 -0.2098
  242MOL0     H32623  12.801   2.661   7.248 -0.5816 -0.3840  1.6166
  242MOL0     H32624  12.771   2.710   7.019 -1.9543 -1.0743  1.4317
  242MOL0     H32625  12.807   2.890   7.054  1.8069  1.8444  4.7077
  242MOL0     H32626  12.990   2.735   6.924  3.3420 -0.2752  0.2099
  242MOL0     H32627  12.971   2.632   7.068  1.9364  0.4482  2.5017
  242MOL0     H32628  13.177   2.742   7.071 -2.1617  0.0104 -3.9025
  242MOL0     H32629  13.089   2.813   7.207 -0.6308  2.1305  0.2080
  242MOL0     H32630  13.111   2.958   6.786  2.6387  1.0945 -5.0638
  242MOL0     H32631  13.325   2.995   6.647  0.6235 -0.5282  0.5069
  242MOL0     H32632  13.653   2.935   6.453 -0.9582  0.3764  1.2273
  242MOL0     H32633  13.838   2.985   6.292  1.5807 -2.7108  3.4521
  242MOL0     H32634  14.154   3.259   6.230 -1.8237  2.4352 -1.1153
  242MOL0     H32635  14.069   3.341   6.374  2.6488 -1.4024  4.4473
  242MOL0     H32636  14.255   3.204   6.447 -1.1894 -0.8749  0.3207
  242MOL0     H32637  14.113   3.125   6.503  0.0996 -1.1126  0.0737
  242MOL0     H32638  14.259   2.951   6.434  3.4564  0.5555 -1.0171
  242MOL0     H32639  14.123   2.965   6.324 -1.0470  2.4418 -0.1756
  242MOL0     H32640  14.367   3.141   6.288 -1.5366  1.5455 -2.3737
  242MOL0     H32641  14.286   3.068   6.154  0.8303  1.8760 -0.2325
  242MOL0     H32642  14.496   2.973   6.155 -1.1309 -0.4418 -1.1241
  242MOL0     H32643  14.411   2.842   6.234  0.8974  0.1269 -2.9800
  242MOL0     H32644  14.558   3.048   6.406 -3.0236 -0.8414  2.6463
  242MOL0     H32645  14.471   2.905   6.457 -3.9722 -0.1190 -1.7418
  242MOL0     H32646  14.595   2.766   6.295 -0.1829  0.7715 -2.4447
  242MOL0     H32647  14.680   2.815   6.438 -2.8002 -1.8850  0.7730
  242MOL0     H32648  14.718   2.964   6.186 -2.4869  1.5940  1.2952
  242MOL0     H32649  14.817   2.982   6.336  1.7668  0.8427 -2.0893
  242MOL0     H32650  13.871   3.377   6.449  0.0512  0.1094 -0.0053
  242MOL0     H32651  13.701   3.319   6.634  0.6071  1.3691 -1.1266
  242MOL0     H32652  13.552   3.015   6.995  1.4114 -2.1690 -2.9290
  242MOL0     H32653  13.363   2.944   7.138 -0.4803 -0.6495 -0.2997
  242MOL0     H32654  11.746   3.339   7.878 -0.0903 -0.3176  0.1379
  242MOL0     H32655  11.507   3.380   7.890  1.0708  0.9193  1.1105
  242MOL0     H32656  11.105   3.469   8.174 -1.5899 -1.6365  2.2634
  242MOL0     H32657  10.876   3.469   8.193 -2.1554 -0.7305 -0.0303
  242MOL0     H32658  10.685   3.461   7.904  0.7043  1.8811  1.2937
  242MOL0     H32659  10.654   3.521   8.067 -0.1666 -0.8019  1.2428
  242MOL0     H32660  10.470   3.377   7.892 -1.4175 -1.2157  1.1199
  242MOL0     H32661  10.471   3.547   7.943  1.4383  0.2497  0.6329
  242MOL0     H32662  10.450   3.454   8.198 -0.2031  0.1945  1.1977
  242MOL0     H32663  10.444   3.296   8.127  1.9594  0.6336 -1.8687
  242MOL0     H32664  10.241   3.424   7.989  3.7566 -2.9448 -0.6142
  242MOL0     H32665  10.206   3.348   8.144  0.8301 -1.4108 -1.2311
  242MOL0     H32666  10.229   3.766   8.266 -1.9494 -0.2593  1.4011
  242MOL0     H32667  10.821   3.141   7.948  1.1467  0.8614 -3.4312
  242MOL0     H32668  11.182   3.058   7.926  2.3689 -0.1497 -2.5658
  242MOL0     H32669  11.024   3.041   7.843  0.6455 -0.1364  1.9546
  242MOL0     H32670  11.138   3.163   7.783 -0.2854  0.6285 -0.2329
  243MOL0     O32671   2.855   0.520   2.535 -0.3253 -0.5839 -0.5604
  243MOL0     C32672   2.909   0.637   2.544 -0.2488  1.3222  0.5239
  243MOL0     O32673   2.974   0.689   2.648 -0.0583 -0.2344  0.1913
  243MOL0     C32674   2.992   0.629   2.768  0.5870 -0.1001 -0.3416
  243MOL0     C32675   2.909   0.539   2.837 -0.5543  0.8800 -0.1293
  243MOL0     C32676   2.949   0.486   2.959 -0.6062  0.4778  0.3275
  243MOL0     C32677   3.073   0.533   3.014 -0.1633  0.1577 -0.6832
  243MOL0     O32678   3.104   0.485   3.138  0.3219 -0.4486  0.0175
  243MOL0     C32679   3.188   0.574   3.222  0.8461  0.9295 -0.2871
  243MOL0     C32680   3.184   0.523   3.362 -0.1026  0.1928 -0.0484
  243MOL0     C32681   3.233   0.628   3.467  0.0331 -0.8045  0.0532
  243MOL0     C32682   3.126   0.724   3.528  0.2264  0.3132  0.4392
  243MOL0     C32683   3.188   0.855   3.562 -0.3377 -0.0221 -0.3783
  243MOL0     C32684   3.089   0.965   3.579 -0.1503 -0.4813 -0.0397
  243MOL0     C32685   3.140   1.105   3.631 -0.4248 -0.6172 -0.5645
  243MOL0     C32686   3.015   1.199   3.614 -0.0235 -0.9407 -0.2994
  243MOL0     N32687   2.991   1.279   3.740  0.0402  0.2233 -1.0189
  243MOL0     C32688   3.099   1.355   3.779 -0.7819  0.4129  0.6736
  243MOL0     C32689   3.069   1.381   3.908  0.2663 -0.4209  0.0533
  243MOL0     C32690   3.141   1.462   4.015  0.0157 -0.7275 -0.0463
  243MOL0     C32691   3.215   1.585   3.960  0.0256 -0.2197  0.0060
  243MOL0     C32692   3.278   1.675   4.062 -0.7247 -0.2453  0.1923
  243MOL0     C32693   3.323   1.615   4.197 -0.4031  0.4067  0.6877
  243MOL0     O32694   3.403   1.712   4.256 -0.5079 -0.0526  0.1662
  243MOL0     C32695   3.539   1.726   4.220  0.4501  0.8820  0.2979
  243MOL0     C32696   3.634   1.623   4.233  0.1329 -0.8860 -0.5169
  243MOL0     C32697   3.768   1.643   4.202 -0.6084 -0.0538  0.3694
  243MOL0     C32698   3.812   1.771   4.158 -0.2568  1.0966 -0.2132
  243MOL0     C32699   3.958   1.803   4.144  0.7366 -0.3220 -0.2739
  243MOL0     O32700   4.043   1.702   4.146 -0.5405 -0.5869 -0.2190
  243MOL0     C32701   4.168   1.697   4.083 -0.0994  0.0182  1.0408
  243MOL0     C32702   4.216   1.564   4.082  0.5895 -0.0572  0.2850
  243MOL0     C32703   4.336   1.531   4.010  0.2953  0.1792  0.0345
  243MOL0     C32704   4.394   1.626   3.931  0.1491 -0.4078  0.7990
  243MOL0     O32705   4.496   1.580   3.863 -0.3052  0.1690 -0.1325
  243MOL0     C32706   4.578   1.672   3.786  0.0552  0.0308 -1.0029
  243MOL0     C32707   4.689   1.593   3.713  0.0176  0.8233  0.9091
  243MOL0     C32708   4.765   1.676   3.603 -0.2489 -0.0132 -0.5366
  243MOL0     C32709   4.873   1.595   3.529 -0.0917 -0.4333  0.1891
  243MOL0     C32710   4.958   1.698   3.445 -0.2014 -0.1460 -0.7765
  243MOL0     C32711   5.086   1.640   3.372 -0.4789  0.1381  0.1806
  243MOL0     C32712   5.036   1.551   3.261 -0.0342  0.4776  1.0950
  243MOL0     C32713   5.155   1.524   3.166  0.2321  0.4069  0.2891
  243MOL0    Cl32714   5.108   1.493   3.001 -0.4220  0.2005  0.2475
  243MOL0     C32715   4.355   1.760   3.946  0.0365  0.8598 -0.3952
  243MOL0     C32716   4.240   1.796   4.018  0.8969  0.0906  0.5285
  243MOL0     O32717   3.991   1.921   4.127  0.1296 -1.2862  0.4350
  243MOL0     C32718   3.716   1.873   4.144  0.2181  0.1011 -0.0402
  243MOL0     C32719   3.575   1.851   4.167  0.1562 -0.2062 -0.2534
  243MOL0     N32720   2.948   1.333   3.942 -0.2327  0.7596  0.1441
  243MOL0     N32721   2.900   1.271   3.840 -0.4996 -0.2256  0.4948
  243MOL0     C32722   3.155   0.623   2.944  0.3277  0.5956 -0.6814
  243MOL0     C32723   3.118   0.667   2.820  0.6255  1.1246  0.0284
  243MOL0     C32724   2.908   0.736   2.428  0.1120  0.0044 -0.4455
  243MOL0     C32725   3.032   0.787   2.378 -0.2778 -0.0224  0.1864
  243MOL0     C32726   3.034   0.869   2.261  0.0511  0.9522 -0.9247
  243MOL0     C32727   2.916   0.906   2.190 -0.5558  0.3300 -0.4677
  243MOL0     O32728   2.930   0.968   2.075 -0.7050  0.8390  0.4651
  243MOL0     C32729   2.945   1.103   2.097  0.1404 -1.4055 -0.3189
  243MOL0     C32730   2.815   1.184   2.092  1.1049 -0.3982  0.2485
  243MOL0     C32731   2.742   1.180   1.958  0.3395 -0.0460 -0.1939
  243MOL0     C32732   2.610   1.252   1.965  0.8123 -0.6126 -0.6466
  243MOL0     C32733   2.535   1.222   1.848  0.5219  0.9275 -0.1596
  243MOL0     C32734   2.464   1.204   1.759  0.0530  1.2565  0.8369
  243MOL0     C32735   2.794   0.860   2.242 -0.3814  0.8307  0.1528
  243MOL0     C32736   2.790   0.777   2.358  1.1980  0.8879  0.0692
  243MOL0     C32737   2.650   0.734   2.412 -0.1939 -0.1185 -0.7286
  243MOL0     H32738   2.814   0.516   2.790 -0.9414  1.4288  0.3753
  243MOL0     H32739   2.875   0.427   3.012 -2.8282  1.4009 -1.6025
  243MOL0     H32740   3.292   0.580   3.187  1.2801 -0.5641  0.6509
  243MOL0     H32741   3.143   0.673   3.212 -0.9608  0.4073  1.8116
  243MOL0     H32742   3.246   0.434   3.370 -1.3864 -0.7186  0.1616
  243MOL0     H32743   3.081   0.492   3.383 -1.7341  3.9361 -1.5456
  243MOL0     H32744   3.308   0.683   3.410 -1.5455  1.3288 -0.1047
  243MOL0     H32745   3.284   0.569   3.543 -0.3702 -2.8850 -1.2036
  243MOL0     H32746   3.054   0.747   3.450  2.9322  2.5900 -1.6078
  243MOL0     H32747   3.080   0.680   3.617 -1.3436  2.9724  1.0137
  243MOL0     H32748   3.235   0.828   3.657 -0.3199 -0.8224 -0.6047
  243MOL0     H32749   3.276   0.876   3.501  0.7768  1.4015  1.5954
  243MOL0     H32750   3.067   0.985   3.473 -1.1379  1.7952  0.5469
  243MOL0     H32751   3.009   0.932   3.646 -0.0138  0.8603  0.8156
  243MOL0     H32752   3.230   1.138   3.579  1.5773 -5.3713 -0.6382
  243MOL0     H32753   3.164   1.092   3.737 -0.9055  3.4113  0.2021
  243MOL0     H32754   3.042   1.264   3.531  1.0699  0.1743  0.8976
  243MOL0     H32755   2.926   1.137   3.597  0.4301 -2.2651  1.7201
  243MOL0     H32756   3.188   1.375   3.719 -0.9067  1.3850  0.7909
  243MOL0     H32757   3.072   1.505   4.087  1.7175  1.4513  0.4126
  243MOL0     H32758   3.210   1.400   4.074  0.1569 -2.0381 -1.5105
  243MOL0     H32759   3.284   1.558   3.879  0.0224 -1.4643  0.4018
  243MOL0     H32760   3.141   1.642   3.903  0.6842 -1.1881 -1.9284
  243MOL0     H32761   3.199   1.747   4.086  0.8751  1.5722  0.2550
  243MOL0     H32762   3.352   1.737   4.011 -1.1869  0.0981 -0.0745
  243MOL0     H32763   3.376   1.521   4.178 -1.7561  0.0967 -1.9375
  243MOL0     H32764   3.232   1.591   4.253 -0.9731  1.5865  0.2913
  243MOL0     H32765   3.620   1.523   4.271  0.4615 -0.8135 -0.1997
  243MOL0     H32766   3.842   1.566   4.220 -3.2811 -2.2020  3.2189
  243MOL0     H32767   4.149   1.490   4.123  0.0424 -0.1521 -0.7436
  243MOL0     H32768   4.351   1.424   3.998 -0.0990 -0.1334  2.0323
  243MOL0     H32769   4.519   1.731   3.715  0.7708  3.4829  1.0351
  243MOL0     H32770   4.618   1.752   3.850  0.5715 -2.4087  1.9654
  243MOL0     H32771   4.756   1.557   3.792  0.2035  1.1733  0.9114
  243MOL0     H32772   4.649   1.503   3.665 -2.7803  2.1149  0.6130
  243MOL0     H32773   4.695   1.727   3.537  0.8262  0.2387 -1.5057
  243MOL0     H32774   4.814   1.750   3.667 -1.9033  0.4656  0.2336
  243MOL0     H32775   4.825   1.527   3.459 -0.3355  2.1636 -2.3232
  243MOL0     H32776   4.935   1.537   3.599  0.8274  0.5321  0.2050
  243MOL0     H32777   4.983   1.780   3.512  2.1809 -0.7049 -0.8876
  243MOL0     H32778   4.882   1.728   3.372  1.1112  1.1047 -1.6668
  243MOL0     H32779   5.139   1.725   3.327 -2.6453  0.5380 -1.7849
  243MOL0     H32780   5.154   1.592   3.443 -1.3558  1.7930  2.2330
  243MOL0     H32781   4.954   1.586   3.197  0.3730 -1.1038 -0.3579
  243MOL0     H32782   5.002   1.454   3.296 -1.7198 -1.1294 -4.0860
  243MOL0     H32783   5.215   1.615   3.168  0.3146  0.3670 -0.3238
  243MOL0     H32784   5.219   1.448   3.211  0.8426  0.5177 -0.3760
  243MOL0     H32785   4.410   1.827   3.881  2.8304 -0.8144  0.0895
  243MOL0     H32786   4.202   1.897   4.010 -0.2349 -0.1882  2.0797
  243MOL0     H32787   3.751   1.971   4.114 -0.6382 -0.3366 -2.7611
  243MOL0     H32788   3.515   1.942   4.159 -1.3127 -1.1799 -0.7150
  243MOL0     H32789   3.252   0.659   2.975  0.3018 -0.0760  0.2182
  243MOL0     H32790   3.184   0.737   2.771  1.4856  2.7633  3.2169
  243MOL0     H32791   3.127   0.761   2.423  0.5182  2.4373  0.0592
  243MOL0     H32792   3.130   0.895   2.219 -0.5848  4.1682 -0.6680
  243MOL0     H32793   3.003   1.145   2.014 -0.8409  0.7448  0.0046
  243MOL0     H32794   3.001   1.116   2.191  1.5370 -0.6145 -1.2173
  243MOL0     H32795   2.834   1.290   2.111  1.1631 -0.6791  1.9452
  243MOL0     H32796   2.746   1.149   2.169  2.3706  0.2867  1.7804
  243MOL0     H32797   2.724   1.072   1.957 -1.2613  0.2022  0.3663
  243MOL0     H32798   2.802   1.210   1.871  0.1045  2.1676  0.3315
  243MOL0     H32799   2.555   1.212   2.051 -1.8861  2.2408 -0.8587
  243MOL0     H32800   2.624   1.360   1.975 -1.9203 -0.3392  1.2506
  243MOL0     H32801   2.411   1.221   1.667 -0.0883 -0.8566  0.4869
  243MOL0     H32802   2.695   0.867   2.199 -0.1839 -0.5512 -0.5681
  243MOL0     H32803   2.577   0.740   2.330 -2.4417  3.4544  1.2622
  243MOL0     H32804   2.653   0.632   2.449  1.0540  0.4630  0.8692
  243MOL0     H32805   2.608   0.796   2.491 -0.4822  0.9643 -1.6937
  244MOL0     O32806   0.108   9.893   2.777 -0.5368 -0.6924  0.2134
  244MOL0     C32807   0.102   9.776   2.824  0.1643  0.5004 -0.5932
  244MOL0     O32808   0.004   9.724   2.914  0.3060 -1.2037 -0.3309
  244MOL0     C32809  -0.070   9.817   2.991 -0.3217 -0.3274  0.0433
  244MOL0     C32810   0.005   9.907   3.069  0.6709 -0.2397 -0.8837
  244MOL0     C32811  -0.075  10.013   3.130  0.2925 -0.3876  0.8804
  244MOL0     C32812  -0.222  10.005   3.121 -0.2080 -0.5424 -0.2573
  244MOL0     O32813  -0.299  10.093   3.190  0.1885 -0.4880 -0.4640
  244MOL0     C32814  -0.254  10.226   3.189  0.7796  0.4677 -0.9571
  244MOL0     C32815  -0.341  10.311   3.268  0.1829 -0.2587 -0.3150
  244MOL0     C32816  -0.333  10.282   3.419 -0.8594 -0.2674  0.2994
  244MOL0     C32817  -0.422  10.369   3.498 -0.4002 -0.5882 -0.2430
  244MOL0     C32818  -0.400  10.332   3.646  1.3430 -0.4081  0.4165
  244MOL0     C32819  -0.477  10.418   3.739  1.0542  0.5001 -0.0855
  244MOL0     C32820  -0.431  10.355   3.877 -0.1092 -0.7910  0.1650
  244MOL0     C32821  -0.475  10.210   3.903 -0.6979 -0.3898  0.1460
  244MOL0     N32822  -0.429  10.181   4.034  0.7544  0.3991  0.3067
  244MOL0     C32823  -0.503  10.195   4.146 -0.2256  0.4300 -0.0702
  244MOL0     C32824  -0.424  10.151   4.241 -0.0677  0.6258 -0.5818
  244MOL0     C32825  -0.444  10.139   4.396 -0.2297  1.0009 -1.0379
  244MOL0     C32826  -0.415  10.265   4.482  0.3010 -0.8412  0.6597
  244MOL0     C32827  -0.279  10.324   4.449 -0.5074 -0.2279  0.2533
  244MOL0     C32828  -0.161  10.226   4.461  0.4695 -0.1487  0.1594
  244MOL0     O32829  -0.037  10.293   4.447  0.2732  0.3048  0.4454
  244MOL0     C32830   0.081  10.226   4.431 -0.4768 -0.6745  0.3248
  244MOL0     C32831   0.200  10.303   4.419  0.6712  1.0406 -0.0099
  244MOL0     C32832   0.321  10.243   4.383  0.7191  0.6282  0.2666
  244MOL0     C32833   0.318  10.092   4.376  0.2053  0.4950 -0.2912
  244MOL0     C32834   0.435  10.024   4.339  0.1434 -0.0156  0.6990
  244MOL0     O32835   0.541  10.104   4.304 -0.4623  0.2455  0.4951
  244MOL0     C32836   0.637  10.045   4.226  0.2641 -0.0130 -0.9152
  244MOL0     C32837   0.610   9.968   4.107  0.4246 -0.0386  0.1210
  244MOL0     C32838   0.719   9.913   4.026  0.6215 -0.4985 -0.3098
  244MOL0     C32839   0.852   9.927   4.074 -0.4567  1.0706  0.2223
  244MOL0     O32840   0.962   9.868   4.014  0.7446 -0.3042  0.9395
  244MOL0     C32841   0.974   9.730   3.980 -0.3542 -0.1842 -0.2057
  244MOL0     C32842   0.960   9.709   3.831  0.1737 -0.2682 -0.6834
  244MOL0     C32843   0.946   9.562   3.793 -0.4181 -0.2638 -0.1087
  244MOL0     C32844   0.949   9.530   3.647  0.4580 -0.6742  0.6953
  244MOL0     C32845   0.825   9.581   3.558 -0.5976 -0.5579 -0.9978
  244MOL0     C32846   0.814   9.500   3.435  0.4080  0.2149 -0.5280
  244MOL0     C32847   0.713   9.552   3.335 -0.1245 -0.6630  0.0390
  244MOL0     C32848   0.663   9.450   3.237 -0.2709  0.2711  0.5726
  244MOL0    Cl32849   0.755   9.447   3.091 -0.0420 -0.0310  0.1579
  244MOL0     C32850   0.871  10.003   4.196 -1.4228 -0.3434  0.4969
  244MOL0     C32851   0.772  10.059   4.268  0.0507 -0.1879  0.1944
  244MOL0     O32852   0.429   9.900   4.318 -0.0708 -0.6708 -0.6441
  244MOL0     C32853   0.194  10.022   4.387 -1.0333  0.5642 -0.1334
  244MOL0     C32854   0.081  10.088   4.398  0.1933  0.7778 -0.0755
  244MOL0     N32855  -0.319  10.088   4.180 -0.6660 -0.5168  0.1862
  244MOL0     N32856  -0.307  10.128   4.061 -0.8545  0.0130 -0.1621
  244MOL0     C32857  -0.281   9.896   3.061  0.4026 -0.2720  0.4459
  244MOL0     C32858  -0.207   9.811   2.974 -0.3469  0.9734 -0.1641
  244MOL0     C32859   0.196   9.678   2.768 -0.4519  0.9278 -0.2892
  244MOL0     C32860   0.133   9.558   2.722 -0.8028  0.5708 -0.0300
  244MOL0     C32861   0.216   9.455   2.668  0.2594  1.0161 -0.5128
  244MOL0     C32862   0.352   9.477   2.647  0.5762  0.5085  0.0598
  244MOL0     O32863   0.411   9.366   2.594 -0.2657 -0.1200 -1.0082
  244MOL0     C32864   0.543   9.384   2.540  0.5265 -0.2656 -0.0935
  244MOL0     C32865   0.540   9.289   2.420 -0.1756 -0.2294 -0.4875
  244MOL0     C32866   0.453   9.335   2.305 -1.3956  0.6510 -0.1465
  244MOL0     C32867   0.445   9.229   2.197  0.9399  0.6586  0.3112
  244MOL0     C32868   0.338   9.278   2.107 -1.2251  0.1199  1.0271
  244MOL0     C32869   0.259   9.331   2.032 -0.3887 -0.7438 -0.1914
  244MOL0     C32870   0.412   9.597   2.705  0.4559 -0.5791  0.6470
  244MOL0     C32871   0.338   9.697   2.762 -0.3526 -0.3426 -0.3141
  244MOL0     C32872   0.410   9.819   2.817 -0.0827  0.8171  0.7891
  244MOL0     H32873   0.113   9.920   3.071  0.5809  0.4182  0.3634
  244MOL0     H32874  -0.024  10.088   3.191 -1.1736  0.9396  0.5451
  244MOL0     H32875  -0.167  10.218   3.256 -1.4417 -1.7227  1.9916
  244MOL0     H32876  -0.236  10.270   3.091  2.0223  0.1226 -0.9045
  244MOL0     H32877  -0.447  10.293   3.246  0.2082 -0.9111  0.0817
  244MOL0     H32878  -0.313  10.414   3.242 -2.3759  0.8822  1.0518
  244MOL0     H32879  -0.231  10.305   3.452 -1.8162  1.4601  2.2388
  244MOL0     H32880  -0.358  10.177   3.435  2.9273 -2.2597 -4.1741
  244MOL0     H32881  -0.406  10.474   3.469  0.2018 -1.5082 -3.6795
  244MOL0     H32882  -0.528  10.358   3.474 -0.4653  0.7302 -0.6552
  244MOL0     H32883  -0.443  10.232   3.651 -0.3641  0.2752  0.2102
  244MOL0     H32884  -0.299  10.317   3.685  1.5783 -0.4661 -0.2076
  244MOL0     H32885  -0.455  10.525   3.729  2.1030  0.4255  1.1696
  244MOL0     H32886  -0.581  10.388   3.727  1.3865 -1.0037  0.6181
  244MOL0     H32887  -0.481  10.417   3.952 -0.5054  2.1777 -2.3666
  244MOL0     H32888  -0.324  10.370   3.894  0.0540 -0.2525 -1.1878
  244MOL0     H32889  -0.582  10.194   3.891 -0.4051 -1.2813 -1.5072
  244MOL0     H32890  -0.431  10.147   3.826 -2.4322 -1.6125  0.1000
  244MOL0     H32891  -0.603  10.234   4.165 -0.0531  0.4096  0.9416
  244MOL0     H32892  -0.536  10.081   4.404  0.5317 -0.0467  1.0379
  244MOL0     H32893  -0.376  10.064   4.438 -2.6441 -1.3541 -1.0650
  244MOL0     H32894  -0.492  10.338   4.457 -0.2909 -0.6284  2.9510
  244MOL0     H32895  -0.411  10.243   4.589  1.5031 -0.8996  0.6142
  244MOL0     H32896  -0.270  10.399   4.529 -0.8470  1.4389 -1.2159
  244MOL0     H32897  -0.266  10.377   4.354  2.5258 -1.0353  0.1113
  244MOL0     H32898  -0.178  10.138   4.397  0.4392 -2.1944  2.8165
  244MOL0     H32899  -0.159  10.177   4.558 -1.7964  0.0605  0.3457
  244MOL0     H32900   0.197  10.411   4.406 -0.4111  0.7292 -3.2074
  244MOL0     H32901   0.410  10.301   4.360  2.2319 -2.0839 -1.1562
  244MOL0     H32902   0.505   9.960   4.083  1.0808 -1.5274 -2.6521
  244MOL0     H32903   0.690   9.855   3.939 -1.9354  1.1225 -0.6612
  244MOL0     H32904   1.072   9.683   3.991 -0.5533 -0.7149 -0.6883
  244MOL0     H32905   0.909   9.667   4.041  2.4004 -2.2363  0.7883
  244MOL0     H32906   0.875   9.771   3.802  1.0105  0.0362 -2.6216
  244MOL0     H32907   1.055   9.742   3.788  1.8329 -3.1398  0.4752
  244MOL0     H32908   1.027   9.507   3.844  0.2059  0.7708  0.0446
  244MOL0     H32909   0.861   9.523   3.849  1.2719 -4.9663 -0.3650
  244MOL0     H32910   0.952   9.421   3.638  1.8250 -0.4608 -3.2315
  244MOL0     H32911   1.045   9.575   3.618  0.1890  1.0543  2.3121
  244MOL0     H32912   0.839   9.686   3.529  0.2140 -0.3706 -0.0233
  244MOL0     H32913   0.733   9.578   3.616 -1.1485 -0.8358 -1.8795
  244MOL0     H32914   0.909   9.501   3.379  0.6999  2.8032 -0.1228
  244MOL0     H32915   0.782   9.399   3.461 -0.0897  0.3012 -0.7990
  244MOL0     H32916   0.775   9.628   3.286 -1.4863  0.2348 -0.3754
  244MOL0     H32917   0.631   9.605   3.385 -0.2127  0.0139 -0.8075
  244MOL0     H32918   0.672   9.347   3.276  0.2445  0.4592  0.9782
  244MOL0     H32919   0.560   9.469   3.208  0.2340 -0.0291 -1.5707
  244MOL0     H32920   0.971  10.031   4.225 -1.4886  0.6319 -0.1671
  244MOL0     H32921   0.797  10.126   4.349  0.6427 -0.5659  0.3370
  244MOL0     H32922   0.185   9.915   4.373  1.1724  0.3559 -0.2165
  244MOL0     H32923  -0.002  10.018   4.399  0.1938  0.7490 -1.1170
  244MOL0     H32924  -0.390   9.888   3.065  0.1139  0.3535 -2.8938
  244MOL0     H32925  -0.251   9.738   2.908 -1.6154  1.0903  0.5223
  244MOL0     H32926   0.026   9.541   2.724 -0.6264 -0.9197 -1.0479
  244MOL0     H32927   0.180   9.355   2.645  1.7875  0.3852 -0.2723
  244MOL0     H32928   0.612   9.341   2.614 -0.6886  1.4240  2.1622
  244MOL0     H32929   0.564   9.484   2.502 -1.8838  1.2557  2.2079
  244MOL0     H32930   0.519   9.185   2.445  0.8269  0.1000  2.0758
  244MOL0     H32931   0.644   9.283   2.387  0.3974  1.3366  0.8959
  244MOL0     H32932   0.493   9.423   2.252 -1.2916  1.8809  1.8689
  244MOL0     H32933   0.348   9.339   2.335 -1.0104 -2.1359  1.9546
  244MOL0     H32934   0.540   9.227   2.143  0.5888  1.6013 -0.3786
  244MOL0     H32935   0.401   9.133   2.227  1.0201 -0.1878 -2.0865
  244MOL0     H32936   0.191   9.390   1.974 -1.7133 -1.9652  0.0544
  244MOL0     H32937   0.520   9.605   2.694  0.3095  1.7446  0.3781
  244MOL0     H32938   0.482   9.782   2.891 -0.3983  2.8510  2.1816
  244MOL0     H32939   0.460   9.873   2.737 -1.2735 -1.4876 -1.6852
  244MOL0     H32940   0.349   9.882   2.883  2.9261  1.6584  3.0005
  245MOL0     O32941   2.758   7.718   1.812  0.0303 -0.0215 -0.1055
  245MOL0     C32942   2.717   7.758   1.696 -0.0767 -0.1678 -0.0551
  245MOL0     O32943   2.800   7.800   1.590  0.8337 -0.2883 -0.0717
  245MOL0     C32944   2.924   7.839   1.637  0.2103 -0.6534  0.2044
  245MOL0     C32945   3.037   7.773   1.582 -0.0500  0.5197 -0.1670
  245MOL0     C32946   3.168   7.828   1.598  0.5352  0.1717  0.5025
  245MOL0     C32947   3.185   7.942   1.678 -0.0131 -1.2889  0.3463
  245MOL0     O32948   3.301   8.004   1.701  0.1467 -0.4780  0.5538
  245MOL0     C32949   3.425   7.947   1.656 -0.4979  0.3996 -0.1165
  245MOL0     C32950   3.534   8.044   1.692 -0.0381 -0.2479 -0.3555
  245MOL0     C32951   3.646   8.032   1.585  0.0765  1.1043  0.1286
  245MOL0     C32952   3.753   8.146   1.614 -0.1574  0.1321 -1.0814
  245MOL0     C32953   3.866   8.147   1.522 -0.0056  0.3378 -0.1595
  245MOL0     C32954   3.954   8.028   1.556  0.0864  0.2580  0.7346
  245MOL0     C32955   4.093   8.045   1.483  0.8327 -0.4487 -0.2473
  245MOL0     C32956   4.201   7.957   1.538 -0.3160  0.5271  0.1198
  245MOL0     N32957   4.335   8.017   1.507 -0.1054 -0.1314  0.0330
  245MOL0     C32958   4.414   7.962   1.416 -0.1771  0.3895  0.1820
  245MOL0     C32959   4.511   8.054   1.391  0.6049  0.0417 -0.2741
  245MOL0     C32960   4.618   8.038   1.290  0.8964  0.5493 -0.8773
  245MOL0     C32961   4.752   8.005   1.359  0.1661 -0.6171  0.1285
  245MOL0     C32962   4.819   8.140   1.397  1.1439 -0.1152 -0.6093
  245MOL0     C32963   4.972   8.126   1.414  0.5456  0.5644  0.1586
  245MOL0     O32964   5.019   8.244   1.478 -0.1839 -0.7435  0.4567
  245MOL0     C32965   5.157   8.255   1.509 -0.6071  0.0036  0.4882
  245MOL0     C32966   5.203   8.383   1.559 -0.9499 -0.1296  0.4874
  245MOL0     C32967   5.341   8.414   1.576 -0.3664  0.6677 -0.9642
  245MOL0     C32968   5.440   8.324   1.539 -0.4395  0.8798 -0.7096
  245MOL0     C32969   5.588   8.356   1.568 -0.0964  1.2205  0.3747
  245MOL0     O32970   5.673   8.279   1.493 -0.7879  0.4925  0.3566
  245MOL0     C32971   5.808   8.275   1.531  0.7257  0.5537 -0.0108
  245MOL0     C32972   5.903   8.272   1.425 -0.1086  0.3679 -0.0108
  245MOL0     C32973   6.032   8.255   1.457  0.0361  0.7831 -0.9207
  245MOL0     C32974   6.075   8.231   1.591  0.3735 -0.0841  0.6635
  245MOL0     O32975   6.208   8.207   1.613  0.1256 -0.3966 -0.1580
  245MOL0     C32976   6.239   8.154   1.742 -0.0994  0.0729  0.2953
  245MOL0     C32977   6.383   8.113   1.746 -0.6849 -0.0983 -0.1066
  245MOL0     C32978   6.431   8.113   1.886  0.0471  0.2856  0.3251
  245MOL0     C32979   6.570   8.042   1.903 -0.0890  0.2405 -0.3617
  245MOL0     C32980   6.619   8.073   2.049 -1.4592 -1.1171  0.4591
  245MOL0     C32981   6.757   8.014   2.078 -0.6165  0.2392  0.5657
  245MOL0     C32982   6.793   8.019   2.229 -0.2914  0.1358  0.0918
  245MOL0     C32983   6.928   7.966   2.251 -0.9558  0.4345  0.4207
  245MOL0    Cl32984   6.928   7.789   2.220 -0.4658 -0.2278 -0.0285
  245MOL0     C32985   5.983   8.235   1.693 -0.3360 -0.3169  0.5149
  245MOL0     C32986   5.844   8.251   1.666 -1.5762  0.5597 -0.8675
  245MOL0     O32987   5.612   8.438   1.659 -0.6726 -0.0893  0.4145
  245MOL0     C32988   5.397   8.201   1.486  0.2207  1.0146 -0.0468
  245MOL0     C32989   5.263   8.171   1.473 -0.4860 -0.3429  0.4223
  245MOL0     N32990   4.498   8.156   1.481  0.2227  0.1579  0.5302
  245MOL0     N32991   4.393   8.127   1.561  0.3184  0.1317 -0.0713
  245MOL0     C32992   3.082   8.013   1.738  0.3973  0.3729 -0.0577
  245MOL0     C32993   2.953   7.961   1.701 -1.1542 -0.9463 -0.2912
  245MOL0     C32994   2.567   7.773   1.661 -0.0245 -0.5304 -0.2775
  245MOL0     C32995   2.536   7.846   1.546 -0.0711 -1.0503  1.0328
  245MOL0     C32996   2.400   7.850   1.511  0.5609 -0.1794  0.0706
  245MOL0     C32997   2.297   7.801   1.584  1.0433  0.5095  0.6550
  245MOL0     O32998   2.171   7.803   1.526  0.1685  0.4909 -0.0824
  245MOL0     C32999   2.067   7.715   1.575  0.3280 -1.1479  0.7547
  245MOL0     C33000   1.997   7.789   1.686 -0.3780 -0.1136 -0.6224
  245MOL0     C33001   1.887   7.714   1.758  0.4638 -0.1988 -0.4566
  245MOL0     C33002   1.930   7.609   1.855 -0.1329  0.2158 -0.5050
  245MOL0     C33003   1.953   7.480   1.795 -0.0124 -0.3081  1.2023
  245MOL0     C33004   1.950   7.376   1.734 -0.3020  0.3937 -0.7565
  245MOL0     C33005   2.323   7.733   1.700  0.6733 -0.5356  0.6432
  245MOL0     C33006   2.465   7.723   1.742  0.0353  0.2390 -0.2863
  245MOL0     C33007   2.479   7.674   1.886  0.1652 -0.0514 -0.0008
  245MOL0     H33008   3.017   7.688   1.517 -0.9653 -0.7088  1.6509
  245MOL0     H33009   3.252   7.771   1.559  0.6242  1.1714 -0.8050
  245MOL0     H33010   3.432   7.848   1.702  1.4641  0.1818 -0.7971
  245MOL0     H33011   3.431   7.935   1.548  0.5661 -0.2281  0.0043
  245MOL0     H33012   3.572   8.029   1.794  0.7869  2.1295 -0.2432
  245MOL0     H33013   3.500   8.147   1.676 -2.0285 -1.0318 -1.4964
  245MOL0     H33014   3.609   8.045   1.483 -2.3071 -1.6609  0.5164
  245MOL0     H33015   3.700   7.937   1.590  0.2032  1.2172  1.1435
  245MOL0     H33016   3.689   8.234   1.610  0.1078  0.3768 -0.1401
  245MOL0     H33017   3.785   8.137   1.719  0.3838  3.3728 -0.8702
  245MOL0     H33018   3.835   8.162   1.418 -0.2784  1.5324  0.0741
  245MOL0     H33019   3.919   8.238   1.552  1.0881 -0.4372  0.3291
  245MOL0     H33020   3.963   8.014   1.664  1.8797 -0.2725  0.5547
  245MOL0     H33021   3.907   7.938   1.517 -0.3382  2.1397 -3.7907
  245MOL0     H33022   4.129   8.147   1.503  1.9561 -1.0860  1.1364
  245MOL0     H33023   4.063   8.034   1.378 -1.2380 -0.0130  0.2460
  245MOL0     H33024   4.193   7.940   1.646  1.6108 -0.1736  0.2122
  245MOL0     H33025   4.205   7.855   1.498 -2.7467  0.0905  0.8413
  245MOL0     H33026   4.398   7.876   1.352 -0.1784  1.2576 -1.0196
  245MOL0     H33027   4.595   7.956   1.221  1.6306  0.7445 -1.3583
  245MOL0     H33028   4.615   8.128   1.228  0.2221  0.4531 -0.9928
  245MOL0     H33029   4.741   7.931   1.438 -1.0620 -1.4553 -0.7943
  245MOL0     H33030   4.807   7.952   1.280  0.7875 -0.6749  0.5915
  245MOL0     H33031   4.774   8.178   1.489 -3.0065  0.6490 -2.6962
  245MOL0     H33032   4.807   8.225   1.330  3.4054  0.2734 -0.6004
  245MOL0     H33033   5.023   8.110   1.319  3.5329 -3.4201  2.1601
  245MOL0     H33034   5.003   8.038   1.470 -1.1528  0.2180  0.6200
  245MOL0     H33035   5.128   8.458   1.583  1.4676  2.0491  1.7755
  245MOL0     H33036   5.371   8.508   1.620 -0.7298  0.1323  0.4770
  245MOL0     H33037   5.873   8.287   1.322  1.0926 -1.0584 -0.6080
  245MOL0     H33038   6.106   8.257   1.377 -0.1059 -1.5540 -1.1782
  245MOL0     H33039   6.226   8.236   1.813  2.2959  1.2673 -0.5247
  245MOL0     H33040   6.171   8.070   1.759 -0.4402 -0.5625 -3.4547
  245MOL0     H33041   6.396   8.013   1.703 -0.9475  0.2167 -0.9411
  245MOL0     H33042   6.445   8.180   1.685 -0.4641 -0.9028 -0.7901
  245MOL0     H33043   6.430   8.218   1.918 -1.6585 -0.3151  2.4595
  245MOL0     H33044   6.369   8.049   1.949  3.0165 -2.2241  0.9176
  245MOL0     H33045   6.640   8.086   1.832 -1.9624  1.7652 -1.3678
  245MOL0     H33046   6.559   7.934   1.884 -3.6709  0.9426 -3.7618
  245MOL0     H33047   6.549   8.031   2.122 -2.0445  0.4976  0.8702
  245MOL0     H33048   6.631   8.181   2.062  1.3659 -1.2677 -0.2968
  245MOL0     H33049   6.767   7.914   2.033 -2.6003  1.1331 -2.1712
  245MOL0     H33050   6.833   8.078   2.033 -0.6281 -0.5719 -0.6593
  245MOL0     H33051   6.722   7.964   2.291  1.8042  0.1257  2.6270
  245MOL0     H33052   6.789   8.122   2.266 -0.2371 -0.0486  0.6220
  245MOL0     H33053   6.986   8.022   2.177 -1.8577  0.6194 -0.1596
  245MOL0     H33054   6.962   7.982   2.354 -1.6191 -1.4068  0.9547
  245MOL0     H33055   5.996   8.214   1.798 -0.6484 -0.1695  0.5840
  245MOL0     H33056   5.774   8.257   1.749  0.9182  1.9495  1.3152
  245MOL0     H33057   5.470   8.123   1.463 -1.1832 -0.2105 -0.5191
  245MOL0     H33058   5.239   8.077   1.424 -0.6588 -0.1333  0.1083
  245MOL0     H33059   3.098   8.106   1.791  0.8615  1.1208 -1.4492
  245MOL0     H33060   2.874   8.026   1.736  2.0390  2.6369  0.9317
  245MOL0     H33061   2.613   7.888   1.483 -1.8562  0.2194 -0.4012
  245MOL0     H33062   2.379   7.890   1.412 -2.1277 -0.8147  0.2929
  245MOL0     H33063   2.101   7.619   1.613 -2.7822 -2.9655 -0.6548
  245MOL0     H33064   2.002   7.681   1.494  0.3174 -0.9954  0.6980
  245MOL0     H33065   1.967   7.889   1.654  1.0493  1.2822  2.0828
  245MOL0     H33066   2.070   7.811   1.764 -0.2426  1.1445 -1.0779
  245MOL0     H33067   1.821   7.684   1.676  2.3201  0.2433 -2.1942
  245MOL0     H33068   1.828   7.782   1.821 -0.2971  0.3210 -1.6888
  245MOL0     H33069   2.007   7.632   1.930  1.7110 -2.5187 -1.4042
  245MOL0     H33070   1.843   7.580   1.914  0.3964 -1.4486 -0.4958
  245MOL0     H33071   1.962   7.284   1.681  2.5142 -0.2246  0.7687
  245MOL0     H33072   2.242   7.705   1.766 -1.0744 -1.5827 -1.8168
  245MOL0     H33073   2.378   7.642   1.915  0.3158 -2.0415 -1.4492
  245MOL0     H33074   2.550   7.593   1.904 -0.5662 -0.6511  0.2594
  245MOL0     H33075   2.501   7.762   1.947 -1.4953  2.2574 -2.4799
  246MOL0     O33076   4.814   4.202   0.127 -0.0553 -0.0363 -0.3970
  246MOL0     C33077   4.755   4.283   0.199  0.0496  0.7298  0.5275
  246MOL0     O33078   4.812   4.399   0.238  0.1755 -0.0872 -1.5119
  246MOL0     C33079   4.908   4.467   0.181  0.1184  0.2966 -0.5843
  246MOL0     C33080   4.886   4.600   0.190 -0.1228 -1.0719 -0.3022
  246MOL0     C33081   4.992   4.681   0.144  0.3776 -1.0354 -0.3517
  246MOL0     C33082   5.111   4.634   0.090  0.3324  0.5777 -0.0046
  246MOL0     O33083   5.214   4.718   0.074  1.0863 -0.6394 -0.4730
  246MOL0     C33084   5.192   4.834  -0.016  1.0199  0.5993 -0.0805
  246MOL0     C33085   5.157   4.971   0.056 -0.2291  1.0277 -0.0141
  246MOL0     C33086   5.184   5.086  -0.036  0.0974 -0.0220  0.0275
  246MOL0     C33087   5.331   5.116  -0.062 -0.7511  0.5187  0.0275
  246MOL0     C33088   5.350   5.225  -0.165 -0.6806  0.2472 -0.2690
  246MOL0     C33089   5.498   5.249  -0.219  0.5009 -0.3395  0.9804
  246MOL0     C33090   5.599   5.226  -0.106 -1.2532 -0.5076 -0.3674
  246MOL0     C33091   5.739   5.255  -0.174  0.1432 -0.6335  0.7208
  246MOL0     N33092   5.800   5.134  -0.229 -0.8510  0.6618 -0.4446
  246MOL0     C33093   5.833   5.014  -0.167  0.3328 -0.5540  0.0444
  246MOL0     C33094   5.857   4.924  -0.257 -0.4456  0.6729  0.1155
  246MOL0     C33095   5.893   4.777  -0.236 -0.1339  0.2235  0.5717
  246MOL0     C33096   6.053   4.757  -0.250 -0.3527 -0.6886 -0.1125
  246MOL0     C33097   6.105   4.619  -0.202  2.1579 -0.1820  0.9226
  246MOL0     C33098   6.250   4.601  -0.173  0.0176  0.0003 -0.3029
  246MOL0     O33099   6.271   4.480  -0.094 -0.5163 -0.2650 -0.1955
  246MOL0     C33100   6.400   4.451  -0.070  0.5315  0.0102 -0.3295
  246MOL0     C33101   6.426   4.307  -0.048  0.3920  0.1039 -0.0162
  246MOL0     C33102   6.554   4.260  -0.028  1.3268  0.5150 -0.1118
  246MOL0     C33103   6.660   4.357  -0.018  0.4681  1.3923 -0.6029
  246MOL0     C33104   6.805   4.302   0.020  0.1214  0.3908 -0.1077
  246MOL0     O33105   6.906   4.395   0.025 -0.3885  0.2284 -0.3797
  246MOL0     C33106   7.018   4.344   0.085 -0.6363  0.5486  0.3340
  246MOL0     C33107   7.024   4.361   0.229 -0.8319 -0.3766  0.8246
  246MOL0     C33108   7.140   4.342   0.308  0.0648  0.6071 -0.1419
  246MOL0     C33109   7.256   4.296   0.246 -0.2613  0.1481  0.6311
  246MOL0     O33110   7.376   4.274   0.310  0.3153  0.5148 -0.0037
  246MOL0     C33111   7.378   4.143   0.369  0.4213 -0.3144 -1.1005
  246MOL0     C33112   7.511   4.106   0.441  0.2239  0.0307 -0.0522
  246MOL0     C33113   7.524   3.960   0.455  0.0719 -0.9544  0.4207
  246MOL0     C33114   7.632   3.904   0.538 -0.4008 -0.0883  0.5299
  246MOL0     C33115   7.635   3.750   0.536 -0.6722  0.5000  0.2198
  246MOL0     C33116   7.521   3.675   0.608 -0.1420  0.0908  0.2779
  246MOL0     C33117   7.509   3.702   0.764  0.3641 -0.3071  0.3922
  246MOL0     C33118   7.647   3.694   0.827  0.5290 -0.2262  0.5480
  246MOL0    Cl33119   7.640   3.676   1.011 -0.0110 -0.1151 -0.0136
  246MOL0     C33120   7.246   4.260   0.111 -0.1361  0.1546  0.9059
  246MOL0     C33121   7.136   4.280   0.024  0.3486  0.0141 -0.1284
  246MOL0     O33122   6.806   4.177   0.053 -0.0576  0.0926  0.0789
  246MOL0     C33123   6.634   4.490  -0.043 -0.3277 -0.4041 -1.0141
  246MOL0     C33124   6.509   4.539  -0.066 -1.4701  0.2353  0.9520
  246MOL0     N33125   5.836   4.985  -0.377 -0.2811  1.4391 -0.4207
  246MOL0     N33126   5.808   5.115  -0.361 -0.2318 -0.1529  0.6530
  246MOL0     C33127   5.124   4.494   0.086 -0.5163 -0.5667 -1.1078
  246MOL0     C33128   5.026   4.410   0.128 -0.2690  0.3726 -0.6030
  246MOL0     C33129   4.613   4.263   0.237 -0.0190 -0.4943  0.1089
  246MOL0     C33130   4.552   4.360   0.319  0.0955  1.0624 -0.2233
  246MOL0     C33131   4.414   4.345   0.351  0.3439 -0.5835  0.1595
  246MOL0     C33132   4.337   4.232   0.305  1.1152  0.4543  0.5821
  246MOL0     O33133   4.205   4.242   0.339 -0.1497  0.3011  0.3199
  246MOL0     C33134   4.126   4.122   0.331  0.2601  1.1118  0.2721
  246MOL0     C33135   3.992   4.152   0.395  0.8739 -0.0322  1.0036
  246MOL0     C33136   3.873   4.064   0.356 -0.2576  0.1634  0.1396
  246MOL0     C33137   3.777   4.059   0.464 -0.1618 -0.7721 -0.8182
  246MOL0     C33138   3.652   3.996   0.415 -0.3005  0.5348  1.1903
  246MOL0     C33139   3.543   3.945   0.399  0.1156  0.8723 -0.0154
  246MOL0     C33140   4.400   4.142   0.214  0.8971  0.5676  0.0176
  246MOL0     C33141   4.531   4.156   0.184  0.2945 -1.7185  0.1834
  246MOL0     C33142   4.590   4.031   0.116 -0.0481 -0.1099 -0.2651
  246MOL0     H33143   4.793   4.645   0.223 -0.0197 -0.7387 -0.4670
  246MOL0     H33144   4.980   4.788   0.158  1.7820 -1.0626  1.4302
  246MOL0     H33145   5.288   4.857  -0.065 -0.3652  1.8438 -2.3915
  246MOL0     H33146   5.122   4.805  -0.095  4.9431 -2.7234 -2.7929
  246MOL0     H33147   5.214   4.971   0.149 -3.1453 -2.3698  2.0684
  246MOL0     H33148   5.056   4.972   0.097  0.5169 -0.3402  2.0223
  246MOL0     H33149   5.155   5.180   0.012  2.9078  1.4344 -0.9257
  246MOL0     H33150   5.125   5.083  -0.128 -0.9706  1.1614  0.6335
  246MOL0     H33151   5.374   5.156   0.030 -1.2364  2.7920 -0.6531
  246MOL0     H33152   5.376   5.028  -0.109 -4.2155 -1.7043  0.4980
  246MOL0     H33153   5.299   5.200  -0.258  1.7984 -2.0525 -1.1409
  246MOL0     H33154   5.315   5.322  -0.128 -0.0457  1.0264 -1.6258
  246MOL0     H33155   5.511   5.170  -0.294  0.2777  1.1810 -0.7450
  246MOL0     H33156   5.495   5.343  -0.274 -0.8333 -0.9320 -0.0184
  246MOL0     H33157   5.603   5.122  -0.072  0.5694 -1.4076 -2.9779
  246MOL0     H33158   5.576   5.289  -0.020 -0.7707 -0.5571 -0.1939
  246MOL0     H33159   5.724   5.334  -0.249 -2.0617 -2.5348 -1.0127
  246MOL0     H33160   5.814   5.288  -0.102  0.3412  1.8065 -0.4971
  246MOL0     H33161   5.834   4.996  -0.060  3.9234  2.2619  0.6801
  246MOL0     H33162   5.862   4.750  -0.135 -0.8732  2.7989  1.1119
  246MOL0     H33163   5.830   4.718  -0.303 -0.9807  1.2214  0.4710
  246MOL0     H33164   6.087   4.785  -0.351 -3.6377  0.2967 -1.0867
  246MOL0     H33165   6.096   4.831  -0.182  4.9751 -1.0369 -2.5611
  246MOL0     H33166   6.067   4.546  -0.274 -3.1783  1.8886  1.1801
  246MOL0     H33167   6.053   4.585  -0.112  2.0470  0.9042  1.2775
  246MOL0     H33168   6.289   4.684  -0.114 -0.6548  1.5606 -1.9651
  246MOL0     H33169   6.304   4.609  -0.267 -1.2665  4.7524 -0.8631
  246MOL0     H33170   6.354   4.227  -0.062  2.1455 -1.4915 -0.3202
  246MOL0     H33171   6.565   4.153  -0.012  0.5398  0.5403  0.6752
  246MOL0     H33172   6.931   4.399   0.270 -0.2995  0.0802  1.6226
  246MOL0     H33173   7.132   4.377   0.411  1.7874 -0.3875  0.3603
  246MOL0     H33174   7.293   4.120   0.433  0.5969 -1.2732 -1.1987
  246MOL0     H33175   7.375   4.068   0.289  0.5443 -0.3617 -1.0621
  246MOL0     H33176   7.592   4.145   0.379 -1.7893  3.5266 -0.7872
  246MOL0     H33177   7.514   4.151   0.541  0.1748  0.7271 -0.3554
  246MOL0     H33178   7.434   3.921   0.504 -0.5366  0.6787  0.6506
  246MOL0     H33179   7.546   3.920   0.355  4.0410 -4.8649  2.5029
  246MOL0     H33180   7.616   3.945   0.638 -1.3203  0.7285  0.0664
  246MOL0     H33181   7.726   3.943   0.499 -0.1192 -0.7792  0.5056
  246MOL0     H33182   7.732   3.719   0.578 -0.5229 -0.0800 -0.5365
  246MOL0     H33183   7.640   3.717   0.432  1.1673 -2.1166  1.0096
  246MOL0     H33184   7.424   3.692   0.560 -0.1238  0.0938  0.2418
  246MOL0     H33185   7.535   3.567   0.603 -1.3661 -0.0438 -1.1459
  246MOL0     H33186   7.464   3.614   0.811 -0.4277  1.0588  2.3143
  246MOL0     H33187   7.452   3.792   0.787  1.3669  0.7577 -1.0590
  246MOL0     H33188   7.694   3.609   0.776 -0.8731  0.8633 -2.8668
  246MOL0     H33189   7.695   3.790   0.810  1.8414 -0.8330  0.7317
  246MOL0     H33190   7.333   4.253   0.046 -1.3887  1.9470 -1.0961
  246MOL0     H33191   7.137   4.285  -0.084  1.9131 -2.8552 -0.3339
  246MOL0     H33192   6.720   4.556  -0.042 -0.1738 -0.6050 -0.7082
  246MOL0     H33193   6.501   4.645  -0.088  1.5530  0.3727 -0.0185
  246MOL0     H33194   5.224   4.462   0.058 -0.1466 -1.8179  1.2772
  246MOL0     H33195   5.039   4.303   0.124  3.8138  0.7293 -0.8174
  246MOL0     H33196   4.607   4.450   0.341  1.6268  0.4247 -1.2952
  246MOL0     H33197   4.365   4.427   0.403  0.6865 -0.6810  0.6483
  246MOL0     H33198   4.183   4.042   0.378  0.8996  0.5804 -1.3197
  246MOL0     H33199   4.114   4.092   0.226  0.4817  0.5948  0.3953
  246MOL0     H33200   3.960   4.248   0.353  3.1367 -0.5556 -2.3219
  246MOL0     H33201   4.001   4.153   0.504  3.2660  2.9277  0.9266
  246MOL0     H33202   3.900   3.962   0.328 -0.6950 -0.2626  1.2301
  246MOL0     H33203   3.834   4.099   0.260  0.0140  1.9521  0.6452
  246MOL0     H33204   3.813   4.005   0.552 -1.7594 -0.4295  0.0739
  246MOL0     H33205   3.755   4.160   0.497  1.6959 -0.3141 -0.8549
  246MOL0     H33206   3.452   3.890   0.383  0.7883  0.1880 -1.7866
  246MOL0     H33207   4.334   4.070   0.166  0.6558  1.1916 -0.6106
  246MOL0     H33208   4.514   3.953   0.114 -0.9482  0.7599 -1.7113
  246MOL0     H33209   4.625   4.057   0.016 -0.6620  2.2047  0.0764
  246MOL0     H33210   4.675   3.990   0.172 -1.6859 -1.2516  1.4681
  247MOL0     O33211   1.502   2.540   5.344 -0.0153  1.2521  0.1997
  247MOL0     C33212   1.458   2.619   5.255  0.2734  0.5412  0.4644
  247MOL0     O33213   1.540   2.703   5.180  0.1742 -0.1524  0.1977
  247MOL0     C33214   1.668   2.727   5.209 -0.1980 -0.1550  0.0915
  247MOL0     C33215   1.757   2.758   5.099 -0.1228  0.2561  0.0140
  247MOL0     C33216   1.890   2.777   5.117  0.7330  0.1342 -0.4235
  247MOL0     C33217   1.948   2.783   5.242 -1.0471 -0.1940  0.1289
  247MOL0     O33218   2.083   2.818   5.261 -0.2295  0.2963  0.0560
  247MOL0     C33219   2.169   2.833   5.140  0.3211  0.0321  1.4178
  247MOL0     C33220   2.309   2.773   5.158 -0.3219  0.4409  0.0478
  247MOL0     C33221   2.400   2.853   5.251  0.1166  0.2779 -0.4289
  247MOL0     C33222   2.451   2.777   5.386  0.6723 -0.0303  0.0570
  247MOL0     C33223   2.545   2.853   5.479 -0.3529 -0.8023 -0.9428
  247MOL0     C33224   2.680   2.893   5.410  1.2035  0.1924  0.4311
  247MOL0     C33225   2.776   2.954   5.508  0.7008 -0.0256 -0.4738
  247MOL0     C33226   2.756   3.108   5.547 -0.0870 -0.4298  0.5864
  247MOL0     N33227   2.650   3.132   5.647  0.1971 -0.2304  0.2945
  247MOL0     C33228   2.645   3.072   5.772  0.1784 -0.0887 -0.4129
  247MOL0     C33229   2.520   3.097   5.814 -0.2149  0.0830  1.2201
  247MOL0     C33230   2.452   3.051   5.938  0.3697 -0.1375 -0.1564
  247MOL0     C33231   2.347   2.940   5.913  0.8913  0.3926 -0.2720
  247MOL0     C33232   2.275   2.921   6.047 -0.8680 -0.4700 -0.5743
  247MOL0     C33233   2.139   2.850   6.056 -0.4370 -0.2692 -0.2174
  247MOL0     O33234   2.115   2.783   6.180 -0.2140  0.1930  0.5122
  247MOL0     C33235   2.189   2.673   6.219  0.1179  0.9375  0.1933
  247MOL0     C33236   2.241   2.589   6.115 -0.2701  0.3960 -0.3717
  247MOL0     C33237   2.324   2.483   6.140 -0.6118  0.3034 -0.0384
  247MOL0     C33238   2.360   2.462   6.272 -0.9800  0.2997 -0.1128
  247MOL0     C33239   2.451   2.348   6.304 -0.7786  0.1836  0.9511
  247MOL0     O33240   2.489   2.254   6.208  0.2207  0.1473  0.1846
  247MOL0     C33241   2.535   2.129   6.246  0.5055  0.3193  0.2730
  247MOL0     C33242   2.654   2.116   6.321 -0.7100  0.4225 -0.4699
  247MOL0     C33243   2.698   1.982   6.354  0.4785 -0.5605 -0.1589
  247MOL0     C33244   2.616   1.873   6.323  0.5719 -0.0001 -0.7091
  247MOL0     O33245   2.641   1.752   6.384 -0.7508  0.5522 -0.2967
  247MOL0     C33246   2.646   1.643   6.301  0.3225 -0.1880 -0.0322
  247MOL0     C33247   2.784   1.645   6.225 -0.2541  0.3964  0.2341
  247MOL0     C33248   2.797   1.533   6.117 -0.1068  0.0016  0.2711
  247MOL0     C33249   2.855   1.394   6.175 -0.2979 -0.5637 -1.4150
  247MOL0     C33250   2.876   1.293   6.056  0.0447  0.5032 -0.1384
  247MOL0     C33251   3.022   1.282   5.989 -0.8484  0.3159  0.2585
  247MOL0     C33252   2.998   1.201   5.854 -0.0344  0.2221 -0.1046
  247MOL0     C33253   3.124   1.193   5.762 -0.2389 -0.1166 -0.1084
  247MOL0    Cl33254   3.077   1.144   5.604  0.3632  0.1045 -0.2082
  247MOL0     C33255   2.505   1.888   6.237  0.0678 -0.4062 -0.0000
  247MOL0     C33256   2.469   2.016   6.191 -0.2001  1.1233  0.5192
  247MOL0     O33257   2.518   2.358   6.410 -1.1301 -0.8691 -0.0908
  247MOL0     C33258   2.317   2.548   6.377  1.5586 -1.1764  0.2308
  247MOL0     C33259   2.214   2.643   6.353  0.6058 -0.0587 -0.2684
  247MOL0     N33260   2.468   3.190   5.716  0.1080  0.4634  0.4700
  247MOL0     N33261   2.544   3.200   5.615 -0.0328 -0.0021 -0.2399
  247MOL0     C33262   1.860   2.773   5.355  0.2685  0.3716  0.6344
  247MOL0     C33263   1.718   2.745   5.346  0.2477  0.8010 -0.2152
  247MOL0     C33264   1.306   2.609   5.225 -0.1835 -0.3661 -0.8317
  247MOL0     C33265   1.264   2.675   5.105 -0.0132 -0.5808  0.0877
  247MOL0     C33266   1.132   2.673   5.061 -0.3592 -0.9488 -0.5926
  247MOL0     C33267   1.032   2.611   5.138 -0.8313 -0.0289 -0.0486
  247MOL0     O33268   0.901   2.597   5.103  0.2327  0.1496 -0.1441
  247MOL0     C33269   0.856   2.656   4.977 -0.7229  0.5276 -0.5773
  247MOL0     C33270   0.725   2.604   4.931  0.0734  0.7117  0.5887
  247MOL0     C33271   0.609   2.616   5.027  0.1724 -0.3533  0.4262
  247MOL0     C33272   0.596   2.499   5.125 -0.4517 -0.4217  0.3902
  247MOL0     C33273   0.478   2.492   5.213  0.1590  0.1665 -0.5818
  247MOL0     C33274   0.370   2.481   5.274  0.0380  0.4413  0.3539
  247MOL0     C33275   1.069   2.537   5.248  0.0354  0.2083 -1.3172
  247MOL0     C33276   1.203   2.543   5.302 -0.4819  0.7915  0.2277
  247MOL0     C33277   1.236   2.453   5.412 -0.0335  0.0126  0.1751
  247MOL0     H33278   1.717   2.755   4.999 -2.6027  2.3819  0.8253
  247MOL0     H33279   1.943   2.799   5.025  2.1830 -2.0899 -0.1862
  247MOL0     H33280   2.124   2.789   5.051  0.2796  2.4110  0.1681
  247MOL0     H33281   2.179   2.939   5.113 -2.0701  0.6210  2.5813
  247MOL0     H33282   2.357   2.729   5.070 -0.6852 -0.7981  0.4487
  247MOL0     H33283   2.290   2.689   5.225  1.1660 -0.3408 -0.4600
  247MOL0     H33284   2.345   2.943   5.279 -1.3043  1.2892 -5.5007
  247MOL0     H33285   2.491   2.869   5.192 -1.2781  1.2175 -2.4330
  247MOL0     H33286   2.369   2.752   5.455  2.0820  1.4465  2.3999
  247MOL0     H33287   2.491   2.688   5.337  0.1922  1.7323 -3.9554
  247MOL0     H33288   2.506   2.950   5.511  1.7422  0.2966 -1.5001
  247MOL0     H33289   2.555   2.792   5.569  4.4239  0.1263 -0.5609
  247MOL0     H33290   2.728   2.809   5.358  1.6826  0.6686  0.0901
  247MOL0     H33291   2.660   2.971   5.336  0.7013 -0.7773 -0.4865
  247MOL0     H33292   2.880   2.949   5.474  1.1576 -0.0976  0.8620
  247MOL0     H33293   2.776   2.887   5.594 -0.3063 -0.7906 -1.0511
  247MOL0     H33294   2.843   3.149   5.598 -1.2107  0.4647  1.8488
  247MOL0     H33295   2.739   3.164   5.454  1.5219 -0.4432  0.2656
  247MOL0     H33296   2.713   3.013   5.833  0.5227  3.5190  3.1482
  247MOL0     H33297   2.532   3.004   5.997 -1.4119 -2.1910  0.7446
  247MOL0     H33298   2.399   3.132   5.988 -3.3505 -0.6874 -2.8393
  247MOL0     H33299   2.284   2.979   5.832 -0.5546  0.0147  0.6298
  247MOL0     H33300   2.400   2.852   5.876 -0.4336 -0.2539 -0.7055
  247MOL0     H33301   2.274   3.020   6.094  4.7592 -1.2770  2.0380
  247MOL0     H33302   2.332   2.855   6.112 -0.7939  0.9656  0.8689
  247MOL0     H33303   2.117   2.784   5.972 -0.1578 -0.3050 -0.2632
  247MOL0     H33304   2.062   2.927   6.054 -1.0459 -0.8679 -0.4428
  247MOL0     H33305   2.224   2.598   6.008  0.7212 -0.6733 -0.6349
  247MOL0     H33306   2.367   2.414   6.068  0.0137 -0.6090  1.1698
  247MOL0     H33307   2.710   2.202   6.356 -0.1987 -0.7294  1.7533
  247MOL0     H33308   2.775   1.977   6.431  0.5953 -0.1717 -0.2488
  247MOL0     H33309   2.632   1.551   6.357 -2.3883  1.3626  2.0973
  247MOL0     H33310   2.570   1.650   6.224 -1.5290  2.4423  1.8445
  247MOL0     H33311   2.794   1.733   6.162 -0.0481 -0.6951 -1.3277
  247MOL0     H33312   2.866   1.644   6.297 -1.5819  0.9863  1.8154
  247MOL0     H33313   2.701   1.531   6.065  0.0901 -1.0080 -0.0572
  247MOL0     H33314   2.864   1.576   6.042 -0.8628  4.1198  1.6853
  247MOL0     H33315   2.797   1.355   6.259  0.7837 -0.8205 -0.7637
  247MOL0     H33316   2.955   1.418   6.214 -1.1781 -2.1570  2.3025
  247MOL0     H33317   2.789   1.305   5.991 -0.9227  1.5665  1.2811
  247MOL0     H33318   2.852   1.196   6.101 -1.4230 -0.2324 -2.3689
  247MOL0     H33319   3.055   1.385   5.974  1.4926 -0.6494 -2.1027
  247MOL0     H33320   3.106   1.235   6.042  0.2147 -0.9263 -2.3531
  247MOL0     H33321   2.915   1.244   5.796  1.5170  2.2512 -0.9587
  247MOL0     H33322   2.974   1.098   5.882  0.8479  0.5947  2.2565
  247MOL0     H33323   3.154   1.297   5.743  1.6117 -0.6586 -0.2985
  247MOL0     H33324   3.208   1.135   5.799  0.7438 -0.7893 -3.1235
  247MOL0     H33325   2.439   1.809   6.203 -0.4951 -0.1658  0.5323
  247MOL0     H33326   2.386   2.020   6.122 -0.3525 -1.1549  0.4931
  247MOL0     H33327   2.362   2.524   6.473  0.8380 -0.7874  0.6744
  247MOL0     H33328   2.166   2.701   6.431 -1.2769  1.6956 -2.5939
  247MOL0     H33329   1.908   2.767   5.452  3.7214 -0.7309 -0.9750
  247MOL0     H33330   1.670   2.729   5.443 -1.3240  0.4789 -1.0136
  247MOL0     H33331   1.326   2.724   5.031  2.8801 -0.1535  2.5893
  247MOL0     H33332   1.108   2.736   4.976 -1.6530  1.0357  1.1239
  247MOL0     H33333   0.944   2.645   4.913  1.8212 -2.1150  2.9525
  247MOL0     H33334   0.859   2.764   4.992  2.7326  0.7632 -1.9078
  247MOL0     H33335   0.730   2.497   4.907 -2.6494  0.0389  2.5091
  247MOL0     H33336   0.694   2.662   4.843  0.7024 -1.1122 -0.9104
  247MOL0     H33337   0.518   2.616   4.965  1.2938  0.2835 -1.2803
  247MOL0     H33338   0.610   2.712   5.078 -3.4159  1.1084 -1.8200
  247MOL0     H33339   0.594   2.410   5.061  0.0659  0.7387 -1.3268
  247MOL0     H33340   0.680   2.492   5.194 -1.0973  0.0030  1.2438
  247MOL0     H33341   0.275   2.475   5.324  0.6946  1.7212  1.8481
  247MOL0     H33342   0.992   2.485   5.304  0.1425  0.0327 -1.3344
  247MOL0     H33343   1.319   2.498   5.468 -0.2874 -3.6321  4.0369
  247MOL0     H33344   1.154   2.433   5.482 -1.3501  1.0258 -1.0246
  247MOL0     H33345   1.261   2.353   5.376  1.7107 -0.4451  2.3990
  248MOL0     O33346   3.529   8.008   9.578 -0.1762  0.5482 -0.3306
  248MOL0     C33347   3.646   7.973   9.540 -0.2150 -0.2613 -0.8139
  248MOL0     O33348   3.687   7.848   9.534  0.8721  0.3758 -0.5891
  248MOL0     C33349   3.588   7.749   9.549 -0.7138  0.3349 -0.1939
  248MOL0     C33350   3.507   7.735   9.661 -0.4512  1.2015  0.0490
  248MOL0     C33351   3.404   7.639   9.672  0.0329  1.2146 -0.7478
  248MOL0     C33352   3.381   7.544   9.566 -0.5316 -1.3694  0.9519
  248MOL0     O33353   3.264   7.465   9.559  0.4032  0.2114  0.2828
  248MOL0     C33354   3.218   7.384   9.665  0.2004 -0.5743  0.0913
  248MOL0     C33355   3.118   7.285   9.607 -0.0043 -0.1264 -0.4036
  248MOL0     C33356   3.033   7.188   9.701  0.5510  0.6044 -0.0636
  248MOL0     C33357   2.880   7.206   9.661  0.0486 -0.1708 -1.2032
  248MOL0     C33358   2.782   7.144   9.758 -0.2819  0.7357  0.3769
  248MOL0     C33359   2.636   7.157   9.698  0.0847  0.0480 -0.3259
  248MOL0     C33360   2.548   7.142   9.817  0.2889  0.7483 -1.5869
  248MOL0     C33361   2.396   7.139   9.792  0.4114  0.5955  1.0021
  248MOL0     N33362   2.347   7.265   9.732  0.0747  0.2203 -0.8469
  248MOL0     C33363   2.304   7.376   9.806 -0.1088 -0.4101 -0.5239
  248MOL0     C33364   2.306   7.478   9.716  0.3882  0.8528 -1.2091
  248MOL0     C33365   2.277   7.622   9.766  0.5135  1.0040 -0.1444
  248MOL0     C33366   2.141   7.689   9.755 -0.2294  0.4485  0.0835
  248MOL0     C33367   2.097   7.681   9.603 -0.1971 -0.9220 -0.1269
  248MOL0     C33368   1.983   7.770   9.588  0.8153  0.0737 -0.3057
  248MOL0     O33369   1.853   7.725   9.638 -0.0621 -0.3429  0.8246
  248MOL0     C33370   1.749   7.738   9.553 -0.3180  0.4446 -0.1775
  248MOL0     C33371   1.737   7.677   9.426 -0.1046  0.2864  0.3583
  248MOL0     C33372   1.630   7.715   9.350 -0.2761  0.3924 -0.3410
  248MOL0     C33373   1.535   7.812   9.389  0.0579  0.5975  0.3309
  248MOL0     C33374   1.433   7.842   9.288  0.2154 -0.9464 -0.3583
  248MOL0     O33375   1.378   7.962   9.300 -0.4252 -0.2009  0.5501
  248MOL0     C33376   1.340   8.034   9.190 -0.1625 -0.7634  0.0777
  248MOL0     C33377   1.230   8.117   9.200 -0.2872 -0.4909 -0.5512
  248MOL0     C33378   1.178   8.202   9.089 -0.8188 -0.3206 -0.2513
  248MOL0     C33379   1.245   8.195   8.966 -0.2627  0.9295 -0.3769
  248MOL0     O33380   1.202   8.254   8.854  0.5823  0.6390  1.0190
  248MOL0     C33381   1.056   8.234   8.826 -0.4728  0.4997  0.0111
  248MOL0     C33382   1.012   8.321   8.705  0.3011 -0.3104  0.3757
  248MOL0     C33383   1.042   8.475   8.733 -1.4208  0.2214 -0.1195
  248MOL0     C33384   1.049   8.534   8.883  0.1135  0.9960 -0.3522
  248MOL0     C33385   1.052   8.693   8.868  0.5808 -0.6442 -0.2012
  248MOL0     C33386   1.094   8.759   9.004  0.5512 -0.3930  0.6167
  248MOL0     C33387   0.980   8.754   9.105 -0.6674 -0.1098  0.4083
  248MOL0     C33388   1.043   8.799   9.240  0.3413  0.4928 -0.7793
  248MOL0    Cl33389   0.919   8.801   9.376 -0.1822  0.3675  0.5304
  248MOL0     C33390   1.366   8.110   8.954 -0.0528 -0.1742  0.3033
  248MOL0     C33391   1.412   8.041   9.066  1.1500  0.9410 -0.5745
  248MOL0     O33392   1.404   7.768   9.193 -0.8146 -0.1826  0.3945
  248MOL0     C33393   1.545   7.873   9.514  0.4680  0.6014  0.7265
  248MOL0     C33394   1.656   7.834   9.591 -0.5263  0.7482  0.1908
  248MOL0     N33395   2.335   7.428   9.588 -0.3294 -0.3821 -0.7590
  248MOL0     N33396   2.361   7.298   9.602  0.5593  0.0965 -0.7697
  248MOL0     C33397   3.462   7.569   9.449 -0.2537 -0.5686 -0.2896
  248MOL0     C33398   3.567   7.663   9.444  1.1730  0.8714 -0.1190
  248MOL0     C33399   3.749   8.076   9.519  0.3894 -0.8360 -0.8026
  248MOL0     C33400   3.870   8.043   9.441  0.6784  0.6920 -0.6340
  248MOL0     C33401   3.955   8.152   9.408 -0.0040  0.1589 -0.0556
  248MOL0     C33402   3.951   8.273   9.464  0.5620 -0.7298 -1.2291
  248MOL0     O33403   4.038   8.379   9.451 -0.0126  0.2253 -1.0485
  248MOL0     C33404   4.161   8.355   9.381 -0.7023 -0.3755  0.5156
  248MOL0     C33405   4.219   8.496   9.344  0.5589  0.0151  0.0627
  248MOL0     C33406   4.360   8.473   9.315 -0.5224 -1.2029 -0.1882
  248MOL0     C33407   4.436   8.612   9.274 -0.0739 -0.1318  0.0265
  248MOL0     C33408   4.576   8.574   9.240 -0.2428 -1.0844 -0.3191
  248MOL0     C33409   4.679   8.542   9.191  0.2769 -0.4206 -1.3751
  248MOL0     C33410   3.848   8.296   9.546 -0.7070 -0.5226 -0.1715
  248MOL0     C33411   3.741   8.218   9.571  0.6919  0.5061  0.0743
  248MOL0     C33412   3.623   8.268   9.660  0.0507 -0.2828 -0.2277
  248MOL0     H33413   3.517   7.813   9.736  0.3210  1.9766 -0.8203
  248MOL0     H33414   3.334   7.631   9.755  1.5858 -1.9914  0.4483
  248MOL0     H33415   3.297   7.317   9.702 -1.1726 -2.2681  0.0980
  248MOL0     H33416   3.168   7.429   9.750 -3.7096 -4.6156  0.3407
  248MOL0     H33417   3.155   7.236   9.516  1.4521  0.0215  0.0665
  248MOL0     H33418   3.041   7.338   9.550 -0.2321 -0.9996 -0.9383
  248MOL0     H33419   3.053   7.215   9.805  0.3876 -0.1805  0.1766
  248MOL0     H33420   3.057   7.083   9.687  3.1994  1.1356  0.0302
  248MOL0     H33421   2.864   7.314   9.652  1.4434  0.6519  3.4247
  248MOL0     H33422   2.862   7.155   9.566  2.6193 -1.9157 -0.8354
  248MOL0     H33423   2.822   7.049   9.794  0.3611  0.8710  0.0423
  248MOL0     H33424   2.799   7.206   9.847 -0.6135 -0.3201  1.1896
  248MOL0     H33425   2.614   7.254   9.654 -1.2161  0.3452  0.8999
  248MOL0     H33426   2.627   7.078   9.623 -2.5215 -0.9536  0.9360
  248MOL0     H33427   2.568   7.221   9.890 -2.4632  1.5154 -1.5644
  248MOL0     H33428   2.577   7.045   9.860  2.0541  2.1301  0.6067
  248MOL0     H33429   2.375   7.065   9.715 -0.3707  1.0322  0.7761
  248MOL0     H33430   2.340   7.108   9.881  1.4102 -1.4390  0.9744
  248MOL0     H33431   2.282   7.382   9.912  1.0322 -3.1566 -0.0228
  248MOL0     H33432   2.304   7.624   9.871  1.9483  3.7662 -0.4684
  248MOL0     H33433   2.342   7.697   9.719  1.3944 -0.2157 -0.9239
  248MOL0     H33434   2.067   7.643   9.821 -1.8036  2.9661  0.2169
  248MOL0     H33435   2.148   7.791   9.794 -0.7685  1.2990 -1.9064
  248MOL0     H33436   2.058   7.582   9.576 -0.6214 -1.8158  3.2862
  248MOL0     H33437   2.181   7.707   9.538 -1.0549 -0.6344 -1.1431
  248MOL0     H33438   1.988   7.783   9.479  0.2482  0.7746 -0.2523
  248MOL0     H33439   1.988   7.869   9.635 -3.0053 -0.4210  1.5175
  248MOL0     H33440   1.811   7.601   9.402 -2.7239 -1.6568 -2.2295
  248MOL0     H33441   1.623   7.652   9.261  2.8170 -0.5599 -0.0295
  248MOL0     H33442   1.177   8.111   9.295  1.8403 -1.1306  0.6534
  248MOL0     H33443   1.108   8.281   9.114  2.8461  2.9908  0.4355
  248MOL0     H33444   1.033   8.128   8.817  1.5770 -0.1098  1.3054
  248MOL0     H33445   0.999   8.259   8.916  1.1226  1.0675  0.9073
  248MOL0     H33446   1.060   8.296   8.610 -1.4096 -1.3355 -0.2703
  248MOL0     H33447   0.906   8.296   8.689  0.6614 -0.6014 -1.8668
  248MOL0     H33448   1.126   8.506   8.670 -1.5652  0.0157 -0.4193
  248MOL0     H33449   0.955   8.521   8.685  1.1148  2.5547 -2.8816
  248MOL0     H33450   1.140   8.498   8.931 -0.6552  1.5455  1.6033
  248MOL0     H33451   0.960   8.492   8.932 -0.1824 -2.4130 -3.3715
  248MOL0     H33452   0.957   8.738   8.840  0.3002 -1.0098  0.1480
  248MOL0     H33453   1.128   8.724   8.795 -0.4937  2.2994 -0.1695
  248MOL0     H33454   1.192   8.719   9.031 -0.1171 -2.3552  0.3186
  248MOL0     H33455   1.113   8.864   8.982  0.2054 -0.5990 -0.7730
  248MOL0     H33456   0.940   8.653   9.110  0.8614 -0.8381 -1.0963
  248MOL0     H33457   0.905   8.825   9.069  0.2326 -0.1635 -1.7491
  248MOL0     H33458   1.114   8.721   9.267  1.3813  1.5278 -0.4162
  248MOL0     H33459   1.101   8.892   9.233  1.5356 -0.2478 -1.0181
  248MOL0     H33460   1.417   8.114   8.858  1.1704 -0.4199  0.9298
  248MOL0     H33461   1.498   7.976   9.059  0.3273 -0.4780  1.6345
  248MOL0     H33462   1.466   7.939   9.550  1.6589  1.6010  1.6067
  248MOL0     H33463   1.659   7.888   9.685 -2.6614  3.4637 -1.1393
  248MOL0     H33464   3.450   7.508   9.360  2.9825  1.4524 -2.3326
  248MOL0     H33465   3.620   7.669   9.350 -1.5045 -2.3685 -2.0523
  248MOL0     H33466   3.878   7.938   9.414 -2.4411  0.0052  0.6337
  248MOL0     H33467   4.043   8.119   9.353  2.2984 -1.7137  4.2528
  248MOL0     H33468   4.139   8.315   9.281 -0.5707 -0.8913  0.6933
  248MOL0     H33469   4.233   8.291   9.432 -0.5268  0.5342  1.4359
  248MOL0     H33470   4.219   8.570   9.425 -1.3128 -1.5942  1.6277
  248MOL0     H33471   4.169   8.532   9.253  0.4074 -0.6382 -0.1171
  248MOL0     H33472   4.388   8.395   9.243 -2.8879 -1.1642 -1.2257
  248MOL0     H33473   4.391   8.445   9.417  0.8860 -1.2274 -0.5958
  248MOL0     H33474   4.385   8.664   9.192 -0.8822  1.1039  1.2662
  248MOL0     H33475   4.437   8.689   9.351 -2.1292 -0.1736  0.1514
  248MOL0     H33476   4.771   8.523   9.142  2.9226 -1.2284  3.2681
  248MOL0     H33477   3.837   8.394   9.591 -1.5362 -1.2674  1.3297
  248MOL0     H33478   3.530   8.272   9.603  0.9488 -0.4895 -1.7644
  248MOL0     H33479   3.604   8.188   9.732  1.6808 -1.8162 -1.4181
  248MOL0     H33480   3.650   8.359   9.715  0.1815 -0.1816 -0.4541
  249MOL0     O33481   4.782   9.958   2.755 -0.3935 -0.2888  0.0473
  249MOL0     C33482   4.724   9.884   2.823  1.0903 -0.0229  0.3345
  249MOL0     O33483   4.588   9.848   2.801 -0.3706 -0.1905 -0.0306
  249MOL0     C33484   4.516   9.920   2.715 -0.0627 -0.5657 -0.6050
  249MOL0     C33485   4.522  10.064   2.695  0.6212 -0.3169 -0.4808
  249MOL0     C33486   4.432  10.120   2.600  0.8841 -0.6184 -0.2403
  249MOL0     C33487   4.344  10.046   2.523 -1.3878  0.2253 -1.0822
  249MOL0     O33488   4.263  10.127   2.451  0.5468  0.5013 -0.5832
  249MOL0     C33489   4.131  10.079   2.407 -1.4236 -0.5851  0.8966
  249MOL0     C33490   4.051  10.207   2.378 -0.8302  0.6183 -0.6823
  249MOL0     C33491   4.004  10.278   2.518  0.3706 -0.6996  0.1879
  249MOL0     C33492   3.857  10.244   2.547 -0.2977 -0.0017  0.5246
  249MOL0     C33493   3.858  10.095   2.594 -1.2050 -1.0321 -0.2925
  249MOL0     C33494   3.750  10.049   2.693 -0.8270  0.3199  0.6026
  249MOL0     C33495   3.754   9.893   2.716 -0.1119 -0.3366  0.5594
  249MOL0     C33496   3.642   9.844   2.804 -0.3035  0.8077 -0.4664
  249MOL0     N33497   3.517   9.855   2.730  0.3561  0.3633 -0.2641
  249MOL0     C33498   3.484   9.785   2.615 -0.0475  0.1705  0.2558
  249MOL0     C33499   3.366   9.842   2.575  0.7498 -0.2738  0.8463
  249MOL0     C33500   3.295   9.810   2.446 -0.4280 -0.2679 -0.3451
  249MOL0     C33501   3.149   9.795   2.484  0.7976  0.2452  0.1054
  249MOL0     C33502   3.137   9.668   2.560  0.2134  0.6220  0.9088
  249MOL0     C33503   2.998   9.612   2.535  0.5850  0.1693 -0.9291
  249MOL0     O33504   2.896   9.696   2.586 -0.5692 -0.7598  0.7483
  249MOL0     C33505   2.825   9.757   2.490  0.6188  0.0210 -0.0815
  249MOL0     C33506   2.746   9.690   2.400  0.2059 -0.3696  0.0646
  249MOL0     C33507   2.667   9.763   2.310 -0.7906  0.2938 -0.2087
  249MOL0     C33508   2.663   9.901   2.299 -0.9658 -0.8885  0.5396
  249MOL0     C33509   2.572   9.985   2.211  0.4861 -0.7597 -0.3016
  249MOL0     O33510   2.470   9.912   2.151  0.1774  0.1618  0.6968
  249MOL0     C33511   2.351   9.975   2.102 -0.2167  0.3854 -1.1587
  249MOL0     C33512   2.267  10.052   2.182  0.6085 -0.7608 -0.1987
  249MOL0     C33513   2.147  10.114   2.133  1.3741 -0.2270  0.8161
  249MOL0     C33514   2.115  10.091   1.998 -0.0974  0.2737 -0.2888
  249MOL0     O33515   2.002  10.139   1.938 -0.9218 -0.1989 -0.1369
  249MOL0     C33516   1.875  10.166   2.007 -0.4285 -0.1573  1.0529
  249MOL0     C33517   1.751  10.090   1.956  0.0540  0.4646  0.4931
  249MOL0     C33518   1.617  10.130   2.023 -0.7573  0.0546 -0.8127
  249MOL0     C33519   1.489  10.065   1.960  0.3123  0.3254 -0.1894
  249MOL0     C33520   1.453  10.115   1.813  0.2372  0.2871  0.1912
  249MOL0     C33521   1.293  10.087   1.784  0.6792 -0.8027  0.2113
  249MOL0     C33522   1.245  10.146   1.657 -0.9114  0.2429  0.4522
  249MOL0     C33523   1.096  10.125   1.630 -0.8886  0.7779 -0.2331
  249MOL0    Cl33524   0.983  10.155   1.766  0.0772  0.3250 -0.3785
  249MOL0     C33525   2.202  10.012   1.914 -0.0429  0.5707 -0.3153
  249MOL0     C33526   2.319   9.956   1.971  0.9878  0.1336  0.5553
  249MOL0     O33527   2.566  10.106   2.224 -0.2775  0.7987 -0.2007
  249MOL0     C33528   2.738   9.965   2.399 -0.4493 -0.6340  0.1620
  249MOL0     C33529   2.821   9.897   2.486 -0.0585 -0.7412  0.7265
  249MOL0     N33530   3.340   9.952   2.644 -0.5411  0.4754 -0.5703
  249MOL0     N33531   3.421   9.952   2.748 -0.8021 -0.3096 -0.6515
  249MOL0     C33532   4.357   9.905   2.535  0.2735 -0.6233 -0.1479
  249MOL0     C33533   4.428   9.848   2.638 -0.3264 -1.0274 -0.7781
  249MOL0     C33534   4.787   9.837   2.951 -0.3200  0.6704 -0.3930
  249MOL0     C33535   4.703   9.783   3.050  1.0055  0.5174  0.2156
  249MOL0     C33536   4.745   9.733   3.169 -0.6815  0.7748  0.7002
  249MOL0     C33537   4.876   9.747   3.193 -0.4486 -0.7865 -0.7910
  249MOL0     O33538   4.933   9.719   3.320  0.7101  0.9290  0.1313
  249MOL0     C33539   4.941   9.840   3.399  0.5125 -0.1308  0.8265
  249MOL0     C33540   5.062   9.862   3.482  0.5202  0.3991  0.1155
  249MOL0     C33541   5.187   9.835   3.404  0.4878 -0.8725 -0.5571
  249MOL0     C33542   5.316   9.883   3.488 -0.1410  0.8435  0.0332
  249MOL0     C33543   5.446   9.847   3.423  0.7241  0.6920 -0.4314
  249MOL0     C33544   5.549   9.836   3.358 -1.1346 -0.5523 -0.1894
  249MOL0     C33545   4.968   9.804   3.100 -0.2103  0.0709  0.1823
  249MOL0     C33546   4.929   9.849   2.967  0.3358  0.0807 -0.6092
  249MOL0     C33547   5.028   9.877   2.865 -0.2018  0.3048  0.7086
  249MOL0     H33548   4.577  10.142   2.746 -0.1384  0.4035 -0.7455
  249MOL0     H33549   4.425  10.228   2.595 -1.3637 -0.6773  0.3965
  249MOL0     H33550   4.147  10.026   2.313 -0.8102  2.6667 -0.9867
  249MOL0     H33551   4.090  10.014   2.485  0.3886 -3.4139 -0.3355
  249MOL0     H33552   3.966  10.187   2.313  0.8274  0.4577 -2.9053
  249MOL0     H33553   4.119  10.281   2.334 -0.3193  1.8803  1.9738
  249MOL0     H33554   3.998  10.385   2.499  0.1691 -0.8697 -0.7478
  249MOL0     H33555   4.070  10.243   2.597  0.8823 -3.3358 -1.2790
  249MOL0     H33556   3.811  10.304   2.626  0.1724 -0.0751  0.8583
  249MOL0     H33557   3.792  10.246   2.459 -0.2423 -3.7757  0.2736
  249MOL0     H33558   3.847  10.042   2.500 -1.3409 -0.8651 -0.3712
  249MOL0     H33559   3.955  10.072   2.640 -0.9639  3.2071  1.8151
  249MOL0     H33560   3.761  10.102   2.788 -1.7779 -3.0829  2.7719
  249MOL0     H33561   3.647  10.076   2.668 -0.7541  0.9803  0.9883
  249MOL0     H33562   3.847   9.865   2.765 -0.3020 -1.2583  0.3976
  249MOL0     H33563   3.741   9.840   2.621 -2.8725 -1.5524  1.5174
  249MOL0     H33564   3.659   9.741   2.837  0.9225  0.9850 -0.5079
  249MOL0     H33565   3.619   9.899   2.896  3.9632 -0.1621  1.3984
  249MOL0     H33566   3.547   9.709   2.568  0.3726  0.1529  0.8412
  249MOL0     H33567   3.313   9.902   2.389 -0.0564  1.1213  1.8623
  249MOL0     H33568   3.329   9.716   2.402 -1.1065  1.1099 -4.2604
  249MOL0     H33569   3.111   9.874   2.551 -0.8727  0.6989 -1.2918
  249MOL0     H33570   3.093   9.783   2.390  0.5212 -1.4033  0.4568
  249MOL0     H33571   3.148   9.690   2.667 -0.7157  2.0043  0.7453
  249MOL0     H33572   3.213   9.596   2.527 -1.5092 -0.6283 -0.4948
  249MOL0     H33573   2.987   9.516   2.587  0.0505  1.4645  1.5200
  249MOL0     H33574   2.983   9.604   2.427 -0.1619  1.5697 -0.9432
  249MOL0     H33575   2.747   9.581   2.401  0.1644 -0.5820 -4.4892
  249MOL0     H33576   2.623   9.710   2.226  1.1749  1.9994 -2.4991
  249MOL0     H33577   2.303  10.055   2.284  1.1741  2.0402 -0.4235
  249MOL0     H33578   2.085  10.177   2.196  1.5525  1.8376 -0.9856
  249MOL0     H33579   1.887  10.153   2.115 -3.7645  0.3257  1.5961
  249MOL0     H33580   1.833  10.263   1.979 -1.6898 -0.6586  1.1388
  249MOL0     H33581   1.740  10.094   1.847  0.2758 -1.6471  0.3611
  249MOL0     H33582   1.767   9.984   1.978 -2.3310 -0.1653 -0.4490
  249MOL0     H33583   1.620  10.104   2.129  0.2043  3.4823  0.1286
  249MOL0     H33584   1.596  10.238   2.027 -0.6282  0.0380  1.1958
  249MOL0     H33585   1.406  10.076   2.029  0.5938  1.3813 -0.0133
  249MOL0     H33586   1.497   9.957   1.940 -0.7596  0.2531 -0.2972
  249MOL0     H33587   1.506  10.063   1.733 -2.1927 -0.4882 -1.0208
  249MOL0     H33588   1.472  10.222   1.801  2.4505 -0.3369 -3.3324
  249MOL0     H33589   1.267   9.981   1.791 -1.4048 -0.2392  1.8209
  249MOL0     H33590   1.232  10.133   1.862 -0.9261 -0.7165 -1.0501
  249MOL0     H33591   1.307  10.111   1.575 -2.4213 -2.9068  0.5001
  249MOL0     H33592   1.247  10.255   1.671 -0.8696  0.6488 -2.1858
  249MOL0     H33593   1.066  10.175   1.538 -2.5953 -1.2373 -0.8397
  249MOL0     H33594   1.090  10.016   1.617  0.5685  0.7217 -0.6009
  249MOL0     H33595   2.169   9.992   1.813 -5.0815 -3.5242  1.6776
  249MOL0     H33596   2.376   9.889   1.908  2.5218  2.7657 -1.0380
  249MOL0     H33597   2.731  10.073   2.398  1.1794 -0.4993 -0.1245
  249MOL0     H33598   2.874   9.966   2.552  2.0001 -1.6559  0.1012
  249MOL0     H33599   4.305   9.830   2.476 -2.0902 -0.3049  1.4110
  249MOL0     H33600   4.418   9.740   2.645 -3.8089 -0.8125 -0.3132
  249MOL0     H33601   4.600   9.761   3.025  1.7825 -2.0353 -1.1004
  249MOL0     H33602   4.681   9.685   3.243 -1.3619  0.3549 -0.1547
  249MOL0     H33603   4.852   9.846   3.463 -0.2833  1.3361 -0.3593
  249MOL0     H33604   4.931   9.930   3.338  3.4480 -0.0249  0.3668
  249MOL0     H33605   5.051   9.796   3.569  0.2705 -1.1999 -1.0897
  249MOL0     H33606   5.058   9.961   3.528  0.8684  0.8111 -0.7206
  249MOL0     H33607   5.190   9.891   3.310 -0.1661  0.5916  0.2688
  249MOL0     H33608   5.197   9.730   3.377 -1.9725 -0.3955 -3.8836
  249MOL0     H33609   5.323   9.992   3.479  2.0561  1.0092  2.7734
  249MOL0     H33610   5.304   9.857   3.593  0.1832  3.1137  0.6838
  249MOL0     H33611   5.645   9.840   3.312 -0.9568 -0.6726  0.1737
  249MOL0     H33612   5.067   9.811   3.143  0.2591  4.3063 -1.1504
  249MOL0     H33613   4.991   9.864   2.763  2.3943  0.2437 -0.3072
  249MOL0     H33614   5.063   9.978   2.890  3.4973 -0.5464 -0.3705
  249MOL0     H33615   5.119   9.816   2.866  1.0951  2.1022 -0.7607
  250MOL0     O33616   7.016   8.350   1.224  0.1543  0.4672 -0.0475
  250MOL0     C33617   7.013   8.453   1.295 -0.4534 -0.2925  0.0518
  250MOL0     O33618   7.117   8.526   1.343  0.0219  0.0280  0.2914
  250MOL0     C33619   7.241   8.461   1.334  1.1708 -0.0632  0.5090
  250MOL0     C33620   7.278   8.338   1.409  0.3070 -1.6612  0.2817
  250MOL0     C33621   7.400   8.287   1.385 -0.0425 -0.5095  0.7980
  250MOL0     C33622   7.497   8.354   1.317 -0.9670 -0.5522 -0.8452
  250MOL0     O33623   7.630   8.326   1.324 -0.4127  0.7915 -1.1096
  250MOL0     C33624   7.671   8.246   1.435 -0.3692 -0.4389 -0.4996
  250MOL0     C33625   7.821   8.257   1.446 -0.6700  0.1331  0.3278
  250MOL0     C33626   7.865   8.405   1.476 -0.3835 -0.1791 -0.3230
  250MOL0     C33627   7.869   8.422   1.624 -0.0172  0.3663  1.0116
  250MOL0     C33628   7.885   8.565   1.662 -0.4093  0.3890 -0.2174
  250MOL0     C33629   7.909   8.572   1.809  0.2274  0.9904  0.6989
  250MOL0     C33630   7.931   8.706   1.862  0.5296 -0.4204 -0.1785
  250MOL0     C33631   8.032   8.794   1.786 -1.2721 -1.0448  0.0926
  250MOL0     N33632   8.059   8.918   1.860 -0.1730  0.2200  0.3487
  250MOL0     C33633   8.136   8.921   1.967  1.1753  0.5590 -0.3009
  250MOL0     C33634   8.132   9.043   2.016  1.0561 -0.1521  0.1187
  250MOL0     C33635   8.197   9.096   2.143  0.9535  0.8288  0.1198
  250MOL0     C33636   8.338   9.147   2.107  0.2026  0.6142 -0.0641
  250MOL0     C33637   8.438   9.040   2.067 -1.5553  0.6036  0.0871
  250MOL0     C33638   8.488   8.942   2.174 -0.8903  0.3188 -0.5308
  250MOL0     O33639   8.578   9.001   2.262 -0.2509 -0.1125 -0.5278
  250MOL0     C33640   8.640   8.915   2.355  0.5996  0.1037  0.6967
  250MOL0     C33641   8.578   8.802   2.410 -0.6666  0.2869  1.1722
  250MOL0     C33642   8.647   8.715   2.490  0.2610 -0.1282  0.4888
  250MOL0     C33643   8.781   8.741   2.533 -0.6583  0.2293  0.2511
  250MOL0     C33644   8.865   8.652   2.621  0.8048  0.3176  0.2360
  250MOL0     O33645   8.810   8.534   2.664 -0.3339 -0.9413  0.2142
  250MOL0     C33646   8.887   8.460   2.754 -1.0984 -1.2061 -0.8484
  250MOL0     C33647   8.863   8.325   2.752  0.0172  0.5667  0.1698
  250MOL0     C33648   8.919   8.231   2.835  0.0586  0.1986 -0.8181
  250MOL0     C33649   9.010   8.268   2.936  0.5074  0.8848 -0.6888
  250MOL0     O33650   9.053   8.166   3.015  0.5930  0.2177 -1.4632
  250MOL0     C33651   9.156   8.201   3.115  0.5192 -0.4995 -0.5360
  250MOL0     C33652   9.212   8.079   3.177  0.1476  0.3658 -0.4519
  250MOL0     C33653   9.144   8.014   3.300  0.2531 -0.3545 -0.2389
  250MOL0     C33654   8.998   7.988   3.283 -0.4086  0.1493 -0.5603
  250MOL0     C33655   8.937   7.906   3.396 -0.5705 -0.2164  0.4310
  250MOL0     C33656   8.780   7.913   3.413 -0.2676 -0.3516 -0.3004
  250MOL0     C33657   8.750   7.846   3.556 -0.5002  0.2356 -0.5123
  250MOL0     C33658   8.616   7.778   3.549  0.8871 -0.1667  0.4594
  250MOL0    Cl33659   8.486   7.887   3.504 -0.0313 -0.1528  0.1226
  250MOL0     C33660   9.041   8.410   2.946 -0.0634 -0.7919 -0.0890
  250MOL0     C33661   8.980   8.504   2.863  0.6790  0.0341 -0.3837
  250MOL0     O33662   8.984   8.689   2.637  0.1545  0.0645  0.4204
  250MOL0     C33663   8.841   8.851   2.480  0.1621 -0.0689 -0.7063
  250MOL0     C33664   8.768   8.942   2.397  0.3758  0.1663  0.0784
  250MOL0     N33665   8.057   9.124   1.925 -0.6375 -0.2404  0.0351
  250MOL0     N33666   8.018   9.045   1.834  0.2178 -0.2796  0.0432
  250MOL0     C33667   7.470   8.482   1.273 -0.6085 -0.2083 -0.0555
  250MOL0     C33668   7.341   8.537   1.277  0.2780 -0.1215  0.3382
  250MOL0     C33669   6.878   8.512   1.318  0.3291  1.0292  0.9052
  250MOL0     C33670   6.774   8.453   1.236 -0.1680 -0.3288 -0.2729
  250MOL0     C33671   6.658   8.518   1.231 -0.2192 -0.3630 -1.0879
  250MOL0     C33672   6.629   8.636   1.314  0.3146  0.0005  0.7309
  250MOL0     O33673   6.508   8.701   1.309  0.5446  0.1628 -0.3462
  250MOL0     C33674   6.393   8.618   1.346 -0.1379 -0.3103  0.5330
  250MOL0     C33675   6.354   8.648   1.486 -0.6466  0.2491  1.0119
  250MOL0     C33676   6.231   8.566   1.526  0.6349 -0.3518 -0.9255
  250MOL0     C33677   6.171   8.621   1.654  1.1969  0.8920  0.1136
  250MOL0     C33678   6.022   8.590   1.671  0.1094 -1.2150  0.9390
  250MOL0     C33679   5.908   8.565   1.675  0.3121 -0.8039  0.2754
  250MOL0     C33680   6.726   8.693   1.390  0.4070  0.7883 -0.5578
  250MOL0     C33681   6.848   8.626   1.401 -0.0659  1.0424  0.0957
  250MOL0     C33682   6.948   8.697   1.482  0.2915 -0.2634  1.3584
  250MOL0     H33683   7.206   8.287   1.471  0.6665 -1.5461  0.7979
  250MOL0     H33684   7.427   8.188   1.421 -2.3518 -1.5200 -0.0569
  250MOL0     H33685   7.635   8.278   1.533  0.4908 -3.0499  0.7704
  250MOL0     H33686   7.644   8.142   1.420 -4.5305  0.6952 -1.9575
  250MOL0     H33687   7.860   8.234   1.346 -0.6211  2.2195 -0.1685
  250MOL0     H33688   7.840   8.181   1.522 -1.1299 -0.9743 -0.6165
  250MOL0     H33689   7.796   8.465   1.416 -0.8242 -0.8078 -0.4632
  250MOL0     H33690   7.962   8.417   1.428  0.2272 -1.4360  0.5304
  250MOL0     H33691   7.779   8.378   1.668 -0.4393 -0.5665 -0.7007
  250MOL0     H33692   7.956   8.367   1.659 -0.4056 -2.1969 -1.6534
  250MOL0     H33693   7.969   8.602   1.603  0.4322 -2.4063 -0.8891
  250MOL0     H33694   7.788   8.607   1.633 -1.5506 -0.7251  1.7422
  250MOL0     H33695   7.820   8.527   1.853 -0.0962  0.6620 -0.2611
  250MOL0     H33696   8.000   8.514   1.828  2.5459  3.3997 -2.0103
  250MOL0     H33697   7.957   8.699   1.968 -1.4015  0.5735  0.4203
  250MOL0     H33698   7.834   8.756   1.857  0.6471 -0.0396  1.1318
  250MOL0     H33699   8.120   8.731   1.768 -0.7204  0.0202 -1.0595
  250MOL0     H33700   7.993   8.818   1.687  1.7085  1.3526 -0.6323
  250MOL0     H33701   8.185   8.842   2.023 -0.9383  0.0861  0.9836
  250MOL0     H33702   8.137   9.182   2.175 -1.1304  0.4700 -2.4705
  250MOL0     H33703   8.195   9.010   2.210 -2.9636  0.6154 -0.0901
  250MOL0     H33704   8.334   9.226   2.031 -2.9477  1.8290  1.1757
  250MOL0     H33705   8.369   9.195   2.200  2.4846  1.4643 -1.1916
  250MOL0     H33706   8.514   9.104   2.022 -0.1476  1.4662  3.4038
  250MOL0     H33707   8.397   8.975   1.989  0.2123  1.0878 -1.3176
  250MOL0     H33708   8.537   8.854   2.131 -1.4688 -0.5743  0.5465
  250MOL0     H33709   8.398   8.895   2.217 -1.6945 -1.7527 -4.0447
  250MOL0     H33710   8.472   8.786   2.390  0.1045 -0.5116 -3.3640
  250MOL0     H33711   8.605   8.623   2.528 -0.2581 -0.0642  0.0883
  250MOL0     H33712   8.807   8.272   2.676 -0.6607 -0.2034  1.1750
  250MOL0     H33713   8.893   8.126   2.829 -0.4820  0.2735  0.0294
  250MOL0     H33714   9.236   8.242   3.054  1.7406 -0.8878  0.7509
  250MOL0     H33715   9.130   8.280   3.186 -0.6385  1.5748 -3.1316
  250MOL0     H33716   9.216   8.005   3.096 -2.6287 -2.1832  1.5629
  250MOL0     H33717   9.314   8.100   3.209  0.7740 -3.0875  0.1791
  250MOL0     H33718   9.199   7.926   3.334  2.2284 -0.3138 -2.9938
  250MOL0     H33719   9.158   8.086   3.381 -0.4230  0.7706 -1.0996
  250MOL0     H33720   8.976   7.940   3.187 -2.1717 -0.4515  0.1010
  250MOL0     H33721   8.939   8.079   3.282 -3.6676 -1.7149  2.2093
  250MOL0     H33722   8.986   7.929   3.491  0.3710  4.0208 -0.8735
  250MOL0     H33723   8.956   7.800   3.373  0.3186 -1.2221  4.8727
  250MOL0     H33724   8.739   8.013   3.424 -1.0477 -0.8154  1.4362
  250MOL0     H33725   8.727   7.862   3.332 -0.0789 -0.1058 -0.5802
  250MOL0     H33726   8.742   7.935   3.620  1.4535  0.8442 -1.0289
  250MOL0     H33727   8.830   7.783   3.596 -1.6185  0.0944  1.6207
  250MOL0     H33728   8.616   7.710   3.464 -0.5343 -0.0411  0.3410
  250MOL0     H33729   8.595   7.733   3.646  1.7179  0.0795  0.7651
  250MOL0     H33730   9.107   8.447   3.023  0.8932  0.3818 -1.4160
  250MOL0     H33731   8.997   8.606   2.894 -0.7170 -0.6189  2.9498
  250MOL0     H33732   8.949   8.867   2.481  0.8086 -2.8757 -4.2784
  250MOL0     H33733   8.829   9.027   2.369  1.4865 -0.8739 -0.7217
  250MOL0     H33734   7.547   8.546   1.232  0.4629 -2.6751 -2.2113
  250MOL0     H33735   7.321   8.633   1.228 -3.7745 -0.2162  1.4807
  250MOL0     H33736   6.784   8.366   1.171  1.9347 -1.3219  1.2566
  250MOL0     H33737   6.584   8.470   1.167  1.4998  0.4458 -3.8601
  250MOL0     H33738   6.414   8.512   1.336  0.8265  0.0310 -1.4853
  250MOL0     H33739   6.308   8.647   1.283  0.3940  3.0187  1.1513
  250MOL0     H33740   6.334   8.755   1.486  1.7004  0.7569 -0.4839
  250MOL0     H33741   6.444   8.634   1.547 -0.5799 -3.0101  0.3879
  250MOL0     H33742   6.256   8.460   1.540  0.1786 -0.3605 -0.1512
  250MOL0     H33743   6.155   8.578   1.448  1.8427 -1.3222 -2.2975
  250MOL0     H33744   6.225   8.569   1.733 -0.1048  0.3768  0.6870
  250MOL0     H33745   6.192   8.728   1.663  0.7490  0.8826  1.4728
  250MOL0     H33746   5.803   8.553   1.657  0.5993 -0.7323 -1.6604
  250MOL0     H33747   6.697   8.778   1.450 -1.8834 -0.9746  1.0300
  250MOL0     H33748   7.035   8.725   1.421 -0.0555 -0.4003  0.7867
  250MOL0     H33749   6.913   8.787   1.533 -2.7543 -1.0643  0.9020
  250MOL0     H33750   6.977   8.628   1.561  2.2800 -1.6076 -0.4194
  251MOL0     O33751   9.504   4.964   5.224  1.0651  0.7379 -0.3377
  251MOL0     C33752   9.466   4.880   5.304 -0.0957  0.4543  0.4857
  251MOL0     O33753   9.541   4.831   5.409  0.0539  0.5474 -0.2739
  251MOL0     C33754   9.655   4.895   5.439  0.5633  0.0986 -0.0626
  251MOL0     C33755   9.767   4.855   5.367 -0.3277 -0.7335 -0.6799
  251MOL0     C33756   9.884   4.916   5.395 -0.3886 -0.4272 -0.2828
  251MOL0     C33757   9.903   5.013   5.492 -0.2905  0.2101 -0.2037
  251MOL0     O33758  10.019   5.066   5.531  0.4517  0.6048 -0.0098
  251MOL0     C33759  10.143   5.003   5.506 -1.2334  0.3875 -0.0379
  251MOL0     C33760  10.256   5.095   5.561 -0.4549  0.1282  0.5246
  251MOL0     C33761  10.386   5.041   5.489  0.3374 -0.1171 -0.8266
  251MOL0     C33762  10.487   5.147   5.506  0.1259  0.1051 -0.7373
  251MOL0     C33763  10.618   5.112   5.433  1.0514  0.3252 -0.1912
  251MOL0     C33764  10.716   5.222   5.450 -0.1997 -0.6000  0.3750
  251MOL0     C33765  10.846   5.191   5.378  0.0411  0.4612  0.7129
  251MOL0     C33766  10.955   5.275   5.438 -0.4328  0.3968  0.7286
  251MOL0     N33767  11.089   5.232   5.391  0.0639 -0.2359  0.2760
  251MOL0     C33768  11.136   5.227   5.257 -0.3915 -0.1877  0.1302
  251MOL0     C33769  11.248   5.157   5.263 -0.9979  0.2608  0.3929
  251MOL0     C33770  11.328   5.097   5.151 -0.9826  0.0070 -0.3702
  251MOL0     C33771  11.336   5.193   5.028  0.6671 -0.3491  0.8427
  251MOL0     C33772  11.422   5.317   5.036  0.7284  0.2716 -0.2410
  251MOL0     C33773  11.426   5.383   4.900 -0.6552  0.0650  0.7163
  251MOL0     O33774  11.495   5.509   4.895  0.0199  0.4853 -0.9868
  251MOL0     C33775  11.423   5.625   4.899 -0.2016  0.3070 -0.3067
  251MOL0     C33776  11.289   5.631   4.937 -0.0174 -0.3132  0.5431
  251MOL0     C33777  11.229   5.755   4.954  0.8901  0.6459  0.1427
  251MOL0     C33778  11.284   5.875   4.928 -0.3294  0.7254 -0.1860
  251MOL0     C33779  11.210   6.001   4.942  1.2093  0.1414 -0.2084
  251MOL0     O33780  11.282   6.114   4.957 -0.4808  0.0568 -0.3400
  251MOL0     C33781  11.211   6.233   4.956  1.0334  0.2600  0.6556
  251MOL0     C33782  11.190   6.297   4.836 -0.2617 -0.1325 -0.7797
  251MOL0     C33783  11.113   6.414   4.847  0.9089  0.2562  0.4459
  251MOL0     C33784  11.059   6.462   4.968 -0.1058  0.3382  0.1955
  251MOL0     O33785  10.980   6.571   4.969 -0.7375  0.9285  0.3860
  251MOL0     C33786  10.976   6.656   4.851  0.1027 -0.1785 -0.6489
  251MOL0     C33787  10.923   6.801   4.866  0.3959  0.2675  0.6846
  251MOL0     C33788  10.803   6.829   4.953  0.0509  0.5427 -0.1479
  251MOL0     C33789  10.785   6.972   4.985 -0.0201 -0.8037  0.7110
  251MOL0     C33790  10.746   7.047   4.855  0.9532 -0.1185 -0.3047
  251MOL0     C33791  10.635   7.156   4.887 -0.5942  0.1401 -0.4042
  251MOL0     C33792  10.612   7.246   4.766  0.6041 -0.1896  0.4745
  251MOL0     C33793  10.500   7.361   4.796  0.5431  0.8179  0.6167
  251MOL0    Cl33794  10.494   7.472   4.662 -0.2620 -0.1101 -0.0613
  251MOL0     C33795  11.075   6.394   5.088  0.1063  0.4262  0.1084
  251MOL0     C33796  11.154   6.274   5.079  0.3976 -0.3898 -0.0775
  251MOL0     O33797  11.090   6.004   4.934  1.1473 -0.5499  0.6906
  251MOL0     C33798  11.418   5.866   4.876 -0.8427  0.2334  0.4887
  251MOL0     C33799  11.481   5.742   4.863 -0.9815 -0.1132 -0.4768
  251MOL0     N33800  11.269   5.139   5.395  0.4328 -0.1317  0.1389
  251MOL0     N33801  11.180   5.186   5.468  0.0226  0.7121  0.2105
  251MOL0     C33802   9.786   5.047   5.563 -0.6782  0.0807  0.7421
  251MOL0     C33803   9.664   4.994   5.529  0.1209  0.8452 -0.9730
  251MOL0     C33804   9.332   4.823   5.273  0.1560  0.1830  0.6448
  251MOL0     C33805   9.262   4.763   5.377  0.0448 -0.0517 -0.2341
  251MOL0     C33806   9.148   4.684   5.355  0.2531  0.2832  0.8560
  251MOL0     C33807   9.093   4.680   5.225  0.6171  0.1702 -0.1267
  251MOL0     O33808   8.981   4.610   5.187  0.2057  0.5530 -0.4623
  251MOL0     C33809   8.898   4.543   5.287  0.3352 -0.6190  0.4730
  251MOL0     C33810   8.799   4.469   5.204  0.1573  0.7912  0.5369
  251MOL0     C33811   8.668   4.438   5.283 -0.1315  0.5077  0.2513
  251MOL0     C33812   8.683   4.355   5.414 -0.2225 -0.2178 -0.0761
  251MOL0     C33813   8.724   4.215   5.388  0.5330 -0.3238 -0.4109
  251MOL0     C33814   8.752   4.096   5.373 -0.0707 -0.4209 -0.1033
  251MOL0     C33815   9.156   4.744   5.130 -0.4843  0.2692  0.3119
  251MOL0     C33816   9.275   4.818   5.144 -0.3186  0.9860  0.9522
  251MOL0     C33817   9.339   4.898   5.021  0.0402 -0.1199  0.6730
  251MOL0     H33818   9.771   4.769   5.302  0.8117 -1.0403 -0.2223
  251MOL0     H33819   9.981   4.889   5.354 -0.2759 -0.1990 -0.1699
  251MOL0     H33820  10.162   4.903   5.548 -0.2538  1.3886  2.0206
  251MOL0     H33821  10.159   4.982   5.400  1.7033  0.2706  0.3614
  251MOL0     H33822  10.252   5.101   5.670 -1.9044  2.0283  0.4310
  251MOL0     H33823  10.232   5.197   5.528 -0.5430 -0.2292 -0.5532
  251MOL0     H33824  10.360   5.030   5.383 -2.3147  0.1126 -0.2615
  251MOL0     H33825  10.421   4.946   5.532 -0.5142 -1.5643 -3.1194
  251MOL0     H33826  10.440   5.241   5.476  0.2728  0.1962 -0.6894
  251MOL0     H33827  10.502   5.151   5.615 -3.2167  2.4915 -0.1928
  251MOL0     H33828  10.653   5.022   5.484 -1.6444  0.0012  1.3035
  251MOL0     H33829  10.594   5.090   5.329 -2.0695 -0.5781  0.6086
  251MOL0     H33830  10.667   5.304   5.398 -0.1200 -0.5415  0.3943
  251MOL0     H33831  10.748   5.235   5.554  0.4898 -2.3885  0.4244
  251MOL0     H33832  10.850   5.217   5.272  1.1309  1.4850  0.9832
  251MOL0     H33833  10.860   5.083   5.386 -1.1117  0.3872  2.3272
  251MOL0     H33834  10.937   5.382   5.430  3.4373  1.0497 -1.9820
  251MOL0     H33835  10.962   5.258   5.546 -1.1119 -1.5406  0.5147
  251MOL0     H33836  11.077   5.241   5.167 -1.0282  0.2389  0.6027
  251MOL0     H33837  11.426   5.070   5.190 -1.3250  0.9721  1.2316
  251MOL0     H33838  11.282   5.002   5.122  0.6436 -1.8624  2.6245
  251MOL0     H33839  11.368   5.128   4.946 -0.6024  0.5763 -0.4279
  251MOL0     H33840  11.234   5.230   5.010 -0.6392 -2.5893  3.0139
  251MOL0     H33841  11.520   5.291   5.077  0.7522 -1.1395 -1.1221
  251MOL0     H33842  11.373   5.381   5.111  1.0165 -0.1717  0.3375
  251MOL0     H33843  11.328   5.392   4.852  0.7248  3.4249 -1.8348
  251MOL0     H33844  11.468   5.314   4.826 -2.7441 -1.9467  1.2982
  251MOL0     H33845  11.218   5.550   4.953  0.5264 -1.1270 -0.9444
  251MOL0     H33846  11.137   5.752   5.011  1.6430  0.4022  1.4050
  251MOL0     H33847  11.226   6.273   4.736 -0.6880 -0.9753 -0.7455
  251MOL0     H33848  11.102   6.457   4.748 -0.9833 -1.0896  0.0142
  251MOL0     H33849  11.076   6.670   4.808 -0.7320  3.9925 -1.6544
  251MOL0     H33850  10.921   6.602   4.774 -0.1737  1.0593 -1.3365
  251MOL0     H33851  11.006   6.854   4.911 -0.8173  1.2728  1.8091
  251MOL0     H33852  10.902   6.845   4.768 -2.1216 -2.2409 -0.0602
  251MOL0     H33853  10.717   6.789   4.899  0.1700 -0.4179  0.3419
  251MOL0     H33854  10.801   6.778   5.050  0.0577  0.9482  0.0667
  251MOL0     H33855  10.884   6.998   5.025  0.2328 -1.2898  0.4132
  251MOL0     H33856  10.722   6.983   5.074  1.7288  1.9124  1.7635
  251MOL0     H33857  10.709   6.984   4.774 -2.8275  1.9716 -0.4663
  251MOL0     H33858  10.828   7.109   4.817 -0.7133  2.7740  0.4813
  251MOL0     H33859  10.542   7.099   4.902 -0.3396 -1.4449 -3.9587
  251MOL0     H33860  10.658   7.221   4.972  1.2774 -0.8374 -0.1163
  251MOL0     H33861  10.594   7.194   4.671  1.9094  0.3725 -0.1095
  251MOL0     H33862  10.710   7.293   4.749  0.7616 -0.7371 -0.1742
  251MOL0     H33863  10.401   7.317   4.809 -0.2374  2.4194  0.3258
  251MOL0     H33864  10.533   7.408   4.889 -0.8651  0.3138  1.3901
  251MOL0     H33865  11.023   6.431   5.176 -1.0741  0.6548 -0.6808
  251MOL0     H33866  11.158   6.216   5.170 -1.0288 -1.8118 -0.8750
  251MOL0     H33867  11.465   5.963   4.860 -1.8223  0.2785 -3.0095
  251MOL0     H33868  11.585   5.739   4.834 -1.0560  0.8874 -0.8846
  251MOL0     H33869   9.794   5.127   5.637 -0.6964  4.0839 -3.1468
  251MOL0     H33870   9.576   5.026   5.583  0.6713 -2.8702  2.6424
  251MOL0     H33871   9.289   4.759   5.483 -4.8632 -2.9302  1.2424
  251MOL0     H33872   9.105   4.627   5.437 -0.2539 -1.5723 -0.6273
  251MOL0     H33873   8.856   4.627   5.343  1.1834 -0.1219  0.3760
  251MOL0     H33874   8.948   4.470   5.351 -0.2918  0.0966  1.8276
  251MOL0     H33875   8.852   4.376   5.182  1.2650  1.1010  1.7258
  251MOL0     H33876   8.773   4.524   5.114 -0.4920 -0.3769 -0.0015
  251MOL0     H33877   8.618   4.367   5.217  2.2109 -1.3994  0.3575
  251MOL0     H33878   8.602   4.523   5.303 -2.6230 -1.3971  0.6027
  251MOL0     H33879   8.764   4.406   5.467 -0.3366 -1.4845  1.3768
  251MOL0     H33880   8.592   4.357   5.475  1.7177  1.2295  3.0328
  251MOL0     H33881   8.766   3.993   5.351 -2.2775 -1.2863  2.0645
  251MOL0     H33882   9.124   4.737   5.026  1.7137 -1.6468 -0.3187
  251MOL0     H33883   9.353   5.002   5.053 -1.8683  0.9719 -1.7710
  251MOL0     H33884   9.439   4.864   4.991  0.1895 -0.5666  1.6438
  251MOL0     H33885   9.271   4.906   4.936  0.0734  1.1645  0.7539
  252MOL0     O33886  10.864   3.007   6.390  0.3519  0.0637 -0.4235
  252MOL0     C33887  10.883   2.930   6.482  0.0412  0.4638 -0.1415
  252MOL0     O33888  10.983   2.949   6.573 -0.0943  0.7863  0.1454
  252MOL0     C33889  11.059   3.057   6.575  0.1155 -0.1429 -0.2168
  252MOL0     C33890  11.017   3.170   6.655  0.0602  0.6235 -0.4532
  252MOL0     C33891  11.098   3.282   6.677 -0.5862 -0.2212  0.3666
  252MOL0     C33892  11.223   3.283   6.610  0.6429 -0.0861 -0.9586
  252MOL0     O33893  11.306   3.387   6.631 -0.2863 -0.0795  0.3888
  252MOL0     C33894  11.446   3.359   6.645 -1.0069 -0.9426 -0.1372
  252MOL0     C33895  11.481   3.412   6.783  0.1356  1.0658 -0.2965
  252MOL0     C33896  11.493   3.560   6.786 -0.0943  0.0977 -0.3883
  252MOL0     C33897  11.576   3.603   6.920  0.1710  0.3130  0.2978
  252MOL0     C33898  11.611   3.751   6.933 -0.6456 -0.2121 -0.5912
  252MOL0     C33899  11.684   3.772   7.067 -0.0997 -0.8372  0.3724
  252MOL0     C33900  11.584   3.770   7.182  0.7008 -0.0400  0.7705
  252MOL0     C33901  11.646   3.822   7.314  0.0003  0.4070 -1.1285
  252MOL0     N33902  11.556   3.806   7.424 -0.3398  0.2934  0.0421
  252MOL0     C33903  11.420   3.805   7.439  1.3458  0.3939 -1.1093
  252MOL0     C33904  11.395   3.758   7.568 -0.3019 -0.5451 -0.3691
  252MOL0     C33905  11.266   3.771   7.651 -0.5899 -0.1359  0.4501
  252MOL0     C33906  11.224   3.626   7.693 -0.3394  0.7629  0.0292
  252MOL0     C33907  11.115   3.564   7.600 -0.1397  0.1644  0.3402
  252MOL0     C33908  11.031   3.456   7.673  0.3817 -0.5406 -0.0624
  252MOL0     O33909  10.951   3.370   7.589 -0.2776  0.6791  0.1427
  252MOL0     C33910  10.819   3.390   7.576  1.2260  0.0588 -0.2990
  252MOL0     C33911  10.746   3.273   7.563  0.1812  0.0210 -0.4978
  252MOL0     C33912  10.608   3.284   7.558  0.4189  1.3029  0.7863
  252MOL0     C33913  10.526   3.396   7.586  0.8322 -0.2763  0.4674
  252MOL0     C33914  10.370   3.396   7.598 -0.8914 -0.6526  0.2902
  252MOL0     O33915  10.297   3.285   7.579 -0.5486 -0.0580  0.3843
  252MOL0     C33916  10.161   3.296   7.610  0.1448  0.3832  0.2770
  252MOL0     C33917  10.072   3.378   7.537  0.4654  0.1828 -0.6073
  252MOL0     C33918   9.937   3.371   7.569 -0.5131  0.2677 -0.0539
  252MOL0     C33919   9.894   3.282   7.665 -0.1905  0.0780 -0.5792
  252MOL0     O33920   9.759   3.263   7.671 -0.0490 -0.8612 -0.4871
  252MOL0     C33921   9.693   3.153   7.602 -0.6570 -1.2815  0.0721
  252MOL0     C33922   9.667   3.182   7.453 -0.1740  0.1953 -0.8787
  252MOL0     C33923   9.550   3.278   7.434 -0.8721 -0.9089 -0.5249
  252MOL0     C33924   9.408   3.221   7.461  0.6568 -0.0539  0.1474
  252MOL0     C33925   9.389   3.135   7.331 -1.0237  0.4129  0.2480
  252MOL0     C33926   9.241   3.077   7.309  0.4067  0.1419  0.2934
  252MOL0     C33927   9.246   2.981   7.188 -0.3540 -0.2930 -0.0884
  252MOL0     C33928   9.311   2.844   7.219  0.6766  1.0102  0.1713
  252MOL0    Cl33929   9.195   2.779   7.344  0.2992  0.1222 -0.4173
  252MOL0     C33930   9.978   3.203   7.741  0.1600 -0.1502  0.1310
  252MOL0     C33931  10.114   3.209   7.708  0.1340  0.0850 -0.7077
  252MOL0     O33932  10.327   3.502   7.648 -0.0120  0.3857  0.0977
  252MOL0     C33933  10.605   3.509   7.597 -0.2714 -0.5270 -0.2234
  252MOL0     C33934  10.748   3.509   7.596 -1.1298  0.1982  0.7284
  252MOL0     N33935  11.516   3.739   7.631  0.5433 -0.4247 -0.3581
  252MOL0     N33936  11.610   3.754   7.539  0.1783  0.6440  0.6242
  252MOL0     C33937  11.264   3.172   6.536 -0.0031 -0.5533  0.0844
  252MOL0     C33938  11.186   3.059   6.520 -0.4458  0.1759 -0.1393
  252MOL0     C33939  10.791   2.814   6.487  0.1317 -0.4914 -0.6505
  252MOL0     C33940  10.744   2.785   6.620  0.4341  0.5809  1.0116
  252MOL0     C33941  10.644   2.688   6.623 -0.6765  0.6104 -0.2868
  252MOL0     C33942  10.595   2.615   6.516  0.5709  0.2980 -0.5957
  252MOL0     O33943  10.499   2.515   6.529  0.0422  0.8922 -0.7845
  252MOL0     C33944  10.438   2.481   6.654 -0.1789 -0.5712 -0.0640
  252MOL0     C33945  10.334   2.595   6.691 -0.0232 -1.0668  0.3758
  252MOL0     C33946  10.279   2.577   6.827 -0.0442  0.3135  0.7564
  252MOL0     C33947  10.173   2.672   6.864  0.0579  0.2473  0.7632
  252MOL0     C33948  10.050   2.641   6.779  0.2437  0.4409  0.7363
  252MOL0     C33949   9.952   2.614   6.710 -0.2114 -0.4002 -0.3353
  252MOL0     C33950  10.645   2.644   6.392  0.2274  0.7251  0.2248
  252MOL0     C33951  10.741   2.743   6.379  0.4714 -0.0557 -0.3513
  252MOL0     C33952  10.803   2.754   6.244  0.3334 -0.2716  0.6417
  252MOL0     H33953  10.923   3.142   6.701  0.0324 -0.2242 -0.9994
  252MOL0     H33954  11.049   3.358   6.736 -0.2129 -0.9497  1.6568
  252MOL0     H33955  11.474   3.253   6.641  3.4782 -0.1412  3.3823
  252MOL0     H33956  11.494   3.424   6.572 -0.7975  0.3715  1.1400
  252MOL0     H33957  11.580   3.373   6.810 -0.4763 -1.7618 -1.6898
  252MOL0     H33958  11.407   3.373   6.854  2.2305 -2.0930  0.3491
  252MOL0     H33959  11.391   3.599   6.789 -2.2232 -4.7250 -0.3922
  252MOL0     H33960  11.542   3.597   6.695  1.2589 -2.6882 -0.9098
  252MOL0     H33961  11.524   3.568   7.010  2.3253 -1.1288  1.0533
  252MOL0     H33962  11.675   3.557   6.913  1.2755  2.0747  2.8938
  252MOL0     H33963  11.681   3.775   6.852 -0.2562 -0.5789 -0.3660
  252MOL0     H33964  11.523   3.816   6.925 -2.1123 -1.8242  1.4966
  252MOL0     H33965  11.746   3.684   7.087  1.8014  0.2734 -0.3056
  252MOL0     H33966  11.738   3.867   7.057 -3.1949  1.0961  0.6595
  252MOL0     H33967  11.551   3.670   7.210  0.9446 -0.1608  0.6323
  252MOL0     H33968  11.500   3.836   7.161 -0.1653 -1.3533 -0.0473
  252MOL0     H33969  11.735   3.763   7.338 -1.2541 -0.8449  0.7696
  252MOL0     H33970  11.667   3.929   7.318 -1.4185  0.7735 -2.3718
  252MOL0     H33971  11.344   3.849   7.376  0.0873 -1.6913 -1.1506
  252MOL0     H33972  11.277   3.840   7.735  0.2079  1.7655 -1.1312
  252MOL0     H33973  11.182   3.811   7.593  0.8316  2.3165 -0.0482
  252MOL0     H33974  11.321   3.575   7.700 -0.3652  0.5402 -1.0993
  252MOL0     H33975  11.192   3.643   7.797  0.4118 -0.6496  0.5285
  252MOL0     H33976  11.169   3.517   7.518  1.0429  2.6829 -0.4160
  252MOL0     H33977  11.043   3.636   7.559  0.5291 -0.2631 -1.6479
  252MOL0     H33978  10.971   3.491   7.759 -1.4981 -3.4708 -0.0579
  252MOL0     H33979  11.097   3.388   7.727 -0.7367 -1.0639  0.6924
  252MOL0     H33980  10.803   3.181   7.550 -1.0909 -0.7122 -1.1153
  252MOL0     H33981  10.558   3.190   7.537  3.7770 -1.0724  2.5065
  252MOL0     H33982  10.100   3.453   7.465  0.5175  1.5140  0.7482
  252MOL0     H33983   9.868   3.440   7.522 -0.1116 -0.3796 -1.6525
  252MOL0     H33984   9.757   3.064   7.600 -1.9001 -2.4253 -5.9118
  252MOL0     H33985   9.603   3.123   7.657 -2.7535  2.7766 -0.7842
  252MOL0     H33986   9.758   3.227   7.413  0.1991  1.6985  1.4145
  252MOL0     H33987   9.652   3.087   7.401  0.8892 -0.6580  0.3056
  252MOL0     H33988   9.569   3.359   7.504 -1.1548 -0.2969 -1.1401
  252MOL0     H33989   9.549   3.328   7.336 -0.8991  0.8650  0.3506
  252MOL0     H33990   9.328   3.297   7.456 -0.4855 -1.2813 -1.4740
  252MOL0     H33991   9.413   3.165   7.554 -2.8371  0.0853  0.5658
  252MOL0     H33992   9.461   3.052   7.328 -0.1634  1.1621 -0.3681
  252MOL0     H33993   9.419   3.192   7.242  2.0543  0.1529  0.9872
  252MOL0     H33994   9.202   3.028   7.399 -5.2693 -0.8601 -2.2777
  252MOL0     H33995   9.164   3.154   7.299 -2.2077 -2.4621 -1.5681
  252MOL0     H33996   9.311   3.026   7.112 -0.0145 -0.9324 -0.1874
  252MOL0     H33997   9.145   2.972   7.148  0.8948  0.4075 -3.7365
  252MOL0     H33998   9.306   2.786   7.126  0.3428  0.9234  0.2417
  252MOL0     H33999   9.410   2.851   7.264  1.4175 -2.5793 -0.5759
  252MOL0     H34000   9.949   3.128   7.814 -0.7915  0.5771  0.5149
  252MOL0     H34001  10.181   3.152   7.772 -0.6927  2.3669  2.3928
  252MOL0     H34002  10.544   3.596   7.616 -1.4123 -1.7469  2.0423
  252MOL0     H34003  10.803   3.602   7.608 -2.8037  0.9264  3.9359
  252MOL0     H34004  11.362   3.161   6.490  0.2222 -0.3888  0.5274
  252MOL0     H34005  11.224   2.982   6.453  2.0570 -0.4282  1.8116
  252MOL0     H34006  10.786   2.836   6.706  3.0656 -1.3225  0.9862
  252MOL0     H34007  10.582   2.683   6.712 -2.9998 -0.2393 -1.8530
  252MOL0     H34008  10.521   2.477   6.725 -2.1052  1.3244  2.5116
  252MOL0     H34009  10.381   2.388   6.644 -1.2465  0.1681 -1.2410
  252MOL0     H34010  10.257   2.593   6.613  2.5563  1.6416 -2.5232
  252MOL0     H34011  10.371   2.698   6.682 -1.4919 -0.5235  0.2072
  252MOL0     H34012  10.360   2.595   6.897 -0.9784  1.7394  1.5276
  252MOL0     H34013  10.237   2.475   6.831 -2.7007  1.3487  2.6557
  252MOL0     H34014  10.152   2.666   6.971  0.0265  0.0295  0.7445
  252MOL0     H34015  10.208   2.770   6.831  0.7788 -0.2638 -0.0667
  252MOL0     H34016   9.872   2.575   6.651 -0.3998 -0.9723  0.2807
  252MOL0     H34017  10.599   2.584   6.315 -1.1836 -0.2039  1.7231
  252MOL0     H34018  10.751   2.832   6.188  0.9312  0.0698  0.5517
  252MOL0     H34019  10.911   2.772   6.241  0.6410 -2.0625 -1.2765
  252MOL0     H34020  10.785   2.655   6.201  1.9746  0.0337 -0.8446
  253MOL0     O34021   5.163   7.708   7.825  0.1176 -0.1321 -0.1795
  253MOL0     C34022   5.096   7.654   7.732  0.2354  0.2432 -0.5618
  253MOL0     O34023   5.154   7.585   7.633  0.3561  0.0496  0.7656
  253MOL0     C34024   5.287   7.571   7.642 -0.8280  0.5449 -0.1966
  253MOL0     C34025   5.345   7.481   7.728 -0.1479  0.0059  0.3055
  253MOL0     C34026   5.485   7.470   7.731  0.4819  0.5928  0.0286
  253MOL0     C34027   5.566   7.552   7.654  0.4132  0.2629  0.3301
  253MOL0     O34028   5.701   7.554   7.660  0.7953 -1.1159  0.2580
  253MOL0     C34029   5.764   7.428   7.653  0.9800  0.3875 -0.7588
  253MOL0     C34030   5.909   7.445   7.694 -0.2541  0.8706 -0.3779
  253MOL0     C34031   5.932   7.434   7.842  0.5316  0.8528 -1.0187
  253MOL0     C34032   6.060   7.508   7.881 -0.1080 -0.4518 -0.8160
  253MOL0     C34033   6.119   7.466   8.014  0.0600 -0.3050 -0.0435
  253MOL0     C34034   6.171   7.326   8.001  0.4574  1.5361 -0.5098
  253MOL0     C34035   6.300   7.296   8.088  0.6671 -0.0016 -0.2867
  253MOL0     C34036   6.426   7.350   8.023 -1.0913 -0.2371  0.6021
  253MOL0     N34037   6.542   7.312   8.110  0.0782  0.0837  0.6313
  253MOL0     C34038   6.626   7.207   8.081  0.0018 -0.1365 -0.1510
  253MOL0     C34039   6.725   7.195   8.179 -0.4897 -0.3989  0.4539
  253MOL0     C34040   6.835   7.093   8.170 -0.7313 -0.3201 -0.3944
  253MOL0     C34041   6.935   7.120   8.272 -0.2739 -0.5586 -0.3425
  253MOL0     C34042   6.907   7.082   8.423 -0.4086  0.3846 -0.0242
  253MOL0     C34043   7.026   7.024   8.505 -0.3190 -0.4454 -0.2090
  253MOL0     O34044   7.120   7.129   8.537 -0.2178 -0.1641 -0.4523
  253MOL0     C34045   7.251   7.087   8.516 -0.1217  0.1536 -0.5091
  253MOL0     C34046   7.343   7.184   8.474 -0.3165  0.3136  0.2517
  253MOL0     C34047   7.474   7.158   8.451 -0.9023  0.1565  1.1720
  253MOL0     C34048   7.524   7.018   8.463 -0.2172  0.0275  1.4898
  253MOL0     C34049   7.664   6.977   8.433  0.6135  0.1399  0.1717
  253MOL0     O34050   7.706   6.853   8.469  0.1497  0.3921  0.4324
  253MOL0     C34051   7.848   6.832   8.459  0.9872  0.0607 -0.1414
  253MOL0     C34052   7.920   6.840   8.332  0.6780 -0.9401  0.0140
  253MOL0     C34053   8.056   6.823   8.334 -0.6666  0.8503 -0.1661
  253MOL0     C34054   8.128   6.793   8.449 -0.7494  0.1296  0.2818
  253MOL0     O34055   8.261   6.769   8.451  1.0374  0.5884  0.3336
  253MOL0     C34056   8.330   6.740   8.327  0.0166 -0.3413  0.1726
  253MOL0     C34057   8.471   6.701   8.345 -0.5425 -0.3009  0.9300
  253MOL0     C34058   8.517   6.568   8.399  0.2574  0.7916  0.1869
  253MOL0     C34059   8.634   6.503   8.337  0.4112  0.8822 -0.4204
  253MOL0     C34060   8.769   6.556   8.386  0.1963  0.1944 -0.4738
  253MOL0     C34061   8.878   6.538   8.284 -1.2573  0.1565 -0.4627
  253MOL0     C34062   8.928   6.394   8.278 -0.3863 -1.6445  0.7629
  253MOL0     C34063   9.032   6.379   8.161  0.9602  0.9013 -0.9398
  253MOL0    Cl34064   9.162   6.493   8.179 -0.0902  0.1005  0.4699
  253MOL0     C34065   8.054   6.780   8.568 -0.0382  0.0055 -0.6937
  253MOL0     C34066   7.916   6.792   8.577 -0.2999 -0.2093 -0.5838
  253MOL0     O34067   7.731   7.069   8.391  0.3530  0.6434  0.0132
  253MOL0     C34068   7.434   6.927   8.523  0.5650  0.2348 -0.1831
  253MOL0     C34069   7.297   6.956   8.538  0.0002 -0.2550  0.4916
  253MOL0     N34070   6.694   7.303   8.257  0.1083  0.1688 -0.2578
  253MOL0     N34071   6.593   7.375   8.219 -0.8080 -0.4270 -0.0374
  253MOL0     C34072   5.506   7.648   7.568  0.0299  0.0466  0.6740
  253MOL0     C34073   5.363   7.663   7.565 -0.5447 -0.6503  0.4595
  253MOL0     C34074   4.952   7.622   7.735  0.9486 -0.1402 -0.0738
  253MOL0     C34075   4.878   7.633   7.618  0.6657  0.5307 -0.0203
  253MOL0     C34076   4.743   7.612   7.609  0.3718  0.9875 -0.0228
  253MOL0     C34077   4.676   7.569   7.724  0.2397 -0.0298  0.4508
  253MOL0     O34078   4.545   7.546   7.720  0.7858 -0.0781  0.2545
  253MOL0     C34079   4.458   7.661   7.751  0.2985  0.3114  0.1244
  253MOL0     C34080   4.341   7.659   7.656  0.2111  0.1619 -0.5908
  253MOL0     C34081   4.269   7.786   7.683 -0.5331  0.2309 -0.8572
  253MOL0     C34082   4.167   7.766   7.798 -0.0492 -0.1347  0.9094
  253MOL0     C34083   4.082   7.888   7.808 -0.4429 -0.7701  0.6026
  253MOL0     C34084   4.034   8.001   7.822  0.4222  0.4212 -0.1009
  253MOL0     C34085   4.746   7.550   7.840  0.2897  0.5253 -0.4806
  253MOL0     C34086   4.887   7.581   7.852 -0.1345  0.1734 -0.1319
  253MOL0     C34087   4.961   7.543   7.980  0.6747  0.3825 -0.1968
  253MOL0     H34088   5.278   7.427   7.794  1.4398  0.1317  2.1255
  253MOL0     H34089   5.527   7.395   7.797 -1.9104 -0.4210  0.5321
  253MOL0     H34090   5.727   7.357   7.728  0.7335  1.3009 -0.0020
  253MOL0     H34091   5.758   7.397   7.548  0.6083  0.5615 -0.7905
  253MOL0     H34092   5.948   7.540   7.657 -0.3455  1.4545  0.9617
  253MOL0     H34093   5.972   7.370   7.646  0.9145  1.7798 -0.3171
  253MOL0     H34094   5.936   7.327   7.863  3.4225 -0.0328 -4.8921
  253MOL0     H34095   5.847   7.471   7.900 -0.6110 -2.3716 -0.4312
  253MOL0     H34096   6.140   7.502   7.807  1.6080  1.4836  0.7763
  253MOL0     H34097   6.032   7.614   7.888 -0.3186 -0.3270 -2.9155
  253MOL0     H34098   6.206   7.528   8.036  0.9463 -1.3057 -0.6883
  253MOL0     H34099   6.036   7.467   8.086 -1.7213 -1.3987 -1.9851
  253MOL0     H34100   6.087   7.264   8.033  0.1769  1.5005 -1.2736
  253MOL0     H34101   6.196   7.292   7.900  1.1179  0.4475  0.0031
  253MOL0     H34102   6.305   7.188   8.106  0.1415  0.1795  1.0418
  253MOL0     H34103   6.274   7.343   8.183  0.0780 -0.6237 -0.1255
  253MOL0     H34104   6.434   7.302   7.925 -0.4728  1.6363 -0.3187
  253MOL0     H34105   6.413   7.458   8.010 -2.0929 -0.6723 -3.9848
  253MOL0     H34106   6.620   7.136   8.000 -1.0937  0.2217 -0.4089
  253MOL0     H34107   6.791   6.994   8.186 -2.2848  0.7674  2.7871
  253MOL0     H34108   6.890   7.085   8.075  0.2954 -2.0678  0.3047
  253MOL0     H34109   7.027   7.065   8.250 -1.5470 -2.6014 -0.9582
  253MOL0     H34110   6.958   7.226   8.269  2.5755 -1.0978 -0.0684
  253MOL0     H34111   6.839   6.996   8.420  0.5158 -0.3687  0.4496
  253MOL0     H34112   6.859   7.162   8.481 -0.8823 -0.8677  1.3592
  253MOL0     H34113   7.060   6.937   8.448  1.1472 -0.0440  0.0343
  253MOL0     H34114   6.996   6.989   8.605 -0.6565 -0.6809 -0.3892
  253MOL0     H34115   7.315   7.289   8.467 -1.1517  0.1217  0.5789
  253MOL0     H34116   7.542   7.232   8.410 -0.3707 -1.6385 -1.3990
  253MOL0     H34117   7.882   6.864   8.233 -0.5348 -0.5091  0.5662
  253MOL0     H34118   8.108   6.833   8.239  1.0063 -0.9599  0.4919
  253MOL0     H34119   8.288   6.659   8.266  1.6154 -1.8427  0.9754
  253MOL0     H34120   8.330   6.819   8.251  0.0832  0.0170  0.5473
  253MOL0     H34121   8.516   6.721   8.247 -1.7718  1.6498  0.6958
  253MOL0     H34122   8.512   6.773   8.417 -2.1849 -0.2518  1.8611
  253MOL0     H34123   8.539   6.571   8.506 -0.8976  1.5495  0.4196
  253MOL0     H34124   8.430   6.502   8.389 -0.4364  1.7080  0.0833
  253MOL0     H34125   8.606   6.511   8.232 -1.3662 -1.6906 -0.2355
  253MOL0     H34126   8.626   6.400   8.373 -5.5381  2.3716  4.0528
  253MOL0     H34127   8.794   6.513   8.483  0.3016 -1.1384 -1.0689
  253MOL0     H34128   8.757   6.663   8.407  1.5018 -0.1765  2.6686
  253MOL0     H34129   8.846   6.572   8.185  1.1024  2.5999 -0.4953
  253MOL0     H34130   8.953   6.605   8.327 -1.9181 -1.3771  3.6089
  253MOL0     H34131   8.841   6.328   8.268 -0.9330 -0.9879  1.0774
  253MOL0     H34132   8.968   6.363   8.375 -2.4910 -4.9548  0.7361
  253MOL0     H34133   9.065   6.275   8.153 -2.8074 -0.6703  1.0307
  253MOL0     H34134   8.978   6.401   8.069 -3.4358 -0.4081  1.0610
  253MOL0     H34135   8.099   6.738   8.657 -0.2389 -2.8105 -1.8277
  253MOL0     H34136   7.857   6.773   8.666  1.7628 -1.9917  0.4849
  253MOL0     H34137   7.469   6.825   8.532  2.0737  0.6817 -0.6409
  253MOL0     H34138   7.241   6.876   8.585  2.3746 -0.9377  2.3716
  253MOL0     H34139   5.565   7.725   7.519  0.9224 -0.4542  0.9330
  253MOL0     H34140   5.312   7.738   7.506 -0.4178  0.3710  1.6049
  253MOL0     H34141   4.936   7.653   7.528  1.5545  0.3799  0.5054
  253MOL0     H34142   4.682   7.629   7.521  1.5208  1.2859 -0.7784
  253MOL0     H34143   4.514   7.754   7.741  0.0258  0.2597 -2.3881
  253MOL0     H34144   4.430   7.642   7.856  1.7487 -1.6686  0.2204
  253MOL0     H34145   4.282   7.568   7.672 -0.9939  1.2058  1.2847
  253MOL0     H34146   4.379   7.659   7.554  1.7281  2.1578 -0.0933
  253MOL0     H34147   4.218   7.825   7.595  1.3277 -1.2171 -2.6941
  253MOL0     H34148   4.340   7.861   7.718 -0.5179 -1.5295  3.6272
  253MOL0     H34149   4.097   7.684   7.782 -0.5483  0.5955 -0.7949
  253MOL0     H34150   4.230   7.766   7.888 -0.4755  4.9236  1.5068
  253MOL0     H34151   3.991   8.097   7.843 -1.3662 -0.7569  1.9791
  253MOL0     H34152   4.701   7.522   7.934 -0.6389  0.0581 -1.0497
  253MOL0     H34153   5.038   7.466   7.968  2.4875  2.1678 -0.3542
  253MOL0     H34154   5.013   7.632   8.017  1.2410  0.3081 -0.8073
  253MOL0     H34155   4.884   7.509   8.051  1.1131 -0.5672 -0.1560
  254MOL0     O34156  10.362   5.037   8.822  0.9178  0.1471 -0.1195
  254MOL0     C34157  10.403   5.105   8.726 -0.1531  0.0593  0.2911
  254MOL0     O34158  10.330   5.144   8.620  0.1242 -0.7062 -0.2782
  254MOL0     C34159  10.197   5.116   8.614  0.4904 -0.1269 -0.0645
  254MOL0     C34160  10.154   5.000   8.543  0.0437  0.6155 -0.2919
  254MOL0     C34161  10.014   4.981   8.529 -0.4820 -0.1338 -0.4523
  254MOL0     C34162   9.924   5.079   8.579 -0.0548  0.4686 -0.0359
  254MOL0     O34163   9.790   5.071   8.551 -0.4150  0.1801 -1.2272
  254MOL0     C34164   9.731   4.999   8.438 -0.3877 -0.0159 -0.2267
  254MOL0     C34165   9.586   5.039   8.453  0.4080 -0.3088  0.3505
  254MOL0     C34166   9.540   5.188   8.424 -0.4117 -0.7726 -0.1588
  254MOL0     C34167   9.537   5.216   8.273  0.2385 -0.4660  0.2988
  254MOL0     C34168   9.544   5.360   8.224 -0.1973 -0.5356 -0.3283
  254MOL0     C34169   9.421   5.447   8.266  0.5740 -0.3865 -0.2905
  254MOL0     C34170   9.417   5.574   8.186  0.7982 -0.1715  0.1723
  254MOL0     C34171   9.468   5.681   8.275 -0.5822  0.0991  0.5343
  254MOL0     N34172   9.494   5.807   8.208  0.3396  0.2456 -0.0507
  254MOL0     C34173   9.604   5.836   8.132 -1.4368 -0.3890 -0.1219
  254MOL0     C34174   9.585   5.973   8.113  0.0861 -0.8737 -0.1660
  254MOL0     C34175   9.676   6.080   8.054  0.4494  0.5650  0.0847
  254MOL0     C34176   9.815   6.084   8.122 -0.1360 -0.0907  0.5356
  254MOL0     C34177   9.904   5.953   8.109  0.2498  0.1720  0.2949
  254MOL0     C34178  10.049   5.989   8.095 -0.2079 -0.7070 -0.2248
  254MOL0     O34179  10.131   5.875   8.060 -0.0850 -0.1527 -0.5991
  254MOL0     C34180  10.187   5.806   8.168  0.6858 -0.1040 -0.4999
  254MOL0     C34181  10.270   5.694   8.140  0.3616  0.3821  0.5695
  254MOL0     C34182  10.337   5.637   8.245 -0.1234  0.6769  0.0717
  254MOL0     C34183  10.311   5.666   8.381 -0.2343  0.0821  0.1638
  254MOL0     C34184  10.370   5.580   8.491  0.0716 -0.0336  0.5413
  254MOL0     O34185  10.304   5.593   8.612 -0.0879 -0.6979  0.0874
  254MOL0     C34186  10.355   5.554   8.729  0.2126  0.3414  1.4246
  254MOL0     C34187  10.479   5.496   8.748  0.2087 -0.3406  0.5521
  254MOL0     C34188  10.529   5.449   8.872 -0.4848 -1.0576 -0.2398
  254MOL0     C34189  10.449   5.478   8.990 -0.7721  1.2294 -0.5275
  254MOL0     O34190  10.499   5.439   9.112 -0.3950 -0.1694 -0.0552
  254MOL0     C34191  10.636   5.409   9.135  0.4318  0.4087  0.2569
  254MOL0     C34192  10.651   5.344   9.274  0.1469 -0.0917 -0.1113
  254MOL0     C34193  10.588   5.439   9.385  0.0608 -0.9081  0.0095
  254MOL0     C34194  10.658   5.435   9.527  0.3653  0.3210  0.6567
  254MOL0     C34195  10.640   5.304   9.606  0.0786 -0.0645 -0.8552
  254MOL0     C34196  10.771   5.273   9.694  0.6712 -0.2432 -0.3364
  254MOL0     C34197  10.774   5.150   9.779  0.4375  0.5857 -0.5340
  254MOL0     C34198  10.786   5.027   9.697 -1.2772  0.0717 -0.5201
  254MOL0    Cl34199  10.847   4.886   9.794  0.2408 -0.1734 -0.6862
  254MOL0     C34200  10.324   5.532   8.970  0.5685 -0.4855  0.3171
  254MOL0     C34201  10.278   5.556   8.842 -0.5781 -0.9097  0.7773
  254MOL0     O34202  10.459   5.496   8.459  0.8805  0.0719  0.6612
  254MOL0     C34203  10.215   5.771   8.406  0.5219 -0.6072  0.0332
  254MOL0     C34204  10.155   5.849   8.306 -0.7643 -0.5620  0.7267
  254MOL0     N34205   9.469   6.017   8.174  0.8438  0.2756 -0.6252
  254MOL0     N34206   9.411   5.919   8.224 -0.2592  0.9249  0.4063
  254MOL0     C34207   9.973   5.189   8.645 -0.1756  0.8157 -0.0671
  254MOL0     C34208  10.109   5.211   8.656  0.6226  0.3882 -0.9131
  254MOL0     C34209  10.557   5.125   8.714  0.8128 -0.1508  0.6154
  254MOL0     C34210  10.609   5.181   8.594 -0.0057 -0.0882  0.8240
  254MOL0     C34211  10.745   5.209   8.572 -0.1100  0.3067 -0.5468
  254MOL0     C34212  10.837   5.182   8.678  0.3990  1.0613 -0.1605
  254MOL0     O34213  10.971   5.175   8.667  0.5357 -0.0303  0.4208
  254MOL0     C34214  11.030   5.173   8.533 -0.5263  0.5803  0.3263
  254MOL0     C34215  11.162   5.091   8.537 -0.6823 -1.1239 -0.5781
  254MOL0     C34216  11.159   4.959   8.625 -0.5272  0.4048  0.0605
  254MOL0     C34217  11.293   4.904   8.675 -0.6883  0.3320  0.4844
  254MOL0     C34218  11.309   4.761   8.675  0.1693 -0.4897  0.6688
  254MOL0     C34219  11.306   4.644   8.685 -0.2062  0.2887 -0.0061
  254MOL0     C34220  10.786   5.139   8.798 -0.4893  0.4179  0.9422
  254MOL0     C34221  10.649   5.105   8.818 -1.0405 -0.2488  0.3709
  254MOL0     C34222  10.615   5.044   8.958  0.3187 -0.1193 -0.9064
  254MOL0     H34223  10.227   4.934   8.496  1.3048 -0.5797  3.0095
  254MOL0     H34224   9.977   4.901   8.466  0.6679 -0.1939 -1.0667
  254MOL0     H34225   9.770   5.035   8.343  1.5946  1.6492  1.1155
  254MOL0     H34226   9.747   4.892   8.454 -0.8086 -0.3694 -1.9672
  254MOL0     H34227   9.553   5.028   8.557 -1.8354 -1.8948 -0.4566
  254MOL0     H34228   9.520   4.970   8.400  1.0961 -1.4510  0.9286
  254MOL0     H34229   9.599   5.268   8.470  0.4171 -0.2570 -2.0274
  254MOL0     H34230   9.448   5.209   8.479  0.8015  1.9940  1.0401
  254MOL0     H34231   9.623   5.165   8.228  1.5315  2.2949 -0.5775
  254MOL0     H34232   9.440   5.177   8.241 -0.5708  1.2191  0.5601
  254MOL0     H34233   9.637   5.406   8.259  1.0880 -1.3084 -2.5491
  254MOL0     H34234   9.557   5.342   8.117  3.3265 -2.2604  0.2520
  254MOL0     H34235   9.325   5.398   8.246 -0.2147  1.4000 -1.0386
  254MOL0     H34236   9.431   5.465   8.373 -3.1163  2.3439 -0.2472
  254MOL0     H34237   9.310   5.582   8.161  0.6722 -0.0058  0.7598
  254MOL0     H34238   9.477   5.562   8.095  1.6815 -1.3639  0.8820
  254MOL0     H34239   9.395   5.699   8.354 -0.3906  0.5614  0.6084
  254MOL0     H34240   9.561   5.649   8.324 -0.4252 -1.8933 -0.9233
  254MOL0     H34241   9.671   5.775   8.073 -1.7471  0.0516 -0.9393
  254MOL0     H34242   9.686   6.056   7.948 -1.9567  2.4619 -0.6760
  254MOL0     H34243   9.625   6.177   8.057 -0.0156  0.4165 -1.8619
  254MOL0     H34244   9.864   6.173   8.081  0.0056  0.3072  1.5557
  254MOL0     H34245   9.808   6.115   8.227 -4.1422 -0.2062  0.4418
  254MOL0     H34246   9.870   5.901   8.020  2.8935  0.5190 -0.9957
  254MOL0     H34247   9.880   5.889   8.194  3.9498 -0.8678  0.7325
  254MOL0     H34248  10.095   6.046   8.177  0.7794 -0.4170 -0.9654
  254MOL0     H34249  10.060   6.057   8.010 -0.1077  1.3205  1.3183
  254MOL0     H34250  10.313   5.666   8.045 -1.8817 -0.1678 -0.3388
  254MOL0     H34251  10.400   5.551   8.222  0.6781  0.0801  3.8372
  254MOL0     H34252  10.555   5.488   8.671  1.3129 -0.7757  1.6499
  254MOL0     H34253  10.622   5.395   8.880  1.2261  1.7446  0.3290
  254MOL0     H34254  10.677   5.337   9.063 -1.1829  0.0419 -0.3428
  254MOL0     H34255  10.687   5.505   9.129 -2.3400  1.9460 -0.2938
  254MOL0     H34256  10.600   5.247   9.283  0.9191 -0.4073  1.1693
  254MOL0     H34257  10.754   5.336   9.310  0.2499  0.3572 -0.3050
  254MOL0     H34258  10.590   5.542   9.345 -0.9889 -0.6219  0.6784
  254MOL0     H34259  10.482   5.415   9.394 -0.4450  0.7577 -0.9377
  254MOL0     H34260  10.603   5.513   9.580 -0.6507  1.5624 -2.0521
  254MOL0     H34261  10.761   5.471   9.524 -0.4972  3.0204  1.0149
  254MOL0     H34262  10.622   5.226   9.532  0.1307  1.7035 -2.8112
  254MOL0     H34263  10.553   5.318   9.670  1.7909 -2.4363  2.3081
  254MOL0     H34264  10.860   5.273   9.630  1.6312 -2.1662  0.9250
  254MOL0     H34265  10.782   5.361   9.758  0.0239  2.0040 -3.1053
  254MOL0     H34266  10.688   5.142   9.847 -0.2015  1.5906 -1.1981
  254MOL0     H34267  10.869   5.155   9.834 -0.5504  1.4133  1.2133
  254MOL0     H34268  10.686   4.995   9.666 -0.8267 -3.1249  0.9433
  254MOL0     H34269  10.848   5.052   9.611  0.1114  1.1876  0.7410
  254MOL0     H34270  10.254   5.558   9.049 -0.3632  0.1914 -0.7034
  254MOL0     H34271  10.182   5.600   8.818  0.4888  0.1646 -1.8589
  254MOL0     H34272  10.195   5.803   8.508  0.7372 -0.6373  0.0864
  254MOL0     H34273  10.081   5.925   8.328 -0.7202 -0.4671  0.5479
  254MOL0     H34274   9.911   5.261   8.696  2.7718 -0.6388  6.7183
  254MOL0     H34275  10.142   5.296   8.714  1.7058 -1.0168  0.6544
  254MOL0     H34276  10.537   5.211   8.518 -0.7302 -1.6989  0.8437
  254MOL0     H34277  10.783   5.236   8.474  1.5291  1.1771  0.2852
  254MOL0     H34278  11.050   5.268   8.481 -4.5071  2.0646  1.1684
  254MOL0     H34279  10.960   5.121   8.467 -1.4308 -1.4116  2.7264
  254MOL0     H34280  11.247   5.153   8.567  0.9628 -3.9701  1.2470
  254MOL0     H34281  11.183   5.057   8.436 -0.7970 -0.8216 -0.7040
  254MOL0     H34282  11.122   4.878   8.562 -0.5640 -1.2675  2.1570
  254MOL0     H34283  11.093   4.956   8.712  1.5599 -4.9594  1.8687
  254MOL0     H34284  11.368   4.942   8.605 -0.1080  1.0660  1.4702
  254MOL0     H34285  11.304   4.938   8.779  2.0990  0.2141  0.2924
  254MOL0     H34286  11.288   4.542   8.713 -0.9853  0.4389  0.0434
  254MOL0     H34287  10.858   5.111   8.873 -0.1305 -1.4616 -0.0521
  254MOL0     H34288  10.528   5.102   8.991  0.7394 -0.9469  1.9144
  254MOL0     H34289  10.570   4.944   8.962  0.3629 -0.1138  2.1129
  254MOL0     H34290  10.708   5.051   9.015 -0.0211  0.7393 -0.4325
  255MOL0     O34291   4.731   6.260   1.583  0.1145  0.7594 -0.2991
  255MOL0     C34292   4.754   6.269   1.461  0.3983 -1.0743 -0.3291
  255MOL0     O34293   4.819   6.373   1.407 -0.6558 -0.9282 -0.4501
  255MOL0     C34294   4.909   6.440   1.493 -0.6882  0.6397  0.0855
  255MOL0     C34295   4.880   6.565   1.530  0.0315 -0.9667 -0.0035
  255MOL0     C34296   4.964   6.633   1.619 -0.5277 -0.7082 -0.9554
  255MOL0     C34297   5.082   6.575   1.670 -0.4716  0.2001  0.4597
  255MOL0     O34298   5.173   6.629   1.760 -0.2677  0.1319  0.2087
  255MOL0     C34299   5.172   6.769   1.780  0.0489 -0.9268 -0.2322
  255MOL0     C34300   5.298   6.806   1.855 -0.2059 -0.2356  0.7765
  255MOL0     C34301   5.292   6.773   2.004  0.3835  0.9769  0.0055
  255MOL0     C34302   5.432   6.754   2.065 -0.2996  0.9409  0.9186
  255MOL0     C34303   5.436   6.696   2.212 -0.9458 -0.2559  1.3368
  255MOL0     C34304   5.567   6.744   2.280 -0.2244 -0.5622  0.2606
  255MOL0     C34305   5.564   6.693   2.421  0.0505 -0.4569  0.6147
  255MOL0     C34306   5.707   6.685   2.482  1.0408 -0.5927  0.0004
  255MOL0     N34307   5.788   6.590   2.407  0.1931 -0.8779 -0.3454
  255MOL0     C34308   5.761   6.456   2.397 -0.4550 -0.7904 -0.0867
  255MOL0     C34309   5.877   6.412   2.340 -0.2501 -0.0535 -0.1476
  255MOL0     C34310   5.911   6.266   2.329  0.5849  0.2500 -0.8663
  255MOL0     C34311   6.062   6.225   2.371  0.6324  0.0195 -0.7671
  255MOL0     C34312   6.184   6.272   2.300  0.2006 -0.7209  0.5824
  255MOL0     C34313   6.320   6.187   2.299 -0.1138  0.0299  0.3624
  255MOL0     O34314   6.389   6.222   2.419 -0.3788 -0.3015  0.1051
  255MOL0     C34315   6.518   6.172   2.436  0.4394  0.6805  0.4512
  255MOL0     C34316   6.617   6.147   2.345 -0.1259 -0.0162  0.8935
  255MOL0     C34317   6.749   6.092   2.382 -0.2117 -0.3838 -0.8668
  255MOL0     C34318   6.774   6.068   2.517  0.2424  0.3164 -0.8713
  255MOL0     C34319   6.905   6.008   2.552 -0.1635 -0.0226 -0.1016
  255MOL0     O34320   7.001   5.995   2.462  0.6360 -1.0137  0.7650
  255MOL0     C34321   7.104   5.899   2.482  0.1825 -0.1376  0.4485
  255MOL0     C34322   7.171   5.856   2.598  0.0136  0.3104  0.3617
  255MOL0     C34323   7.289   5.772   2.592  0.3626 -0.2062 -0.1686
  255MOL0     C34324   7.338   5.720   2.470 -0.2880 -0.2385 -0.7852
  255MOL0     O34325   7.445   5.638   2.461 -0.4415 -0.7875 -1.0073
  255MOL0     C34326   7.545   5.653   2.563  0.5869 -0.6019  0.0169
  255MOL0     C34327   7.653   5.545   2.531  0.0831  0.4351  0.4037
  255MOL0     C34328   7.700   5.561   2.376 -0.1557  0.9840 -1.2220
  255MOL0     C34329   7.793   5.445   2.354  0.5378  1.3349  0.1048
  255MOL0     C34330   7.866   5.448   2.215  0.6928 -0.4037 -0.2418
  255MOL0     C34331   8.011   5.487   2.237  1.2800 -0.1855 -0.8448
  255MOL0     C34332   8.098   5.464   2.110  0.3219  0.0008  0.0156
  255MOL0     C34333   8.091   5.594   2.033  0.5890  0.2931 -0.5405
  255MOL0    Cl34334   8.202   5.720   2.097  0.1323  0.2632 -0.1427
  255MOL0     C34335   7.275   5.776   2.355 -0.1124 -0.4904  0.0660
  255MOL0     C34336   7.157   5.858   2.359  1.1489  0.1464 -0.0001
  255MOL0     O34337   6.917   5.983   2.669  0.7436 -0.3405  0.0871
  255MOL0     C34338   6.674   6.092   2.616  0.4625  0.9576  0.2086
  255MOL0     C34339   6.545   6.135   2.575  0.0978 -0.5277  0.4305
  255MOL0     N34340   5.961   6.518   2.320 -0.1210  0.5933  0.6712
  255MOL0     N34341   5.899   6.625   2.340 -0.6089  0.0422  0.2891
  255MOL0     C34342   5.109   6.445   1.621 -0.8076 -0.7159  0.4500
  255MOL0     C34343   5.013   6.381   1.549  0.0966 -0.1145  0.6455
  255MOL0     C34344   4.663   6.184   1.373 -0.7621 -0.2960 -0.0338
  255MOL0     C34345   4.597   6.251   1.274  0.2142  0.2676  0.0874
  255MOL0     C34346   4.512   6.178   1.188 -0.4601 -0.4514 -0.2251
  255MOL0     C34347   4.479   6.045   1.212 -0.9372 -0.0142 -0.4500
  255MOL0     O34348   4.394   5.971   1.144 -0.0157  0.2232 -0.4440
  255MOL0     C34349   4.296   6.030   1.057  0.1584 -0.9137  0.8003
  255MOL0     C34350   4.345   6.057   0.916  0.1527 -0.1208  0.1212
  255MOL0     C34351   4.218   6.097   0.827 -0.4633 -0.6200  0.3663
  255MOL0     C34352   4.271   6.135   0.683 -0.3468 -0.6486  0.0023
  255MOL0     C34353   4.368   6.244   0.682  0.8278 -0.8703 -0.6810
  255MOL0     C34354   4.453   6.328   0.661  0.7614  1.0852  0.0812
  255MOL0     C34355   4.549   5.981   1.309 -1.0288 -0.2064 -0.2269
  255MOL0     C34356   4.649   6.053   1.385 -0.5390 -0.3121 -0.0405
  255MOL0     C34357   4.712   5.962   1.490 -0.3474  0.6688 -0.5813
  255MOL0     H34358   4.799   6.610   1.473  1.6169  0.8316 -0.9430
  255MOL0     H34359   4.951   6.740   1.629 -0.2657 -0.5734 -1.8869
  255MOL0     H34360   5.177   6.824   1.685 -0.2403 -2.0529 -0.9242
  255MOL0     H34361   5.089   6.796   1.845 -0.7158 -0.3005 -1.4317
  255MOL0     H34362   5.294   6.915   1.854 -0.3589 -0.2151  2.1485
  255MOL0     H34363   5.393   6.783   1.807  0.3251 -2.1919  2.6376
  255MOL0     H34364   5.237   6.679   2.010 -0.1919  1.2132 -1.1851
  255MOL0     H34365   5.247   6.859   2.054  0.7627  0.3274  1.4986
  255MOL0     H34366   5.483   6.684   1.998 -1.4176  2.1187 -1.2759
  255MOL0     H34367   5.486   6.849   2.066 -0.4517  1.0556 -0.1729
  255MOL0     H34368   5.355   6.742   2.269 -2.1417  1.9308 -1.8343
  255MOL0     H34369   5.418   6.588   2.207 -3.2631  0.1370 -0.6864
  255MOL0     H34370   5.643   6.686   2.227  1.2350  0.0425  1.5997
  255MOL0     H34371   5.580   6.852   2.272 -0.1340 -0.6905 -1.8754
  255MOL0     H34372   5.531   6.589   2.416 -1.5294 -0.1242  2.6741
  255MOL0     H34373   5.501   6.754   2.487  0.8856 -0.4374  1.4341
  255MOL0     H34374   5.741   6.789   2.484 -1.7490  0.6900 -4.2996
  255MOL0     H34375   5.691   6.660   2.587 -1.3449  0.6526 -0.0172
  255MOL0     H34376   5.675   6.401   2.435 -1.4243  0.0786 -0.9526
  255MOL0     H34377   5.834   6.210   2.384  1.3951 -0.8740 -0.8323
  255MOL0     H34378   5.886   6.249   2.224 -3.2236  1.7259 -0.3723
  255MOL0     H34379   6.080   6.232   2.479 -1.8513  1.1067 -0.3629
  255MOL0     H34380   6.058   6.116   2.372 -2.7087 -0.1224  4.1751
  255MOL0     H34381   6.210   6.377   2.317 -0.7821  0.3256 -3.3437
  255MOL0     H34382   6.148   6.267   2.197 -1.4044 -2.1068  1.1592
  255MOL0     H34383   6.384   6.216   2.216 -0.0103 -1.6370 -0.1851
  255MOL0     H34384   6.303   6.080   2.284 -0.1178 -0.0570  0.9360
  255MOL0     H34385   6.610   6.159   2.237  0.9960  1.3043  0.9371
  255MOL0     H34386   6.822   6.075   2.303  0.4338 -2.3646  0.1075
  255MOL0     H34387   7.144   5.892   2.697 -0.4385 -2.2937  1.2934
  255MOL0     H34388   7.322   5.739   2.690 -2.9819  1.3712  1.6667
  255MOL0     H34389   7.565   5.760   2.562 -1.0573 -0.2200 -2.5362
  255MOL0     H34390   7.510   5.624   2.662  0.1822 -0.1796  0.0034
  255MOL0     H34391   7.738   5.560   2.598  0.7891  1.8670 -0.7558
  255MOL0     H34392   7.612   5.447   2.557 -1.3204  0.9592  0.1994
  255MOL0     H34393   7.612   5.545   2.313 -1.5405  1.0057  0.6239
  255MOL0     H34394   7.747   5.654   2.344  1.5227 -0.5864 -3.6732
  255MOL0     H34395   7.734   5.353   2.364  0.6181  0.9284 -2.5196
  255MOL0     H34396   7.865   5.444   2.436  0.3937 -0.4845  0.2489
  255MOL0     H34397   7.807   5.521   2.159 -0.9829  1.7908  3.8999
  255MOL0     H34398   7.859   5.347   2.174  1.7873 -0.5231 -0.1505
  255MOL0     H34399   8.028   5.586   2.280  1.6039 -0.9070  0.7661
  255MOL0     H34400   8.060   5.425   2.312  1.3160  0.9674  0.1151
  255MOL0     H34401   8.050   5.384   2.053 -1.1937  1.5027 -0.8938
  255MOL0     H34402   8.202   5.442   2.137  0.3582  1.2264  0.9347
  255MOL0     H34403   8.121   5.572   1.930  0.4864  1.5763 -0.8661
  255MOL0     H34404   7.987   5.626   2.022  0.3812 -0.6517 -1.4209
  255MOL0     H34405   7.307   5.752   2.254  1.7550  1.8365  0.0205
  255MOL0     H34406   7.105   5.885   2.267 -0.8738  0.5668  1.2096
  255MOL0     H34407   6.695   6.070   2.720  3.4410 -0.5651 -0.6012
  255MOL0     H34408   6.464   6.153   2.646 -0.2994 -2.7555  0.6109
  255MOL0     H34409   5.202   6.398   1.653 -0.2126 -0.7248 -1.1808
  255MOL0     H34410   5.029   6.280   1.512 -0.8428 -0.4816  1.2176
  255MOL0     H34411   4.615   6.357   1.262  1.3839  0.1699  0.8260
  255MOL0     H34412   4.478   6.231   1.100  1.4835  0.7796 -0.2972
  255MOL0     H34413   4.250   6.122   1.092  0.5620 -0.5607  0.4218
  255MOL0     H34414   4.219   5.953   1.049 -0.6069 -0.4185  2.8748
  255MOL0     H34415   4.401   5.972   0.876 -0.4784 -0.3309 -0.3268
  255MOL0     H34416   4.417   6.139   0.927 -0.8140  0.5852  1.6107
  255MOL0     H34417   4.161   6.174   0.879  0.7160 -0.3363  1.2729
  255MOL0     H34418   4.156   6.007   0.828  0.3665 -1.3804  4.8823
  255MOL0     H34419   4.316   6.049   0.631 -3.6364 -0.6960 -3.2117
  255MOL0     H34420   4.184   6.167   0.625  1.8910  1.1130 -2.6400
  255MOL0     H34421   4.519   6.412   0.669 -2.1496  3.4147  1.0742
  255MOL0     H34422   4.524   5.877   1.324  0.9521 -0.6087  0.6452
  255MOL0     H34423   4.760   5.885   1.429  2.1552  3.3894 -2.3173
  255MOL0     H34424   4.778   6.011   1.562 -0.6938 -1.4733  1.3373
  255MOL0     H34425   4.637   5.919   1.558  1.2970  1.0202  1.5460
  256MOL0     O34426  10.308   7.054   0.545 -0.9139  0.6928 -0.8248
  256MOL0     C34427  10.252   6.950   0.510 -0.0123 -0.3991  0.2078
  256MOL0     O34428  10.314   6.827   0.499 -0.1751  0.9614 -0.4176
  256MOL0     C34429  10.448   6.829   0.525  0.1789  0.8175  0.7996
  256MOL0     C34430  10.495   6.819   0.659  0.0916  0.5026 -0.4411
  256MOL0     C34431  10.636   6.839   0.679 -0.3912 -0.6110  0.9010
  256MOL0     C34432  10.724   6.866   0.569 -0.9478  1.5235 -0.7608
  256MOL0     O34433  10.853   6.889   0.601  0.3587 -0.3456 -0.4036
  256MOL0     C34434  10.951   6.886   0.499  0.1633 -0.0809 -0.0834
  256MOL0     C34435  11.096   6.880   0.558  0.3648 -0.9171 -0.0316
  256MOL0     C34436  11.120   6.759   0.634  0.0116 -0.5309  0.2503
  256MOL0     C34437  11.263   6.745   0.691 -0.1689  0.4178  0.4676
  256MOL0     C34438  11.285   6.606   0.764 -0.5809  0.8112 -0.0765
  256MOL0     C34439  11.259   6.472   0.680 -0.3758 -0.8708  0.0622
  256MOL0     C34440  11.297   6.338   0.756  0.7490 -0.3418 -0.0032
  256MOL0     C34441  11.182   6.238   0.759 -0.4571 -0.3904  0.6004
  256MOL0     N34442  11.170   6.150   0.641 -0.2601  0.1848  0.7887
  256MOL0     C34443  11.145   6.193   0.516  0.8873 -1.3555 -0.3180
  256MOL0     C34444  11.137   6.084   0.450  0.6596 -0.8984 -0.3990
  256MOL0     C34445  11.067   6.071   0.317  0.2164  0.2489  0.3934
  256MOL0     C34446  10.923   6.019   0.323 -1.2120 -0.3885  0.9476
  256MOL0     C34447  10.833   6.116   0.386 -0.3160 -0.3228  0.7861
  256MOL0     C34448  10.679   6.069   0.386 -0.2013  0.0889  0.1406
  256MOL0     O34449  10.629   6.055   0.252  0.1343  0.3661  0.1631
  256MOL0     C34450  10.502   6.003   0.232 -0.3731 -0.2717 -0.4930
  256MOL0     C34451  10.491   5.930   0.117  0.0380  0.0026  0.8193
  256MOL0     C34452  10.373   5.867   0.079 -0.5374  0.1997  0.1514
  256MOL0     C34453  10.259   5.874   0.167  0.6592 -0.9367  0.3229
  256MOL0     C34454  10.131   5.811   0.126 -0.1669 -0.2460 -0.4941
  256MOL0     O34455  10.124   5.764  -0.000 -0.2373  0.1820  0.3528
  256MOL0     C34456  10.011   5.700  -0.048  0.9168 -0.2221 -0.1585
  256MOL0     C34457   9.876   5.693   0.010  0.0016 -0.8503  0.3655
  256MOL0     C34458   9.771   5.624  -0.060 -0.3017 -0.6091  0.0361
  256MOL0     C34459   9.801   5.540  -0.164 -0.0687  0.3475  0.2230
  256MOL0     O34460   9.695   5.478  -0.224  0.2369 -0.1300 -0.1985
  256MOL0     C34461   9.719   5.366  -0.305 -0.5215 -0.0409  0.8300
  256MOL0     C34462   9.753   5.241  -0.216 -0.8449 -0.4078  0.4743
  256MOL0     C34463   9.819   5.135  -0.306  0.0933 -0.0184  0.0787
  256MOL0     C34464   9.892   5.021  -0.221  0.3223  0.7567 -0.1734
  256MOL0     C34465   9.820   4.882  -0.241 -0.3744 -0.3903  0.7652
  256MOL0     C34466   9.890   4.766  -0.172 -0.6974 -0.5478 -0.2270
  256MOL0     C34467   9.793   4.642  -0.153 -0.6159  0.3899 -0.2405
  256MOL0     C34468   9.872   4.520  -0.099 -0.1291 -0.0491  0.0369
  256MOL0    Cl34469   9.768   4.395  -0.024  0.3697 -0.0942 -0.3247
  256MOL0     C34470   9.934   5.540  -0.212  0.7287 -0.2609  0.8684
  256MOL0     C34471  10.031   5.623  -0.157 -0.2658  0.4376 -0.7076
  256MOL0     O34472  10.042   5.821   0.209  1.1205  0.0188  0.7920
  256MOL0     C34473  10.270   5.953   0.285 -0.0204  1.3418 -0.4173
  256MOL0     C34474  10.392   6.013   0.324 -0.5904 -0.5268  0.7766
  256MOL0     N34475  11.161   5.973   0.524 -0.3262 -0.5488 -0.4751
  256MOL0     N34476  11.191   6.015   0.640  0.7531  0.2854  0.0226
  256MOL0     C34477  10.668   6.868   0.438  0.5570  0.1702 -0.7494
  256MOL0     C34478  10.532   6.854   0.416  0.8083 -0.0972 -0.0226
  256MOL0     C34479  10.113   6.949   0.469  0.4976 -0.1131 -0.2795
  256MOL0     C34480  10.073   6.842   0.384 -0.1943 -0.9170  0.2469
  256MOL0     C34481   9.946   6.842   0.326 -0.7056 -0.2100 -0.2558
  256MOL0     C34482   9.853   6.936   0.356  0.7478  0.1392  1.2921
  256MOL0     O34483   9.723   6.911   0.303  0.4811 -0.2749  0.2769
  256MOL0     C34484   9.625   7.020   0.312  0.2869  0.1770  0.2361
  256MOL0     C34485   9.494   6.970   0.238  0.5429  0.4773  0.6052
  256MOL0     C34486   9.415   6.867   0.332  0.1384 -0.6069  0.2446
  256MOL0     C34487   9.273   6.853   0.282 -0.3453 -0.3551  0.3713
  256MOL0     C34488   9.263   6.758   0.175 -0.7966 -0.2846  0.0416
  256MOL0     C34489   9.247   6.681   0.084  0.5165  0.0004  0.6914
  256MOL0     C34490   9.889   7.040   0.439  0.1308 -0.1779  0.1891
  256MOL0     C34491  10.013   7.052   0.497  0.2020 -0.2987  0.3530
  256MOL0     C34492  10.046   7.170   0.581  0.6301  0.2105  0.3068
  256MOL0     H34493  10.426   6.799   0.741  0.1967  2.8333  0.2672
  256MOL0     H34494  10.676   6.830   0.779  0.8777 -3.4507  0.2239
  256MOL0     H34495  10.941   6.791   0.445 -1.1411  0.2925 -0.5377
  256MOL0     H34496  10.947   6.979   0.443  1.5437 -2.4367 -4.6356
  256MOL0     H34497  11.101   6.967   0.623 -2.7103  0.9871 -2.0416
  256MOL0     H34498  11.167   6.899   0.477  0.6329 -0.7475  0.2410
  256MOL0     H34499  11.117   6.673   0.565  0.1069 -1.2547  1.1296
  256MOL0     H34500  11.045   6.757   0.714  0.3607 -0.0991  0.5878
  256MOL0     H34501  11.331   6.779   0.613  0.3475  3.3375  2.0303
  256MOL0     H34502  11.283   6.821   0.767  1.7202  0.0673  0.3763
  256MOL0     H34503  11.381   6.607   0.818  0.6623 -0.7242 -2.1279
  256MOL0     H34504  11.211   6.597   0.844 -0.1353 -0.7631  0.1950
  256MOL0     H34505  11.152   6.470   0.656 -0.7375 -3.3395  1.5257
  256MOL0     H34506  11.314   6.477   0.585  2.6848  1.0875  1.7895
  256MOL0     H34507  11.304   6.355   0.864  0.8630  0.6580 -0.1608
  256MOL0     H34508  11.379   6.283   0.710  0.1880 -1.7558  0.6371
  256MOL0     H34509  11.207   6.164   0.836 -0.5108  0.5578  1.5568
  256MOL0     H34510  11.092   6.295   0.785 -0.1655  1.2004 -1.5862
  256MOL0     H34511  11.124   6.295   0.486 -1.2388 -1.1416  1.6313
  256MOL0     H34512  11.078   6.168   0.267  4.3574  0.3299  1.1492
  256MOL0     H34513  11.121   6.004   0.249  0.5923  3.1255 -2.4010
  256MOL0     H34514  10.886   6.001   0.222 -1.1349  0.0938  0.8301
  256MOL0     H34515  10.926   5.925   0.380 -2.7908 -0.4178  1.0185
  256MOL0     H34516  10.835   6.195   0.312 -2.2529 -0.9808 -0.0379
  256MOL0     H34517  10.864   6.163   0.480 -0.7631  0.3309  0.6108
  256MOL0     H34518  10.618   6.145   0.437 -1.1240 -0.1106 -0.6233
  256MOL0     H34519  10.671   5.975   0.441 -3.6586 -0.6913 -1.4067
  256MOL0     H34520  10.575   5.934   0.049 -0.3158  0.5603  0.4082
  256MOL0     H34521  10.381   5.804  -0.009 -0.1798 -1.2614  1.1939
  256MOL0     H34522   9.843   5.733   0.105 -1.2863 -2.6047  0.7187
  256MOL0     H34523   9.671   5.622  -0.017 -1.0465  5.1875 -0.5593
  256MOL0     H34524   9.630   5.347  -0.366  0.9766 -2.0344 -0.9307
  256MOL0     H34525   9.785   5.386  -0.390 -2.3165  5.2050  0.3451
  256MOL0     H34526   9.841   5.272  -0.158  0.1054  2.1658 -2.1120
  256MOL0     H34527   9.675   5.197  -0.153 -0.6466  1.0530  1.8001
  256MOL0     H34528   9.738   5.087  -0.362  0.5314 -0.4056 -0.2300
  256MOL0     H34529   9.884   5.188  -0.376  0.5710 -0.0385  0.5057
  256MOL0     H34530   9.891   5.049  -0.115  2.8208  1.7702 -0.3432
  256MOL0     H34531   9.998   5.010  -0.247  0.2264 -0.2484 -0.1689
  256MOL0     H34532   9.804   4.866  -0.348 -1.3131  1.0058  0.6664
  256MOL0     H34533   9.730   4.914  -0.187  0.2865  3.7566 -0.2689
  256MOL0     H34534   9.982   4.744  -0.226 -0.3733  0.7807 -0.2477
  256MOL0     H34535   9.906   4.798  -0.069 -2.3504 -0.3656  0.0052
  256MOL0     H34536   9.757   4.610  -0.252 -1.0101  1.8294 -0.5904
  256MOL0     H34537   9.701   4.655  -0.096 -2.4189 -2.8667 -2.0879
  256MOL0     H34538   9.908   4.478  -0.193 -0.5551 -0.7111  0.1585
  256MOL0     H34539   9.956   4.549  -0.035 -1.4186  0.5964  1.5178
  256MOL0     H34540   9.956   5.487  -0.304 -2.1258  2.9131 -1.9069
  256MOL0     H34541  10.133   5.621  -0.194 -0.4503 -1.8688 -1.2503
  256MOL0     H34542  10.195   5.979   0.360 -1.7915 -0.4914 -1.4607
  256MOL0     H34543  10.402   6.075   0.412  1.5686  2.0314 -1.1406
  256MOL0     H34544  10.728   6.889   0.350  2.2576  1.0330  0.5584
  256MOL0     H34545  10.495   6.846   0.314  0.2936  2.0913 -0.0522
  256MOL0     H34546  10.132   6.755   0.359  2.9469  0.3654  2.3767
  256MOL0     H34547   9.909   6.761   0.263 -0.9973 -0.3807  0.1302
  256MOL0     H34548   9.661   7.116   0.274 -1.1335  0.8002  0.4032
  256MOL0     H34549   9.597   7.035   0.417 -2.6215  2.4405 -0.7217
  256MOL0     H34550   9.509   6.912   0.147 -1.9982 -1.1969  1.1535
  256MOL0     H34551   9.430   7.058   0.223 -1.7690 -1.3922 -1.3280
  256MOL0     H34552   9.415   6.890   0.439  1.8286 -1.0720  0.3630
  256MOL0     H34553   9.458   6.767   0.325 -3.0436 -2.0882 -0.3268
  256MOL0     H34554   9.209   6.821   0.365  0.5245  1.1657  1.6923
  256MOL0     H34555   9.241   6.953   0.253 -1.1335  0.1300  2.6728
  256MOL0     H34556   9.218   6.634  -0.009  2.3610  1.6592 -0.8150
  256MOL0     H34557   9.819   7.118   0.468  0.0992  1.9183 -4.5212
  256MOL0     H34558  10.103   7.226   0.505  3.2374 -4.3696 -1.5293
  256MOL0     H34559   9.961   7.234   0.603  2.4008  2.2148  1.7819
  256MOL0     H34560  10.102   7.151   0.673  2.7124  0.4358 -0.8378
  257MOL0     O34561   2.529  10.889   4.425 -0.5538 -0.1621  0.8534
  257MOL0     C34562   2.471  10.913   4.531  0.4178 -0.5423  0.4742
  257MOL0     O34563   2.504  11.009   4.620  1.2156 -0.0982  0.7777
  257MOL0     C34564   2.590  11.111   4.594 -0.4867 -0.5068  0.2657
  257MOL0     C34565   2.621  11.187   4.707  0.7369 -0.4120  0.7449
  257MOL0     C34566   2.722  11.290   4.698 -0.2249 -0.0568 -0.8787
  257MOL0     C34567   2.787  11.329   4.582  0.0041  0.5652  0.0015
  257MOL0     O34568   2.883  11.427   4.581 -0.2500  0.3357 -0.5458
  257MOL0     C34569   3.003  11.416   4.485  0.7715 -0.5609  0.8803
  257MOL0     C34570   3.094  11.300   4.526 -0.2132 -0.3374  0.4463
  257MOL0     C34571   3.208  11.291   4.423 -0.3264  0.0674  0.2149
  257MOL0     C34572   3.324  11.212   4.465  0.0624  0.5887 -0.3525
  257MOL0     C34573   3.423  11.182   4.351 -0.3863  0.0832  1.1085
  257MOL0     C34574   3.384  11.078   4.244  0.2186 -0.4069  0.1750
  257MOL0     C34575   3.502  11.058   4.149 -0.1874  0.1334 -0.2702
  257MOL0     C34576   3.450  10.988   4.022  0.4345  0.1686  0.2996
  257MOL0     N34577   3.558  10.967   3.919  0.1255 -0.6348  0.4228
  257MOL0     C34578   3.581  11.046   3.809 -0.8822 -0.7027  0.6055
  257MOL0     C34579   3.678  10.991   3.730 -0.1203 -0.4866  0.5406
  257MOL0     C34580   3.734  11.025   3.595 -0.2719 -0.7163 -0.5498
  257MOL0     C34581   3.701  10.929   3.481  0.4135 -0.9034  1.1947
  257MOL0     C34582   3.551  10.891   3.474  0.6003 -0.5247  0.3960
  257MOL0     C34583   3.468  11.015   3.455 -0.3836 -0.1168 -0.6257
  257MOL0     O34584   3.336  10.970   3.442 -0.1487  0.1051 -0.2981
  257MOL0     C34585   3.243  11.060   3.488  0.7349  0.3383  0.6415
  257MOL0     C34586   3.243  11.122   3.614 -1.1993  1.2040 -0.2654
  257MOL0     C34587   3.148  11.212   3.639  0.0850  0.4255 -0.5805
  257MOL0     C34588   3.045  11.236   3.550 -0.0463  1.1617 -0.8794
  257MOL0     C34589   2.949  11.339   3.584 -0.5072 -0.1047  0.0647
  257MOL0     O34590   2.883  11.396   3.476 -0.1237 -0.3684  0.6297
  257MOL0     C34591   2.815  11.512   3.511 -0.1305  0.7275  0.7843
  257MOL0     C34592   2.697  11.511   3.589 -0.7228  0.3763 -0.2013
  257MOL0     C34593   2.632  11.632   3.614 -0.0778 -0.3765  0.1378
  257MOL0     C34594   2.666  11.755   3.548 -0.6771  0.1109  0.6348
  257MOL0     O34595   2.602  11.874   3.574 -1.0113 -0.1340 -0.3956
  257MOL0     C34596   2.621  11.980   3.482  0.3512 -0.3434 -0.0984
  257MOL0     C34597   2.545  12.103   3.524  0.5612 -0.1580  0.1177
  257MOL0     C34598   2.550  12.210   3.421  0.1096  0.0238  0.0586
  257MOL0     C34599   2.674  12.305   3.445 -0.0505  0.6514 -0.6071
  257MOL0     C34600   2.681  12.390   3.316 -0.6054  0.3055  0.0463
  257MOL0     C34601   2.808  12.461   3.320  0.1517  0.0863 -0.2218
  257MOL0     C34602   2.825  12.557   3.198  0.4782  0.1627 -0.3106
  257MOL0     C34603   2.938  12.660   3.220  1.3374  0.5171  0.3093
  257MOL0    Cl34604   3.102  12.610   3.207 -0.0152 -0.6681  0.1965
  257MOL0     C34605   2.785  11.749   3.472  0.4553  0.1602  0.9367
  257MOL0     C34606   2.857  11.631   3.455 -0.0426  0.1951 -0.0544
  257MOL0     O34607   2.936  11.371   3.697 -0.1502 -0.3793 -1.0650
  257MOL0     C34608   3.033  11.166   3.426 -0.0314 -0.9170 -0.9800
  257MOL0     C34609   3.136  11.077   3.398 -0.5882  0.1062 -0.8792
  257MOL0     N34610   3.718  10.878   3.798  0.3764 -0.4661 -0.6435
  257MOL0     N34611   3.641  10.860   3.906  0.0052 -0.2259 -0.1861
  257MOL0     C34612   2.747  11.251   4.467 -1.0061  0.3523  0.0054
  257MOL0     C34613   2.652  11.149   4.467 -0.4230  0.5679 -0.3287
  257MOL0     C34614   2.347  10.835   4.565  0.6227 -0.3829  0.4611
  257MOL0     C34615   2.333  10.704   4.506 -0.9381  0.0548 -0.4280
  257MOL0     C34616   2.223  10.623   4.538  0.6395 -0.3242 -0.0688
  257MOL0     C34617   2.123  10.659   4.636 -0.1421 -0.6395  0.7570
  257MOL0     O34618   2.015  10.579   4.678 -0.4066  0.1047  0.2923
  257MOL0     C34619   1.991  10.460   4.609  0.6268 -0.6302 -1.3013
  257MOL0     C34620   1.882  10.372   4.663 -0.8465  0.5509  0.0676
  257MOL0     C34621   1.857  10.243   4.582  0.0688  0.3169  0.2304
  257MOL0     C34622   1.826  10.266   4.429 -0.7847 -0.7880 -0.2799
  257MOL0     C34623   1.793  10.132   4.380 -0.4244  0.1075 -0.5726
  257MOL0     C34624   1.753  10.022   4.335 -0.6923 -0.5575 -0.3576
  257MOL0     C34625   2.132  10.782   4.692 -0.5871 -0.1640 -0.2098
  257MOL0     C34626   2.244  10.868   4.663 -0.6754  0.7241  0.0818
  257MOL0     C34627   2.250  10.992   4.754 -1.1996 -0.6702 -0.3320
  257MOL0     H34628   2.569  11.163   4.799 -4.6976 -0.3124 -1.8966
  257MOL0     H34629   2.754  11.354   4.780  1.6093  2.3654 -3.2772
  257MOL0     H34630   2.970  11.413   4.381  0.4883  2.6462  0.7881
  257MOL0     H34631   3.046  11.516   4.480 -0.3133 -0.1430 -2.6429
  257MOL0     H34632   3.034  11.211   4.504 -1.6105  0.0030  2.5516
  257MOL0     H34633   3.126  11.305   4.630  0.8180  0.3087  0.1189
  257MOL0     H34634   3.231  11.392   4.390  1.2321 -0.3055  0.0933
  257MOL0     H34635   3.165  11.241   4.336 -2.3889  0.4681  0.9509
  257MOL0     H34636   3.378  11.258   4.549 -2.6570  1.6058  0.9660
  257MOL0     H34637   3.289  11.115   4.501 -0.3123  0.8543  0.0213
  257MOL0     H34638   3.458  11.271   4.299 -1.4969 -0.1937 -0.1556
  257MOL0     H34639   3.512  11.135   4.395  0.3067 -3.0810 -3.0137
  257MOL0     H34640   3.343  10.985   4.283  2.1090 -0.6632  1.7191
  257MOL0     H34641   3.302  11.123   4.187 -0.5643  1.2529  2.4766
  257MOL0     H34642   3.586  11.003   4.193 -0.1459  1.9504  2.1566
  257MOL0     H34643   3.539  11.157   4.122 -0.2854  0.0433 -0.7416
  257MOL0     H34644   3.417  10.888   4.052  0.0712  0.4930  1.0144
  257MOL0     H34645   3.361  11.033   3.977 -0.0314  0.5964  1.6149
  257MOL0     H34646   3.538  11.141   3.780 -0.4062 -0.4415  0.7327
  257MOL0     H34647   3.718  11.130   3.572 -0.7011 -0.3339  1.3376
  257MOL0     H34648   3.843  11.022   3.607 -0.2687  1.0895  0.1013
  257MOL0     H34649   3.734  10.972   3.386 -3.2208  0.7819  0.5105
  257MOL0     H34650   3.760  10.839   3.499  1.1915 -0.7687 -0.5142
  257MOL0     H34651   3.534  10.856   3.576 -0.4112  2.4325  1.3391
  257MOL0     H34652   3.545  10.813   3.398  2.1626 -0.8888  0.5970
  257MOL0     H34653   3.501  11.063   3.362  0.5621  3.5423  1.4118
  257MOL0     H34654   3.489  11.088   3.533 -1.1226 -0.8932  0.3333
  257MOL0     H34655   3.313  11.085   3.687 -0.6131  1.7147 -0.5547
  257MOL0     H34656   3.162  11.264   3.733 -5.3948 -0.5445  1.1263
  257MOL0     H34657   2.660  11.417   3.630  1.9687 -0.6848  0.0114
  257MOL0     H34658   2.546  11.630   3.681  0.4673 -0.8315  0.8466
  257MOL0     H34659   2.726  12.011   3.469  0.2823  0.4942  1.1475
  257MOL0     H34660   2.579  11.951   3.385 -0.8946  1.6681 -0.2189
  257MOL0     H34661   2.441  12.071   3.541  0.0802  0.3295 -1.7069
  257MOL0     H34662   2.572  12.145   3.621 -1.6721  0.3268  0.5948
  257MOL0     H34663   2.530  12.174   3.319  0.9103  0.3855 -0.2343
  257MOL0     H34664   2.472  12.285   3.438  0.1211  0.2525 -0.8279
  257MOL0     H34665   2.764  12.244   3.458 -0.8980 -0.4461  0.3488
  257MOL0     H34666   2.651  12.367   3.532 -3.5525 -0.1870 -0.8128
  257MOL0     H34667   2.590  12.450   3.312 -1.1974 -0.5916 -3.6919
  257MOL0     H34668   2.691  12.324   3.229 -0.7053 -0.3598  0.5337
  257MOL0     H34669   2.825  12.518   3.412 -1.1641 -0.5465  0.4408
  257MOL0     H34670   2.885  12.384   3.312 -0.6340 -1.0537  2.2956
  257MOL0     H34671   2.726  12.598   3.177  0.3255  0.1197  0.3117
  257MOL0     H34672   2.851  12.487   3.117 -1.1866 -0.8140 -0.0554
  257MOL0     H34673   2.932  12.737   3.143  0.6324 -0.6864 -0.8817
  257MOL0     H34674   2.932  12.711   3.317  0.6100 -2.4601  1.9827
  257MOL0     H34675   2.836  11.827   3.417  0.6224 -1.0368 -0.6801
  257MOL0     H34676   2.949  11.636   3.397 -0.1969 -1.1007 -0.4528
  257MOL0     H34677   2.957  11.187   3.352 -0.3649  0.1028 -0.3787
  257MOL0     H34678   3.132  11.034   3.298 -2.0578  2.6677 -2.0574
  257MOL0     H34679   2.807  11.265   4.377  0.0259  0.8790  0.7587
  257MOL0     H34680   2.642  11.083   4.381 -0.1353 -0.3836  0.3460
  257MOL0     H34681   2.403  10.659   4.435  0.8116  0.4969  0.9485
  257MOL0     H34682   2.218  10.525   4.493  0.3506 -0.5895  0.5412
  257MOL0     H34683   2.085  10.405   4.617 -0.3085 -2.4720 -2.1490
  257MOL0     H34684   1.976  10.490   4.505  3.2054 -1.0815 -1.8686
  257MOL0     H34685   1.787  10.424   4.677 -1.6016  0.2565 -3.2614
  257MOL0     H34686   1.926  10.332   4.755 -0.9945 -0.7439 -0.4068
  257MOL0     H34687   1.772  10.200   4.636  0.9430 -1.0038  0.6000
  257MOL0     H34688   1.947  10.180   4.584  0.3504  0.6995 -0.2205
  257MOL0     H34689   1.738  10.331   4.421 -0.2162  0.1686  0.8757
  257MOL0     H34690   1.910  10.318   4.382 -0.8354 -0.3429  0.1063
  257MOL0     H34691   1.698   9.931   4.325 -3.3296  0.9732 -0.5785
  257MOL0     H34692   2.044  10.804   4.752 -1.2446  0.9957 -1.5601
  257MOL0     H34693   2.156  10.991   4.810 -0.4882 -1.7063  0.8934
  257MOL0     H34694   2.332  10.993   4.826 -0.4838  2.6041 -1.0065
  257MOL0     H34695   2.251  11.080   4.689  1.2390  0.1945  0.7550
  258MOL0     O34696   4.569   8.155   8.864  1.3775  0.0519 -0.6769
  258MOL0     C34697   4.553   8.271   8.903  0.9470 -0.0684  0.2570
  258MOL0     O34698   4.442   8.322   8.966 -0.0229  0.2127  0.2445
  258MOL0     C34699   4.335   8.240   9.006 -0.0580 -0.3760 -0.7837
  258MOL0     C34700   4.205   8.284   8.984  0.3609  0.5160 -0.5891
  258MOL0     C34701   4.091   8.199   9.017 -0.7282 -0.9613  0.5574
  258MOL0     C34702   4.112   8.072   9.074  0.5741 -0.7924 -0.5995
  258MOL0     O34703   4.010   7.992   9.117 -0.2519  0.0102  0.0995
  258MOL0     C34704   3.977   7.908   9.009  0.1181  0.1575  0.8653
  258MOL0     C34705   3.860   7.825   9.042  0.3724 -0.1111 -0.2806
  258MOL0     C34706   3.730   7.915   9.045 -0.5228  0.2779  0.2276
  258MOL0     C34707   3.606   7.825   9.061  0.7290  0.1312  0.0363
  258MOL0     C34708   3.471   7.903   9.067 -0.6059 -0.0047  0.4976
  258MOL0     C34709   3.469   8.011   8.955  1.1084 -0.4426  0.0706
  258MOL0     C34710   3.344   8.111   8.964 -0.1231  0.7293 -0.3931
  258MOL0     C34711   3.354   8.218   9.078 -0.1146 -0.8065  0.4666
  258MOL0     N34712   3.251   8.318   9.059 -0.2854  0.8190 -0.3170
  258MOL0     C34713   3.123   8.297   9.107  0.2218  0.2755  0.8373
  258MOL0     C34714   3.043   8.398   9.057  0.8975 -0.0457 -0.1514
  258MOL0     C34715   2.889   8.408   9.078  0.4113  0.4843  0.7468
  258MOL0     C34716   2.830   8.289   9.154 -0.0133 -1.3889  0.5377
  258MOL0     C34717   2.802   8.157   9.079 -0.4478 -1.4775 -0.9882
  258MOL0     C34718   2.726   8.175   8.946 -0.1423  0.3149  0.1596
  258MOL0     O34719   2.720   8.048   8.883 -0.3935 -0.5738  0.1236
  258MOL0     C34720   2.837   7.997   8.849  0.3167  0.0691 -0.0473
  258MOL0     C34721   2.856   7.861   8.886 -0.9259 -0.8148 -0.3611
  258MOL0     C34722   2.967   7.789   8.845  1.1312  0.2444 -0.7095
  258MOL0     C34723   3.067   7.853   8.772 -0.2044 -0.5019  0.8365
  258MOL0     C34724   3.189   7.773   8.732  1.0004 -0.9136 -0.3636
  258MOL0     O34725   3.268   7.835   8.645  0.3246 -0.6563  0.3661
  258MOL0     C34726   3.378   7.765   8.596  0.7357  0.0982  0.5738
  258MOL0     C34727   3.511   7.808   8.624  0.7634 -0.4526 -0.1105
  258MOL0     C34728   3.616   7.747   8.561 -0.0682  0.6105  0.4774
  258MOL0     C34729   3.601   7.651   8.462 -0.0264  0.5501  0.2267
  258MOL0     O34730   3.709   7.590   8.385  0.2616  0.3843  0.0612
  258MOL0     C34731   3.798   7.680   8.319  0.0336  0.4156 -0.2301
  258MOL0     C34732   3.730   7.803   8.250 -0.3458 -0.0692 -0.3474
  258MOL0     C34733   3.661   7.753   8.127 -0.9166 -0.3710 -0.0078
  258MOL0     C34734   3.595   7.872   8.060  0.4943  0.6530 -0.5724
  258MOL0     C34735   3.542   7.818   7.925  0.5903 -0.1111 -0.4454
  258MOL0     C34736   3.655   7.807   7.819  0.4263 -0.1491 -0.2704
  258MOL0     C34737   3.590   7.790   7.682  0.3316  0.6754 -0.3365
  258MOL0     C34738   3.710   7.800   7.588  0.4925  0.4217  0.7412
  258MOL0    Cl34739   3.644   7.783   7.431  0.3508  0.2876  0.2998
  258MOL0     C34740   3.476   7.602   8.430  0.0720 -0.0441  0.4874
  258MOL0     C34741   3.372   7.658   8.503 -0.2857  0.1415  0.3706
  258MOL0     O34742   3.203   7.656   8.764 -0.3335  0.5036 -0.2498
  258MOL0     C34743   3.061   7.988   8.744 -0.4635  0.0524 -1.2923
  258MOL0     C34744   2.941   8.055   8.773  0.3890 -0.1537  0.7020
  258MOL0     N34745   3.131   8.491   8.995 -1.0283 -0.1141 -0.6185
  258MOL0     N34746   3.252   8.434   8.981 -0.3061  0.6204  0.0450
  258MOL0     C34747   4.242   8.038   9.100 -0.3742 -0.3904 -0.4490
  258MOL0     C34748   4.357   8.118   9.071  0.8261 -1.1213 -0.2389
  258MOL0     C34749   4.659   8.359   8.858 -0.5244 -0.4712 -0.0824
  258MOL0     C34750   4.633   8.494   8.880  0.8500  0.0172  1.0745
  258MOL0     C34751   4.732   8.590   8.853 -0.6668 -0.2322 -0.0272
  258MOL0     C34752   4.849   8.563   8.794 -0.5749  0.4143 -0.3414
  258MOL0     O34753   4.943   8.665   8.774 -0.4200 -0.1371 -0.7459
  258MOL0     C34754   5.061   8.648   8.856  0.6398  0.5525  0.3234
  258MOL0     C34755   5.053   8.623   9.001  0.7493  0.1006  0.3398
  258MOL0     C34756   5.001   8.748   9.080  0.1512  0.3295  0.6942
  258MOL0     C34757   5.004   8.716   9.222 -0.3545 -0.3498 -0.1637
  258MOL0     C34758   5.132   8.733   9.281 -1.1276  0.3989 -0.2933
  258MOL0     C34759   5.234   8.755   9.347  0.5390  0.8138  0.3764
  258MOL0     C34760   4.885   8.435   8.782  0.3865  0.4912 -0.0574
  258MOL0     C34761   4.790   8.329   8.812 -0.4607 -0.9534  0.0365
  258MOL0     C34762   4.850   8.191   8.793  0.3292 -0.5750  0.3043
  258MOL0     H34763   4.196   8.380   8.936 -0.9886  1.4596  1.4098
  258MOL0     H34764   3.994   8.239   8.992  1.0369  1.5028 -3.2369
  258MOL0     H34765   3.951   7.961   8.917 -2.2211  0.0243  1.3834
  258MOL0     H34766   4.056   7.835   8.988 -1.5848 -1.7416  0.7105
  258MOL0     H34767   3.873   7.784   9.142  0.9804  3.0872  1.0705
  258MOL0     H34768   3.851   7.751   8.961  0.7643  0.8797 -1.2599
  258MOL0     H34769   3.728   7.972   8.952  1.0544 -0.7782 -0.5089
  258MOL0     H34770   3.750   7.989   9.123  2.0666 -0.8441  0.7590
  258MOL0     H34771   3.591   7.770   8.968 -4.6099  1.3428 -0.1460
  258MOL0     H34772   3.607   7.760   9.149 -5.6757  2.6420  2.5763
  258MOL0     H34773   3.377   7.848   9.074 -1.3052  1.3040  2.1181
  258MOL0     H34774   3.483   7.957   9.161  0.0063 -0.5407  0.7318
  258MOL0     H34775   3.551   8.081   8.939 -0.8150  1.8463 -0.2771
  258MOL0     H34776   3.458   7.940   8.873 -4.5511 -0.6991  0.6237
  258MOL0     H34777   3.251   8.053   8.966  0.9453 -1.0584  1.2541
  258MOL0     H34778   3.343   8.168   8.870  0.1195  1.7877  0.2379
  258MOL0     H34779   3.327   8.157   9.165 -0.3890 -0.6254  0.5108
  258MOL0     H34780   3.453   8.265   9.076  0.1168 -1.2909  0.4605
  258MOL0     H34781   3.085   8.205   9.149  0.5224 -0.9164 -1.3114
  258MOL0     H34782   2.866   8.497   9.138 -1.6261 -0.3554  1.3187
  258MOL0     H34783   2.845   8.417   8.978  1.7891 -0.6538  0.0018
  258MOL0     H34784   2.890   8.266   9.243  0.2996 -0.3541  0.6057
  258MOL0     H34785   2.744   8.334   9.204  1.9480  1.0607  1.9736
  258MOL0     H34786   2.739   8.103   9.149 -1.5699  1.8632  0.8175
  258MOL0     H34787   2.898   8.108   9.057  1.8105  2.3152 -0.5336
  258MOL0     H34788   2.765   8.259   8.888  0.4553  0.3425  0.5919
  258MOL0     H34789   2.623   8.203   8.970 -0.2556 -1.2325  1.7438
  258MOL0     H34790   2.794   7.803   8.953  1.2124  1.0268  3.5493
  258MOL0     H34791   2.977   7.683   8.869  3.4054  0.5770  0.1207
  258MOL0     H34792   3.524   7.889   8.696 -0.4656 -0.8435  0.5771
  258MOL0     H34793   3.716   7.787   8.576  0.6527 -0.2363 -1.7637
  258MOL0     H34794   3.879   7.711   8.386  0.8142  3.4788 -2.3884
  258MOL0     H34795   3.855   7.614   8.253  0.3670 -0.5424  0.9658
  258MOL0     H34796   3.656   7.853   8.314 -2.5943 -2.1951 -1.1207
  258MOL0     H34797   3.804   7.880   8.225 -0.8464  1.4867  2.4942
  258MOL0     H34798   3.729   7.711   8.053  0.1497 -2.8055  2.2065
  258MOL0     H34799   3.586   7.677   8.151 -0.0167 -1.8919 -1.7427
  258MOL0     H34800   3.666   7.953   8.042 -1.3643  3.3774  3.0256
  258MOL0     H34801   3.508   7.909   8.115  0.3404 -1.9370  1.1351
  258MOL0     H34802   3.467   7.892   7.893 -1.2619 -0.1093  3.3776
  258MOL0     H34803   3.482   7.727   7.933  0.1029 -0.1406 -3.2530
  258MOL0     H34804   3.710   7.901   7.823 -1.9357  1.3194  3.6566
  258MOL0     H34805   3.719   7.719   7.827  0.9168  0.3552  2.4378
  258MOL0     H34806   3.523   7.874   7.658 -0.2255  0.9698  1.9452
  258MOL0     H34807   3.534   7.698   7.664  1.4398  0.0596 -0.6704
  258MOL0     H34808   3.760   7.897   7.601  0.7444  0.5472 -0.9594
  258MOL0     H34809   3.780   7.716   7.594  0.8043  0.6031 -0.1771
  258MOL0     H34810   3.459   7.526   8.355  3.4010 -0.4211 -0.0297
  258MOL0     H34811   3.276   7.612   8.483 -0.7816  0.1208  2.5256
  258MOL0     H34812   3.132   8.051   8.691 -3.5169  1.5825 -3.8767
  258MOL0     H34813   2.921   8.154   8.734 -1.1680  0.3749  2.6282
  258MOL0     H34814   4.247   7.942   9.151  0.0419 -1.0852 -1.7338
  258MOL0     H34815   4.455   8.092   9.109  0.9036 -1.2502 -0.5268
  258MOL0     H34816   4.532   8.522   8.906 -0.8167 -3.0331 -1.4274
  258MOL0     H34817   4.715   8.691   8.889  2.6319  0.1931  0.6555
  258MOL0     H34818   5.129   8.732   8.847  3.5191 -1.6318  0.3953
  258MOL0     H34819   5.118   8.564   8.813 -0.7823 -0.0467 -0.5040
  258MOL0     H34820   5.153   8.583   9.024 -0.0829 -3.5881 -1.5928
  258MOL0     H34821   4.989   8.537   9.022  3.3074 -1.7487  1.1172
  258MOL0     H34822   4.899   8.774   9.050  0.5254  0.2913 -0.7098
  258MOL0     H34823   5.060   8.839   9.063 -2.0985  1.4426 -1.9346
  258MOL0     H34824   4.928   8.777   9.271 -2.1711 -2.5122 -0.0986
  258MOL0     H34825   4.970   8.614   9.242  0.1180 -0.3470  0.7244
  258MOL0     H34826   5.329   8.774   9.392 -0.0206  0.4123  1.7849
  258MOL0     H34827   4.984   8.411   8.745  0.5083 -0.1369  0.6333
  258MOL0     H34828   4.811   8.125   8.870 -0.6558  0.3630  0.6364
  258MOL0     H34829   4.818   8.161   8.692 -1.6955  0.4903  0.5680
  258MOL0     H34830   4.958   8.174   8.797  0.1731 -1.4100  3.5999
  259MOL0     O34831   9.624   0.965   0.560 -0.0655 -0.3033  0.0723
  259MOL0     C34832   9.611   1.050   0.480  0.9901  0.2694  0.2747
  259MOL0     O34833   9.596   1.030   0.342 -1.0551 -0.2387 -0.2969
  259MOL0     C34834   9.594   0.903   0.291  0.2053 -0.5013 -0.0150
  259MOL0     C34835   9.693   0.806   0.314  0.1504  0.0588  0.6384
  259MOL0     C34836   9.687   0.682   0.249 -0.0426  0.4604 -0.5817
  259MOL0     C34837   9.578   0.658   0.163  0.0381  0.8668  0.4736
  259MOL0     O34838   9.558   0.539   0.094  0.8633 -0.7548 -0.1675
  259MOL0     C34839   9.656   0.480   0.017  0.1434 -0.9056  1.0026
  259MOL0     C34840   9.630   0.330  -0.014 -0.3223  0.3625 -0.0503
  259MOL0     C34841   9.657   0.252   0.113  0.8122 -0.2115 -0.9272
  259MOL0     C34842   9.567   0.128   0.128 -0.1869 -0.3680 -0.1858
  259MOL0     C34843   9.575   0.054   0.265  0.7320  0.4938  0.6311
  259MOL0     C34844   9.721  -0.006   0.295  0.4763  0.0958 -0.4640
  259MOL0     C34845   9.793  -0.076   0.168 -0.1884  0.4006 -0.0417
  259MOL0     C34846   9.908  -0.163   0.204  0.7094  0.9788 -1.0532
  259MOL0     N34847   9.998  -0.120   0.317 -0.4008  0.2555  0.0344
  259MOL0     C34848  10.125  -0.050   0.304  0.8392 -0.4769  0.3138
  259MOL0     C34849  10.164  -0.037   0.434 -0.6797 -0.1367  0.2759
  259MOL0     C34850  10.278   0.045   0.481  0.7457  0.5945  0.3282
  259MOL0     C34851  10.237   0.183   0.537 -0.2864  0.1445  0.6193
  259MOL0     C34852  10.156   0.173   0.661 -0.5799  0.0698 -0.8086
  259MOL0     C34853  10.007   0.199   0.632 -0.2434  1.2395  0.2355
  259MOL0     O34854   9.982   0.331   0.572  0.6620 -0.0165 -0.1291
  259MOL0     C34855   9.848   0.376   0.572  0.2020 -0.2685  0.0905
  259MOL0     C34856   9.738   0.293   0.559  0.0314  0.2669  0.9880
  259MOL0     C34857   9.606   0.353   0.559 -0.3110  0.1415  0.2530
  259MOL0     C34858   9.587   0.493   0.574  0.6537 -0.8560 -0.4717
  259MOL0     C34859   9.457   0.553   0.603 -0.3928 -1.0311  0.1482
  259MOL0     O34860   9.361   0.461   0.609  0.4873 -1.0092 -0.0194
  259MOL0     C34861   9.259   0.481   0.685 -0.6396 -1.0570  0.1922
  259MOL0     C34862   9.149   0.556   0.644  0.1026 -0.4900 -0.7683
  259MOL0     C34863   9.039   0.569   0.727  0.6346 -0.8947  1.1828
  259MOL0     C34864   9.033   0.500   0.844 -0.2823  0.7577  0.7799
  259MOL0     O34865   8.925   0.525   0.924  0.1683  0.5349  0.1242
  259MOL0     C34866   8.893   0.433   1.033  0.2550 -0.0281  0.5004
  259MOL0     C34867   8.769   0.485   1.105  0.4861  0.8900  0.7732
  259MOL0     C34868   8.642   0.454   1.024  0.1799  0.2036 -0.2077
  259MOL0     C34869   8.520   0.517   1.093 -0.0896 -0.2471  0.2028
  259MOL0     C34870   8.520   0.669   1.093  0.5288 -0.0140 -0.2129
  259MOL0     C34871   8.443   0.722   1.217  0.3240 -0.5777  1.1936
  259MOL0     C34872   8.448   0.869   1.244  0.2622 -0.1221 -0.2264
  259MOL0     C34873   8.356   0.909   1.362 -0.5414  0.1397  0.1344
  259MOL0    Cl34874   8.378   0.806   1.501 -0.0241  0.7451  0.0500
  259MOL0     C34875   9.144   0.438   0.899  0.6438  0.7113 -0.0906
  259MOL0     C34876   9.256   0.425   0.818  0.2470  0.1859  0.3164
  259MOL0     O34877   9.458   0.665   0.645 -0.3228 -0.1167 -0.0495
  259MOL0     C34878   9.703   0.571   0.593 -0.1393  0.4758 -0.1759
  259MOL0     C34879   9.833   0.518   0.572  0.0594 -0.4063 -0.0252
  259MOL0     N34880  10.064  -0.101   0.509 -0.7771  0.6938  0.5672
  259MOL0     N34881   9.968  -0.145   0.448 -0.1514  0.2895  0.2727
  259MOL0     C34882   9.489   0.760   0.132 -0.1333  0.2186 -1.2728
  259MOL0     C34883   9.490   0.883   0.200  0.4143  0.9055  0.9174
  259MOL0     C34884   9.603   1.192   0.535  0.3085 -0.7312 -0.2368
  259MOL0     C34885   9.602   1.298   0.437  0.0454  1.0019 -0.4400
  259MOL0     C34886   9.589   1.434   0.480 -0.4890  0.8257  0.2101
  259MOL0     C34887   9.570   1.475   0.608 -0.2266  0.6877 -0.6075
  259MOL0     O34888   9.543   1.607   0.636 -0.3532  0.0039  0.2226
  259MOL0     C34889   9.535   1.671   0.772 -0.0059 -0.2588 -0.0558
  259MOL0     C34890   9.670   1.669   0.852 -0.1045  1.1051 -0.7165
  259MOL0     C34891   9.780   1.742   0.789 -0.5318 -0.1244 -0.3674
  259MOL0     C34892   9.892   1.771   0.887 -0.2873 -0.1572 -0.6967
  259MOL0     C34893   9.933   1.642   0.946 -0.6920  0.1718 -0.5373
  259MOL0     C34894   9.958   1.545   1.009  0.0508  1.2868 -0.8113
  259MOL0     C34895   9.581   1.368   0.705  0.9298  0.6207  0.1165
  259MOL0     C34896   9.599   1.237   0.671 -0.4950  0.8773 -0.6634
  259MOL0     C34897   9.631   1.132   0.782  0.4658  0.1462 -0.1044
  259MOL0     H34898   9.778   0.830   0.376  0.4245 -0.4270  0.4576
  259MOL0     H34899   9.753   0.600   0.277 -0.4586  0.7635  1.4790
  259MOL0     H34900   9.662   0.552  -0.065 -0.2662 -0.3328  1.4623
  259MOL0     H34901   9.755   0.480   0.064  0.6053  0.4501  0.1004
  259MOL0     H34902   9.692   0.293  -0.096  1.2859  3.3771 -0.3512
  259MOL0     H34903   9.528   0.311  -0.049 -0.2917 -0.5961  0.3630
  259MOL0     H34904   9.639   0.318   0.199 -0.9533 -3.6688  1.5715
  259MOL0     H34905   9.761   0.224   0.131  0.5388 -0.8397 -0.2675
  259MOL0     H34906   9.461   0.151   0.114 -0.5493 -1.8758 -0.1088
  259MOL0     H34907   9.590   0.070   0.038 -1.8269 -0.9387 -0.2688
  259MOL0     H34908   9.543   0.118   0.347  0.0719 -0.8553  1.4587
  259MOL0     H34909   9.503  -0.027   0.253 -0.9564  2.1635 -1.0613
  259MOL0     H34910   9.788   0.073   0.331  2.4028 -1.4060 -0.6372
  259MOL0     H34911   9.714  -0.078   0.376  0.7508 -0.3147 -0.8029
  259MOL0     H34912   9.814   0.007   0.099 -2.1147  1.6056  0.7361
  259MOL0     H34913   9.725  -0.141   0.113 -2.8047 -0.4256  3.7687
  259MOL0     H34914   9.853  -0.253   0.231  1.0018  0.0159 -3.3976
  259MOL0     H34915   9.972  -0.180   0.117 -3.2985  5.4435 -5.5021
  259MOL0     H34916  10.165  -0.022   0.207 -0.0380 -0.3772 -0.0366
  259MOL0     H34917  10.332  -0.006   0.562  2.6332  3.4111  0.9985
  259MOL0     H34918  10.349   0.051   0.398  0.6920  0.0318  0.2355
  259MOL0     H34919  10.326   0.244   0.555 -2.0396  3.1160 -0.0523
  259MOL0     H34920  10.175   0.227   0.458 -0.2435  0.5269  0.7955
  259MOL0     H34921  10.190   0.241   0.739  1.5544 -1.6821 -0.0988
  259MOL0     H34922  10.158   0.070   0.697 -1.2624  0.7156  1.1768
  259MOL0     H34923   9.963   0.181   0.731  1.2614  0.1245  0.7423
  259MOL0     H34924   9.963   0.122   0.568  2.2647  0.4287 -0.6124
  259MOL0     H34925   9.764   0.190   0.539  3.8145  0.5721  3.4494
  259MOL0     H34926   9.519   0.290   0.545 -1.7605  1.0330  3.9722
  259MOL0     H34927   9.161   0.610   0.550  0.4417 -2.3303 -1.8327
  259MOL0     H34928   8.952   0.630   0.706  0.1362 -2.3432 -1.4507
  259MOL0     H34929   8.880   0.332   0.993 -0.2662  0.1661  0.1567
  259MOL0     H34930   8.977   0.447   1.101  0.6472  0.4979 -0.0820
  259MOL0     H34931   8.758   0.429   1.198 -2.7372 -1.5262 -0.8396
  259MOL0     H34932   8.790   0.590   1.125  1.8018  0.6985  0.5138
  259MOL0     H34933   8.653   0.500   0.926  0.8898  2.3291  0.8212
  259MOL0     H34934   8.629   0.346   1.013 -1.5089 -0.3095  4.4150
  259MOL0     H34935   8.506   0.480   1.194  1.4568  0.4062  0.6896
  259MOL0     H34936   8.427   0.488   1.043 -1.6468  1.6447  1.8318
  259MOL0     H34937   8.467   0.699   1.002 -2.3304 -0.3032  1.2086
  259MOL0     H34938   8.620   0.709   1.113  1.3267 -2.6524  1.5485
  259MOL0     H34939   8.344   0.681   1.194  0.0641 -0.1939  1.6166
  259MOL0     H34940   8.479   0.679   1.311  0.6304  1.8891  2.2810
  259MOL0     H34941   8.414   0.914   1.150  0.2559 -0.2321 -0.2770
  259MOL0     H34942   8.549   0.909   1.256 -0.5920  2.5676 -1.3396
  259MOL0     H34943   8.381   1.013   1.388 -2.3236  0.4842  0.5694
  259MOL0     H34944   8.258   0.928   1.318 -0.2057 -2.0852 -1.7639
  259MOL0     H34945   9.143   0.383   0.992 -2.1769 -0.3759 -0.6721
  259MOL0     H34946   9.349   0.374   0.840  0.8718  1.5837  1.0046
  259MOL0     H34947   9.686   0.678   0.603 -0.4377  0.3630  0.5862
  259MOL0     H34948   9.924   0.576   0.580 -0.3206  0.4779 -1.7527
  259MOL0     H34949   9.404   0.742   0.067 -1.3691 -0.9072  0.5546
  259MOL0     H34950   9.415   0.956   0.171  0.7821  1.0047  0.1813
  259MOL0     H34951   9.616   1.278   0.331 -1.3002  1.6486 -0.7620
  259MOL0     H34952   9.605   1.504   0.398  1.0726  2.7150  2.0367
  259MOL0     H34953   9.451   1.637   0.834 -1.6098 -1.2989 -2.6406
  259MOL0     H34954   9.521   1.776   0.747  1.0448  0.2811  1.4827
  259MOL0     H34955   9.695   1.564   0.870  0.9174  1.5008  0.3280
  259MOL0     H34956   9.645   1.713   0.949  1.7042  1.8542 -0.5559
  259MOL0     H34957   9.744   1.836   0.748 -2.8451  0.3741  2.4823
  259MOL0     H34958   9.817   1.686   0.702 -3.5021  1.1283 -2.6066
  259MOL0     H34959   9.974   1.823   0.838  1.1411  1.9800  3.4648
  259MOL0     H34960   9.854   1.841   0.962  0.6908  0.1902 -0.5121
  259MOL0     H34961   9.986   1.468   1.078 -2.9050  0.9864  0.1724
  259MOL0     H34962   9.562   1.393   0.808  1.0525 -1.7089  0.7658
  259MOL0     H34963   9.570   1.041   0.778  2.9664 -1.7001  1.0950
  259MOL0     H34964   9.733   1.094   0.793  0.4810 -0.6359 -2.3685
  259MOL0     H34965   9.596   1.168   0.879 -3.8784 -0.1204 -1.3330
  260MOL0     O34966   4.217   8.675   4.151  0.0673  0.3855 -0.2733
  260MOL0     C34967   4.162   8.776   4.196 -0.5446  0.9761  0.1953
  260MOL0     O34968   4.224   8.902   4.200  0.2620 -1.3403 -0.2563
  260MOL0     C34969   4.366   8.909   4.194 -0.8630  0.6862  0.5388
  260MOL0     C34970   4.447   8.876   4.081  0.2917  0.4106  0.7116
  260MOL0     C34971   4.589   8.881   4.090 -0.0285 -0.6331 -0.1768
  260MOL0     C34972   4.653   8.933   4.195  0.0976 -0.1600 -0.0286
  260MOL0     O34973   4.789   8.952   4.186 -0.4760  0.1226  0.3130
  260MOL0     C34974   4.862   9.031   4.279  0.5500  0.3698  0.2615
  260MOL0     C34975   4.996   9.088   4.201 -0.5248  0.4522  0.5306
  260MOL0     C34976   5.106   9.138   4.293  0.5660 -1.1662 -0.6121
  260MOL0     C34977   5.207   9.211   4.222 -0.0384 -1.3931  0.2666
  260MOL0     C34978   5.330   9.280   4.294 -0.5419  0.4504 -0.2981
  260MOL0     C34979   5.445   9.181   4.332 -0.1742  0.3042  0.8481
  260MOL0     C34980   5.572   9.247   4.395 -0.3965  1.1802  0.2076
  260MOL0     C34981   5.672   9.143   4.430  0.1826 -1.0678 -0.2595
  260MOL0     N34982   5.791   9.217   4.463  0.2587 -0.2795  0.0527
  260MOL0     C34983   5.899   9.218   4.378 -0.2521 -0.9396 -0.2420
  260MOL0     C34984   6.002   9.283   4.434  0.4724  0.5365  0.6686
  260MOL0     C34985   6.135   9.291   4.380  0.0165 -0.1707 -0.3244
  260MOL0     C34986   6.220   9.167   4.414 -0.1801  0.1031 -0.1247
  260MOL0     C34987   6.376   9.211   4.408  0.2990  0.2806  0.4801
  260MOL0     C34988   6.457   9.095   4.375 -0.5559  1.0596 -0.1283
  260MOL0     O34989   6.589   9.133   4.336 -0.4620  0.2237  0.2450
  260MOL0     C34990   6.675   9.033   4.301  0.4259 -0.2100  0.2741
  260MOL0     C34991   6.635   8.917   4.228 -0.5291  0.0859 -0.6887
  260MOL0     C34992   6.726   8.818   4.192 -0.3144  1.2333 -0.4136
  260MOL0     C34993   6.863   8.834   4.213 -0.6511  0.0698  1.8686
  260MOL0     C34994   6.969   8.737   4.181 -0.1901  0.1722  0.7487
  260MOL0     O34995   7.099   8.769   4.207 -0.3184 -0.6102 -1.0083
  260MOL0     C34996   7.200   8.714   4.146 -0.2481  1.4367 -0.2886
  260MOL0     C34997   7.190   8.658   4.016 -0.0486 -0.6969  0.3995
  260MOL0     C34998   7.307   8.626   3.949 -0.5966 -0.1871  0.0022
  260MOL0     C34999   7.429   8.624   4.020  0.2577  0.1259  0.2124
  260MOL0     O35000   7.543   8.595   3.954 -0.8150 -0.0443  0.3028
  260MOL0     C35001   7.557   8.625   3.808  0.7886  0.4458  1.1225
  260MOL0     C35002   7.542   8.492   3.736 -0.7518  0.5777 -0.5199
  260MOL0     C35003   7.649   8.389   3.781  0.7256 -0.5578  0.1981
  260MOL0     C35004   7.602   8.248   3.750  1.0173 -0.2311 -0.5499
  260MOL0     C35005   7.713   8.148   3.815  0.1349 -0.3205 -0.1763
  260MOL0     C35006   7.836   8.119   3.726  0.4155 -0.0606 -1.3885
  260MOL0     C35007   7.785   8.062   3.593  0.0274 -0.6022 -0.4195
  260MOL0     C35008   7.798   8.153   3.473 -0.3697 -0.2128  0.7401
  260MOL0    Cl35009   7.708   8.092   3.324  0.1021 -0.5457 -0.4081
  260MOL0     C35010   7.443   8.679   4.146  0.0070  0.0893 -0.3016
  260MOL0     C35011   7.327   8.718   4.200 -0.8001  0.3547 -0.1544
  260MOL0     O35012   6.930   8.619   4.154  0.4191 -0.4825 -0.5189
  260MOL0     C35013   6.906   8.954   4.275 -0.4632 -0.4697  0.4655
  260MOL0     C35014   6.813   9.054   4.317  0.4327 -0.3527 -0.6168
  260MOL0     N35015   5.960   9.309   4.562 -0.2458  0.3743 -0.7181
  260MOL0     N35016   5.840   9.254   4.584  0.3067  0.4363  0.0076
  260MOL0     C35017   4.582   8.971   4.308 -0.2627  0.8309 -0.3370
  260MOL0     C35018   4.437   8.955   4.307  0.2505 -0.0027  0.3443
  260MOL0     C35019   4.030   8.756   4.268  0.1947  0.3941  0.9021
  260MOL0     C35020   3.992   8.851   4.358  0.4220  0.3705  0.9566
  260MOL0     C35021   3.868   8.823   4.423  0.5034 -0.6639 -0.5686
  260MOL0     C35022   3.790   8.706   4.397  0.8576  0.2637 -0.2742
  260MOL0     O35023   3.679   8.686   4.480  0.1956  0.4175 -0.1099
  260MOL0     C35024   3.573   8.593   4.441 -0.0380  0.6597 -0.5408
  260MOL0     C35025   3.477   8.567   4.563  0.1860 -0.5348  1.2138
  260MOL0     C35026   3.528   8.478   4.678 -0.4629  0.5103 -0.0495
  260MOL0     C35027   3.433   8.468   4.794 -0.7324  0.9170 -0.5308
  260MOL0     C35028   3.324   8.376   4.778 -0.5728  0.7353 -0.2503
  260MOL0     C35029   3.241   8.290   4.760  0.1063 -0.1906 -0.8704
  260MOL0     C35030   3.831   8.618   4.297 -0.1499  1.1681  0.3450
  260MOL0     C35031   3.944   8.643   4.228 -0.0979  0.1837 -0.6410
  260MOL0     C35032   3.977   8.550   4.117  1.9225 -0.5075  0.2103
  260MOL0     H35033   4.384   8.845   3.998  1.6185 -0.4153 -0.0201
  260MOL0     H35034   4.644   8.846   4.003  0.2870  0.1227 -0.2903
  260MOL0     H35035   4.806   9.118   4.315 -0.7271 -0.6229  0.7487
  260MOL0     H35036   4.893   8.966   4.362  0.3069 -3.1231 -2.1972
  260MOL0     H35037   4.973   9.158   4.121 -1.7288 -1.1596 -0.5892
  260MOL0     H35038   5.038   8.995   4.160  2.2952  1.4927  0.7959
  260MOL0     H35039   5.154   9.056   4.347 -1.6542 -2.1012  0.0512
  260MOL0     H35040   5.073   9.200   4.377 -3.4563 -3.5736 -0.1683
  260MOL0     H35041   5.235   9.156   4.132  3.1583 -0.7446  0.7399
  260MOL0     H35042   5.163   9.306   4.190 -0.1392 -2.3915 -2.8305
  260MOL0     H35043   5.372   9.363   4.236 -1.5987  1.3264  0.1619
  260MOL0     H35044   5.295   9.333   4.383 -0.5499 -1.7568  1.0923
  260MOL0     H35045   5.418   9.103   4.405  2.7809 -0.9150  0.7678
  260MOL0     H35046   5.478   9.132   4.240 -2.1262  2.0422 -0.8777
  260MOL0     H35047   5.535   9.306   4.480 -4.2248  0.2936 -0.6217
  260MOL0     H35048   5.612   9.327   4.331  1.5828 -1.5380 -2.2016
  260MOL0     H35049   5.644   9.079   4.514 -1.5126  1.1279  0.9696
  260MOL0     H35050   5.690   9.083   4.341 -1.7514 -0.3691 -1.1830
  260MOL0     H35051   5.906   9.179   4.277  2.8673 -0.4752 -0.3017
  260MOL0     H35052   6.132   9.310   4.273 -3.5332 -0.7171 -0.4383
  260MOL0     H35053   6.186   9.380   4.419  2.1634 -0.7640 -1.6411
  260MOL0     H35054   6.186   9.127   4.510 -3.2382 -1.0521 -1.5662
  260MOL0     H35055   6.192   9.100   4.332 -0.3080  0.0254 -0.0173
  260MOL0     H35056   6.406   9.254   4.504  0.7906 -2.4609  1.6617
  260MOL0     H35057   6.395   9.284   4.329 -0.2468 -0.9000 -0.7734
  260MOL0     H35058   6.414   9.058   4.281  2.7676 -1.9457 -0.6935
  260MOL0     H35059   6.460   9.017   4.451  2.7172  2.4605  1.3801
  260MOL0     H35060   6.530   8.906   4.203 -0.3892 -1.8265 -0.6160
  260MOL0     H35061   6.702   8.721   4.150  4.0372 -1.0404  1.7054
  260MOL0     H35062   7.100   8.671   3.957  0.2056 -4.1634 -0.9450
  260MOL0     H35063   7.292   8.587   3.848 -0.8649  2.1760 -0.9452
  260MOL0     H35064   7.478   8.698   3.788  0.0363 -0.4726  0.6687
  260MOL0     H35065   7.654   8.670   3.781  1.7269 -3.5261 -3.4315
  260MOL0     H35066   7.441   8.454   3.755 -0.9562 -0.3433 -2.9678
  260MOL0     H35067   7.549   8.515   3.629 -2.1907 -2.3286 -1.3399
  260MOL0     H35068   7.749   8.410   3.740 -0.5095  0.0000 -2.7657
  260MOL0     H35069   7.662   8.400   3.889 -0.1980 -2.2003  0.5085
  260MOL0     H35070   7.575   8.228   3.646 -0.3504  0.7450 -0.4137
  260MOL0     H35071   7.514   8.221   3.809  1.0740  3.9429  1.8053
  260MOL0     H35072   7.655   8.056   3.826  1.3745 -1.0374  0.5718
  260MOL0     H35073   7.750   8.189   3.909 -0.6497  2.5696 -1.0309
  260MOL0     H35074   7.894   8.211   3.714  0.9277  0.3755  2.9453
  260MOL0     H35075   7.898   8.050   3.784 -0.8798  0.0705  0.2328
  260MOL0     H35076   7.686   8.020   3.611  0.7875 -1.1549  3.3779
  260MOL0     H35077   7.857   7.981   3.579 -0.2833 -1.1950  1.2766
  260MOL0     H35078   7.767   8.255   3.499  2.1385  1.1488 -1.2316
  260MOL0     H35079   7.905   8.153   3.453 -0.5418 -1.7303 -0.2915
  260MOL0     H35080   7.531   8.696   4.208 -0.4084 -1.2399  0.7233
  260MOL0     H35081   7.337   8.767   4.296 -2.2317 -0.3028  0.3507
  260MOL0     H35082   7.008   8.985   4.292 -0.4186 -0.8870  0.9955
  260MOL0     H35083   6.855   9.143   4.362  2.0839 -1.0699 -0.6625
  260MOL0     H35084   4.635   9.018   4.390  3.0899 -0.4632 -1.6160
  260MOL0     H35085   4.379   8.982   4.395  2.6739 -1.5427  2.5626
  260MOL0     H35086   4.057   8.936   4.375 -1.3302  1.6277  1.6592
  260MOL0     H35087   3.832   8.885   4.504 -0.2081  2.4328 -3.0694
  260MOL0     H35088   3.610   8.495   4.409 -0.1640  1.4111 -3.1637
  260MOL0     H35089   3.512   8.636   4.361 -1.2161 -1.3580 -0.7833
  260MOL0     H35090   3.390   8.512   4.527 -0.5716  1.0132  0.5715
  260MOL0     H35091   3.440   8.661   4.603 -0.8918 -0.1276 -0.6005
  260MOL0     H35092   3.622   8.523   4.710  3.1190 -4.1220 -2.7036
  260MOL0     H35093   3.556   8.377   4.646 -2.7856 -0.6129  1.1634
  260MOL0     H35094   3.488   8.422   4.877 -1.9966 -0.9322 -0.6668
  260MOL0     H35095   3.394   8.566   4.823  2.4461  1.9461  0.7852
  260MOL0     H35096   3.151   8.233   4.751  0.5320 -1.6368  2.6991
  260MOL0     H35097   3.755   8.543   4.274 -1.0015  2.1425 -0.0965
  260MOL0     H35098   3.884   8.498   4.094 -0.4034  2.6372  1.7354
  260MOL0     H35099   3.999   8.612   4.029 -1.7280 -0.1884 -0.6478
  260MOL0     H35100   4.056   8.478   4.137  1.7500 -0.2344  2.0729
  261MOL0     O35101   0.641  10.522   6.273  0.2521 -0.2280  0.2524
  261MOL0     C35102   0.660  10.628   6.323  0.8472  0.4950  0.4421
  261MOL0     O35103   0.567  10.728   6.320 -0.3539  0.2450 -0.5331
  261MOL0     C35104   0.436  10.705   6.296  0.0956 -0.2574 -0.1415
  261MOL0     C35105   0.367  10.742   6.180 -1.0702 -0.7453  0.0012
  261MOL0     C35106   0.229  10.741   6.166  0.0674 -0.5441 -0.8654
  261MOL0     C35107   0.155  10.710   6.282 -0.0498 -0.7955  0.6550
  261MOL0     O35108   0.023  10.715   6.290  0.3676 -0.2616  0.2620
  261MOL0     C35109  -0.051  10.807   6.207  0.3922  0.3956 -0.2253
  261MOL0     C35110  -0.204  10.792   6.242 -0.8033 -0.1610 -0.2242
  261MOL0     C35111  -0.254  10.874   6.364  0.6648  0.3248 -0.2384
  261MOL0     C35112  -0.375  10.961   6.319 -0.0879 -0.2396  0.1084
  261MOL0     C35113  -0.424  11.048   6.434 -0.7168  0.1569 -0.0790
  261MOL0     C35114  -0.330  11.155   6.502 -0.2460  0.5498 -0.8018
  261MOL0     C35115  -0.295  11.256   6.399 -0.4619 -0.1290  0.6207
  261MOL0     C35116  -0.189  11.353   6.455 -0.2275  0.6892 -0.5285
  261MOL0     N35117  -0.239  11.450   6.552  0.1432 -0.4524 -0.9851
  261MOL0     C35118  -0.238  11.434   6.694 -0.2154 -0.2635  1.0181
  261MOL0     C35119  -0.301  11.543   6.745 -0.8761  0.4922  0.5999
  261MOL0     C35120  -0.331  11.562   6.893  0.8203 -0.6662 -0.6235
  261MOL0     C35121  -0.220  11.500   6.986 -0.3147  0.2916 -0.2968
  261MOL0     C35122  -0.232  11.507   7.143 -0.2826 -0.4640  0.3755
  261MOL0     C35123  -0.369  11.460   7.189  0.7779  0.2278 -0.9441
  261MOL0     O35124  -0.339  11.430   7.321  0.2184 -0.0514  0.1771
  261MOL0     C35125  -0.434  11.381   7.409  0.4033  0.4188 -0.8115
  261MOL0     C35126  -0.385  11.376   7.548  0.4319  0.9549  0.6965
  261MOL0     C35127  -0.475  11.319   7.637 -0.2217 -1.2492 -0.0701
  261MOL0     C35128  -0.613  11.303   7.614  0.4690 -0.0979  0.2135
  261MOL0     C35129  -0.714  11.268   7.729 -0.6729 -1.3430  0.1304
  261MOL0     O35130  -0.841  11.312   7.710  0.4101 -0.4364 -0.2381
  261MOL0     C35131  -0.961  11.270   7.763  0.1093  0.1191  0.1222
  261MOL0     C35132  -1.082  11.332   7.730 -0.1184  0.7333 -0.3778
  261MOL0     C35133  -1.209  11.289   7.773 -0.4842  0.5269  0.5588
  261MOL0     C35134  -1.221  11.191   7.867  0.8708 -0.2227  0.8195
  261MOL0     O35135  -1.336  11.167   7.932 -0.8246  0.4587 -1.0079
  261MOL0     C35136  -1.464  11.171   7.869  0.0359  0.3293 -0.5558
  261MOL0     C35137  -1.466  11.040   7.778 -0.8564 -0.7843  0.2634
  261MOL0     C35138  -1.575  11.021   7.683  0.7278 -0.5453  0.2082
  261MOL0     C35139  -1.568  10.871   7.655 -0.0596  0.2132 -0.7033
  261MOL0     C35140  -1.649  10.845   7.514 -0.7189 -0.1435 -0.3824
  261MOL0     C35141  -1.663  10.697   7.476  0.1261  0.0369 -1.4025
  261MOL0     C35142  -1.538  10.649   7.388 -0.1769  0.3907 -0.3889
  261MOL0     C35143  -1.471  10.520   7.451  0.5821 -0.2296  0.1684
  261MOL0    Cl35144  -1.572  10.375   7.473  0.5648 -0.6117 -0.5001
  261MOL0     C35145  -1.105  11.121   7.894  0.2204 -0.7054 -0.8817
  261MOL0     C35146  -0.980  11.160   7.845 -0.5496  0.7938 -0.2579
  261MOL0     O35147  -0.670  11.222   7.838  0.2300  0.2733 -0.3735
  261MOL0     C35148  -0.659  11.310   7.474  0.2104  0.0659  0.0918
  261MOL0     C35149  -0.571  11.350   7.375 -0.1217  0.5484 -1.4742
  261MOL0     N35150  -0.317  11.633   6.637 -0.1817  1.0834 -0.1293
  261MOL0     N35151  -0.287  11.574   6.530 -0.0589  0.7329 -0.5823
  261MOL0     C35152   0.219  10.653   6.393  0.5192  0.5523  0.8818
  261MOL0     C35153   0.357  10.667   6.403  0.7627  0.0310  0.9689
  261MOL0     C35154   0.776  10.651   6.398 -0.1835 -0.1102  0.3704
  261MOL0     C35155   0.757  10.712   6.519 -0.0311 -0.4314 -0.6613
  261MOL0     C35156   0.867  10.729   6.604 -0.0911 -0.5395  0.3724
  261MOL0     C35157   0.989  10.689   6.560  0.9449  0.0950 -0.0034
  261MOL0     O35158   1.096  10.704   6.640  0.5145  0.2939  0.0914
  261MOL0     C35159   1.170  10.830   6.630  0.2118  0.0255 -0.2787
  261MOL0     C35160   1.275  10.831   6.743 -0.6324 -0.4126  0.0359
  261MOL0     C35161   1.205  10.821   6.879 -0.6042  0.1986  1.0569
  261MOL0     C35162   1.282  10.889   6.989  1.4060  0.0164  0.7777
  261MOL0     C35163   1.257  10.838   7.121  0.9476  0.6451  0.5658
  261MOL0     C35164   1.232  10.787   7.225 -0.1441  0.2073  0.6743
  261MOL0     C35165   1.012  10.637   6.435 -0.3003  0.0155 -0.7658
  261MOL0     C35166   0.904  10.596   6.357 -0.6018 -0.5973 -1.0894
  261MOL0     C35167   0.930  10.523   6.232 -0.7707 -0.0874 -0.1733
  261MOL0     H35168   0.433  10.766   6.098 -0.0455 -1.7890  0.4842
  261MOL0     H35169   0.178  10.779   6.078  2.1264  2.0293 -1.0544
  261MOL0     H35170  -0.024  10.913   6.203 -1.5377  0.9456 -0.0597
  261MOL0     H35171  -0.048  10.753   6.112 -1.7076  2.6535 -1.6952
  261MOL0     H35172  -0.215  10.683   6.251  3.3631 -0.5928  2.0879
  261MOL0     H35173  -0.263  10.812   6.152 -2.4892 -2.3466  0.3168
  261MOL0     H35174  -0.173  10.942   6.390 -1.0553  2.4320 -0.1029
  261MOL0     H35175  -0.273  10.807   6.448  0.0766  0.5105 -0.2205
  261MOL0     H35176  -0.364  11.027   6.232 -0.7898  1.4533  1.2306
  261MOL0     H35177  -0.459  10.894   6.301 -2.0247  1.8037  0.9287
  261MOL0     H35178  -0.512  11.102   6.399 -2.4543 -1.0023  2.1983
  261MOL0     H35179  -0.449  10.979   6.515  0.5877 -0.9877 -0.6173
  261MOL0     H35180  -0.388  11.202   6.582 -1.1030 -1.3662 -0.2411
  261MOL0     H35181  -0.247  11.117   6.563 -0.1454 -0.2192 -1.4007
  261MOL0     H35182  -0.380  11.322   6.379 -0.9781 -1.1966 -0.8417
  261MOL0     H35183  -0.265  11.212   6.303 -3.0958 -1.2312  0.2257
  261MOL0     H35184  -0.104  11.298   6.495  2.5492  3.5340 -2.0143
  261MOL0     H35185  -0.139  11.411   6.376 -0.0853 -1.6925 -2.3149
  261MOL0     H35186  -0.200  11.344   6.742  1.3665 -0.4316 -0.4782
  261MOL0     H35187  -0.339  11.668   6.922  2.1552 -1.1646  1.8641
  261MOL0     H35188  -0.427  11.514   6.911 -0.9006  2.2224 -1.4501
  261MOL0     H35189  -0.209  11.392   6.970 -1.9534  0.0845 -0.1845
  261MOL0     H35190  -0.127  11.552   6.963 -0.8554  2.1108  1.4226
  261MOL0     H35191  -0.212  11.609   7.177 -0.8942 -0.0935 -0.3498
  261MOL0     H35192  -0.152  11.443   7.181 -0.1394  0.6585  2.0918
  261MOL0     H35193  -0.401  11.367   7.140  0.2663 -0.1313  0.0294
  261MOL0     H35194  -0.452  11.530   7.181  2.1673  2.2507  0.9586
  261MOL0     H35195  -0.287  11.415   7.572  0.9177 -0.8176  1.7031
  261MOL0     H35196  -0.449  11.307   7.742  1.2470  1.1163 -0.1035
  261MOL0     H35197  -1.072  11.411   7.656 -0.9610  2.7420  1.5374
  261MOL0     H35198  -1.303  11.325   7.734 -0.8550 -2.3547 -1.5496
  261MOL0     H35199  -1.542  11.159   7.945  0.8033  0.7685  0.3194
  261MOL0     H35200  -1.484  11.267   7.821 -1.2766 -1.0514 -2.9618
  261MOL0     H35201  -1.378  11.055   7.714 -0.6518  3.1813  1.2345
  261MOL0     H35202  -1.447  10.963   7.853  0.0433  2.0911  3.1905
  261MOL0     H35203  -1.671  11.052   7.725  1.4951  1.2331  0.7851
  261MOL0     H35204  -1.562  11.076   7.590 -1.7034 -2.0495 -1.1020
  261MOL0     H35205  -1.606  10.816   7.741 -1.3558  0.4135 -1.1231
  261MOL0     H35206  -1.466  10.839   7.633 -0.2530  0.5743 -2.2719
  261MOL0     H35207  -1.589  10.890   7.435  2.4440 -1.7624  0.9202
  261MOL0     H35208  -1.742  10.903   7.517 -0.4647  0.2853 -0.6596
  261MOL0     H35209  -1.687  10.632   7.561 -0.9175  0.6526 -1.2000
  261MOL0     H35210  -1.749  10.707   7.410  0.0672 -1.3858 -1.5733
  261MOL0     H35211  -1.466  10.732   7.388  0.0800  0.1687 -0.4600
  261MOL0     H35212  -1.571  10.628   7.287  0.4328 -3.5919  0.0934
  261MOL0     H35213  -1.387  10.488   7.387 -0.6310 -5.8299  0.8324
  261MOL0     H35214  -1.427  10.544   7.548 -0.8611 -0.5967  0.9392
  261MOL0     H35215  -1.116  11.044   7.970 -1.6588 -1.3699 -1.7751
  261MOL0     H35216  -0.893  11.100   7.870 -0.3770  1.4721  0.8112
  261MOL0     H35217  -0.760  11.270   7.470 -0.1446  0.6793  1.9163
  261MOL0     H35218  -0.611  11.361   7.274 -1.0313  3.8040 -0.8748
  261MOL0     H35219   0.163  10.625   6.481  0.7759 -2.3819  0.2052
  261MOL0     H35220   0.379  10.650   6.508  0.8814 -1.9687  0.6449
  261MOL0     H35221   0.659  10.749   6.548  0.8185  0.6968  0.9490
  261MOL0     H35222   0.860  10.770   6.704 -4.3322 -1.9689  0.8517
  261MOL0     H35223   1.099  10.913   6.633  1.1431  0.8901 -1.2833
  261MOL0     H35224   1.227  10.836   6.537  0.2837  0.2827 -0.2190
  261MOL0     H35225   1.331  10.923   6.722  0.1894 -0.6210  1.2329
  261MOL0     H35226   1.347  10.750   6.733 -0.5823 -0.3612 -0.0267
  261MOL0     H35227   1.193  10.715   6.904  0.4448  0.2756  1.9449
  261MOL0     H35228   1.106  10.866   6.873  0.7451  3.2053 -1.4970
  261MOL0     H35229   1.390  10.871   6.980  1.2196 -1.0593  0.5275
  261MOL0     H35230   1.274  10.998   6.984 -0.0135  0.1167  3.4298
  261MOL0     H35231   1.227  10.752   7.326  3.4743 -1.0799  0.5438
  261MOL0     H35232   1.111  10.609   6.401  1.4613  1.8683  2.3097
  261MOL0     H35233   0.877  10.566   6.147 -1.5646 -1.1971 -0.2577
  261MOL0     H35234   1.035  10.521   6.204 -1.1067 -2.6563 -1.5679
  261MOL0     H35235   0.900  10.419   6.248  2.6729 -0.7113  3.9144
  262MOL0     O35236   4.505   4.527  10.525  0.4098 -0.1680  0.2412
  262MOL0     C35237   4.606   4.502  10.460 -0.7876 -0.1590  0.3480
  262MOL0     O35238   4.718   4.582  10.459 -0.6380  0.4239 -0.5958
  262MOL0     C35239   4.687   4.716  10.483  0.2698 -0.6859 -0.6287
  262MOL0     C35240   4.640   4.812  10.387  0.2388  0.5289 -0.3915
  262MOL0     C35241   4.613   4.945  10.428  0.1262 -0.0659 -0.7135
  262MOL0     C35242   4.655   4.993  10.554 -0.2553 -0.6750  0.2037
  262MOL0     O35243   4.647   5.130  10.583  0.0240  0.2432 -0.1745
  262MOL0     C35244   4.744   5.203  10.505 -0.3556 -0.5570  0.5532
  262MOL0     C35245   4.737   5.341  10.555  0.6061  0.0365  0.1347
  262MOL0     C35246   4.856   5.436  10.515 -0.0035  0.1099  0.6747
  262MOL0     C35247   4.893   5.440  10.363 -0.5098  0.9015 -0.1739
  262MOL0     C35248   5.016   5.522  10.345  0.0457 -0.0428 -0.0833
  262MOL0     C35249   5.143   5.438  10.382  0.8125 -0.5112  0.4451
  262MOL0     C35250   5.265   5.520  10.327  0.3885  0.1397 -0.6600
  262MOL0     C35251   5.287   5.657  10.401  0.8593 -0.0598  0.5360
  262MOL0     N35252   5.423   5.693  10.403  0.0136  0.4714  0.5249
  262MOL0     C35253   5.507   5.743  10.304 -0.4330 -0.3103  0.3223
  262MOL0     C35254   5.635   5.754  10.351  0.4376  0.7128  0.0697
  262MOL0     C35255   5.745   5.807  10.278 -0.0800 -0.3950  0.8458
  262MOL0     C35256   5.889   5.785  10.338 -1.0823 -1.0033  0.4215
  262MOL0     C35257   5.951   5.642  10.316  0.6982 -0.3432 -1.0720
  262MOL0     C35258   6.051   5.600  10.422 -0.4442 -0.0060  0.0280
  262MOL0     O35259   6.183   5.661  10.394  0.6739  0.1826 -0.3446
  262MOL0     C35260   6.295   5.620  10.462 -0.2535 -0.1516  0.4612
  262MOL0     C35261   6.422   5.662  10.418 -0.2798  0.6809  0.1923
  262MOL0     C35262   6.541   5.611  10.467  0.5258  0.6819  0.2259
  262MOL0     C35263   6.536   5.525  10.579 -0.8514 -0.0686 -0.1003
  262MOL0     C35264   6.666   5.468  10.616  0.2626 -0.5783  0.0190
  262MOL0     O35265   6.655   5.389  10.723 -0.1929  0.5617 -0.0043
  262MOL0     C35266   6.755   5.317  10.775  0.5942  0.0212 -0.2566
  262MOL0     C35267   6.886   5.356  10.804 -1.0314  0.5044  0.6140
  262MOL0     C35268   6.983   5.278  10.872  0.0704 -0.0903 -0.7956
  262MOL0     C35269   6.941   5.149  10.915 -0.0938 -1.5406 -0.1607
  262MOL0     O35270   7.022   5.059  10.978 -0.1384 -0.0836 -0.4709
  262MOL0     C35271   7.146   5.115  11.027 -0.2756  0.6020 -0.7797
  262MOL0     C35272   7.225   5.019  11.099 -0.4858  0.2812 -0.0594
  262MOL0     C35273   7.255   4.886  11.029 -0.2619 -0.4298 -0.1268
  262MOL0     C35274   7.138   4.791  11.044 -0.2604  0.6784 -0.7563
  262MOL0     C35275   7.159   4.664  10.962 -0.8592  0.0227  0.7510
  262MOL0     C35276   7.018   4.588  10.976  0.5583  0.1620  0.8514
  262MOL0     C35277   7.013   4.446  10.927 -0.2282  0.2589  0.1253
  262MOL0     C35278   7.102   4.421  10.812 -0.1756  0.3757  0.0477
  262MOL0    Cl35279   7.033   4.499  10.659  0.3071 -0.1494  0.3505
  262MOL0     C35280   6.806   5.111  10.899 -0.3774 -0.1172  0.3443
  262MOL0     C35281   6.716   5.195  10.832 -0.1085  0.5182  0.8519
  262MOL0     O35282   6.765   5.484  10.543  0.0710  0.0957 -0.1832
  262MOL0     C35283   6.417   5.470  10.621  0.8106 -0.0495  1.2859
  262MOL0     C35284   6.298   5.522  10.564  0.0435 -0.0968 -0.2132
  262MOL0     N35285   5.635   5.694  10.476 -0.7490  0.3151  0.2698
  262MOL0     N35286   5.512   5.658  10.500  0.1609  0.5907  0.3652
  262MOL0     C35287   4.707   4.902  10.642 -0.0393 -0.7720  0.1652
  262MOL0     C35288   4.722   4.767  10.612 -0.6850 -0.0757  0.0148
  262MOL0     C35289   4.607   4.376  10.384  0.3216  0.5461 -0.4843
  262MOL0     C35290   4.550   4.270  10.457 -0.3412 -0.8363  0.7669
  262MOL0     C35291   4.548   4.149  10.388  0.4740 -0.0153  0.0595
  262MOL0     C35292   4.608   4.132  10.258 -0.1089  0.0563  0.1107
  262MOL0     O35293   4.641   4.012  10.198  0.1837 -0.3072 -0.2237
  262MOL0     C35294   4.581   3.895  10.264 -0.7309  0.0173  0.0157
  262MOL0     C35295   4.632   3.769  10.179 -0.7646  0.1827  0.9056
  262MOL0     C35296   4.626   3.793  10.024 -0.8134 -0.6641 -0.5332
  262MOL0     C35297   4.688   3.671   9.955 -0.7958  0.2337 -0.3927
  262MOL0     C35298   4.701   3.695   9.808  0.0610 -0.7609 -0.4917
  262MOL0     C35299   4.705   3.739   9.699  0.1515 -0.6058 -0.0666
  262MOL0     C35300   4.661   4.240  10.193  1.4768 -0.7423  0.2050
  262MOL0     C35301   4.662   4.364  10.252  0.2551  0.1603 -0.1671
  262MOL0     C35302   4.729   4.479  10.177 -1.4053  0.8798 -0.1354
  262MOL0     H35303   4.623   4.778  10.286 -0.7037 -1.7877  0.4868
  262MOL0     H35304   4.567   5.021  10.366 -0.1336  0.0458 -0.3905
  262MOL0     H35305   4.842   5.154  10.508 -0.6629 -1.1725  3.4228
  262MOL0     H35306   4.699   5.219  10.406  0.2954  3.4089  0.7207
  262MOL0     H35307   4.719   5.351  10.662 -2.0222  0.3728 -0.2666
  262MOL0     H35308   4.647   5.375  10.503  1.0502 -0.6199 -1.0939
  262MOL0     H35309   4.938   5.397  10.576  0.3561 -0.3556 -0.0891
  262MOL0     H35310   4.822   5.534  10.546  2.8780  1.2176  0.6580
  262MOL0     H35311   4.916   5.337  10.332 -2.1981  0.2165  0.7427
  262MOL0     H35312   4.805   5.478  10.310 -1.4975 -1.3511 -0.2435
  262MOL0     H35313   5.008   5.563  10.244 -0.5672  0.7644  0.2786
  262MOL0     H35314   5.011   5.605  10.416  1.6882  0.0776 -0.0686
  262MOL0     H35315   5.142   5.421  10.490 -3.7465 -0.6536  0.6061
  262MOL0     H35316   5.142   5.339  10.336  1.5448 -1.0573  1.5673
  262MOL0     H35317   5.261   5.517  10.218  2.3291  1.3767 -0.8067
  262MOL0     H35318   5.354   5.463  10.356  0.1528 -1.6930 -3.2347
  262MOL0     H35319   5.226   5.743  10.371  1.3424  0.8602  2.0738
  262MOL0     H35320   5.250   5.649  10.504 -3.2445  3.2423 -0.3700
  262MOL0     H35321   5.458   5.780  10.214  0.0952 -2.6214 -0.9991
  262MOL0     H35322   5.747   5.749  10.186 -0.4763  2.1149 -0.8375
  262MOL0     H35323   5.720   5.912  10.258 -0.1789 -0.7075 -0.7293
  262MOL0     H35324   5.953   5.856  10.286 -1.5511  0.8168  2.1791
  262MOL0     H35325   5.885   5.824  10.440 -3.4333  1.3239 -0.4393
  262MOL0     H35326   6.005   5.631  10.221  2.1161 -0.0410 -0.3238
  262MOL0     H35327   5.863   5.576  10.315  0.4835 -0.0637 -1.7166
  262MOL0     H35328   6.057   5.491  10.410 -3.8100  0.0076 -4.6274
  262MOL0     H35329   6.033   5.636  10.523  0.3286  3.2357 -0.8548
  262MOL0     H35330   6.432   5.715  10.324  2.3174 -0.4193 -0.2268
  262MOL0     H35331   6.626   5.655  10.416  0.5134  0.6393  0.1685
  262MOL0     H35332   6.904   5.461  10.783 -1.9982  0.9813  2.0972
  262MOL0     H35333   7.074   5.330  10.897 -1.8802  2.7440  0.9701
  262MOL0     H35334   7.199   5.147  10.937  0.1251  0.9368 -0.4230
  262MOL0     H35335   7.126   5.202  11.089 -0.3935  1.7378 -2.3426
  262MOL0     H35336   7.324   5.059  11.126 -0.4686 -1.1569  2.2721
  262MOL0     H35337   7.176   4.986  11.191  3.3491 -2.9486  1.0916
  262MOL0     H35338   7.281   4.903  10.924  3.7851 -1.9746  0.4860
  262MOL0     H35339   7.341   4.835  11.073 -1.1203 -0.4703  1.5909
  262MOL0     H35340   7.041   4.837  11.024 -1.6487 -1.0032  1.5941
  262MOL0     H35341   7.124   4.760  11.148 -0.8515  1.4335 -0.5993
  262MOL0     H35342   7.233   4.601  11.011 -0.8782  0.4493  1.3362
  262MOL0     H35343   7.191   4.680  10.858  0.4745  0.5349  1.2242
  262MOL0     H35344   6.988   4.599  11.081  1.4668 -0.9185  1.2441
  262MOL0     H35345   6.948   4.648  10.917 -0.3092 -0.9291  0.7194
  262MOL0     H35346   6.913   4.421  10.892 -0.3390  1.5100 -0.4751
  262MOL0     H35347   7.042   4.378  11.008 -0.5391 -0.5469 -0.4189
  262MOL0     H35348   7.205   4.456  10.825 -0.8871  3.6559 -2.0458
  262MOL0     H35349   7.112   4.316  10.783 -0.3507  0.2823  0.3285
  262MOL0     H35350   6.773   5.016  10.939 -3.8264  0.9755  0.4301
  262MOL0     H35351   6.619   5.147  10.825 -0.0990  0.7260 -2.0549
  262MOL0     H35352   6.409   5.387  10.690 -0.3467  1.3286  2.8891
  262MOL0     H35353   6.208   5.484  10.612 -0.0318  0.0214 -0.2608
  262MOL0     H35354   4.753   4.943  10.732 -0.2076 -3.2107  1.4581
  262MOL0     H35355   4.759   4.701  10.690 -2.4464  0.1275  1.0730
  262MOL0     H35356   4.501   4.284  10.553 -3.2117 -0.9901 -0.5713
  262MOL0     H35357   4.500   4.068  10.443  0.9920 -0.0721  0.4384
  262MOL0     H35358   4.473   3.912  10.273 -0.7131 -0.2065  0.7655
  262MOL0     H35359   4.610   3.874  10.367 -1.3907 -1.0668  0.0023
  262MOL0     H35360   4.574   3.682  10.210 -0.2357 -0.3182  0.4896
  262MOL0     H35361   4.739   3.752  10.196 -0.9581 -0.8173  1.1578
  262MOL0     H35362   4.684   3.882   9.996 -0.7642 -0.2071  0.9249
  262MOL0     H35363   4.523   3.808   9.990 -0.2588  1.2498 -1.5103
  262MOL0     H35364   4.789   3.662   9.996 -1.1450 -1.1488  0.2227
  262MOL0     H35365   4.628   3.580   9.966 -2.0948  1.1102 -0.0200
  262MOL0     H35366   4.705   3.779   9.600  0.0272  1.1349  0.6024
  262MOL0     H35367   4.711   4.234  10.097  1.4675  0.1166  0.1355
  262MOL0     H35368   4.810   4.531  10.231  0.3734  0.0712 -1.8797
  262MOL0     H35369   4.775   4.450  10.082 -1.1927 -0.1558  0.2732
  262MOL0     H35370   4.648   4.548  10.149 -1.8334  0.0491 -0.9893
  263MOL0     O35371   5.252   9.155  10.392  0.4327 -0.4168  0.3527
  263MOL0     C35372   5.348   9.102  10.447 -0.7417 -0.2265 -0.9033
  263MOL0     O35373   5.484   9.125  10.415  0.0553  0.0314 -0.3470
  263MOL0     C35374   5.497   9.151  10.285 -0.3998 -0.7126 -0.3506
  263MOL0     C35375   5.570   9.050  10.220 -1.3902 -0.6799  0.6055
  263MOL0     C35376   5.583   9.056  10.082  0.4969  0.6941  0.1052
  263MOL0     C35377   5.536   9.172  10.011  0.8908  0.0782 -0.3479
  263MOL0     O35378   5.540   9.199   9.876  0.8645 -0.5441  0.2022
  263MOL0     C35379   5.613   9.125   9.782  1.0888 -0.4311 -0.5697
  263MOL0     C35380   5.764   9.130   9.793 -0.7099 -0.8303 -0.2006
  263MOL0     C35381   5.847   9.032   9.717 -0.5983  1.1346  0.4070
  263MOL0     C35382   5.859   8.890   9.768 -0.2611  0.3325  0.2261
  263MOL0     C35383   5.933   8.791   9.659 -0.1997 -0.9877  0.4371
  263MOL0     C35384   5.843   8.688   9.597  0.2998 -0.4617  1.0085
  263MOL0     C35385   5.909   8.580   9.515  0.9272  0.0860  0.8660
  263MOL0     C35386   5.818   8.515   9.402  0.3114  0.1406 -0.2476
  263MOL0     N35387   5.691   8.470   9.454  0.2807 -0.3137 -0.5349
  263MOL0     C35388   5.674   8.355   9.527 -0.2541 -0.4702 -0.4215
  263MOL0     C35389   5.549   8.322   9.507 -0.5027  0.1207  0.5497
  263MOL0     C35390   5.467   8.201   9.557 -0.4444 -0.0268 -0.5574
  263MOL0     C35391   5.449   8.084   9.468  0.5559 -0.0204 -0.2816
  263MOL0     C35392   5.327   8.120   9.379 -0.7085 -0.0144  0.4476
  263MOL0     C35393   5.298   8.008   9.278  0.5167 -0.7109 -0.2571
  263MOL0     O35394   5.288   7.880   9.340 -0.3496  0.6538  0.3254
  263MOL0     C35395   5.195   7.835   9.427 -0.1120  0.2934 -0.4295
  263MOL0     C35396   5.227   7.710   9.475  0.0520  0.4989  0.0346
  263MOL0     C35397   5.140   7.637   9.559  0.2409  0.1285  0.1649
  263MOL0     C35398   5.015   7.693   9.595 -0.2655  0.3117 -0.0642
  263MOL0     C35399   4.921   7.615   9.669  0.7685  0.7375 -0.4757
  263MOL0     O35400   4.791   7.669   9.680  0.4167  0.2077  0.2525
  263MOL0     C35401   4.681   7.606   9.740 -1.4235 -0.5249 -0.0805
  263MOL0     C35402   4.672   7.473   9.782  0.3516  0.3679 -0.2157
  263MOL0     C35403   4.553   7.431   9.845 -0.3712 -0.4402  0.9065
  263MOL0     C35404   4.441   7.524   9.870  0.9537  0.3576  0.3111
  263MOL0     O35405   4.314   7.488   9.927 -0.2987  0.3216  0.0568
  263MOL0     C35406   4.308   7.368  10.009 -0.6755 -0.8037  0.5127
  263MOL0     C35407   4.246   7.255   9.923 -0.3318  0.2604  0.1028
  263MOL0     C35408   4.091   7.246   9.930 -0.0691  0.0831 -0.5494
  263MOL0     C35409   4.047   7.101   9.942 -0.5561 -0.1405 -0.0602
  263MOL0     C35410   3.903   7.084   9.875  0.4432 -0.7140  0.0871
  263MOL0     C35411   3.867   6.937   9.839  0.2616 -0.8681  0.1749
  263MOL0     C35412   3.957   6.907   9.715 -0.8578  0.0017 -0.2466
  263MOL0     C35413   3.897   6.793   9.636 -0.2708  0.2089  0.0024
  263MOL0    Cl35414   4.020   6.735   9.514 -0.2556  0.4560  0.0776
  263MOL0     C35415   4.466   7.658   9.845  0.5330  1.1215 -0.4754
  263MOL0     C35416   4.583   7.700   9.767 -0.0590  0.3153 -1.0332
  263MOL0     O35417   4.955   7.504   9.712  0.8769 -0.0352  0.2582
  263MOL0     C35418   4.978   7.823   9.545 -0.0617 -0.3029 -0.1367
  263MOL0     C35419   5.068   7.895   9.462 -0.0250  0.7133  0.9402
  263MOL0     N35420   5.481   8.422   9.436 -0.1570  0.2381 -0.1444
  263MOL0     N35421   5.573   8.512   9.406 -0.1194  0.4239  1.2216
  263MOL0     C35422   5.474   9.277  10.082  0.4768  0.8377 -0.3561
  263MOL0     C35423   5.456   9.266  10.219 -0.1046 -0.4307  0.5433
  263MOL0     C35424   5.330   9.006  10.565 -0.7306  0.1884  0.2498
  263MOL0     C35425   5.441   8.964  10.635 -0.1027  0.4997  0.4041
  263MOL0     C35426   5.436   8.872  10.740  0.1177  0.4674  0.2419
  263MOL0     C35427   5.316   8.819  10.781  0.2923  1.0303  0.6160
  263MOL0     O35428   5.314   8.722  10.886 -0.1245 -0.0394 -0.1800
  263MOL0     C35429   5.197   8.718  10.972 -0.6170 -0.3885 -0.3950
  263MOL0     C35430   5.161   8.848  11.053 -0.0801 -0.2711  0.5505
  263MOL0     C35431   5.260   8.892  11.171  1.3156  0.6299  0.4142
  263MOL0     C35432   5.396   8.936  11.111  0.3894 -0.4319 -0.2532
  263MOL0     C35433   5.491   8.825  11.101 -0.5589  0.0435 -0.5543
  263MOL0     C35434   5.556   8.729  11.098  0.6071  0.0195 -0.7534
  263MOL0     C35435   5.201   8.865  10.715 -0.0810  0.3517 -0.9024
  263MOL0     C35436   5.208   8.956  10.609  0.9263  0.0497 -1.4507
  263MOL0     C35437   5.074   8.973  10.534 -0.6853  0.7157  0.1771
  263MOL0     H35438   5.616   8.967  10.273  2.7778  0.6407 -0.5228
  263MOL0     H35439   5.627   8.975  10.025  0.5618 -1.9834  3.5863
  263MOL0     H35440   5.574   9.023   9.782 -2.0174  0.6669 -0.5037
  263MOL0     H35441   5.582   9.157   9.682  0.2570  1.6097  0.2881
  263MOL0     H35442   5.797   9.117   9.896  1.6375  1.8513 -0.5018
  263MOL0     H35443   5.785   9.235   9.769 -1.4380 -0.9146 -1.3045
  263MOL0     H35444   5.948   9.075   9.716 -1.8857  4.5457 -1.6315
  263MOL0     H35445   5.814   9.033   9.613  0.6825  0.6429 -0.0279
  263MOL0     H35446   5.915   8.887   9.862  1.5432  0.5878 -0.8023
  263MOL0     H35447   5.755   8.864   9.789 -0.7977  1.0348 -1.4256
  263MOL0     H35448   5.971   8.855   9.579  0.5993  1.9372  3.0036
  263MOL0     H35449   6.027   8.743   9.688  1.1429  0.7091 -0.8698
  263MOL0     H35450   5.781   8.645   9.676  0.7447  2.5028  3.1746
  263MOL0     H35451   5.771   8.743   9.535  0.4251 -2.2515 -0.8078
  263MOL0     H35452   5.948   8.507   9.586  0.5687 -3.2445 -2.0653
  263MOL0     H35453   5.995   8.619   9.459  1.1836 -3.7644 -1.8106
  263MOL0     H35454   5.803   8.590   9.324 -0.6307  1.2439  0.9380
  263MOL0     H35455   5.878   8.435   9.357 -1.8335 -1.6412 -0.1126
  263MOL0     H35456   5.746   8.288   9.573 -0.7723 -2.4082 -2.2962
  263MOL0     H35457   5.517   8.171   9.650 -2.4543  0.4645  0.7476
  263MOL0     H35458   5.370   8.233   9.596  0.3381  0.8961  0.7056
  263MOL0     H35459   5.539   8.053   9.413 -0.2182 -0.2749 -1.4376
  263MOL0     H35460   5.421   8.002   9.535 -0.0244  0.9799  0.7386
  263MOL0     H35461   5.361   8.213   9.331  1.2946 -0.6771  0.4752
  263MOL0     H35462   5.238   8.140   9.439 -0.1114  2.1321  0.7090
  263MOL0     H35463   5.380   8.013   9.206 -0.9439 -3.6383 -2.3144
  263MOL0     H35464   5.205   8.028   9.224  0.6913  0.8234 -0.0331
  263MOL0     H35465   5.315   7.651   9.452 -1.7808 -2.1346 -0.7286
  263MOL0     H35466   5.156   7.531   9.578 -1.6759 -0.7333 -2.4056
  263MOL0     H35467   4.754   7.402   9.774  1.5380  1.6999 -0.2575
  263MOL0     H35468   4.544   7.325   9.866  1.2332 -0.7108  0.3366
  263MOL0     H35469   4.408   7.331  10.035 -0.9387 -1.1192  1.0683
  263MOL0     H35470   4.262   7.392  10.105  0.9263 -1.8804  1.5977
  263MOL0     H35471   4.276   7.276   9.820  0.3329 -0.6345  0.1106
  263MOL0     H35472   4.276   7.156   9.958  0.4640  0.8582  1.1524
  263MOL0     H35473   4.047   7.298  10.016 -0.8484  0.7900 -1.3526
  263MOL0     H35474   4.059   7.292   9.836 -3.6560  0.5590  0.7123
  263MOL0     H35475   4.053   7.075  10.048 -1.4337  1.7628  0.5167
  263MOL0     H35476   4.112   7.041   9.879  0.6423  2.7868 -1.8262
  263MOL0     H35477   3.900   7.148   9.787  4.9130  0.6414  0.6899
  263MOL0     H35478   3.834   7.119   9.953  0.0198 -0.1761 -0.5200
  263MOL0     H35479   3.896   6.880   9.927  2.4039 -2.8581 -1.6758
  263MOL0     H35480   3.761   6.923   9.817 -0.8237  0.1533  4.0066
  263MOL0     H35481   4.047   6.872   9.765 -3.6034 -3.8828  2.5835
  263MOL0     H35482   3.990   6.993   9.655  0.0285  1.9431  2.7912
  263MOL0     H35483   3.871   6.715   9.709 -0.3954  0.4968  0.2647
  263MOL0     H35484   3.805   6.819   9.584 -1.5216  0.9771  2.4340
  263MOL0     H35485   4.380   7.722   9.862 -0.8298 -0.8206  0.3224
  263MOL0     H35486   4.591   7.799   9.722  0.3846  0.8845  0.2768
  263MOL0     H35487   4.884   7.868   9.577 -1.1075 -2.1216 -0.5287
  263MOL0     H35488   5.040   7.993   9.426 -0.4538 -0.1721 -1.3059
  263MOL0     H35489   5.429   9.358  10.026  1.7285 -0.0248 -2.7582
  263MOL0     H35490   5.408   9.340  10.282 -4.9131 -1.1525 -1.8321
  263MOL0     H35491   5.540   9.001  10.612 -0.2719 -0.0147 -1.2567
  263MOL0     H35492   5.531   8.857  10.791 -0.3675 -0.1100  0.9848
  263MOL0     H35493   5.218   8.645  11.051  0.8890  1.6211  1.1724
  263MOL0     H35494   5.107   8.681  10.923 -1.1615  0.1849  0.1407
  263MOL0     H35495   5.059   8.837  11.093  0.1039  1.9601  1.7867
  263MOL0     H35496   5.160   8.930  10.980 -1.5032  0.5806  1.4634
  263MOL0     H35497   5.271   8.801  11.230 -0.3361 -1.4199 -2.1721
  263MOL0     H35498   5.215   8.976  11.225  2.4999  0.5975  1.4878
  263MOL0     H35499   5.386   8.978  11.010 -2.2325  0.3845  0.2705
  263MOL0     H35500   5.439   9.022  11.163 -5.2606  3.9950 -1.8880
  263MOL0     H35501   5.615   8.640  11.085  4.7418  2.4379 -0.3818
  263MOL0     H35502   5.112   8.808  10.741  0.3013  0.0744 -0.1992
  263MOL0     H35503   4.998   9.017  10.598 -0.3053  2.6620 -0.6351
  263MOL0     H35504   5.067   9.035  10.444 -3.9512 -1.3267 -1.1433
  263MOL0     H35505   5.042   8.874  10.501  0.6204  0.5294 -0.6357
  264MOL0     O35506   1.442   4.747   4.216 -0.0810 -0.5864  0.1549
  264MOL0     C35507   1.356   4.795   4.288 -0.8361 -0.1063 -0.1693
  264MOL0     O35508   1.385   4.869   4.401 -0.4186  0.8796 -0.2677
  264MOL0     C35509   1.511   4.896   4.440  0.3931 -0.3015 -0.1548
  264MOL0     C35510   1.592   4.818   4.522  1.6723  0.0493 -0.1693
  264MOL0     C35511   1.724   4.855   4.552 -0.0582  0.2216  0.2175
  264MOL0     C35512   1.776   4.981   4.533 -0.0629 -1.0262  1.0034
  264MOL0     O35513   1.897   5.030   4.574  0.6754 -0.3773  0.6071
  264MOL0     C35514   1.954   4.961   4.680 -0.8108 -0.7390 -0.7948
  264MOL0     C35515   2.043   4.848   4.619  0.7781  0.3133  1.1322
  264MOL0     C35516   2.168   4.887   4.567 -0.5380  0.1955  0.4206
  264MOL0     C35517   2.260   4.777   4.521 -0.2910  1.2085 -0.1382
  264MOL0     C35518   2.402   4.826   4.526  0.0180 -0.0406  0.0927
  264MOL0     C35519   2.452   4.845   4.384 -0.3231  1.4977  0.2201
  264MOL0     C35520   2.578   4.920   4.374 -0.3510  0.0098  0.5869
  264MOL0     C35521   2.702   4.846   4.441  0.0250  0.1948 -0.2326
  264MOL0     N35522   2.831   4.927   4.416 -0.5012 -0.3753  0.8275
  264MOL0     C35523   2.850   5.059   4.450 -0.5598 -0.1037 -0.2624
  264MOL0     C35524   2.955   5.103   4.377  0.0057 -0.1269 -0.3720
  264MOL0     C35525   3.012   5.234   4.371 -0.9024 -0.7849  0.4632
  264MOL0     C35526   3.146   5.250   4.458  0.6033  0.1388  0.2459
  264MOL0     C35527   3.266   5.203   4.377 -0.0808 -0.2566  0.2477
  264MOL0     C35528   3.386   5.263   4.448  0.2107 -0.3211  0.4290
  264MOL0     O35529   3.498   5.200   4.386  1.1243  0.2653  0.6683
  264MOL0     C35530   3.621   5.235   4.418 -0.3290 -0.1215  0.7185
  264MOL0     C35531   3.661   5.344   4.496 -0.5181 -0.3475 -1.2363
  264MOL0     C35532   3.802   5.364   4.509 -0.5390  0.1188 -0.2359
  264MOL0     C35533   3.887   5.265   4.456 -0.5144 -0.2038 -0.3636
  264MOL0     C35534   4.037   5.276   4.478  0.5980 -0.1108 -1.1879
  264MOL0     O35535   4.073   5.409   4.502  1.0941 -0.4338 -0.4565
  264MOL0     C35536   4.200   5.453   4.535 -0.9995  0.4541 -0.3946
  264MOL0     C35537   4.321   5.388   4.488  0.5692 -0.2149  0.4719
  264MOL0     C35538   4.430   5.437   4.539 -0.2722 -0.2999 -0.5839
  264MOL0     C35539   4.441   5.546   4.624 -0.1968  0.1838  0.5565
  264MOL0     O35540   4.572   5.570   4.665 -0.0722 -0.2837  0.2679
  264MOL0     C35541   4.603   5.707   4.710  0.6994  0.1553  0.5699
  264MOL0     C35542   4.753   5.724   4.756 -0.8885 -0.4608  0.0391
  264MOL0     C35543   4.844   5.709   4.639  0.3348 -1.2566 -0.0398
  264MOL0     C35544   4.974   5.787   4.661  0.3119  1.0544 -0.1966
  264MOL0     C35545   5.055   5.758   4.539 -0.4375  0.1300 -0.0115
  264MOL0     C35546   5.180   5.858   4.525  0.5101  0.9157 -0.0724
  264MOL0     C35547   5.146   5.994   4.511  0.5354  0.3252  0.0035
  264MOL0     C35548   5.276   6.073   4.482  0.5564  0.2249  0.2232
  264MOL0    Cl35549   5.256   6.252   4.525  0.1443 -0.3469  0.0497
  264MOL0     C35550   4.326   5.620   4.656 -1.1773  0.6820 -0.4975
  264MOL0     C35551   4.205   5.564   4.617  0.1767 -0.6870 -0.6620
  264MOL0     O35552   4.116   5.183   4.459  0.0026  0.4604 -0.0913
  264MOL0     C35553   3.847   5.155   4.388  0.5882  0.1497 -0.0305
  264MOL0     C35554   3.710   5.147   4.356 -0.2944 -0.1836  0.5748
  264MOL0     N35555   3.002   4.996   4.299  0.2331 -0.7736  0.1204
  264MOL0     N35556   2.926   4.903   4.323 -0.6305  1.3298  0.1588
  264MOL0     C35557   1.688   5.072   4.461  0.1599  0.2031  0.6017
  264MOL0     C35558   1.561   5.028   4.420 -0.8026 -0.4128  2.3609
  264MOL0     C35559   1.219   4.793   4.242  0.0377 -0.5325  0.8016
  264MOL0     C35560   1.135   4.893   4.304  0.5122  0.5680 -0.7926
  264MOL0     C35561   1.004   4.909   4.270  0.0253 -0.5864  0.5029
  264MOL0     C35562   0.946   4.819   4.173 -0.6261  0.1074  0.2884
  264MOL0     O35563   0.822   4.833   4.115 -0.1170  0.0806  0.1782
  264MOL0     C35564   0.741   4.927   4.178 -0.1097 -0.5047 -0.5406
  264MOL0     C35565   0.601   4.928   4.113 -0.3486  0.0480  0.5912
  264MOL0     C35566   0.488   4.946   4.210 -0.2844  0.0912 -0.1335
  264MOL0     C35567   0.351   4.958   4.151 -0.8983  0.2915 -0.8753
  264MOL0     C35568   0.336   5.094   4.091 -0.3656 -0.3165 -0.3236
  264MOL0     C35569   0.342   5.196   4.030 -0.3885 -0.4526 -0.0102
  264MOL0     C35570   1.024   4.710   4.128  0.4217  0.6003  0.1684
  264MOL0     C35571   1.160   4.698   4.158  0.1314 -0.8542  0.3175
  264MOL0     C35572   1.243   4.588   4.084 -0.8217 -0.9979 -0.0379
  264MOL0     H35573   1.548   4.725   4.557  0.1568 -0.3355 -2.8407
  264MOL0     H35574   1.788   4.777   4.592 -0.7067 -0.2650  0.3300
  264MOL0     H35575   2.017   5.024   4.743 -0.4674  0.2953 -2.1094
  264MOL0     H35576   1.887   4.921   4.756 -1.6980  2.3987  0.2382
  264MOL0     H35577   1.995   4.802   4.532  2.8689 -0.3270  0.2446
  264MOL0     H35578   2.062   4.770   4.694 -0.5618 -0.9321  0.2320
  264MOL0     H35579   2.217   4.956   4.636 -1.7980  0.2182  1.3056
  264MOL0     H35580   2.158   4.968   4.494  1.0395  1.1340  1.1838
  264MOL0     H35581   2.258   4.696   4.594 -0.6663  2.0491  0.7911
  264MOL0     H35582   2.223   4.728   4.430 -1.9677 -1.5610  1.8761
  264MOL0     H35583   2.412   4.921   4.578  0.8345 -0.5666  0.9356
  264MOL0     H35584   2.462   4.749   4.577 -2.6484 -1.2865  1.5552
  264MOL0     H35585   2.474   4.744   4.349  0.8845  1.1291  1.8747
  264MOL0     H35586   2.376   4.892   4.322 -0.7231  0.5196 -0.0481
  264MOL0     H35587   2.564   5.021   4.413 -3.3202  0.9096 -2.4472
  264MOL0     H35588   2.595   4.927   4.266 -4.3643  2.5363 -0.0633
  264MOL0     H35589   2.686   4.822   4.547 -0.4908 -1.4116 -0.6530
  264MOL0     H35590   2.723   4.749   4.395  1.4614  0.8751 -1.0972
  264MOL0     H35591   2.794   5.113   4.526  0.0928 -0.3970  0.4343
  264MOL0     H35592   3.039   5.266   4.269 -0.8190 -0.5136  0.5691
  264MOL0     H35593   2.942   5.309   4.409 -1.9774 -3.0906  3.3714
  264MOL0     H35594   3.157   5.356   4.484  4.4805 -0.5508  2.1609
  264MOL0     H35595   3.148   5.189   4.548  2.2678 -0.8330 -0.4045
  264MOL0     H35596   3.259   5.229   4.271 -1.4593 -4.9320 -1.0231
  264MOL0     H35597   3.274   5.094   4.380  2.4378 -0.1049  1.5472
  264MOL0     H35598   3.379   5.263   4.557 -0.5915  1.6905  0.4373
  264MOL0     H35599   3.403   5.363   4.406 -0.6208 -0.6957 -0.8598
  264MOL0     H35600   3.594   5.409   4.552  1.0516 -0.8115  1.3041
  264MOL0     H35601   3.837   5.450   4.565  1.3624 -1.6243  1.4125
  264MOL0     H35602   4.327   5.318   4.405 -2.0891  1.8550 -1.6671
  264MOL0     H35603   4.522   5.389   4.507  0.6099  2.2120 -2.0533
  264MOL0     H35604   4.583   5.778   4.630  0.7064 -2.1040 -1.5658
  264MOL0     H35605   4.541   5.732   4.797 -1.4712  0.2049 -0.9116
  264MOL0     H35606   4.761   5.826   4.795  1.2524  0.0408 -1.4971
  264MOL0     H35607   4.770   5.652   4.836 -1.2834  0.5208  1.0436
  264MOL0     H35608   4.858   5.604   4.612 -1.0457 -1.1514 -1.3605
  264MOL0     H35609   4.796   5.768   4.560  2.6912  2.7025  1.2243
  264MOL0     H35610   5.023   5.753   4.753 -1.4995 -2.6354 -0.3898
  264MOL0     H35611   4.949   5.893   4.667 -0.9274  0.8773 -1.5381
  264MOL0     H35612   4.992   5.764   4.449 -2.7124 -1.2092  1.3978
  264MOL0     H35613   5.103   5.660   4.541  1.4575  1.0204  0.6089
  264MOL0     H35614   5.254   5.842   4.603  0.7647 -2.4753 -0.8896
  264MOL0     H35615   5.221   5.831   4.427 -2.4507  3.3377 -2.2011
  264MOL0     H35616   5.108   6.027   4.608 -1.6018  1.0609 -1.0253
  264MOL0     H35617   5.075   6.014   4.430 -1.9152 -0.1735  1.9126
  264MOL0     H35618   5.354   6.042   4.552  1.3935  0.0364 -0.7628
  264MOL0     H35619   5.311   6.067   4.378  1.5096  0.0140  0.5428
  264MOL0     H35620   4.335   5.703   4.725  0.7578 -0.1316  0.2684
  264MOL0     H35621   4.109   5.607   4.647  1.1502 -0.7434  3.1565
  264MOL0     H35622   3.902   5.063   4.371 -2.0889 -2.0399  2.2641
  264MOL0     H35623   3.668   5.073   4.289  1.0831 -0.9594  0.5309
  264MOL0     H35624   1.714   5.176   4.450 -0.8521  0.5656  1.4361
  264MOL0     H35625   1.509   5.095   4.352  0.7201 -2.3469 -1.0125
  264MOL0     H35626   1.170   4.967   4.375 -0.3709 -0.7482  1.0905
  264MOL0     H35627   0.965   5.002   4.310  0.9810 -1.0973  2.7220
  264MOL0     H35628   0.774   5.031   4.179 -0.3466 -0.2652  3.9801
  264MOL0     H35629   0.740   4.912   4.286  0.6961  3.2313  0.1411
  264MOL0     H35630   0.586   4.836   4.056 -0.2614 -0.7161  1.7803
  264MOL0     H35631   0.594   5.011   4.043 -1.0517  1.4207  2.2219
  264MOL0     H35632   0.505   5.041   4.263 -1.0254 -0.0863  0.4302
  264MOL0     H35633   0.478   4.864   4.281 -0.8475  3.1544  3.6862
  264MOL0     H35634   0.335   4.875   4.081  1.6311  0.9612 -2.3835
  264MOL0     H35635   0.283   4.936   4.234 -1.6771  0.6215 -1.4117
  264MOL0     H35636   0.357   5.276   3.959  5.3608 -1.1976 -0.1194
  264MOL0     H35637   0.985   4.636   4.060  1.7431  0.1518 -0.1243
  264MOL0     H35638   1.180   4.546   4.005  0.4617 -1.5252 -0.8055
  264MOL0     H35639   1.320   4.637   4.025  2.2903 -2.1896  2.7550
  264MOL0     H35640   1.295   4.514   4.146 -2.2439 -1.8568  0.2009
  265MOL0     O35641   6.155   6.166   5.102  0.0391  0.2611  0.0751
  265MOL0     C35642   6.156   6.097   5.201 -0.5976  0.4647 -0.9548
  265MOL0     O35643   6.261   6.099   5.289 -0.1193  0.1123 -0.0241
  265MOL0     C35644   6.380   6.154   5.234  0.6171 -1.1462  0.2285
  265MOL0     C35645   6.452   6.103   5.126  0.5237 -0.1794 -0.3002
  265MOL0     C35646   6.573   6.156   5.086  0.0995  0.0276 -0.8138
  265MOL0     C35647   6.620   6.265   5.150 -0.1552  0.0863 -0.5923
  265MOL0     O35648   6.736   6.325   5.122 -0.8492 -0.2601 -0.5151
  265MOL0     C35649   6.807   6.273   5.014 -0.3805  0.4049 -0.1657
  265MOL0     C35650   6.939   6.353   5.012 -0.7109  1.2065 -0.4219
  265MOL0     C35651   7.054   6.266   4.960  0.1174  0.0425 -0.1217
  265MOL0     C35652   7.163   6.341   4.890 -0.5520  0.5687  0.1208
  265MOL0     C35653   7.268   6.254   4.827 -0.3616 -0.5547 -0.7577
  265MOL0     C35654   7.339   6.329   4.718  0.8708  0.8816 -1.0482
  265MOL0     C35655   7.466   6.248   4.685 -0.3252  0.3452 -0.7057
  265MOL0     C35656   7.548   6.322   4.578 -0.4249  0.5610  0.5954
  265MOL0     N35657   7.578   6.463   4.610  0.4075 -0.6970  0.0448
  265MOL0     C35658   7.672   6.494   4.711  0.4316  0.3496 -0.2380
  265MOL0     C35659   7.671   6.623   4.712  0.2088  1.1674  0.2362
  265MOL0     C35660   7.747   6.714   4.814  0.1627 -0.7328  0.3768
  265MOL0     C35661   7.888   6.751   4.765 -0.7354  0.7336  0.6684
  265MOL0     C35662   7.967   6.797   4.885 -0.1881 -0.5602 -0.8757
  265MOL0     C35663   8.100   6.859   4.853  0.0806  0.0593 -0.3960
  265MOL0     O35664   8.156   6.916   4.972  1.1652  0.6565  0.0888
  265MOL0     C35665   8.288   6.963   4.976 -0.2536  0.9739 -0.0098
  265MOL0     C35666   8.342   6.980   5.105 -0.2119  0.2335 -0.1194
  265MOL0     C35667   8.479   7.023   5.124  1.2749 -0.4731  0.1625
  265MOL0     C35668   8.559   7.040   5.009  1.1085  0.4504  0.6816
  265MOL0     C35669   8.701   7.066   5.034 -0.1658 -0.3102 -0.0365
  265MOL0     O35670   8.761   7.099   4.917 -0.6361  0.0841 -0.0746
  265MOL0     C35671   8.903   7.108   4.924 -0.2639  0.5626 -0.9553
  265MOL0     C35672   8.979   6.995   4.960 -0.7562 -0.0116 -0.1362
  265MOL0     C35673   9.120   7.001   4.942 -0.2922  0.0254 -0.4459
  265MOL0     C35674   9.176   7.118   4.893 -1.1492  0.3882 -0.3936
  265MOL0     O35675   9.314   7.123   4.874 -0.0527 -0.0643  1.0467
  265MOL0     C35676   9.355   7.111   4.733  0.0381  0.6707 -0.3222
  265MOL0     C35677   9.508   7.110   4.725  0.4756 -0.2763 -0.2945
  265MOL0     C35678   9.594   6.996   4.796 -0.3856  0.0848  0.1729
  265MOL0     C35679   9.536   6.851   4.773  0.3464 -0.0832  0.6695
  265MOL0     C35680   9.559   6.800   4.626 -0.1578 -0.4047 -0.3046
  265MOL0     C35681   9.703   6.833   4.566 -0.3442 -0.4499  0.4119
  265MOL0     C35682   9.746   6.751   4.442  0.0138  0.2885 -0.5555
  265MOL0     C35683   9.733   6.833   4.311  0.2403 -0.6670  0.2158
  265MOL0    Cl35684   9.868   6.960   4.314  0.2762 -0.0166 -0.0548
  265MOL0     C35685   9.106   7.232   4.875 -0.0662 -0.3163  0.9761
  265MOL0     C35686   8.967   7.228   4.894  0.0434 -0.7337 -0.0976
  265MOL0     O35687   8.756   7.059   5.147 -0.6131  0.1974 -0.5283
  265MOL0     C35688   8.500   7.037   4.882  0.2917  0.3635  0.1026
  265MOL0     C35689   8.372   6.985   4.865  0.5155  0.2589 -1.2358
  265MOL0     N35690   7.580   6.666   4.614 -0.3113 -0.9765  0.0358
  265MOL0     N35691   7.520   6.573   4.557  0.3444 -0.3612  0.2347
  265MOL0     C35692   6.549   6.324   5.259  0.1081  0.0247  1.0946
  265MOL0     C35693   6.435   6.261   5.307  1.1008 -0.9290 -0.1216
  265MOL0     C35694   6.032   6.017   5.248 -0.4639 -0.8511 -0.1171
  265MOL0     C35695   6.014   6.003   5.388 -0.5746 -0.8470  0.2613
  265MOL0     C35696   5.911   5.921   5.434 -0.6148 -0.2772  0.8679
  265MOL0     C35697   5.818   5.877   5.347  1.1053 -0.0942  0.5194
  265MOL0     O35698   5.705   5.808   5.389  0.5162 -0.4943  0.3234
  265MOL0     C35699   5.648   5.814   5.522  0.6068 -0.8358  0.4326
  265MOL0     C35700   5.572   5.947   5.552 -0.2229 -0.8146 -0.9399
  265MOL0     C35701   5.452   5.975   5.461 -0.7588  0.6853  0.1433
  265MOL0     C35702   5.421   6.124   5.449 -0.3306  0.5211  0.0240
  265MOL0     C35703   5.370   6.175   5.578  0.0943 -0.6374  0.0101
  265MOL0     C35704   5.326   6.232   5.679 -0.7351  0.4536 -0.1661
  265MOL0     C35705   5.825   5.896   5.209 -0.0130 -0.0634 -0.2956
  265MOL0     C35706   5.937   5.961   5.158 -0.0152 -0.8229  0.4638
  265MOL0     C35707   5.961   5.969   5.005  0.4507 -0.2248  0.0880
  265MOL0     H35708   6.405   6.015   5.083 -1.5981  0.7385  0.0169
  265MOL0     H35709   6.641   6.103   5.020 -0.9468 -3.7229  0.7959
  265MOL0     H35710   6.837   6.168   5.027 -2.0068 -0.0305  0.2484
  265MOL0     H35711   6.760   6.278   4.916 -1.5979 -0.8234  0.3117
  265MOL0     H35712   6.961   6.395   5.111 -3.3509  1.7358  0.0070
  265MOL0     H35713   6.916   6.431   4.939  1.9586  2.1727 -0.3415
  265MOL0     H35714   7.019   6.193   4.888  0.8641  1.9706 -2.5692
  265MOL0     H35715   7.088   6.202   5.043 -2.5558  1.2486  2.0710
  265MOL0     H35716   7.119   6.406   4.813 -1.1884  0.6082  0.5087
  265MOL0     H35717   7.212   6.396   4.971 -0.9033  2.4824 -0.9164
  265MOL0     H35718   7.338   6.219   4.904  1.9369  2.0405 -1.5075
  265MOL0     H35719   7.218   6.170   4.780 -0.9796  1.3709 -3.8392
  265MOL0     H35720   7.283   6.350   4.626  0.5418  2.5172 -0.5143
  265MOL0     H35721   7.358   6.422   4.773 -1.9512 -0.5025  2.7021
  265MOL0     H35722   7.438   6.155   4.635  0.6061 -0.9789  1.1333
  265MOL0     H35723   7.521   6.209   4.771 -1.7610 -0.4987 -0.1494
  265MOL0     H35724   7.642   6.268   4.563 -0.0150  1.0273  1.4037
  265MOL0     H35725   7.500   6.322   4.480  0.7469  1.8765 -0.0241
  265MOL0     H35726   7.721   6.432   4.785  0.4073  0.5051 -0.0920
  265MOL0     H35727   7.675   6.796   4.819 -2.7621 -2.7692 -3.0171
  265MOL0     H35728   7.743   6.656   4.906 -3.3665 -3.2615 -1.1351
  265MOL0     H35729   7.929   6.658   4.724 -0.3162  0.7035  1.1467
  265MOL0     H35730   7.895   6.825   4.684  2.4381  0.4505  0.5620
  265MOL0     H35731   7.988   6.714   4.953  0.4545  0.2327 -0.0720
  265MOL0     H35732   7.917   6.878   4.939  3.3090  2.7613 -2.1328
  265MOL0     H35733   8.090   6.936   4.777 -0.2375 -0.4755 -0.9055
  265MOL0     H35734   8.166   6.783   4.811  0.9237  0.1112  0.7677
  265MOL0     H35735   8.279   6.961   5.191  0.9062 -2.4630  0.2146
  265MOL0     H35736   8.527   7.031   5.221  2.4943 -2.3491 -0.2297
  265MOL0     H35737   8.936   6.896   4.970 -2.5271  0.7563  0.1883
  265MOL0     H35738   9.186   6.918   4.966 -1.1512 -0.7342 -0.7034
  265MOL0     H35739   9.319   7.018   4.688  1.3197 -0.7026  1.3453
  265MOL0     H35740   9.310   7.190   4.673 -1.7739 -0.5421 -0.6360
  265MOL0     H35741   9.538   7.107   4.620  3.5151 -1.2629  0.4856
  265MOL0     H35742   9.539   7.210   4.757  1.6786 -0.3055 -1.2901
  265MOL0     H35743   9.700   7.000   4.769 -0.8121 -3.0448 -2.7645
  265MOL0     H35744   9.589   7.011   4.904  0.1212  0.5206  0.1357
  265MOL0     H35745   9.429   6.842   4.792  0.1188  0.0863 -0.4946
  265MOL0     H35746   9.589   6.786   4.844  1.1027  1.0947  1.2252
  265MOL0     H35747   9.490   6.838   4.551  1.5431  0.5043 -1.4677
  265MOL0     H35748   9.535   6.694   4.639 -1.6238 -0.4964 -3.0072
  265MOL0     H35749   9.725   6.938   4.546  0.7725 -0.6060  0.7705
  265MOL0     H35750   9.777   6.812   4.643 -0.3041  0.5736  0.6534
  265MOL0     H35751   9.678   6.665   4.444 -1.4774  1.4660  0.3901
  265MOL0     H35752   9.852   6.726   4.455  0.5453  2.2387 -0.8818
  265MOL0     H35753   9.743   6.769   4.223  2.8181 -1.3577  0.9104
  265MOL0     H35754   9.633   6.874   4.296  0.5427  0.1440  0.3991
  265MOL0     H35755   9.155   7.318   4.831  0.0804 -0.4663  0.8471
  265MOL0     H35756   8.901   7.313   4.886  0.3860 -0.3557  0.8675
  265MOL0     H35757   8.553   7.079   4.797 -0.2613  0.2843 -0.2886
  265MOL0     H35758   8.329   6.991   4.766 -0.1203  0.7121 -0.9382
  265MOL0     H35759   6.587   6.417   5.300 -1.1395  1.2103 -0.3138
  265MOL0     H35760   6.371   6.309   5.380  2.1288  3.0665 -1.5952
  265MOL0     H35761   6.090   6.028   5.462 -0.4057  0.6445 -0.3925
  265MOL0     H35762   5.899   5.899   5.539 -0.5532 -0.1402  0.9041
  265MOL0     H35763   5.726   5.815   5.599  0.4040  1.7231  0.7089
  265MOL0     H35764   5.591   5.722   5.520 -1.5791  0.4693 -0.7362
  265MOL0     H35765   5.643   6.030   5.552 -0.7415 -0.3524 -1.9157
  265MOL0     H35766   5.526   5.941   5.651  0.4704 -0.0782 -0.5708
  265MOL0     H35767   5.369   5.920   5.505  2.2816 -1.7896  3.4183
  265MOL0     H35768   5.466   5.940   5.358  0.0069  3.9295 -0.9535
  265MOL0     H35769   5.511   6.172   5.410  0.8051 -3.0661 -2.2089
  265MOL0     H35770   5.346   6.150   5.373  0.3287  0.3314 -0.7101
  265MOL0     H35771   5.288   6.292   5.759 -1.0830 -0.5672  0.4580
  265MOL0     H35772   5.742   5.866   5.145 -0.6853  2.8155 -0.9199
  265MOL0     H35773   5.920   6.060   4.960  1.1164  1.0695  1.9793
  265MOL0     H35774   6.067   5.972   4.976 -0.2346  2.3230 -2.6584
  265MOL0     H35775   5.906   5.884   4.965 -1.1145  1.2728 -1.1286
  266MOL0     O35776   4.010   0.458   8.704 -0.5978 -0.1741 -0.1985
  266MOL0     C35777   3.971   0.480   8.821  0.3092  0.7633  0.1907
  266MOL0     O35778   3.838   0.483   8.855 -1.0791  0.0507 -0.1289
  266MOL0     C35779   3.742   0.446   8.766 -0.7417  0.2269 -0.3308
  266MOL0     C35780   3.735   0.515   8.644 -0.6160 -0.8458 -0.0532
  266MOL0     C35781   3.643   0.489   8.556  1.0781  0.3701  0.3597
  266MOL0     C35782   3.538   0.396   8.582  1.2306 -0.6322 -0.3428
  266MOL0     O35783   3.422   0.410   8.511 -0.2549  0.6398  0.0759
  266MOL0     C35784   3.302   0.345   8.550 -0.1212  0.4971  0.5231
  266MOL0     C35785   3.217   0.310   8.425  0.4346  0.0748 -0.1549
  266MOL0     C35786   3.232   0.166   8.372  0.0726  0.4871 -0.3605
  266MOL0     C35787   3.334   0.162   8.256 -0.0150  0.4575  0.1777
  266MOL0     C35788   3.481   0.196   8.290  0.5500  0.3349 -0.1306
  266MOL0     C35789   3.575   0.147   8.175 -0.0392  0.5675 -0.6427
  266MOL0     C35790   3.709   0.188   8.226 -1.0928 -0.1069  0.4715
  266MOL0     C35791   3.740   0.337   8.245 -1.2058  1.0375 -0.7153
  266MOL0     N35792   3.887   0.367   8.251 -0.9594 -0.0219  0.2144
  266MOL0     C35793   3.960   0.352   8.366  0.7240 -0.9877  0.2354
  266MOL0     C35794   4.090   0.324   8.336  0.1962 -0.4065  0.7580
  266MOL0     C35795   4.193   0.289   8.442  0.2566  0.3610 -1.1465
  266MOL0     C35796   4.315   0.231   8.380 -0.8777 -0.2978  0.1862
  266MOL0     C35797   4.317   0.079   8.404 -0.2388  0.5281  0.0357
  266MOL0     C35798   4.442   0.010   8.335 -0.1227 -0.2197  0.4888
  266MOL0     O35799   4.558   0.069   8.403  0.1570 -0.1755 -0.0042
  266MOL0     C35800   4.673   0.073   8.335 -0.4893 -0.2707  0.3451
  266MOL0     C35801   4.713   0.189   8.266  1.0047  0.0350 -0.6007
  266MOL0     C35802   4.835   0.198   8.203 -0.3936 -0.2445  0.5749
  266MOL0     C35803   4.928   0.096   8.206 -0.4573  0.4516  0.6656
  266MOL0     C35804   5.062   0.116   8.150  0.1998 -0.5169 -0.7390
  266MOL0     O35805   5.106   0.242   8.123  0.1129 -0.2127 -0.1206
  266MOL0     C35806   5.226   0.259   8.074 -0.1078 -0.7545 -0.2110
  266MOL0     C35807   5.335   0.304   8.154 -1.8039 -0.1030  0.1186
  266MOL0     C35808   5.456   0.333   8.084 -0.3571 -0.2098  0.5117
  266MOL0     C35809   5.467   0.311   7.946 -0.1687  0.3343 -0.5717
  266MOL0     O35810   5.594   0.326   7.895  0.5224 -0.6153 -0.7988
  266MOL0     C35811   5.599   0.392   7.773 -0.6131 -0.1441  0.0805
  266MOL0     C35812   5.742   0.443   7.750 -0.9124 -0.7561  0.1322
  266MOL0     C35813   5.809   0.482   7.886  0.5016  0.1048  0.6785
  266MOL0     C35814   5.930   0.570   7.857 -0.1503  1.2690  0.4229
  266MOL0     C35815   6.061   0.509   7.790  0.9071  0.4500  0.6292
  266MOL0     C35816   6.166   0.617   7.760 -0.2094  0.9334 -0.1645
  266MOL0     C35817   6.286   0.564   7.664  0.9929  0.4837  0.0073
  266MOL0     C35818   6.373   0.675   7.615  0.8093  0.4742  1.5684
  266MOL0    Cl35819   6.495   0.707   7.739 -0.0492 -0.0271 -0.2866
  266MOL0     C35820   5.352   0.254   7.880  0.4084  0.2667  0.8268
  266MOL0     C35821   5.235   0.229   7.942  0.2278 -0.1240 -0.1385
  266MOL0     O35822   5.132   0.020   8.140  0.1702  0.0950  0.7731
  266MOL0     C35823   4.890  -0.017   8.279  0.2791 -0.6664  0.2100
  266MOL0     C35824   4.768  -0.029   8.351  0.2522  0.0859  0.0115
  266MOL0     N35825   4.098   0.346   8.194 -0.2709  0.0151 -0.1116
  266MOL0     N35826   3.982   0.375   8.147  0.9006 -0.5549 -0.5552
  266MOL0     C35827   3.550   0.326   8.705  0.3609 -0.1097  0.5001
  266MOL0     C35828   3.656   0.345   8.791  0.4327  0.3539 -0.4517
  266MOL0     C35829   4.058   0.488   8.944  0.0619  0.3443  0.1064
  266MOL0     C35830   3.993   0.497   9.078 -0.0223  0.4017 -0.5876
  266MOL0     C35831   4.071   0.494   9.188  0.1005 -0.4894  0.4702
  266MOL0     C35832   4.212   0.473   9.177 -0.6663  0.4896  0.1245
  266MOL0     O35833   4.293   0.459   9.288  0.1067  0.1458  0.6086
  266MOL0     C35834   4.304   0.576   9.360 -0.5529 -0.9418  0.3563
  266MOL0     C35835   4.408   0.670   9.285  0.0624  0.2903 -0.1664
  266MOL0     C35836   4.548   0.595   9.273 -0.3594  0.0163 -0.8487
  266MOL0     C35837   4.638   0.605   9.404 -0.0922 -0.5774  0.3201
  266MOL0     C35838   4.746   0.505   9.390 -0.0627  0.3138  0.2195
  266MOL0     C35839   4.833   0.421   9.381  0.3247  0.9080 -0.0880
  266MOL0     C35840   4.273   0.481   9.050 -0.1168 -0.2232  0.5083
  266MOL0     C35841   4.202   0.488   8.931  1.5726  0.5113  0.4145
  266MOL0     C35842   4.265   0.471   8.799 -0.0841 -0.0794 -0.5701
  266MOL0     H35843   3.801   0.600   8.629 -0.7119 -0.7061  0.3077
  266MOL0     H35844   3.633   0.565   8.478  2.2427  2.7736  2.4209
  266MOL0     H35845   3.335   0.247   8.584  2.6484  0.3639 -2.2256
  266MOL0     H35846   3.247   0.400   8.628 -0.4566  0.3777  0.3751
  266MOL0     H35847   3.232   0.389   8.351 -2.3062  1.7300  0.8878
  266MOL0     H35848   3.119   0.318   8.473  0.8092  1.9642  0.3997
  266MOL0     H35849   3.135   0.131   8.334 -0.9263  1.7231  0.9670
  266MOL0     H35850   3.270   0.101   8.452 -0.5956  1.9472  1.1938
  266MOL0     H35851   3.322   0.065   8.208 -2.1532  1.4128 -1.3837
  266MOL0     H35852   3.295   0.225   8.175  2.8472 -1.7938 -3.2868
  266MOL0     H35853   3.486   0.304   8.305  1.7324  0.2169  0.3947
  266MOL0     H35854   3.514   0.148   8.382 -0.1488 -2.7252 -1.3630
  266MOL0     H35855   3.569   0.040   8.155  1.0540  0.5988 -1.1992
  266MOL0     H35856   3.562   0.205   8.083  1.1030  1.3739 -0.3149
  266MOL0     H35857   3.783   0.158   8.151  1.1005  3.2161  1.0916
  266MOL0     H35858   3.732   0.132   8.318  1.8423 -0.5194 -0.3842
  266MOL0     H35859   3.710   0.400   8.160 -0.1255 -1.7281 -3.3652
  266MOL0     H35860   3.698   0.362   8.343  4.3818 -0.3368  2.4240
  266MOL0     H35861   3.924   0.347   8.468  1.1020 -1.4724  0.3460
  266MOL0     H35862   4.225   0.377   8.498  1.2591  0.4180 -1.7847
  266MOL0     H35863   4.157   0.223   8.521  1.4952 -0.2688 -1.0810
  266MOL0     H35864   4.330   0.255   8.275 -2.3080  2.0193  0.4487
  266MOL0     H35865   4.406   0.268   8.428 -1.2496  0.1212  0.5759
  266MOL0     H35866   4.229   0.037   8.353  1.3707 -0.6519 -1.8867
  266MOL0     H35867   4.324   0.058   8.511  0.1306  0.3593 -0.0207
  266MOL0     H35868   4.434   0.027   8.227 -1.0315  0.6943  0.6959
  266MOL0     H35869   4.443  -0.099   8.350 -1.6646 -0.2269  0.6403
  266MOL0     H35870   4.638   0.268   8.269  0.2401 -0.6740 -0.7932
  266MOL0     H35871   4.869   0.293   8.162  0.9964 -1.2662 -0.8082
  266MOL0     H35872   5.336   0.320   8.261  2.7798  0.8628  0.1609
  266MOL0     H35873   5.535   0.383   8.138  0.2289  1.6412 -1.9076
  266MOL0     H35874   5.569   0.335   7.685  2.5186  0.2089 -1.3243
  266MOL0     H35875   5.540   0.484   7.782  2.0442  1.5956  1.1329
  266MOL0     H35876   5.807   0.369   7.703 -0.8520 -0.8175  0.3120
  266MOL0     H35877   5.739   0.522   7.674  2.4364 -1.4891 -0.9194
  266MOL0     H35878   5.733   0.530   7.948 -1.8873  0.3341 -2.2098
  266MOL0     H35879   5.841   0.392   7.941 -1.1126 -1.8036 -1.3316
  266MOL0     H35880   5.954   0.617   7.953 -1.0671 -1.5588  2.1835
  266MOL0     H35881   5.892   0.650   7.794 -1.5208 -0.6748 -1.3626
  266MOL0     H35882   6.033   0.456   7.698 -1.1969  0.2899  1.2890
  266MOL0     H35883   6.105   0.432   7.854  2.4426 -0.4112 -1.3604
  266MOL0     H35884   6.114   0.697   7.707 -3.4072 -2.0211 -1.9446
  266MOL0     H35885   6.205   0.655   7.855  0.2618 -1.1471  0.5244
  266MOL0     H35886   6.243   0.515   7.578  2.6952  0.3788 -0.8333
  266MOL0     H35887   6.352   0.493   7.715  0.7660  0.8712  0.8564
  266MOL0     H35888   6.422   0.642   7.522 -3.2488 -3.4287  0.4757
  266MOL0     H35889   6.319   0.763   7.578 -0.4074 -1.1076 -0.6596
  266MOL0     H35890   5.354   0.250   7.772 -2.5954 -0.7358  0.7188
  266MOL0     H35891   5.154   0.210   7.873 -0.4520  3.1136 -0.3931
  266MOL0     H35892   4.962  -0.097   8.288  3.2016  1.9017  1.5617
  266MOL0     H35893   4.742  -0.119   8.406 -1.2528  0.8932  0.6725
  266MOL0     H35894   3.475   0.251   8.730  0.7363 -0.3243  1.0003
  266MOL0     H35895   3.662   0.287   8.883  1.1663  0.6556 -0.3034
  266MOL0     H35896   3.888   0.492   9.105 -0.0333  2.7849 -0.0156
  266MOL0     H35897   4.033   0.491   9.290 -1.3141 -4.2807  0.0152
  266MOL0     H35898   4.334   0.569   9.465  2.5644  1.6299 -0.2180
  266MOL0     H35899   4.212   0.635   9.363 -1.1888 -1.9239  0.7210
  266MOL0     H35900   4.432   0.758   9.345 -0.3355  0.3917 -0.1539
  266MOL0     H35901   4.382   0.708   9.186  2.7254 -2.8194 -2.2645
  266MOL0     H35902   4.606   0.651   9.199 -1.7998  1.1771 -1.1516
  266MOL0     H35903   4.546   0.493   9.235  2.6411  0.5862 -2.9177
  266MOL0     H35904   4.679   0.707   9.412 -0.9947 -0.0009 -1.6441
  266MOL0     H35905   4.589   0.568   9.494  1.7259 -0.8191  1.2715
  266MOL0     H35906   4.896   0.339   9.354 -1.1369 -0.7991  1.3789
  266MOL0     H35907   4.381   0.468   9.041 -0.2360 -2.7009  1.6834
  266MOL0     H35908   4.252   0.550   8.724 -2.2735  1.1331  0.9797
  266MOL0     H35909   4.371   0.462   8.822  0.0095  3.1463  0.8531
  266MOL0     H35910   4.226   0.382   8.749 -0.6874 -0.0091 -0.2317
  267MOL0     O35911   3.060   6.613   9.955  0.3510  0.3096 -1.0588
  267MOL0     C35912   2.999   6.708   9.918 -0.1769  0.3520 -1.2179
  267MOL0     O35913   3.003   6.766   9.794 -0.2428  1.1092 -0.5204
  267MOL0     C35914   3.120   6.764   9.737  0.1793 -0.6971  0.0255
  267MOL0     C35915   3.243   6.792   9.805  0.0486 -0.0688  0.2791
  267MOL0     C35916   3.359   6.784   9.722 -0.1044  0.1726 -0.0519
  267MOL0     C35917   3.359   6.781   9.581  0.3425 -0.0065  0.0046
  267MOL0     O35918   3.481   6.784   9.522  0.4621 -0.3068  0.2715
  267MOL0     C35919   3.498   6.893   9.428 -0.2238  0.3273  0.3405
  267MOL0     C35920   3.595   6.992   9.499  0.3705  0.2839  0.0355
  267MOL0     C35921   3.723   7.034   9.418  0.4405  0.0362  0.0575
  267MOL0     C35922   3.693   7.112   9.296 -0.6867 -0.4327  0.8174
  267MOL0     C35923   3.820   7.176   9.220  0.0016 -0.1578  0.4578
  267MOL0     C35924   3.906   7.067   9.162  0.8550 -0.2745 -0.1260
  267MOL0     C35925   4.046   7.126   9.108  0.1505  0.1060 -1.3171
  267MOL0     C35926   4.127   7.012   9.029 -0.2507  0.7060  0.0715
  267MOL0     N35927   4.267   7.033   9.028  1.1989 -0.0800 -0.4060
  267MOL0     C35928   4.363   6.940   9.044 -0.6724 -0.4368  0.0323
  267MOL0     C35929   4.487   7.003   9.075 -0.3768 -0.4572 -0.3566
  267MOL0     C35930   4.628   6.942   9.114  0.7141 -0.5177 -0.7410
  267MOL0     C35931   4.714   6.957   8.994  0.0687  0.0128 -0.5216
  267MOL0     C35932   4.791   7.091   9.006 -0.6170 -0.7755  0.5307
  267MOL0     C35933   4.941   7.066   9.057 -1.2251  0.1097 -0.4047
  267MOL0     O35934   5.018   7.004   8.951  0.2390  0.1086 -0.4256
  267MOL0     C35935   5.145   6.986   8.981 -0.0779  0.1786 -0.6167
  267MOL0     C35936   5.212   7.028   9.094  0.4276  0.1558  0.0519
  267MOL0     C35937   5.350   6.998   9.110 -0.4039  0.5476 -0.3376
  267MOL0     C35938   5.419   6.925   9.005 -0.6804 -1.4598 -0.5985
  267MOL0     C35939   5.561   6.892   9.018  0.3610 -0.0089 -0.7275
  267MOL0     O35940   5.606   6.870   9.143 -0.3184  0.7032 -0.1145
  267MOL0     C35941   5.741   6.887   9.175 -0.8559  0.1956 -0.3712
  267MOL0     C35942   5.846   6.839   9.107 -0.3565 -0.9500  0.6169
  267MOL0     C35943   5.979   6.847   9.157 -0.3307  0.9772 -0.7144
  267MOL0     C35944   6.010   6.903   9.280 -0.2596  0.3239 -0.4006
  267MOL0     O35945   6.134   6.932   9.321  0.7553 -0.0566 -0.0495
  267MOL0     C35946   6.199   6.821   9.396  1.1712  0.0049 -0.2085
  267MOL0     C35947   6.342   6.852   9.440  0.3557 -0.0749  0.0575
  267MOL0     C35948   6.405   6.717   9.471  0.0386  0.0759  0.8851
  267MOL0     C35949   6.560   6.719   9.487 -0.4454 -0.4539  0.8135
  267MOL0     C35950   6.621   6.661   9.611  0.0448 -0.5454 -0.0894
  267MOL0     C35951   6.772   6.678   9.612 -0.8268  0.3518  0.7100
  267MOL0     C35952   6.831   6.616   9.740 -0.0855 -0.0370  0.2494
  267MOL0     C35953   6.976   6.642   9.750 -0.3021 -0.2535 -0.3526
  267MOL0    Cl35954   7.055   6.552   9.875 -0.0905 -0.2582  0.4778
  267MOL0     C35955   5.906   6.972   9.342  0.5129  0.6834 -0.7650
  267MOL0     C35956   5.776   6.962   9.295  0.0708  0.5324 -0.2087
  267MOL0     O35957   5.626   6.909   8.919  0.8281  0.2733  0.1656
  267MOL0     C35958   5.350   6.888   8.888  0.3275 -0.1450 -0.4210
  267MOL0     C35959   5.216   6.917   8.879  0.2229  0.2097  0.2530
  267MOL0     N35960   4.455   7.143   9.065 -0.0688  0.3473  0.4976
  267MOL0     N35961   4.327   7.158   9.048 -0.6471 -0.0799 -0.4616
  267MOL0     C35962   3.233   6.769   9.518  0.2857  0.0906  0.7948
  267MOL0     C35963   3.117   6.759   9.596  0.2630  0.1346  0.3741
  267MOL0     C35964   2.897   6.742  10.007  0.5391 -0.6265  0.3864
  267MOL0     C35965   2.801   6.651  10.049 -0.0472  0.1232 -0.2407
  267MOL0     C35966   2.684   6.697  10.106 -0.4630 -0.3555 -0.2627
  267MOL0     C35967   2.654   6.831  10.110 -0.4882 -0.5345 -0.0833
  267MOL0     O35968   2.529   6.881  10.144  0.3535 -0.2594 -0.3666
  267MOL0     C35969   2.468   6.825  10.269  0.1846  0.3307 -0.3433
  267MOL0     C35970   2.392   6.932  10.339 -0.1351 -0.5628  1.2810
  267MOL0     C35971   2.278   6.887  10.432 -0.7161  0.4295 -0.6351
  267MOL0     C35972   2.323   6.918  10.584 -0.1804 -0.5365 -1.3533
  267MOL0     C35973   2.237   6.860  10.687  0.6775  0.3594 -0.4937
  267MOL0     C35974   2.174   6.822  10.785  0.3182 -0.2173  0.3122
  267MOL0     C35975   2.751   6.919  10.068 -1.0362 -0.2500  0.1194
  267MOL0     C35976   2.873   6.878  10.037 -0.8872 -0.5580 -0.0384
  267MOL0     C35977   2.982   6.976  10.022 -0.1547 -0.3018  0.5119
  267MOL0     H35978   3.252   6.803   9.913  1.8079 -1.5572  0.3339
  267MOL0     H35979   3.458   6.803   9.763  0.8034  1.8684 -2.7502
  267MOL0     H35980   3.539   6.849   9.337 -2.1334  2.7726 -1.8645
  267MOL0     H35981   3.404   6.932   9.389 -1.0894 -2.4981 -0.6417
  267MOL0     H35982   3.623   6.941   9.592  1.9925 -0.1469 -0.6435
  267MOL0     H35983   3.533   7.070   9.543 -0.2929 -1.0203  1.4873
  267MOL0     H35984   3.784   6.948   9.389  0.0856 -0.4687  0.7817
  267MOL0     H35985   3.787   7.081   9.493  1.7463 -1.2714 -0.2193
  267MOL0     H35986   3.640   7.057   9.218  1.8826 -2.1577  0.1552
  267MOL0     H35987   3.628   7.191   9.336  0.4760  0.4500  1.0431
  267MOL0     H35988   3.789   7.249   9.145  2.4085  1.2852  0.7723
  267MOL0     H35989   3.889   7.234   9.282 -0.9746  0.9737  0.5201
  267MOL0     H35990   3.909   6.979   9.227  0.3535  2.2168  3.5619
  267MOL0     H35991   3.848   7.041   9.073  1.7715  0.7604 -1.0410
  267MOL0     H35992   4.107   7.158   9.193 -1.3030 -2.3064  0.7954
  267MOL0     H35993   4.024   7.212   9.044 -2.1675 -0.1493 -0.9644
  267MOL0     H35994   4.111   6.915   9.076  3.2272 -0.2846 -0.4972
  267MOL0     H35995   4.091   7.002   8.926  1.4161 -1.8141 -0.3520
  267MOL0     H35996   4.360   6.832   9.032 -0.1742 -0.1900 -2.8180
  267MOL0     H35997   4.673   6.992   9.201  0.7047  1.2036 -1.6878
  267MOL0     H35998   4.619   6.834   9.130 -0.2870 -0.1762  1.3697
  267MOL0     H35999   4.779   6.869   8.989 -1.3117 -1.1575  1.0309
  267MOL0     H36000   4.647   6.973   8.909 -0.3179  0.7927 -0.0855
  267MOL0     H36001   4.741   7.151   9.083  0.7130  1.5411 -0.2878
  267MOL0     H36002   4.781   7.148   8.913  1.2726  0.8436  1.2455
  267MOL0     H36003   4.949   7.001   9.144 -0.0121  0.5521 -0.1661
  267MOL0     H36004   4.989   7.162   9.079 -1.5648  0.3703 -0.7893
  267MOL0     H36005   5.158   7.083   9.170 -1.7879  0.3211 -1.5368
  267MOL0     H36006   5.402   7.040   9.196  0.9369 -0.3592 -0.6647
  267MOL0     H36007   5.845   6.788   9.012 -2.5300  1.1365 -0.5797
  267MOL0     H36008   6.071   6.813   9.109  0.4421  1.4833  0.3507
  267MOL0     H36009   6.146   6.795   9.488  0.4536 -2.9053 -1.3421
  267MOL0     H36010   6.201   6.730   9.336  2.1053 -0.8957  1.1483
  267MOL0     H36011   6.396   6.908   9.364 -0.2910 -0.1496 -0.4671
  267MOL0     H36012   6.323   6.919   9.524 -0.6509 -0.9702  0.5856
  267MOL0     H36013   6.360   6.687   9.566 -2.9528  0.5761 -0.2632
  267MOL0     H36014   6.376   6.634   9.407  0.9609 -0.3916  1.0667
  267MOL0     H36015   6.605   6.816   9.466 -0.8627 -0.6659 -1.2733
  267MOL0     H36016   6.597   6.654   9.407 -2.1531 -0.8304  0.2792
  267MOL0     H36017   6.594   6.556   9.626 -1.8768 -0.4082 -2.1305
  267MOL0     H36018   6.579   6.721   9.692  0.6296 -0.7324  0.3619
  267MOL0     H36019   6.818   6.629   9.525 -2.1580  0.1308  0.1118
  267MOL0     H36020   6.797   6.784   9.620 -0.8498  0.3345  1.0202
  267MOL0     H36021   6.819   6.507   9.745  2.2693 -0.3153  1.2024
  267MOL0     H36022   6.777   6.656   9.826 -0.0827  0.7806 -0.1210
  267MOL0     H36023   7.022   6.613   9.654  0.6808 -0.9679  0.3106
  267MOL0     H36024   6.990   6.749   9.763 -1.3787  0.0585 -1.5006
  267MOL0     H36025   5.930   7.013   9.439 -1.6831 -2.3555  1.2334
  267MOL0     H36026   5.694   7.009   9.350 -0.8636  0.3460 -1.3998
  267MOL0     H36027   5.399   6.828   8.812  0.2224 -3.3849  1.8669
  267MOL0     H36028   5.164   6.922   8.783  0.9165  0.8348 -0.1046
  267MOL0     H36029   3.232   6.760   9.410  1.9717  2.6468  0.4817
  267MOL0     H36030   3.026   6.738   9.541  0.5318  0.4946 -0.2185
  267MOL0     H36031   2.816   6.544  10.039  0.1693  0.0731  0.6134
  267MOL0     H36032   2.625   6.625  10.163 -3.3254  1.7226 -0.3630
  267MOL0     H36033   2.541   6.789  10.342 -0.5606 -0.3382  0.0949
  267MOL0     H36034   2.410   6.739  10.234  0.2703 -0.6039  1.6776
  267MOL0     H36035   2.354   6.998  10.260  1.6913  0.8608  1.5160
  267MOL0     H36036   2.464   6.996  10.391  1.2931  1.9620 -3.2374
  267MOL0     H36037   2.252   6.781  10.432  0.1365  0.0846  2.8391
  267MOL0     H36038   2.198   6.954  10.400 -0.6526  1.0077  0.3522
  267MOL0     H36039   2.420   6.872  10.602 -0.0757  0.3746  0.7801
  267MOL0     H36040   2.330   7.028  10.583  0.2386 -0.4293  1.9606
  267MOL0     H36041   2.128   6.803  10.879 -1.9727  1.3841 -0.4055
  267MOL0     H36042   2.722   7.022  10.081 -0.7433  0.0273 -1.3195
  267MOL0     H36043   3.041   6.959   9.932  0.1621 -1.5018  0.9198
  267MOL0     H36044   2.946   7.077  10.004  1.7186  0.4872  0.9898
  267MOL0     H36045   3.057   6.966  10.102  1.0463 -2.3692 -0.7782
  268MOL0     O36046   0.598   3.669   9.277 -0.3360  0.0382  0.2810
  268MOL0     C36047   0.532   3.608   9.191 -0.0584 -0.2278  0.4164
  268MOL0     O36048   0.576   3.577   9.065 -0.7195  0.4140  0.3175
  268MOL0     C36049   0.711   3.588   9.030 -0.2917  0.9074  0.3093
  268MOL0     C36050   0.808   3.554   9.124 -0.0937  0.0564  0.2924
  268MOL0     C36051   0.935   3.537   9.071  0.2425  0.1554 -0.2701
  268MOL0     C36052   0.964   3.563   8.934  0.0874  0.6036 -0.0637
  268MOL0     O36053   1.090   3.541   8.883 -0.4890  0.1498 -0.5647
  268MOL0     C36054   1.161   3.426   8.929 -0.1418 -0.7496 -0.1190
  268MOL0     C36055   1.284   3.401   8.827  0.5340 -0.2765  1.2139
  268MOL0     C36056   1.243   3.340   8.687  0.3302 -0.2120 -0.4417
  268MOL0     C36057   1.375   3.302   8.622  0.7084 -0.1880  1.0617
  268MOL0     C36058   1.347   3.287   8.472 -0.2500 -0.0629  0.8071
  268MOL0     C36059   1.465   3.235   8.379  0.1317  0.0915 -0.6666
  268MOL0     C36060   1.601   3.282   8.434  0.6482  0.3865  0.3690
  268MOL0     C36061   1.614   3.429   8.390 -0.4706  0.5867  0.0078
  268MOL0     N36062   1.728   3.497   8.457  0.5184 -0.1504  0.7235
  268MOL0     C36063   1.712   3.609   8.538 -0.7927 -0.2601 -0.2039
  268MOL0     C36064   1.828   3.680   8.538  0.7207 -0.1532  0.5821
  268MOL0     C36065   1.860   3.797   8.630  0.0351 -0.4711 -0.3299
  268MOL0     C36066   1.975   3.772   8.727  0.7171 -0.2192 -0.3068
  268MOL0     C36067   2.104   3.786   8.663  0.8025 -0.7030  0.5535
  268MOL0     C36068   2.219   3.751   8.762  0.4293 -0.4344 -0.6064
  268MOL0     O36069   2.192   3.823   8.885  0.2860 -0.1810  0.4431
  268MOL0     C36070   2.293   3.842   8.972 -1.2845 -0.0516 -0.3260
  268MOL0     C36071   2.292   3.954   9.052  0.1508 -1.3939 -0.2050
  268MOL0     C36072   2.392   3.977   9.150 -0.4751  0.3116 -0.0489
  268MOL0     C36073   2.494   3.889   9.165  0.0670  0.1666 -0.1493
  268MOL0     C36074   2.596   3.908   9.270  0.2728  0.1052 -0.3444
  268MOL0     O36075   2.664   3.788   9.303 -0.4994  0.4677  0.1110
  268MOL0     C36076   2.783   3.794   9.367  0.1286  0.7006  0.2812
  268MOL0     C36077   2.795   3.862   9.494 -0.7352  0.5834  0.5848
  268MOL0     C36078   2.923   3.866   9.562  0.4820 -0.2470  0.3216
  268MOL0     C36079   3.037   3.795   9.510 -1.4756 -0.8866  0.0346
  268MOL0     O36080   3.146   3.792   9.589  0.1985 -0.0163  0.8526
  268MOL0     C36081   3.243   3.688   9.564  0.1667 -0.5903 -0.5216
  268MOL0     C36082   3.279   3.614   9.694  0.6424 -0.2930  0.2462
  268MOL0     C36083   3.388   3.505   9.688  1.4795 -0.7247 -0.7317
  268MOL0     C36084   3.514   3.541   9.618  0.0639 -0.0871  0.3893
  268MOL0     C36085   3.622   3.434   9.651  0.5218  0.3133 -1.4057
  268MOL0     C36086   3.606   3.293   9.593  0.8978 -0.1369 -0.2509
  268MOL0     C36087   3.709   3.196   9.643 -0.1106  0.4749 -0.6812
  268MOL0     C36088   3.680   3.046   9.621  0.4472  0.4405  0.1130
  268MOL0    Cl36089   3.802   2.948   9.699  0.4222 -0.2975 -0.5024
  268MOL0     C36090   3.021   3.738   9.382  0.4729  0.3006  0.7242
  268MOL0     C36091   2.898   3.734   9.312  0.0670  0.6049  1.0799
  268MOL0     O36092   2.608   4.020   9.320 -0.2838 -0.6573  0.3869
  268MOL0     C36093   2.495   3.779   9.078  0.2486 -0.1473 -1.5786
  268MOL0     C36094   2.400   3.755   8.981  0.5050  0.6806 -0.7255
  268MOL0     N36095   1.922   3.605   8.460 -0.2399 -0.5284  0.3764
  268MOL0     N36096   1.856   3.505   8.406  0.2211  0.4654 -0.0251
  268MOL0     C36097   0.866   3.602   8.847  0.7896  1.4520  0.9477
  268MOL0     C36098   0.738   3.599   8.892  0.4784  0.3099 -0.3899
  268MOL0     C36099   0.388   3.575   9.223  0.6474 -0.0168  0.1811
  268MOL0     C36100   0.343   3.599   9.358  0.0546  0.0474 -0.4753
  268MOL0     C36101   0.209   3.582   9.395 -0.5541 -0.1869 -0.5187
  268MOL0     C36102   0.120   3.527   9.299 -0.3774  1.2567 -0.0527
  268MOL0     O36103  -0.006   3.504   9.328  0.5565  1.0519  0.4039
  268MOL0     C36104  -0.034   3.375   9.392  0.3878 -0.4476  0.0979
  268MOL0     C36105  -0.162   3.388   9.478 -0.3250  0.2823  0.8302
  268MOL0     C36106  -0.164   3.277   9.581  0.9669  0.2408  0.0045
  268MOL0     C36107  -0.304   3.287   9.656  0.3049 -0.3205  0.8634
  268MOL0     C36108  -0.353   3.153   9.690 -0.3219 -0.1897 -0.1379
  268MOL0     C36109  -0.400   3.041   9.717 -0.2160  0.7907 -0.4021
  268MOL0     C36110   0.166   3.500   9.174 -0.1574 -0.5684 -0.7451
  268MOL0     C36111   0.295   3.525   9.125 -0.2666  0.0344 -0.3027
  268MOL0     C36112   0.312   3.492   8.981 -0.2812 -0.7569  0.5169
  268MOL0     H36113   0.784   3.535   9.228 -0.4063  1.8151  0.5697
  268MOL0     H36114   1.022   3.517   9.134  0.8624  1.0695 -0.8106
  268MOL0     H36115   1.208   3.444   9.026 -0.4072  2.8333 -0.5450
  268MOL0     H36116   1.106   3.332   8.920  0.2238 -0.8337 -1.8441
  268MOL0     H36117   1.356   3.333   8.873  0.6035 -1.4822 -0.5660
  268MOL0     H36118   1.331   3.497   8.802 -0.1192 -0.3739 -0.6036
  268MOL0     H36119   1.186   3.416   8.634  0.9488 -0.8933 -2.1601
  268MOL0     H36120   1.184   3.249   8.693 -2.3653  0.9928 -4.7780
  268MOL0     H36121   1.439   3.391   8.629  1.2918 -0.4788 -0.2539
  268MOL0     H36122   1.421   3.214   8.666  2.0961 -0.6075 -1.0397
  268MOL0     H36123   1.269   3.211   8.472  0.6517 -1.0313  1.5739
  268MOL0     H36124   1.309   3.380   8.428 -1.8507 -1.3014 -0.5179
  268MOL0     H36125   1.450   3.128   8.389 -0.2577  0.2138  0.1990
  268MOL0     H36126   1.462   3.257   8.272  1.2037  1.6311 -0.4269
  268MOL0     H36127   1.680   3.220   8.390 -0.9632 -1.0506 -0.6232
  268MOL0     H36128   1.616   3.260   8.540  1.2173  0.0209  0.2126
  268MOL0     H36129   1.615   3.436   8.280 -0.4048  1.1198  0.0408
  268MOL0     H36130   1.526   3.487   8.421 -0.0111  2.3064 -1.6396
  268MOL0     H36131   1.623   3.624   8.598 -1.8312  1.7642 -2.1406
  268MOL0     H36132   1.881   3.885   8.568  0.2372  0.3961  0.9194
  268MOL0     H36133   1.767   3.824   8.680  1.2028 -1.8462  2.8647
  268MOL0     H36134   1.958   3.844   8.808 -1.3117 -2.5384  1.5092
  268MOL0     H36135   1.958   3.678   8.780 -0.7130  0.5519  0.6654
  268MOL0     H36136   2.110   3.880   8.609 -0.1808 -2.1429 -2.2822
  268MOL0     H36137   2.122   3.714   8.583 -2.0804 -2.3700  1.2373
  268MOL0     H36138   2.311   3.798   8.727  0.0281 -0.2635 -1.4728
  268MOL0     H36139   2.222   3.645   8.786 -1.3549 -0.6977 -1.3446
  268MOL0     H36140   2.200   4.013   9.057  1.4206  0.6457  0.4908
  268MOL0     H36141   2.393   4.071   9.203  0.2664  1.0593 -1.3404
  268MOL0     H36142   2.714   3.912   9.545 -3.0173 -2.8058  0.5468
  268MOL0     H36143   2.938   3.928   9.651 -3.2260 -0.5711  1.3455
  268MOL0     H36144   3.208   3.612   9.493  2.0301 -2.7240  0.6984
  268MOL0     H36145   3.334   3.732   9.520  1.2497 -1.7810  0.4622
  268MOL0     H36146   3.319   3.695   9.756 -0.1773  1.8065 -1.8368
  268MOL0     H36147   3.190   3.571   9.741  0.1184  0.9127  0.3840
  268MOL0     H36148   3.413   3.485   9.793  2.3683 -0.8823 -0.9680
  268MOL0     H36149   3.347   3.410   9.653  0.3970 -0.8253  0.6945
  268MOL0     H36150   3.546   3.640   9.652 -0.3967  1.0327 -2.1818
  268MOL0     H36151   3.491   3.533   9.511 -2.2331  1.3658  0.6847
  268MOL0     H36152   3.625   3.412   9.758  1.5639  3.5121 -0.6609
  268MOL0     H36153   3.714   3.485   9.623  1.0534  1.3787  1.8079
  268MOL0     H36154   3.508   3.258   9.625  0.4828  1.3449  0.1822
  268MOL0     H36155   3.601   3.296   9.483  2.9828 -4.2639 -0.6600
  268MOL0     H36156   3.724   3.208   9.750  0.0334  2.0584 -0.8594
  268MOL0     H36157   3.805   3.227   9.599  0.1933  0.2314 -0.2005
  268MOL0     H36158   3.583   3.032   9.671  0.2737 -0.8161 -0.5336
  268MOL0     H36159   3.673   3.022   9.515  0.0362  0.3222  0.1640
  268MOL0     H36160   3.094   3.687   9.321 -0.7636  1.1997 -1.6444
  268MOL0     H36161   2.892   3.684   9.216  1.0541  0.0713  1.2737
  268MOL0     H36162   2.573   3.704   9.092 -0.4437 -0.4066  1.8012
  268MOL0     H36163   2.401   3.661   8.927  0.8574  0.4846 -0.3821
  268MOL0     H36164   0.870   3.608   8.738 -1.4155 -2.1998  0.5047
  268MOL0     H36165   0.666   3.615   8.812 -0.7842 -0.0421  0.6504
  268MOL0     H36166   0.413   3.637   9.431  0.1322 -1.4719  0.2815
  268MOL0     H36167   0.160   3.607   9.488 -0.9590 -0.2326 -0.7171
  268MOL0     H36168   0.056   3.335   9.439  0.3492 -2.3752 -1.3185
  268MOL0     H36169  -0.043   3.299   9.313 -1.3796 -3.0593  2.6336
  268MOL0     H36170  -0.246   3.395   9.409 -0.9836  3.1854  1.7956
  268MOL0     H36171  -0.161   3.479   9.539  2.4552  0.9818 -0.1472
  268MOL0     H36172  -0.076   3.290   9.645  1.7545  0.3370 -1.0722
  268MOL0     H36173  -0.148   3.183   9.528 -1.7308 -0.2276 -0.0808
  268MOL0     H36174  -0.304   3.363   9.736 -2.2821  0.6677  0.0286
  268MOL0     H36175  -0.366   3.331   9.578  0.9905 -0.0017  0.4886
  268MOL0     H36176  -0.436   2.941   9.720  0.2410  0.6380  0.5000
  268MOL0     H36177   0.098   3.462   9.099 -0.2924 -1.4366 -0.1950
  268MOL0     H36178   0.329   3.593   8.943 -1.3376 -0.4926  0.6997
  268MOL0     H36179   0.397   3.424   8.975  1.3977  1.2525  0.5130
  268MOL0     H36180   0.226   3.445   8.933  1.1006 -0.4917 -2.4195
  269MOL0     O36181   7.724  11.302   5.633  0.5287  0.1723  1.3363
  269MOL0     C36182   7.633  11.368   5.584  0.1518  0.2348  0.9632
  269MOL0     O36183   7.519  11.317   5.544  0.1238 -0.6278  0.1555
  269MOL0     C36184   7.488  11.186   5.573  0.2044 -0.3073  0.1356
  269MOL0     C36185   7.484  11.148   5.709 -0.1820  0.0861 -0.9456
  269MOL0     C36186   7.455  11.012   5.745 -0.5861 -0.5557  1.1244
  269MOL0     C36187   7.444  10.917   5.637 -0.9174 -0.2380 -0.9558
  269MOL0     O36188   7.390  10.796   5.680  0.3211 -0.2861  0.1828
  269MOL0     C36189   7.298  10.732   5.596  0.0018  0.6407 -0.1197
  269MOL0     C36190   7.303  10.592   5.653  0.0258  0.2790  0.3708
  269MOL0     C36191   7.184  10.507   5.604 -0.5215 -1.0773  0.1027
  269MOL0     C36192   7.179  10.369   5.667  1.3183 -0.5061  0.8911
  269MOL0     C36193   7.041  10.297   5.658 -0.5691  0.2859 -1.1512
  269MOL0     C36194   7.047  10.147   5.661  0.6343  0.2180  0.4779
  269MOL0     C36195   7.069  10.086   5.799  0.2301 -0.5498 -0.4647
  269MOL0     C36196   6.989  10.141   5.922  0.4900 -0.1879  1.0453
  269MOL0     N36197   6.846  10.112   5.935  0.3349  0.1498 -0.0081
  269MOL0     C36198   6.794   9.993   5.917  0.0929 -0.1313  1.2805
  269MOL0     C36199   6.665  10.017   5.886 -0.7801 -0.1373  0.0492
  269MOL0     C36200   6.567   9.904   5.878  0.4329 -1.1960  0.6798
  269MOL0     C36201   6.504   9.876   6.015  1.2295 -0.7449 -0.3648
  269MOL0     C36202   6.576   9.767   6.092  0.0132  0.5052  0.7853
  269MOL0     C36203   6.525   9.762   6.235  0.5039  0.2795  0.7591
  269MOL0     O36204   6.384   9.730   6.258 -0.0262 -0.7707 -0.4308
  269MOL0     C36205   6.341   9.605   6.245 -0.1414  0.4073 -0.0747
  269MOL0     C36206   6.422   9.489   6.266  0.0140  0.2913  0.9425
  269MOL0     C36207   6.359   9.360   6.266 -1.6784  0.3122 -0.0857
  269MOL0     C36208   6.221   9.342   6.238  0.0136 -0.1153  0.0223
  269MOL0     C36209   6.158   9.206   6.237  0.6055 -0.3103 -0.0118
  269MOL0     O36210   6.236   9.098   6.267  0.3244  0.5731  0.1328
  269MOL0     C36211   6.195   8.967   6.249 -0.6780 -0.4891  0.9542
  269MOL0     C36212   6.283   8.873   6.197  0.1387  0.5513 -0.4868
  269MOL0     C36213   6.244   8.734   6.190 -0.3110 -0.0040 -0.7721
  269MOL0     C36214   6.128   8.687   6.240  0.6861 -0.1931  0.1892
  269MOL0     O36215   6.102   8.557   6.231  0.3091  0.8420  0.5479
  269MOL0     C36216   6.107   8.496   6.359 -0.8744  0.1365 -0.2604
  269MOL0     C36217   6.074   8.346   6.326  0.4353 -0.5010 -0.9271
  269MOL0     C36218   6.173   8.279   6.247 -1.0654  0.4588  0.1081
  269MOL0     C36219   6.182   8.116   6.257  0.8454 -0.5014  0.6972
  269MOL0     C36220   6.242   8.029   6.144 -0.1816 -0.6560 -0.1548
  269MOL0     C36221   6.248   7.882   6.176 -0.6532  0.2428  0.7611
  269MOL0     C36222   6.336   7.810   6.069 -0.5577 -0.5078  0.4508
  269MOL0     C36223   6.446   7.718   6.119 -0.1346 -0.7149  1.2217
  269MOL0    Cl36224   6.564   7.809   6.203  0.1762  0.3235  0.2040
  269MOL0     C36225   6.044   8.778   6.293  0.6585 -0.9114  0.5613
  269MOL0     C36226   6.070   8.918   6.294  0.4599  0.1673  0.3460
  269MOL0     O36227   6.046   9.197   6.190 -0.1537 -0.1383  0.5119
  269MOL0     C36228   6.148   9.460   6.214  0.9912 -0.0566  0.3805
  269MOL0     C36229   6.206   9.579   6.232  0.3789 -0.3176 -0.2096
  269MOL0     N36230   6.637  10.150   5.893  0.2797  0.0406 -0.1549
  269MOL0     N36231   6.750  10.208   5.920  0.2544 -0.1447 -0.3630
  269MOL0     C36232   7.454  10.956   5.495  0.4095  0.0358 -0.6936
  269MOL0     C36233   7.471  11.097   5.467  0.3218 -0.0069 -0.1346
  269MOL0     C36234   7.647  11.508   5.569 -0.7158 -0.3641  0.3233
  269MOL0     C36235   7.774  11.566   5.588  0.0376  0.4873  0.2161
  269MOL0     C36236   7.796  11.703   5.582 -0.1632  0.0603 -0.2304
  269MOL0     C36237   7.700  11.794   5.557 -0.4496  0.4439  0.1301
  269MOL0     O36238   7.739  11.918   5.576 -0.5359 -0.9322  0.8686
  269MOL0     C36239   7.644  12.028   5.594 -0.0853  0.6586  0.6213
  269MOL0     C36240   7.722  12.155   5.550 -0.6223 -0.3970  0.1523
  269MOL0     C36241   7.641  12.286   5.532 -0.6472 -0.6588  0.1232
  269MOL0     C36242   7.686  12.377   5.419  0.0038  0.6384 -0.0323
  269MOL0     C36243   7.817  12.435   5.445  0.1469 -0.2179  0.3096
  269MOL0     C36244   7.929  12.467   5.471 -0.1622  0.4098 -0.0907
  269MOL0     C36245   7.568  11.742   5.542  0.6975 -0.9687 -0.0318
  269MOL0     C36246   7.538  11.605   5.553  0.1311  0.3274  0.3759
  269MOL0     C36247   7.390  11.557   5.535  0.6394 -0.0477 -1.0008
  269MOL0     H36248   7.496  11.223   5.787  1.9767 -0.4830 -0.6519
  269MOL0     H36249   7.456  10.981   5.850  0.9195  1.1963  1.6768
  269MOL0     H36250   7.206  10.792   5.589  0.8739  1.8209 -2.2633
  269MOL0     H36251   7.344  10.722   5.497  0.0925  1.7238 -0.2020
  269MOL0     H36252   7.305  10.603   5.761  0.2119  1.6721  0.2440
  269MOL0     H36253   7.398  10.550   5.618 -0.5246 -1.2093  0.6364
  269MOL0     H36254   7.176  10.503   5.495  1.3421 -1.1785 -0.0586
  269MOL0     H36255   7.099  10.566   5.639  1.6929  3.0368 -0.7861
  269MOL0     H36256   7.260  10.308   5.628  0.7803 -0.7909  0.1910
  269MOL0     H36257   7.204  10.378   5.773  1.8532 -0.5618  0.7715
  269MOL0     H36258   6.968  10.339   5.727 -0.9646  0.6674 -1.7891
  269MOL0     H36259   6.997  10.324   5.561 -2.1243  0.6373 -0.3875
  269MOL0     H36260   6.950  10.100   5.639  2.0397 -2.5228 -0.3412
  269MOL0     H36261   7.119  10.109   5.589  0.2497  0.4675 -0.0501
  269MOL0     H36262   7.175  10.096   5.825  0.0087 -2.2189  1.3546
  269MOL0     H36263   7.058   9.977   5.796  0.9236 -0.6148 -0.7325
  269MOL0     H36264   7.034  10.102   6.014 -1.7880 -3.3195  0.9983
  269MOL0     H36265   6.997  10.250   5.919  0.0659 -0.1405 -2.3707
  269MOL0     H36266   6.851   9.903   5.937  0.4669  0.0013  0.8182
  269MOL0     H36267   6.496   9.939   5.804  3.3888  4.2554 -0.0949
  269MOL0     H36268   6.612   9.812   5.838 -3.9115 -3.0108 -0.5616
  269MOL0     H36269   6.480   9.966   6.072  0.0877 -0.0275 -1.9005
  269MOL0     H36270   6.407   9.830   5.995 -0.0419  0.7530  1.9168
  269MOL0     H36271   6.680   9.797   6.108 -0.1330  2.3321 -1.2622
  269MOL0     H36272   6.556   9.671   6.042 -4.2157 -0.0538  3.0351
  269MOL0     H36273   6.529   9.862   6.282 -0.9326  1.7667 -2.0689
  269MOL0     H36274   6.587   9.696   6.297 -0.2110  1.2673  2.6262
  269MOL0     H36275   6.530   9.495   6.280  0.4959  1.5745 -2.4844
  269MOL0     H36276   6.411   9.269   6.292 -0.1517  2.0287  3.6912
  269MOL0     H36277   6.370   8.915   6.147 -0.2735  0.3067 -1.4334
  269MOL0     H36278   6.317   8.662   6.154  1.5073  1.6727 -0.5870
  269MOL0     H36279   6.204   8.498   6.410 -1.0656 -1.1784  0.1872
  269MOL0     H36280   6.024   8.542   6.413 -3.0200 -0.1422 -3.0549
  269MOL0     H36281   6.066   8.300   6.425  1.7403  1.4880  0.1824
  269MOL0     H36282   5.982   8.339   6.267  3.1556 -1.3934 -5.5550
  269MOL0     H36283   6.156   8.299   6.141  0.3979  1.4842  0.0312
  269MOL0     H36284   6.270   8.327   6.267 -0.6388 -0.2318 -0.2518
  269MOL0     H36285   6.078   8.084   6.266  0.9280 -0.3875  2.2381
  269MOL0     H36286   6.234   8.085   6.348 -1.7546 -3.1618  1.4119
  269MOL0     H36287   6.344   8.061   6.120 -0.8357 -0.6831 -3.3451
  269MOL0     H36288   6.193   8.042   6.047  1.2509  1.1400 -0.7051
  269MOL0     H36289   6.283   7.866   6.279 -1.0809 -0.9860  0.7308
  269MOL0     H36290   6.149   7.836   6.175 -1.0676  1.0196 -2.3537
  269MOL0     H36291   6.381   7.878   5.995  0.0806  0.1888  1.4448
  269MOL0     H36292   6.265   7.753   6.008  0.4578 -0.3421 -0.9437
  269MOL0     H36293   6.388   7.658   6.190 -2.9155  1.4356  0.9175
  269MOL0     H36294   6.491   7.664   6.035 -0.1440  2.1276 -0.7096
  269MOL0     H36295   5.945   8.747   6.325 -0.1632  2.4309  1.7780
  269MOL0     H36296   6.003   8.989   6.342  0.4468  0.0593  0.4867
  269MOL0     H36297   6.041   9.457   6.197  1.2771 -1.6882 -1.5180
  269MOL0     H36298   6.147   9.668   6.212  0.2787  0.4347  2.9636
  269MOL0     H36299   7.444  10.882   5.416 -2.0598  0.5195 -0.9075
  269MOL0     H36300   7.486  11.134   5.366 -0.0890  2.2768  0.5836
  269MOL0     H36301   7.857  11.497   5.596  0.6499  0.6507 -3.2498
  269MOL0     H36302   7.893  11.750   5.596  0.2813 -1.3807  2.1552
  269MOL0     H36303   7.610  12.040   5.698 -0.4848 -0.4927  0.6470
  269MOL0     H36304   7.562  12.001   5.526  1.1972 -1.6101 -0.1508
  269MOL0     H36305   7.777  12.139   5.457  0.5536 -0.0364  0.7700
  269MOL0     H36306   7.797  12.164   5.628 -1.6769  1.4066  1.0237
  269MOL0     H36307   7.632  12.340   5.627  4.4925 -0.3050  0.7016
  269MOL0     H36308   7.544  12.257   5.491  0.2130 -0.1579 -2.4281
  269MOL0     H36309   7.686  12.319   5.327 -1.4867  1.8590 -0.8432
  269MOL0     H36310   7.609  12.455   5.406 -1.8260 -1.0121  0.4119
  269MOL0     H36311   8.022  12.520   5.477  0.9335 -1.2396 -1.4729
  269MOL0     H36312   7.483  11.807   5.521  0.5146 -1.8074 -1.9982
  269MOL0     H36313   7.331  11.649   5.525 -1.1759 -0.7597  1.8601
  269MOL0     H36314   7.359  11.490   5.455 -1.8459  2.7942 -2.6071
  269MOL0     H36315   7.355  11.512   5.629 -2.0272  2.3974 -0.6965
  270MOL0     O36316   2.793   8.570   7.488 -0.7868 -0.9137 -0.2567
  270MOL0     C36317   2.737   8.565   7.380  0.5327 -0.8132 -0.4691
  270MOL0     O36318   2.753   8.480   7.281 -0.0039  0.1947 -0.2094
  270MOL0     C36319   2.861   8.401   7.262 -0.2253  0.4113 -0.1013
  270MOL0     C36320   2.927   8.400   7.140  0.9003 -0.3831  0.3393
  270MOL0     C36321   3.035   8.319   7.111 -0.9031  0.0253 -0.0578
  270MOL0     C36322   3.087   8.239   7.218 -0.4805 -0.9180  0.1063
  270MOL0     O36323   3.199   8.160   7.222  0.0782 -0.9119 -0.4565
  270MOL0     C36324   3.316   8.224   7.155 -0.9545 -0.2700  0.2921
  270MOL0     C36325   3.418   8.120   7.111  0.8680 -0.7737 -0.0472
  270MOL0     C36326   3.529   8.210   7.050  0.0274 -0.2276  0.1873
  270MOL0     C36327   3.663   8.133   7.074 -1.3776 -0.9190  0.6707
  270MOL0     C36328   3.779   8.189   6.976  0.5973  0.1477 -0.4955
  270MOL0     C36329   3.899   8.097   6.973 -0.9876  0.3082 -0.3730
  270MOL0     C36330   4.018   8.142   6.880  0.3108  0.5734 -0.3292
  270MOL0     C36331   4.126   8.045   6.900  1.0189  0.5977 -0.3362
  270MOL0     N36332   4.232   8.057   6.800 -0.4991 -0.1167  0.5608
  270MOL0     C36333   4.296   7.953   6.754  0.7452  0.1641  0.2329
  270MOL0     C36334   4.403   8.004   6.679 -0.1421 -0.6573 -0.4883
  270MOL0     C36335   4.495   7.910   6.602  1.0809 -0.7485  0.1120
  270MOL0     C36336   4.594   7.986   6.522 -0.1104 -0.2252  0.6243
  270MOL0     C36337   4.737   7.996   6.583 -0.2453  0.9229 -0.2496
  270MOL0     C36338   4.822   8.096   6.493 -0.0172  0.3214  0.6845
  270MOL0     O36339   4.854   8.032   6.363  0.0278  0.1451  0.0019
  270MOL0     C36340   4.912   8.116   6.265 -0.1650  0.3602 -0.0158
  270MOL0     C36341   4.952   8.248   6.283 -0.4487 -0.1493  0.3716
  270MOL0     C36342   5.004   8.321   6.172  0.4581 -0.1107 -0.5060
  270MOL0     C36343   5.026   8.260   6.052 -0.1159  0.1194 -0.5221
  270MOL0     C36344   5.073   8.342   5.943 -0.2040  1.2066 -0.7552
  270MOL0     O36345   5.008   8.461   5.914  0.5356  0.5884  0.6478
  270MOL0     C36346   5.054   8.551   5.823 -0.4667  0.0429 -1.1000
  270MOL0     C36347   5.190   8.591   5.818 -0.0918 -0.0562  0.1581
  270MOL0     C36348   5.228   8.703   5.751 -0.7800 -0.2068 -0.3965
  270MOL0     C36349   5.145   8.780   5.677  0.3140 -0.0750 -0.0177
  270MOL0     O36350   5.187   8.892   5.605  0.3353  0.6197  0.3674
  270MOL0     C36351   5.303   8.961   5.631  0.2469 -0.3071  0.1007
  270MOL0     C36352   5.296   9.043   5.755 -0.5404 -0.1983 -0.0502
  270MOL0     C36353   5.376   8.991   5.880  0.0289 -0.4537  0.0898
  270MOL0     C36354   5.359   9.079   6.006  0.8757  1.0452  0.3855
  270MOL0     C36355   5.221   9.077   6.066 -0.4596 -0.2327 -0.0200
  270MOL0     C36356   5.224   9.151   6.197 -0.0798 -0.5421  0.2593
  270MOL0     C36357   5.091   9.212   6.227  1.4899  0.8533 -1.0956
  270MOL0     C36358   5.103   9.301   6.351  0.2374  0.6159 -0.1784
  270MOL0    Cl36359   4.954   9.380   6.390  0.2853 -0.3345 -0.5009
  270MOL0     C36360   5.010   8.741   5.676  0.2308  0.9855  0.5427
  270MOL0     C36361   4.965   8.628   5.747 -0.0203 -0.3764 -1.4523
  270MOL0     O36362   5.175   8.298   5.887 -0.2728 -0.0678 -0.0141
  270MOL0     C36363   4.985   8.122   6.037  0.0702  0.1828  0.5321
  270MOL0     C36364   4.920   8.049   6.139  0.4724  0.3485 -0.5061
  270MOL0     N36365   4.396   8.143   6.676  0.4768 -0.3435 -0.0302
  270MOL0     N36366   4.283   8.170   6.747  0.2090  0.3023  1.4258
  270MOL0     C36367   3.015   8.238   7.333 -0.7792 -0.4843 -0.3828
  270MOL0     C36368   2.899   8.313   7.356  0.0097  0.1615  0.0922
  270MOL0     C36369   2.638   8.670   7.355  1.0249  0.7430 -0.3322
  270MOL0     C36370   2.508   8.627   7.315 -0.3997 -0.0581  0.0053
  270MOL0     C36371   2.416   8.730   7.272  1.0263  0.4105  0.3238
  270MOL0     C36372   2.450   8.865   7.284  0.8528 -0.8389 -1.0138
  270MOL0     O36373   2.362   8.976   7.285 -0.9359 -0.5341 -0.1231
  270MOL0     C36374   2.219   8.971   7.315  0.9909 -0.1519 -0.3776
  270MOL0     C36375   2.212   8.925   7.463  0.3675  0.1765 -0.0561
  270MOL0     C36376   2.063   8.925   7.515  0.4263 -1.2610  0.0088
  270MOL0     C36377   2.022   9.071   7.552  0.3351 -0.1870 -0.2723
  270MOL0     C36378   2.095   9.118   7.667  0.0359 -1.1055 -0.5290
  270MOL0     C36379   2.148   9.161   7.771 -0.9708 -0.0604 -0.1089
  270MOL0     C36380   2.580   8.904   7.306 -0.4058  0.0999 -0.0423
  270MOL0     C36381   2.667   8.811   7.352 -0.3396  1.4107 -0.6829
  270MOL0     C36382   2.814   8.863   7.346 -1.2098 -0.2857 -0.1971
  270MOL0     H36383   2.867   8.458   7.071 -2.8108 -3.0282  1.0721
  270MOL0     H36384   3.094   8.327   7.020  0.8012 -3.2552  0.5897
  270MOL0     H36385   3.283   8.279   7.067  1.0258 -0.6595 -0.7478
  270MOL0     H36386   3.372   8.288   7.224 -0.8753  1.6867 -1.4875
  270MOL0     H36387   3.381   8.035   7.052 -2.8124 -0.9618  2.1738
  270MOL0     H36388   3.457   8.071   7.201  1.7082  0.2629  0.1694
  270MOL0     H36389   3.532   8.310   7.094  0.1417 -0.2197  0.1647
  270MOL0     H36390   3.503   8.233   6.946 -0.1013  0.5901  0.3946
  270MOL0     H36391   3.700   8.152   7.175 -0.5826  0.7163  0.1030
  270MOL0     H36392   3.640   8.028   7.057 -2.3733 -0.3446 -2.0519
  270MOL0     H36393   3.732   8.199   6.878 -0.2929 -3.4884 -0.5817
  270MOL0     H36394   3.818   8.288   7.001 -0.3167  0.4223 -0.1007
  270MOL0     H36395   3.930   8.082   7.077 -4.4898 -0.7156  0.6513
  270MOL0     H36396   3.848   8.008   6.936 -0.4298 -1.9156  3.5932
  270MOL0     H36397   4.052   8.243   6.904  2.7826  0.0866 -1.4648
  270MOL0     H36398   3.985   8.152   6.776  2.4831  2.2448 -0.9314
  270MOL0     H36399   4.180   8.064   6.994  0.1891  3.1873 -0.3015
  270MOL0     H36400   4.095   7.940   6.900  0.5827  0.7121 -1.6459
  270MOL0     H36401   4.262   7.851   6.765 -0.2615  0.3889 -0.5653
  270MOL0     H36402   4.534   7.837   6.673  1.2505 -0.1809  0.6097
  270MOL0     H36403   4.434   7.841   6.543 -0.3177  1.9913 -1.9129
  270MOL0     H36404   4.607   7.920   6.435  2.4750 -0.1412  0.8952
  270MOL0     H36405   4.563   8.083   6.483 -0.4972 -0.7719 -0.4949
  270MOL0     H36406   4.782   7.897   6.570 -1.9014 -0.1464  1.7088
  270MOL0     H36407   4.740   8.028   6.687 -0.7775  2.8573 -0.7919
  270MOL0     H36408   4.917   8.123   6.539  1.0577 -1.0763 -0.5912
  270MOL0     H36409   4.772   8.191   6.473 -2.1629 -1.1081 -1.4273
  270MOL0     H36410   4.941   8.299   6.378 -2.0477  0.2947 -0.0216
  270MOL0     H36411   5.023   8.427   6.186 -3.0529  0.5955 -0.0130
  270MOL0     H36412   5.261   8.526   5.869 -2.3534 -1.3959  1.8092
  270MOL0     H36413   5.334   8.727   5.757 -0.4948 -1.4287 -0.2110
  270MOL0     H36414   5.391   8.896   5.629 -0.4683 -1.3524  1.2091
  270MOL0     H36415   5.305   9.030   5.546  0.9084  1.1702  1.2941
  270MOL0     H36416   5.340   9.138   5.720 -2.5877  0.6959 -0.3165
  270MOL0     H36417   5.193   9.062   5.785 -0.1264 -0.6434  1.7785
  270MOL0     H36418   5.333   8.893   5.906  0.1498 -0.9060 -1.3384
  270MOL0     H36419   5.478   8.970   5.849 -0.0429 -1.4259  0.4546
  270MOL0     H36420   5.396   9.181   5.991  0.2965  1.3656  1.0731
  270MOL0     H36421   5.420   9.031   6.084 -1.3723  0.6919  2.0165
  270MOL0     H36422   5.185   8.974   6.073 -0.9298 -0.0195  0.8771
  270MOL0     H36423   5.151   9.127   5.998  0.9817  1.9367  0.0004
  270MOL0     H36424   5.247   9.086   6.282 -3.2016 -2.5027 -0.2362
  270MOL0     H36425   5.288   9.240   6.188 -0.2259 -0.5166 -0.6405
  270MOL0     H36426   5.005   9.147   6.243 -0.8203  3.5971 -1.5593
  270MOL0     H36427   5.058   9.275   6.143 -2.9331 -0.8712 -0.9230
  270MOL0     H36428   5.124   9.238   6.439 -3.3099 -0.4821  0.0156
  270MOL0     H36429   5.185   9.373   6.343  1.1550 -0.2728  0.8259
  270MOL0     H36430   4.931   8.803   5.635 -1.2125 -0.9487  0.2836
  270MOL0     H36431   4.861   8.602   5.765 -0.2767  1.4087 -0.0133
  270MOL0     H36432   4.997   8.082   5.938 -0.7577  0.2733  0.3830
  270MOL0     H36433   4.886   7.946   6.139 -1.1779  0.8326 -2.7497
  270MOL0     H36434   3.050   8.174   7.413 -0.3820  1.7514  1.3643
  270MOL0     H36435   2.855   8.296   7.454  3.3680  0.7640  1.8625
  270MOL0     H36436   2.476   8.524   7.304 -2.6854  0.7668 -2.0123
  270MOL0     H36437   2.323   8.696   7.227  2.6146 -3.3853 -0.4754
  270MOL0     H36438   2.183   8.888   7.255  0.6804 -2.6914  3.0510
  270MOL0     H36439   2.161   9.063   7.302 -0.4584 -1.3200 -3.1467
  270MOL0     H36440   2.282   8.985   7.522  0.6501  0.4285 -0.6502
  270MOL0     H36441   2.250   8.822   7.464 -1.4923 -0.5591 -0.7984
  270MOL0     H36442   2.058   8.856   7.600  2.3030 -2.1120 -0.5232
  270MOL0     H36443   1.995   8.889   7.437  1.5204  1.8230 -2.6189
  270MOL0     H36444   2.031   9.142   7.470 -1.8367  3.0916  2.0466
  270MOL0     H36445   1.919   9.060   7.590  0.5167  0.1736  0.3390
  270MOL0     H36446   2.209   9.191   7.854  0.7435  0.3987 -1.4668
  270MOL0     H36447   2.611   9.008   7.308 -0.0800  0.0001  0.3317
  270MOL0     H36448   2.828   8.960   7.394 -0.3490 -0.3193 -0.3632
  270MOL0     H36449   2.884   8.796   7.397 -1.0309  0.3151  0.3525
  270MOL0     H36450   2.846   8.894   7.246  1.2695  1.8084  1.1204
  271MOL0     O36451   8.298   9.505   4.649 -0.5121  0.2978 -1.0882
  271MOL0     C36452   8.234   9.401   4.636  0.5002  0.4062 -0.7582
  271MOL0     O36453   8.286   9.289   4.571  0.6001  0.3219 -0.0054
  271MOL0     C36454   8.410   9.296   4.523 -0.6604 -0.4584  1.3834
  271MOL0     C36455   8.439   9.257   4.396 -0.1100 -0.2079  0.8481
  271MOL0     C36456   8.562   9.274   4.343  0.0072  0.9760 -0.1494
  271MOL0     C36457   8.667   9.316   4.433 -0.3219 -0.6965  0.3162
  271MOL0     O36458   8.807   9.321   4.412 -0.9708 -0.5650  1.0049
  271MOL0     C36459   8.865   9.259   4.295 -0.0712 -0.3900 -0.2993
  271MOL0     C36460   9.015   9.261   4.317  0.2076  0.3725  0.6222
  271MOL0     C36461   9.073   9.372   4.402 -0.6508 -0.0912  0.0320
  271MOL0     C36462   9.226   9.406   4.376  0.1302 -0.0923  0.0914
  271MOL0     C36463   9.322   9.296   4.446  0.2081  0.6174  0.2717
  271MOL0     C36464   9.461   9.357   4.479 -0.0112  0.1987 -0.2159
  271MOL0     C36465   9.566   9.266   4.543  0.5687 -0.5008  0.6409
  271MOL0     C36466   9.649   9.187   4.438 -0.2282 -0.0574  0.2168
  271MOL0     N36467   9.575   9.066   4.391  0.5354 -0.9832  1.0059
  271MOL0     C36468   9.497   8.979   4.466 -0.3324  0.1379  0.1480
  271MOL0     C36469   9.440   8.889   4.384  0.1567 -0.5207 -0.4591
  271MOL0     C36470   9.339   8.784   4.437 -0.1807 -0.3289 -0.0141
  271MOL0     C36471   9.368   8.655   4.364 -0.8940 -0.1267 -0.3602
  271MOL0     C36472   9.263   8.546   4.373 -0.4374 -0.7313 -0.9415
  271MOL0     C36473   9.221   8.523   4.525 -0.9653  0.5184 -0.5823
  271MOL0     O36474   9.123   8.419   4.538 -0.2676  0.3840  0.2925
  271MOL0     C36475   9.030   8.423   4.638 -0.0445  0.4079  0.2449
  271MOL0     C36476   8.989   8.529   4.719 -0.6747  0.6436 -0.4556
  271MOL0     C36477   8.886   8.513   4.809  0.3427  0.3183 -1.3659
  271MOL0     C36478   8.834   8.385   4.838  0.1247  0.5235  0.5954
  271MOL0     C36479   8.728   8.370   4.948 -0.3782 -0.4680 -0.0387
  271MOL0     O36480   8.664   8.254   4.957  0.1659  0.2046 -0.3209
  271MOL0     C36481   8.569   8.245   5.055 -0.7043 -0.6799 -0.1518
  271MOL0     C36482   8.438   8.254   5.027  0.1138 -0.4008  0.3254
  271MOL0     C36483   8.339   8.232   5.128 -0.1996 -0.2781  0.0429
  271MOL0     C36484   8.371   8.196   5.254 -0.1249  0.5494  0.6891
  271MOL0     O36485   8.278   8.189   5.356 -0.6872 -0.3338 -0.6883
  271MOL0     C36486   8.145   8.167   5.307  0.9075  0.1761 -0.3669
  271MOL0     C36487   8.052   8.139   5.422 -0.2962 -0.3912 -0.5216
  271MOL0     C36488   8.032   8.254   5.529 -0.3220  0.9543 -0.4258
  271MOL0     C36489   7.975   8.200   5.659 -0.2319  0.1634  0.1106
  271MOL0     C36490   7.839   8.144   5.647 -0.1154 -0.0125  0.6656
  271MOL0     C36491   7.776   8.113   5.780 -0.3432  0.0348 -0.3921
  271MOL0     C36492   7.777   8.216   5.899 -0.2181 -0.5280 -0.2907
  271MOL0     C36493   7.639   8.242   5.965  0.2547 -0.0396  0.1075
  271MOL0    Cl36494   7.648   8.370   6.093  0.1131  0.3725  0.3393
  271MOL0     C36495   8.510   8.187   5.289 -0.8406 -0.4648 -0.9075
  271MOL0     C36496   8.603   8.216   5.188 -0.0779  0.2200  0.4330
  271MOL0     O36497   8.696   8.469   5.013  0.5448  0.0635 -0.2833
  271MOL0     C36498   8.879   8.273   4.764  0.4109 -0.2942 -0.3446
  271MOL0     C36499   8.980   8.294   4.662 -0.3964  1.1223 -0.3153
  271MOL0     N36500   9.467   8.922   4.253 -0.4395  0.1942  0.0783
  271MOL0     N36501   9.545   9.032   4.263 -0.9789  0.5419  0.7871
  271MOL0     C36502   8.640   9.334   4.569  0.0170  0.0445  0.5821
  271MOL0     C36503   8.510   9.322   4.616 -0.3985 -0.2715  0.5505
  271MOL0     C36504   8.090   9.395   4.677 -0.2504 -0.4727  0.1412
  271MOL0     C36505   7.998   9.334   4.587 -0.0822  0.2263 -1.0842
  271MOL0     C36506   7.855   9.336   4.605 -0.3971  0.8006 -0.2183
  271MOL0     C36507   7.812   9.387   4.720  0.0966 -0.1847  1.0052
  271MOL0     O36508   7.673   9.370   4.733 -0.1497  0.3098  0.1827
  271MOL0     C36509   7.598   9.456   4.815  0.0629 -0.1521  0.1959
  271MOL0     C36510   7.474   9.383   4.854  0.1847 -0.7794  0.5925
  271MOL0     C36511   7.383   9.342   4.738  0.1152 -0.4496  0.6485
  271MOL0     C36512   7.316   9.208   4.764  0.9872 -0.0533 -0.2315
  271MOL0     C36513   7.224   9.165   4.656 -0.5738  0.0039  0.5312
  271MOL0     C36514   7.170   9.105   4.560 -1.2556  0.1470 -0.0308
  271MOL0     C36515   7.899   9.449   4.814  0.1162 -0.6503  0.4307
  271MOL0     C36516   8.031   9.460   4.791  0.3093 -0.6033 -0.2481
  271MOL0     C36517   8.113   9.543   4.893  0.9856  0.9382 -0.2266
  271MOL0     H36518   8.359   9.234   4.326  0.6346  1.1694 -0.5185
  271MOL0     H36519   8.570   9.270   4.235  0.7402  1.1762 -0.1116
  271MOL0     H36520   8.834   9.158   4.267 -1.5211  0.1808 -0.8793
  271MOL0     H36521   8.848   9.329   4.213  0.3996  0.6504  0.4511
  271MOL0     H36522   9.061   9.269   4.218  0.9801 -2.1588  0.7083
  271MOL0     H36523   9.051   9.164   4.354  1.2776  0.0827 -1.0526
  271MOL0     H36524   9.059   9.353   4.509 -2.8127 -0.1765 -0.2045
  271MOL0     H36525   9.021   9.466   4.380  0.0966  0.4493  0.5424
  271MOL0     H36526   9.260   9.406   4.272 -1.1354  3.5355 -0.4611
  271MOL0     H36527   9.252   9.496   4.432 -2.1096 -0.6610  2.2252
  271MOL0     H36528   9.281   9.266   4.543 -0.8973  1.8005  0.1970
  271MOL0     H36529   9.327   9.204   4.387 -1.3341 -0.6254  1.9823
  271MOL0     H36530   9.510   9.411   4.397 -1.8190  1.1473 -0.7470
  271MOL0     H36531   9.438   9.432   4.555 -0.1665 -1.0739  1.0378
  271MOL0     H36532   9.530   9.198   4.620  1.4376 -0.7542  0.8311
  271MOL0     H36533   9.636   9.339   4.586  3.0205 -1.1681 -1.9046
  271MOL0     H36534   9.674   9.252   4.354 -1.4556  1.2913  0.8581
  271MOL0     H36535   9.748   9.153   4.471  2.1087  2.2570 -3.6618
  271MOL0     H36536   9.498   8.973   4.574 -1.2102 -2.0779  0.0761
  271MOL0     H36537   9.349   8.764   4.544 -0.2936 -0.5013 -0.0343
  271MOL0     H36538   9.240   8.818   4.408  0.1489 -0.0489 -0.8339
  271MOL0     H36539   9.386   8.667   4.257 -3.2385 -1.3849 -0.9632
  271MOL0     H36540   9.465   8.620   4.400 -2.4269 -3.8629  0.6602
  271MOL0     H36541   9.293   8.446   4.343  0.5649 -2.2315  4.1000
  271MOL0     H36542   9.178   8.582   4.315 -1.3586 -2.0266 -0.4415
  271MOL0     H36543   9.176   8.620   4.549  1.5037  1.8012 -0.7894
  271MOL0     H36544   9.312   8.507   4.584  0.8116 -2.1329 -3.7376
  271MOL0     H36545   9.028   8.629   4.703  0.2847  0.1694 -1.2181
  271MOL0     H36546   8.850   8.601   4.862  3.2868  0.0115  1.4262
  271MOL0     H36547   8.408   8.285   4.928  0.8804  0.3976  0.3377
  271MOL0     H36548   8.237   8.227   5.092  0.0493  2.3832 -1.3014
  271MOL0     H36549   8.112   8.259   5.259 -0.1804  0.7343  1.3732
  271MOL0     H36550   8.136   8.079   5.242 -3.8256  0.0563  0.1261
  271MOL0     H36551   7.955   8.113   5.381  0.1548  0.0852 -1.9427
  271MOL0     H36552   8.089   8.049   5.472 -0.4394 -0.5619 -0.7259
  271MOL0     H36553   8.126   8.304   5.552 -0.5909 -0.1595  3.7726
  271MOL0     H36554   7.959   8.331   5.500 -0.5807  2.1587  2.9643
  271MOL0     H36555   7.973   8.289   5.723  2.3086  1.7100 -1.7435
  271MOL0     H36556   8.047   8.126   5.695 -1.2510 -0.0896  1.7397
  271MOL0     H36557   7.848   8.048   5.594 -0.9010 -0.6759  1.6927
  271MOL0     H36558   7.777   8.207   5.583 -1.1113  0.1347  1.7563
  271MOL0     H36559   7.675   8.079   5.754 -0.7563 -1.3039  2.6303
  271MOL0     H36560   7.830   8.025   5.815  0.1555  0.2633 -0.5691
  271MOL0     H36561   7.806   8.317   5.868 -0.3838  0.2151  1.7985
  271MOL0     H36562   7.854   8.199   5.976 -0.3228 -1.5482 -0.3937
  271MOL0     H36563   7.563   8.275   5.893 -0.7933 -1.8014  0.3464
  271MOL0     H36564   7.601   8.145   5.999 -1.1144  0.9944  1.7603
  271MOL0     H36565   8.529   8.156   5.392  1.0146  0.4597 -0.9235
  271MOL0     H36566   8.709   8.206   5.210  0.0585 -0.1114 -0.3459
  271MOL0     H36567   8.833   8.176   4.772 -0.7958  0.2945  0.1173
  271MOL0     H36568   8.997   8.218   4.587 -1.1225 -1.3238  1.8786
  271MOL0     H36569   8.729   9.360   4.625  0.5902  0.3415 -0.4409
  271MOL0     H36570   8.478   9.355   4.714 -2.9760 -0.9533  0.0152
  271MOL0     H36571   8.030   9.297   4.491  2.7176 -1.0269  0.2329
  271MOL0     H36572   7.778   9.289   4.545  0.2462 -3.8558  2.1213
  271MOL0     H36573   7.577   9.553   4.768 -0.8764  0.2376  1.3510
  271MOL0     H36574   7.647   9.483   4.909 -0.2389 -2.6467  1.1630
  271MOL0     H36575   7.414   9.453   4.913 -1.3389 -0.3095 -1.4132
  271MOL0     H36576   7.493   9.292   4.912 -2.1112  0.1296  2.9594
  271MOL0     H36577   7.442   9.347   4.646  1.3649 -0.3807  1.4337
  271MOL0     H36578   7.302   9.413   4.717 -0.6998 -1.1834  1.2024
  271MOL0     H36579   7.387   9.126   4.767  0.7827 -0.2322 -0.2366
  271MOL0     H36580   7.249   9.203   4.850  0.4413 -4.0652 -0.7196
  271MOL0     H36581   7.148   9.037   4.480 -1.8628  3.3139 -2.7848
  271MOL0     H36582   7.862   9.501   4.901  1.0320 -1.8090  1.5476
  271MOL0     H36583   8.215   9.503   4.899  1.1153  1.4343  2.6992
  271MOL0     H36584   8.109   9.648   4.862 -1.9151  0.9300 -0.1601
  271MOL0     H36585   8.067   9.527   4.991 -1.4538  0.8055 -1.3247
  272MOL0     O36586   2.459   3.568   8.665  0.5851 -0.1320 -0.0608
  272MOL0     C36587   2.456   3.486   8.578  0.5833  0.5742 -0.0059
  272MOL0     O36588   2.370   3.374   8.576 -0.2895 -0.0106 -0.5848
  272MOL0     C36589   2.292   3.359   8.692 -0.5583  0.2895 -0.4875
  272MOL0     C36590   2.341   3.320   8.812 -0.5704  0.5416  0.5426
  272MOL0     C36591   2.264   3.330   8.928 -0.1325 -0.8536 -0.2021
  272MOL0     C36592   2.129   3.370   8.930 -0.3351  0.1048  0.9576
  272MOL0     O36593   2.052   3.373   9.052 -0.0499  0.2346  0.1474
  272MOL0     C36594   2.027   3.504   9.088 -0.6581  0.7559  0.3526
  272MOL0     C36595   2.019   3.512   9.238 -0.1688 -0.3665 -0.4741
  272MOL0     C36596   2.148   3.462   9.311 -0.3699  0.7819 -0.2349
  272MOL0     C36597   2.286   3.503   9.257 -0.1542  0.0790  0.4054
  272MOL0     C36598   2.397   3.419   9.318  0.5187  1.3695  0.1032
  272MOL0     C36599   2.533   3.461   9.264  0.4162  0.2737 -0.6948
  272MOL0     C36600   2.649   3.390   9.319  0.5110 -0.0080  0.0955
  272MOL0     C36601   2.636   3.243   9.319 -0.4290 -0.0487 -0.1741
  272MOL0     N36602   2.630   3.172   9.191 -0.1816  0.4770  0.1027
  272MOL0     C36603   2.717   3.211   9.095  0.7925 -0.2119  0.4980
  272MOL0     C36604   2.742   3.108   9.016 -0.1577  0.5983 -0.4797
  272MOL0     C36605   2.833   3.099   8.895 -1.1630 -0.2669  0.7596
  272MOL0     C36606   2.789   3.191   8.783 -0.1116 -0.0170  0.2003
  272MOL0     C36607   2.882   3.206   8.661  0.5575  0.8986 -0.4021
  272MOL0     C36608   2.819   3.283   8.546  0.6244  1.2002  0.2595
  272MOL0     O36609   2.912   3.290   8.443 -0.5869 -0.1922 -0.6118
  272MOL0     C36610   2.888   3.224   8.325 -0.2410 -0.2051  0.0097
  272MOL0     C36611   2.928   3.277   8.204  0.4949  0.2209  0.5574
  272MOL0     C36612   2.901   3.207   8.087  0.2902 -0.5358 -0.0603
  272MOL0     C36613   2.828   3.086   8.085 -0.0049  0.0680 -0.2833
  272MOL0     C36614   2.797   3.009   7.957  0.0430 -0.5155 -0.7688
  272MOL0     O36615   2.870   3.052   7.848 -0.0080 -0.1466 -0.4345
  272MOL0     C36616   2.850   2.979   7.735 -0.7628 -0.3452 -0.4065
  272MOL0     C36617   2.762   3.026   7.639  0.2657  0.0180 -0.2587
  272MOL0     C36618   2.733   2.940   7.535  0.6110  0.3619 -0.7204
  272MOL0     C36619   2.797   2.816   7.512  0.9954 -0.3062 -0.1339
  272MOL0     O36620   2.759   2.752   7.395 -0.6423  0.0172 -1.2541
  272MOL0     C36621   2.840   2.640   7.351  0.1646  0.8347 -0.2595
  272MOL0     C36622   2.822   2.499   7.421  0.4245 -0.2884  0.1414
  272MOL0     C36623   2.886   2.394   7.342  0.0804  1.4964  0.2237
  272MOL0     C36624   2.892   2.251   7.406 -0.7479 -0.4017 -0.2449
  272MOL0     C36625   2.764   2.177   7.415  1.1791  0.4943 -0.5095
  272MOL0     C36626   2.763   2.056   7.512  0.3384 -1.0944  0.0359
  272MOL0     C36627   2.751   2.105   7.658  0.2606 -0.0484  0.5064
  272MOL0     C36628   2.614   2.154   7.708 -0.2723 -0.0037 -0.1653
  272MOL0    Cl36629   2.512   2.009   7.740  0.2052 -0.1190  0.5553
  272MOL0     C36630   2.897   2.783   7.606 -0.5426 -0.1856 -0.0792
  272MOL0     C36631   2.926   2.862   7.717  0.2284 -0.0953 -0.2998
  272MOL0     O36632   2.693   2.954   7.956  0.5351 -0.1303 -0.5259
  272MOL0     C36633   2.804   3.031   8.206  1.1996 -0.1322 -0.1243
  272MOL0     C36634   2.837   3.096   8.322  0.4531 -0.2825  1.0672
  272MOL0     N36635   2.668   2.999   9.068 -0.2333  0.5091 -0.2261
  272MOL0     N36636   2.608   3.042   9.177 -0.8842 -0.3264 -0.5481
  272MOL0     C36637   2.080   3.407   8.800 -0.1171 -0.3342 -0.1915
  272MOL0     C36638   2.163   3.405   8.687 -0.1669  0.6115  0.3698
  272MOL0     C36639   2.535   3.500   8.446 -0.2712 -0.0959  0.5123
  272MOL0     C36640   2.539   3.386   8.354 -0.9600  0.2509 -0.8228
  272MOL0     C36641   2.614   3.380   8.235 -0.3008  0.1678 -1.0998
  272MOL0     C36642   2.695   3.495   8.209  1.0187  0.0058  0.0807
  272MOL0     O36643   2.770   3.491   8.094  0.0630 -0.8392 -0.1271
  272MOL0     C36644   2.793   3.618   8.024 -0.3177  0.1084  0.0108
  272MOL0     C36645   2.891   3.567   7.919  0.4329 -0.9961  0.7411
  272MOL0     C36646   2.899   3.666   7.800 -0.3851  0.2915  0.7030
  272MOL0     C36647   3.006   3.783   7.809  0.8247  1.0004 -0.1950
  272MOL0     C36648   3.145   3.731   7.794 -0.9039 -0.8052 -0.1635
  272MOL0     C36649   3.262   3.683   7.800 -0.3802  0.6945  0.2405
  272MOL0     C36650   2.693   3.604   8.289 -1.0524 -0.5373 -0.5475
  272MOL0     C36651   2.618   3.612   8.412 -0.2755  0.1111  0.5447
  272MOL0     C36652   2.620   3.744   8.486  0.0223 -0.1331 -0.0804
  272MOL0     H36653   2.441   3.277   8.813 -0.8331 -0.1720  2.8538
  272MOL0     H36654   2.301   3.318   9.030 -0.7124 -2.2999 -0.1283
  272MOL0     H36655   2.097   3.576   9.047  0.9697 -1.1382 -0.3567
  272MOL0     H36656   1.930   3.536   9.050 -0.2317  0.7003 -0.8145
  272MOL0     H36657   1.943   3.443   9.275 -0.4407 -0.5874 -1.4226
  272MOL0     H36658   1.983   3.613   9.263 -1.6283 -0.4073 -2.2509
  272MOL0     H36659   2.145   3.356   9.283 -1.3257  1.3348 -2.5010
  272MOL0     H36660   2.137   3.467   9.420  0.7678 -1.7278  0.0813
  272MOL0     H36661   2.293   3.498   9.148 -1.8601  0.2100  0.2599
  272MOL0     H36662   2.309   3.608   9.282  0.7891 -0.2515  0.9898
  272MOL0     H36663   2.376   3.431   9.425 -0.6192  3.5645 -0.3168
  272MOL0     H36664   2.382   3.312   9.300  1.2468  1.4505 -1.0995
  272MOL0     H36665   2.536   3.451   9.155  2.2730  0.2378 -0.6700
  272MOL0     H36666   2.548   3.569   9.273  0.0207  0.2284  0.6329
  272MOL0     H36667   2.661   3.402   9.427 -2.9707 -2.5577  0.9493
  272MOL0     H36668   2.744   3.422   9.273 -0.1663  1.5099 -0.3001
  272MOL0     H36669   2.721   3.200   9.374 -1.0329 -0.2728  0.6155
  272MOL0     H36670   2.549   3.200   9.369  0.1754 -3.1656 -1.5682
  272MOL0     H36671   2.764   3.308   9.076  3.3263 -1.2029  1.2145
  272MOL0     H36672   2.932   3.140   8.916 -2.2494  2.9458  0.1648
  272MOL0     H36673   2.837   2.993   8.868 -3.2310 -1.5995  4.9111
  272MOL0     H36674   2.684   3.169   8.762 -0.0620 -2.1252  1.8231
  272MOL0     H36675   2.789   3.293   8.823  3.4544  0.8415 -1.5531
  272MOL0     H36676   2.904   3.106   8.623  0.8992  0.6266  0.4660
  272MOL0     H36677   2.982   3.246   8.683  1.7894 -1.5324 -1.2001
  272MOL0     H36678   2.790   3.383   8.579 -2.4354  1.3424 -2.3474
  272MOL0     H36679   2.724   3.237   8.519  0.0664  1.7358  1.2737
  272MOL0     H36680   2.965   3.378   8.191 -1.1305  0.6966 -0.6706
  272MOL0     H36681   2.922   3.247   7.988 -3.1474 -0.5743 -0.9215
  272MOL0     H36682   2.717   3.124   7.632 -1.1420 -0.7086 -4.1993
  272MOL0     H36683   2.656   2.978   7.469 -0.8426  0.0426  0.7338
  272MOL0     H36684   2.822   2.620   7.245 -0.1123 -1.3857  0.1567
  272MOL0     H36685   2.947   2.661   7.357 -0.2597  3.5431 -0.8611
  272MOL0     H36686   2.870   2.501   7.520  2.0878 -1.2350 -0.6040
  272MOL0     H36687   2.719   2.468   7.440 -0.3492  2.3127  0.6862
  272MOL0     H36688   2.828   2.386   7.249 -0.7738 -1.7368  0.8939
  272MOL0     H36689   2.986   2.434   7.327  0.0225  0.8659 -2.2353
  272MOL0     H36690   2.923   2.279   7.507 -2.3339  2.8642 -0.5012
  272MOL0     H36691   2.961   2.197   7.342  1.9030  1.2957  1.0231
  272MOL0     H36692   2.748   2.129   7.317  1.2343 -1.9365  0.5962
  272MOL0     H36693   2.681   2.245   7.438  2.8124  2.2263  0.4767
  272MOL0     H36694   2.679   1.993   7.483  0.3275  0.8060 -5.1551
  272MOL0     H36695   2.857   2.003   7.493  0.5046 -1.2738  1.3155
  272MOL0     H36696   2.812   2.195   7.664 -0.7165  0.9584 -2.7453
  272MOL0     H36697   2.782   2.039   7.739 -2.3841  0.9593  2.5008
  272MOL0     H36698   2.635   2.213   7.798 -3.1960  0.0372  0.5712
  272MOL0     H36699   2.563   2.226   7.643  1.3335  0.8966 -0.4980
  272MOL0     H36700   2.952   2.690   7.594 -1.3745 -0.5558 -1.1546
  272MOL0     H36701   2.988   2.832   7.801 -0.4521  1.6110  0.8683
  272MOL0     H36702   2.753   2.935   8.204  0.8876  0.0344 -0.5339
  272MOL0     H36703   2.817   3.044   8.416  0.2812 -2.6461 -0.2039
  272MOL0     H36704   1.975   3.427   8.778 -0.8652 -2.0191  1.4901
  272MOL0     H36705   2.131   3.422   8.585  0.4407 -2.1161 -0.3367
  272MOL0     H36706   2.471   3.303   8.373 -0.6781  0.3651  0.7595
  272MOL0     H36707   2.608   3.296   8.166  3.7578 -0.2670 -1.1350
  272MOL0     H36708   2.845   3.694   8.082  3.0221 -0.8964 -1.3811
  272MOL0     H36709   2.700   3.650   7.976  0.6771 -2.4944 -4.2208
  272MOL0     H36710   2.844   3.476   7.881 -4.5626  1.5525 -0.0460
  272MOL0     H36711   2.990   3.557   7.966  1.7099  2.1923 -0.9261
  272MOL0     H36712   2.796   3.696   7.777 -0.0122 -0.3325 -2.1050
  272MOL0     H36713   2.929   3.609   7.712  0.3496  2.3670 -0.4569
  272MOL0     H36714   2.985   3.862   7.737 -1.8135 -0.8015 -1.5906
  272MOL0     H36715   3.000   3.837   7.904  1.6198 -1.2346  1.2221
  272MOL0     H36716   3.354   3.628   7.798 -0.0805  1.1643  0.7407
  272MOL0     H36717   2.756   3.692   8.277 -0.3525 -0.8672  0.5938
  272MOL0     H36718   2.642   3.824   8.415 -1.5170  3.0435  2.7370
  272MOL0     H36719   2.520   3.775   8.519 -0.4311 -1.0292 -0.5760
  272MOL0     H36720   2.674   3.749   8.581 -3.1350  1.9305  1.8003
  273MOL0     O36721   5.648   6.694   0.390  0.0907 -0.5998  0.5589
  273MOL0     C36722   5.638   6.572   0.422  0.0716 -0.3679  0.1220
  273MOL0     O36723   5.722   6.473   0.376 -0.0301  0.3267 -0.7146
  273MOL0     C36724   5.843   6.511   0.324 -0.2320  0.1139  0.2040
  273MOL0     C36725   5.867   6.502   0.185 -0.6323  0.4643  0.0755
  273MOL0     C36726   5.994   6.536   0.137  1.0166  0.3275 -0.7886
  273MOL0     C36727   6.085   6.600   0.228 -0.3226 -0.4520 -0.9406
  273MOL0     O36728   6.209   6.651   0.196  0.1914 -0.1868 -0.2569
  273MOL0     C36729   6.248   6.634   0.063 -0.1120 -0.3676  1.1334
  273MOL0     C36730   6.367   6.720   0.011  0.4893  0.6590 -0.7057
  273MOL0     C36731   6.501   6.658   0.065  0.6184  0.6635  0.7322
  273MOL0     C36732   6.543   6.527  -0.003  0.2513  0.3577 -1.0124
  273MOL0     C36733   6.692   6.491   0.018 -0.8336 -0.1429  0.1157
  273MOL0     C36734   6.796   6.594  -0.046 -0.0127  0.3646  0.3405
  273MOL0     C36735   6.925   6.527  -0.088  0.7033  0.0774 -0.4283
  273MOL0     C36736   6.998   6.460   0.022 -0.1770  0.0288 -0.4416
  273MOL0     N36737   7.131   6.407  -0.013 -0.2797  0.0563 -0.0566
  273MOL0     C36738   7.252   6.465   0.011 -0.4041  0.4792 -0.0301
  273MOL0     C36739   7.342   6.372  -0.027 -0.5345  0.0795 -0.7655
  273MOL0     C36740   7.492   6.378  -0.014  1.3450 -0.0938 -0.0385
  273MOL0     C36741   7.541   6.464   0.110  0.5320  0.3850 -0.1035
  273MOL0     C36742   7.519   6.619   0.110  0.3739 -0.9955 -0.4915
  273MOL0     C36743   7.647   6.680   0.173  1.0273  0.0565  0.0677
  273MOL0     O36744   7.763   6.643   0.094  0.3857 -0.6763 -0.2399
  273MOL0     C36745   7.868   6.740   0.099  0.4279 -0.3156 -0.0743
  273MOL0     C36746   7.866   6.874   0.156  0.0680 -0.1398 -0.7589
  273MOL0     C36747   7.977   6.959   0.149 -0.2437 -0.2541  0.2558
  273MOL0     C36748   8.091   6.918   0.079 -0.6264  0.4729 -0.9087
  273MOL0     C36749   8.206   7.010   0.084 -0.3324  0.0437  0.0284
  273MOL0     O36750   8.307   6.981   0.002  0.3737 -0.6402 -0.5985
  273MOL0     C36751   8.398   7.081  -0.025 -0.1636  0.0051  0.0488
  273MOL0     C36752   8.384   7.161  -0.139  0.6636  0.5828  0.0039
  273MOL0     C36753   8.469   7.267  -0.169 -0.4714 -0.5508 -0.8077
  273MOL0     C36754   8.592   7.268  -0.092  0.5012 -0.0030  0.9002
  273MOL0     O36755   8.695   7.347  -0.140  0.3735 -0.9198  0.5689
  273MOL0     C36756   8.759   7.440  -0.053 -0.1783  0.5090  0.2576
  273MOL0     C36757   8.872   7.518  -0.121 -0.1640  0.0267  0.3726
  273MOL0     C36758   8.971   7.440  -0.210  0.1314  0.1126 -0.3866
  273MOL0     C36759   9.117   7.493  -0.221  0.0517  1.0285  0.6907
  273MOL0     C36760   9.136   7.619  -0.313  0.7336  0.2835  0.2299
  273MOL0     C36761   9.285   7.660  -0.300 -0.4892 -0.3200 -0.7518
  273MOL0     C36762   9.317   7.784  -0.397  0.1646  0.1935  0.8307
  273MOL0     C36763   9.322   7.742  -0.552 -0.4591  0.0856 -0.5064
  273MOL0    Cl36764   9.416   7.593  -0.580  0.5415 -0.0973  0.1755
  273MOL0     C36765   8.608   7.185   0.020 -0.2455 -1.0068 -0.1823
  273MOL0     C36766   8.502   7.098   0.055 -0.5657 -0.0587 -0.4034
  273MOL0     O36767   8.194   7.113   0.147 -0.2804 -0.1483  0.2651
  273MOL0     C36768   8.098   6.788   0.020 -0.3990 -0.4347 -0.7830
  273MOL0     C36769   7.990   6.699   0.031 -0.0632  0.4216 -0.4509
  273MOL0     N36770   7.282   6.258  -0.074 -0.0305 -1.0532  0.4120
  273MOL0     N36771   7.150   6.279  -0.056  0.2902 -0.5688 -0.2500
  273MOL0     C36772   6.056   6.588   0.366 -0.3602  0.2372  0.0112
  273MOL0     C36773   5.939   6.547   0.416 -0.8119 -0.2823 -0.6885
  273MOL0     C36774   5.516   6.538   0.503 -0.2582  0.6645  0.1551
  273MOL0     C36775   5.464   6.405   0.499 -0.0901  0.5600  0.0749
  273MOL0     C36776   5.341   6.374   0.558  1.1244 -0.1576 -0.7459
  273MOL0     C36777   5.267   6.461   0.636 -0.8908 -0.1218 -0.3609
  273MOL0     O36778   5.149   6.411   0.696  0.1236  0.0837  0.5594
  273MOL0     C36779   5.157   6.290   0.783  0.3799  0.6366  0.0280
  273MOL0     C36780   5.059   6.309   0.896  0.4111 -0.1829  0.2810
  273MOL0     C36781   5.120   6.397   1.017 -0.1583 -0.6763 -0.1934
  273MOL0     C36782   5.040   6.403   1.150  0.0880  0.9715  0.3079
  273MOL0     C36783   5.014   6.261   1.175 -0.5574  0.0475 -0.4165
  273MOL0     C36784   4.990   6.145   1.212  0.4955  0.5175  0.2370
  273MOL0     C36785   5.326   6.590   0.663  0.8755  0.1187 -0.3317
  273MOL0     C36786   5.446   6.621   0.598  0.1432  0.2383  0.5321
  273MOL0     C36787   5.510   6.756   0.637  0.3498 -0.7401  0.3170
  273MOL0     H36788   5.801   6.442   0.122  0.4043  2.1501 -2.8133
  273MOL0     H36789   6.012   6.511   0.033  4.6856 -3.0750  0.3957
  273MOL0     H36790   6.261   6.531   0.028 -0.5469  0.1748 -0.7961
  273MOL0     H36791   6.175   6.671  -0.010  1.0285  0.6294  0.4559
  273MOL0     H36792   6.362   6.826   0.038 -1.9448  0.6345 -0.7986
  273MOL0     H36793   6.372   6.704  -0.097 -0.2485  1.3015 -0.8486
  273MOL0     H36794   6.490   6.633   0.171 -0.0633  0.4236  0.6042
  273MOL0     H36795   6.569   6.743   0.050 -1.9840  2.8253  0.3605
  273MOL0     H36796   6.481   6.450   0.044  1.8112  1.0822  2.5463
  273MOL0     H36797   6.538   6.531  -0.112  0.5954  3.3693 -1.0041
  273MOL0     H36798   6.707   6.483   0.126 -0.8050 -0.7981  0.0703
  273MOL0     H36799   6.698   6.390  -0.026 -1.5625  0.3103 -1.0656
  273MOL0     H36800   6.741   6.644  -0.126  1.2725  1.4330  0.0757
  273MOL0     H36801   6.817   6.675   0.026 -1.0457 -1.6744  3.1104
  273MOL0     H36802   6.985   6.611  -0.123 -2.0102  2.3105 -0.1169
  273MOL0     H36803   6.899   6.459  -0.170  0.6550 -1.2072  0.6191
  273MOL0     H36804   7.016   6.527   0.106  0.8070 -1.0793  0.2597
  273MOL0     H36805   6.941   6.376   0.063  2.9213 -3.1682 -2.1121
  273MOL0     H36806   7.257   6.557   0.067 -3.1914  0.9783 -0.4852
  273MOL0     H36807   7.523   6.274   0.000 -1.2074 -0.8435  0.4178
  273MOL0     H36808   7.538   6.416  -0.105  1.0578 -0.2864 -0.2628
  273MOL0     H36809   7.474   6.432   0.190 -2.7615  2.9306 -1.5817
  273MOL0     H36810   7.648   6.444   0.124  0.3344  1.1870  3.5182
  273MOL0     H36811   7.427   6.642   0.164 -2.0238 -3.0426 -3.3717
  273MOL0     H36812   7.510   6.656   0.008  0.6292  1.1247  0.2209
  273MOL0     H36813   7.650   6.640   0.275 -1.3418  1.0227  0.5985
  273MOL0     H36814   7.628   6.788   0.167 -0.5317 -0.0313  2.0681
  273MOL0     H36815   7.781   6.923   0.202  0.7611 -1.0371  1.6603
  273MOL0     H36816   7.970   7.055   0.199 -0.8312 -1.1083  1.8948
  273MOL0     H36817   8.291   7.142  -0.191  0.4461  0.9068  0.2777
  273MOL0     H36818   8.447   7.337  -0.249  1.5862 -1.2857 -2.0814
  273MOL0     H36819   8.683   7.510  -0.019 -0.3772  0.1417  0.5728
  273MOL0     H36820   8.805   7.389   0.032  0.4431 -1.5194 -1.2041
  273MOL0     H36821   8.829   7.592  -0.188 -0.3843 -2.0660 -1.9451
  273MOL0     H36822   8.939   7.560  -0.045  2.2455 -1.2296 -0.9469
  273MOL0     H36823   8.975   7.334  -0.183 -3.4646  0.0577  0.3355
  273MOL0     H36824   8.917   7.441  -0.304 -1.4329 -0.7989  0.4615
  273MOL0     H36825   9.184   7.415  -0.256  2.8989  3.0953  1.1680
  273MOL0     H36826   9.150   7.521  -0.120 -0.0852 -3.0313  2.0235
  273MOL0     H36827   9.064   7.690  -0.272 -0.3552 -1.2565  1.0878
  273MOL0     H36828   9.112   7.598  -0.418 -4.0663 -0.8892  1.3286
  273MOL0     H36829   9.327   7.695  -0.205  3.1091 -0.8175 -2.0111
  273MOL0     H36830   9.360   7.583  -0.322  0.1439 -0.5290  1.8350
  273MOL0     H36831   9.415   7.830  -0.379  0.6607 -0.5975  0.2226
  273MOL0     H36832   9.249   7.869  -0.391 -0.0201  0.0370  0.9372
  273MOL0     H36833   9.217   7.730  -0.581 -1.3077  0.7233  2.0907
  273MOL0     H36834   9.369   7.822  -0.610 -0.4959  2.1806  2.1424
  273MOL0     H36835   8.698   7.186   0.082  0.7478 -0.1431 -1.5800
  273MOL0     H36836   8.495   7.046   0.150  1.3430  1.3415  0.5789
  273MOL0     H36837   8.190   6.754  -0.026  3.1482 -0.0057  4.9740
  273MOL0     H36838   7.990   6.603  -0.019 -0.7618  1.4485 -2.5201
  273MOL0     H36839   6.121   6.633   0.440 -2.5214  4.2421 -0.2543
  273MOL0     H36840   5.924   6.561   0.523 -1.7743  0.6280 -0.9316
  273MOL0     H36841   5.524   6.327   0.454 -1.0729 -2.5144  3.5196
  273MOL0     H36842   5.310   6.274   0.527  0.2199 -0.3716  0.7167
  273MOL0     H36843   5.259   6.273   0.818 -0.0901 -1.6095  0.4962
  273MOL0     H36844   5.145   6.194   0.732 -1.0664 -1.3152  3.6881
  273MOL0     H36845   5.035   6.207   0.929  2.2315 -0.9247 -0.5962
  273MOL0     H36846   4.967   6.361   0.867 -1.3248 -2.7181  0.9197
  273MOL0     H36847   5.135   6.501   0.988 -1.6411 -0.7423 -1.3333
  273MOL0     H36848   5.220   6.357   1.035 -0.7013 -1.0332  2.3969
  273MOL0     H36849   5.098   6.448   1.231  0.1865 -0.5805  1.1439
  273MOL0     H36850   4.954   6.470   1.156  2.5777  4.4008  0.6601
  273MOL0     H36851   4.977   6.043   1.241  1.4533  0.4653  0.5185
  273MOL0     H36852   5.268   6.647   0.735 -0.3517 -1.2706 -0.1698
  273MOL0     H36853   5.502   6.833   0.559  0.4682  1.9759  2.8068
  273MOL0     H36854   5.462   6.803   0.723  1.2196 -0.3308  0.5883
  273MOL0     H36855   5.616   6.743   0.661 -0.2228 -1.1799  2.8877
  274MOL0     O36856   8.335   7.699   3.149 -0.8552  0.0095  0.0515
  274MOL0     C36857   8.225   7.664   3.121  0.1614  0.4189  0.3875
  274MOL0     O36858   8.156   7.688   2.999  0.0827  0.3395 -1.1635
  274MOL0     C36859   8.216   7.762   2.899  0.5075 -0.3451 -0.2084
  274MOL0     C36860   8.222   7.718   2.766 -0.1942  1.5213  0.3942
  274MOL0     C36861   8.276   7.797   2.665  0.6476  0.8259  0.8349
  274MOL0     C36862   8.339   7.915   2.691  0.2358  0.1576 -0.0720
  274MOL0     O36863   8.415   7.962   2.589  0.6307  0.3682 -0.1352
  274MOL0     C36864   8.478   8.091   2.613  0.3013  0.6416  0.0451
  274MOL0     C36865   8.572   8.125   2.497  0.0419 -0.7609  0.1781
  274MOL0     C36866   8.674   8.016   2.464  0.3076 -1.0622 -0.5211
  274MOL0     C36867   8.742   8.040   2.324  0.1031 -0.1152  0.6716
  274MOL0     C36868   8.845   7.935   2.301 -0.1394  0.0524 -0.1590
  274MOL0     C36869   8.915   7.959   2.172  0.6068 -0.1107  0.1429
  274MOL0     C36870   9.045   7.873   2.150 -0.5043  0.1985 -0.4387
  274MOL0     C36871   9.031   7.725   2.163 -0.3500  0.3969  0.2954
  274MOL0     N36872   9.167   7.663   2.144 -0.2532  0.0146  0.4963
  274MOL0     C36873   9.277   7.678   2.217 -0.3884  0.0713 -0.4253
  274MOL0     C36874   9.380   7.643   2.141 -1.0503  0.3814  0.7257
  274MOL0     C36875   9.532   7.635   2.184 -0.3899  0.1996 -0.9374
  274MOL0     C36876   9.608   7.500   2.157 -0.1494  0.4412 -0.6499
  274MOL0     C36877   9.758   7.513   2.192  0.5839 -0.4508 -0.0856
  274MOL0     C36878   9.831   7.385   2.178 -0.2224  0.5023  0.4067
  274MOL0     O36879   9.975   7.400   2.168  0.1258 -0.8307  0.1462
  274MOL0     C36880  10.050   7.465   2.261 -0.2230 -0.5512  0.3205
  274MOL0     C36881  10.188   7.468   2.231 -0.1900 -0.7088 -0.3103
  274MOL0     C36882  10.278   7.543   2.311 -0.1630 -0.1949  0.4224
  274MOL0     C36883  10.229   7.614   2.423 -0.1263  0.5135 -0.2490
  274MOL0     C36884  10.314   7.695   2.499  0.7040 -0.2463  0.4664
  274MOL0     O36885  10.441   7.727   2.449  1.0269  0.4328 -0.3183
  274MOL0     C36886  10.539   7.785   2.532 -0.8784 -0.1595 -0.2716
  274MOL0     C36887  10.512   7.889   2.624 -0.9732 -0.7701  0.9988
  274MOL0     C36888  10.613   7.926   2.718 -0.1064 -0.0392 -0.0945
  274MOL0     C36889  10.741   7.877   2.718  0.5510 -0.7215 -0.4569
  274MOL0     O36890  10.817   7.938   2.811  0.2412  0.2556 -1.2049
  274MOL0     C36891  10.945   7.881   2.815 -0.5062  0.7110  0.3224
  274MOL0     C36892  10.945   7.761   2.915 -0.3640  0.3745  0.1296
  274MOL0     C36893  11.084   7.700   2.915 -1.1320 -0.9441 -0.7101
  274MOL0     C36894  11.107   7.603   3.036 -1.0560 -1.2663  0.1178
  274MOL0     C36895  11.223   7.505   3.013 -0.1081  0.7533 -1.2339
  274MOL0     C36896  11.174   7.374   2.958  0.1087 -0.1009  0.9461
  274MOL0     C36897  11.103   7.291   3.055  0.5450  0.2097 -0.1211
  274MOL0     C36898  11.080   7.140   3.014  0.0353 -0.9228  0.1588
  274MOL0    Cl36899  10.968   7.142   2.880 -0.3975  0.3082  0.1603
  274MOL0     C36900  10.767   7.784   2.622  0.6624 -0.3509 -0.3498
  274MOL0     C36901  10.672   7.737   2.530 -0.4319  0.3123 -0.5962
  274MOL0     O36902  10.270   7.719   2.614 -0.1254  0.0863 -0.3605
  274MOL0     C36903  10.102   7.589   2.467 -0.2051  1.1224  0.2562
  274MOL0     C36904  10.009   7.521   2.385  0.2587  0.7005 -0.0926
  274MOL0     N36905   9.337   7.628   2.009  0.2533 -0.2780 -0.3828
  274MOL0     N36906   9.210   7.647   2.013 -0.1472  0.5886 -0.1453
  274MOL0     C36907   8.313   7.965   2.825  0.3196  0.7541  0.4209
  274MOL0     C36908   8.254   7.889   2.927  0.4430  0.0034  0.2282
  274MOL0     C36909   8.150   7.569   3.214  0.3989 -0.1734  0.2191
  274MOL0     C36910   8.038   7.506   3.164  0.8151  0.6209 -0.0637
  274MOL0     C36911   7.979   7.402   3.233  0.2115  0.9241 -0.5354
  274MOL0     C36912   8.022   7.368   3.363  0.6606  0.4470 -0.0402
  274MOL0     O36913   7.938   7.270   3.429 -0.2661 -0.0242 -0.4915
  274MOL0     C36914   7.913   7.305   3.573 -0.9086 -0.4585 -0.6205
  274MOL0     C36915   7.768   7.262   3.584 -0.7543  0.1465  0.3696
  274MOL0     C36916   7.688   7.387   3.547  0.1675  0.3853 -0.3388
  274MOL0     C36917   7.538   7.343   3.557 -1.1120 -0.3789 -0.0016
  274MOL0     C36918   7.504   7.248   3.449  0.2820  0.1666  0.3412
  274MOL0     C36919   7.485   7.167   3.365  0.0445 -0.3140  0.3893
  274MOL0     C36920   8.121   7.445   3.422 -0.6468  0.0304 -0.9290
  274MOL0     C36921   8.198   7.538   3.349 -0.0146  0.0649 -0.0844
  274MOL0     C36922   8.318   7.611   3.417  0.4796  0.0505  0.2526
  274MOL0     H36923   8.176   7.622   2.747  0.6126  0.7642  2.0723
  274MOL0     H36924   8.282   7.750   2.568 -0.1886 -1.1618  1.6884
  274MOL0     H36925   8.404   8.172   2.625 -1.2822 -0.5852 -1.0607
  274MOL0     H36926   8.537   8.085   2.705  2.6364  2.0219 -1.2740
  274MOL0     H36927   8.621   8.222   2.515 -2.5090  0.5217  0.6279
  274MOL0     H36928   8.514   8.132   2.405  0.2880  1.0869  0.1268
  274MOL0     H36929   8.631   7.915   2.472  0.4807 -0.9884  3.2281
  274MOL0     H36930   8.753   8.018   2.541 -1.9077 -1.7736  1.9312
  274MOL0     H36931   8.677   8.043   2.236  1.2539 -0.4022 -0.2025
  274MOL0     H36932   8.793   8.137   2.328  0.0113 -0.0717  0.8186
  274MOL0     H36933   8.915   7.930   2.385  0.6026 -0.6278 -0.7963
  274MOL0     H36934   8.792   7.839   2.300 -2.5372  1.2862 -2.1203
  274MOL0     H36935   8.848   7.931   2.091  1.4838 -1.3033 -0.2074
  274MOL0     H36936   8.949   8.062   2.157  0.3095  0.1864  1.3598
  274MOL0     H36937   9.130   7.907   2.211 -1.7635  0.3100  1.3056
  274MOL0     H36938   9.080   7.896   2.049 -0.9624  0.8374 -0.4581
  274MOL0     H36939   8.991   7.686   2.258 -0.6265  0.4789  0.2128
  274MOL0     H36940   8.963   7.691   2.085  0.5037 -0.3460 -0.1342
  274MOL0     H36941   9.273   7.699   2.324 -0.6204 -2.9801  0.2407
  274MOL0     H36942   9.578   7.706   2.116 -1.6989 -0.5415 -2.6513
  274MOL0     H36943   9.545   7.658   2.290 -3.1023 -2.8565  0.2588
  274MOL0     H36944   9.569   7.427   2.228  1.0714  1.5336  1.2512
  274MOL0     H36945   9.595   7.478   2.050  0.2805  3.0826 -1.3110
  274MOL0     H36946   9.774   7.554   2.293 -0.2123 -1.0862  0.3054
  274MOL0     H36947   9.799   7.580   2.116 -1.4405 -0.4847 -1.2648
  274MOL0     H36948   9.804   7.354   2.076  0.9401  0.1318  0.1914
  274MOL0     H36949   9.805   7.312   2.255 -0.8210  0.7934  0.4795
  274MOL0     H36950  10.217   7.410   2.145  0.6906 -0.3259 -0.2771
  274MOL0     H36951  10.383   7.554   2.288 -1.0992  2.1714 -4.0202
  274MOL0     H36952  10.411   7.926   2.636 -1.2780 -1.7645  1.5705
  274MOL0     H36953  10.589   8.003   2.791 -2.8238  3.1716 -3.9344
  274MOL0     H36954  10.981   7.862   2.714  0.8914 -2.1327  1.2623
  274MOL0     H36955  11.008   7.964   2.850 -0.7309  1.1113 -0.2129
  274MOL0     H36956  10.926   7.797   3.017  1.2138 -0.0315  0.5914
  274MOL0     H36957  10.867   7.693   2.880  0.5582  0.5187 -2.3859
  274MOL0     H36958  11.098   7.653   2.817 -1.2815 -2.7014  0.0574
  274MOL0     H36959  11.165   7.772   2.907 -0.9144 -1.2571 -1.3873
  274MOL0     H36960  11.021   7.539   3.057  0.3932 -3.5920 -0.7104
  274MOL0     H36961  11.118   7.667   3.125  1.6005 -0.5261 -0.6590
  274MOL0     H36962  11.276   7.482   3.106  1.3115  0.0727 -2.1797
  274MOL0     H36963  11.298   7.546   2.944  0.5449  0.7897 -0.5142
  274MOL0     H36964  11.111   7.386   2.869  0.6250  2.2824  0.8405
  274MOL0     H36965  11.263   7.318   2.931  0.6589  1.5481 -0.9519
  274MOL0     H36966  11.003   7.330   3.074  0.2028 -0.9908  0.7032
  274MOL0     H36967  11.171   7.288   3.140 -2.0264  1.0357  2.1302
  274MOL0     H36968  11.177   7.098   2.987  0.0120  0.9115 -3.3523
  274MOL0     H36969  11.040   7.095   3.106  3.0304  0.4341  2.3140
  274MOL0     H36970  10.868   7.746   2.611  1.0495  0.3014  0.7881
  274MOL0     H36971  10.697   7.666   2.453 -0.2505  2.5109 -2.6977
  274MOL0     H36972  10.066   7.600   2.569  2.5062 -1.4386  1.6435
  274MOL0     H36973   9.915   7.493   2.432  0.9158 -3.7849 -1.0170
  274MOL0     H36974   8.328   8.069   2.851  1.4778  1.1168 -1.5437
  274MOL0     H36975   8.218   7.926   3.022 -0.3484 -1.9496  0.7269
  274MOL0     H36976   7.993   7.534   3.069  0.1070 -0.8035 -0.1783
  274MOL0     H36977   7.886   7.363   3.193 -0.2871  2.6246 -1.1199
  274MOL0     H36978   7.923   7.412   3.594  1.7600 -1.0573  1.7401
  274MOL0     H36979   7.972   7.252   3.647 -1.3660  1.7750  1.4712
  274MOL0     H36980   7.747   7.236   3.688 -1.3677 -0.3729  0.1254
  274MOL0     H36981   7.744   7.170   3.531  2.5371  0.5733 -2.1992
  274MOL0     H36982   7.704   7.416   3.443  0.4559 -1.9740 -1.0314
  274MOL0     H36983   7.715   7.468   3.615  1.8529 -0.4726  0.0951
  274MOL0     H36984   7.506   7.308   3.656 -1.7616  2.5522  0.9071
  274MOL0     H36985   7.489   7.437   3.532 -0.3684  1.1237  3.6285
  274MOL0     H36986   7.469   7.088   3.295  0.6775 -0.7823  0.7627
  274MOL0     H36987   8.153   7.417   3.522  0.9312 -0.4695 -1.5325
  274MOL0     H36988   8.334   7.569   3.516  1.3693 -0.4152 -0.0784
  274MOL0     H36989   8.416   7.588   3.374  0.4429  0.1228  0.1319
  274MOL0     H36990   8.304   7.719   3.414 -1.2163 -0.1609 -1.3491
  275MOL0     O36991   8.649   0.851   6.336 -0.2519 -0.0047  0.0745
  275MOL0     C36992   8.602   0.960   6.334  0.2907  0.4536  0.0364
  275MOL0     O36993   8.663   1.071   6.274 -0.1810 -0.6195  1.0518
  275MOL0     C36994   8.785   1.050   6.221 -1.2609  0.4397  0.0402
  275MOL0     C36995   8.801   0.995   6.094 -0.1288 -0.1722  0.1673
  275MOL0     C36996   8.931   0.980   6.042 -0.0694  0.2047  1.0692
  275MOL0     C36997   9.041   1.035   6.109  0.6907 -0.3796  0.5651
  275MOL0     O36998   9.153   1.023   6.041  0.1952  0.5882  0.3215
  275MOL0     C36999   9.278   1.060   6.105  0.6214 -1.6655 -0.0649
  275MOL0     C37000   9.400   1.079   6.005  0.0215  0.3987  0.2703
  275MOL0     C37001   9.375   1.204   5.922  0.3148  0.2801 -0.8146
  275MOL0     C37002   9.466   1.203   5.792 -0.1292 -0.1557 -0.4616
  275MOL0     C37003   9.445   1.321   5.694  0.2455  0.6983 -0.3519
  275MOL0     C37004   9.513   1.444   5.763  0.5261 -0.0528  0.3663
  275MOL0     C37005   9.465   1.581   5.692 -0.2626  0.5987  0.0273
  275MOL0     C37006   9.518   1.591   5.546 -0.0234  0.2431 -0.1201
  275MOL0     N37007   9.469   1.712   5.493  0.0725  0.7209 -0.5261
  275MOL0     C37008   9.532   1.829   5.514  0.7908 -1.1584 -0.4130
  275MOL0     C37009   9.458   1.924   5.452  0.5609  0.0291  0.0533
  275MOL0     C37010   9.468   2.076   5.453  0.8065  0.8866 -0.1430
  275MOL0     C37011   9.327   2.137   5.461  0.0396 -0.3078  0.3727
  275MOL0     C37012   9.245   2.094   5.584  0.2893  0.0891  0.5461
  275MOL0     C37013   9.150   2.202   5.634 -0.2269  0.8749  0.0030
  275MOL0     O37014   9.040   2.222   5.537  0.0439  0.1294  0.3386
  275MOL0     C37015   8.923   2.264   5.591  1.2673 -0.5227  0.7994
  275MOL0     C37016   8.895   2.322   5.717 -0.5042  0.0219  1.1184
  275MOL0     C37017   8.772   2.367   5.748  0.2596  0.2286  0.8855
  275MOL0     C37018   8.660   2.360   5.662  0.9191  0.7453 -0.0257
  275MOL0     C37019   8.529   2.407   5.704 -0.6911 -0.4299  0.0330
  275MOL0     O37020   8.528   2.466   5.835 -0.7585  0.3877  0.2583
  275MOL0     C37021   8.419   2.513   5.904 -0.1709  0.8374 -0.3810
  275MOL0     C37022   8.343   2.621   5.860 -0.5877 -0.4503 -0.1558
  275MOL0     C37023   8.242   2.681   5.937  0.3773 -1.6745  0.4435
  275MOL0     C37024   8.204   2.629   6.061 -0.1960  0.0342 -0.9982
  275MOL0     O37025   8.108   2.691   6.135  0.0074  0.6025  0.5211
  275MOL0     C37026   8.009   2.616   6.213 -0.5375  0.0622  0.1811
  275MOL0     C37027   7.867   2.672   6.194  0.0445  0.1547  0.1041
  275MOL0     C37028   7.764   2.575   6.251  0.7818  0.2785  0.1144
  275MOL0     C37029   7.617   2.635   6.241 -0.0310  0.1608  1.0766
  275MOL0     C37030   7.563   2.678   6.108 -1.1942 -0.7689  0.1128
  275MOL0     C37031   7.402   2.686   6.120  0.3326  0.9701 -0.2762
  275MOL0     C37032   7.341   2.737   5.989  0.4382 -0.3202 -0.5858
  275MOL0     C37033   7.190   2.739   6.021 -1.0400  0.2948 -0.5085
  275MOL0    Cl37034   7.115   2.830   5.884 -0.3400  0.4471  0.3399
  275MOL0     C37035   8.261   2.500   6.098 -0.5930 -0.6786  0.6326
  275MOL0     C37036   8.376   2.456   6.022  1.0193  0.2952 -0.4687
  275MOL0     O37037   8.426   2.403   5.632 -0.3212 -0.0211  0.1727
  275MOL0     C37038   8.685   2.296   5.537 -0.1951 -0.9035  0.6064
  275MOL0     C37039   8.807   2.254   5.502  0.1343  0.1667 -0.4693
  275MOL0     N37040   9.359   1.854   5.386 -0.1558  1.1626  0.8102
  275MOL0     N37041   9.358   1.726   5.416 -0.2982  0.6392  0.5173
  275MOL0     C37042   9.026   1.080   6.242 -0.2710 -0.1065  0.4499
  275MOL0     C37043   8.900   1.095   6.296 -0.1099 -0.7818  0.0360
  275MOL0     C37044   8.464   0.967   6.382 -0.8474  0.0529 -0.6505
  275MOL0     C37045   8.398   1.086   6.360  0.1877  0.4357  0.0123
  275MOL0     C37046   8.265   1.114   6.407  0.3737 -0.1713  0.6423
  275MOL0     C37047   8.200   1.030   6.492  0.0398  0.0272  0.0628
  275MOL0     O37048   8.083   1.058   6.554  0.4904  0.6091  0.2949
  275MOL0     C37049   8.004   1.176   6.529 -0.0727  0.3727  0.0322
  275MOL0     C37050   7.863   1.142   6.581  0.8975 -0.5655  0.0593
  275MOL0     C37051   7.759   1.239   6.504 -0.8625  1.5071 -0.3621
  275MOL0     C37052   7.616   1.219   6.557 -0.5004  0.1444  0.5240
  275MOL0     C37053   7.525   1.316   6.500  0.6869 -0.2964  0.5519
  275MOL0     C37054   7.453   1.396   6.449  0.7545 -0.2365  0.0503
  275MOL0     C37055   8.260   0.898   6.508  1.0795 -0.3598 -0.2089
  275MOL0     C37056   8.392   0.868   6.449  0.4459  0.6710  0.2540
  275MOL0     C37057   8.441   0.726   6.481  0.1650 -0.2180  0.5090
  275MOL0     H37058   8.705   0.962   6.055 -1.1128  2.5336  0.1005
  275MOL0     H37059   8.932   0.929   5.946 -1.0875  1.8392  0.1488
  275MOL0     H37060   9.271   1.155   6.159  2.5059 -1.4416 -0.1420
  275MOL0     H37061   9.300   0.978   6.175 -1.1634 -1.4761  0.7803
  275MOL0     H37062   9.398   0.994   5.936  0.2302  3.2308 -3.5606
  275MOL0     H37063   9.492   1.085   6.063 -1.0965 -2.5380  2.6074
  275MOL0     H37064   9.397   1.288   5.988 -0.0536 -1.4086  1.5829
  275MOL0     H37065   9.268   1.203   5.896  0.1413 -0.0842 -0.0984
  275MOL0     H37066   9.570   1.209   5.827 -0.8868  0.0014  1.9277
  275MOL0     H37067   9.450   1.106   5.744  1.0900 -0.0494 -1.1246
  275MOL0     H37068   9.490   1.297   5.598  0.5358  0.9500 -0.2791
  275MOL0     H37069   9.337   1.330   5.680  0.2850  0.0854 -1.1333
  275MOL0     H37070   9.481   1.444   5.868 -1.5344 -0.9764 -0.1978
  275MOL0     H37071   9.619   1.419   5.754 -0.3881 -3.8928 -2.5779
  275MOL0     H37072   9.472   1.664   5.762  0.4861  2.4272 -2.0815
  275MOL0     H37073   9.356   1.569   5.697 -0.2464  0.8664  1.1798
  275MOL0     H37074   9.627   1.596   5.541 -0.0560 -0.2736 -2.4627
  275MOL0     H37075   9.488   1.500   5.492  1.2512 -0.4736  0.3235
  275MOL0     H37076   9.619   1.857   5.574  0.4306  0.0206 -0.4157
  275MOL0     H37077   9.537   2.104   5.533  2.1045  1.7781 -1.5386
  275MOL0     H37078   9.517   2.099   5.359  0.7754 -1.2836 -0.7584
  275MOL0     H37079   9.347   2.242   5.484 -0.3777 -0.0194 -0.5166
  275MOL0     H37080   9.269   2.121   5.369  1.2767 -0.9513 -0.3187
  275MOL0     H37081   9.324   2.081   5.659  0.5583  1.2253  0.4866
  275MOL0     H37082   9.190   2.001   5.569  2.1747 -0.9684 -0.0672
  275MOL0     H37083   9.201   2.296   5.657 -2.2141  2.6658 -2.3517
  275MOL0     H37084   9.085   2.172   5.717 -1.8977  1.8305 -0.9163
  275MOL0     H37085   8.972   2.345   5.791  0.8501  1.8361 -0.7377
  275MOL0     H37086   8.765   2.421   5.842 -0.8908  0.1142  0.8824
  275MOL0     H37087   8.366   2.682   5.773  0.9304  0.3157  0.7430
  275MOL0     H37088   8.198   2.770   5.893 -1.1839 -1.2042  2.7850
  275MOL0     H37089   8.008   2.511   6.182 -0.0438  0.0967  0.0282
  275MOL0     H37090   8.043   2.625   6.316 -2.5774  3.2376  0.7178
  275MOL0     H37091   7.860   2.770   6.242  0.5100 -1.2821  3.3316
  275MOL0     H37092   7.849   2.679   6.086  0.9596 -0.1236 -0.0804
  275MOL0     H37093   7.766   2.485   6.189 -0.9465  0.3490 -0.0852
  275MOL0     H37094   7.784   2.544   6.355 -1.3270 -1.8053 -0.0318
  275MOL0     H37095   7.607   2.717   6.313 -0.5219  1.4960 -0.4345
  275MOL0     H37096   7.550   2.552   6.265  0.2119 -1.1965 -2.3292
  275MOL0     H37097   7.588   2.608   6.027 -2.8403 -0.3996 -0.7721
  275MOL0     H37098   7.601   2.779   6.089  1.5204 -1.8201 -0.4438
  275MOL0     H37099   7.361   2.589   6.151 -0.4401  1.0941 -0.8810
  275MOL0     H37100   7.404   2.747   6.211  3.2522 -1.0594  1.1522
  275MOL0     H37101   7.370   2.677   5.902  1.5553 -0.0802 -0.3957
  275MOL0     H37102   7.381   2.839   5.980 -0.6855  0.2206  0.3194
  275MOL0     H37103   7.163   2.633   6.019  2.2410 -0.6484 -0.0706
  275MOL0     H37104   7.175   2.793   6.114  3.0075  0.6805  0.1048
  275MOL0     H37105   8.236   2.430   6.177 -2.0692 -0.9221 -0.0050
  275MOL0     H37106   8.434   2.374   6.065  0.7352 -0.4483 -1.4717
  275MOL0     H37107   8.623   2.282   5.449  0.9214  1.5507 -0.6666
  275MOL0     H37108   8.817   2.199   5.409 -1.4433 -0.1559 -0.4619
  275MOL0     H37109   9.112   1.097   6.306 -0.1511 -1.6100  0.7322
  275MOL0     H37110   8.877   1.127   6.397  0.1201  3.0308 -0.9918
  275MOL0     H37111   8.437   1.158   6.289 -0.0291  1.0661  0.5206
  275MOL0     H37112   8.211   1.204   6.380 -1.0885 -1.3524 -0.5968
  275MOL0     H37113   7.987   1.178   6.421 -2.2563  1.2511  0.3475
  275MOL0     H37114   8.050   1.272   6.554  0.3736  0.0030  0.6683
  275MOL0     H37115   7.841   1.153   6.688  4.2860 -2.0881  1.0564
  275MOL0     H37116   7.825   1.044   6.551  0.3570  0.0803 -1.4764
  275MOL0     H37117   7.760   1.223   6.396 -0.0461 -0.8663 -0.0590
  275MOL0     H37118   7.790   1.342   6.526  1.8576  0.9763 -1.3740
  275MOL0     H37119   7.583   1.120   6.523  1.6796  0.1731 -2.0375
  275MOL0     H37120   7.600   1.208   6.664  0.7941 -4.5339  0.4735
  275MOL0     H37121   7.381   1.465   6.412 -0.4584 -0.7016  1.4135
  275MOL0     H37122   8.208   0.826   6.570  0.1827 -0.6130 -1.2330
  275MOL0     H37123   8.497   0.692   6.393 -0.7675 -2.4959  0.7286
  275MOL0     H37124   8.518   0.733   6.558 -0.1895  0.4472  0.8094
  275MOL0     H37125   8.361   0.654   6.504 -1.0003  0.0883 -2.1444
  276MOL0     O37126   5.681   9.793   2.740 -0.0376  0.0189  0.0526
  276MOL0     C37127   5.720   9.743   2.844 -0.2224  0.7012 -0.2966
  276MOL0     O37128   5.850   9.728   2.875  0.2318  0.3618 -0.1731
  276MOL0     C37129   5.936   9.829   2.857 -0.5630 -0.2455  0.2177
  276MOL0     C37130   5.897   9.962   2.833 -0.0789  0.6721  0.4394
  276MOL0     C37131   5.998  10.056   2.799 -0.2972 -0.4593 -0.8297
  276MOL0     C37132   6.137  10.022   2.798  0.4548 -0.6134 -0.6237
  276MOL0     O37133   6.232  10.118   2.769  0.2102 -0.3950 -0.6945
  276MOL0     C37134   6.364  10.070   2.731 -0.5699  0.0235 -0.2227
  276MOL0     C37135   6.465  10.188   2.702  0.3228 -0.3182 -0.5169
  276MOL0     C37136   6.584  10.152   2.618 -1.3511  0.2444 -0.2012
  276MOL0     C37137   6.679  10.271   2.589  0.7116 -0.7574 -0.2255
  276MOL0     C37138   6.809  10.238   2.505  0.4311 -0.0642 -0.4477
  276MOL0     C37139   6.891  10.353   2.433 -0.7535  0.2106 -0.1654
  276MOL0     C37140   7.015  10.307   2.361  0.3463 -0.6691  0.1842
  276MOL0     C37141   7.124  10.272   2.464 -0.5849  1.1848  0.9299
  276MOL0     N37142   7.238  10.222   2.385 -0.6151  0.9336 -0.2130
  276MOL0     C37143   7.295  10.101   2.387  0.3766  0.2576 -0.3906
  276MOL0     C37144   7.355  10.074   2.274  0.3000 -0.0920  0.3046
  276MOL0     C37145   7.414   9.943   2.240 -0.3454 -0.3325  0.2755
  276MOL0     C37146   7.511   9.975   2.118 -0.1057  0.0082  0.5115
  276MOL0     C37147   7.576   9.832   2.087  1.6263 -0.6519  0.5267
  276MOL0     C37148   7.657   9.775   2.200 -0.2078 -0.2790 -0.1904
  276MOL0     O37149   7.732   9.670   2.156 -0.0013  0.1070  0.4933
  276MOL0     C37150   7.824   9.628   2.243 -0.2004  1.2528 -0.8125
  276MOL0     C37151   7.829   9.647   2.381 -0.2816 -0.4396 -0.1190
  276MOL0     C37152   7.936   9.607   2.458 -0.3233  0.2440  0.4380
  276MOL0     C37153   8.043   9.538   2.406  0.2047  0.8636  0.5388
  276MOL0     C37154   8.178   9.515   2.473 -0.4514  0.0253  0.3073
  276MOL0     O37155   8.271   9.447   2.406 -0.7194  0.1124  0.5115
  276MOL0     C37156   8.375   9.381   2.471  0.1108 -0.0404 -1.2509
  276MOL0     C37157   8.492   9.445   2.512 -0.2096 -0.0526  0.1909
  276MOL0     C37158   8.593   9.362   2.554  0.5473 -0.2486  0.3686
  276MOL0     C37159   8.570   9.227   2.587  0.1466 -0.7521 -0.8040
  276MOL0     O37160   8.665   9.156   2.648  0.0423  0.1334 -0.3236
  276MOL0     C37161   8.640   9.026   2.705 -0.5923  0.2473  0.6463
  276MOL0     C37162   8.599   9.041   2.857 -0.6392 -0.5064  0.6031
  276MOL0     C37163   8.656   8.939   2.949 -0.8459 -0.0266  0.0921
  276MOL0     C37164   8.631   8.795   2.907 -0.5748  0.4308 -0.1575
  276MOL0     C37165   8.499   8.752   2.864 -0.8207 -0.7685  0.3234
  276MOL0     C37166   8.509   8.617   2.824 -0.3243  0.7902  0.4575
  276MOL0     C37167   8.359   8.568   2.812 -0.0438 -0.1262 -0.4255
  276MOL0     C37168   8.364   8.417   2.758  0.4756 -0.1047 -0.2374
  276MOL0    Cl37169   8.391   8.445   2.581 -0.4000 -0.3394 -0.3882
  276MOL0     C37170   8.454   9.169   2.543  0.4067  0.0535 -0.5762
  276MOL0     C37171   8.345   9.245   2.501 -0.4957  0.1087  0.1571
  276MOL0     O37172   8.179   9.530   2.597 -0.1800 -0.1180  0.5672
  276MOL0     C37173   8.029   9.499   2.271  0.0333 -0.3810 -0.3562
  276MOL0     C37174   7.924   9.538   2.189  0.6675  0.8401 -0.9958
  276MOL0     N37175   7.350  10.191   2.204  0.2299 -0.4406  0.5652
  276MOL0     N37176   7.294  10.282   2.278 -0.4062 -0.6129  0.2390
  276MOL0     C37177   6.161   9.887   2.797 -0.8432  0.1847 -0.3628
  276MOL0     C37178   6.069   9.788   2.821  0.0117 -0.2485 -0.0886
  276MOL0     C37179   5.622   9.686   2.938 -0.5376  1.6004 -0.1742
  276MOL0     C37180   5.665   9.616   3.059  0.1425 -0.1687  0.3970
  276MOL0     C37181   5.578   9.553   3.151  0.2211 -0.3243  0.0618
  276MOL0     C37182   5.442   9.552   3.115 -0.7386  0.3172 -0.0782
  276MOL0     O37183   5.366   9.486   3.204 -0.3878 -0.4035  0.0486
  276MOL0     C37184   5.234   9.436   3.157  0.4325 -0.4795 -0.8164
  276MOL0     C37185   5.182   9.310   3.227 -0.4233 -0.7542 -0.2380
  276MOL0     C37186   5.280   9.189   3.232 -0.5468 -0.9893 -0.5796
  276MOL0     C37187   5.373   9.167   3.107  0.2436 -0.2074 -1.1512
  276MOL0     C37188   5.441   9.040   3.129 -0.4610 -0.7242  0.1007
  276MOL0     C37189   5.516   8.945   3.148 -0.0466  0.3817  0.1481
  276MOL0     C37190   5.401   9.615   2.998  1.8527  0.4700 -0.7157
  276MOL0     C37191   5.483   9.664   2.904  0.0510  0.8081 -0.2933
  276MOL0     C37192   5.409   9.725   2.789  0.0435  0.8197  0.2307
  276MOL0     H37193   5.792   9.988   2.837  0.1930  1.8923  0.0311
  276MOL0     H37194   5.966  10.160   2.799 -2.7751 -1.0546  2.6185
  276MOL0     H37195   6.395  10.018   2.822 -0.0016  2.8911  1.3718
  276MOL0     H37196   6.361  10.014   2.638  0.7330  0.5608 -0.6179
  276MOL0     H37197   6.484  10.230   2.801  1.2430 -0.6067 -0.5676
  276MOL0     H37198   6.405  10.253   2.637 -0.5375 -0.0678  0.4937
  276MOL0     H37199   6.544  10.118   2.522 -1.9519  2.3368 -0.7432
  276MOL0     H37200   6.648  10.079   2.667  0.4961  2.4065  0.7970
  276MOL0     H37201   6.624  10.345   2.529  0.4658 -0.7657 -0.0108
  276MOL0     H37202   6.710  10.320   2.682  0.9445 -1.9440  0.3352
  276MOL0     H37203   6.881  10.180   2.564 -0.8617  0.8145  2.1948
  276MOL0     H37204   6.774  10.186   2.416  0.0712 -0.5175 -0.0477
  276MOL0     H37205   6.819  10.405   2.369 -1.7889  0.4822  1.1522
  276MOL0     H37206   6.935  10.428   2.500  1.7288 -3.1572  2.3343
  276MOL0     H37207   7.035  10.402   2.311  0.5173  2.0051  4.7878
  276MOL0     H37208   7.006  10.224   2.290  1.7633  0.5075 -1.4351
  276MOL0     H37209   7.146  10.374   2.495 -3.4720  2.3190 -0.3623
  276MOL0     H37210   7.087  10.202   2.539  1.6411 -2.7508 -1.3127
  276MOL0     H37211   7.284  10.026   2.465 -2.0237 -0.0488 -0.9209
  276MOL0     H37212   7.472   9.902   2.323  0.3409  1.7864  0.9140
  276MOL0     H37213   7.338   9.868   2.216  1.7105 -2.9991  1.5723
  276MOL0     H37214   7.467  10.009   2.024 -0.7420  2.8972  1.7461
  276MOL0     H37215   7.582  10.055   2.141 -2.7855  2.2996  1.2640
  276MOL0     H37216   7.649   9.839   2.005  0.2027  1.0408 -0.6822
  276MOL0     H37217   7.498   9.767   2.048  0.8319  1.0455 -0.8334
  276MOL0     H37218   7.585   9.735   2.272 -1.1367 -2.6315 -2.2451
  276MOL0     H37219   7.724   9.839   2.259  1.6118 -0.3268 -2.0914
  276MOL0     H37220   7.761   9.716   2.431  2.1135  0.9172  1.4913
  276MOL0     H37221   7.944   9.642   2.560 -0.2204 -0.7311  0.7728
  276MOL0     H37222   8.517   9.550   2.501 -0.3233  0.3994  3.2623
  276MOL0     H37223   8.691   9.401   2.577  1.2292 -0.0529 -2.5904
  276MOL0     H37224   8.565   8.965   2.655 -1.5527 -0.8795  3.2644
  276MOL0     H37225   8.737   8.979   2.694 -0.1138  1.7828 -3.0468
  276MOL0     H37226   8.626   9.139   2.898 -3.0782 -0.1317  1.4758
  276MOL0     H37227   8.490   9.036   2.858 -0.8359  2.1885  1.1023
  276MOL0     H37228   8.763   8.955   2.965 -1.0146 -0.8484  2.3281
  276MOL0     H37229   8.602   8.949   3.043 -0.9143  0.9570 -0.0433
  276MOL0     H37230   8.651   8.738   2.998  1.7111 -0.9362 -1.4293
  276MOL0     H37231   8.700   8.779   2.824 -1.1885  0.7637 -0.7434
  276MOL0     H37232   8.463   8.816   2.783  3.8024 -0.9838 -2.2559
  276MOL0     H37233   8.442   8.768   2.956 -2.2910  0.5189 -0.7645
  276MOL0     H37234   8.562   8.594   2.730 -2.4367 -1.8705 -0.2228
  276MOL0     H37235   8.562   8.565   2.904  0.3973  0.5161 -0.1844
  276MOL0     H37236   8.298   8.632   2.748 -2.1314 -1.3087  0.2534
  276MOL0     H37237   8.311   8.567   2.910 -0.9484  2.3633 -0.7659
  276MOL0     H37238   8.452   8.365   2.796  0.3839 -1.6770 -1.9804
  276MOL0     H37239   8.279   8.347   2.764  1.3159 -1.1659 -0.4901
  276MOL0     H37240   8.435   9.063   2.552 -0.2513  0.1467 -0.8286
  276MOL0     H37241   8.242   9.216   2.484 -0.1573 -0.4545 -1.0448
  276MOL0     H37242   8.102   9.447   2.211  0.4990 -0.3716  0.1965
  276MOL0     H37243   7.915   9.512   2.085 -0.1479 -1.0587 -0.4875
  276MOL0     H37244   6.264   9.856   2.786 -1.6874 -3.2289  0.1574
  276MOL0     H37245   6.101   9.685   2.813 -0.9298 -0.4015 -3.3894
  276MOL0     H37246   5.772   9.621   3.077  0.3442 -0.7783 -0.5572
  276MOL0     H37247   5.621   9.502   3.236 -0.9465 -1.7067 -0.1310
  276MOL0     H37248   5.250   9.411   3.051  1.6527  0.7788 -0.9527
  276MOL0     H37249   5.157   9.509   3.182  0.0295 -2.3612  4.8093
  276MOL0     H37250   5.091   9.276   3.176 -0.1738  0.3486 -1.4590
  276MOL0     H37251   5.150   9.328   3.330 -0.2426 -0.0283 -0.3050
  276MOL0     H37252   5.227   9.094   3.241 -0.9008 -0.6630  0.9795
  276MOL0     H37253   5.344   9.205   3.319  0.9201 -0.9480 -1.6252
  276MOL0     H37254   5.313   9.155   3.016  0.0162 -1.1320 -0.8834
  276MOL0     H37255   5.439   9.254   3.103 -0.3062  0.4992  2.0963
  276MOL0     H37256   5.580   8.869   3.187 -1.8070 -0.6071  1.2595
  276MOL0     H37257   5.292   9.615   2.999  1.8337 -0.8027 -0.2041
  276MOL0     H37258   5.301   9.709   2.794  0.0463  1.1236  1.7835
  276MOL0     H37259   5.417   9.831   2.811 -1.3142  0.7850  0.9600
  276MOL0     H37260   5.443   9.702   2.687 -0.4970 -1.3966  0.4867
  277MOL0     O37261   5.116   3.954   4.819 -0.2003  0.4304  0.5610
  277MOL0     C37262   5.063   4.062   4.811 -0.4740 -0.5842 -0.9076
  277MOL0     O37263   5.124   4.174   4.859 -0.1486 -0.5324 -0.5769
  277MOL0     C37264   5.242   4.184   4.925  0.1910  0.1963  0.2773
  277MOL0     C37265   5.357   4.221   4.852  1.3006 -0.4089 -1.3300
  277MOL0     C37266   5.476   4.250   4.921  0.3448 -0.1237  0.7993
  277MOL0     C37267   5.481   4.246   5.055 -0.0893  0.6896 -0.6409
  277MOL0     O37268   5.593   4.265   5.129  0.3313 -0.1918 -0.4631
  277MOL0     C37269   5.721   4.222   5.071  0.6232 -0.1475 -0.2367
  277MOL0     C37270   5.800   4.339   5.039  1.0574 -0.2792 -1.0515
  277MOL0     C37271   5.956   4.339   5.010  0.6036 -0.3439  0.5145
  277MOL0     C37272   6.018   4.475   5.027 -0.6016 -0.2878 -0.8630
  277MOL0     C37273   6.175   4.480   5.042 -0.0544 -0.0134  1.0017
  277MOL0     C37274   6.251   4.470   4.908  0.3851 -0.4922  0.2701
  277MOL0     C37275   6.310   4.613   4.856 -0.0613  0.1312 -0.4092
  277MOL0     C37276   6.197   4.720   4.842  1.1665 -0.1708  0.3582
  277MOL0     N37277   6.261   4.849   4.803 -0.3070 -1.0477 -0.6307
  277MOL0     C37278   6.233   4.965   4.869 -0.5989 -0.6261  0.3610
  277MOL0     C37279   6.292   5.064   4.799 -0.3417 -0.2871 -0.3207
  277MOL0     C37280   6.294   5.209   4.828  0.6606 -0.0629 -0.8496
  277MOL0     C37281   6.424   5.271   4.778 -0.2442 -0.7284 -0.5137
  277MOL0     C37282   6.548   5.232   4.862  0.1161  0.7895 -0.9545
  277MOL0     C37283   6.684   5.298   4.821  0.1957  0.4256 -0.3384
  277MOL0     O37284   6.661   5.438   4.800 -0.2260  0.2748  0.1758
  277MOL0     C37285   6.718   5.488   4.690 -0.4286 -0.3538 -0.2442
  277MOL0     C37286   6.658   5.484   4.569  0.1682 -0.1670  0.2653
  277MOL0     C37287   6.712   5.557   4.458  0.1595 -0.9842  0.4121
  277MOL0     C37288   6.832   5.628   4.471 -0.5416 -0.5654 -0.2604
  277MOL0     C37289   6.888   5.691   4.350 -0.3462  0.1711 -0.0303
  277MOL0     O37290   6.823   5.682   4.235  0.0345  0.9794  0.5780
  277MOL0     C37291   6.871   5.742   4.126 -0.4291 -0.1058  0.1105
  277MOL0     C37292   6.966   5.683   4.038  0.1996 -0.0971 -0.1973
  277MOL0     C37293   7.019   5.754   3.933  0.3965 -1.1618  1.2506
  277MOL0     C37294   6.974   5.882   3.909 -0.1015 -1.2331  0.0449
  277MOL0     O37295   7.033   5.940   3.799  0.2664 -0.1517  0.1028
  277MOL0     C37296   7.021   6.076   3.766 -0.6690 -0.0505  0.3165
  277MOL0     C37297   6.907   6.095   3.663 -0.1504 -0.0760  0.7028
  277MOL0     C37298   6.962   6.174   3.533 -0.1136 -0.1112  0.7290
  277MOL0     C37299   6.841   6.199   3.431  0.0921 -0.3599  0.2677
  277MOL0     C37300   6.898   6.258   3.300 -0.4346 -0.0538  0.0829
  277MOL0     C37301   6.794   6.257   3.190 -0.1543  0.0349 -0.3058
  277MOL0     C37302   6.873   6.301   3.064  0.0643 -0.2042  0.7129
  277MOL0     C37303   6.825   6.218   2.941  0.5304 -0.5269 -0.6199
  277MOL0    Cl37304   6.909   6.267   2.794  0.2521 -0.1287  0.3216
  277MOL0     C37305   6.866   5.941   3.982  0.1463 -0.7834 -0.3156
  277MOL0     C37306   6.816   5.870   4.094 -0.3743 -0.4318  0.3949
  277MOL0     O37307   6.993   5.762   4.364 -0.0024 -0.8107  0.3612
  277MOL0     C37308   6.895   5.635   4.594  0.3469  0.5864 -0.2635
  277MOL0     C37309   6.845   5.557   4.701  0.3760 -0.8052  0.0977
  277MOL0     N37310   6.359   5.000   4.692 -0.0012 -0.2168  0.1961
  277MOL0     N37311   6.346   4.873   4.699 -0.3740 -0.1831 -0.2154
  277MOL0     C37312   5.370   4.201   5.130 -0.0749 -0.6128  0.6360
  277MOL0     C37313   5.247   4.173   5.063 -0.2431 -0.1933 -0.1874
  277MOL0     C37314   4.927   4.087   4.770  0.4624  0.1826  0.0621
  277MOL0     C37315   4.860   4.204   4.815 -0.1376 -0.3564  0.7978
  277MOL0     C37316   4.730   4.239   4.790 -0.2603  0.5766  0.5775
  277MOL0     C37317   4.653   4.159   4.712 -1.4897 -0.7915  0.2842
  277MOL0     O37318   4.527   4.178   4.683 -0.4783 -0.3844 -0.1604
  277MOL0     C37319   4.432   4.240   4.779 -0.7805  0.4350 -0.5345
  277MOL0     C37320   4.289   4.229   4.728 -0.5652  0.0367  0.4159
  277MOL0     C37321   4.192   4.320   4.806 -0.7425  0.7560 -0.0547
  277MOL0     C37322   4.057   4.306   4.746  0.7321 -0.1481  0.0833
  277MOL0     C37323   3.957   4.392   4.812 -0.6857 -0.2926  0.3775
  277MOL0     C37324   3.894   4.477   4.877  0.1796 -0.3248  0.6440
  277MOL0     C37325   4.720   4.049   4.659  0.0920 -0.2916  0.4240
  277MOL0     C37326   4.850   4.004   4.689  0.8760 -0.2721 -0.5202
  277MOL0     C37327   4.897   3.885   4.609 -0.2221  0.9380  0.0730
  277MOL0     H37328   5.345   4.235   4.745 -1.4371 -4.0901 -1.7043
  277MOL0     H37329   5.560   4.286   4.863  0.0770 -2.6847 -1.3686
  277MOL0     H37330   5.770   4.173   5.156  2.6688  3.5937  0.9758
  277MOL0     H37331   5.704   4.154   4.987  0.8915 -1.2030  0.5459
  277MOL0     H37332   5.770   4.400   5.125  0.0126 -1.1191 -0.7904
  277MOL0     H37333   5.756   4.391   4.954 -0.7689  3.8212  2.0473
  277MOL0     H37334   5.991   4.296   4.916  0.1425 -0.6176  0.4671
  277MOL0     H37335   6.004   4.272   5.082  2.6940  2.3650  1.8414
  277MOL0     H37336   5.982   4.536   4.944  1.4347 -1.7089 -2.9279
  277MOL0     H37337   5.979   4.521   5.118  0.4878  2.9632 -1.8756
  277MOL0     H37338   6.198   4.564   5.108 -0.3500  1.9170 -1.2380
  277MOL0     H37339   6.221   4.394   5.093 -1.5696 -0.9464  0.8803
  277MOL0     H37340   6.344   4.417   4.928  2.6420  3.3077  0.8908
  277MOL0     H37341   6.191   4.418   4.832  0.4637 -2.8651  1.7145
  277MOL0     H37342   6.353   4.591   4.758 -0.8725 -0.9286 -0.5477
  277MOL0     H37343   6.388   4.634   4.930 -0.4595  1.8096 -0.4361
  277MOL0     H37344   6.107   4.689   4.789  1.5290 -0.7264  0.0531
  277MOL0     H37345   6.168   4.741   4.946 -1.5678  0.8950 -0.5471
  277MOL0     H37346   6.174   4.978   4.959 -0.5331  3.9474 -0.0666
  277MOL0     H37347   6.205   5.258   4.788 -0.5924  0.4021  2.2078
  277MOL0     H37348   6.283   5.218   4.937  3.9011  0.0072 -0.4263
  277MOL0     H37349   6.430   5.251   4.670 -0.0609  1.7290 -1.0014
  277MOL0     H37350   6.406   5.378   4.782 -1.5328 -0.9432 -0.0006
  277MOL0     H37351   6.546   5.122   4.856 -3.3931  0.6448  0.4862
  277MOL0     H37352   6.519   5.255   4.965 -0.3683  4.1705 -1.7317
  277MOL0     H37353   6.727   5.253   4.731  2.6870  1.3093  0.3157
  277MOL0     H37354   6.756   5.272   4.900 -0.0817 -0.6034 -0.4030
  277MOL0     H37355   6.570   5.423   4.553 -1.6232  1.9032  1.5205
  277MOL0     H37356   6.665   5.543   4.361  1.8225  0.5029 -0.6637
  277MOL0     H37357   7.008   5.589   4.075  2.2954  2.4204  4.7305
  277MOL0     H37358   7.100   5.721   3.868  1.8280  4.1184 -0.1495
  277MOL0     H37359   6.999   6.144   3.849  0.0682  3.5342 -2.1757
  277MOL0     H37360   7.119   6.088   3.718  0.3067 -4.9249  0.5145
  277MOL0     H37361   6.873   6.004   3.613  0.5234  0.8936 -1.6837
  277MOL0     H37362   6.815   6.143   3.696  0.4222  0.9888  0.7913
  277MOL0     H37363   7.000   6.273   3.560  1.0011  0.8890 -3.7470
  277MOL0     H37364   7.049   6.120   3.495  1.4062  0.8801  2.6390
  277MOL0     H37365   6.765   6.266   3.471 -2.0766 -0.9067 -2.5697
  277MOL0     H37366   6.799   6.099   3.418 -0.6957  0.1909 -1.9345
  277MOL0     H37367   6.977   6.193   3.262  0.7786  2.2606 -1.6231
  277MOL0     H37368   6.940   6.357   3.322 -0.1033 -0.1876  0.0517
  277MOL0     H37369   6.767   6.152   3.177  2.6874 -0.5077 -3.0479
  277MOL0     H37370   6.714   6.329   3.212  0.8100  1.2312 -0.6081
  277MOL0     H37371   6.981   6.310   3.077  0.3402 -0.0888 -1.2585
  277MOL0     H37372   6.856   6.407   3.041 -2.0489 -0.3108  1.4862
  277MOL0     H37373   6.852   6.112   2.947 -1.6039 -1.1469 -1.0406
  277MOL0     H37374   6.717   6.227   2.926  0.6561 -0.4798 -1.5844
  277MOL0     H37375   6.833   6.041   3.956  0.6578  0.4164  3.1662
  277MOL0     H37376   6.733   5.921   4.142 -0.7483  0.8209 -1.4520
  277MOL0     H37377   6.980   5.701   4.607 -0.6987  1.4765  3.2982
  277MOL0     H37378   6.893   5.574   4.797 -1.7350  1.2964  0.8892
  277MOL0     H37379   5.366   4.183   5.237 -1.1053 -0.4663  0.6353
  277MOL0     H37380   5.167   4.120   5.113  2.6918 -2.9030  2.0842
  277MOL0     H37381   4.915   4.260   4.890  1.2798 -1.7485  0.8346
  277MOL0     H37382   4.697   4.335   4.829  1.9994  1.6063  0.0751
  277MOL0     H37383   4.467   4.343   4.788  1.7550 -0.3913 -0.0162
  277MOL0     H37384   4.437   4.206   4.883 -0.5427 -0.2256 -0.7544
  277MOL0     H37385   4.256   4.125   4.730 -0.2133 -0.0996 -0.2947
  277MOL0     H37386   4.296   4.261   4.623 -2.9760 -2.1134 -0.5160
  277MOL0     H37387   4.221   4.426   4.808 -0.6330  0.7235  0.2306
  277MOL0     H37388   4.189   4.294   4.913 -0.0307  1.5871  0.1820
  277MOL0     H37389   4.068   4.322   4.639  0.2956 -2.5348 -0.3920
  277MOL0     H37390   4.015   4.204   4.749  0.0348  0.0935 -0.8256
  277MOL0     H37391   3.852   4.539   4.953 -2.5409 -2.0526  0.6963
  277MOL0     H37392   4.672   3.978   4.592  1.7120  2.5938 -4.3295
  277MOL0     H37393   4.965   3.911   4.527 -0.9091 -0.7577 -1.0880
  277MOL0     H37394   4.946   3.808   4.670 -2.3264 -2.2403 -1.8929
  277MOL0     H37395   4.816   3.838   4.553  0.3674  1.6210 -1.4101
  278MOL0     O37396   7.938   3.253   9.340  0.8310  0.2606  0.5305
  278MOL0     C37397   7.866   3.261   9.239  0.1708  0.0026 -0.1777
  278MOL0     O37398   7.898   3.337   9.134  0.1056 -0.1394 -0.1271
  278MOL0     C37399   8.034   3.340   9.096 -0.6932  0.6101  0.5538
  278MOL0     C37400   8.118   3.454   9.114  0.1131 -0.5044  0.2880
  278MOL0     C37401   8.255   3.445   9.069  0.7900 -1.2412 -0.5851
  278MOL0     C37402   8.302   3.341   8.998 -0.0771  0.1365  0.4150
  278MOL0     O37403   8.431   3.326   8.937 -0.4069 -0.0106 -0.3091
  278MOL0     C37404   8.465   3.441   8.862  0.2415 -0.2925 -0.0909
  278MOL0     C37405   8.595   3.402   8.799 -0.2023  0.4431 -0.4043
  278MOL0     C37406   8.649   3.523   8.719  0.0952  0.5757 -0.2823
  278MOL0     C37407   8.787   3.492   8.667  0.4036  0.7206 -0.3447
  278MOL0     C37408   8.833   3.614   8.584  0.7226 -0.3934 -0.3825
  278MOL0     C37409   8.776   3.620   8.450  0.3835 -0.0620  0.1316
  278MOL0     C37410   8.867   3.712   8.368 -0.9399  0.1634  0.2671
  278MOL0     C37411   8.827   3.741   8.232 -0.9445  0.8467  0.3017
  278MOL0     N37412   8.740   3.856   8.230  1.0837 -0.0630  0.2136
  278MOL0     C37413   8.602   3.856   8.236 -0.2433 -0.2943 -0.4335
  278MOL0     C37414   8.563   3.989   8.223 -0.3962  0.5855  0.8132
  278MOL0     C37415   8.422   4.029   8.193 -0.4598 -0.8320  0.0422
  278MOL0     C37416   8.389   4.180   8.199 -0.2937 -0.2257  0.2991
  278MOL0     C37417   8.354   4.230   8.335 -1.0363 -1.0117  0.0550
  278MOL0     C37418   8.324   4.377   8.334  0.9915  0.2457  0.2342
  278MOL0     O37419   8.213   4.400   8.236  0.1804  0.0131  0.3695
  278MOL0     C37420   8.086   4.372   8.267  0.5166 -0.0362  0.1115
  278MOL0     C37421   8.035   4.343   8.394 -0.3006 -0.2145 -0.7882
  278MOL0     C37422   7.895   4.315   8.408  0.4744  0.1580  0.6846
  278MOL0     C37423   7.803   4.309   8.296 -0.2515 -0.0680  0.7416
  278MOL0     C37424   7.658   4.307   8.313 -0.0318  0.1807 -0.4719
  278MOL0     O37425   7.584   4.306   8.198 -0.1410 -1.1376 -0.3432
  278MOL0     C37426   7.461   4.248   8.200  0.1759  0.2935  0.1218
  278MOL0     C37427   7.372   4.312   8.118  0.1210 -0.0658  0.5234
  278MOL0     C37428   7.242   4.274   8.110  0.2304  0.2211 -0.2472
  278MOL0     C37429   7.195   4.176   8.199  0.2154 -0.5463  0.7703
  278MOL0     O37430   7.063   4.130   8.197  0.2791  0.0356 -0.8802
  278MOL0     C37431   6.964   4.222   8.156 -0.2921 -0.9728 -0.2277
  278MOL0     C37432   6.833   4.205   8.231  0.0257  0.0992  0.4130
  278MOL0     C37433   6.751   4.331   8.203 -0.2700  0.1048 -0.6633
  278MOL0     C37434   6.631   4.319   8.294  0.4552  0.4939  0.2931
  278MOL0     C37435   6.507   4.406   8.259  0.0731  0.0463 -0.2128
  278MOL0     C37436   6.544   4.548   8.310 -0.5502 -0.2020  0.0936
  278MOL0     C37437   6.422   4.641   8.278 -0.1813 -0.5460 -0.5042
  278MOL0     C37438   6.437   4.784   8.323  0.3176  0.6140 -1.1408
  278MOL0    Cl37439   6.439   4.808   8.504 -0.2377  0.0458 -0.3047
  278MOL0     C37440   7.283   4.110   8.284  0.2128 -0.5570 -0.2536
  278MOL0     C37441   7.414   4.146   8.282 -1.2710 -0.1856 -0.2529
  278MOL0     O37442   7.614   4.303   8.424  0.2733  0.1589 -0.0982
  278MOL0     C37443   7.865   4.343   8.171  0.3160 -0.0174  0.3026
  278MOL0     C37444   7.997   4.373   8.157 -0.0667 -0.2372 -0.2423
  278MOL0     N37445   8.681   4.066   8.212  0.1439  0.4700  0.3531
  278MOL0     N37446   8.781   3.984   8.221 -0.4139  0.2660  0.7488
  278MOL0     C37447   8.215   3.232   8.976  0.1604 -0.7564 -0.3115
  278MOL0     C37448   8.088   3.221   9.032  0.4402  0.0581 -0.6316
  278MOL0     C37449   7.725   3.207   9.240  0.2211  0.8128 -0.1409
  278MOL0     C37450   7.625   3.274   9.167 -0.1988  0.4455  0.0532
  278MOL0     C37451   7.491   3.244   9.180  0.0105 -0.3570 -0.1068
  278MOL0     C37452   7.446   3.142   9.258  0.5369  0.4731  0.3916
  278MOL0     O37453   7.321   3.115   9.280  0.9995  0.8999  0.0069
  278MOL0     C37454   7.223   3.201   9.233 -1.1073  0.0266 -0.2443
  278MOL0     C37455   7.079   3.153   9.245 -0.4395  0.1801 -0.1148
  278MOL0     C37456   6.975   3.240   9.170 -0.4960 -0.6516  0.0998
  278MOL0     C37457   6.856   3.167   9.104  0.2220 -0.2859 -0.4418
  278MOL0     C37458   6.768   3.109   9.204 -0.1773 -1.1004 -0.1208
  278MOL0     C37459   6.693   3.075   9.292 -0.3723 -0.5109  0.1968
  278MOL0     C37460   7.537   3.058   9.316  0.1003  0.3637 -0.3484
  278MOL0     C37461   7.680   3.094   9.322 -0.0245 -0.6814  0.4034
  278MOL0     C37462   7.767   3.024   9.414 -0.1086 -0.3849  0.1557
  278MOL0     H37463   8.069   3.539   9.160  1.2082  0.8616 -0.9584
  278MOL0     H37464   8.315   3.535   9.074 -1.7811  0.5155  1.4009
  278MOL0     H37465   8.401   3.471   8.779  0.9481  1.9998  0.1426
  278MOL0     H37466   8.482   3.525   8.928 -1.0026 -1.4111  1.7366
  278MOL0     H37467   8.587   3.315   8.732 -1.4773  0.4000 -0.2365
  278MOL0     H37468   8.669   3.375   8.874 -0.0188  1.3499 -0.2479
  278MOL0     H37469   8.662   3.609   8.786  3.9526  0.0594 -0.1671
  278MOL0     H37470   8.585   3.543   8.633 -0.6515 -0.5732 -0.0182
  278MOL0     H37471   8.845   3.479   8.758 -2.0625 -1.9863  0.9951
  278MOL0     H37472   8.788   3.397   8.614 -0.3152  0.5428 -0.0422
  278MOL0     H37473   8.809   3.711   8.630 -2.0987  0.4617 -3.2326
  278MOL0     H37474   8.940   3.605   8.569  0.6017 -1.3446 -0.6996
  278MOL0     H37475   8.775   3.524   8.398  0.4447  0.6876 -1.2860
  278MOL0     H37476   8.673   3.655   8.450 -0.7294 -2.9970  0.8210
  278MOL0     H37477   8.965   3.665   8.352 -1.7371 -1.5549  0.1645
  278MOL0     H37478   8.888   3.804   8.424 -2.7816  1.6215 -1.3334
  278MOL0     H37479   8.912   3.767   8.169  0.9325 -1.2040  1.8434
  278MOL0     H37480   8.772   3.656   8.191  0.5442 -0.4409  0.8681
  278MOL0     H37481   8.540   3.767   8.241 -1.1721  0.0941 -3.0230
  278MOL0     H37482   8.403   3.996   8.091  0.6909 -0.8550 -0.1698
  278MOL0     H37483   8.357   3.975   8.262  0.4250 -1.8126  0.1224
  278MOL0     H37484   8.465   4.233   8.142 -0.6812  1.4983  1.3100
  278MOL0     H37485   8.301   4.188   8.134 -0.3254 -1.3563  0.1772
  278MOL0     H37486   8.434   4.197   8.402  0.9895 -1.8717 -2.5886
  278MOL0     H37487   8.262   4.178   8.364 -2.1461 -2.5975 -5.2510
  278MOL0     H37488   8.404   4.438   8.292 -1.5249  0.7125 -4.6495
  278MOL0     H37489   8.305   4.415   8.434  0.6792 -1.1164  0.7217
  278MOL0     H37490   8.101   4.349   8.479 -1.5019 -0.6064  0.2067
  278MOL0     H37491   7.860   4.294   8.509 -0.2412 -4.6680 -0.2838
  278MOL0     H37492   7.398   4.394   8.052 -0.9161  0.6156  0.9182
  278MOL0     H37493   7.170   4.330   8.050 -1.2618  1.0769  2.1665
  278MOL0     H37494   7.001   4.322   8.183 -1.6629 -0.3238 -0.6378
  278MOL0     H37495   6.954   4.218   8.047  2.9571 -0.3756 -0.6540
  278MOL0     H37496   6.782   4.115   8.195  0.0089  0.1175  0.3913
  278MOL0     H37497   6.858   4.193   8.337  0.6066 -0.9121  0.1740
  278MOL0     H37498   6.797   4.426   8.232 -0.1986 -0.4946  1.3562
  278MOL0     H37499   6.732   4.347   8.097  1.9317  2.2710 -0.8157
  278MOL0     H37500   6.668   4.319   8.397 -0.8339 -2.3946  0.8681
  278MOL0     H37501   6.604   4.213   8.283 -0.0215  0.6932 -0.5191
  278MOL0     H37502   6.427   4.369   8.323 -2.4204  3.3040 -1.1890
  278MOL0     H37503   6.485   4.393   8.152  2.2209 -0.4248 -0.6558
  278MOL0     H37504   6.565   4.536   8.416  1.7252 -1.3155 -0.4198
  278MOL0     H37505   6.631   4.601   8.269 -1.3588  1.0838 -0.0065
  278MOL0     H37506   6.335   4.593   8.325 -1.0212  1.5563  0.2199
  278MOL0     H37507   6.409   4.642   8.170  1.3547  0.1339 -0.7037
  278MOL0     H37508   6.529   4.828   8.285 -0.1702  1.2107 -1.6559
  278MOL0     H37509   6.358   4.853   8.294  1.2374  3.2899  2.0377
  278MOL0     H37510   7.246   4.028   8.345  1.1393 -1.2943 -0.6566
  278MOL0     H37511   7.475   4.112   8.365  3.0589  1.6462 -2.3520
  278MOL0     H37512   7.786   4.365   8.100 -1.7040 -0.7235  2.2309
  278MOL0     H37513   8.037   4.396   8.059 -0.0008 -2.8143 -0.8769
  278MOL0     H37514   8.250   3.162   8.901 -0.5961  1.2876 -2.7294
  278MOL0     H37515   8.036   3.130   9.007  1.5149  0.0795 -3.3566
  278MOL0     H37516   7.647   3.365   9.113 -2.0463  0.9840  0.1486
  278MOL0     H37517   7.429   3.318   9.130 -3.4444 -1.7799  1.7361
  278MOL0     H37518   7.241   3.212   9.126  0.2363 -1.9186 -0.2835
  278MOL0     H37519   7.231   3.301   9.276 -0.9291 -0.1646  0.1750
  278MOL0     H37520   7.051   3.156   9.351 -0.2840  2.8554 -0.1011
  278MOL0     H37521   7.067   3.048   9.215 -1.5808  0.9351 -2.6097
  278MOL0     H37522   7.029   3.294   9.091  2.2485  0.6524  2.6515
  278MOL0     H37523   6.933   3.311   9.242 -2.5044 -3.0834  1.4684
  278MOL0     H37524   6.790   3.231   9.044 -1.3749 -0.8741  0.6113
  278MOL0     H37525   6.899   3.097   9.032 -0.4600 -0.8220 -0.3354
  278MOL0     H37526   6.649   3.043   9.384 -0.8688  1.0054  0.5177
  278MOL0     H37527   7.494   2.976   9.372  4.3696 -1.3642  0.7848
  278MOL0     H37528   7.735   2.920   9.424 -0.0938 -0.4187 -0.1340
  278MOL0     H37529   7.870   3.019   9.376 -0.2389  1.4144 -0.4967
  278MOL0     H37530   7.758   3.075   9.510 -1.9665  1.2210 -0.8097
  279MOL0     O37531   7.782   6.628   0.915  0.0707 -0.2313  1.1071
  279MOL0     C37532   7.681   6.693   0.885 -0.4707 -0.7048 -0.4037
  279MOL0     O37533   7.650   6.825   0.927  0.6668 -0.0007 -0.0148
  279MOL0     C37534   7.744   6.887   0.996 -0.3929  0.9080  0.8121
  279MOL0     C37535   7.717   6.881   1.132  0.1208  0.1836  0.0354
  279MOL0     C37536   7.811   6.935   1.213  0.4034  0.1581 -1.0407
  279MOL0     C37537   7.922   6.997   1.165 -0.3758 -0.1665 -0.2273
  279MOL0     O37538   8.026   7.049   1.233 -0.9138 -0.1246 -0.2409
  279MOL0     C37539   7.996   7.089   1.371 -0.0273 -0.9734  1.0423
  279MOL0     C37540   8.104   7.169   1.445  0.5962  0.1848  0.7378
  279MOL0     C37541   8.254   7.132   1.426 -0.0713  0.7289 -0.3965
  279MOL0     C37542   8.324   7.242   1.516 -0.1388 -0.4786 -1.2561
  279MOL0     C37543   8.476   7.226   1.511  0.6118  1.0689  0.1751
  279MOL0     C37544   8.547   7.279   1.630  0.2691 -0.2143 -0.7524
  279MOL0     C37545   8.696   7.244   1.626  0.7712  0.4944  0.2672
  279MOL0     C37546   8.773   7.360   1.683  0.3017  0.2021  0.8176
  279MOL0     N37547   8.752   7.378   1.830  0.4189 -0.1249 -0.5459
  279MOL0     C37548   8.828   7.318   1.926  0.8272 -0.0476 -0.6150
  279MOL0     C37549   8.773   7.361   2.044  0.5916 -0.0749  0.5434
  279MOL0     C37550   8.814   7.327   2.185  0.1986  0.1681 -0.4992
  279MOL0     C37551   8.956   7.370   2.211  0.0324  0.3446  0.1529
  279MOL0     C37552   9.028   7.296   2.323 -0.1072 -0.9561 -0.8818
  279MOL0     C37553   9.005   7.350   2.465 -0.4414 -0.9788  0.6113
  279MOL0     O37554   9.087   7.281   2.563  0.2744 -0.3939  0.8564
  279MOL0     C37555   9.222   7.311   2.563  0.3378 -0.8001  0.4269
  279MOL0     C37556   9.301   7.222   2.631  0.0185  0.1557 -0.7967
  279MOL0     C37557   9.437   7.241   2.633  0.5657 -0.8889 -0.3654
  279MOL0     C37558   9.497   7.363   2.582  0.2818 -0.2897 -0.3724
  279MOL0     C37559   9.638   7.387   2.588 -0.6412  0.5907  0.0276
  279MOL0     O37560   9.720   7.278   2.619 -0.2816 -0.2844  0.6769
  279MOL0     C37561   9.849   7.294   2.660  0.2186  0.6748 -0.0031
  279MOL0     C37562   9.942   7.218   2.598 -0.2955 -0.9979 -0.1893
  279MOL0     C37563  10.081   7.224   2.626  0.7538  0.9507 -0.3362
  279MOL0     C37564  10.121   7.303   2.737 -0.3459 -0.0887  0.6018
  279MOL0     O37565  10.248   7.300   2.782 -0.2354 -0.3497  0.2682
  279MOL0     C37566  10.345   7.340   2.688 -1.0676 -0.2622  0.0761
  279MOL0     C37567  10.481   7.292   2.729  0.1812  0.3834  1.0807
  279MOL0     C37568  10.598   7.320   2.625  0.8658 -0.4034 -0.6414
  279MOL0     C37569  10.733   7.279   2.672  1.1730 -0.1428 -0.7264
  279MOL0     C37570  10.840   7.292   2.564  0.1689  0.4738  0.8496
  279MOL0     C37571  10.899   7.429   2.535 -0.4391  0.0968 -0.1236
  279MOL0     C37572  11.029   7.421   2.460 -0.1536 -0.3712  0.3800
  279MOL0     C37573  11.073   7.561   2.409  0.6813 -0.3306 -0.8219
  279MOL0    Cl37574  10.967   7.640   2.293  0.2574 -0.3002 -0.1597
  279MOL0     C37575  10.024   7.379   2.810  0.4307 -0.5749 -0.3365
  279MOL0     C37576   9.883   7.376   2.769 -0.6128 -0.0625 -0.1160
  279MOL0     O37577   9.672   7.497   2.554  1.1001  0.2962 -0.5470
  279MOL0     C37578   9.411   7.454   2.522 -1.0170 -0.3439  0.2435
  279MOL0     C37579   9.278   7.429   2.512  0.3382 -0.7378  0.3083
  279MOL0     N37580   8.658   7.433   2.020  0.4012  0.3606  0.4802
  279MOL0     N37581   8.655   7.447   1.890  0.7156 -0.0731 -0.1577
  279MOL0     C37582   7.932   7.013   1.028  0.1368 -0.7535 -0.4211
  279MOL0     C37583   7.844   6.958   0.944  0.7158  0.5820 -0.4153
  279MOL0     C37584   7.582   6.614   0.805 -0.2449 -0.5643  1.1771
  279MOL0     C37585   7.632   6.537   0.698  0.5635  0.3141  0.4326
  279MOL0     C37586   7.551   6.462   0.618 -0.4430  0.0816  0.0913
  279MOL0     C37587   7.415   6.456   0.641 -0.7183 -0.4169 -0.3117
  279MOL0     O37588   7.334   6.379   0.570  0.3187  0.1243 -0.6146
  279MOL0     C37589   7.375   6.354   0.437  0.0507 -0.3282  1.0171
  279MOL0     C37590   7.265   6.301   0.349  0.4588  0.5951  1.5284
  279MOL0     C37591   7.226   6.151   0.368 -0.0192  0.5025  1.2374
  279MOL0     C37592   7.113   6.096   0.279 -0.2831 -0.8355 -0.8025
  279MOL0     C37593   6.985   6.162   0.311 -0.6153 -0.2353 -0.2263
  279MOL0     C37594   6.880   6.220   0.331 -0.0569 -0.4901  0.3157
  279MOL0     C37595   7.360   6.533   0.746 -0.0825  0.5077 -0.1569
  279MOL0     C37596   7.444   6.609   0.833 -0.4095 -0.4779 -0.7179
  279MOL0     C37597   7.384   6.676   0.951 -0.6364 -0.3296 -1.0602
  279MOL0     H37598   7.627   6.835   1.171  0.4176 -1.9140 -1.5911
  279MOL0     H37599   7.794   6.917   1.319 -2.5631  1.9890 -1.0794
  279MOL0     H37600   7.904   7.148   1.381  0.7393  0.2950  0.8466
  279MOL0     H37601   7.994   7.004   1.440  3.1105  1.2070  4.1729
  279MOL0     H37602   8.085   7.153   1.552 -2.1524 -1.7911  0.0416
  279MOL0     H37603   8.100   7.278   1.430  0.7595  0.3579  1.8707
  279MOL0     H37604   8.278   7.150   1.321 -0.1059  0.0665 -0.5194
  279MOL0     H37605   8.264   7.024   1.443 -0.3747  0.8134  0.3390
  279MOL0     H37606   8.297   7.341   1.478  1.5721 -0.1025 -1.5813
  279MOL0     H37607   8.291   7.230   1.620  0.4284  2.6490 -0.6075
  279MOL0     H37608   8.498   7.119   1.516 -0.7229  0.8193  1.2964
  279MOL0     H37609   8.522   7.260   1.418  3.2539 -0.4873  0.8009
  279MOL0     H37610   8.526   7.386   1.622 -0.3720 -0.4345 -2.3090
  279MOL0     H37611   8.513   7.236   1.724  1.6625  0.2425 -0.0125
  279MOL0     H37612   8.726   7.218   1.524 -0.4921  0.8808 -0.2081
  279MOL0     H37613   8.709   7.152   1.684  0.2250  0.1585 -0.1312
  279MOL0     H37614   8.878   7.340   1.658 -0.3176 -2.5646  0.0484
  279MOL0     H37615   8.749   7.458   1.639 -1.1435 -0.4010  0.1695
  279MOL0     H37616   8.919   7.263   1.906  2.0005  1.9701 -1.1542
  279MOL0     H37617   8.743   7.369   2.256  0.4629 -2.3133  1.3854
  279MOL0     H37618   8.802   7.222   2.216 -0.7186  0.3948 -0.0549
  279MOL0     H37619   9.023   7.359   2.126  0.1797 -0.5135  0.3758
  279MOL0     H37620   8.952   7.477   2.235  0.2074  0.7196 -1.4073
  279MOL0     H37621   9.133   7.307   2.295 -0.3329  2.2891 -0.7976
  279MOL0     H37622   9.007   7.189   2.334 -0.7532 -0.8847 -1.3068
  279MOL0     H37623   8.898   7.331   2.474 -0.3498 -0.9814  1.9123
  279MOL0     H37624   9.010   7.459   2.473  0.2564 -1.0328  0.9659
  279MOL0     H37625   9.243   7.146   2.682 -1.3827  1.5281 -0.2552
  279MOL0     H37626   9.498   7.172   2.691  0.5594  0.5472  1.4553
  279MOL0     H37627   9.920   7.172   2.502 -0.9305  1.4972 -1.3221
  279MOL0     H37628  10.142   7.167   2.557 -0.9761 -1.2783 -0.1403
  279MOL0     H37629  10.328   7.303   2.586 -0.3013  0.4342 -0.3219
  279MOL0     H37630  10.351   7.449   2.680 -0.9101 -0.2988 -0.3688
  279MOL0     H37631  10.496   7.329   2.831  0.3873 -0.3474  1.3240
  279MOL0     H37632  10.469   7.183   2.735  1.3030  0.2615  1.2278
  279MOL0     H37633  10.573   7.268   2.532  2.1063 -3.3075  0.5177
  279MOL0     H37634  10.598   7.429   2.617 -1.2761 -0.2582  0.4969
  279MOL0     H37635  10.729   7.173   2.700  2.5272  0.4379  1.9794
  279MOL0     H37636  10.755   7.335   2.763  1.0955  0.9691 -1.3840
  279MOL0     H37637  10.801   7.249   2.471  1.1988 -1.6137  1.3226
  279MOL0     H37638  10.912   7.225   2.612 -0.6242 -0.4656  0.7609
  279MOL0     H37639  10.828   7.478   2.468 -0.0069  1.0774  0.1161
  279MOL0     H37640  10.915   7.490   2.625  1.3284  0.6426 -0.7704
  279MOL0     H37641  11.020   7.348   2.379  2.3111 -0.2487 -0.0780
  279MOL0     H37642  11.101   7.393   2.537 -1.4776 -1.2324  1.3587
  279MOL0     H37643  11.099   7.633   2.487  0.5934  0.4658 -1.5105
  279MOL0     H37644  11.160   7.541   2.346 -0.0987 -0.1273 -2.0006
  279MOL0     H37645  10.062   7.425   2.901  1.5333 -0.1046 -1.0132
  279MOL0     H37646   9.808   7.437   2.819  0.3136  0.4297  0.7114
  279MOL0     H37647   9.441   7.555   2.496 -0.4331 -0.8438 -1.1643
  279MOL0     H37648   9.204   7.498   2.472  0.4793 -1.2928 -0.9484
  279MOL0     H37649   8.014   7.067   0.983 -0.7844  1.8065  0.7723
  279MOL0     H37650   7.859   6.972   0.837  1.4695 -0.6106 -0.4851
  279MOL0     H37651   7.738   6.549   0.678  0.7505 -0.6071  0.7925
  279MOL0     H37652   7.595   6.418   0.529 -2.5578  0.1114 -1.0318
  279MOL0     H37653   7.442   6.267   0.435 -0.2105 -0.6232 -3.2727
  279MOL0     H37654   7.419   6.445   0.397 -0.2699  0.9564  3.3738
  279MOL0     H37655   7.301   6.325   0.249 -0.8423  0.6560  1.0532
  279MOL0     H37656   7.174   6.358   0.369 -0.7194 -0.9035  0.6618
  279MOL0     H37657   7.200   6.129   0.472 -0.1950 -3.3330  0.5229
  279MOL0     H37658   7.316   6.092   0.350  0.4042  1.6028 -0.4819
  279MOL0     H37659   7.139   6.087   0.174  1.0536 -5.3434 -0.3198
  279MOL0     H37660   7.106   5.988   0.297 -4.4507 -0.7205 -0.7328
  279MOL0     H37661   6.786   6.267   0.354 -0.4822 -1.0015 -0.3216
  279MOL0     H37662   7.256   6.519   0.776 -0.4204 -1.6606 -2.0303
  279MOL0     H37663   7.284   6.639   0.973  0.3861 -1.2852  2.8776
  279MOL0     H37664   7.442   6.666   1.043  0.0208  0.6357 -1.3437
  279MOL0     H37665   7.369   6.783   0.930 -0.6411 -0.4859 -1.8867
  280MOL0     O37666   8.268  10.030   0.248  0.2362  0.2073 -0.1281
  280MOL0     C37667   8.375  10.081   0.222 -1.5235  0.6476 -0.0789
  280MOL0     O37668   8.396  10.192   0.160  0.3175 -0.5449 -0.1634
  280MOL0     C37669   8.312  10.224   0.053 -0.6478  0.3710 -0.3433
  280MOL0     C37670   8.270  10.128  -0.042  0.3233  0.7574  0.0829
  280MOL0     C37671   8.181  10.162  -0.141  0.2645  0.4476 -0.6861
  280MOL0     C37672   8.128  10.287  -0.150  1.2099 -0.2350 -0.0303
  280MOL0     O37673   8.042  10.311  -0.257  0.3514  0.1514  0.0291
  280MOL0     C37674   7.901  10.306  -0.220 -0.7333  0.0017  0.4626
  280MOL0     C37675   7.813  10.327  -0.344  0.2651 -0.9733  0.6226
  280MOL0     C37676   7.774  10.471  -0.381  0.3699  0.0417  0.7707
  280MOL0     C37677   7.796  10.504  -0.539 -0.5464  0.3096  0.0801
  280MOL0     C37678   7.711  10.622  -0.582  0.2945  0.6038  0.5297
  280MOL0     C37679   7.753  10.743  -0.505  0.3166  0.5048 -0.5628
  280MOL0     C37680   7.667  10.863  -0.545 -1.0350 -0.7835 -0.3665
  280MOL0     C37681   7.697  10.992  -0.456 -0.9645 -0.4872 -0.5142
  280MOL0     N37682   7.629  11.110  -0.507 -0.1420  0.0914 -0.5969
  280MOL0     C37683   7.533  11.181  -0.428 -0.3562  0.2981 -0.1403
  280MOL0     C37684   7.531  11.305  -0.495  0.4763  0.3542 -0.7420
  280MOL0     C37685   7.439  11.417  -0.452  0.2455 -0.7094 -0.1411
  280MOL0     C37686   7.496  11.520  -0.361  0.6388 -0.6304  0.2335
  280MOL0     C37687   7.389  11.610  -0.292  0.3682 -0.4116 -0.0279
  280MOL0     C37688   7.447  11.733  -0.217 -0.2731 -0.3860 -0.9671
  280MOL0     O37689   7.517  11.821  -0.301 -0.3494 -0.2549  0.3892
  280MOL0     C37690   7.599  11.913  -0.228 -0.4355  0.1434  0.7805
  280MOL0     C37691   7.603  11.937  -0.087  0.1398  0.7942 -0.0175
  280MOL0     C37692   7.676  12.038  -0.025 -1.2218 -0.1668 -0.3125
  280MOL0     C37693   7.778  12.104  -0.101  0.9786 -0.0969  0.7125
  280MOL0     C37694   7.869  12.191  -0.021 -1.2583  0.7101 -0.6277
  280MOL0     O37695   7.975  12.238  -0.085 -0.2072 -0.1392 -0.0723
  280MOL0     C37696   8.052  12.338  -0.038  0.2629  0.3370  0.0766
  280MOL0     C37697   8.057  12.455  -0.114 -0.5450 -1.0295  0.3756
  280MOL0     C37698   8.158  12.545  -0.081  0.0265  0.3724 -0.2878
  280MOL0     C37699   8.244  12.527   0.021  0.0810  0.3742 -0.4673
  280MOL0     O37700   8.338  12.623   0.038  0.6437  0.1968 -0.0249
  280MOL0     C37701   8.393  12.640   0.166  0.1771  0.0273  0.2331
  280MOL0     C37702   8.538  12.577   0.170 -0.1235  0.8007  1.3249
  280MOL0     C37703   8.660  12.656   0.108 -1.2726  0.3074  0.3896
  280MOL0     C37704   8.789  12.572   0.106  0.3539 -0.4132 -0.2435
  280MOL0     C37705   8.912  12.663   0.100  0.8731 -0.1051  1.1973
  280MOL0     C37706   9.051  12.595   0.119 -0.5830  0.6861  0.2848
  280MOL0     C37707   9.158  12.697   0.136  0.2664 -0.9068  0.2396
  280MOL0     C37708   9.234  12.731   0.012 -1.1414 -0.2121 -0.3000
  280MOL0    Cl37709   9.322  12.888   0.049  0.1324  0.3982  0.6031
  280MOL0     C37710   8.246  12.408   0.101  0.0691  0.1955  0.4987
  280MOL0     C37711   8.146  12.309   0.065  0.6250 -0.2362  0.7478
  280MOL0     O37712   7.833  12.225   0.093  0.4077 -0.0366  0.8176
  280MOL0     C37713   7.775  12.095  -0.245 -0.5418  0.3036 -0.9550
  280MOL0     C37714   7.680  12.004  -0.306 -0.2523  0.4385  0.8178
  280MOL0     N37715   7.624  11.308  -0.586 -0.0655 -0.4803  0.8425
  280MOL0     N37716   7.687  11.202  -0.589 -0.2588 -0.5753  0.4383
  280MOL0     C37717   8.173  10.392  -0.067  1.1315  0.0392 -0.4667
  280MOL0     C37718   8.265  10.355   0.038  0.0418 -0.1945  0.4718
  280MOL0     C37719   8.502  10.006   0.264  0.4906  1.1918  0.4066
  280MOL0     C37720   8.595   9.980   0.164  0.7482  0.1286  0.2791
  280MOL0     C37721   8.711   9.910   0.188  1.0806  1.1359 -0.2797
  280MOL0     C37722   8.729   9.836   0.310 -0.1292 -1.6815  0.4982
  280MOL0     O37723   8.838   9.750   0.322  0.4671  0.0981  0.0015
  280MOL0     C37724   8.838   9.647   0.424 -0.8298  0.1525  0.0085
  280MOL0     C37725   8.967   9.566   0.413 -0.1029  0.4648  0.6273
  280MOL0     C37726   9.015   9.531   0.261 -0.8797  0.1581  0.1673
  280MOL0     C37727   9.126   9.434   0.254 -0.4544 -0.6739  0.9245
  280MOL0     C37728   9.241   9.485   0.325 -0.2233 -0.4417 -0.7967
  280MOL0     C37729   9.320   9.544   0.385  0.5738 -0.5859 -0.3743
  280MOL0     C37730   8.646   9.868   0.416 -0.3650 -0.4217 -0.7058
  280MOL0     C37731   8.535   9.950   0.391  0.2273 -0.1533 -0.3222
  280MOL0     C37732   8.446   9.984   0.514 -0.0964  0.6337  0.6414
  280MOL0     H37733   8.297  10.023  -0.035 -1.1520 -0.0984 -4.3486
  280MOL0     H37734   8.142  10.076  -0.194 -2.3529 -2.8872  5.6342
  280MOL0     H37735   7.888  10.206  -0.177 -2.3661 -2.1936 -4.3719
  280MOL0     H37736   7.871  10.375  -0.141  1.3453  1.4451  0.0638
  280MOL0     H37737   7.722  10.271  -0.319  0.5381 -1.7477 -0.0839
  280MOL0     H37738   7.864  10.287  -0.432  0.1577  0.6416 -0.2146
  280MOL0     H37739   7.843  10.533  -0.323  1.3522  0.2344 -0.5387
  280MOL0     H37740   7.669  10.487  -0.358  0.2741 -0.1253  0.4639
  280MOL0     H37741   7.901  10.526  -0.558 -0.3025 -0.8477  0.0106
  280MOL0     H37742   7.770  10.416  -0.599  2.3236  0.2186 -1.2010
  280MOL0     H37743   7.728  10.644  -0.688 -1.7296 -0.9306 -0.1773
  280MOL0     H37744   7.605  10.601  -0.563 -0.0500  1.7743  0.0048
  280MOL0     H37745   7.732  10.738  -0.398  1.5697  2.0479 -0.2049
  280MOL0     H37746   7.857  10.768  -0.529  0.1811  0.1679 -1.5669
  280MOL0     H37747   7.560  10.840  -0.542 -1.3784 -0.0149 -3.5581
  280MOL0     H37748   7.692  10.882  -0.650  0.0664  0.4223  0.0819
  280MOL0     H37749   7.682  10.986  -0.348  0.3426  1.7433 -0.1429
  280MOL0     H37750   7.805  11.014  -0.453 -1.1115  0.1822  0.9550
  280MOL0     H37751   7.489  11.148  -0.335  0.8358 -1.4917 -0.1476
  280MOL0     H37752   7.416  11.467  -0.547 -0.8286 -0.3230  0.3036
  280MOL0     H37753   7.349  11.376  -0.406 -0.7455  0.4451 -0.9852
  280MOL0     H37754   7.545  11.470  -0.276 -2.9011 -2.4523  1.4143
  280MOL0     H37755   7.566  11.580  -0.419  0.8185 -1.0640  0.0080
  280MOL0     H37756   7.327  11.551  -0.224 -1.2658 -0.9886 -1.8991
  280MOL0     H37757   7.331  11.654  -0.375  1.6270  0.4872 -0.4506
  280MOL0     H37758   7.503  11.691  -0.134  0.5183 -1.5210 -2.0362
  280MOL0     H37759   7.370  11.792  -0.166  2.6474  1.6116  1.5007
  280MOL0     H37760   7.550  11.878  -0.013  0.7391  3.4668  2.7695
  280MOL0     H37761   7.652  12.053   0.080  1.9450  2.5384  0.1822
  280MOL0     H37762   7.996  12.483  -0.199 -0.2652  0.5711  0.6669
  280MOL0     H37763   8.166  12.633  -0.143  3.1581  2.4628  2.6741
  280MOL0     H37764   8.398  12.749   0.175 -0.6619  0.1376 -0.5433
  280MOL0     H37765   8.329  12.594   0.241  2.6889 -2.0331  1.2587
  280MOL0     H37766   8.563  12.563   0.276  0.8500 -0.0591  1.0008
  280MOL0     H37767   8.534  12.480   0.119 -0.5559  2.2079 -1.4996
  280MOL0     H37768   8.634  12.689   0.007  0.1302 -0.8141 -0.3748
  280MOL0     H37769   8.666  12.751   0.162 -2.6036  2.4421 -2.8944
  280MOL0     H37770   8.788  12.491   0.033 -3.1895  0.9342 -1.9922
  280MOL0     H37771   8.786  12.528   0.206 -0.6608 -0.7591 -0.4103
  280MOL0     H37772   8.895  12.743   0.172 -4.1040 -0.0193  0.2929
  280MOL0     H37773   8.912  12.720   0.007  1.0080 -2.9410 -0.6620
  280MOL0     H37774   9.039  12.522   0.200  0.1737  1.1597  0.8394
  280MOL0     H37775   9.076  12.545   0.025  1.3046  0.4619  0.8608
  280MOL0     H37776   9.228  12.662   0.212  0.3234  2.8161  2.1444
  280MOL0     H37777   9.101  12.786   0.164 -1.0623 -2.0889  1.4314
  280MOL0     H37778   9.318  12.662   0.022 -1.0524  0.0449  1.0307
  280MOL0     H37779   9.184  12.724  -0.085 -0.2509  0.9614 -0.8757
  280MOL0     H37780   8.323  12.374   0.170 -0.1788  1.0450  1.2218
  280MOL0     H37781   8.152  12.214   0.117 -0.1667  0.1893  1.6292
  280MOL0     H37782   7.836  12.151  -0.315  0.3136  1.1743  0.4324
  280MOL0     H37783   7.665  12.010  -0.413 -0.2317  4.0136  0.8999
  280MOL0     H37784   8.133  10.493  -0.066 -2.8206 -1.2138  3.7646
  280MOL0     H37785   8.288  10.436   0.106  1.1854 -1.4528  1.6315
  280MOL0     H37786   8.579  10.032   0.070  2.1456 -0.2714 -0.2011
  280MOL0     H37787   8.790   9.890   0.116  1.9476 -0.2576  0.9826
  280MOL0     H37788   8.748   9.584   0.413 -1.3961  0.8620  0.5009
  280MOL0     H37789   8.834   9.711   0.512  2.8409 -0.6119  0.8532
  280MOL0     H37790   8.973   9.473   0.471  3.1526  1.0141  1.3580
  280MOL0     H37791   9.041   9.634   0.456  1.2909  0.0809 -1.0195
  280MOL0     H37792   9.053   9.625   0.222  0.9006  1.3596  4.2852
  280MOL0     H37793   8.926   9.494   0.209  0.4532 -1.7570 -0.8945
  280MOL0     H37794   9.090   9.340   0.298  0.3970 -1.4935 -0.0793
  280MOL0     H37795   9.157   9.423   0.150  0.1493  1.6873  0.7910
  280MOL0     H37796   9.370   9.590   0.468 -0.1135  0.5464 -0.5537
  280MOL0     H37797   8.663   9.829   0.515  3.1187 -1.4323 -1.5667
  280MOL0     H37798   8.464   9.900   0.581  1.3105  1.0054  0.7593
  280MOL0     H37799   8.473  10.083   0.552 -1.1965  0.8362  0.9504
  280MOL0     H37800   8.339   9.989   0.492 -0.4133  0.6523  2.1140
  281MOL0     O37801   5.645   8.889   7.456  0.0245  0.1465 -0.4740
  281MOL0     C37802   5.705   8.839   7.554 -0.4965 -0.8900 -0.3246
  281MOL0     O37803   5.836   8.869   7.594  0.9300 -0.3574 -0.3687
  281MOL0     C37804   5.898   8.977   7.559  0.8600  0.0567 -0.0052
  281MOL0     C37805   5.843   9.108   7.568 -0.4413 -0.3701 -0.3085
  281MOL0     C37806   5.927   9.220   7.558 -0.1238 -0.6079  0.3376
  281MOL0     C37807   6.058   9.208   7.506  1.0026 -0.0456 -0.6516
  281MOL0     O37808   6.138   9.316   7.496 -0.7558 -0.2894  0.6282
  281MOL0     C37809   6.159   9.408   7.605  0.3343  0.2120  0.0733
  281MOL0     C37810   6.234   9.323   7.706  0.3665 -0.9979 -0.8370
  281MOL0     C37811   6.316   9.404   7.817  0.3042 -0.4591 -0.5128
  281MOL0     C37812   6.238   9.500   7.904  0.0886  0.4070 -0.3170
  281MOL0     C37813   6.320   9.596   7.990 -0.6176  0.0547 -0.3759
  281MOL0     C37814   6.408   9.521   8.097 -0.0321 -1.0225  0.2782
  281MOL0     C37815   6.556   9.572   8.092  0.0223 -0.2323  0.3140
  281MOL0     C37816   6.573   9.719   8.140  0.3568 -0.1148  0.8694
  281MOL0     N37817   6.537   9.741   8.277 -0.3633  0.5244 -0.3138
  281MOL0     C37818   6.629   9.759   8.377  0.8550 -0.0792 -0.3892
  281MOL0     C37819   6.553   9.806   8.481  0.2471  0.0586 -1.0727
  281MOL0     C37820   6.607   9.836   8.615  0.8125  0.2899  0.2801
  281MOL0     C37821   6.709   9.952   8.607 -1.2537 -0.2252 -0.6672
  281MOL0     C37822   6.857   9.913   8.568  0.0734  0.1202 -0.2674
  281MOL0     C37823   6.967   9.995   8.642  0.7628 -0.4860  0.3484
  281MOL0     O37824   6.963  10.135   8.618 -0.2686  0.2552  1.0408
  281MOL0     C37825   7.084  10.206   8.629  0.2414 -0.0522 -0.1806
  281MOL0     C37826   7.199  10.166   8.713  0.2353  0.5584  0.4257
  281MOL0     C37827   7.305  10.251   8.700 -0.4266  0.4134 -0.4146
  281MOL0     C37828   7.305  10.376   8.637  0.4709  0.3467  0.7119
  281MOL0     C37829   7.424  10.469   8.626  0.6453 -0.0357  0.8138
  281MOL0     O37830   7.407  10.587   8.564  0.2181 -0.2348 -0.3767
  281MOL0     C37831   7.528  10.661   8.545  1.2636  1.1808  0.1866
  281MOL0     C37832   7.598  10.644   8.427 -0.5517 -0.3751 -0.7883
  281MOL0     C37833   7.723  10.711   8.410  0.9158  0.6858 -0.8382
  281MOL0     C37834   7.773  10.785   8.516 -0.9142 -1.1720 -0.4082
  281MOL0     O37835   7.904  10.833   8.491 -0.4114 -0.2533 -0.1776
  281MOL0     C37836   7.977  10.910   8.590  0.2743 -0.4419 -0.4834
  281MOL0     C37837   8.122  10.912   8.569 -0.9036  0.1367  0.3719
  281MOL0     C37838   8.206  10.783   8.608  0.4247 -0.4425  0.1802
  281MOL0     C37839   8.201  10.755   8.756  0.7139 -0.1386 -0.6489
  281MOL0     C37840   8.294  10.632   8.792 -0.4552 -0.1717  1.2146
  281MOL0     C37841   8.234  10.574   8.917  0.1147  1.2353 -1.0100
  281MOL0     C37842   8.336  10.485   9.002  0.1762  0.1006  0.6597
  281MOL0     C37843   8.285  10.441   9.132 -0.3694 -0.2416  0.4426
  281MOL0    Cl37844   8.421  10.339   9.204  0.3319  0.0809  0.0439
  281MOL0     C37845   7.692  10.812   8.626  0.4207 -1.0489  0.0941
  281MOL0     C37846   7.573  10.752   8.647 -0.0003 -0.0009  0.6509
  281MOL0     O37847   7.530  10.426   8.666  0.3043 -0.2514 -0.1155
  281MOL0     C37848   7.187  10.412   8.575 -0.0155  0.2984  0.8887
  281MOL0     C37849   7.077  10.322   8.569  0.3407 -0.3907 -0.0527
  281MOL0     N37850   6.419   9.815   8.444  0.3271  0.7080 -0.4302
  281MOL0     N37851   6.412   9.781   8.320 -0.5477 -0.1406 -0.5734
  281MOL0     C37852   6.102   9.081   7.484 -0.9115 -0.0523  0.1557
  281MOL0     C37853   6.026   8.968   7.499  0.5017  0.2431  0.2718
  281MOL0     C37854   5.619   8.754   7.646  0.3781  0.6266 -0.3796
  281MOL0     C37855   5.694   8.656   7.712 -0.9160  0.6487  0.2172
  281MOL0     C37856   5.630   8.557   7.792 -0.3826  0.2675 -0.4415
  281MOL0     C37857   5.496   8.567   7.818  0.2930  0.2459 -0.4463
  281MOL0     O37858   5.422   8.474   7.889  0.1877 -0.2411  0.2000
  281MOL0     C37859   5.496   8.379   7.972  0.7351  0.7831  0.4005
  281MOL0     C37860   5.573   8.444   8.089  0.4834 -0.1879  0.5715
  281MOL0     C37861   5.490   8.437   8.213 -0.4949  0.1919  0.5134
  281MOL0     C37862   5.573   8.468   8.334  0.4319 -0.2727 -0.1546
  281MOL0     C37863   5.479   8.468   8.449 -0.4454  1.3140 -0.1483
  281MOL0     C37864   5.408   8.460   8.545  0.4436  0.5595 -0.6163
  281MOL0     C37865   5.425   8.671   7.756  0.1065 -0.6765 -0.5980
  281MOL0     C37866   5.483   8.771   7.674 -0.0493  0.8023  0.1760
  281MOL0     C37867   5.388   8.881   7.626 -0.5209  0.4125 -0.2037
  281MOL0     H37868   5.740   9.125   7.595 -1.1317 -2.8324 -1.0706
  281MOL0     H37869   5.886   9.319   7.571  0.6211 -0.3541  0.8350
  281MOL0     H37870   6.215   9.498   7.578 -1.3285  0.6561 -2.1781
  281MOL0     H37871   6.059   9.445   7.632 -0.3821  1.5074 -3.7467
  281MOL0     H37872   6.307   9.261   7.654 -0.0585 -1.5963 -0.7279
  281MOL0     H37873   6.158   9.267   7.762 -3.5102  4.7953  0.6280
  281MOL0     H37874   6.406   9.447   7.770 -0.1866 -0.3513 -1.3755
  281MOL0     H37875   6.358   9.335   7.890 -1.9011 -0.9557  0.3404
  281MOL0     H37876   6.203   9.565   7.823  2.4355  0.1213 -1.6554
  281MOL0     H37877   6.154   9.455   7.958  0.8551  0.8632  1.3117
  281MOL0     H37878   6.393   9.636   7.919 -1.4429  1.6370 -0.3858
  281MOL0     H37879   6.264   9.680   8.032  0.1443  0.1483  0.4861
  281MOL0     H37880   6.376   9.545   8.198 -0.6685 -1.2022  0.1267
  281MOL0     H37881   6.399   9.413   8.085  1.1067 -1.0751 -0.2390
  281MOL0     H37882   6.603   9.567   7.993  1.1406  0.8043  0.7715
  281MOL0     H37883   6.615   9.508   8.159  1.2868  1.1266  0.5339
  281MOL0     H37884   6.676   9.757   8.139 -0.1237  1.2448  0.4250
  281MOL0     H37885   6.515   9.781   8.071 -1.0527  1.4286  3.2777
  281MOL0     H37886   6.736   9.742   8.370  0.7828  0.1618 -2.6898
  281MOL0     H37887   6.520   9.864   8.675  0.2894 -1.5240  0.4286
  281MOL0     H37888   6.663   9.752   8.658  1.4128  1.2357  1.3844
  281MOL0     H37889   6.665  10.020   8.534 -0.3373  0.9446 -0.1658
  281MOL0     H37890   6.721  10.013   8.697 -0.4491  0.8595 -1.5003
  281MOL0     H37891   6.866   9.946   8.464  0.2816 -0.5793 -0.4760
  281MOL0     H37892   6.866   9.806   8.586 -3.6397 -0.5159 -1.2998
  281MOL0     H37893   7.065   9.959   8.608  1.1817  0.7762  0.1663
  281MOL0     H37894   6.976   9.970   8.748  1.0373 -2.2979 -0.0596
  281MOL0     H37895   7.200  10.069   8.762 -0.1421  0.1470 -0.3625
  281MOL0     H37896   7.394  10.219   8.752  0.2546  0.2387 -1.6408
  281MOL0     H37897   7.569  10.576   8.346  2.3159 -0.8069 -1.5564
  281MOL0     H37898   7.784  10.690   8.323  0.8069 -2.8792 -0.2094
  281MOL0     H37899   7.943  11.014   8.596  2.0244  0.0830  1.2903
  281MOL0     H37900   7.965  10.862   8.688  2.5774  0.6861  0.4206
  281MOL0     H37901   8.149  10.941   8.467  3.9234  0.3826  1.4687
  281MOL0     H37902   8.164  10.996   8.624  0.1703  1.1704 -1.9050
  281MOL0     H37903   8.168  10.695   8.556  1.3787 -1.6630  1.4494
  281MOL0     H37904   8.306  10.802   8.569 -0.7391  3.1033 -1.4598
  281MOL0     H37905   8.099  10.735   8.789  0.8243  1.0501  0.4742
  281MOL0     H37906   8.251  10.837   8.807  0.0962 -0.0837 -0.1192
  281MOL0     H37907   8.393  10.675   8.812 -0.2350 -0.1842  0.1773
  281MOL0     H37908   8.310  10.551   8.721 -0.1606  0.1556  0.9024
  281MOL0     H37909   8.197  10.656   8.979 -2.9445  0.7119 -2.0249
  281MOL0     H37910   8.148  10.515   8.886  1.6161 -1.7106 -0.0058
  281MOL0     H37911   8.424  10.550   9.008  1.1497 -0.9651 -1.2121
  281MOL0     H37912   8.356  10.395   8.942 -1.4802  1.0893 -1.5408
  281MOL0     H37913   8.254  10.516   9.206 -0.4499 -2.0606  2.3421
  281MOL0     H37914   8.188  10.396   9.110  0.8567 -2.6820 -0.2119
  281MOL0     H37915   7.722  10.885   8.701 -2.1020 -3.3463  3.6457
  281MOL0     H37916   7.517  10.773   8.737  0.6484  0.5183  0.9406
  281MOL0     H37917   7.187  10.501   8.514 -1.0088 -0.3596 -0.1206
  281MOL0     H37918   6.986  10.332   8.512  0.6286  1.2725 -0.2785
  281MOL0     H37919   6.206   9.061   7.458 -0.8931  2.0991 -1.8174
  281MOL0     H37920   6.058   8.865   7.482 -1.0298 -0.0242 -1.4301
  281MOL0     H37921   5.802   8.648   7.707 -1.1102 -1.7213 -3.0683
  281MOL0     H37922   5.683   8.476   7.841  2.4384  1.5219 -1.1762
  281MOL0     H37923   5.558   8.303   7.923 -0.1921 -1.8717  3.1044
  281MOL0     H37924   5.420   8.315   8.017  1.9881 -0.8766  0.2673
  281MOL0     H37925   5.602   8.546   8.064  0.9540 -0.6878 -1.0710
  281MOL0     H37926   5.660   8.381   8.109  3.1415  2.8270 -0.5965
  281MOL0     H37927   5.436   8.342   8.222 -1.8976  0.8411 -0.7116
  281MOL0     H37928   5.410   8.511   8.200 -0.2877  0.0700 -1.7720
  281MOL0     H37929   5.650   8.392   8.349  0.8945 -0.4220 -2.7914
  281MOL0     H37930   5.618   8.566   8.318 -1.0438  1.0425  2.8419
  281MOL0     H37931   5.332   8.474   8.619  1.5015 -1.2207  0.8788
  281MOL0     H37932   5.319   8.683   7.776  0.4405  1.7971 -0.0204
  281MOL0     H37933   5.446   8.963   7.582 -1.2816  1.2750  0.3556
  281MOL0     H37934   5.325   8.837   7.548 -0.5332 -0.3581  0.2351
  281MOL0     H37935   5.327   8.931   7.702  2.0961  5.5789 -0.9989
  282MOL0     O37936   1.959   0.135   8.047  0.1180  0.5069  0.5572
  282MOL0     C37937   1.932   0.029   8.090 -1.1485 -0.2314 -0.0671
  282MOL0     O37938   2.006  -0.043   8.186  0.2617 -0.2032 -0.8577
  282MOL0     C37939   2.133   0.002   8.219  0.0124  0.4397 -1.3177
  282MOL0     C37940   2.149   0.116   8.289  0.5414  0.8107 -1.2893
  282MOL0     C37941   2.276   0.168   8.304 -0.2696  0.2276  1.6047
  282MOL0     C37942   2.391   0.096   8.261 -0.4466  0.1577  0.4619
  282MOL0     O37943   2.519   0.144   8.278  0.3543  0.4154 -0.0455
  282MOL0     C37944   2.551   0.113   8.413 -0.4940  1.2848 -0.6171
  282MOL0     C37945   2.695   0.162   8.444  0.2832 -1.1119 -0.2946
  282MOL0     C37946   2.708   0.313   8.407  0.2452  0.1215 -0.5945
  282MOL0     C37947   2.844   0.381   8.415 -0.2365  0.2025 -0.1055
  282MOL0     C37948   2.830   0.521   8.366  0.4701 -1.0614  0.2407
  282MOL0     C37949   2.821   0.624   8.484 -0.2007  0.2684  0.5004
  282MOL0     C37950   2.785   0.758   8.424 -0.8061  0.1333  0.0833
  282MOL0     C37951   2.791   0.874   8.518  0.4424  0.0406 -0.3863
  282MOL0     N37952   2.764   0.997   8.460 -0.9476 -0.6629  1.0115
  282MOL0     C37953   2.671   1.083   8.504  0.2742 -0.3694 -0.6911
  282MOL0     C37954   2.650   1.175   8.407 -0.1234  0.0254  0.0081
  282MOL0     C37955   2.567   1.300   8.415 -0.3960  0.1759 -0.3658
  282MOL0     C37956   2.437   1.262   8.352  0.4074 -1.4424 -0.4007
  282MOL0     C37957   2.325   1.373   8.381 -0.5055  0.7719  0.1123
  282MOL0     C37958   2.188   1.321   8.326 -0.1493 -0.3000 -0.8594
  282MOL0     O37959   2.120   1.249   8.436 -0.5735  0.5467 -0.0969
  282MOL0     C37960   1.986   1.214   8.428 -0.1307 -0.4315 -0.0333
  282MOL0     C37961   1.936   1.146   8.535  0.6562  0.0677 -0.3120
  282MOL0     C37962   1.794   1.122   8.546  0.8074  0.9908 -0.0430
  282MOL0     C37963   1.712   1.150   8.437  0.5419  1.0407 -0.3130
  282MOL0     C37964   1.570   1.104   8.438  0.6118 -0.4674  0.2998
  282MOL0     O37965   1.527   1.023   8.539 -0.1613  0.1732  0.2423
  282MOL0     C37966   1.401   0.968   8.522 -0.0746  0.0357 -0.3505
  282MOL0     C37967   1.352   0.912   8.413 -1.0276 -0.0269 -0.0125
  282MOL0     C37968   1.221   0.855   8.413 -0.5015 -0.0839  0.3946
  282MOL0     C37969   1.141   0.854   8.527 -0.1447  0.6100 -0.1466
  282MOL0     O37970   1.023   0.781   8.520 -0.9424  0.5034 -0.2069
  282MOL0     C37971   0.906   0.839   8.581  0.1197 -0.7267 -0.5590
  282MOL0     C37972   0.786   0.746   8.551 -0.3958 -0.1638 -0.0906
  282MOL0     C37973   0.735   0.746   8.407 -0.7941 -0.1465 -1.1316
  282MOL0     C37974   0.592   0.698   8.397 -0.8693  0.0720 -0.6482
  282MOL0     C37975   0.566   0.638   8.267 -0.5982 -0.1868  0.3104
  282MOL0     C37976   0.413   0.648   8.240  0.9678  0.4496  0.5535
  282MOL0     C37977   0.384   0.578   8.100  0.7670  0.3543 -0.5740
  282MOL0     C37978   0.450   0.647   7.979 -0.3192 -0.1432 -0.6779
  282MOL0    Cl37979   0.445   0.831   7.966 -0.4801 -0.1834  0.2193
  282MOL0     C37980   1.198   0.909   8.644 -0.6749 -0.6530 -1.0680
  282MOL0     C37981   1.324   0.970   8.642 -0.0034 -0.0797  0.0356
  282MOL0     O37982   1.492   1.170   8.370  0.8375 -0.4301 -0.1095
  282MOL0     C37983   1.768   1.210   8.324 -0.2180  0.7132 -0.2701
  282MOL0     C37984   1.901   1.247   8.331  0.7326  0.1116  0.4875
  282MOL0     N37985   2.745   1.152   8.305 -0.0908  0.1381 -0.3843
  282MOL0     N37986   2.812   1.051   8.342 -0.7049  0.2909  0.1422
  282MOL0     C37987   2.378  -0.031   8.198 -0.9111 -0.1503 -0.7238
  282MOL0     C37988   2.246  -0.077   8.184  0.1295 -0.2559  0.0817
  282MOL0     C37989   1.808  -0.014   8.021 -0.7832  0.0937  0.6590
  282MOL0     C37990   1.707   0.075   7.996 -0.5477 -0.6674 -0.6074
  282MOL0     C37991   1.594   0.054   7.930 -0.2152 -0.3666 -0.1965
  282MOL0     C37992   1.572  -0.075   7.885  0.0994  0.2207 -0.3907
  282MOL0     O37993   1.450  -0.104   7.824 -0.3618 -0.2322  0.8595
  282MOL0     C37994   1.449  -0.166   7.687 -0.1514  0.0163 -0.4536
  282MOL0     C37995   1.331  -0.131   7.589 -0.1748 -0.0027 -1.6621
  282MOL0     C37996   1.196  -0.151   7.671 -0.1180  0.3466  0.2211
  282MOL0     C37997   1.079  -0.094   7.584  0.1975  0.1187 -0.9023
  282MOL0     C37998   0.960  -0.061   7.667 -0.5939 -0.2131  0.2285
  282MOL0     C37999   0.862  -0.030   7.735  0.0826 -0.5419 -0.0336
  282MOL0     C38000   1.664  -0.184   7.913 -0.8085 -0.2527 -0.1595
  282MOL0     C38001   1.790  -0.148   7.982  1.3946  0.9141 -0.4076
  282MOL0     C38002   1.881  -0.259   8.003 -0.4289  0.8952  0.4418
  282MOL0     H38003   2.060   0.168   8.323  0.2868 -0.2012 -0.3396
  282MOL0     H38004   2.298   0.257   8.361  1.2409  0.1863  1.1195
  282MOL0     H38005   2.474   0.152   8.481 -1.3780  0.3924 -1.0922
  282MOL0     H38006   2.548   0.004   8.424 -1.1642  1.4718  1.4379
  282MOL0     H38007   2.765   0.112   8.376  0.2260 -0.8163 -0.5723
  282MOL0     H38008   2.707   0.158   8.553 -4.3180 -1.2673  0.4034
  282MOL0     H38009   2.635   0.362   8.473 -0.7185 -1.0546 -0.7550
  282MOL0     H38010   2.668   0.327   8.306  2.2455  1.0043 -1.3020
  282MOL0     H38011   2.879   0.386   8.519 -0.7795 -0.0712  0.0929
  282MOL0     H38012   2.920   0.328   8.357 -0.8277  0.8654 -1.5391
  282MOL0     H38013   2.915   0.555   8.306 -0.1757  0.4503  0.1576
  282MOL0     H38014   2.739   0.526   8.306  2.3099  0.4385 -2.6753
  282MOL0     H38015   2.740   0.586   8.546  0.9347  0.1606  1.9977
  282MOL0     H38016   2.913   0.623   8.544  0.6022  0.6234 -0.6865
  282MOL0     H38017   2.690   0.762   8.370 -0.8778  2.8087  0.2763
  282MOL0     H38018   2.851   0.778   8.339 -2.2773  0.7461 -0.9640
  282MOL0     H38019   2.713   0.853   8.592 -3.6649  0.3996 -4.1643
  282MOL0     H38020   2.889   0.876   8.566  1.8921 -2.1066 -2.9444
  282MOL0     H38021   2.606   1.071   8.590  0.8137  1.4988  0.0152
  282MOL0     H38022   2.549   1.330   8.519 -1.1750  1.3752 -0.8275
  282MOL0     H38023   2.617   1.384   8.366 -2.2224  0.7791 -1.2778
  282MOL0     H38024   2.459   1.251   8.245  0.6126  0.7849 -0.6392
  282MOL0     H38025   2.416   1.163   8.393  0.4428 -2.2552 -2.2370
  282MOL0     H38026   2.355   1.462   8.324  0.6432 -1.4220 -3.0383
  282MOL0     H38027   2.307   1.409   8.483 -3.0088  2.6526 -0.8686
  282MOL0     H38028   2.206   1.264   8.234 -0.2501 -1.7555 -0.0114
  282MOL0     H38029   2.132   1.413   8.306  0.0477  0.4831  1.8308
  282MOL0     H38030   1.993   1.127   8.625 -1.3032 -0.5163  0.8732
  282MOL0     H38031   1.740   1.081   8.631 -1.2807 -5.0137 -3.6278
  282MOL0     H38032   1.413   0.887   8.326 -2.5766  0.4143 -1.2783
  282MOL0     H38033   1.197   0.802   8.321 -0.6725  0.0098  0.3840
  282MOL0     H38034   0.917   0.832   8.689 -0.8817 -0.0505 -0.4001
  282MOL0     H38035   0.885   0.941   8.548 -1.3344 -0.8281 -0.0378
  282MOL0     H38036   0.819   0.649   8.590 -1.8079 -0.1333  1.2717
  282MOL0     H38037   0.703   0.774   8.616 -0.5226 -0.2480 -0.2159
  282MOL0     H38038   0.733   0.851   8.376  1.1560  0.1800 -0.2741
  282MOL0     H38039   0.809   0.696   8.345  2.7272 -0.7738  3.1102
  282MOL0     H38040   0.524   0.780   8.421 -1.6191 -1.4196  3.0623
  282MOL0     H38041   0.576   0.621   8.474  0.7610  0.4389  0.0860
  282MOL0     H38042   0.592   0.532   8.262 -2.1942 -0.7651  2.6632
  282MOL0     H38043   0.628   0.678   8.186  2.3075 -1.3977  1.8007
  282MOL0     H38044   0.359   0.594   8.319 -0.6361 -0.8263 -1.3371
  282MOL0     H38045   0.378   0.751   8.227 -0.0875  0.2253  1.4733
  282MOL0     H38046   0.280   0.585   8.069  0.7027  0.6458 -0.2960
  282MOL0     H38047   0.418   0.474   8.102 -1.5612 -0.4303  0.9949
  282MOL0     H38048   0.549   0.600   7.975 -1.4738 -3.0325  1.2540
  282MOL0     H38049   0.400   0.605   7.892  1.7847 -1.0076 -1.5352
  282MOL0     H38050   1.150   0.894   8.740  1.3436  1.1343  0.3079
  282MOL0     H38051   1.381   1.004   8.727  4.0830 -2.5313 -1.4802
  282MOL0     H38052   1.711   1.217   8.231 -1.8942 -1.0291  0.5582
  282MOL0     H38053   1.927   1.302   8.242 -4.4561 -0.9620 -2.0495
  282MOL0     H38054   2.466  -0.083   8.164 -0.2133  0.2457  0.4218
  282MOL0     H38055   2.215  -0.167   8.132 -3.0030  0.4252  0.5490
  282MOL0     H38056   1.724   0.181   8.013 -0.2681  0.0789 -4.5114
  282MOL0     H38057   1.517   0.127   7.906  0.5401  1.0082  1.3733
  282MOL0     H38058   1.448  -0.274   7.701  0.1004 -0.1059 -1.3478
  282MOL0     H38059   1.543  -0.143   7.636  1.0798 -1.2472  1.1217
  282MOL0     H38060   1.331  -0.202   7.506  0.4193 -4.0974  1.5101
  282MOL0     H38061   1.343  -0.031   7.547  0.0601 -0.7250 -3.3972
  282MOL0     H38062   1.198  -0.091   7.763  0.5403 -1.2318  1.2676
  282MOL0     H38063   1.177  -0.257   7.685 -2.6749  0.2172 -3.0373
  282MOL0     H38064   1.118  -0.010   7.526  0.7206 -0.7633 -1.8537
  282MOL0     H38065   1.059  -0.165   7.504  0.6225 -0.1667 -0.7578
  282MOL0     H38066   0.786   0.001   7.803 -0.3019 -3.1928  0.8644
  282MOL0     H38067   1.631  -0.285   7.891  0.5223 -0.9940  1.0599
  282MOL0     H38068   1.868  -0.308   8.100 -0.0968 -0.3089 -0.1017
  282MOL0     H38069   1.874  -0.342   7.932  1.2687  0.1008  1.1312
  282MOL0     H38070   1.985  -0.225   8.007  0.0576 -0.1511 -1.9371
  283MOL0     O38071   7.084   6.793   2.121 -0.5441  0.6722  0.5574
  283MOL0     C38072   7.169   6.821   2.033  1.2157  0.8725  0.3017
  283MOL0     O38073   7.288   6.886   2.062 -0.4724  0.5810  0.6333
  283MOL0     C38074   7.303   6.909   2.201 -0.6707  0.2332  1.1507
  283MOL0     C38075   7.335   6.819   2.295 -0.1097  0.3826 -0.0490
  283MOL0     C38076   7.328   6.847   2.427  0.8634 -0.3124 -0.6452
  283MOL0     C38077   7.290   6.976   2.473 -0.3872  0.5238  0.1212
  283MOL0     O38078   7.290   7.012   2.608 -0.5132 -0.2169 -0.1633
  283MOL0     C38079   7.364   6.944   2.717  0.5119 -1.1028  0.2694
  283MOL0     C38080   7.351   7.050   2.825  0.3660  0.3021 -0.1008
  283MOL0     C38081   7.446   7.025   2.942  0.2341 -0.0632  0.6774
  283MOL0     C38082   7.594   7.038   2.914 -0.4550 -0.8283  0.1019
  283MOL0     C38083   7.675   7.068   3.035  0.2184  0.7666  0.2354
  283MOL0     C38084   7.694   6.951   3.135 -0.3081  0.3963  0.6671
  283MOL0     C38085   7.800   6.986   3.244  0.3461  0.0281  0.3926
  283MOL0     C38086   7.950   6.978   3.181 -0.3234  0.2581  0.0211
  283MOL0     N38087   8.066   6.982   3.272  0.7231 -0.4436 -0.0507
  283MOL0     C38088   8.164   7.081   3.284  0.4630  0.6152  0.1384
  283MOL0     C38089   8.266   7.027   3.356 -0.2792  0.4149  0.4162
  283MOL0     C38090   8.396   7.100   3.398  0.4824  0.2340 -0.0575
  283MOL0     C38091   8.444   7.081   3.549 -0.2712  0.5171 -0.8139
  283MOL0     C38092   8.378   7.177   3.648 -0.8290 -0.9318  0.3915
  283MOL0     C38093   8.457   7.202   3.770 -0.4396  0.0284  0.2789
  283MOL0     O38094   8.577   7.282   3.731 -0.1222  0.5096  0.2244
  283MOL0     C38095   8.690   7.271   3.805  0.6539  1.1200 -1.0221
  283MOL0     C38096   8.802   7.329   3.748  0.2089  0.9225 -0.2033
  283MOL0     C38097   8.932   7.308   3.809  1.6109 -0.2858  0.4347
  283MOL0     C38098   8.946   7.233   3.925 -0.5224  1.0394 -0.7714
  283MOL0     C38099   9.076   7.220   3.988 -0.7202  0.0258  0.8076
  283MOL0     O38100   9.186   7.295   3.935 -0.6293  0.0338  0.2264
  283MOL0     C38101   9.307   7.289   3.990  0.0893  0.4320 -0.1767
  283MOL0     C38102   9.350   7.291   4.122 -0.1417  0.4459 -0.1266
  283MOL0     C38103   9.486   7.288   4.154  0.2405  0.2406 -0.1024
  283MOL0     C38104   9.586   7.297   4.053  0.8333 -0.1125  0.1768
  283MOL0     O38105   9.722   7.325   4.078 -0.4553  0.0158  0.4870
  283MOL0     C38106   9.789   7.272   4.189  1.0626  0.4581  0.4070
  283MOL0     C38107   9.853   7.383   4.247  0.2615  0.0686  0.2537
  283MOL0     C38108   9.879   7.362   4.400  0.0363  0.3591  0.3047
  283MOL0     C38109   9.913   7.482   4.485  0.6921 -0.3333  0.2822
  283MOL0     C38110  10.043   7.559   4.444 -0.1121  0.6076  0.3068
  283MOL0     C38111  10.084   7.677   4.529  0.1526 -0.1457 -0.6699
  283MOL0     C38112  10.100   7.636   4.677 -0.6661 -0.4541  0.1821
  283MOL0     C38113  10.102   7.760   4.764 -1.2850 -0.5516 -0.2355
  283MOL0    Cl38114  10.116   7.741   4.935 -0.3904 -0.4548 -0.5593
  283MOL0     C38115   9.543   7.305   3.921 -0.2054 -0.2827 -0.5206
  283MOL0     C38116   9.406   7.303   3.892 -0.4650 -0.1667  0.6598
  283MOL0     O38117   9.082   7.153   4.084 -0.0236  0.3761 -0.5333
  283MOL0     C38118   8.829   7.182   3.984  0.4766  0.9381 -0.2713
  283MOL0     C38119   8.699   7.197   3.927 -0.0665  0.2851  0.2020
  283MOL0     N38120   8.217   6.907   3.403 -0.6560 -0.4160  0.3225
  283MOL0     N38121   8.099   6.883   3.351  0.9679 -0.1729 -0.8253
  283MOL0     C38122   7.272   7.072   2.368  0.2159 -0.4669  0.6023
  283MOL0     C38123   7.281   7.043   2.227 -0.0004  0.7849  0.0863
  283MOL0     C38124   7.139   6.800   1.887 -0.1104 -0.2424  0.3326
  283MOL0     C38125   7.217   6.866   1.791 -0.2242  0.2296 -0.3682
  283MOL0     C38126   7.186   6.856   1.657 -0.3262  0.4805  0.9516
  283MOL0     C38127   7.084   6.768   1.607  0.5344 -0.5914 -0.8774
  283MOL0     O38128   7.057   6.759   1.471  0.3374 -0.1892  0.3855
  283MOL0     C38129   7.013   6.632   1.415 -0.3805 -0.0030 -0.0282
  283MOL0     C38130   6.860   6.615   1.384 -0.0450 -0.3110  0.2795
  283MOL0     C38131   6.823   6.467   1.323 -0.7190  0.1724 -0.3956
  283MOL0     C38132   6.866   6.341   1.406  0.6181  0.5153 -0.4256
  283MOL0     C38133   6.785   6.326   1.526  0.2041 -0.6769  0.2534
  283MOL0     C38134   6.710   6.313   1.624 -0.2087 -0.4347  1.0639
  283MOL0     C38135   7.017   6.698   1.705  0.0769  0.2797  0.4935
  283MOL0     C38136   7.043   6.707   1.841 -0.4008 -0.3441 -0.4390
  283MOL0     C38137   6.965   6.616   1.930  0.3052  0.3290 -0.0891
  283MOL0     H38138   7.357   6.715   2.274  1.7141  0.5893  0.6818
  283MOL0     H38139   7.355   6.771   2.499  0.4266  2.0888  2.2554
  283MOL0     H38140   7.307   6.855   2.748 -3.6288  1.9840  2.6351
  283MOL0     H38141   7.469   6.921   2.697  0.4860 -0.9229 -0.0756
  283MOL0     H38142   7.246   7.044   2.854  0.4707 -3.3886  0.0667
  283MOL0     H38143   7.367   7.148   2.779  1.3681  0.1079 -0.1917
  283MOL0     H38144   7.416   6.930   2.988  0.1375  0.0990  0.9576
  283MOL0     H38145   7.426   7.103   3.016 -0.2477  1.3171 -0.8831
  283MOL0     H38146   7.630   6.947   2.865 -1.0679 -0.1917 -1.6017
  283MOL0     H38147   7.608   7.122   2.846  0.9022  0.0746  1.4258
  283MOL0     H38148   7.775   7.100   3.005  0.7462 -0.3183  0.7853
  283MOL0     H38149   7.628   7.150   3.090  0.8337  0.8384  0.6750
  283MOL0     H38150   7.596   6.924   3.174  0.1370  1.2346  2.4920
  283MOL0     H38151   7.724   6.867   3.071  1.3553  2.4219 -1.4061
  283MOL0     H38152   7.800   6.921   3.332  0.7776  0.5024  0.7433
  283MOL0     H38153   7.791   7.089   3.280  2.1127 -0.1414  1.3987
  283MOL0     H38154   7.946   6.884   3.125  2.7124  0.1749 -0.2104
  283MOL0     H38155   7.965   7.057   3.107  2.2064 -0.9710 -0.8791
  283MOL0     H38156   8.165   7.187   3.262  4.0719  0.3005 -2.0722
  283MOL0     H38157   8.471   7.060   3.330  1.7172  0.2657  1.2310
  283MOL0     H38158   8.374   7.206   3.384 -3.4041 -0.3091  0.5379
  283MOL0     H38159   8.425   6.977   3.579  3.4621  0.7961  3.6294
  283MOL0     H38160   8.553   7.087   3.556  0.2166 -4.6706  0.4343
  283MOL0     H38161   8.274   7.143   3.656 -1.7537  0.0588 -4.4837
  283MOL0     H38162   8.363   7.276   3.605  1.4153 -1.3692 -1.6271
  283MOL0     H38163   8.496   7.104   3.796  0.7861  0.3822 -0.1748
  283MOL0     H38164   8.397   7.241   3.853 -0.6079 -1.8929  1.1007
  283MOL0     H38165   8.786   7.382   3.654 -1.5173  0.8162  0.0030
  283MOL0     H38166   9.018   7.353   3.762  0.7010  0.3150 -0.6894
  283MOL0     H38167   9.276   7.277   4.200 -0.8146  0.6077 -0.7300
  283MOL0     H38168   9.506   7.286   4.261  1.8697  0.0664 -0.3814
  283MOL0     H38169   9.725   7.205   4.248 -1.8282 -0.1889 -3.0596
  283MOL0     H38170   9.864   7.203   4.149 -0.2570 -1.0200  0.3578
  283MOL0     H38171   9.948   7.407   4.198  0.4442 -0.1360  0.5058
  283MOL0     H38172   9.799   7.478   4.236  1.2706  0.7674  1.0762
  283MOL0     H38173   9.784   7.325   4.440  0.1082  1.4140  1.5212
  283MOL0     H38174   9.953   7.288   4.433  2.4524  2.6548  0.3014
  283MOL0     H38175   9.923   7.444   4.587 -0.0291  0.2093  0.5599
  283MOL0     H38176   9.826   7.547   4.469  0.5976 -1.1708 -3.9774
  283MOL0     H38177  10.040   7.597   4.342 -1.5453  0.2530  0.1991
  283MOL0     H38178  10.113   7.475   4.437 -0.7414  0.1305 -0.3646
  283MOL0     H38179  10.187   7.710   4.515 -0.2374  0.9775 -0.9981
  283MOL0     H38180  10.023   7.764   4.506 -2.0197 -1.3009  0.3756
  283MOL0     H38181  10.192   7.580   4.695  1.8556  3.7023  1.6859
  283MOL0     H38182  10.005   7.587   4.700  0.2984 -3.0792 -1.0292
  283MOL0     H38183  10.188   7.822   4.740 -2.1679  0.4914 -0.7993
  283MOL0     H38184  10.013   7.820   4.745  1.0100  3.1611 -0.1637
  283MOL0     H38185   9.623   7.313   3.848  0.7003  2.2657  0.6385
  283MOL0     H38186   9.390   7.293   3.785  0.5690  0.2907  0.4540
  283MOL0     H38187   8.826   7.132   4.080  0.5664 -1.1721 -1.3164
  283MOL0     H38188   8.622   7.143   3.982 -0.9202  1.1745 -0.1036
  283MOL0     H38189   7.244   7.172   2.400  0.3488  0.0688 -0.8646
  283MOL0     H38190   7.251   7.116   2.153 -1.9372  0.7203  0.7724
  283MOL0     H38191   7.310   6.909   1.827  0.6188 -0.9840 -1.0140
  283MOL0     H38192   7.250   6.906   1.585 -1.6822  0.9323  0.0222
  283MOL0     H38193   7.054   6.555   1.480 -2.0679 -0.6137  0.3607
  283MOL0     H38194   7.065   6.630   1.318 -1.5996  1.7656 -0.7743
  283MOL0     H38195   6.827   6.681   1.303 -3.6751 -1.0117  1.0240
  283MOL0     H38196   6.805   6.639   1.476  1.8521  2.8747  0.7602
  283MOL0     H38197   6.870   6.465   1.225 -0.4889 -1.5610 -0.2765
  283MOL0     H38198   6.714   6.460   1.311 -1.0842  1.9136  1.2834
  283MOL0     H38199   6.838   6.252   1.349 -0.9251  0.4346  0.3899
  283MOL0     H38200   6.973   6.342   1.427  0.9574  0.9210 -2.0468
  283MOL0     H38201   6.645   6.305   1.709 -0.5401  0.6860  0.9340
  283MOL0     H38202   6.944   6.622   1.681  1.3765 -1.4903  1.8753
  283MOL0     H38203   7.022   6.556   2.002 -0.7665  1.1055  1.4799
  283MOL0     H38204   6.896   6.683   1.982 -1.2105 -2.4593  1.7469
  283MOL0     H38205   6.913   6.536   1.877  0.0412  1.5596 -1.7749
  284MOL0     O38206   3.227   6.846   6.534  0.9067  0.2170 -0.2819
  284MOL0     C38207   3.142   6.799   6.457  0.3729 -0.2892 -0.6763
  284MOL0     O38208   3.174   6.724   6.347 -0.1594 -0.3197  0.5922
  284MOL0     C38209   3.300   6.686   6.321  0.0553 -0.2732 -0.1905
  284MOL0     C38210   3.360   6.709   6.197 -0.0149 -0.8218  0.0683
  284MOL0     C38211   3.483   6.656   6.172 -0.5296 -0.1137  0.1742
  284MOL0     C38212   3.548   6.572   6.262 -0.2568 -0.2707 -1.1502
  284MOL0     O38213   3.665   6.527   6.217  0.0682 -0.3714  0.3266
  284MOL0     C38214   3.699   6.397   6.266 -0.8119  0.3767 -0.1570
  284MOL0     C38215   3.854   6.384   6.254  0.2562  0.2203  0.3456
  284MOL0     C38216   3.893   6.349   6.113 -1.0741 -0.2635  0.5596
  284MOL0     C38217   4.058   6.345   6.103  0.6677 -0.8611 -0.4189
  284MOL0     C38218   4.101   6.289   5.969 -0.7664 -0.1733 -0.0647
  284MOL0     C38219   4.254   6.286   5.961  0.4275  0.0553 -0.0317
  284MOL0     C38220   4.325   6.412   5.914  0.6167 -0.5227  0.2888
  284MOL0     C38221   4.473   6.384   5.904 -0.0905 -0.4136 -0.7107
  284MOL0     N38222   4.537   6.494   5.832  0.4801 -0.0682  0.2350
  284MOL0     C38223   4.487   6.611   5.802  0.0378 -0.4236  0.1815
  284MOL0     C38224   4.582   6.691   5.755 -1.4242 -0.7913 -0.0868
  284MOL0     C38225   4.566   6.828   5.706 -0.0642 -0.0843  0.6935
  284MOL0     C38226   4.685   6.926   5.719 -0.2437 -0.0773 -0.0016
  284MOL0     C38227   4.640   7.070   5.720 -0.4840  0.2270 -0.2668
  284MOL0     C38228   4.755   7.175   5.745  0.2238  0.1159 -0.2414
  284MOL0     O38229   4.863   7.162   5.649  0.4139  0.1691  0.0779
  284MOL0     C38230   4.979   7.240   5.662 -0.0169  0.7993  0.0964
  284MOL0     C38231   5.076   7.229   5.566 -0.7623  0.1386 -0.0054
  284MOL0     C38232   5.192   7.308   5.563 -0.5969  0.0254 -0.3827
  284MOL0     C38233   5.211   7.403   5.662  0.2748 -0.4093  0.0805
  284MOL0     C38234   5.333   7.480   5.680 -0.6157  1.1091 -0.0994
  284MOL0     O38235   5.441   7.419   5.610  0.3893 -0.3563 -0.9172
  284MOL0     C38236   5.558   7.490   5.597  0.0092  0.2591  0.1569
  284MOL0     C38237   5.682   7.415   5.619  0.0471 -1.1300  0.1249
  284MOL0     C38238   5.801   7.482   5.585 -0.3311  0.4360 -0.9583
  284MOL0     C38239   5.804   7.606   5.526 -0.4328  0.0628 -0.4685
  284MOL0     O38240   5.923   7.664   5.490 -0.8594  0.0855  0.4985
  284MOL0     C38241   5.925   7.738   5.366  0.0191 -0.1776  0.5343
  284MOL0     C38242   6.070   7.749   5.326 -0.8311 -0.7417  0.4090
  284MOL0     C38243   6.151   7.829   5.426 -0.7483 -0.4398 -0.7931
  284MOL0     C38244   6.197   7.964   5.375 -0.4062 -0.2152  0.5714
  284MOL0     C38245   6.292   8.019   5.480 -0.8553  0.2238 -0.8504
  284MOL0     C38246   6.340   8.169   5.462 -0.1688  0.9460  0.6698
  284MOL0     C38247   6.258   8.264   5.553  0.0458 -0.2976 -0.3305
  284MOL0     C38248   6.315   8.400   5.515 -0.3359 -0.2233  0.4667
  284MOL0    Cl38249   6.497   8.412   5.529  0.0414  0.0230 -0.2026
  284MOL0     C38250   5.680   7.675   5.515 -0.7527  0.4994 -0.5661
  284MOL0     C38251   5.556   7.625   5.558 -0.9507  0.9220  0.3644
  284MOL0     O38252   5.335   7.585   5.745 -0.3268 -0.1575 -0.7343
  284MOL0     C38253   5.108   7.433   5.751  0.0455  0.8198 -0.4481
  284MOL0     C38254   4.993   7.349   5.755  0.0210 -0.3190  0.3759
  284MOL0     N38255   4.706   6.620   5.747  0.6597  0.8381 -0.3755
  284MOL0     N38256   4.672   6.507   5.806  0.4305 -0.5492 -0.2519
  284MOL0     C38257   3.489   6.556   6.390  0.2946 -0.3671  0.5155
  284MOL0     C38258   3.368   6.616   6.421  0.4775  1.2206  0.1235
  284MOL0     C38259   2.999   6.842   6.485 -0.0849 -0.2836 -0.5172
  284MOL0     C38260   2.965   6.859   6.624  0.0048 -0.0571  0.4777
  284MOL0     C38261   2.841   6.888   6.666  0.2661 -0.6520 -0.0024
  284MOL0     C38262   2.739   6.911   6.564  0.6817 -0.4254 -0.5608
  284MOL0     O38263   2.604   6.953   6.593 -0.3890 -0.0635  0.0656
  284MOL0     C38264   2.583   7.015   6.723  0.7906 -0.1441  0.1428
  284MOL0     C38265   2.448   7.080   6.736  0.7361  1.4987  0.3372
  284MOL0     C38266   2.338   6.966   6.730 -0.4673  0.0587  0.0150
  284MOL0     C38267   2.195   7.008   6.739 -0.1735 -0.1108 -0.1265
  284MOL0     C38268   2.165   7.097   6.856  0.8373 -0.3509 -0.5322
  284MOL0     C38269   2.132   7.158   6.957  0.1950 -0.6808 -1.1000
  284MOL0     C38270   2.769   6.879   6.430 -0.3583  0.0706  0.9022
  284MOL0     C38271   2.893   6.847   6.389 -0.6078  0.1604 -1.2287
  284MOL0     C38272   2.917   6.831   6.237 -0.6421  0.4616 -0.0434
  284MOL0     H38273   3.295   6.760   6.127  0.1199  0.2644  0.7096
  284MOL0     H38274   3.534   6.674   6.078 -2.1316  0.5042 -0.6121
  284MOL0     H38275   3.676   6.389   6.373  1.4482  0.1115  0.3499
  284MOL0     H38276   3.652   6.322   6.203  0.6653  0.9463 -2.0211
  284MOL0     H38277   3.877   6.302   6.323 -0.2070  0.0148  0.2631
  284MOL0     H38278   3.898   6.482   6.273  3.2182 -1.1393  1.1060
  284MOL0     H38279   3.855   6.422   6.040 -1.4667 -1.1152 -0.1104
  284MOL0     H38280   3.855   6.249   6.093  0.5332 -1.5185  3.2127
  284MOL0     H38281   4.096   6.447   6.113  0.8928 -1.0724  1.1767
  284MOL0     H38282   4.098   6.294   6.191  0.5060  0.5890  0.5337
  284MOL0     H38283   4.056   6.191   5.954 -0.8278 -0.5526  2.2201
  284MOL0     H38284   4.052   6.347   5.890 -0.0148 -0.5530 -0.8218
  284MOL0     H38285   4.296   6.256   6.057 -0.2211  0.4584  0.3924
  284MOL0     H38286   4.272   6.214   5.881  1.0749  1.0401 -0.8019
  284MOL0     H38287   4.309   6.498   5.979  1.5865 -1.6627  2.1410
  284MOL0     H38288   4.296   6.437   5.812 -0.5819 -0.6124  0.5937
  284MOL0     H38289   4.517   6.380   6.004 -0.7178 -2.0672 -0.4694
  284MOL0     H38290   4.496   6.294   5.846  0.5133 -0.2859 -0.6736
  284MOL0     H38291   4.385   6.647   5.808 -0.4950 -1.5473 -1.4094
  284MOL0     H38292   4.545   6.814   5.599  0.1414  4.2361 -0.0832
  284MOL0     H38293   4.479   6.877   5.751  0.5785  2.2054 -0.3954
  284MOL0     H38294   4.744   6.901   5.808  1.7011 -1.4009 -1.5579
  284MOL0     H38295   4.758   6.918   5.637  0.4523 -0.4397  0.6415
  284MOL0     H38296   4.568   7.080   5.801  0.6541 -1.8386  1.0875
  284MOL0     H38297   4.594   7.105   5.627 -2.3100 -2.4445 -0.4854
  284MOL0     H38298   4.801   7.156   5.843  0.5399  0.1609 -0.3796
  284MOL0     H38299   4.716   7.277   5.748  0.1510  0.0692  1.8811
  284MOL0     H38300   5.067   7.149   5.493 -3.6053 -3.1569  3.5468
  284MOL0     H38301   5.267   7.281   5.489  1.0413 -2.1728  1.8952
  284MOL0     H38302   5.683   7.312   5.653  0.9139 -1.0470  0.3628
  284MOL0     H38303   5.891   7.421   5.596 -1.5761 -1.4242 -0.5325
  284MOL0     H38304   5.862   7.692   5.289 -0.6668  0.0175  0.9695
  284MOL0     H38305   5.884   7.838   5.382  0.5129  0.3159 -1.0900
  284MOL0     H38306   6.111   7.649   5.307  0.3656 -0.4524  1.3624
  284MOL0     H38307   6.081   7.802   5.231 -2.8624 -1.7770 -0.4743
  284MOL0     H38308   6.110   7.815   5.527 -0.6463 -0.7987 -0.7988
  284MOL0     H38309   6.242   7.770   5.440 -0.2896  0.6577  1.3959
  284MOL0     H38310   6.106   8.018   5.347 -0.6432 -0.9420 -0.0991
  284MOL0     H38311   6.253   7.953   5.281  0.3793 -2.9136  1.2709
  284MOL0     H38312   6.376   7.948   5.479 -1.1824 -0.1847 -0.0945
  284MOL0     H38313   6.237   8.020   5.574  1.1118 -0.8856  0.3861
  284MOL0     H38314   6.448   8.176   5.476  0.3615 -1.6417 -1.3783
  284MOL0     H38315   6.309   8.189   5.359  1.3884 -0.4253 -0.1218
  284MOL0     H38316   6.277   8.252   5.660 -0.1286  1.6106 -0.0570
  284MOL0     H38317   6.150   8.268   5.535  0.5127  0.3826 -3.4711
  284MOL0     H38318   6.294   8.427   5.411 -2.5814 -1.7246  0.4573
  284MOL0     H38319   6.279   8.474   5.587  1.0789  0.7466  0.2171
  284MOL0     H38320   5.679   7.775   5.474 -0.6772  0.0676 -1.6442
  284MOL0     H38321   5.466   7.682   5.538 -1.0299  1.2449  1.5970
  284MOL0     H38322   5.113   7.513   5.823 -0.8819 -2.1392  3.1965
  284MOL0     H38323   4.906   7.377   5.815 -0.0025 -0.1059  0.2428
  284MOL0     H38324   3.546   6.514   6.472  1.6407  2.2847  1.0701
  284MOL0     H38325   3.322   6.594   6.517 -0.6467  1.3753 -0.3580
  284MOL0     H38326   3.028   6.847   6.712 -2.6828  2.9968  3.0596
  284MOL0     H38327   2.820   6.900   6.771 -1.5609 -4.9775  0.3082
  284MOL0     H38328   2.661   7.088   6.743  1.7007 -1.2305  0.7077
  284MOL0     H38329   2.600   6.935   6.797  0.4202 -1.0945 -0.7716
  284MOL0     H38330   2.434   7.148   6.652  0.2522 -1.3238 -2.0273
  284MOL0     H38331   2.445   7.136   6.830  0.0814  2.8149 -0.4492
  284MOL0     H38332   2.362   6.900   6.814  4.8093 -0.2983 -1.3948
  284MOL0     H38333   2.352   6.910   6.637 -0.3836  0.3043 -0.1212
  284MOL0     H38334   2.162   7.046   6.642 -0.4228  0.6476  0.2517
  284MOL0     H38335   2.121   6.928   6.749 -0.7796  0.3696 -0.6597
  284MOL0     H38336   2.128   7.215   7.047  1.0776  0.3184 -1.6770
  284MOL0     H38337   2.691   6.879   6.354  0.3734 -2.9772  0.0287
  284MOL0     H38338   2.820   6.844   6.188  0.7633  4.7319 -2.1983
  284MOL0     H38339   2.981   6.909   6.194  0.6659  0.1100  1.1655
  284MOL0     H38340   2.959   6.734   6.211  0.4352 -0.1098  3.2626
  285MOL0     O38341   1.736   7.668   1.095 -0.0119  0.1101  0.4447
  285MOL0     C38342   1.634   7.661   1.021 -0.3634  0.1622 -0.0039
  285MOL0     O38343   1.640   7.657   0.881 -0.1013 -0.5207 -0.1207
  285MOL0     C38344   1.765   7.636   0.831  0.3870  1.0192  0.0125
  285MOL0     C38345   1.824   7.736   0.749  0.9073  0.2897 -0.5280
  285MOL0     C38346   1.942   7.719   0.683 -0.8889 -0.3748 -0.7264
  285MOL0     C38347   2.005   7.591   0.692 -0.0674  0.1319 -0.3479
  285MOL0     O38348   2.125   7.572   0.633 -0.0761 -0.1418 -0.1213
  285MOL0     C38349   2.230   7.528   0.727 -0.6976  0.1556 -0.6008
  285MOL0     C38350   2.320   7.647   0.760  0.5458 -0.4693  1.1634
  285MOL0     C38351   2.383   7.722   0.647  0.4638  1.1177  1.1122
  285MOL0     C38352   2.498   7.820   0.680 -0.4131  0.6655  0.6321
  285MOL0     C38353   2.623   7.754   0.734 -0.5698 -0.2451 -0.2475
  285MOL0     C38354   2.736   7.854   0.764 -0.0842  0.0421 -0.1503
  285MOL0     C38355   2.826   7.898   0.648 -0.2711 -0.1311  0.3245
  285MOL0     C38356   2.933   8.003   0.670  0.1247  0.2716 -0.1371
  285MOL0     N38357   3.002   8.026   0.544 -0.1322 -0.3301 -0.3431
  285MOL0     C38358   3.083   8.130   0.514 -0.0197 -0.2022 -0.3393
  285MOL0     C38359   3.132   8.120   0.398  0.0284  1.6445  0.2968
  285MOL0     C38360   3.236   8.212   0.335  0.2223  0.1753  0.2492
  285MOL0     C38361   3.372   8.178   0.384 -0.2259 -0.0032  0.1160
  285MOL0     C38362   3.484   8.224   0.308 -0.6358 -0.4173 -0.0516
  285MOL0     C38363   3.617   8.184   0.376 -0.1429  0.7506 -0.6256
  285MOL0     O38364   3.701   8.171   0.262  0.3889 -0.7781  0.2270
  285MOL0     C38365   3.834   8.167   0.289  0.5668  0.4900  0.1941
  285MOL0     C38366   3.894   8.111   0.405 -0.9483 -0.4674 -0.2910
  285MOL0     C38367   4.034   8.118   0.423 -0.1107  0.3883 -0.8587
  285MOL0     C38368   4.117   8.190   0.323  0.4790 -0.2492  1.0034
  285MOL0     C38369   4.260   8.180   0.333 -0.3271 -1.2316 -0.1708
  285MOL0     O38370   4.330   8.253   0.236 -0.4496  0.2372 -0.6546
  285MOL0     C38371   4.468   8.236   0.239  0.1527  0.0693  0.5938
  285MOL0     C38372   4.511   8.110   0.194 -0.5563  0.2651 -0.1968
  285MOL0     C38373   4.655   8.093   0.186  0.7389  0.1348 -0.1204
  285MOL0     C38374   4.746   8.186   0.228  0.5968  0.4140 -0.0101
  285MOL0     O38375   4.877   8.172   0.223 -0.5396  1.1710  0.5213
  285MOL0     C38376   4.924   8.136   0.089 -0.2566  0.0608 -0.9417
  285MOL0     C38377   4.916   8.253  -0.005  1.2686 -0.3021 -0.0145
  285MOL0     C38378   4.966   8.230  -0.148  0.2870 -0.0764  0.0046
  285MOL0     C38379   4.875   8.125  -0.222  0.1895 -0.2516 -0.0327
  285MOL0     C38380   4.911   8.111  -0.377 -0.5040 -0.0724 -0.5147
  285MOL0     C38381   5.062   8.066  -0.406 -0.9259  0.0473 -0.0314
  285MOL0     C38382   5.077   8.023  -0.554 -0.1701  0.4549  0.5560
  285MOL0     C38383   5.031   8.129  -0.648  0.2715  0.6583  0.7589
  285MOL0    Cl38384   5.158   8.249  -0.629 -0.9799 -0.0328 -0.0123
  285MOL0     C38385   4.695   8.299   0.289 -0.2087 -0.7871  0.2429
  285MOL0     C38386   4.559   8.334   0.276  0.5639 -0.2905 -0.5831
  285MOL0     O38387   4.305   8.083   0.397 -0.2002 -1.1137  0.6256
  285MOL0     C38388   4.052   8.222   0.209  0.1002  0.3638  0.9541
  285MOL0     C38389   3.915   8.210   0.187 -1.0388 -1.0573  0.2187
  285MOL0     N38390   3.067   8.009   0.347 -0.0819  0.0039 -0.5607
  285MOL0     N38391   2.980   7.955   0.428 -0.4192 -0.0860  0.4445
  285MOL0     C38392   1.937   7.487   0.767 -0.0351 -0.6732  0.3252
  285MOL0     C38393   1.821   7.509   0.837  0.3793  0.2073 -0.2783
  285MOL0     C38394   1.496   7.647   1.080 -0.3974 -0.0345  0.5510
  285MOL0     C38395   1.391   7.648   0.988 -0.2211 -0.5199  0.4659
  285MOL0     C38396   1.262   7.618   1.036 -1.3363 -1.1335  0.0324
  285MOL0     C38397   1.240   7.559   1.162 -0.0269 -0.1866  0.0537
  285MOL0     O38398   1.123   7.489   1.189  0.1049 -0.2294 -0.5911
  285MOL0     C38399   1.109   7.387   1.284 -0.2092 -0.6253  0.3567
  285MOL0     C38400   1.056   7.443   1.420  0.2304 -0.8109  0.2194
  285MOL0     C38401   1.030   7.342   1.522 -0.1550 -0.1552  0.6216
  285MOL0     C38402   1.146   7.268   1.587 -1.0572 -0.2302 -0.1061
  285MOL0     C38403   1.257   7.361   1.607 -0.1724  0.7294 -0.2928
  285MOL0     C38404   1.359   7.427   1.632  0.0129 -0.3227 -0.2202
  285MOL0     C38405   1.340   7.582   1.256 -0.1530 -0.4507  0.0704
  285MOL0     C38406   1.466   7.631   1.218  0.4872 -0.9273  0.8086
  285MOL0     C38407   1.566   7.655   1.325  0.1663  0.1600  0.0088
  285MOL0     H38408   1.769   7.828   0.730 -2.6161 -1.3877  0.6433
  285MOL0     H38409   1.979   7.802   0.624 -4.5532 -0.1193 -3.0234
  285MOL0     H38410   2.188   7.498   0.823  0.6739  1.6275  0.5035
  285MOL0     H38411   2.301   7.452   0.691 -0.3832  0.0024  0.3149
  285MOL0     H38412   2.400   7.609   0.824  0.0961 -3.0369  0.3256
  285MOL0     H38413   2.258   7.711   0.823 -1.6154 -1.2418 -0.0438
  285MOL0     H38414   2.312   7.780   0.587  1.4125  0.5242 -0.6223
  285MOL0     H38415   2.410   7.647   0.573  0.4895  1.2623  0.9751
  285MOL0     H38416   2.529   7.859   0.583 -1.2797 -1.2551 -0.4764
  285MOL0     H38417   2.470   7.911   0.734  1.5105  1.2862  0.6375
  285MOL0     H38418   2.592   7.691   0.819  1.1883 -1.9232 -0.7741
  285MOL0     H38419   2.648   7.682   0.656  1.2761 -0.2835  0.3281
  285MOL0     H38420   2.704   7.942   0.821  0.5822  0.7819 -0.8812
  285MOL0     H38421   2.808   7.813   0.836  2.5338  1.2406 -1.9002
  285MOL0     H38422   2.758   7.938   0.572 -3.0420  2.9973  4.0445
  285MOL0     H38423   2.882   7.814   0.607  1.1732 -0.1649  2.1933
  285MOL0     H38424   2.883   8.095   0.702 -1.1168  0.6439 -2.8405
  285MOL0     H38425   3.003   7.970   0.747 -1.1345  1.7301  1.7211
  285MOL0     H38426   3.115   8.206   0.585  1.1377 -1.6109  0.6949
  285MOL0     H38427   3.239   8.183   0.230  0.8788 -0.3003  0.3935
  285MOL0     H38428   3.218   8.319   0.352 -0.4570  0.2232 -0.6706
  285MOL0     H38429   3.380   8.221   0.484 -1.3626  0.9971 -0.1955
  285MOL0     H38430   3.373   8.069   0.395 -2.0916  0.0603  1.3017
  285MOL0     H38431   3.469   8.332   0.314  0.9954 -0.2480  3.0210
  285MOL0     H38432   3.489   8.186   0.205  1.9429  4.8112 -2.2034
  285MOL0     H38433   3.615   8.091   0.433 -0.7157  2.4240  2.2722
  285MOL0     H38434   3.652   8.268   0.436  2.0092  1.6587 -2.9553
  285MOL0     H38435   3.836   8.062   0.483 -2.4758 -0.3269 -1.2779
  285MOL0     H38436   4.076   8.068   0.509 -0.1921  1.0654 -0.4148
  285MOL0     H38437   4.434   8.041   0.159 -1.4901  1.5484 -0.7310
  285MOL0     H38438   4.691   8.001   0.140  0.9046 -0.0592  0.3937
  285MOL0     H38439   5.030   8.111   0.097  0.0874  1.9425  1.4607
  285MOL0     H38440   4.869   8.047   0.055 -0.5297  0.0497 -0.4779
  285MOL0     H38441   4.819   8.301  -0.014  0.2766 -2.1029  0.4690
  285MOL0     H38442   4.977   8.333   0.037 -0.0961 -0.7667  3.1376
  285MOL0     H38443   4.971   8.322  -0.208  0.9941  0.8129  1.3619
  285MOL0     H38444   5.069   8.195  -0.144 -0.0619 -1.0622  1.8021
  285MOL0     H38445   4.769   8.142  -0.204  0.5926  1.3495  1.0737
  285MOL0     H38446   4.893   8.031  -0.169 -0.4086  0.5056  1.5603
  285MOL0     H38447   4.891   8.208  -0.425  0.4282 -0.2333 -1.2625
  285MOL0     H38448   4.843   8.045  -0.432 -2.6269  2.3810 -1.0344
  285MOL0     H38449   5.120   8.153  -0.375 -2.1618  0.8311  0.1741
  285MOL0     H38450   5.092   7.978  -0.348 -0.9475 -0.6306 -1.0165
  285MOL0     H38451   5.031   7.925  -0.572  0.3195  0.6706 -2.4015
  285MOL0     H38452   5.180   8.014  -0.588  2.1108  6.7083  4.1660
  285MOL0     H38453   5.034   8.092  -0.750  1.7644 -4.2704  2.2962
  285MOL0     H38454   4.935   8.181  -0.634 -2.8384 -4.1123 -0.4963
  285MOL0     H38455   4.763   8.373   0.329 -2.4555  1.9948 -0.7006
  285MOL0     H38456   4.526   8.429   0.316  0.4004 -1.8853  3.5158
  285MOL0     H38457   4.110   8.256   0.124 -0.8288  0.0181  0.1581
  285MOL0     H38458   3.877   8.242   0.090 -1.1724  0.0311  0.6180
  285MOL0     H38459   1.986   7.392   0.784  0.5093 -0.1413  2.0246
  285MOL0     H38460   1.786   7.423   0.893  3.6281  0.4510  2.4407
  285MOL0     H38461   1.397   7.669   0.881  2.1213  5.6579  1.3604
  285MOL0     H38462   1.183   7.616   0.962  0.5360 -0.9968 -2.0605
  285MOL0     H38463   1.210   7.346   1.294  1.2101  1.9505 -1.9950
  285MOL0     H38464   1.032   7.319   1.246 -2.2995  2.2622 -0.9449
  285MOL0     H38465   0.960   7.489   1.396  0.3882 -1.0080 -0.8236
  285MOL0     H38466   1.115   7.524   1.462 -1.1865 -0.4482  1.6200
  285MOL0     H38467   0.972   7.266   1.470  1.1844 -1.8538  1.4593
  285MOL0     H38468   0.966   7.404   1.585 -2.1992  1.3316 -2.6586
  285MOL0     H38469   1.120   7.228   1.686 -1.6885  3.3981  1.3827
  285MOL0     H38470   1.190   7.191   1.524  4.0653  2.1954  0.0562
  285MOL0     H38471   1.443   7.490   1.656 -1.5703  3.1350 -2.7293
  285MOL0     H38472   1.321   7.563   1.361 -0.2244  0.0578  0.1549
  285MOL0     H38473   1.522   7.642   1.424  1.6818 -1.7279  0.4908
  285MOL0     H38474   1.642   7.577   1.327  0.8836  0.8475 -0.2623
  285MOL0     H38475   1.604   7.757   1.318  0.3515 -0.0046 -2.6022
  286MOL0     O38476   2.222   3.827   0.574  0.2104  0.4041 -0.1418
  286MOL0     C38477   2.213   3.852   0.694 -0.1494 -1.1800 -0.4210
  286MOL0     O38478   2.304   3.930   0.770  0.2645 -0.3942 -0.1748
  286MOL0     C38479   2.430   3.963   0.732 -1.0072  0.7585 -0.4339
  286MOL0     C38480   2.491   3.920   0.612 -0.0815  0.7178 -1.1093
  286MOL0     C38481   2.629   3.935   0.590  0.8775 -0.1281 -0.1023
  286MOL0     C38482   2.711   4.005   0.678  0.8634 -0.1704 -0.6662
  286MOL0     O38483   2.845   3.998   0.644 -0.0551  0.2771 -0.3571
  286MOL0     C38484   2.941   4.065   0.726 -1.4270 -0.2120 -0.5570
  286MOL0     C38485   3.082   4.016   0.697 -0.8233 -0.5956 -0.0482
  286MOL0     C38486   3.190   4.109   0.777  0.9438  0.0100  0.4093
  286MOL0     C38487   3.323   4.033   0.794 -1.0381 -0.8438 -1.1013
  286MOL0     C38488   3.436   4.123   0.863 -0.6657 -0.7831  0.2510
  286MOL0     C38489   3.460   4.103   1.012  0.0480  0.3282 -0.5688
  286MOL0     C38490   3.555   4.201   1.082  0.0008  0.3470  1.1304
  286MOL0     C38491   3.537   4.219   1.234 -0.7998 -0.4991 -0.1062
  286MOL0     N38492   3.611   4.320   1.291  1.1082  0.1170 -0.7105
  286MOL0     C38493   3.747   4.342   1.291  0.4917 -0.2114 -0.4109
  286MOL0     C38494   3.762   4.469   1.340 -0.7388 -0.2067 -1.0567
  286MOL0     C38495   3.888   4.552   1.362  0.4615  0.0167  0.0453
  286MOL0     C38496   3.965   4.520   1.485 -0.7228 -0.2793  0.2975
  286MOL0     C38497   4.073   4.622   1.503  0.4745 -0.4399  0.0115
  286MOL0     C38498   4.172   4.597   1.605  0.0568 -0.1399 -0.0098
  286MOL0     O38499   4.278   4.510   1.556 -0.2895  0.0597  0.4079
  286MOL0     C38500   4.394   4.484   1.627  0.8871  1.0449 -0.1425
  286MOL0     C38501   4.421   4.541   1.749  0.6197 -0.7829  1.1561
  286MOL0     C38502   4.538   4.500   1.824  0.1850  0.7141 -0.1834
  286MOL0     C38503   4.624   4.408   1.777 -0.7493  0.1516  0.9804
  286MOL0     C38504   4.750   4.370   1.858 -0.0621 -0.7850  0.1763
  286MOL0     O38505   4.760   4.407   1.986  0.0664 -0.1158  0.1672
  286MOL0     C38506   4.873   4.383   2.064  0.8836  0.2788  0.2092
  286MOL0     C38507   4.908   4.249   2.101  1.4117 -1.1509 -0.1023
  286MOL0     C38508   5.013   4.224   2.184 -0.0725  0.1355  0.3667
  286MOL0     C38509   5.093   4.330   2.227  0.1104  0.4771 -0.5102
  286MOL0     O38510   5.192   4.311   2.324 -0.8771 -0.1432 -0.2204
  286MOL0     C38511   5.204   4.189   2.404  0.8946 -0.8654 -0.9921
  286MOL0     C38512   5.296   4.087   2.337  0.0450 -0.4459 -0.6886
  286MOL0     C38513   5.419   4.155   2.282  0.7925 -0.7185  0.8094
  286MOL0     C38514   5.497   4.223   2.396  0.5280  0.1507 -0.1224
  286MOL0     C38515   5.636   4.269   2.340 -0.6410  0.8990 -0.6959
  286MOL0     C38516   5.733   4.163   2.314  0.7469  0.6598 -0.6996
  286MOL0     C38517   5.858   4.224   2.262  0.7239  0.6007  0.2232
  286MOL0     C38518   5.959   4.124   2.210 -0.0421  0.0726 -0.8633
  286MOL0    Cl38519   6.019   4.007   2.328  0.4527 -0.7369 -0.2479
  286MOL0     C38520   5.074   4.457   2.180  0.4034 -0.5764  0.7963
  286MOL0     C38521   4.960   4.488   2.109  0.2192 -0.3809  1.0015
  286MOL0     O38522   4.843   4.316   1.787 -0.2595  0.0275 -0.6441
  286MOL0     C38523   4.599   4.357   1.645 -0.1951 -0.4940  0.1571
  286MOL0     C38524   4.485   4.390   1.578  0.5457  0.1044 -0.8581
  286MOL0     N38525   3.642   4.515   1.391  0.0125 -0.0488 -0.2735
  286MOL0     N38526   3.558   4.425   1.368  0.4015 -0.1305  0.5960
  286MOL0     C38527   2.638   4.076   0.782  0.2845  0.2419 -0.6712
  286MOL0     C38528   2.507   4.044   0.814  0.4768  0.1727  0.3138
  286MOL0     C38529   2.097   3.801   0.770  0.3357  0.0087 -0.9621
  286MOL0     C38530   2.115   3.768   0.910 -0.8981  0.1710  0.4515
  286MOL0     C38531   2.005   3.722   0.990 -1.2058  0.0591 -0.1366
  286MOL0     C38532   1.887   3.689   0.926  0.0393  0.6381 -0.2396
  286MOL0     O38533   1.772   3.626   0.990  0.1966  0.3274  0.2072
  286MOL0     C38534   1.779   3.608   1.131  0.6615 -0.9915  0.9127
  286MOL0     C38535   1.658   3.516   1.173 -0.6762 -0.3723  0.3253
  286MOL0     C38536   1.659   3.499   1.322 -0.4054 -0.0538  0.9452
  286MOL0     C38537   1.549   3.415   1.389  0.0514 -1.1216 -0.7551
  286MOL0     C38538   1.429   3.499   1.408 -0.4083 -0.2168  0.3805
  286MOL0     C38539   1.333   3.573   1.421 -1.0342  0.3848  0.8108
  286MOL0     C38540   1.873   3.716   0.785  0.9361 -1.1020 -0.6808
  286MOL0     C38541   1.968   3.777   0.712  0.1261  0.9982  0.6893
  286MOL0     C38542   1.925   3.817   0.569 -0.3433 -0.0945 -0.7792
  286MOL0     H38543   2.436   3.857   0.542 -0.2936  1.4363 -1.5957
  286MOL0     H38544   2.679   3.893   0.503  1.7460  0.3247  0.1588
  286MOL0     H38545   2.935   4.173   0.711 -1.3588  0.1073  1.4874
  286MOL0     H38546   2.931   4.058   0.834  4.8573  3.0082  0.7375
  286MOL0     H38547   3.104   4.024   0.590 -0.4592  3.8783  0.2087
  286MOL0     H38548   3.101   3.918   0.742  2.2291  0.4596  1.2669
  286MOL0     H38549   3.155   4.141   0.876 -1.1981  0.5114 -0.4391
  286MOL0     H38550   3.208   4.200   0.718  0.1846  0.1711  0.4117
  286MOL0     H38551   3.302   3.952   0.864  0.9704  0.0328  0.5823
  286MOL0     H38552   3.355   3.999   0.695  1.5885  1.7756 -1.2835
  286MOL0     H38553   3.532   4.104   0.814  0.6357 -0.6103  2.5618
  286MOL0     H38554   3.410   4.229   0.851  0.8405  0.0800  3.4994
  286MOL0     H38555   3.364   4.113   1.064 -0.6088 -0.0467 -1.6609
  286MOL0     H38556   3.497   4.001   1.028 -3.5827 -1.0053  0.3052
  286MOL0     H38557   3.549   4.301   1.038  2.2318  0.2761  0.4985
  286MOL0     H38558   3.657   4.166   1.060 -0.9038 -0.7704 -1.6884
  286MOL0     H38559   3.437   4.252   1.263 -1.1613  0.5006 -2.2942
  286MOL0     H38560   3.569   4.126   1.283  2.2140  0.0319 -0.8363
  286MOL0     H38561   3.833   4.279   1.269  0.6427 -1.3695  2.9706
  286MOL0     H38562   3.947   4.545   1.270 -0.9285  1.1150 -0.9710
  286MOL0     H38563   3.859   4.656   1.369  1.4729  0.2354  1.5747
  286MOL0     H38564   3.907   4.521   1.578  0.3145 -1.1854  0.9818
  286MOL0     H38565   4.007   4.420   1.469  2.2114  0.6546  1.3685
  286MOL0     H38566   4.021   4.718   1.516 -2.0005 -1.6657 -0.3273
  286MOL0     H38567   4.126   4.629   1.408  1.1860 -1.4566  0.3192
  286MOL0     H38568   4.125   4.564   1.698  0.4878  0.4769  0.4321
  286MOL0     H38569   4.211   4.692   1.642 -0.0102 -1.1768  2.9675
  286MOL0     H38570   4.365   4.624   1.790 -2.4867 -1.8339 -0.6419
  286MOL0     H38571   4.563   4.558   1.912  0.7629 -1.2919  1.0432
  286MOL0     H38572   4.870   4.157   2.058 -1.2850 -0.2523  0.1974
  286MOL0     H38573   5.031   4.130   2.235  3.7188  0.4739 -0.0520
  286MOL0     H38574   5.248   4.214   2.501  0.2312 -0.0571 -0.8912
  286MOL0     H38575   5.104   4.149   2.423  0.5795 -0.7431 -2.3212
  286MOL0     H38576   5.325   4.001   2.399  0.5074 -1.6839 -2.5367
  286MOL0     H38577   5.246   4.037   2.254 -2.8030  0.4844  0.3647
  286MOL0     H38578   5.479   4.079   2.232 -0.2918  0.0170 -1.7920
  286MOL0     H38579   5.391   4.221   2.200  1.4348 -2.4170 -0.8522
  286MOL0     H38580   5.517   4.148   2.473  1.3308 -1.3320 -1.7229
  286MOL0     H38581   5.446   4.310   2.439  0.9149 -0.8533  2.5463
  286MOL0     H38582   5.677   4.339   2.414  3.4207  0.7801 -2.5585
  286MOL0     H38583   5.613   4.327   2.250 -0.8431 -2.9137 -3.3018
  286MOL0     H38584   5.735   4.110   2.409  1.9066  0.0802 -1.0405
  286MOL0     H38585   5.698   4.100   2.232 -0.3498  1.4908 -0.8969
  286MOL0     H38586   5.909   4.294   2.329  2.0615  0.4847 -0.6160
  286MOL0     H38587   5.822   4.280   2.175  1.7303 -0.2647 -0.7897
  286MOL0     H38588   5.932   4.066   2.121  0.4688 -1.9916  0.2515
  286MOL0     H38589   6.036   4.183   2.160  1.3074 -2.2087 -1.6322
  286MOL0     H38590   5.142   4.536   2.210  0.6042 -1.1364  1.8657
  286MOL0     H38591   4.943   4.589   2.075 -2.3657 -1.3912 -1.0904
  286MOL0     H38592   4.673   4.310   1.581  2.2456  2.5389  0.5200
  286MOL0     H38593   4.452   4.368   1.477 -2.4664 -0.6790  0.1970
  286MOL0     H38594   2.696   4.148   0.838  2.4897 -2.6616  1.1074
  286MOL0     H38595   2.458   4.098   0.894  2.4361  0.1545  1.5722
  286MOL0     H38596   2.208   3.793   0.959 -0.7193  1.7863 -0.6170
  286MOL0     H38597   2.024   3.707   1.096 -0.4701 -3.0771 -0.6134
  286MOL0     H38598   1.773   3.705   1.182 -3.4920 -1.2450  1.2452
  286MOL0     H38599   1.870   3.558   1.164  1.0404  0.7015  2.5926
  286MOL0     H38600   1.684   3.424   1.121  0.6318  1.4959 -2.6037
  286MOL0     H38601   1.569   3.564   1.130 -1.2626 -1.8139 -0.1318
  286MOL0     H38602   1.664   3.596   1.373 -2.7061 -0.5660  2.3116
  286MOL0     H38603   1.756   3.452   1.337  2.2439  3.6002 -2.6403
  286MOL0     H38604   1.544   3.321   1.333  1.1686 -1.4670 -0.2917
  286MOL0     H38605   1.586   3.385   1.487 -0.4036 -0.8083 -0.4823
  286MOL0     H38606   1.259   3.651   1.419  0.6141  2.0115 -0.0938
  286MOL0     H38607   1.769   3.699   0.760 -0.3874  1.2339  2.5814
  286MOL0     H38608   1.818   3.798   0.557 -0.7946  0.2643  1.8631
  286MOL0     H38609   1.933   3.926   0.558 -1.8811  0.7163  3.6580
  286MOL0     H38610   1.978   3.763   0.491 -2.3591 -0.3984 -2.0139
  287MOL0     O38611   8.722   0.980   8.198 -0.7523 -0.5644 -0.0092
  287MOL0     C38612   8.742   1.039   8.304 -0.3486  0.1285 -0.5170
  287MOL0     O38613   8.782   0.974   8.416 -0.3691  0.2953 -0.1454
  287MOL0     C38614   8.795   0.839   8.423 -0.8194  0.4303 -0.5329
  287MOL0     C38615   8.888   0.810   8.523  0.4323  0.8214 -0.5923
  287MOL0     C38616   8.926   0.682   8.559 -0.4198  0.5836  0.4628
  287MOL0     C38617   8.877   0.574   8.483 -0.1091 -0.2016 -0.3164
  287MOL0     O38618   8.892   0.440   8.516  1.0319 -0.2586  1.1857
  287MOL0     C38619   8.952   0.409   8.639  0.3808  0.6767 -0.2609
  287MOL0     C38620   8.848   0.396   8.754 -0.1958  0.0540  0.6976
  287MOL0     C38621   8.860   0.502   8.855  0.6167 -0.0455  0.7358
  287MOL0     C38622   8.960   0.462   8.973  0.6030 -0.3492 -0.4833
  287MOL0     C38623   8.974   0.568   9.091 -0.0371  0.2931  0.4836
  287MOL0     C38624   9.077   0.508   9.188  0.7782  0.3131 -0.0870
  287MOL0     C38625   9.094   0.592   9.316 -0.4283 -0.0465  0.8074
  287MOL0     C38626   9.193   0.527   9.409 -0.5370  0.4832 -0.7658
  287MOL0     N38627   9.332   0.550   9.365 -0.1727  0.0354 -0.4427
  287MOL0     C38628   9.403   0.666   9.374 -0.0388 -0.0110  0.1765
  287MOL0     C38629   9.530   0.620   9.345  0.4848  0.2752  0.3911
  287MOL0     C38630   9.645   0.711   9.353  0.9600  0.5231  0.3517
  287MOL0     C38631   9.781   0.641   9.365 -0.2631  0.3223 -0.2245
  287MOL0     C38632   9.771   0.567   9.501 -0.5595  0.7270 -0.2266
  287MOL0     C38633   9.917   0.533   9.557 -0.0223 -0.0082 -0.1794
  287MOL0     O38634   9.956   0.388   9.540  0.4976  0.9419 -0.0857
  287MOL0     C38635   9.921   0.290   9.626  0.5356  0.4331 -0.9755
  287MOL0     C38636   9.811   0.294   9.720 -0.0314  0.0215  0.2637
  287MOL0     C38637   9.777   0.191   9.799 -0.2467 -0.0198  0.2931
  287MOL0     C38638   9.836   0.069   9.774  0.0173  1.5964 -0.0274
  287MOL0     C38639   9.798  -0.062   9.848  0.4990 -0.5968 -0.1419
  287MOL0     O38640   9.869  -0.180   9.827  0.3281  0.3297  0.3481
  287MOL0     C38641   9.797  -0.290   9.865 -0.6506  0.9741 -0.9557
  287MOL0     C38642   9.667  -0.311   9.842 -0.6052 -0.1406  0.8951
  287MOL0     C38643   9.599  -0.428   9.897 -0.0094 -0.5822  0.1998
  287MOL0     C38644   9.673  -0.524   9.976 -1.1356 -0.2091  0.5132
  287MOL0     O38645   9.615  -0.646  10.007 -0.3206 -0.4122 -0.2836
  287MOL0     C38646   9.682  -0.737  10.111  0.2554 -0.0745 -0.1566
  287MOL0     C38647   9.582  -0.844  10.163  0.5432  0.5952  0.0342
  287MOL0     C38648   9.661  -0.937  10.257 -0.6733 -0.7415 -0.5943
  287MOL0     C38649   9.571  -1.054  10.314 -0.9200 -0.0703 -0.8411
  287MOL0     C38650   9.653  -1.162  10.380  0.4666 -0.0916 -0.6342
  287MOL0     C38651   9.595  -1.205  10.518  0.0125  0.1832  0.7421
  287MOL0     C38652   9.688  -1.313  10.568 -0.0592 -0.1228 -0.1466
  287MOL0     C38653   9.630  -1.390  10.684 -0.3479 -0.6766 -0.2119
  287MOL0    Cl38654   9.482  -1.476  10.665  0.0354  0.0969 -0.1008
  287MOL0     C38655   9.812  -0.497   9.996  0.7061  0.2692 -0.5529
  287MOL0     C38656   9.868  -0.384   9.940  0.1864 -0.3594 -0.2097
  287MOL0     O38657   9.710  -0.044   9.934  0.3586  0.3279 -0.7862
  287MOL0     C38658   9.927   0.059   9.676  0.9434  0.5670 -0.3383
  287MOL0     C38659   9.977   0.170   9.606  0.3059  0.2119  0.9974
  287MOL0     N38660   9.519   0.492   9.302  0.1449  0.0151  0.2400
  287MOL0     N38661   9.398   0.446   9.305  0.3720  0.1569  0.2361
  287MOL0     C38662   8.794   0.605   8.369 -0.3624  0.6354  0.8413
  287MOL0     C38663   8.757   0.736   8.339  0.4797 -0.4828  0.0912
  287MOL0     C38664   8.709   1.179   8.306 -0.1095 -0.4443 -0.3821
  287MOL0     C38665   8.694   1.242   8.431  0.0454 -0.5908  0.3824
  287MOL0     C38666   8.660   1.374   8.449 -0.1123 -0.8166 -0.8282
  287MOL0     C38667   8.640   1.459   8.343  0.1160  0.6991 -1.4355
  287MOL0     O38668   8.595   1.584   8.358 -0.2266 -0.3066 -0.1116
  287MOL0     C38669   8.498   1.635   8.269  0.5058 -0.6761  0.1588
  287MOL0     C38670   8.418   1.745   8.337  1.3793  0.1365 -0.2204
  287MOL0     C38671   8.311   1.818   8.246 -0.8535 -0.4113 -0.1579
  287MOL0     C38672   8.206   1.871   8.336 -0.1164  0.1102 -1.1885
  287MOL0     C38673   8.105   1.955   8.276 -0.0561 -0.5717 -0.1404
  287MOL0     C38674   8.028   2.038   8.231 -0.2205 -0.1125 -0.8600
  287MOL0     C38675   8.638   1.404   8.220  0.5494  0.4038  0.1659
  287MOL0     C38676   8.676   1.267   8.194 -0.2370 -0.4312  0.3590
  287MOL0     C38677   8.687   1.225   8.050  0.1295  0.8641  0.3272
  287MOL0     H38678   8.924   0.891   8.587  1.8404  1.0400 -1.6040
  287MOL0     H38679   8.985   0.667   8.649 -0.7899  0.6646  0.7213
  287MOL0     H38680   8.975   0.303   8.624 -1.8974 -0.0337  0.7949
  287MOL0     H38681   9.041   0.463   8.672  1.8408 -2.0664  0.5695
  287MOL0     H38682   8.872   0.301   8.802  5.3128  2.0674  2.6170
  287MOL0     H38683   8.750   0.403   8.705 -0.2782  0.6935  0.9475
  287MOL0     H38684   8.759   0.501   8.897  0.7526 -1.7286  1.0758
  287MOL0     H38685   8.885   0.601   8.817 -0.4872  0.4540  1.2616
  287MOL0     H38686   8.918   0.370   9.016 -1.7909 -0.9824 -3.8315
  287MOL0     H38687   9.057   0.437   8.929  0.5478  1.8427 -1.9811
  287MOL0     H38688   9.005   0.665   9.052  1.2747 -0.6835 -0.9678
  287MOL0     H38689   8.877   0.588   9.139  0.1845  0.6911  0.7720
  287MOL0     H38690   9.042   0.408   9.211  1.5592  0.2222  0.7461
  287MOL0     H38691   9.168   0.497   9.128  0.6363  3.4808 -1.1090
  287MOL0     H38692   8.999   0.589   9.369  0.4384 -1.9795  2.3928
  287MOL0     H38693   9.120   0.692   9.280 -1.3108 -1.4757 -4.6883
  287MOL0     H38694   9.175   0.555   9.513  0.1298 -0.4661 -0.3811
  287MOL0     H38695   9.180   0.419   9.422 -0.0516  0.6465  1.4564
  287MOL0     H38696   9.362   0.760   9.410 -2.5332 -0.5790 -0.9889
  287MOL0     H38697   9.644   0.790   9.276 -1.2804 -1.2651 -1.6256
  287MOL0     H38698   9.626   0.772   9.441 -0.7938  1.5317 -0.6750
  287MOL0     H38699   9.798   0.566   9.288 -0.3266  0.7027 -0.6136
  287MOL0     H38700   9.871   0.704   9.365 -1.8241  2.8206  2.2581
  287MOL0     H38701   9.721   0.471   9.486  0.7991  0.0198 -0.3523
  287MOL0     H38702   9.719   0.636   9.568  0.6267  1.2097  0.2236
  287MOL0     H38703   9.912   0.558   9.664 -0.8704  3.1248 -0.8277
  287MOL0     H38704  10.003   0.586   9.515  0.2937 -1.7983 -1.9274
  287MOL0     H38705   9.751   0.383   9.737  0.0293 -0.1129  1.2368
  287MOL0     H38706   9.696   0.199   9.870 -0.6033  0.0302 -0.1148
  287MOL0     H38707   9.598  -0.243   9.792 -1.4387 -0.7609  1.1727
  287MOL0     H38708   9.495  -0.446   9.874 -0.1470 -0.8699  1.0109
  287MOL0     H38709   9.763  -0.794  10.065  0.1365 -0.7507  0.4431
  287MOL0     H38710   9.729  -0.683  10.194  4.4770 -0.3312 -2.1031
  287MOL0     H38711   9.500  -0.801  10.222  2.4588 -0.1579  3.5246
  287MOL0     H38712   9.544  -0.896  10.076  2.3219 -0.0550 -0.4060
  287MOL0     H38713   9.751  -0.981  10.212 -0.2050 -1.4324  0.9538
  287MOL0     H38714   9.693  -0.874  10.341 -2.5370 -2.2890  1.3776
  287MOL0     H38715   9.487  -1.072  10.246 -1.5795 -1.8950  0.4132
  287MOL0     H38716   9.519  -1.016  10.403  0.0758  2.7364 -1.3494
  287MOL0     H38717   9.758  -1.134  10.390  1.4624 -2.9461 -1.9241
  287MOL0     H38718   9.654  -1.256  10.323 -1.7076 -1.2278  1.0402
  287MOL0     H38719   9.602  -1.118  10.585  0.3439 -0.2134  1.2334
  287MOL0     H38720   9.493  -1.244  10.510  0.6414 -1.2602 -0.5572
  287MOL0     H38721   9.783  -1.272  10.602 -0.7384 -0.8120  2.9121
  287MOL0     H38722   9.697  -1.384  10.486 -1.8074  0.5053 -0.9347
  287MOL0     H38723   9.702  -1.463  10.723 -0.1055 -0.6820 -0.6626
  287MOL0     H38724   9.607  -1.320  10.765 -2.4068 -0.1838 -1.1504
  287MOL0     H38725   9.878  -0.571  10.040 -1.8698 -1.4289  0.7256
  287MOL0     H38726   9.974  -0.373   9.963  0.2700 -1.2789 -0.1283
  287MOL0     H38727   9.961  -0.040   9.646  1.2834  0.7777 -0.6548
  287MOL0     H38728  10.057   0.162   9.534 -1.3210  4.1066 -1.5817
  287MOL0     H38729   8.764   0.518   8.311  2.5216  0.2498 -0.2022
  287MOL0     H38730   8.691   0.749   8.254 -0.4758  1.5883  1.0702
  287MOL0     H38731   8.713   1.186   8.521  0.6409  0.0460  0.6663
  287MOL0     H38732   8.652   1.418   8.548  0.8297 -0.9579 -0.6778
  287MOL0     H38733   8.431   1.554   8.238  0.0588 -0.1441 -0.2948
  287MOL0     H38734   8.536   1.688   8.182 -1.2729  2.2315  0.9907
  287MOL0     H38735   8.489   1.820   8.371  1.4243  1.1646 -2.4055
  287MOL0     H38736   8.366   1.699   8.421 -1.7814  0.6345 -1.7255
  287MOL0     H38737   8.271   1.748   8.172 -2.6176 -1.7892  1.9779
  287MOL0     H38738   8.372   1.900   8.206 -1.1712  1.1069  2.2260
  287MOL0     H38739   8.148   1.790   8.382  0.8153  0.6218  1.0023
  287MOL0     H38740   8.257   1.929   8.414 -0.8614  0.1869 -0.7442
  287MOL0     H38741   7.953   2.112   8.208 -0.0980 -0.0376 -1.0162
  287MOL0     H38742   8.617   1.470   8.137  2.0813  0.3438 -0.2919
  287MOL0     H38743   8.604   1.158   8.028 -0.9896  2.6278 -1.0179
  287MOL0     H38744   8.678   1.304   7.976 -2.6531 -1.5610 -2.1877
  287MOL0     H38745   8.781   1.169   8.041  0.0837  0.5347  1.6070
  288MOL0     O38746   1.587   2.052   4.058 -0.4335  0.5824 -0.3986
  288MOL0     C38747   1.493   1.996   4.107  1.0986  0.2940  1.0206
  288MOL0     O38748   1.490   1.941   4.228 -0.3891 -0.6214  0.0332
  288MOL0     C38749   1.574   1.992   4.327  0.9532 -0.2101  0.1246
  288MOL0     C38750   1.525   2.083   4.416  0.0677 -0.0318  0.0720
  288MOL0     C38751   1.578   2.089   4.548  0.5777 -0.7725 -0.1740
  288MOL0     C38752   1.695   2.025   4.581  0.1471  0.6114 -0.4956
  288MOL0     O38753   1.739   2.035   4.715 -0.2202  0.3285  0.1158
  288MOL0     C38754   1.859   1.967   4.760  0.6198  0.0618  0.7593
  288MOL0     C38755   1.990   2.034   4.703  0.3432  0.0779  0.1408
  288MOL0     C38756   2.125   1.960   4.725 -0.8523  0.3249  0.4057
  288MOL0     C38757   2.127   1.904   4.869 -0.1343  0.7850 -0.8868
  288MOL0     C38758   2.264   1.832   4.900 -0.4258 -0.1960 -0.7438
  288MOL0     C38759   2.255   1.743   5.027 -0.2277 -0.4499  0.4712
  288MOL0     C38760   2.379   1.658   5.063  0.2243  0.0472 -0.2294
  288MOL0     C38761   2.488   1.741   5.122  0.0473  0.3528 -0.2717
  288MOL0     N38762   2.606   1.652   5.131 -0.4729 -0.3226  0.1722
  288MOL0     C38763   2.679   1.641   5.247  0.5761 -0.2884  0.9644
  288MOL0     C38764   2.793   1.571   5.219  0.3835 -0.7130  0.8576
  288MOL0     C38765   2.905   1.527   5.310 -0.2717 -0.5364 -0.1363
  288MOL0     C38766   3.020   1.626   5.287  0.6884 -0.9548 -0.3778
  288MOL0     C38767   3.123   1.619   5.412 -0.7479 -0.7443  0.7905
  288MOL0     C38768   3.229   1.725   5.397  0.1626 -0.5503 -0.1204
  288MOL0     O38769   3.280   1.710   5.266  0.0196 -0.2409  0.2631
  288MOL0     C38770   3.394   1.788   5.238 -0.3476  0.0152 -0.1035
  288MOL0     C38771   3.448   1.751   5.124 -0.0877 -0.7546  0.8709
  288MOL0     C38772   3.567   1.800   5.078  0.7295 -0.9430  0.4931
  288MOL0     C38773   3.625   1.907   5.153 -0.4157  0.3150  0.8259
  288MOL0     C38774   3.739   1.974   5.099  0.2038 -0.8989 -0.1592
  288MOL0     O38775   3.773   1.935   4.973 -0.4759  0.3726  0.2309
  288MOL0     C38776   3.885   1.997   4.916 -0.0642  0.3543  0.1075
  288MOL0     C38777   3.861   2.090   4.819 -0.2856 -0.6814  0.4477
  288MOL0     C38778   3.968   2.151   4.750 -0.0680  0.0804 -0.7561
  288MOL0     C38779   4.101   2.114   4.773  0.3695 -0.0552 -0.3322
  288MOL0     O38780   4.191   2.192   4.705 -0.2327  0.5708 -0.6061
  288MOL0     C38781   4.327   2.143   4.687 -0.5335  0.3593  0.7777
  288MOL0     C38782   4.418   2.244   4.602  0.8313 -0.4809  0.1176
  288MOL0     C38783   4.560   2.184   4.599 -0.0947 -0.1727  0.1862
  288MOL0     C38784   4.665   2.286   4.544  0.4265  1.3837 -0.3835
  288MOL0     C38785   4.682   2.401   4.650  0.2942  1.2013  0.0199
  288MOL0     C38786   4.805   2.491   4.610  0.1988 -0.1695  0.2481
  288MOL0     C38787   4.807   2.527   4.461 -0.4494 -0.3172  0.3491
  288MOL0     C38788   4.679   2.592   4.420 -0.6568 -0.5773 -0.2957
  288MOL0    Cl38789   4.684   2.597   4.250  0.1190 -0.0709  0.3265
  288MOL0     C38790   4.125   2.027   4.877  0.3929  0.1224 -0.5570
  288MOL0     C38791   4.022   1.968   4.949  0.0845 -0.3578 -0.0667
  288MOL0     O38792   3.795   2.062   5.164 -0.5043  0.3154 -0.5733
  288MOL0     C38793   3.563   1.953   5.263  1.0044  0.0789  0.0285
  288MOL0     C38794   3.453   1.886   5.316 -0.1123  0.0173 -0.2502
  288MOL0     N38795   2.798   1.560   5.078 -0.6699 -0.0248  0.0961
  288MOL0     N38796   2.686   1.604   5.033 -0.6989  0.4574  0.3600
  288MOL0     C38797   1.749   1.947   4.486  0.3285  0.0179 -0.0682
  288MOL0     C38798   1.691   1.930   4.358  0.1955  0.2629  0.2449
  288MOL0     C38799   1.371   2.009   4.018 -0.1664 -0.1600 -0.7159
  288MOL0     C38800   1.373   2.077   3.896 -0.5895 -0.4246 -1.0474
  288MOL0     C38801   1.256   2.099   3.822 -0.3387 -0.1937 -0.1527
  288MOL0     C38802   1.133   2.056   3.862  0.9608  0.8952 -0.2651
  288MOL0     O38803   1.019   2.090   3.787  0.0503 -0.4374 -0.1059
  288MOL0     C38804   0.884   2.075   3.840 -0.1505  0.3901 -0.4306
  288MOL0     C38805   0.819   2.209   3.868 -0.0710  0.5700  0.5918
  288MOL0     C38806   0.867   2.314   3.763 -0.2059  0.8947 -0.2351
  288MOL0     C38807   0.767   2.429   3.784 -0.8851 -0.7239 -0.2365
  288MOL0     C38808   0.774   2.528   3.669  0.5260 -0.3691 -1.1199
  288MOL0     C38809   0.773   2.608   3.586  1.0691 -0.2976  0.1429
  288MOL0     C38810   1.126   1.969   3.972  0.2023 -0.7015  0.2632
  288MOL0     C38811   1.244   1.945   4.049 -0.7028  0.9429 -0.5037
  288MOL0     C38812   1.229   1.853   4.158  0.5713 -0.6149 -0.1147
  288MOL0     H38813   1.435   2.137   4.387  0.0935  0.3906  0.7464
  288MOL0     H38814   1.523   2.143   4.624 -3.4015 -3.1567 -1.1014
  288MOL0     H38815   1.847   1.961   4.869  0.5972  0.6174  0.7898
  288MOL0     H38816   1.862   1.864   4.725 -1.4271 -0.1847  1.1567
  288MOL0     H38817   2.001   2.127   4.761  0.7273  0.2988 -0.2823
  288MOL0     H38818   1.979   2.062   4.598  2.6313  0.2778 -0.1025
  288MOL0     H38819   2.218   2.017   4.713  1.0759 -2.7927 -0.6178
  288MOL0     H38820   2.144   1.878   4.655  2.2053  1.9562 -0.9171
  288MOL0     H38821   2.110   1.993   4.930 -3.0341 -0.2137 -0.1110
  288MOL0     H38822   2.049   1.828   4.877  0.6238 -0.1730 -2.1278
  288MOL0     H38823   2.287   1.775   4.810 -0.8247 -0.0700 -0.9280
  288MOL0     H38824   2.335   1.914   4.906  0.0035 -0.4440 -2.1394
  288MOL0     H38825   2.228   1.809   5.110 -0.4631  3.4201 -2.3882
  288MOL0     H38826   2.176   1.668   5.012  2.4042 -3.2712 -0.2304
  288MOL0     H38827   2.412   1.603   4.975 -0.5611 -0.5734 -0.1480
  288MOL0     H38828   2.339   1.589   5.138 -0.2703  0.5252 -0.0472
  288MOL0     H38829   2.523   1.819   5.053  0.4188 -0.2220 -0.7492
  288MOL0     H38830   2.461   1.786   5.218  1.9689 -0.5416  0.7434
  288MOL0     H38831   2.648   1.683   5.342  0.0854  1.5523  0.0456
  288MOL0     H38832   2.871   1.522   5.414  1.0748 -0.3763  0.3302
  288MOL0     H38833   2.930   1.425   5.279 -1.0793 -0.2759 -1.7428
  288MOL0     H38834   3.063   1.607   5.188 -0.6840 -0.5106 -1.0829
  288MOL0     H38835   2.978   1.727   5.291  1.0302 -0.8468  0.9655
  288MOL0     H38836   3.174   1.522   5.418  1.3414  0.3902  4.2717
  288MOL0     H38837   3.076   1.627   5.510 -0.5401 -0.4947  0.8694
  288MOL0     H38838   3.303   1.700   5.474  2.1827 -1.2181 -2.1738
  288MOL0     H38839   3.204   1.830   5.413  0.0327 -0.4993 -0.6673
  288MOL0     H38840   3.400   1.675   5.063  0.5920 -0.4226 -0.0915
  288MOL0     H38841   3.618   1.755   4.994  0.4704 -0.8129  0.2634
  288MOL0     H38842   3.760   2.128   4.812 -0.0204  0.2503  1.3978
  288MOL0     H38843   3.952   2.230   4.678 -0.1531 -0.3896 -1.2615
  288MOL0     H38844   4.381   2.125   4.781 -1.6323 -2.2070  0.9971
  288MOL0     H38845   4.318   2.041   4.649  0.5182  0.1477  1.0552
  288MOL0     H38846   4.370   2.258   4.504 -0.0906 -0.6747  0.5307
  288MOL0     H38847   4.421   2.346   4.640  1.8201 -0.2388 -0.5569
  288MOL0     H38848   4.589   2.156   4.700 -0.4522 -0.2888  0.2592
  288MOL0     H38849   4.547   2.096   4.536  0.9094  0.7836 -1.4446
  288MOL0     H38850   4.629   2.319   4.446 -0.2052 -1.6127 -1.2887
  288MOL0     H38851   4.762   2.238   4.526 -0.4683 -0.9848  0.6789
  288MOL0     H38852   4.692   2.360   4.751 -2.7179  1.0913  0.3852
  288MOL0     H38853   4.590   2.461   4.647 -0.6236  0.1518  3.2368
  288MOL0     H38854   4.806   2.587   4.663 -3.2172 -0.2187  0.6292
  288MOL0     H38855   4.893   2.433   4.640  1.8861  3.0922  2.1952
  288MOL0     H38856   4.838   2.437   4.408 -2.2601 -1.6610  1.4336
  288MOL0     H38857   4.890   2.594   4.440 -0.7059 -0.0948  0.0311
  288MOL0     H38858   4.594   2.534   4.456  0.2864 -0.3544  2.5004
  288MOL0     H38859   4.682   2.694   4.461  2.1291 -1.3696  1.8428
  288MOL0     H38860   4.230   2.008   4.897  0.3852 -0.2360 -0.8473
  288MOL0     H38861   4.041   1.902   5.033  0.1165 -1.6991 -1.0992
  288MOL0     H38862   3.613   2.038   5.309  1.9527 -1.9837  3.1463
  288MOL0     H38863   3.411   1.917   5.412  0.6206  0.6760 -0.1288
  288MOL0     H38864   1.832   1.885   4.520 -0.8224 -1.3682  0.3112
  288MOL0     H38865   1.733   1.853   4.293  0.9579  1.3687 -0.6014
  288MOL0     H38866   1.467   2.107   3.851 -0.4986  2.4940  0.8187
  288MOL0     H38867   1.255   2.172   3.741  1.6531  1.0809  0.9009
  288MOL0     H38868   0.864   2.028   3.937  0.9386  1.3890  0.3081
  288MOL0     H38869   0.830   2.033   3.755 -0.4350  3.1006 -1.7150
  288MOL0     H38870   0.852   2.232   3.970 -0.5089  2.3840  0.3529
  288MOL0     H38871   0.711   2.192   3.864  0.1003 -1.5389  2.6230
  288MOL0     H38872   0.865   2.269   3.664  1.3946 -1.2985  0.6553
  288MOL0     H38873   0.970   2.340   3.787 -0.5306  2.8325 -0.7569
  288MOL0     H38874   0.663   2.397   3.782 -1.3274  0.6174  0.0488
  288MOL0     H38875   0.784   2.471   3.884  0.7195 -0.1674 -0.7158
  288MOL0     H38876   0.760   2.666   3.497  1.4544 -1.2653 -0.5686
  288MOL0     H38877   1.032   1.917   3.991 -0.8784  0.9805 -0.2517
  288MOL0     H38878   1.230   1.910   4.251  1.2478  2.3912 -1.8229
  288MOL0     H38879   1.132   1.803   4.149 -0.2004  1.0896 -2.1091
  288MOL0     H38880   1.304   1.773   4.153  1.7004  0.2345  2.0650
  289MOL0     O38881   9.157   8.637   5.665 -0.1458  0.6160 -0.7189
  289MOL0     C38882   9.079   8.681   5.581  0.1798  0.7828 -0.0295
  289MOL0     O38883   9.107   8.704   5.448 -1.3058  0.3566  0.0985
  289MOL0     C38884   9.229   8.734   5.401 -0.1464 -0.8570  0.5439
  289MOL0     C38885   9.246   8.745   5.261 -0.0910 -0.1714 -0.6121
  289MOL0     C38886   9.365   8.785   5.207  1.0494 -0.1848 -0.0541
  289MOL0     C38887   9.488   8.801   5.283  0.9218  0.2037  0.5075
  289MOL0     O38888   9.619   8.830   5.246  0.4987  0.0985  0.4114
  289MOL0     C38889   9.632   8.917   5.137 -0.0909  0.1164  0.0172
  289MOL0     C38890   9.729   9.038   5.181 -0.2285 -0.1240  0.2810
  289MOL0     C38891   9.864   8.987   5.145  0.7986  0.1411 -0.2902
  289MOL0     C38892   9.952   9.105   5.197 -0.2533 -0.0275  0.1512
  289MOL0     C38893  10.094   9.081   5.178  0.1267  0.0751 -0.4077
  289MOL0     C38894  10.141   9.078   5.038 -1.0236  0.0200  0.0969
  289MOL0     C38895  10.283   9.018   5.029  0.4468  0.0920  0.3444
  289MOL0     C38896  10.397   9.082   5.107  0.0038  0.3241  0.0514
  289MOL0     N38897  10.459   9.197   5.040  0.0640  0.7365  0.2883
  289MOL0     C38898  10.416   9.249   4.921 -0.5526  0.1288  0.0159
  289MOL0     C38899  10.496   9.362   4.904  0.9395  0.5078  0.5405
  289MOL0     C38900  10.510   9.467   4.802  0.3752  0.7020 -0.6963
  289MOL0     C38901  10.424   9.445   4.678 -0.5507 -0.2586 -0.4579
  289MOL0     C38902  10.278   9.479   4.707  0.2848 -0.1110  0.0797
  289MOL0     C38903  10.244   9.632   4.727  0.0681 -0.0901  0.7961
  289MOL0     O38904  10.316   9.732   4.658  0.5539 -0.5659 -0.3376
  289MOL0     C38905  10.273   9.772   4.534  0.7891 -0.4948  0.3777
  289MOL0     C38906  10.228   9.680   4.429 -0.1844  0.2727  0.0132
  289MOL0     C38907  10.181   9.727   4.309 -0.3506 -0.3216  0.5227
  289MOL0     C38908  10.179   9.865   4.285 -1.1842  0.7578  0.4762
  289MOL0     C38909  10.116   9.907   4.156  0.0120 -0.1390 -0.8413
  289MOL0     O38910  10.059   9.805   4.081  0.2871 -0.1755 -0.1839
  289MOL0     C38911   9.948   9.830   4.011 -0.3443  0.6941  0.3044
  289MOL0     C38912   9.829   9.865   4.080 -0.3765  0.1921 -1.3064
  289MOL0     C38913   9.694   9.861   4.020 -1.0366 -0.8234 -0.5234
  289MOL0     C38914   9.691   9.831   3.889  0.1312  0.7941 -0.0044
  289MOL0     O38915   9.565   9.838   3.830 -0.2321  0.2324  0.3138
  289MOL0     C38916   9.537   9.801   3.700 -0.7441  0.6345  0.4004
  289MOL0     C38917   9.521   9.649   3.697 -0.5310  0.1171 -0.5091
  289MOL0     C38918   9.494   9.602   3.555 -0.8876 -0.9788 -0.2858
  289MOL0     C38919   9.404   9.482   3.558  0.2199  0.6959  0.2850
  289MOL0     C38920   9.392   9.424   3.417 -0.0552 -0.0795  0.0420
  289MOL0     C38921   9.335   9.285   3.434 -0.1983 -0.4628 -0.8403
  289MOL0     C38922   9.437   9.172   3.476 -0.0308  0.3297 -0.2219
  289MOL0     C38923   9.378   9.029   3.448 -0.6273  0.1025 -0.6565
  289MOL0    Cl38924   9.216   9.013   3.535 -0.0577  0.1103  0.0165
  289MOL0     C38925   9.812   9.806   3.814  0.4257  0.2834 -0.8128
  289MOL0     C38926   9.936   9.807   3.877 -0.1015  0.5316 -0.4395
  289MOL0     O38927  10.111  10.027   4.130  0.2549 -0.8843  0.4884
  289MOL0     C38928  10.224   9.956   4.375  0.1228  0.4691 -1.1838
  289MOL0     C38929  10.275   9.907   4.498 -0.0616  0.3150  0.8637
  289MOL0     N38930  10.574   9.378   5.015 -0.0445 -0.1199 -0.0582
  289MOL0     N38931  10.539   9.286   5.104 -0.2113  0.6725  0.0730
  289MOL0     C38932   9.463   8.787   5.422 -0.4720 -0.0916 -0.5547
  289MOL0     C38933   9.341   8.755   5.478  0.0419 -0.0504  0.4229
  289MOL0     C38934   8.948   8.707   5.629 -0.3852 -0.9292  0.3928
  289MOL0     C38935   8.933   8.779   5.753 -0.3030  0.4423  0.0870
  289MOL0     C38936   8.806   8.809   5.801 -0.8795  0.3148  0.0146
  289MOL0     C38937   8.693   8.743   5.738  0.1288  1.1311  0.4901
  289MOL0     O38938   8.561   8.745   5.782 -0.1256  0.6222  0.4018
  289MOL0     C38939   8.551   8.747   5.925  0.6261  0.3071  1.2654
  289MOL0     C38940   8.626   8.628   5.991  0.5667 -0.5627 -0.3390
  289MOL0     C38941   8.580   8.621   6.127 -0.0968 -0.0646 -0.1934
  289MOL0     C38942   8.648   8.507   6.201 -0.4951 -0.0396  0.1041
  289MOL0     C38943   8.582   8.378   6.182  0.0669  0.0476 -0.9054
  289MOL0     C38944   8.521   8.282   6.191 -0.6242  0.7069 -0.1160
  289MOL0     C38945   8.714   8.658   5.634 -0.4157 -0.1923  0.6813
  289MOL0     C38946   8.842   8.650   5.571  0.4927 -0.1006  0.2161
  289MOL0     C38947   8.852   8.583   5.436  0.2146 -0.3476  0.9665
  289MOL0     H38948   9.166   8.708   5.198  0.3424 -4.1569  0.8772
  289MOL0     H38949   9.383   8.814   5.104  0.0570 -3.4494 -1.2919
  289MOL0     H38950   9.664   8.868   5.044  2.6104 -0.1185  0.9953
  289MOL0     H38951   9.535   8.964   5.115 -1.9890 -2.2802  2.5945
  289MOL0     H38952   9.717   9.066   5.286  0.5996 -2.5415  1.1052
  289MOL0     H38953   9.708   9.131   5.127 -2.0494 -0.3885  0.4668
  289MOL0     H38954   9.865   8.963   5.038  1.3397 -1.8245  0.1171
  289MOL0     H38955   9.897   8.893   5.190  1.8861 -0.6114 -2.4957
  289MOL0     H38956   9.928   9.199   5.146  0.4938  0.1675  0.1333
  289MOL0     H38957   9.936   9.127   5.303 -1.3891  0.7492 -0.1617
  289MOL0     H38958  10.153   9.153   5.235  0.0732 -0.2928  0.1207
  289MOL0     H38959  10.109   8.984   5.227 -0.4596 -0.5168 -1.3703
  289MOL0     H38960  10.072   9.024   4.972 -0.3815 -2.0678  1.0341
  289MOL0     H38961  10.140   9.184   5.012 -0.2623  0.0977  0.3539
  289MOL0     H38962  10.305   9.003   4.923 -0.1295  1.7900 -0.0437
  289MOL0     H38963  10.270   8.916   5.066  0.9113 -0.7005 -1.5526
  289MOL0     H38964  10.366   9.104   5.210  1.1118 -2.5310  1.0879
  289MOL0     H38965  10.473   9.005   5.119  1.6881  1.8946 -0.1704
  289MOL0     H38966  10.352   9.207   4.844  2.8051 -1.4362 -2.1705
  289MOL0     H38967  10.471   9.557   4.848  0.7104 -0.4332  1.9938
  289MOL0     H38968  10.617   9.482   4.783  1.0663  0.2548  2.3368
  289MOL0     H38969  10.454   9.501   4.589 -2.9706  0.2824 -1.0032
  289MOL0     H38970  10.431   9.341   4.645  0.3142  0.7752 -3.9574
  289MOL0     H38971  10.232   9.426   4.791 -0.2398  0.1366 -0.0513
  289MOL0     H38972  10.224   9.432   4.624  1.6312  0.1097 -0.9443
  289MOL0     H38973  10.259   9.648   4.834  2.6102  2.2897  0.1940
  289MOL0     H38974  10.138   9.644   4.703  0.2336  0.7341  0.4204
  289MOL0     H38975  10.220   9.574   4.450  0.3012  0.2973  0.3451
  289MOL0     H38976  10.150   9.663   4.227  2.6036  1.1949 -1.9663
  289MOL0     H38977   9.830   9.883   4.187 -1.1241 -0.3838 -1.1965
  289MOL0     H38978   9.603   9.865   4.080  1.8614  2.3601  4.4672
  289MOL0     H38979   9.444   9.844   3.660 -1.3064 -0.9416 -0.0673
  289MOL0     H38980   9.621   9.832   3.637 -0.6411 -0.3965  0.0175
  289MOL0     H38981   9.612   9.601   3.735 -2.8286 -2.3035  2.4764
  289MOL0     H38982   9.442   9.614   3.765  2.0593 -2.2054  1.5219
  289MOL0     H38983   9.440   9.683   3.503  1.1092 -0.2975 -1.3916
  289MOL0     H38984   9.593   9.584   3.513  0.2057  1.2164  1.1793
  289MOL0     H38985   9.300   9.504   3.587  0.2185  0.1116  0.7389
  289MOL0     H38986   9.453   9.417   3.631 -0.1771 -1.5179 -1.3229
  289MOL0     H38987   9.490   9.411   3.370  0.3858 -6.3768  1.9136
  289MOL0     H38988   9.335   9.494   3.355  3.3034  3.3768  0.4379
  289MOL0     H38989   9.245   9.292   3.497 -1.8067 -0.0011 -3.0821
  289MOL0     H38990   9.290   9.262   3.337  1.7878 -0.9597 -1.7021
  289MOL0     H38991   9.467   9.185   3.581 -0.5016  0.0590 -0.0515
  289MOL0     H38992   9.526   9.173   3.412  2.2822 -0.8486  2.6827
  289MOL0     H38993   9.382   9.017   3.340 -3.3298 -0.2659 -0.7768
  289MOL0     H38994   9.447   8.964   3.504 -0.9128  1.6677  1.6377
  289MOL0     H38995   9.798   9.791   3.707 -0.3128 -3.2156 -0.3443
  289MOL0     H38996  10.022   9.783   3.817 -0.7091  0.2541 -1.2110
  289MOL0     H38997  10.224  10.062   4.351  0.5102  0.5342 -0.9157
  289MOL0     H38998  10.309   9.983   4.567  1.0669  2.4407 -1.8703
  289MOL0     H38999   9.553   8.803   5.480  0.5412 -5.4832 -0.1471
  289MOL0     H39000   9.325   8.757   5.585  0.8462 -0.0683  0.5530
  289MOL0     H39001   9.026   8.817   5.793 -0.3152 -1.1486  1.7496
  289MOL0     H39002   8.792   8.869   5.890  1.7627  1.0067  0.0435
  289MOL0     H39003   8.444   8.732   5.943  0.9212 -2.4941  1.0855
  289MOL0     H39004   8.587   8.848   5.949  3.5717 -0.8490  2.0900
  289MOL0     H39005   8.735   8.633   5.987  1.0708  1.8159  5.7675
  289MOL0     H39006   8.591   8.533   5.948 -0.2045  1.0765 -3.6833
  289MOL0     H39007   8.477   8.584   6.121  0.0101 -0.1387 -2.3030
  289MOL0     H39008   8.578   8.719   6.174 -0.7797  0.1195 -0.5861
  289MOL0     H39009   8.754   8.503   6.177  0.4869 -4.6165  3.7562
  289MOL0     H39010   8.646   8.534   6.308  2.7015  1.5172 -0.1306
  289MOL0     H39011   8.451   8.201   6.204 -0.3841  0.7574  1.9195
  289MOL0     H39012   8.627   8.629   5.576  0.0865  2.8910 -1.9458
  289MOL0     H39013   8.910   8.490   5.434 -0.0298 -0.4914  0.1369
  289MOL0     H39014   8.749   8.549   5.421 -0.7476  1.4022  3.0762
  289MOL0     H39015   8.886   8.646   5.353  2.1490 -0.5865  1.5325
  290MOL0     O39016   4.166   0.524   5.481  0.7099  0.0465 -0.2242
  290MOL0     C39017   4.204   0.403   5.470 -0.2881 -0.7802  0.0313
  290MOL0     O39018   4.303   0.345   5.557  0.0889  0.0533  0.4778
  290MOL0     C39019   4.416   0.425   5.579  0.0000  0.9647 -0.1661
  290MOL0     C39020   4.460   0.543   5.512 -0.1425  0.4029 -0.7333
  290MOL0     C39021   4.587   0.604   5.546 -0.1293 -0.8903 -0.7689
  290MOL0     C39022   4.654   0.567   5.673 -0.2377 -0.9258 -0.3559
  290MOL0     O39023   4.769   0.640   5.706  0.0940 -0.2868 -0.7620
  290MOL0     C39024   4.856   0.600   5.816 -0.1785 -0.0580 -0.1552
  290MOL0     C39025   4.954   0.709   5.852  0.6026  0.4898 -0.4490
  290MOL0     C39026   4.891   0.822   5.931  1.0463  0.4348 -0.2124
  290MOL0     C39027   4.991   0.924   5.973 -0.2569 -0.1760  0.7873
  290MOL0     C39028   4.909   1.030   6.051  0.3744 -0.1670  0.1945
  290MOL0     C39029   4.917   1.015   6.208 -0.3891 -0.2586  0.5178
  290MOL0     C39030   4.816   1.106   6.276 -0.4412  0.0542 -0.0275
  290MOL0     C39031   4.819   1.069   6.429 -0.8189 -0.6506  0.7361
  290MOL0     N39032   4.946   1.099   6.502 -0.2141 -0.0398  0.2133
  290MOL0     C39033   4.982   1.231   6.526  0.0521  0.8204  0.0182
  290MOL0     C39034   5.109   1.225   6.574  0.8549 -0.2499  0.7649
  290MOL0     C39035   5.181   1.355   6.614  0.0547  0.1930 -0.7359
  290MOL0     C39036   5.219   1.344   6.766 -0.4221 -0.8148  0.3388
  290MOL0     C39037   5.096   1.322   6.851 -0.3556  0.3990  0.2752
  290MOL0     C39038   5.137   1.291   6.994 -0.1728 -0.0433 -0.7991
  290MOL0     O39039   5.029   1.304   7.087  0.7583 -0.2250  0.3711
  290MOL0     C39040   4.937   1.401   7.086  0.0577 -0.3001  0.7235
  290MOL0     C39041   4.810   1.372   7.043  0.9724  0.3996  0.6593
  290MOL0     C39042   4.714   1.474   7.047  0.3933  0.0631 -0.6132
  290MOL0     C39043   4.740   1.599   7.098 -0.4583 -0.4507  0.5801
  290MOL0     C39044   4.636   1.701   7.095  0.0798  0.1074 -0.4566
  290MOL0     O39045   4.542   1.675   6.996  0.5942 -0.3460  0.3364
  290MOL0     C39046   4.428   1.753   6.976  0.8134  0.5014  0.6038
  290MOL0     C39047   4.392   1.871   7.021 -0.2579  0.2587  0.1370
  290MOL0     C39048   4.264   1.925   6.980  0.3872  0.2470 -0.2537
  290MOL0     C39049   4.173   1.851   6.907 -0.1812 -0.5370  0.0866
  290MOL0     O39050   4.045   1.890   6.893 -0.6092  0.6817  0.3612
  290MOL0     C39051   3.967   1.876   7.014 -0.5599 -0.5770  0.9090
  290MOL0     C39052   3.829   1.896   6.948  0.2368  0.5284 -0.8507
  290MOL0     C39053   3.819   2.035   6.896 -0.0594 -0.1467 -0.5570
  290MOL0     C39054   3.671   2.071   6.890  0.4303  1.0654  0.1218
  290MOL0     C39055   3.605   2.082   7.026  0.7089 -0.4935  0.2948
  290MOL0     C39056   3.681   2.176   7.132  0.0695 -0.2106 -0.5067
  290MOL0     C39057   3.697   2.330   7.101  0.1106 -0.0433 -0.4574
  290MOL0     C39058   3.780   2.389   7.211  0.1163 -0.4890  0.7495
  290MOL0    Cl39059   3.959   2.346   7.180  0.5759  0.4758  0.3276
  290MOL0     C39060   4.216   1.724   6.866  0.6141 -0.3167 -0.4874
  290MOL0     C39061   4.337   1.681   6.895  0.3587 -0.5830  0.5672
  290MOL0     O39062   4.638   1.799   7.172  0.0983  0.4413  0.7592
  290MOL0     C39063   4.873   1.631   7.143 -0.5532  0.1260  0.1368
  290MOL0     C39064   4.977   1.532   7.130  0.1374  0.2039 -0.4113
  290MOL0     N39065   5.147   1.095   6.571 -0.3770 -0.1665 -1.0180
  290MOL0     N39066   5.056   1.023   6.531  0.7601 -0.5176  0.7023
  290MOL0     C39067   4.598   0.454   5.742 -0.1204 -0.6842  0.3430
  290MOL0     C39068   4.486   0.380   5.691 -0.3061  0.7511  0.2349
  290MOL0     C39069   4.148   0.304   5.370 -0.2953  0.6068  0.3978
  290MOL0     C39070   4.048   0.211   5.405 -0.2120 -0.5177  0.8049
  290MOL0     C39071   4.010   0.114   5.321  0.0754 -0.8557 -0.4753
  290MOL0     C39072   4.083   0.085   5.213  0.1498 -0.2008  0.2314
  290MOL0     O39073   4.051  -0.018   5.135  0.0650  0.6821  0.4516
  290MOL0     C39074   4.162  -0.099   5.093  0.0679  0.0148  0.0969
  290MOL0     C39075   4.159  -0.213   5.186  0.0746 -0.2474 -0.8147
  290MOL0     C39076   4.034  -0.295   5.197  0.3360 -0.8616 -0.3102
  290MOL0     C39077   3.971  -0.340   5.060 -0.2046 -0.5626 -0.3625
  290MOL0     C39078   4.083  -0.414   4.991  1.2484  0.2172 -0.4713
  290MOL0     C39079   4.156  -0.492   4.929 -0.0054 -0.4185  0.6271
  290MOL0     C39080   4.176   0.175   5.167 -0.4658  0.6938 -0.5039
  290MOL0     C39081   4.202   0.287   5.241 -0.2808  0.9634 -0.3795
  290MOL0     C39082   4.284   0.401   5.186 -0.3513 -0.6758 -0.1461
  290MOL0     H39083   4.396   0.586   5.435 -1.6492  3.2712  1.9069
  290MOL0     H39084   4.621   0.694   5.497  0.3843  0.5412  2.0281
  290MOL0     H39085   4.801   0.576   5.907  0.1456 -3.4544 -0.7564
  290MOL0     H39086   4.908   0.508   5.791  0.6878  0.8000 -1.7306
  290MOL0     H39087   5.001   0.750   5.761  1.9606  2.0999  0.9139
  290MOL0     H39088   5.026   0.665   5.921 -0.8777 -1.8501 -0.2847
  290MOL0     H39089   4.845   0.773   6.018  3.5270 -0.9014  0.4178
  290MOL0     H39090   4.810   0.871   5.875 -0.4241  1.8676  2.8883
  290MOL0     H39091   5.086   0.888   6.014 -0.5949  1.1929  2.9428
  290MOL0     H39092   5.029   0.972   5.882  1.9160 -1.4577  0.9400
  290MOL0     H39093   4.925   1.132   6.016 -0.7965  0.1783  0.6320
  290MOL0     H39094   4.803   1.034   6.025  0.5866  1.6505 -0.5524
  290MOL0     H39095   4.905   0.913   6.246  0.4079  0.5128  3.0897
  290MOL0     H39096   5.017   1.046   6.240 -0.1070  0.2980 -0.8270
  290MOL0     H39097   4.717   1.097   6.231 -0.4513 -1.9685  0.2815
  290MOL0     H39098   4.851   1.208   6.259  0.8565  0.0513  2.2756
  290MOL0     H39099   4.730   1.111   6.478  0.5538  0.4063  2.4299
  290MOL0     H39100   4.805   0.961   6.433  2.3583 -1.2624 -1.1011
  290MOL0     H39101   4.929   1.322   6.499 -1.3405  0.9421  2.7877
  290MOL0     H39102   5.266   1.360   6.544  1.1321  1.1055  0.5853
  290MOL0     H39103   5.113   1.439   6.602 -1.1265 -0.8656 -1.7451
  290MOL0     H39104   5.276   1.251   6.780  0.0670 -0.3079  1.9307
  290MOL0     H39105   5.281   1.426   6.803 -3.4965  0.4759  3.1330
  290MOL0     H39106   5.033   1.237   6.824 -0.3847 -0.3784  2.5611
  290MOL0     H39107   5.034   1.411   6.843 -2.1814 -0.9149 -0.9619
  290MOL0     H39108   5.209   1.369   7.021 -2.2244  1.5205  0.5012
  290MOL0     H39109   5.180   1.192   7.008  1.2180  0.7664  1.1857
  290MOL0     H39110   4.783   1.269   7.019 -1.8998  1.5143 -1.3032
  290MOL0     H39111   4.611   1.456   7.018  0.5601 -1.7799 -0.1609
  290MOL0     H39112   4.460   1.932   7.079  1.8215 -0.4486 -1.4115
  290MOL0     H39113   4.239   2.026   7.014 -1.0720 -0.5647  1.2526
  290MOL0     H39114   3.969   1.774   7.054 -0.0989 -0.5664  0.9155
  290MOL0     H39115   3.985   1.945   7.097 -1.6509 -0.6341  1.2013
  290MOL0     H39116   3.805   1.826   6.868  1.7627 -1.2544  0.1681
  290MOL0     H39117   3.753   1.867   7.021 -1.1829 -2.3797 -3.2590
  290MOL0     H39118   3.874   2.100   6.964  0.6534 -1.9377  0.6269
  290MOL0     H39119   3.876   2.056   6.805  3.2528 -1.3366  1.0919
  290MOL0     H39120   3.620   1.991   6.835 -1.3944  1.3096  1.3894
  290MOL0     H39121   3.666   2.167   6.838 -0.1498  3.0229  3.4895
  290MOL0     H39122   3.586   1.980   7.062 -0.4062 -0.9729 -1.5151
  290MOL0     H39123   3.503   2.119   7.011 -0.6734 -3.2337  2.0546
  290MOL0     H39124   3.619   2.172   7.222 -1.3793 -0.0028 -1.4542
  290MOL0     H39125   3.772   2.131   7.172  1.2284  0.6784 -2.0273
  290MOL0     H39126   3.599   2.380   7.102  0.0979 -0.0726  0.2032
  290MOL0     H39127   3.733   2.350   6.999 -0.2186  1.1215 -0.3562
  290MOL0     H39128   3.770   2.498   7.211  2.8150 -0.1635 -0.6623
  290MOL0     H39129   3.735   2.363   7.307 -0.5561  2.5678  1.3781
  290MOL0     H39130   4.141   1.664   6.817 -0.5519  0.8117 -0.1419
  290MOL0     H39131   4.379   1.585   6.867 -0.3434 -0.9475  0.7410
  290MOL0     H39132   4.907   1.730   7.172  3.4159 -1.2547  0.8319
  290MOL0     H39133   5.076   1.537   7.176 -0.1799 -3.3870  1.0008
  290MOL0     H39134   4.650   0.405   5.824  0.3718 -1.0273 -0.1630
  290MOL0     H39135   4.461   0.290   5.747 -1.1530  0.5746 -0.4214
  290MOL0     H39136   3.996   0.219   5.499 -1.3137  0.2432  0.1551
  290MOL0     H39137   3.924   0.050   5.342 -1.2363  0.7745 -0.6457
  290MOL0     H39138   4.255  -0.043   5.107  0.3480 -0.5421  0.5204
  290MOL0     H39139   4.153  -0.139   4.991  2.8889 -1.4566  0.3208
  290MOL0     H39140   4.192  -0.178   5.284  2.2915  0.3902 -1.7462
  290MOL0     H39141   4.246  -0.276   5.169  0.3054 -0.1851  0.0519
  290MOL0     H39142   3.958  -0.253   5.264 -0.5061 -2.9925  0.1242
  290MOL0     H39143   4.055  -0.383   5.258 -3.0715 -0.2024  2.1255
  290MOL0     H39144   3.888  -0.411   5.071 -0.7940  0.2628  0.7669
  290MOL0     H39145   3.922  -0.264   5.000 -3.6363 -3.4320 -1.5592
  290MOL0     H39146   4.219  -0.556   4.872  1.3591  0.2944  1.3029
  290MOL0     H39147   4.216   0.172   5.066 -1.3819  2.7525 -0.9748
  290MOL0     H39148   4.381   0.410   5.237 -0.1912 -1.0516 -0.3804
  290MOL0     H39149   4.292   0.398   5.077  1.2085 -3.0291 -0.0411
  290MOL0     H39150   4.239   0.497   5.214 -0.1117 -0.8963  1.0420
  291MOL0     O39151   4.497   2.696   6.211  0.7605  0.2083  0.5659
  291MOL0     C39152   4.393   2.732   6.268  0.4517  0.6280 -0.0359
  291MOL0     O39153   4.315   2.843   6.230  0.6539  0.9532 -0.4802
  291MOL0     C39154   4.378   2.923   6.138 -0.3580 -0.3551  0.2965
  291MOL0     C39155   4.424   3.050   6.191 -0.4063  0.1806 -0.5977
  291MOL0     C39156   4.485   3.137   6.113  0.4318 -0.0377 -0.1433
  291MOL0     C39157   4.514   3.106   5.974  0.1898 -0.3547 -0.6705
  291MOL0     O39158   4.597   3.190   5.904  0.2964 -0.1303 -0.2025
  291MOL0     C39159   4.577   3.212   5.757  1.0060 -0.6875 -0.3557
  291MOL0     C39160   4.687   3.317   5.709 -0.4441 -0.8774  0.3229
  291MOL0     C39161   4.637   3.365   5.573  0.4654 -0.0214 -0.3266
  291MOL0     C39162   4.751   3.407   5.489  0.2000  0.0878  0.7006
  291MOL0     C39163   4.716   3.480   5.363 -0.6476  0.4655 -0.6672
  291MOL0     C39164   4.843   3.538   5.301 -0.2853  0.7040 -0.6587
  291MOL0     C39165   4.901   3.429   5.203  0.1430 -0.3189 -1.1380
  291MOL0     C39166   5.055   3.428   5.191  0.0845  0.9899  0.5267
  291MOL0     N39167   5.121   3.330   5.275 -0.0792 -0.2153 -0.7781
  291MOL0     C39168   5.260   3.305   5.272  0.7060  0.0349  0.2748
  291MOL0     C39169   5.284   3.207   5.367  1.0758 -0.3953 -0.0518
  291MOL0     C39170   5.418   3.140   5.388  0.4513 -0.6526  0.0362
  291MOL0     C39171   5.434   3.040   5.274 -0.2407  0.2533  0.3322
  291MOL0     C39172   5.568   2.996   5.269 -0.7136  0.2899 -0.7125
  291MOL0     C39173   5.680   3.101   5.246 -0.0918  0.0666  0.0533
  291MOL0     O39174   5.789   3.034   5.173 -0.9060  0.3122 -0.0043
  291MOL0     C39175   5.896   3.109   5.134 -0.0739  0.0830  0.7881
  291MOL0     C39176   6.001   3.035   5.086  0.0463  0.4355 -0.6329
  291MOL0     C39177   6.123   3.087   5.054  1.0573  0.1765  0.0906
  291MOL0     C39178   6.136   3.229   5.049 -0.0024  0.1108 -0.1012
  291MOL0     C39179   6.271   3.281   4.998 -0.0867 -0.3413  1.3085
  291MOL0     O39180   6.357   3.189   4.937  0.4407 -0.2713 -0.1939
  291MOL0     C39181   6.497   3.207   4.942  0.0861  0.2908  0.2447
  291MOL0     C39182   6.570   3.138   4.852 -0.4640  0.6449  0.6020
  291MOL0     C39183   6.708   3.154   4.841  1.3131  0.0915 -0.8437
  291MOL0     C39184   6.771   3.236   4.932  0.2647  0.3956 -0.3966
  291MOL0     O39185   6.909   3.241   4.930 -0.0580  0.0421 -1.1064
  291MOL0     C39186   6.980   3.232   5.062 -0.3437  0.0816 -0.4203
  291MOL0     C39187   7.122   3.234   5.026  0.0174  0.2568 -1.0925
  291MOL0     C39188   7.190   3.202   5.157 -0.6550  0.2404  0.1073
  291MOL0     C39189   7.343   3.211   5.135 -0.3973 -0.3150  1.1874
  291MOL0     C39190   7.428   3.196   5.258 -0.2522  0.5531 -0.3587
  291MOL0     C39191   7.581   3.188   5.230 -0.4225  0.2813 -0.2789
  291MOL0     C39192   7.598   3.059   5.152  0.6801  0.4184  0.1700
  291MOL0     C39193   7.741   3.004   5.159  0.8626 -0.2565  0.6069
  291MOL0    Cl39194   7.856   3.132   5.109  0.0320 -0.0500 -0.4727
  291MOL0     C39195   6.695   3.310   5.021  0.8498 -0.6287 -0.7058
  291MOL0     C39196   6.563   3.295   5.036  0.1073 -0.1068  0.4233
  291MOL0     O39197   6.293   3.402   5.003 -0.0530 -0.1741  0.0026
  291MOL0     C39198   6.028   3.310   5.087  0.3124  0.4192  0.3951
  291MOL0     C39199   5.910   3.249   5.133  0.1099  1.2381  1.2797
  291MOL0     N39200   5.167   3.181   5.434 -1.6110  0.0292  0.2090
  291MOL0     N39201   5.078   3.266   5.381  0.9380 -0.0267 -0.3296
  291MOL0     C39202   4.469   2.989   5.923 -0.7278  0.5081 -0.5577
  291MOL0     C39203   4.405   2.896   6.004  0.7245 -1.2621 -0.3239
  291MOL0     C39204   4.350   2.643   6.374  0.1608  0.7180 -0.3589
  291MOL0     C39205   4.407   2.514   6.383 -0.2313 -0.0357  0.6343
  291MOL0     C39206   4.384   2.432   6.480  0.6150  1.3406 -0.6232
  291MOL0     C39207   4.289   2.460   6.580 -0.1891 -0.1591  0.0135
  291MOL0     O39208   4.283   2.379   6.692 -0.2455 -0.4150 -0.3552
  291MOL0     C39209   4.211   2.259   6.662  0.0346  0.3014  0.7959
  291MOL0     C39210   4.115   2.200   6.756 -0.1186  0.6208  0.5966
  291MOL0     C39211   4.047   2.319   6.834  0.3778  0.1319 -0.9336
  291MOL0     C39212   3.941   2.391   6.745 -0.1091  0.3361  0.7152
  291MOL0     C39213   3.925   2.522   6.808  0.4989  0.1296  0.1759
  291MOL0     C39214   3.914   2.623   6.872 -0.0529  0.4308 -0.3379
  291MOL0     C39215   4.237   2.587   6.584  0.8839 -0.0248 -0.1304
  291MOL0     C39216   4.262   2.679   6.479  1.1689 -0.6819 -0.1167
  291MOL0     C39217   4.177   2.803   6.480 -0.3781 -0.2729  0.5147
  291MOL0     H39218   4.406   3.058   6.298 -0.7683  0.7003 -0.6898
  291MOL0     H39219   4.509   3.237   6.146  0.3951  0.1466 -0.6742
  291MOL0     H39220   4.588   3.116   5.706 -0.7923 -0.0395 -2.1243
  291MOL0     H39221   4.475   3.250   5.745  0.7476 -0.9345  0.9063
  291MOL0     H39222   4.792   3.289   5.710  0.7086  2.9544  0.5343
  291MOL0     H39223   4.688   3.403   5.776 -0.3253 -0.4078 -0.2749
  291MOL0     H39224   4.573   3.451   5.594 -0.9608 -1.4557  1.4921
  291MOL0     H39225   4.580   3.284   5.525  0.5420 -1.0607  1.2765
  291MOL0     H39226   4.822   3.461   5.552  0.0617 -0.9677  1.8037
  291MOL0     H39227   4.818   3.326   5.460 -1.3750 -1.4676  1.2428
  291MOL0     H39228   4.672   3.419   5.285 -2.7189 -0.4941  1.1444
  291MOL0     H39229   4.644   3.558   5.390 -3.4960 -1.7176 -1.4275
  291MOL0     H39230   4.817   3.628   5.244  3.0746  1.9624 -0.3934
  291MOL0     H39231   4.913   3.579   5.374  1.4080 -1.7930 -0.7709
  291MOL0     H39232   4.878   3.458   5.100  1.7651 -0.5813 -1.6082
  291MOL0     H39233   4.857   3.330   5.221 -0.2990  0.1205  0.3451
  291MOL0     H39234   5.065   3.408   5.084 -3.5841  0.2138  0.1877
  291MOL0     H39235   5.097   3.528   5.207  1.3509  0.1347  2.8565
  291MOL0     H39236   5.331   3.353   5.206 -2.7930  0.7336 -3.3793
  291MOL0     H39237   5.491   3.221   5.388 -1.9384  1.6499  0.4403
  291MOL0     H39238   5.428   3.078   5.478 -1.9141  0.7107  1.3475
  291MOL0     H39239   5.375   2.949   5.289 -0.6793  0.7367  1.6344
  291MOL0     H39240   5.408   3.093   5.182 -3.7869  0.2222  1.1659
  291MOL0     H39241   5.565   2.918   5.192 -1.2139 -1.2350  0.7959
  291MOL0     H39242   5.594   2.941   5.360  2.4917 -1.5852 -2.5586
  291MOL0     H39243   5.720   3.141   5.340  0.5029  0.1552 -0.2337
  291MOL0     H39244   5.635   3.176   5.181 -1.0502 -0.0051  0.6198
  291MOL0     H39245   5.992   2.927   5.100 -2.8568  0.5853 -0.7027
  291MOL0     H39246   6.206   3.018   5.039 -0.8942 -2.7363  1.6219
  291MOL0     H39247   6.517   3.079   4.777  1.3192  0.5811 -0.6583
  291MOL0     H39248   6.770   3.118   4.759  0.8891  0.6116 -1.3979
  291MOL0     H39249   6.951   3.329   5.104  0.3620  0.2306 -0.2668
  291MOL0     H39250   6.954   3.148   5.127 -2.0230  0.9457  0.0681
  291MOL0     H39251   7.148   3.157   4.953  0.9424 -3.2461  2.5814
  291MOL0     H39252   7.140   3.336   4.989  0.4561 -0.5144 -3.1221
  291MOL0     H39253   7.154   3.265   5.239 -1.5440  2.0920 -1.6090
  291MOL0     H39254   7.164   3.098   5.179 -2.4830  0.7122  0.3256
  291MOL0     H39255   7.380   3.304   5.092  0.0699 -1.9762 -2.3897
  291MOL0     H39256   7.378   3.143   5.056  1.3427  2.0388 -0.1950
  291MOL0     H39257   7.395   3.106   5.311  1.0849  0.2225 -0.0553
  291MOL0     H39258   7.418   3.285   5.321  2.5033  0.5654  0.2002
  291MOL0     H39259   7.614   3.275   5.172  2.1576  1.2011  2.3679
  291MOL0     H39260   7.650   3.187   5.314  1.2007 -0.4465 -1.5586
  291MOL0     H39261   7.576   3.085   5.048 -1.7234  1.5657  0.8995
  291MOL0     H39262   7.522   2.982   5.167  2.3020 -1.6036 -1.3417
  291MOL0     H39263   7.775   2.974   5.259  0.7918 -2.0569  0.1205
  291MOL0     H39264   7.750   2.916   5.095  0.5826  0.2848 -0.1912
  291MOL0     H39265   6.739   3.392   5.077  0.0275  0.9441 -2.2679
  291MOL0     H39266   6.511   3.347   5.116 -1.7123  1.2052 -1.5226
  291MOL0     H39267   6.038   3.418   5.081  0.0490  0.5068  1.4194
  291MOL0     H39268   5.833   3.309   5.180  0.0851  0.9299  1.6329
  291MOL0     H39269   4.484   2.961   5.819  0.8309 -1.2910  0.0784
  291MOL0     H39270   4.373   2.801   5.963 -1.2734 -1.4990  1.6181
  291MOL0     H39271   4.467   2.491   6.296 -0.0282  1.9045  0.2083
  291MOL0     H39272   4.432   2.335   6.487 -0.3538  0.9683  1.8133
  291MOL0     H39273   4.278   2.179   6.628 -2.6154 -0.5345 -3.2450
  291MOL0     H39274   4.160   2.264   6.565 -0.1051  2.8242  0.9461
  291MOL0     H39275   4.182   2.135   6.813  0.4534 -1.8586 -2.6328
  291MOL0     H39276   4.043   2.138   6.702  1.3076 -0.0947 -0.5608
  291MOL0     H39277   4.115   2.395   6.874 -1.4160  0.7194  1.2114
  291MOL0     H39278   3.999   2.275   6.922  1.0507 -0.0035 -0.6281
  291MOL0     H39279   3.979   2.421   6.647  1.9393  0.7699  1.6006
  291MOL0     H39280   3.849   2.335   6.726  1.0337 -0.4238 -3.5942
  291MOL0     H39281   3.893   2.710   6.930  0.3632  1.5150 -1.7397
  291MOL0     H39282   4.179   2.607   6.673  1.4997 -0.8887  0.4854
  291MOL0     H39283   4.117   2.825   6.392  1.3994  1.5328 -0.3316
  291MOL0     H39284   4.127   2.802   6.577 -1.0248 -3.7412  0.2969
  291MOL0     H39285   4.235   2.895   6.487 -4.4801  2.4763  1.6414
  292MOL0     O39286   9.553   6.600   7.313 -0.8207  0.4163  0.1221
  292MOL0     C39287   9.485   6.703   7.297  0.2354  0.5502  0.1849
  292MOL0     O39288   9.528   6.834   7.304 -0.2294 -0.5211  0.3921
  292MOL0     C39289   9.651   6.859   7.352 -1.0211  0.2181  0.1603
  292MOL0     C39290   9.715   6.790   7.455 -0.6526  0.0211  0.6766
  292MOL0     C39291   9.825   6.838   7.521 -0.4669  0.2465  0.2014
  292MOL0     C39292   9.873   6.963   7.492 -0.9415  0.4408  0.1964
  292MOL0     O39293   9.997   7.003   7.554  0.2157 -0.4165  0.4775
  292MOL0     C39294  10.080   7.104   7.495 -0.2505 -0.2557  0.3850
  292MOL0     C39295  10.214   7.086   7.555  0.3769 -0.8638  0.6878
  292MOL0     C39296  10.311   7.181   7.484  0.0364  0.2710  0.2660
  292MOL0     C39297  10.450   7.136   7.506  1.1642  0.0001 -0.4604
  292MOL0     C39298  10.554   7.248   7.471 -0.3284  0.4546 -0.7427
  292MOL0     C39299  10.695   7.188   7.463 -0.1801  0.3468  0.7240
  292MOL0     C39300  10.786   7.291   7.394  0.0296 -0.1360  0.0810
  292MOL0     C39301  10.829   7.396   7.494  0.5887 -0.2736 -0.2822
  292MOL0     N39302  10.909   7.505   7.442  1.3775 -0.4859  0.8761
  292MOL0     C39303  10.872   7.576   7.330  0.7080 -0.5126  0.4553
  292MOL0     C39304  10.977   7.660   7.317 -0.8613  0.6420 -0.2048
  292MOL0     C39305  10.990   7.770   7.222  0.4168 -0.8261  0.3554
  292MOL0     C39306  10.909   7.892   7.270 -0.1447  0.4591 -0.0566
  292MOL0     C39307  10.977   7.965   7.393  0.4208 -0.1308 -0.1059
  292MOL0     C39308  11.127   7.996   7.369 -0.2609 -0.7021  0.4133
  292MOL0     O39309  11.161   8.063   7.245 -0.1793 -0.6078 -0.0464
  292MOL0     C39310  11.291   8.082   7.221 -0.2355  0.2413  0.8526
  292MOL0     C39311  11.376   7.976   7.190 -0.5630 -0.5161 -0.2186
  292MOL0     C39312  11.513   7.999   7.169 -0.8354  0.4436  0.0397
  292MOL0     C39313  11.570   8.122   7.183  0.7262 -0.4485 -0.1297
  292MOL0     C39314  11.720   8.154   7.193  0.5518 -0.9046  0.6728
  292MOL0     O39315  11.781   8.264   7.150  0.0575  0.2238 -0.2803
  292MOL0     C39316  11.905   8.291   7.202  0.6682  0.3604  1.1327
  292MOL0     C39317  12.005   8.344   7.117 -0.8147  0.5177  0.3416
  292MOL0     C39318  12.129   8.384   7.161 -0.3568  0.0437  0.2062
  292MOL0     C39319  12.167   8.346   7.292 -0.4628  0.2710  0.0219
  292MOL0     O39320  12.285   8.378   7.349 -0.0604 -0.3039  0.2975
  292MOL0     C39321  12.393   8.418   7.263  0.5293  1.0453 -0.3642
  292MOL0     C39322  12.524   8.399   7.330 -0.6799 -0.4384 -1.1893
  292MOL0     C39323  12.627   8.464   7.234 -1.1057  0.5406 -0.3328
  292MOL0     C39324  12.760   8.450   7.300 -0.0167 -0.1080 -0.7766
  292MOL0     C39325  12.875   8.496   7.219  0.2748  0.0826  0.8918
  292MOL0     C39326  12.976   8.554   7.317 -0.7042  0.5462  0.7676
  292MOL0     C39327  13.101   8.566   7.226  0.1966 -0.7413 -0.9124
  292MOL0     C39328  13.221   8.640   7.306  0.1342  0.2945  0.6223
  292MOL0    Cl39329  13.220   8.822   7.296  0.3256 -0.4276 -0.3927
  292MOL0     C39330  12.072   8.292   7.374 -0.3007  0.2055 -0.2015
  292MOL0     C39331  11.946   8.263   7.331  0.1523 -0.5452 -0.1448
  292MOL0     O39332  11.781   8.058   7.238 -0.2118 -0.1272  0.0228
  292MOL0     C39333  11.483   8.231   7.196  0.2894 -0.1562 -0.2402
  292MOL0     C39334  11.345   8.211   7.214 -0.1885 -0.4986 -1.0191
  292MOL0     N39335  11.076   7.640   7.410 -0.0451 -0.7834 -0.3608
  292MOL0     N39336  11.023   7.554   7.492  0.5569 -0.1728 -0.3884
  292MOL0     C39337   9.814   7.032   7.390  0.2584 -0.3755 -0.8837
  292MOL0     C39338   9.699   6.986   7.324 -0.0546  0.2838  0.5343
  292MOL0     C39339   9.337   6.680   7.294  0.1693 -0.6713  0.2498
  292MOL0     C39340   9.259   6.745   7.394  0.0196 -0.2299  0.4059
  292MOL0     C39341   9.124   6.731   7.396 -0.2143  0.3192  0.5609
  292MOL0     C39342   9.054   6.653   7.315 -0.2240  0.4496 -0.5562
  292MOL0     O39343   8.920   6.654   7.333 -1.0196 -0.4010  0.0662
  292MOL0     C39344   8.843   6.550   7.272 -0.3670  0.1592  0.3411
  292MOL0     C39345   8.693   6.571   7.298  0.2807 -0.3406 -0.7505
  292MOL0     C39346   8.650   6.524   7.439 -0.7745  0.4030  0.1119
  292MOL0     C39347   8.507   6.539   7.462 -0.0299  0.3386 -0.3342
  292MOL0     C39348   8.429   6.427   7.403  0.7132  1.2049 -0.4258
  292MOL0     C39349   8.373   6.332   7.350 -0.2125 -0.0442  0.1837
  292MOL0     C39350   9.131   6.579   7.216  0.2834 -0.0389  0.7500
  292MOL0     C39351   9.270   6.593   7.205 -0.4326  0.0205 -0.0734
  292MOL0     C39352   9.342   6.522   7.093 -0.1535 -0.5417  0.9928
  292MOL0     H39353   9.659   6.710   7.504  2.1707  0.1526  4.6647
  292MOL0     H39354   9.886   6.792   7.599 -0.3968 -0.1423 -0.0813
  292MOL0     H39355  10.086   7.088   7.387 -1.1528 -1.4021  0.4875
  292MOL0     H39356  10.048   7.205   7.521  4.3777  0.7743  3.4029
  292MOL0     H39357  10.246   6.982   7.550  0.3695 -0.8936  1.2241
  292MOL0     H39358  10.210   7.109   7.662  2.2076 -0.4172  0.6912
  292MOL0     H39359  10.298   7.286   7.510 -0.1631  0.3352 -0.0746
  292MOL0     H39360  10.298   7.185   7.375  3.2339  1.6421 -0.1815
  292MOL0     H39361  10.457   7.101   7.609 -1.9469 -0.4939 -0.3392
  292MOL0     H39362  10.465   7.051   7.438  1.2632 -0.4507  0.1207
  292MOL0     H39363  10.519   7.279   7.372 -2.4187 -0.1766 -0.2414
  292MOL0     H39364  10.561   7.342   7.527  3.1791  0.6749 -1.3272
  292MOL0     H39365  10.734   7.160   7.562 -2.3735 -2.2717  0.9614
  292MOL0     H39366  10.685   7.097   7.402 -0.2530  0.4335  0.6083
  292MOL0     H39367  10.754   7.336   7.299  2.1069  2.5638  0.5305
  292MOL0     H39368  10.873   7.230   7.369  0.0270  0.0723 -0.4530
  292MOL0     H39369  10.741   7.446   7.535  1.6270  1.5412 -0.1607
  292MOL0     H39370  10.881   7.342   7.573 -1.6084  0.0498  1.4591
  292MOL0     H39371  10.778   7.578   7.276 -1.4008  5.7196  3.3930
  292MOL0     H39372  11.095   7.798   7.208  1.6199 -5.3502 -1.4434
  292MOL0     H39373  10.951   7.740   7.125  1.4693 -2.4547  0.3883
  292MOL0     H39374  10.888   7.967   7.194 -1.8387  1.0708  0.9646
  292MOL0     H39375  10.813   7.850   7.302 -0.4246  1.7078  0.8446
  292MOL0     H39376  10.960   7.898   7.477  2.6968 -1.9353 -0.9884
  292MOL0     H39377  10.913   8.053   7.402  0.9399  0.3998 -1.3904
  292MOL0     H39378  11.180   7.900   7.374 -3.4244 -2.5939  0.2598
  292MOL0     H39379  11.154   8.070   7.445  0.5876  0.7969 -1.2549
  292MOL0     H39380  11.333   7.878   7.169 -2.1437  0.4896 -1.9787
  292MOL0     H39381  11.576   7.911   7.159  0.1270  1.0656  0.4742
  292MOL0     H39382  11.976   8.376   7.018 -1.1167  0.0766  0.2850
  292MOL0     H39383  12.195   8.440   7.096  1.5691  0.7417  2.6080
  292MOL0     H39384  12.388   8.356   7.173 -1.5820  1.4905 -0.6000
  292MOL0     H39385  12.384   8.523   7.231  0.1986  0.3245 -2.8738
  292MOL0     H39386  12.515   8.454   7.424 -3.2640 -3.8216  0.7729
  292MOL0     H39387  12.546   8.292   7.338 -2.5915 -0.9625 -2.2827
  292MOL0     H39388  12.643   8.410   7.139 -0.9709  1.5990 -0.9237
  292MOL0     H39389  12.603   8.567   7.209  0.6178  1.0281 -0.1389
  292MOL0     H39390  12.772   8.352   7.349 -2.5673  0.0369  0.3193
  292MOL0     H39391  12.740   8.527   7.374 -0.8206 -0.0621 -1.0271
  292MOL0     H39392  12.845   8.562   7.137  1.4826  0.4975  0.7653
  292MOL0     H39393  12.918   8.410   7.166 -0.6182  0.9502 -1.3679
  292MOL0     H39394  12.948   8.657   7.341 -0.5428  0.6343  0.5709
  292MOL0     H39395  12.989   8.475   7.392  1.5486 -1.2490 -1.3342
  292MOL0     H39396  13.086   8.630   7.138  0.9041 -2.5292 -2.3899
  292MOL0     H39397  13.131   8.465   7.196  0.2271 -0.5249 -1.6385
  292MOL0     H39398  13.231   8.608   7.410  3.1406 -1.8449 -0.1878
  292MOL0     H39399  13.307   8.595   7.256 -0.8701  2.3117 -3.3305
  292MOL0     H39400  12.097   8.266   7.476  3.7191  1.7365 -0.6144
  292MOL0     H39401  11.875   8.215   7.397  1.0964 -0.6518  0.8238
  292MOL0     H39402  11.527   8.330   7.190 -1.3302  0.9719  3.4707
  292MOL0     H39403  11.274   8.293   7.225 -0.0415 -0.3894 -0.8795
  292MOL0     H39404   9.852   7.127   7.356  1.9149 -0.7702 -0.2231
  292MOL0     H39405   9.647   7.053   7.256  1.3910  1.3735  0.4406
  292MOL0     H39406   9.308   6.815   7.461  2.1567  2.6016 -3.7436
  292MOL0     H39407   9.069   6.776   7.478  0.4197 -2.2585  2.5728
  292MOL0     H39408   8.881   6.462   7.324  2.1450 -0.0501 -1.6519
  292MOL0     H39409   8.867   6.558   7.166  3.5646 -0.4088  1.0399
  292MOL0     H39410   8.638   6.513   7.224 -1.6016 -0.4848  0.6972
  292MOL0     H39411   8.666   6.675   7.276  0.6264 -0.4158 -1.5909
  292MOL0     H39412   8.707   6.572   7.519  0.9153 -2.7368  0.9933
  292MOL0     H39413   8.682   6.421   7.458  0.0158  0.8158  1.1489
  292MOL0     H39414   8.501   6.553   7.570  2.7662  0.8702 -0.1675
  292MOL0     H39415   8.472   6.630   7.412  1.5227 -0.2504 -2.6806
  292MOL0     H39416   8.322   6.240   7.326 -0.0616 -0.0110 -0.2779
  292MOL0     H39417   9.089   6.504   7.149  0.2660  0.1874  0.5044
  292MOL0     H39418   9.420   6.578   7.041 -0.3174 -1.6306 -0.4845
  292MOL0     H39419   9.390   6.431   7.128  2.6061 -0.5692 -2.4144
  292MOL0     H39420   9.266   6.494   7.019 -0.5420 -2.2470  1.9947
  293MOL0     O39421   2.732   7.194   4.849  0.3403 -0.2142  0.0331
  293MOL0     C39422   2.688   7.304   4.815  0.0241 -0.8396  0.4078
  293MOL0     O39423   2.758   7.410   4.766  0.5108 -0.2416 -0.2173
  293MOL0     C39424   2.886   7.401   4.737 -0.1965 -0.2515  0.0232
  293MOL0     C39425   2.928   7.294   4.665 -0.1271 -0.9925  0.8841
  293MOL0     C39426   3.067   7.286   4.628  0.1176 -0.9886  0.7966
  293MOL0     C39427   3.155   7.392   4.657 -0.2015  0.3768 -1.0035
  293MOL0     O39428   3.275   7.386   4.600 -0.4717  0.7844  0.5982
  293MOL0     C39429   3.370   7.492   4.619  0.9663  0.5339 -0.2691
  293MOL0     C39430   3.475   7.470   4.504 -0.5780 -0.1460 -0.7940
  293MOL0     C39431   3.550   7.336   4.515  0.0362  1.2072  0.0139
  293MOL0     C39432   3.696   7.336   4.463  0.2522  0.4836 -0.5965
  293MOL0     C39433   3.765   7.202   4.475 -0.6697 -0.0638 -1.1603
  293MOL0     C39434   3.887   7.190   4.376  0.2640  0.9788  0.9677
  293MOL0     C39435   3.949   7.049   4.408 -0.8322  0.4798 -0.5155
  293MOL0     C39436   4.101   7.033   4.372  0.0053 -0.0810  0.2594
  293MOL0     N39437   4.139   6.890   4.388  0.2494 -0.2094 -0.1446
  293MOL0     C39438   4.255   6.828   4.364 -0.6908  0.6909  1.0947
  293MOL0     C39439   4.257   6.712   4.429  0.0693  0.3123 -0.1789
  293MOL0     C39440   4.363   6.606   4.415  0.6921  0.5400 -0.4448
  293MOL0     C39441   4.506   6.649   4.454 -0.3591 -0.3207  0.0853
  293MOL0     C39442   4.587   6.701   4.336  0.8007 -0.1592 -0.5580
  293MOL0     C39443   4.719   6.751   4.393 -0.1076 -0.0934 -0.3899
  293MOL0     O39444   4.787   6.818   4.283 -0.8803  0.3484 -0.1963
  293MOL0     C39445   4.907   6.879   4.314  0.0036  0.2667  0.6240
  293MOL0     C39446   4.955   6.887   4.442  0.1485  1.1954  0.6036
  293MOL0     C39447   5.082   6.954   4.466  0.9354 -0.5653  0.0113
  293MOL0     C39448   5.142   7.020   4.359 -1.1379 -0.1772 -0.4339
  293MOL0     C39449   5.267   7.095   4.394  0.1987 -0.1648 -0.5648
  293MOL0     O39450   5.361   7.108   4.286  0.5953 -0.1210 -0.7331
  293MOL0     C39451   5.460   7.191   4.323  0.1056 -0.5854 -0.3870
  293MOL0     C39452   5.583   7.139   4.332  0.3051 -0.4091 -0.0394
  293MOL0     C39453   5.693   7.224   4.330 -0.0450  0.1051 -0.0027
  293MOL0     C39454   5.682   7.363   4.316 -0.3674  0.3338  0.2128
  293MOL0     O39455   5.801   7.438   4.308 -0.0161 -0.2013  0.6657
  293MOL0     C39456   5.796   7.581   4.294  0.0066 -0.5794  0.0899
  293MOL0     C39457   5.777   7.664   4.424 -0.6004  0.6142  0.1822
  293MOL0     C39458   5.911   7.663   4.504 -0.3214 -0.1662 -0.0416
  293MOL0     C39459   5.898   7.536   4.599 -0.9893  0.5342 -0.1186
  293MOL0     C39460   6.020   7.518   4.699  1.0662  0.9202  0.0969
  293MOL0     C39461   6.161   7.529   4.633 -0.3363  0.3581  0.4937
  293MOL0     C39462   6.267   7.494   4.739  0.5649  0.3914 -0.4552
  293MOL0     C39463   6.401   7.476   4.677  0.0321 -0.1024  0.4929
  293MOL0    Cl39464   6.470   7.632   4.683 -0.3856 -0.4060 -0.1833
  293MOL0     C39465   5.558   7.415   4.308 -0.5137  0.2713  0.7985
  293MOL0     C39466   5.443   7.329   4.326 -0.7045 -0.3269 -1.1563
  293MOL0     O39467   5.283   7.139   4.508 -0.0503  0.3173 -0.0630
  293MOL0     C39468   5.094   7.005   4.231  0.1188 -0.5212 -0.6412
  293MOL0     C39469   4.979   6.935   4.210 -0.6443 -0.3648  0.2751
  293MOL0     N39470   4.139   6.691   4.496 -1.0133 -0.7142  1.1020
  293MOL0     N39471   4.070   6.800   4.468 -0.2212 -0.9867  0.3297
  293MOL0     C39472   3.105   7.507   4.725  0.9153  0.4624 -0.0343
  293MOL0     C39473   2.974   7.504   4.771  0.6308 -0.6025 -0.1891
  293MOL0     C39474   2.542   7.322   4.820 -0.1142  0.7503  0.7271
  293MOL0     C39475   2.493   7.453   4.806 -1.5462  0.2273 -0.0510
  293MOL0     C39476   2.359   7.483   4.820 -0.1240  0.4240  0.1763
  293MOL0     C39477   2.265   7.375   4.840  0.7639 -0.0559 -0.1163
  293MOL0     O39478   2.127   7.396   4.851 -0.0959 -0.5158  0.1034
  293MOL0     C39479   2.071   7.522   4.814 -0.0021 -0.0832  0.1601
  293MOL0     C39480   1.926   7.550   4.831  0.7990  0.0405  0.0140
  293MOL0     C39481   1.828   7.458   4.754 -1.2622 -0.5981  0.1529
  293MOL0     C39482   1.780   7.338   4.832  0.2288  0.8285 -0.2053
  293MOL0     C39483   1.686   7.248   4.771 -0.2657 -0.5426  0.1029
  293MOL0     C39484   1.605   7.168   4.749  0.7550  0.3177  0.0916
  293MOL0     C39485   2.311   7.238   4.841  1.2388  0.3357 -0.2928
  293MOL0     C39486   2.449   7.216   4.832 -0.1168  0.8816  1.1105
  293MOL0     C39487   2.482   7.070   4.842 -0.9990  0.3355 -0.0277
  293MOL0     H39488   2.861   7.224   4.617  2.1251 -2.6413 -0.0640
  293MOL0     H39489   3.095   7.197   4.572  0.3484 -1.5008  1.7169
  293MOL0     H39490   3.317   7.588   4.617 -1.4017 -0.6659  1.4352
  293MOL0     H39491   3.409   7.489   4.721  0.5271 -1.9778 -0.1282
  293MOL0     H39492   3.554   7.544   4.519 -0.8632 -0.1838  1.0025
  293MOL0     H39493   3.437   7.495   4.404  1.8385 -0.6723 -1.9159
  293MOL0     H39494   3.500   7.257   4.459  1.1419  2.4304 -2.9380
  293MOL0     H39495   3.553   7.296   4.617  0.8688  0.8650 -0.1406
  293MOL0     H39496   3.678   7.352   4.356 -3.1332  1.4588 -0.0005
  293MOL0     H39497   3.748   7.412   4.522 -0.7751  0.3404  0.5295
  293MOL0     H39498   3.798   7.194   4.578 -0.4066  3.6088 -0.8161
  293MOL0     H39499   3.694   7.120   4.464 -1.5827  0.5978 -0.3383
  293MOL0     H39500   3.843   7.184   4.276 -5.2335  1.0801  3.0280
  293MOL0     H39501   3.962   7.269   4.381  2.1068 -0.5250 -0.7842
  293MOL0     H39502   3.886   6.976   4.357  2.2589 -2.5074 -0.4046
  293MOL0     H39503   3.941   7.024   4.514 -0.2128  4.1640  0.5545
  293MOL0     H39504   4.119   7.052   4.266 -0.7786 -1.4944 -0.1577
  293MOL0     H39505   4.166   7.100   4.429  1.2251 -1.2020  0.2337
  293MOL0     H39506   4.336   6.866   4.303 -1.4468  1.4622  0.5444
  293MOL0     H39507   4.334   6.520   4.476 -3.5812 -1.4456 -4.6572
  293MOL0     H39508   4.346   6.571   4.313 -1.5767  1.6786 -0.5222
  293MOL0     H39509   4.501   6.720   4.537 -2.7957  1.9530 -1.8484
  293MOL0     H39510   4.567   6.566   4.491 -0.6034  0.0594  1.4211
  293MOL0     H39511   4.526   6.774   4.283 -1.5859 -1.2701  0.5383
  293MOL0     H39512   4.604   6.619   4.266 -0.5647  1.0950 -2.4475
  293MOL0     H39513   4.768   6.667   4.443  0.8561  0.1820 -0.8598
  293MOL0     H39514   4.689   6.819   4.473  1.0649 -2.5332  2.2877
  293MOL0     H39515   4.904   6.840   4.526 -0.3642  0.9049  0.1402
  293MOL0     H39516   5.131   6.963   4.562  1.1789  0.3244 -0.1937
  293MOL0     H39517   5.585   7.031   4.329  0.4190 -0.4729 -4.1493
  293MOL0     H39518   5.791   7.184   4.355 -0.1288  0.8750  1.6785
  293MOL0     H39519   5.891   7.610   4.248  1.0421 -0.6752  2.0596
  293MOL0     H39520   5.721   7.619   4.225 -0.0226 -1.3788 -0.3266
  293MOL0     H39521   5.756   7.766   4.390 -0.2170 -0.2494 -2.8962
  293MOL0     H39522   5.700   7.609   4.478  0.5979 -2.5112 -1.0367
  293MOL0     H39523   6.004   7.659   4.446 -0.5276 -1.3892 -0.3192
  293MOL0     H39524   5.917   7.754   4.563  6.0658 -0.5136  0.5619
  293MOL0     H39525   5.897   7.440   4.546  3.6125 -0.9302  1.9597
  293MOL0     H39526   5.805   7.543   4.656 -1.1280 -0.5260 -0.2038
  293MOL0     H39527   6.010   7.425   4.755  0.6226  1.2163  0.5201
  293MOL0     H39528   6.008   7.586   4.784 -0.2581  0.7403  0.0623
  293MOL0     H39529   6.168   7.468   4.542  0.5264  1.8858 -0.5044
  293MOL0     H39530   6.175   7.633   4.601 -1.1417  0.7113  1.2461
  293MOL0     H39531   6.231   7.396   4.771  0.7721  0.1184 -1.0378
  293MOL0     H39532   6.269   7.560   4.826 -2.6862  2.3392 -1.6863
  293MOL0     H39533   6.474   7.409   4.721  2.6489  1.9962 -0.3768
  293MOL0     H39534   6.388   7.439   4.575 -0.9651  5.1727 -1.6275
  293MOL0     H39535   5.535   7.514   4.269 -0.8178 -1.0896 -2.7798
  293MOL0     H39536   5.343   7.372   4.325  0.9675  4.0506 -0.8505
  293MOL0     H39537   5.151   7.046   4.149  1.5211  1.5875  1.2583
  293MOL0     H39538   4.951   6.930   4.105  0.0717  2.4054 -0.1205
  293MOL0     H39539   3.163   7.597   4.745  0.6394  0.1565  2.3909
  293MOL0     H39540   2.940   7.593   4.824 -1.6655 -1.6853  0.2680
  293MOL0     H39541   2.562   7.536   4.797  0.5131 -1.2555  1.1447
  293MOL0     H39542   2.337   7.589   4.810  0.0795  0.3527 -1.3680
  293MOL0     H39543   2.100   7.546   4.711 -0.4408 -0.0080  0.0560
  293MOL0     H39544   2.108   7.607   4.872 -2.4921  1.4253 -0.3454
  293MOL0     H39545   1.899   7.650   4.796  2.8267  1.5795  2.5086
  293MOL0     H39546   1.905   7.539   4.938  1.9683 -2.4396  0.0604
  293MOL0     H39547   1.878   7.432   4.661  2.7381 -0.3075  2.0091
  293MOL0     H39548   1.738   7.512   4.724  0.2193 -0.8366 -5.8260
  293MOL0     H39549   1.857   7.271   4.873 -0.1259  0.5296 -0.0298
  293MOL0     H39550   1.732   7.381   4.920  1.7999 -1.7119  2.0640
  293MOL0     H39551   1.517   7.108   4.753  0.8019  0.3305  3.4076
  293MOL0     H39552   2.235   7.159   4.841  2.0636 -0.4966  1.2382
  293MOL0     H39553   2.542   7.042   4.754  0.6718  0.9392  0.8919
  293MOL0     H39554   2.538   7.044   4.932  1.1497 -1.4041 -1.7317
  293MOL0     H39555   2.392   7.007   4.842 -2.8687  2.8594  0.8393
  294MOL0     O39556   1.992   1.906   7.798  0.5415  0.2079  0.3067
  294MOL0     C39557   1.939   1.795   7.804  0.7654 -0.4573  0.4895
  294MOL0     O39558   1.999   1.680   7.767 -0.3864  0.0126  0.0519
  294MOL0     C39559   2.098   1.678   7.671 -0.0706  0.9132 -0.1012
  294MOL0     C39560   2.226   1.622   7.703  0.6420 -0.5195  0.5097
  294MOL0     C39561   2.334   1.642   7.617  0.2228  0.9412  0.5095
  294MOL0     C39562   2.321   1.710   7.491 -0.0774  0.6515  0.1824
  294MOL0     O39563   2.415   1.720   7.384  0.0094  0.1041  0.7417
  294MOL0     C39564   2.556   1.691   7.402 -0.1456 -0.0625 -1.2063
  294MOL0     C39565   2.622   1.701   7.269  0.1424 -0.1539 -0.6747
  294MOL0     C39566   2.764   1.654   7.280  0.5309  0.5541 -0.2586
  294MOL0     C39567   2.827   1.621   7.143  0.6490  0.4485  0.6040
  294MOL0     C39568   2.971   1.556   7.153  0.2269  0.3276  0.9608
  294MOL0     C39569   3.047   1.535   7.020 -0.1498 -0.4613 -0.3294
  294MOL0     C39570   3.192   1.537   7.046 -0.3549 -0.8454  0.3380
  294MOL0     C39571   3.283   1.518   6.927 -0.2750 -0.9141 -0.7399
  294MOL0     N39572   3.417   1.555   6.964  0.3127  0.0618  0.0937
  294MOL0     C39573   3.488   1.503   7.079 -0.1915 -0.4768 -0.3580
  294MOL0     C39574   3.619   1.545   7.062 -0.4195  0.5441 -0.4297
  294MOL0     C39575   3.741   1.509   7.138 -0.4659  0.6730 -0.3335
  294MOL0     C39576   3.787   1.360   7.113 -0.1619 -0.3419  0.0409
  294MOL0     C39577   3.926   1.335   7.185  0.0133  0.3299 -0.2354
  294MOL0     C39578   3.978   1.188   7.171  0.7758  0.1556 -0.4462
  294MOL0     O39579   4.053   1.181   7.037  0.3094  0.0787  0.4831
  294MOL0     C39580   4.181   1.135   7.048 -0.0505 -0.1590 -1.1280
  294MOL0     C39581   4.205   1.012   7.103  0.1833  0.5191 -0.0826
  294MOL0     C39582   4.339   0.965   7.125  0.4479 -0.4311 -0.6976
  294MOL0     C39583   4.450   1.040   7.075  0.5296 -1.1242  0.0708
  294MOL0     C39584   4.590   0.975   7.060  1.0431 -0.9403 -0.7430
  294MOL0     O39585   4.695   1.053   7.033  0.0317 -1.1556 -0.6872
  294MOL0     C39586   4.823   0.995   7.022  0.8210  0.5437  0.4764
  294MOL0     C39587   4.875   0.974   6.897  0.1333  0.3132 -0.0812
  294MOL0     C39588   5.005   0.934   6.874 -0.2857  0.8568 -0.2900
  294MOL0     C39589   5.081   0.897   6.988 -0.1844 -0.2509 -0.5739
  294MOL0     O39590   5.206   0.850   6.988  0.0702 -1.0644  0.7387
  294MOL0     C39591   5.269   0.863   6.856 -0.1488 -0.3659  0.2485
  294MOL0     C39592   5.413   0.816   6.852 -0.1135 -0.0794 -0.5732
  294MOL0     C39593   5.481   0.885   6.748 -1.0257 -1.0977  0.7384
  294MOL0     C39594   5.631   0.837   6.744 -0.5501  0.1828 -0.1662
  294MOL0     C39595   5.702   0.910   6.631 -0.2644  0.0238  0.3140
  294MOL0     C39596   5.846   0.871   6.612  0.2087 -0.3393  0.0750
  294MOL0     C39597   5.910   0.927   6.487  1.2181 -0.0802  0.4003
  294MOL0     C39598   6.049   0.879   6.459 -0.1546  0.6887 -0.1219
  294MOL0    Cl39599   6.138   1.022   6.435 -0.1050 -0.3229  0.2480
  294MOL0     C39600   5.025   0.921   7.123 -0.8466  0.2251 -0.5087
  294MOL0     C39601   4.897   0.971   7.129  0.8512 -0.6509  0.1046
  294MOL0     O39602   4.592   0.852   7.067  0.5893  1.0374 -0.6135
  294MOL0     C39603   4.419   1.173   7.028 -0.5819 -0.5851 -0.3149
  294MOL0     C39604   4.288   1.215   7.006  0.5869  0.3297 -0.0978
  294MOL0     N39605   3.619   1.623   6.949 -0.8298 -0.1757 -0.1613
  294MOL0     N39606   3.504   1.628   6.889 -0.3488 -0.6198 -0.5576
  294MOL0     C39607   2.191   1.737   7.449 -0.0217  0.0396  0.0894
  294MOL0     C39608   2.089   1.732   7.542 -0.3620 -0.7484 -0.4394
  294MOL0     C39609   1.795   1.787   7.832  0.2015  0.2527  0.4869
  294MOL0     C39610   1.728   1.666   7.795  0.2869 -0.2900  0.3428
  294MOL0     C39611   1.589   1.670   7.792  0.2746  0.3743  0.6033
  294MOL0     C39612   1.516   1.776   7.834  0.2461 -0.2427 -0.1717
  294MOL0     O39613   1.380   1.769   7.826  0.3067  0.1656 -0.2692
  294MOL0     C39614   1.312   1.663   7.764  0.2277 -0.1860 -0.0062
  294MOL0     C39615   1.170   1.716   7.761 -0.2531  0.0288 -0.6197
  294MOL0     C39616   1.118   1.768   7.904 -0.2427 -0.0393  0.1025
  294MOL0     C39617   0.966   1.783   7.894  0.3385  0.3940  0.0458
  294MOL0     C39618   0.906   1.818   8.027 -0.2023  0.0453 -0.1477
  294MOL0     C39619   0.842   1.850   8.129 -0.8342 -0.5585  0.6401
  294MOL0     C39620   1.585   1.878   7.887  0.3758  0.2118  0.1379
  294MOL0     C39621   1.723   1.888   7.889 -0.2090 -0.2108 -0.1232
  294MOL0     C39622   1.787   2.001   7.968  0.9422  0.0032 -0.3173
  294MOL0     H39623   2.256   1.570   7.794  3.2880  1.0839  0.6633
  294MOL0     H39624   2.422   1.582   7.639  0.6417  1.0220 -0.8324
  294MOL0     H39625   2.597   1.766   7.470 -2.3023  1.4589 -1.4768
  294MOL0     H39626   2.557   1.591   7.446 -1.8468  0.6849  0.7314
  294MOL0     H39627   2.611   1.801   7.225 -2.5533  1.2805  2.8487
  294MOL0     H39628   2.571   1.632   7.201 -0.4115 -0.4158 -0.0027
  294MOL0     H39629   2.768   1.560   7.336  1.2019  2.3985  3.0576
  294MOL0     H39630   2.820   1.736   7.328  1.2931  0.9394 -1.7383
  294MOL0     H39631   2.759   1.563   7.080  0.0497 -0.3072  1.9098
  294MOL0     H39632   2.847   1.719   7.098 -0.8083 -0.5661 -2.5094
  294MOL0     H39633   3.041   1.606   7.221  2.0352 -2.2453  1.1350
  294MOL0     H39634   2.960   1.456   7.195 -0.2460 -0.6124 -1.2776
  294MOL0     H39635   3.012   1.438   6.983  0.6549 -0.9065  0.0611
  294MOL0     H39636   3.011   1.615   6.954 -3.1317  0.0832  1.7330
  294MOL0     H39637   3.211   1.464   7.125 -4.5316 -2.4735  0.0983
  294MOL0     H39638   3.224   1.629   7.096  0.5999 -2.1631  2.2787
  294MOL0     H39639   3.277   1.415   6.890  1.1701  0.2781 -4.9383
  294MOL0     H39640   3.257   1.588   6.846 -0.2308 -0.9490 -0.7845
  294MOL0     H39641   3.444   1.450   7.163  1.8549 -0.2684  0.8973
  294MOL0     H39642   3.815   1.586   7.112 -1.3385  2.1275  1.2227
  294MOL0     H39643   3.744   1.521   7.247  5.0043 -0.5069 -0.0637
  294MOL0     H39644   3.710   1.294   7.154 -1.0039 -0.1840 -1.2501
  294MOL0     H39645   3.804   1.339   7.007  0.6415 -0.9908  0.2850
  294MOL0     H39646   3.917   1.354   7.292  2.3153  1.4777 -0.2038
  294MOL0     H39647   3.994   1.411   7.146 -0.4184 -0.2179 -2.1477
  294MOL0     H39648   3.892   1.124   7.191 -0.8975  2.5957  0.5163
  294MOL0     H39649   4.045   1.180   7.257 -2.4890  1.5712  2.4723
  294MOL0     H39650   4.118   0.954   7.132  0.9617 -1.3781 -1.3646
  294MOL0     H39651   4.341   0.869   7.175 -0.7438  0.1322  0.4978
  294MOL0     H39652   4.811   1.003   6.814 -0.4145  3.6199  1.3155
  294MOL0     H39653   5.031   0.898   6.775  1.8040 -2.4051  1.2629
  294MOL0     H39654   5.207   0.808   6.785 -2.5509  0.1219  1.8152
  294MOL0     H39655   5.260   0.969   6.829 -1.0578 -0.2402  0.9893
  294MOL0     H39656   5.452   0.859   6.945  1.1286 -0.9099 -0.6839
  294MOL0     H39657   5.433   0.709   6.852 -0.1835 -0.0971  0.2224
  294MOL0     H39658   5.435   0.879   6.650 -0.0157 -2.0052  0.2944
  294MOL0     H39659   5.470   0.990   6.775 -0.8004 -1.1241  0.9415
  294MOL0     H39660   5.626   0.729   6.731  2.2509  0.1798 -2.0332
  294MOL0     H39661   5.693   0.860   6.831 -0.6726  1.9875 -0.5172
  294MOL0     H39662   5.698   1.016   6.659  2.5946 -0.0469  1.3225
  294MOL0     H39663   5.639   0.897   6.542  1.3415 -1.7613 -0.6225
  294MOL0     H39664   5.919   0.896   6.690  1.9966  0.9125 -1.8944
  294MOL0     H39665   5.849   0.762   6.603  0.5175 -0.3385  0.1455
  294MOL0     H39666   5.901   1.035   6.501 -0.7767 -0.0980 -0.4428
  294MOL0     H39667   5.850   0.896   6.401  0.3228 -0.0138  0.9868
  294MOL0     H39668   6.109   0.830   6.536  3.5590  1.0199 -2.5640
  294MOL0     H39669   6.051   0.816   6.369  1.4222 -0.2235  0.5081
  294MOL0     H39670   5.095   0.916   7.206 -0.0969 -0.5558 -1.1652
  294MOL0     H39671   4.853   0.990   7.226  0.5970 -0.0007 -0.1324
  294MOL0     H39672   4.496   1.240   6.990  0.4565  0.0305  2.5949
  294MOL0     H39673   4.274   1.313   6.961  3.3786  2.1509  2.6333
  294MOL0     H39674   2.162   1.764   7.348 -1.0064 -0.9623  0.0829
  294MOL0     H39675   1.994   1.773   7.512  0.4660 -0.4722 -2.8872
  294MOL0     H39676   1.787   1.579   7.770  2.1304  1.2582 -1.0950
  294MOL0     H39677   1.555   1.576   7.750  1.2905  0.1666  0.2221
  294MOL0     H39678   1.325   1.567   7.815  3.5334 -0.9816 -2.0845
  294MOL0     H39679   1.356   1.660   7.665  2.9157 -1.1113  1.1264
  294MOL0     H39680   1.108   1.640   7.712  0.6737  1.0672 -3.6242
  294MOL0     H39681   1.151   1.796   7.688  0.2480 -0.1066 -0.9069
  294MOL0     H39682   1.161   1.863   7.937 -1.1422  0.1519  0.7428
  294MOL0     H39683   1.138   1.704   7.991  2.8308 -1.3669 -1.4042
  294MOL0     H39684   0.951   1.866   7.823 -1.5519 -0.5966 -0.7921
  294MOL0     H39685   0.925   1.690   7.855 -0.5738 -0.3568  2.6708
  294MOL0     H39686   0.778   1.864   8.214  1.2331 -1.5546  2.4621
  294MOL0     H39687   1.523   1.950   7.941  0.4761  0.5853 -0.2418
  294MOL0     H39688   1.896   2.015   7.966  1.4226 -3.0400 -1.4050
  294MOL0     H39689   1.741   2.094   7.937 -2.2513 -1.3647 -0.0609
  294MOL0     H39690   1.755   1.986   8.072  1.6721 -0.6993 -0.1821
  295MOL0     O39691   5.315   2.338   8.216 -0.4634  0.4354 -1.2643
  295MOL0     C39692   5.253   2.435   8.179 -0.2104 -1.3890  0.4606
  295MOL0     O39693   5.246   2.556   8.245 -0.0046  0.0528  1.3027
  295MOL0     C39694   5.334   2.571   8.348 -0.0943  0.0526 -0.5042
  295MOL0     C39695   5.411   2.687   8.345 -0.2287 -0.0825 -0.1669
  295MOL0     C39696   5.505   2.707   8.445 -0.4061 -0.2195 -0.2811
  295MOL0     C39697   5.525   2.616   8.548  0.0826  0.5272 -0.7211
  295MOL0     O39698   5.632   2.645   8.635  0.1784 -0.2000  0.2097
  295MOL0     C39699   5.654   2.562   8.753 -0.7686 -0.9949  0.2516
  295MOL0     C39700   5.592   2.610   8.884  0.1054  0.5869  0.5771
  295MOL0     C39701   5.661   2.553   9.008  0.1760 -0.7589 -0.1057
  295MOL0     C39702   5.588   2.582   9.138 -0.7800  1.2201  0.5183
  295MOL0     C39703   5.644   2.501   9.254 -0.4784 -0.2835 -0.2820
  295MOL0     C39704   5.623   2.567   9.392  0.2639 -0.0525 -0.0768
  295MOL0     C39705   5.475   2.613   9.400  0.2256  0.5385 -0.3938
  295MOL0     C39706   5.437   2.681   9.526  0.4397 -1.4502 -0.2232
  295MOL0     N39707   5.497   2.821   9.538  0.7184  0.0118 -0.4290
  295MOL0     C39708   5.433   2.933   9.498  0.3868 -1.1071  0.0301
  295MOL0     C39709   5.520   3.038   9.497 -0.4028 -0.9418 -0.1448
  295MOL0     C39710   5.482   3.175   9.462 -0.1174 -0.1649 -0.4657
  295MOL0     C39711   5.480   3.257   9.585 -0.1231 -0.5162 -0.2059
  295MOL0     C39712   5.617   3.310   9.644 -0.6592 -1.0705  0.4477
  295MOL0     C39713   5.698   3.386   9.534 -0.0864  0.0282 -0.9407
  295MOL0     O39714   5.611   3.488   9.483 -0.2885  0.0030  0.5240
  295MOL0     C39715   5.642   3.533   9.358  0.1850  0.0229  0.1755
  295MOL0     C39716   5.560   3.634   9.305 -0.4883 -0.0931 -0.3228
  295MOL0     C39717   5.563   3.683   9.175  0.2104 -0.2029  0.2781
  295MOL0     C39718   5.660   3.634   9.089  0.3981 -1.1996  0.0776
  295MOL0     C39719   5.673   3.676   8.947  0.7364 -0.8905  0.4779
  295MOL0     O39720   5.777   3.628   8.870  0.4188  0.2512 -0.2680
  295MOL0     C39721   5.799   3.658   8.734  0.2374  0.3874  0.1080
  295MOL0     C39722   5.711   3.642   8.627  0.3285 -0.8299 -1.0373
  295MOL0     C39723   5.753   3.671   8.495  0.1987  0.6577 -0.3530
  295MOL0     C39724   5.878   3.733   8.472  0.1951  0.2384  0.9111
  295MOL0     O39725   5.920   3.776   8.347  0.4094 -0.7002 -0.1223
  295MOL0     C39726   5.824   3.764   8.241  0.4011  0.2957  0.1382
  295MOL0     C39727   5.886   3.820   8.112  0.6387  0.2294  0.0917
  295MOL0     C39728   6.007   3.742   8.063 -0.4856  0.0766 -0.6092
  295MOL0     C39729   6.076   3.804   7.952 -1.1783 -0.2661  0.3856
  295MOL0     C39730   6.198   3.742   7.886  0.0554 -0.0396 -1.0187
  295MOL0     C39731   6.268   3.824   7.773  0.2974  0.8409  0.3676
  295MOL0     C39732   6.241   3.760   7.642  0.2525 -0.0964  0.4929
  295MOL0     C39733   6.301   3.833   7.517 -0.7591  0.0026 -0.1084
  295MOL0    Cl39734   6.478   3.786   7.493 -0.0380 -0.2643  0.2130
  295MOL0     C39735   5.957   3.755   8.582 -0.0276 -0.7222 -0.6503
  295MOL0     C39736   5.916   3.716   8.710  0.1839  0.4766 -0.1593
  295MOL0     O39737   5.586   3.755   8.904  0.4232  0.5301 -0.7208
  295MOL0     C39738   5.743   3.526   9.130 -0.0144 -0.7893 -0.2110
  295MOL0     C39739   5.731   3.482   9.266 -0.6284  0.8275 -0.0556
  295MOL0     N39740   5.651   2.979   9.529  0.4363  0.2683  0.0041
  295MOL0     N39741   5.628   2.853   9.558 -0.1402  0.1317  0.7419
  295MOL0     C39742   5.442   2.502   8.556  0.3683 -0.2653  0.3604
  295MOL0     C39743   5.339   2.485   8.462 -0.6307 -0.5417 -0.8742
  295MOL0     C39744   5.147   2.414   8.065  0.5380 -0.7809 -0.8146
  295MOL0     C39745   5.054   2.516   8.058  0.6561 -1.4983 -0.2404
  295MOL0     C39746   4.955   2.517   7.959 -0.2054  0.1804  1.1201
  295MOL0     C39747   4.943   2.404   7.878  0.2173  0.7030 -0.1482
  295MOL0     O39748   4.848   2.390   7.772 -0.0202 -0.5288 -0.1708
  295MOL0     C39749   4.735   2.476   7.766 -0.2519  0.3867 -0.7955
  295MOL0     C39750   4.770   2.609   7.701  1.4528 -0.3322  0.3054
  295MOL0     C39751   4.868   2.612   7.576  0.4219  0.7809 -0.6628
  295MOL0     C39752   4.779   2.615   7.455  0.0716  0.9416 -0.2964
  295MOL0     C39753   4.849   2.682   7.344 -0.2571  0.5290  0.1206
  295MOL0     C39754   4.889   2.743   7.249  0.5450  0.1281 -0.9994
  295MOL0     C39755   5.031   2.297   7.890  1.0885  0.2711  0.6704
  295MOL0     C39756   5.141   2.309   7.972  1.0475  0.0689 -0.3365
  295MOL0     C39757   5.253   2.212   7.966  0.8622 -0.1991 -0.7052
  295MOL0     H39758   5.399   2.753   8.259 -2.2068  1.1365  0.9789
  295MOL0     H39759   5.580   2.785   8.440  0.1667 -0.4628  2.9002
  295MOL0     H39760   5.627   2.457   8.733 -0.2340 -0.6519 -2.7560
  295MOL0     H39761   5.763   2.570   8.760 -0.7718 -2.0579  2.4220
  295MOL0     H39762   5.486   2.585   8.875  0.0043  1.5469 -1.4893
  295MOL0     H39763   5.597   2.719   8.883 -2.0744  0.7356 -0.9756
  295MOL0     H39764   5.765   2.586   9.005 -0.6675  2.2820  0.2197
  295MOL0     H39765   5.675   2.445   8.996 -0.3183 -0.9955  1.2588
  295MOL0     H39766   5.587   2.689   9.159 -0.2579  1.5006 -0.7912
  295MOL0     H39767   5.487   2.544   9.119 -0.2559  0.0701 -0.1051
  295MOL0     H39768   5.596   2.403   9.247 -1.2658  0.1760 -2.0108
  295MOL0     H39769   5.750   2.484   9.235  0.2689  0.0419  3.0112
  295MOL0     H39770   5.633   2.492   9.471  1.5403  0.0677 -0.1054
  295MOL0     H39771   5.687   2.655   9.407 -0.4563  0.6800 -1.0920
  295MOL0     H39772   5.408   2.529   9.380 -0.7826  1.0185  0.7962
  295MOL0     H39773   5.436   2.682   9.325 -0.1631  1.2813  0.4622
  295MOL0     H39774   5.329   2.696   9.511  0.8959  0.9494 -1.7799
  295MOL0     H39775   5.458   2.627   9.619 -1.1369  0.4096  1.3250
  295MOL0     H39776   5.325   2.936   9.483  0.6373 -1.6291 -2.1584
  295MOL0     H39777   5.556   3.210   9.389  1.1637 -0.2465  0.7524
  295MOL0     H39778   5.390   3.167   9.403 -0.4997  0.7012 -0.0086
  295MOL0     H39779   5.416   3.342   9.559  1.0024  0.0294 -1.3181
  295MOL0     H39780   5.423   3.203   9.661 -1.6487  1.6444  0.2960
  295MOL0     H39781   5.682   3.227   9.672  1.7134  0.8144  0.8984
  295MOL0     H39782   5.606   3.374   9.732 -2.6460  2.6915 -2.2522
  295MOL0     H39783   5.720   3.315   9.454 -0.2631  2.4547 -3.2389
  295MOL0     H39784   5.789   3.433   9.572 -1.7452  2.0093  0.8861
  295MOL0     H39785   5.480   3.676   9.365 -1.9140 -2.8914 -0.0701
  295MOL0     H39786   5.490   3.756   9.142  1.5203  1.9840  1.9778
  295MOL0     H39787   5.615   3.595   8.646  0.8180 -0.5410  3.2035
  295MOL0     H39788   5.691   3.632   8.415 -0.7731 -1.7798  1.4407
  295MOL0     H39789   5.782   3.664   8.234 -0.7078  0.4581  3.2150
  295MOL0     H39790   5.733   3.819   8.267  0.0261  0.6890 -1.7958
  295MOL0     H39791   5.808   3.823   8.036  2.4918  0.1873 -1.9027
  295MOL0     H39792   5.923   3.922   8.125  3.0339  0.4055 -5.4542
  295MOL0     H39793   6.078   3.723   8.144 -0.7004 -1.5140 -0.7733
  295MOL0     H39794   5.966   3.645   8.032 -1.9047 -0.5594  2.7591
  295MOL0     H39795   6.104   3.902   7.991 -2.6549  0.1812  0.3754
  295MOL0     H39796   6.012   3.838   7.870  3.2876  0.8820 -3.0068
  295MOL0     H39797   6.170   3.640   7.856 -5.4749  0.5870  0.8338
  295MOL0     H39798   6.276   3.721   7.961 -0.5881 -0.1317 -0.3632
  295MOL0     H39799   6.243   3.931   7.774  3.7073  1.7834 -1.0020
  295MOL0     H39800   6.375   3.804   7.778  0.2014 -0.3526 -1.4645
  295MOL0     H39801   6.135   3.738   7.625 -0.0359 -0.0643  2.0616
  295MOL0     H39802   6.298   3.667   7.646 -0.9530 -1.0210 -1.7481
  295MOL0     H39803   6.236   3.814   7.431 -3.1529  0.5479  1.4873
  295MOL0     H39804   6.317   3.937   7.546 -0.1306 -0.4589  1.2689
  295MOL0     H39805   6.053   3.803   8.569  0.1014 -0.3366  1.3939
  295MOL0     H39806   5.988   3.711   8.791  0.6367  0.7369 -0.5439
  295MOL0     H39807   5.821   3.482   9.069  0.7468 -0.1851  0.3112
  295MOL0     H39808   5.798   3.402   9.296 -0.4378 -0.0044 -2.4816
  295MOL0     H39809   5.451   2.428   8.635 -0.8614 -0.0999  0.6738
  295MOL0     H39810   5.274   2.399   8.476 -1.6780  0.2166 -0.9400
  295MOL0     H39811   5.047   2.606   8.118 -0.2561  0.0231 -2.5012
  295MOL0     H39812   4.884   2.599   7.953 -1.1121 -0.6852 -0.5726
  295MOL0     H39813   4.687   2.500   7.861  1.8466 -0.6813  0.5913
  295MOL0     H39814   4.672   2.426   7.691  0.2439  0.6799 -1.4160
  295MOL0     H39815   4.815   2.673   7.778  1.3531 -1.2318  1.1335
  295MOL0     H39816   4.681   2.669   7.679  1.4804 -1.2617 -2.7850
  295MOL0     H39817   4.939   2.529   7.572 -0.9599 -0.4108 -2.4673
  295MOL0     H39818   4.928   2.703   7.581  0.1512  1.1382 -2.7857
  295MOL0     H39819   4.747   2.515   7.423  0.7677  0.5930  0.0630
  295MOL0     H39820   4.690   2.673   7.480  0.8997  1.3844  1.8101
  295MOL0     H39821   4.918   2.790   7.157 -0.4702 -0.6666 -1.7524
  295MOL0     H39822   5.009   2.201   7.845  0.0419  1.4452 -1.4615
  295MOL0     H39823   5.232   2.144   7.883 -5.0829 -0.9619  0.9666
  295MOL0     H39824   5.347   2.265   7.947 -0.8134  2.8503 -1.1298
  295MOL0     H39825   5.251   2.150   8.057 -2.0199  3.3118  1.9517
  296MOL0     O39826   6.405   7.347   1.185  0.0373  0.2632 -0.6114
  296MOL0     C39827   6.421   7.347   1.306  0.4784  1.1263  0.5065
  296MOL0     O39828   6.511   7.285   1.385 -0.3887 -0.0605 -0.2373
  296MOL0     C39829   6.612   7.203   1.328  0.3752  0.1781 -0.6084
  296MOL0     C39830   6.729   7.196   1.399  0.1048 -1.2313 -1.0295
  296MOL0     C39831   6.833   7.106   1.378 -0.1639 -0.8361  0.0526
  296MOL0     C39832   6.832   7.034   1.260  0.0369 -0.6875 -0.1277
  296MOL0     O39833   6.936   6.962   1.214  0.0535 -0.0862 -0.2968
  296MOL0     C39834   7.071   6.989   1.260 -0.1650 -0.5726  0.5026
  296MOL0     C39835   7.127   7.115   1.183 -0.1349 -1.1360 -0.2523
  296MOL0     C39836   7.285   7.120   1.178 -0.1532 -0.1647 -0.0789
  296MOL0     C39837   7.323   7.248   1.104 -0.1442  0.6896 -1.0061
  296MOL0     C39838   7.481   7.268   1.098 -0.3883  0.3540  0.3148
  296MOL0     C39839   7.558   7.186   0.988 -0.1381 -0.5065 -0.3836
  296MOL0     C39840   7.509   7.207   0.841 -1.8044  0.8213  0.1283
  296MOL0     C39841   7.498   7.351   0.791  0.1205  0.6157  0.2465
  296MOL0     N39842   7.618   7.433   0.807  0.1936 -0.4870  0.4445
  296MOL0     C39843   7.742   7.381   0.772  0.4777  0.7534  0.5104
  296MOL0     C39844   7.819   7.486   0.805 -0.2670 -0.3000 -0.0796
  296MOL0     C39845   7.968   7.479   0.781 -0.1949  0.1750  0.4972
  296MOL0     C39846   8.021   7.617   0.780  0.8050 -0.7681  0.3630
  296MOL0     C39847   8.170   7.623   0.761  0.5828 -0.1478 -1.1617
  296MOL0     C39848   8.207   7.765   0.719 -0.6384 -0.7622 -0.2324
  296MOL0     O39849   8.342   7.788   0.695  0.3197 -0.2782 -0.7811
  296MOL0     C39850   8.417   7.825   0.804  0.5138  0.7358  0.5844
  296MOL0     C39851   8.489   7.723   0.870  0.0203  0.6203  0.7876
  296MOL0     C39852   8.573   7.754   0.974 -0.5618 -0.1985 -0.0102
  296MOL0     C39853   8.581   7.885   1.019 -0.1863 -0.6567  0.1491
  296MOL0     C39854   8.652   7.909   1.152  1.0329 -0.4739 -0.3613
  296MOL0     O39855   8.676   8.045   1.179  0.5307  0.2891 -0.1312
  296MOL0     C39856   8.689   8.095   1.304  1.7206  0.3829 -0.0213
  296MOL0     C39857   8.622   8.041   1.420  0.0011  0.9558 -0.3184
  296MOL0     C39858   8.626   8.116   1.546 -0.1634  0.3740 -0.4119
  296MOL0     C39859   8.684   8.247   1.553 -0.2790  0.3647  0.4147
  296MOL0     O39860   8.694   8.315   1.678  0.6105  0.3268 -0.0107
  296MOL0     C39861   8.767   8.266   1.787 -0.4513 -0.4358 -0.0046
  296MOL0     C39862   8.915   8.259   1.745 -0.5488  0.0785 -0.2616
  296MOL0     C39863   9.003   8.210   1.858  0.6705 -0.4108 -1.1464
  296MOL0     C39864   9.150   8.210   1.827 -0.5380 -0.0115 -0.1544
  296MOL0     C39865   9.229   8.335   1.853 -0.4123  0.4833 -0.0213
  296MOL0     C39866   9.377   8.309   1.863  1.3064  0.0369 -0.0448
  296MOL0     C39867   9.458   8.422   1.904 -0.1299 -0.4995  0.4746
  296MOL0     C39868   9.611   8.390   1.883  0.1807 -0.5246  0.0460
  296MOL0    Cl39869   9.698   8.546   1.913  0.0443 -0.2358 -0.0723
  296MOL0     C39870   8.721   8.302   1.429  0.4435  0.2323  0.5792
  296MOL0     C39871   8.733   8.225   1.313 -0.3229  0.0190 -1.2334
  296MOL0     O39872   8.669   7.811   1.227  0.1201 -0.2841  0.6460
  296MOL0     C39873   8.518   7.987   0.949 -0.0124  0.9855 -0.8171
  296MOL0     C39874   8.443   7.955   0.841 -0.5876  0.0609  0.2988
  296MOL0     N39875   7.746   7.592   0.853 -0.0531  0.0799  0.1472
  296MOL0     N39876   7.618   7.559   0.851 -0.3042  0.2353 -0.9240
  296MOL0     C39877   6.720   7.051   1.168  0.6645 -0.5780 -0.3074
  296MOL0     C39878   6.603   7.123   1.213  0.0162 -0.1678  0.7827
  296MOL0     C39879   6.336   7.439   1.396  0.1675  0.3569  1.0180
  296MOL0     C39880   6.206   7.459   1.340 -0.0446 -0.3940  0.4700
  296MOL0     C39881   6.117   7.539   1.418 -0.4448  0.0171 -0.2986
  296MOL0     C39882   6.151   7.604   1.531 -0.2816  0.3275  0.3791
  296MOL0     O39883   6.049   7.671   1.590  0.0027 -0.3899  0.1309
  296MOL0     C39884   6.084   7.761   1.698  0.0248  0.2217  0.3789
  296MOL0     C39885   5.967   7.808   1.780  0.7022 -0.6776 -0.5746
  296MOL0     C39886   5.857   7.869   1.694  0.1627 -0.1853  0.8832
  296MOL0     C39887   5.740   7.910   1.773  0.0826 -0.8351 -0.0239
  296MOL0     C39888   5.617   7.902   1.688 -2.0649 -0.3582 -0.6225
  296MOL0     C39889   5.518   7.893   1.626 -0.3360 -0.5693  0.1309
  296MOL0     C39890   6.287   7.590   1.581 -0.3116  0.3702  0.1399
  296MOL0     C39891   6.373   7.506   1.512 -0.3477 -0.4123 -0.5413
  296MOL0     C39892   6.508   7.494   1.581 -0.4840  0.0193  0.5125
  296MOL0     H39893   6.737   7.255   1.490  1.4327  2.5648 -3.3674
  296MOL0     H39894   6.919   7.105   1.445 -0.4530 -0.6357  0.4267
  296MOL0     H39895   7.088   7.000   1.367  2.9216  3.8256 -0.1825
  296MOL0     H39896   7.134   6.905   1.228  0.5353 -0.1138  0.6753
  296MOL0     H39897   7.087   7.202   1.234 -0.0464 -0.4089 -1.3842
  296MOL0     H39898   7.082   7.110   1.083 -1.5780  0.6581  0.2654
  296MOL0     H39899   7.336   7.030   1.141  0.0268  0.0986 -0.4871
  296MOL0     H39900   7.315   7.136   1.282  0.1380  0.4319 -0.2466
  296MOL0     H39901   7.283   7.248   1.002  1.1674  0.6825 -1.5393
  296MOL0     H39902   7.285   7.338   1.155 -0.8873 -0.0623 -0.2026
  296MOL0     H39903   7.494   7.376   1.092  1.5415  0.1127 -0.3040
  296MOL0     H39904   7.522   7.234   1.194 -1.6635 -0.5866  0.5564
  296MOL0     H39905   7.664   7.212   1.000 -0.4671  1.7044 -1.6458
  296MOL0     H39906   7.538   7.082   1.012 -3.1803 -0.3618 -1.8771
  296MOL0     H39907   7.419   7.147   0.827 -1.5974  0.3905  0.6374
  296MOL0     H39908   7.591   7.165   0.782 -0.6122  1.1843  1.4606
  296MOL0     H39909   7.458   7.362   0.689  2.2479 -0.3575 -0.7552
  296MOL0     H39910   7.419   7.402   0.847 -0.6270  0.5300 -0.6908
  296MOL0     H39911   7.773   7.286   0.730 -0.2749  1.5140 -1.9887
  296MOL0     H39912   8.006   7.418   0.864 -2.2877  0.0428  1.4181
  296MOL0     H39913   7.992   7.426   0.688  2.5084  1.9681  0.0563
  296MOL0     H39914   7.971   7.671   0.698  2.2747 -0.3427 -0.2916
  296MOL0     H39915   7.997   7.666   0.875 -0.1890 -0.6717  0.0820
  296MOL0     H39916   8.202   7.550   0.686 -1.7537 -1.9656 -0.5141
  296MOL0     H39917   8.207   7.599   0.861 -0.6828  2.6442  0.0914
  296MOL0     H39918   8.167   7.847   0.780 -2.1535 -0.3710 -1.6674
  296MOL0     H39919   8.151   7.778   0.626 -1.0324 -2.3961 -0.2533
  296MOL0     H39920   8.473   7.623   0.830  2.7775 -0.2202  1.5431
  296MOL0     H39921   8.628   7.678   1.029  0.1599 -1.0752 -1.8339
  296MOL0     H39922   8.576   7.943   1.434 -1.1459  1.3254 -1.3661
  296MOL0     H39923   8.588   8.073   1.638 -1.0961  1.7397 -0.1425
  296MOL0     H39924   8.746   8.334   1.869 -2.4179  2.1286 -2.4313
  296MOL0     H39925   8.724   8.171   1.821 -0.3009 -0.0847  1.2065
  296MOL0     H39926   8.929   8.191   1.660 -0.6768 -1.7460  1.1191
  296MOL0     H39927   8.927   8.365   1.720  1.2567  0.0654  0.4170
  296MOL0     H39928   9.000   8.285   1.938 -2.2440 -0.3395 -1.2042
  296MOL0     H39929   8.967   8.120   1.907 -0.9147  1.0742  0.5840
  296MOL0     H39930   9.168   8.179   1.723  0.3245  0.1985 -0.0776
  296MOL0     H39931   9.187   8.132   1.894 -1.9148  0.1457  0.8306
  296MOL0     H39932   9.189   8.369   1.949 -1.4443 -0.0715 -0.2361
  296MOL0     H39933   9.196   8.403   1.774 -2.2000 -1.7568 -1.3469
  296MOL0     H39934   9.398   8.226   1.931  5.3673  0.6661 -0.2533
  296MOL0     H39935   9.418   8.274   1.768  1.9252 -3.9348  1.4672
  296MOL0     H39936   9.447   8.440   2.011  0.6371 -0.1625  0.5103
  296MOL0     H39937   9.428   8.515   1.855  0.8683  1.1452  2.8150
  296MOL0     H39938   9.658   8.316   1.947 -1.7376 -1.7261  0.1554
  296MOL0     H39939   9.630   8.368   1.778 -1.5225 -1.5013 -0.0982
  296MOL0     H39940   8.758   8.404   1.429 -0.8631  0.7548 -1.4927
  296MOL0     H39941   8.779   8.286   1.237  0.0056  1.3335 -0.0291
  296MOL0     H39942   8.510   8.087   0.990 -2.0231  1.4224 -2.1006
  296MOL0     H39943   8.395   8.032   0.782  1.7902  0.2413 -1.5441
  296MOL0     H39944   6.716   7.001   1.072  1.9192 -0.4215 -0.4581
  296MOL0     H39945   6.526   7.114   1.137  1.3973 -0.3951 -0.6372
  296MOL0     H39946   6.175   7.421   1.243  1.8593  4.7327 -2.5619
  296MOL0     H39947   6.018   7.553   1.377  0.4701 -0.1183 -2.7319
  296MOL0     H39948   6.131   7.847   1.648  2.0324 -2.0528 -1.9710
  296MOL0     H39949   6.157   7.715   1.766  1.1123  0.0531 -0.8559
  296MOL0     H39950   6.001   7.889   1.846 -0.8426  0.1223 -0.7020
  296MOL0     H39951   5.923   7.723   1.833  0.1526  1.5347  2.8180
  296MOL0     H39952   5.831   7.790   1.622  2.2305  0.2581 -0.4259
  296MOL0     H39953   5.893   7.961   1.648 -2.5601  0.7002  0.3183
  296MOL0     H39954   5.729   7.844   1.860 -0.7338  0.0369  0.5605
  296MOL0     H39955   5.734   8.016   1.803  0.8559 -0.2788 -1.7109
  296MOL0     H39956   5.419   7.873   1.592 -0.5950 -1.2932  1.2549
  296MOL0     H39957   6.323   7.654   1.660  1.9361 -0.7456  0.0703
  296MOL0     H39958   6.597   7.507   1.519  0.3306  1.1211  1.8364
  296MOL0     H39959   6.517   7.564   1.665 -2.2210  1.3596 -0.3535
  296MOL0     H39960   6.514   7.391   1.616 -2.4721  0.0679  1.1538
  297MOL0     O39961   9.813   5.182  10.293 -0.3335  0.2793 -0.7656
  297MOL0     C39962   9.747   5.094  10.240 -0.0450 -0.2748 -0.6191
  297MOL0     O39963   9.773   4.963  10.263  0.5771 -0.0886 -0.2177
  297MOL0     C39964   9.867   4.922  10.359 -0.1079  0.0025  0.2866
  297MOL0     C39965   9.866   4.958  10.491 -0.0073  0.0258  0.4453
  297MOL0     C39966   9.974   4.932  10.583 -0.9625 -0.1000 -0.1388
  297MOL0     C39967  10.078   4.855  10.537  0.4820  0.0766 -0.2476
  297MOL0     O39968  10.185   4.822  10.627  0.7161 -0.3364 -0.4869
  297MOL0     C39969  10.246   4.697  10.610  0.1783 -1.0832  0.2454
  297MOL0     C39970  10.351   4.669  10.713 -0.3911 -0.4232  0.3455
  297MOL0     C39971  10.449   4.789  10.738  0.8166  0.0448  1.0103
  297MOL0     C39972  10.550   4.766  10.856  0.5376 -0.3706  0.5420
  297MOL0     C39973  10.636   4.896  10.865 -0.2066  0.2399  0.7246
  297MOL0     C39974  10.714   4.910  10.993  0.2320  0.0217  0.6991
  297MOL0     C39975  10.789   5.046  11.000 -0.4778  0.5938 -0.1608
  297MOL0     C39976  10.874   5.057  11.122 -0.9934 -0.0913 -0.1108
  297MOL0     N39977  10.946   5.183  11.117 -0.4217 -0.3411 -0.0114
  297MOL0     C39978  11.084   5.200  11.097  0.1717  0.6192 -0.3255
  297MOL0     C39979  11.103   5.338  11.088  0.3487 -0.0924  0.2067
  297MOL0     C39980  11.227   5.398  11.046  0.0857 -0.0333  1.0181
  297MOL0     C39981  11.332   5.375  11.153  0.1140  0.2111 -0.1344
  297MOL0     C39982  11.332   5.505  11.236  0.0684  0.2541 -0.0730
  297MOL0     C39983  11.449   5.513  11.334  1.1617  0.1094 -1.0427
  297MOL0     O39984  11.573   5.497  11.272  0.4670 -0.2866  0.8502
  297MOL0     C39985  11.689   5.540  11.328 -0.4791 -0.1254 -0.7257
  297MOL0     C39986  11.806   5.463  11.306  0.0731  0.1418  0.0869
  297MOL0     C39987  11.917   5.485  11.386 -0.5434 -0.0020 -0.6228
  297MOL0     C39988  11.924   5.590  11.488 -0.0583  0.2140  0.0242
  297MOL0     C39989  12.056   5.620  11.551  0.3650  0.7525 -0.0670
  297MOL0     O39990  12.170   5.561  11.517 -0.3793  0.0954  0.1844
  297MOL0     C39991  12.297   5.616  11.522  0.1029  0.2986 -0.0265
  297MOL0     C39992  12.321   5.747  11.570  1.0963 -0.2326  0.4446
  297MOL0     C39993  12.452   5.783  11.574 -0.0673 -0.5034  0.3407
  297MOL0     C39994  12.561   5.710  11.524  0.2430 -0.3457  0.4436
  297MOL0     O39995  12.685   5.762  11.534  0.2711  0.8599 -0.2120
  297MOL0     C39996  12.788   5.723  11.430 -0.1574 -0.8457  1.4335
  297MOL0     C39997  12.905   5.807  11.447 -0.5110  0.1418 -0.2943
  297MOL0     C39998  12.972   5.767  11.587 -0.6178  0.2390  0.1327
  297MOL0     C39999  13.088   5.855  11.643 -0.3265  0.4088 -0.4443
  297MOL0     C40000  13.118   5.830  11.789 -0.0457 -0.1395 -0.2150
  297MOL0     C40001  13.253   5.878  11.838  0.8695 -0.3811 -0.4746
  297MOL0     C40002  13.268   6.035  11.850 -0.0720  0.1298 -0.5446
  297MOL0     C40003  13.415   6.067  11.893  0.1772  0.1898  0.4813
  297MOL0    Cl40004  13.443   5.990  12.049  0.0700  0.2321  0.1993
  297MOL0     C40005  12.530   5.582  11.480 -0.4419 -0.1088 -0.0678
  297MOL0     C40006  12.400   5.537  11.463 -0.7292  0.1340 -0.2022
  297MOL0     O40007  12.044   5.696  11.643  0.1606  0.3575 -0.2547
  297MOL0     C40008  11.806   5.662  11.505  0.3015  0.1672 -0.3737
  297MOL0     C40009  11.693   5.641  11.425 -0.0036  0.2241  0.0755
  297MOL0     N40010  10.976   5.391  11.120  0.8943  0.1669  0.7465
  297MOL0     N40011  10.886   5.303  11.136  0.3368  0.5354 -0.2696
  297MOL0     C40012  10.078   4.813  10.406  0.5981 -0.2766  0.1060
  297MOL0     C40013   9.972   4.842  10.325 -0.0206  0.8354 -0.0385
  297MOL0     C40014   9.631   5.142  10.170  0.3576  0.2690  0.3326
  297MOL0     C40015   9.513   5.075  10.202 -0.2817  0.8976 -0.9578
  297MOL0     C40016   9.399   5.090  10.136  0.0977  0.0863 -0.3057
  297MOL0     C40017   9.379   5.198  10.051 -0.1098 -0.3587 -0.1681
  297MOL0     O40018   9.265   5.229   9.988 -0.6136 -0.0826 -0.4507
  297MOL0     C40019   9.169   5.124   9.966  0.3531 -0.0908 -0.3120
  297MOL0     C40020   9.040   5.163   9.903 -0.4933 -0.4774  0.6934
  297MOL0     C40021   8.940   5.226  10.002  0.0369  0.3074  0.3007
  297MOL0     C40022   8.797   5.241   9.945  0.4555  0.4316  0.0909
  297MOL0     C40023   8.715   5.315  10.050 -0.4360 -0.7726 -0.8476
  297MOL0     C40024   8.634   5.364  10.122 -0.2515 -0.6649  0.1688
  297MOL0     C40025   9.491   5.270  10.015 -0.1349  0.0664 -0.0260
  297MOL0     C40026   9.620   5.237  10.066  0.3812 -0.4794  0.2357
  297MOL0     C40027   9.751   5.305  10.027 -0.3064 -0.6967  0.4086
  297MOL0     H40028   9.779   5.000  10.540 -0.5303 -1.6146  0.9900
  297MOL0     H40029   9.972   4.964  10.686 -0.6708 -0.5952  0.0255
  297MOL0     H40030  10.159   4.631  10.599 -2.0930  1.9768 -2.5277
  297MOL0     H40031  10.299   4.718  10.517 -0.5505 -2.1755 -0.4402
  297MOL0     H40032  10.410   4.583  10.679  3.0444  1.4864  0.9979
  297MOL0     H40033  10.307   4.647  10.811  0.1029  0.9225  0.8892
  297MOL0     H40034  10.390   4.880  10.757  0.5957  0.8784 -2.7151
  297MOL0     H40035  10.504   4.804  10.644 -2.9021 -1.5093 -1.7013
  297MOL0     H40036  10.504   4.740  10.951 -1.5272  0.0437 -0.2830
  297MOL0     H40037  10.598   4.673  10.826 -0.0370 -0.2479 -0.8373
  297MOL0     H40038  10.700   4.914  10.777 -0.0520  1.6373  1.0934
  297MOL0     H40039  10.565   4.979  10.865 -0.0705  0.6070 -3.4215
  297MOL0     H40040  10.644   4.908  11.077  0.5463  2.2507  1.0716
  297MOL0     H40041  10.781   4.823  10.996 -0.8078 -0.8483 -0.4575
  297MOL0     H40042  10.715   5.127  10.991 -1.4220 -0.2988 -0.7328
  297MOL0     H40043  10.860   5.051  10.917  0.1022  1.1861  0.3616
  297MOL0     H40044  10.817   5.065  11.215 -2.5074  0.0618 -1.0144
  297MOL0     H40045  10.948   4.977  11.112 -2.1802 -1.0096 -2.4729
  297MOL0     H40046  11.160   5.123  11.084  1.6358  1.6636  1.5979
  297MOL0     H40047  11.257   5.342  10.957  1.8924  0.5429  1.2339
  297MOL0     H40048  11.211   5.504  11.024  0.8422 -0.5795 -2.7050
  297MOL0     H40049  11.312   5.285  11.211 -1.2947  1.3862  1.3185
  297MOL0     H40050  11.424   5.368  11.096  0.3548  1.6146  0.0477
  297MOL0     H40051  11.235   5.507  11.287 -0.2552 -1.2669 -0.5837
  297MOL0     H40052  11.346   5.591  11.170  1.4885  1.6180  1.8941
  297MOL0     H40053  11.433   5.434  11.407  2.1991 -1.4229 -2.3814
  297MOL0     H40054  11.435   5.605  11.392 -2.2379 -2.1859  2.2301
  297MOL0     H40055  11.817   5.383  11.233  0.2379 -0.7391  1.0613
  297MOL0     H40056  12.004   5.425  11.361 -0.3840 -1.7065  3.2251
  297MOL0     H40057  12.250   5.817  11.613  0.9412  1.4256 -2.2566
  297MOL0     H40058  12.469   5.884  11.609  2.1652 -0.9840  0.7514
  297MOL0     H40059  12.819   5.618  11.435 -0.4909 -1.0552 -0.1934
  297MOL0     H40060  12.736   5.736  11.335 -1.8853  0.8473  2.5528
  297MOL0     H40061  12.978   5.779  11.370 -2.8164 -2.7055 -1.6548
  297MOL0     H40062  12.876   5.911  11.457 -1.1656 -0.2412  2.6996
  297MOL0     H40063  12.894   5.780  11.663  0.1742 -0.5736  1.1117
  297MOL0     H40064  12.995   5.660  11.595 -2.6037 -0.3299 -0.9770
  297MOL0     H40065  13.059   5.959  11.630 -1.4829 -0.0512 -1.7722
  297MOL0     H40066  13.178   5.834  11.585 -2.0578  1.4485 -3.7146
  297MOL0     H40067  13.123   5.722  11.804 -1.6272 -0.4611 -1.7000
  297MOL0     H40068  13.038   5.877  11.847  0.4839  0.2370  0.2192
  297MOL0     H40069  13.267   5.836  11.938  2.7203  2.0941  0.4144
  297MOL0     H40070  13.335   5.839  11.777 -0.6350 -1.8619 -1.6447
  297MOL0     H40071  13.200   6.078  11.925 -1.8074 -1.4634 -1.1375
  297MOL0     H40072  13.239   6.070  11.751  0.8452 -1.4847 -1.4090
  297MOL0     H40073  13.477   6.026  11.813 -0.5586 -0.5760  0.2803
  297MOL0     H40074  13.442   6.172  11.901  2.1281 -0.2301  0.0251
  297MOL0     H40075  12.606   5.509  11.452 -1.7080 -2.2957  1.8969
  297MOL0     H40076  12.372   5.446  11.411  3.1355 -0.1228 -2.1643
  297MOL0     H40077  11.822   5.732  11.586 -0.1786 -1.0815  0.8348
  297MOL0     H40078  11.605   5.698  11.454  0.2888  0.8316 -0.1983
  297MOL0     H40079  10.163   4.754  10.372  0.3927  1.0833 -3.0863
  297MOL0     H40080   9.964   4.807  10.222 -0.8409  1.5512 -0.2368
  297MOL0     H40081   9.520   5.005  10.285 -1.4970  3.7614  1.7876
  297MOL0     H40082   9.316   5.037  10.180  0.1084 -0.9868 -1.5228
  297MOL0     H40083   9.140   5.081  10.062  1.0968  0.6105  0.2421
  297MOL0     H40084   9.221   5.050   9.904  3.4276  1.1524  0.5668
  297MOL0     H40085   8.993   5.072   9.865 -1.1407 -1.6525  3.9878
  297MOL0     H40086   9.050   5.228   9.816 -0.8447 -0.5889  0.5685
  297MOL0     H40087   8.986   5.322  10.028 -1.0100  0.6288  1.0893
  297MOL0     H40088   8.938   5.163  10.092  1.3126  0.2773  0.3315
  297MOL0     H40089   8.788   5.293   9.850  1.6060  0.3515 -0.0755
  297MOL0     H40090   8.762   5.139   9.928 -0.3026  1.0201 -2.1636
  297MOL0     H40091   8.579   5.425  10.191  1.2561 -0.1048  0.9282
  297MOL0     H40092   9.479   5.360   9.956 -1.7375  0.5626  0.9936
  297MOL0     H40093   9.792   5.366  10.109  1.6977  1.9210 -2.3259
  297MOL0     H40094   9.826   5.231   9.998 -0.4449 -1.0290  0.8791
  297MOL0     H40095   9.740   5.375   9.944 -1.6303 -0.2765  0.9175
  298MOL0     O40096   6.868   2.215   4.839  0.4183  0.9090  0.2494
  298MOL0     C40097   6.921   2.140   4.755 -0.3227  0.2278  0.1841
  298MOL0     O40098   6.855   2.027   4.697  0.6362  0.2210 -0.1333
  298MOL0     C40099   6.720   2.017   4.721 -0.3682  0.4000  0.0084
  298MOL0     C40100   6.676   1.910   4.796 -0.4706 -0.0184 -0.2747
  298MOL0     C40101   6.543   1.904   4.820  1.2666  0.8899 -0.3793
  298MOL0     C40102   6.451   1.998   4.786 -0.5593 -0.8119  0.2317
  298MOL0     O40103   6.318   1.998   4.823 -0.0264  0.1553 -0.4174
  298MOL0     C40104   6.244   1.904   4.745  0.6772  0.1418  0.3007
  298MOL0     C40105   6.096   1.920   4.783  0.0799 -0.7491  0.3446
  298MOL0     C40106   6.078   1.934   4.938  0.7026  0.5981 -0.2137
  298MOL0     C40107   6.099   1.794   5.002  0.0707 -0.3610  0.2761
  298MOL0     C40108   6.109   1.776   5.153 -0.0476  0.4178 -0.7507
  298MOL0     C40109   6.172   1.888   5.234 -0.3823  0.3228 -0.4536
  298MOL0     C40110   6.324   1.887   5.211 -0.0390 -0.3665  0.4810
  298MOL0     C40111   6.392   1.996   5.300 -0.3588 -0.7384  0.5639
  298MOL0     N40112   6.544   1.994   5.293  0.3810  0.4537 -0.7741
  298MOL0     C40113   6.625   1.984   5.177 -0.2274 -0.8125  0.5964
  298MOL0     C40114   6.739   1.935   5.225 -0.2205  0.8194 -0.1141
  298MOL0     C40115   6.873   1.936   5.149 -0.0182  1.1791  0.2884
  298MOL0     C40116   6.949   2.060   5.180 -0.5553  0.4280 -0.4926
  298MOL0     C40117   7.082   2.065   5.099  0.2131 -0.1010 -0.0138
  298MOL0     C40118   7.182   2.178   5.146 -0.2658 -0.0603 -0.4283
  298MOL0     O40119   7.179   2.306   5.071  0.0458 -0.0488  0.3758
  298MOL0     C40120   7.295   2.382   5.089  0.6485  0.1107 -0.1877
  298MOL0     C40121   7.416   2.336   5.032 -0.6235  0.8993 -0.0251
  298MOL0     C40122   7.523   2.407   5.058 -0.2870 -0.7774  0.1145
  298MOL0     C40123   7.533   2.530   5.122 -0.6929 -0.1705 -0.3723
  298MOL0     C40124   7.658   2.601   5.138 -1.0279 -0.2884  0.2156
  298MOL0     O40125   7.772   2.548   5.085 -0.4841  0.8754  0.1121
  298MOL0     C40126   7.891   2.610   5.114  0.4649 -0.3183 -0.3149
  298MOL0     C40127   7.961   2.662   5.011  0.2981  0.2382  0.5407
  298MOL0     C40128   8.069   2.740   5.039  0.1768 -0.7102 -0.2786
  298MOL0     C40129   8.117   2.764   5.171 -0.1533  0.8136  0.6628
  298MOL0     O40130   8.230   2.836   5.197  0.0254 -0.2646  0.3953
  298MOL0     C40131   8.309   2.874   5.081 -0.4322  0.7819  0.3893
  298MOL0     C40132   8.446   2.921   5.138  0.4332 -0.5243 -0.1461
  298MOL0     C40133   8.545   2.819   5.192  0.2429 -0.0060 -0.2473
  298MOL0     C40134   8.494   2.755   5.330  0.8716 -0.5581 -0.2584
  298MOL0     C40135   8.580   2.632   5.377 -0.1777 -0.3000 -0.1872
  298MOL0     C40136   8.706   2.681   5.459  0.2556 -0.3423  0.5473
  298MOL0     C40137   8.668   2.748   5.589  0.1303 -0.6604 -0.3796
  298MOL0     C40138   8.774   2.722   5.704 -0.8707  0.1407  0.7454
  298MOL0    Cl40139   8.910   2.823   5.669 -0.1108 -0.7591 -0.0227
  298MOL0     C40140   8.048   2.703   5.272  0.8403 -0.6498 -0.5809
  298MOL0     C40141   7.927   2.633   5.250 -0.0573 -0.1501  0.3075
  298MOL0     O40142   7.654   2.706   5.200 -0.3997 -1.1637  0.2979
  298MOL0     C40143   7.409   2.583   5.172  0.3841 -0.1484  0.1264
  298MOL0     C40144   7.295   2.505   5.160 -0.3276 -0.4747 -0.4479
  298MOL0     N40145   6.720   1.900   5.356  0.5436  0.4158  0.2722
  298MOL0     N40146   6.605   1.936   5.401 -0.2517  1.3563  0.2803
  298MOL0     C40147   6.500   2.119   4.724 -0.3508  0.9319  0.3829
  298MOL0     C40148   6.640   2.123   4.689  0.4154 -0.4784  0.6635
  298MOL0     C40149   7.062   2.165   4.721 -0.3560 -1.1052 -0.4180
  298MOL0     C40150   7.124   2.281   4.773  0.3724  0.5293  0.3591
  298MOL0     C40151   7.248   2.318   4.721  0.5206  0.6109  0.2509
  298MOL0     C40152   7.318   2.242   4.623 -0.6245 -0.5038 -1.0939
  298MOL0     O40153   7.441   2.293   4.596  0.1609 -0.1155  0.2799
  298MOL0     C40154   7.531   2.206   4.527 -0.2329 -0.1936 -1.0134
  298MOL0     C40155   7.612   2.126   4.623  0.1895 -0.2123  0.9140
  298MOL0     C40156   7.639   2.214   4.746  0.4237 -0.4429  0.9249
  298MOL0     C40157   7.750   2.160   4.839  0.8314  0.0831  0.5628
  298MOL0     C40158   7.884   2.204   4.782  0.1282 -0.6768 -0.7059
  298MOL0     C40159   7.992   2.233   4.752 -0.4926  0.4727 -0.3705
  298MOL0     C40160   7.257   2.127   4.578 -0.2660 -0.3398 -0.3824
  298MOL0     C40161   7.133   2.084   4.624 -0.6570  0.7674 -0.0888
  298MOL0     C40162   7.082   1.962   4.555  0.0776  0.6751  0.6241
  298MOL0     H40163   6.747   1.839   4.836 -0.6583  0.2905  0.6384
  298MOL0     H40164   6.505   1.822   4.881 -2.7006  0.9490 -2.5039
  298MOL0     H40165   6.267   1.907   4.638 -2.1203 -2.2231 -0.5063
  298MOL0     H40166   6.279   1.810   4.789  0.9900  0.7771  1.4269
  298MOL0     H40167   6.040   1.837   4.738  0.7602 -1.1440  0.1998
  298MOL0     H40168   6.070   2.018   4.742 -0.3698  0.2248  2.8069
  298MOL0     H40169   5.971   1.948   4.956  1.0899  0.5467  2.5587
  298MOL0     H40170   6.132   2.012   4.992  1.4295 -0.2413  0.2994
  298MOL0     H40171   6.014   1.729   4.979  0.5650 -1.5775  1.6703
  298MOL0     H40172   6.194   1.753   4.965  1.3235  1.5970  1.1442
  298MOL0     H40173   6.003   1.777   5.178 -0.1724  1.9409 -1.2519
  298MOL0     H40174   6.163   1.683   5.173 -1.4657 -0.2551  0.0640
  298MOL0     H40175   6.125   1.984   5.209  0.7462  0.8953 -0.4459
  298MOL0     H40176   6.158   1.875   5.342  1.7415  0.7219 -0.0911
  298MOL0     H40177   6.347   1.924   5.111  2.3926  3.4970  2.2390
  298MOL0     H40178   6.368   1.789   5.232  0.6724 -0.0319  0.5971
  298MOL0     H40179   6.366   2.099   5.275  3.3295  0.9171  2.6432
  298MOL0     H40180   6.352   1.980   5.401 -0.3804 -2.3129  0.3292
  298MOL0     H40181   6.603   2.031   5.081  3.1799  0.2340  0.1690
  298MOL0     H40182   6.927   1.842   5.164 -3.3955 -1.2279 -1.2782
  298MOL0     H40183   6.842   1.939   5.044 -1.3857  2.0473  0.7035
  298MOL0     H40184   6.890   2.149   5.155 -2.2672  0.6759  3.5774
  298MOL0     H40185   6.969   2.056   5.287 -0.5683 -2.5657 -0.5118
  298MOL0     H40186   7.053   2.075   4.993 -0.9979 -0.3123  0.2774
  298MOL0     H40187   7.122   1.964   5.107 -4.5769 -2.3994 -1.3216
  298MOL0     H40188   7.282   2.134   5.141  0.0253  0.3622  1.1605
  298MOL0     H40189   7.168   2.201   5.252 -0.0390 -1.3964 -0.0847
  298MOL0     H40190   7.435   2.241   4.983  1.1900  1.1048  0.2033
  298MOL0     H40191   7.617   2.382   5.011 -0.0857 -0.1401  0.1695
  298MOL0     H40192   7.942   2.655   4.904  2.8172 -0.8951  0.0852
  298MOL0     H40193   8.116   2.765   4.945 -0.6950  1.5368 -0.2009
  298MOL0     H40194   8.327   2.787   5.017 -2.1799  1.5889 -1.3164
  298MOL0     H40195   8.268   2.959   5.025  4.4527  5.1449  2.5522
  298MOL0     H40196   8.487   2.977   5.053 -2.4685 -0.6223 -1.7494
  298MOL0     H40197   8.413   2.985   5.220 -2.5526  0.5627 -2.0466
  298MOL0     H40198   8.548   2.733   5.124 -1.9136 -0.3167 -0.0206
  298MOL0     H40199   8.648   2.856   5.196 -0.1971  1.1186  1.3436
  298MOL0     H40200   8.393   2.717   5.313 -0.0762 -0.4594  4.1090
  298MOL0     H40201   8.487   2.830   5.409  0.9216  0.9969 -1.6667
  298MOL0     H40202   8.596   2.568   5.290 -1.2939  1.0800 -1.4715
  298MOL0     H40203   8.521   2.571   5.446  3.0202 -1.7812  1.4523
  298MOL0     H40204   8.774   2.598   5.476 -0.8281 -0.9818  2.0367
  298MOL0     H40205   8.767   2.752   5.403 -1.5306  0.9259  0.1118
  298MOL0     H40206   8.569   2.711   5.618 -0.3670  1.5335  0.9624
  298MOL0     H40207   8.659   2.856   5.571  0.8596 -0.1373  1.9640
  298MOL0     H40208   8.753   2.745   5.809 -0.2016 -0.6421  1.0595
  298MOL0     H40209   8.815   2.621   5.694  0.6629  0.9728 -2.6212
  298MOL0     H40210   8.075   2.714   5.376  0.6457 -2.9996 -0.2275
  298MOL0     H40211   7.860   2.593   5.325 -1.5667 -1.0541 -1.4179
  298MOL0     H40212   7.393   2.681   5.217 -4.0552 -0.1817 -0.9653
  298MOL0     H40213   7.200   2.541   5.198  0.2919 -0.0797  0.7628
  298MOL0     H40214   6.429   2.198   4.702 -0.7912  0.9656  1.8001
  298MOL0     H40215   6.679   2.209   4.633  0.2367 -1.6235 -1.3182
  298MOL0     H40216   7.068   2.338   4.845  0.3620 -1.2876  1.8767
  298MOL0     H40217   7.290   2.408   4.765 -0.2992  0.7144  0.8438
  298MOL0     H40218   7.590   2.285   4.480  1.0386  0.2491  1.2152
  298MOL0     H40219   7.500   2.153   4.436  2.4614 -2.4162 -0.7568
  298MOL0     H40220   7.706   2.102   4.573 -1.4611  0.4016 -2.7775
  298MOL0     H40221   7.563   2.031   4.646  1.2356 -0.8920  0.4172
  298MOL0     H40222   7.548   2.207   4.806  0.5347  2.7666  1.6413
  298MOL0     H40223   7.656   2.319   4.720  0.5907 -0.3699  1.3319
  298MOL0     H40224   7.741   2.202   4.939  1.1220  4.0781 -0.9237
  298MOL0     H40225   7.746   2.050   4.835  0.6148  0.1064  0.1282
  298MOL0     H40226   8.087   2.282   4.744 -0.4147  0.3932  0.0354
  298MOL0     H40227   7.305   2.067   4.501  0.3657  1.1680 -1.2301
  298MOL0     H40228   7.030   1.989   4.463  0.8033  0.3412  0.1060
  298MOL0     H40229   7.169   1.901   4.527  1.5433  2.6082  0.7724
  298MOL0     H40230   7.027   1.892   4.619  0.6968 -1.3307 -0.9517
  299MOL0     O40231  10.113   6.916   1.327 -0.2935 -1.2181 -0.2149
  299MOL0     C40232  10.022   6.990   1.366 -0.5361 -0.3689 -0.1542
  299MOL0     O40233  10.037   7.091   1.458  0.1714 -0.0033 -0.5509
  299MOL0     C40234  10.158   7.099   1.526 -0.0125 -0.3166 -0.3156
  299MOL0     C40235  10.245   7.211   1.509  0.0260  0.4073 -0.8382
  299MOL0     C40236  10.384   7.206   1.544 -0.9911 -0.9974 -0.7078
  299MOL0     C40237  10.440   7.095   1.608 -0.1403 -0.7616  0.1969
  299MOL0     O40238  10.575   7.088   1.653  0.5973  0.4236 -0.7431
  299MOL0     C40239  10.658   7.160   1.568 -0.0547  0.6761 -0.1904
  299MOL0     C40240  10.806   7.124   1.592  0.2553  0.3245 -0.0045
  299MOL0     C40241  10.861   7.167   1.724 -0.0622 -0.3392  0.4309
  299MOL0     C40242  10.901   7.317   1.728 -0.4900  0.1171  0.2144
  299MOL0     C40243  10.981   7.344   1.857 -0.1934  0.6403  0.3789
  299MOL0     C40244  11.021   7.484   1.860 -0.4138 -0.1406 -0.0862
  299MOL0     C40245  11.125   7.496   1.968  2.0054 -0.0768  0.5227
  299MOL0     C40246  11.171   7.635   1.968  0.5736  0.7828  0.1121
  299MOL0     N40247  11.294   7.651   2.040  1.8549 -0.2738 -0.3661
  299MOL0     C40248  11.408   7.595   2.011  0.4549 -0.4573  0.3058
  299MOL0     C40249  11.491   7.639   2.107  0.4643 -0.2912 -0.0655
  299MOL0     C40250  11.634   7.598   2.115 -0.8338  0.7808 -0.0679
  299MOL0     C40251  11.711   7.668   1.996 -0.4061  0.4386 -0.5985
  299MOL0     C40252  11.707   7.818   2.022  0.2049 -0.3779  0.6516
  299MOL0     C40253  11.809   7.896   1.924 -0.2438 -0.4867 -0.3213
  299MOL0     O40254  11.927   7.909   2.003  0.3421  0.9279  0.0970
  299MOL0     C40255  12.039   7.943   1.939  0.0174 -0.3611  0.4691
  299MOL0     C40256  12.046   8.019   1.819  0.2913  0.4825 -0.0753
  299MOL0     C40257  12.166   8.065   1.768 -0.1539  0.2660 -0.2298
  299MOL0     C40258  12.288   8.045   1.843  0.5215  0.3101 -0.9221
  299MOL0     C40259  12.414   8.110   1.806 -0.0899  0.7126  0.8656
  299MOL0     O40260  12.427   8.160   1.680  0.2453 -0.5201  0.0806
  299MOL0     C40261  12.552   8.198   1.626  0.0158 -0.9140 -0.7019
  299MOL0     C40262  12.670   8.248   1.691  0.0181  0.1027 -1.1504
  299MOL0     C40263  12.789   8.297   1.631 -0.2842  0.4230  0.3015
  299MOL0     C40264  12.796   8.311   1.487  0.1737  0.3803  1.1169
  299MOL0     O40265  12.904   8.376   1.427 -1.1880 -0.1090 -0.6361
  299MOL0     C40266  12.898   8.382   1.281 -0.5782  0.1699  0.4085
  299MOL0     C40267  13.028   8.450   1.242 -0.5665  0.2398 -1.0129
  299MOL0     C40268  13.024   8.516   1.105  0.4085 -0.2070  0.1980
  299MOL0     C40269  13.150   8.595   1.064  0.3629 -0.8486 -0.0882
  299MOL0     C40270  13.144   8.631   0.920  0.8331  0.1088 -0.2695
  299MOL0     C40271  13.020   8.713   0.888 -0.0802  0.9206  0.4460
  299MOL0     C40272  13.015   8.755   0.732 -1.2755  0.7807  0.0583
  299MOL0     C40273  12.883   8.829   0.707  0.1714  0.1309  0.4071
  299MOL0    Cl40274  12.904   8.895   0.545 -0.2169  0.1550 -0.4273
  299MOL0     C40275  12.682   8.253   1.416 -0.0111  0.6283 -0.2626
  299MOL0     C40276  12.565   8.211   1.484 -0.5351 -0.3588  0.6247
  299MOL0     O40277  12.507   8.095   1.885 -0.1767 -0.5617  0.2394
  299MOL0     C40278  12.280   7.963   1.964  0.0506 -0.0846  0.3569
  299MOL0     C40279  12.155   7.917   2.010 -0.3631 -0.5256 -0.9421
  299MOL0     N40280  11.418   7.707   2.199 -1.1368  0.2948 -0.0166
  299MOL0     N40281  11.301   7.694   2.169 -0.3033 -0.1530 -0.0449
  299MOL0     C40282  10.350   6.999   1.649  0.6188 -0.4668 -0.4441
  299MOL0     C40283  10.220   6.992   1.598  0.8347 -0.8261 -0.2627
  299MOL0     C40284   9.886   6.965   1.321  0.1736  0.6820 -0.2269
  299MOL0     C40285   9.781   7.036   1.381 -0.4912 -0.5633  0.6191
  299MOL0     C40286   9.653   7.009   1.342  0.6339 -0.7367 -0.1060
  299MOL0     C40287   9.617   6.910   1.242 -0.2344  0.5083 -0.0114
  299MOL0     O40288   9.485   6.890   1.209  0.2448 -0.4149 -0.6748
  299MOL0     C40289   9.446   6.809   1.103 -0.6623 -0.2727  0.9614
  299MOL0     C40290   9.296   6.777   1.109  0.3143 -1.0539 -1.2237
  299MOL0     C40291   9.205   6.871   1.032  0.0828 -0.2883 -0.9264
  299MOL0     C40292   9.063   6.821   1.029 -0.3639 -0.0767 -0.1770
  299MOL0     C40293   9.039   6.677   1.034 -0.1548 -0.4342 -1.9657
  299MOL0     C40294   9.012   6.561   1.049  0.3105 -0.2747 -0.0273
  299MOL0     C40295   9.726   6.853   1.172  0.4068 -0.5233  1.0590
  299MOL0     C40296   9.857   6.873   1.211 -0.8166 -1.0259 -1.1737
  299MOL0     C40297   9.960   6.805   1.126  0.0305  0.5733  0.0733
  299MOL0     H40298  10.201   7.295   1.455  1.4424  2.8089  1.5248
  299MOL0     H40299  10.449   7.281   1.500 -1.8996 -1.3001 -2.7083
  299MOL0     H40300  10.629   7.133   1.466 -2.9373 -0.8802  0.9031
  299MOL0     H40301  10.650   7.266   1.594  2.7357  0.8877  0.0927
  299MOL0     H40302  10.870   7.170   1.516  2.5001 -1.1894  0.8550
  299MOL0     H40303  10.826   7.016   1.586  3.7985  0.5351  3.5807
  299MOL0     H40304  10.950   7.104   1.732 -0.9435 -1.7940 -0.8242
  299MOL0     H40305  10.806   7.137   1.813  0.6012 -1.4163  0.4923
  299MOL0     H40306  10.954   7.353   1.640 -3.0077 -1.0471 -1.9063
  299MOL0     H40307  10.809   7.376   1.737 -0.4998 -0.1877  2.7216
  299MOL0     H40308  10.910   7.336   1.940 -1.7006  0.9135 -0.8582
  299MOL0     H40309  11.061   7.271   1.875  0.6460  1.0072 -1.6443
  299MOL0     H40310  11.056   7.518   1.763 -1.4492 -1.0074 -0.7852
  299MOL0     H40311  10.937   7.552   1.876 -2.0355 -1.6260 -1.8768
  299MOL0     H40312  11.219   7.441   1.958  5.1411  4.6408  0.8494
  299MOL0     H40313  11.077   7.464   2.061 -1.6581 -0.9330 -1.4829
  299MOL0     H40314  11.186   7.662   1.863 -0.3023 -1.4753 -0.6444
  299MOL0     H40315  11.103   7.711   2.006  0.1388  0.3000  0.3032
  299MOL0     H40316  11.433   7.535   1.924 -2.6694 -4.0756  1.6081
  299MOL0     H40317  11.676   7.633   2.210 -0.1820 -1.1647  0.4005
  299MOL0     H40318  11.649   7.490   2.103  2.1357  1.1331 -0.3962
  299MOL0     H40319  11.816   7.642   1.984 -1.0971 -2.7393 -0.7203
  299MOL0     H40320  11.657   7.656   1.902  0.9438  1.5720 -1.5572
  299MOL0     H40321  11.732   7.838   2.127  0.8193  1.3016  0.2286
  299MOL0     H40322  11.608   7.859   1.999 -0.3316 -1.3231  1.2164
  299MOL0     H40323  11.761   7.990   1.894  0.8561  0.1079 -0.2432
  299MOL0     H40324  11.833   7.838   1.834 -1.0132 -0.3940 -0.5950
  299MOL0     H40325  11.959   8.042   1.758  0.6119 -2.2699 -1.7393
  299MOL0     H40326  12.168   8.136   1.686 -0.6556  1.1397  0.5117
  299MOL0     H40327  12.663   8.260   1.799 -3.6827 -2.2275 -0.9279
  299MOL0     H40328  12.866   8.338   1.695  0.1589  1.2344 -0.7301
  299MOL0     H40329  12.907   8.278   1.246  0.5430  1.1080 -2.3775
  299MOL0     H40330  12.808   8.423   1.236 -1.1135 -0.8203  0.5486
  299MOL0     H40331  13.035   8.531   1.315  0.4962  2.3958 -3.3285
  299MOL0     H40332  13.113   8.384   1.256 -1.6364 -0.9729  0.0046
  299MOL0     H40333  13.001   8.448   1.022 -0.3326  0.8931 -0.5218
  299MOL0     H40334  12.946   8.591   1.120 -0.2401 -1.3560  3.4010
  299MOL0     H40335  13.243   8.541   1.083  0.9027  0.5068  1.3182
  299MOL0     H40336  13.160   8.682   1.130 -1.5879  0.6691 -1.6452
  299MOL0     H40337  13.152   8.545   0.853  1.8594  1.4650 -1.9803
  299MOL0     H40338  13.228   8.697   0.896  0.6246 -0.4210 -2.8077
  299MOL0     H40339  12.930   8.653   0.904 -0.7996  1.7967 -0.1696
  299MOL0     H40340  13.014   8.802   0.952  0.3391 -0.1574  2.0277
  299MOL0     H40341  13.020   8.662   0.674 -1.2714 -0.3296  1.7592
  299MOL0     H40342  13.086   8.836   0.714 -3.4551  2.6868 -0.3219
  299MOL0     H40343  12.796   8.762   0.711  0.1146 -0.2015 -3.2961
  299MOL0     H40344  12.877   8.916   0.773 -2.2352  0.9258 -0.7298
  299MOL0     H40345  12.682   8.254   1.308  3.4167 -0.8846 -0.4089
  299MOL0     H40346  12.485   8.182   1.417 -0.4848  0.1606  0.3316
  299MOL0     H40347  12.367   7.939   2.024 -1.5180 -1.1983  2.3240
  299MOL0     H40348  12.153   7.864   2.105  1.1474  0.8511 -0.0791
  299MOL0     H40349  10.387   6.913   1.704 -1.0242  0.1496  1.7919
  299MOL0     H40350  10.148   6.915   1.624 -0.1634  0.5019  1.0751
  299MOL0     H40351   9.796   7.121   1.447 -1.1653  0.8711 -0.9909
  299MOL0     H40352   9.570   7.068   1.380  1.3595  3.3600 -4.0494
  299MOL0     H40353   9.503   6.716   1.099  2.3186  1.4152  0.9608
  299MOL0     H40354   9.468   6.858   1.007  0.5486 -1.2858  0.6860
  299MOL0     H40355   9.264   6.768   1.213 -1.0747 -0.3536 -1.5540
  299MOL0     H40356   9.290   6.680   1.059  0.8302 -0.1675 -3.0883
  299MOL0     H40357   9.242   6.869   0.929 -1.8744 -1.1646 -1.6600
  299MOL0     H40358   9.212   6.974   1.070  1.6265  1.0418 -4.3986
  299MOL0     H40359   9.012   6.861   1.117  1.8471  0.1475  1.0774
  299MOL0     H40360   9.019   6.860   0.937  2.1955  0.8594 -1.0811
  299MOL0     H40361   8.993   6.462   1.087  0.7305 -0.1565  0.5082
  299MOL0     H40362   9.702   6.800   1.080  0.7254 -2.2831  1.9674
  299MOL0     H40363   9.923   6.724   1.064  1.2098  0.4711 -0.5288
  299MOL0     H40364  10.016   6.879   1.068  2.1761 -2.6120 -2.2708
  299MOL0     H40365  10.036   6.754   1.185  1.8986  1.2051 -1.6733
  300MOL0     O40366   6.035   9.012  10.475  0.3553  0.4041  0.0373
  300MOL0     C40367   6.062   9.090  10.558 -0.2112 -0.5746 -0.6992
  300MOL0     O40368   6.178   9.170  10.560 -0.1033  0.3820  0.9029
  300MOL0     C40369   6.279   9.150  10.465  0.2041  0.7143  0.0191
  300MOL0     C40370   6.346   9.260  10.428 -0.0856 -0.0699 -0.1032
  300MOL0     C40371   6.447   9.266  10.332  0.0280  0.5509 -0.3958
  300MOL0     C40372   6.470   9.153  10.260 -0.5785 -0.1513 -0.1809
  300MOL0     O40373   6.573   9.147  10.165 -0.1685  0.4208 -0.6959
  300MOL0     C40374   6.619   9.274  10.106  0.2645  0.4829 -0.4510
  300MOL0     C40375   6.734   9.340  10.184 -0.8668  0.4625 -0.0288
  300MOL0     C40376   6.872   9.328  10.111  0.3668  0.1451 -0.1144
  300MOL0     C40377   6.926   9.180  10.126 -0.0092 -0.3973 -0.8506
  300MOL0     C40378   7.078   9.171  10.105 -0.1077  0.4174  0.3329
  300MOL0     C40379   7.146   9.047  10.163 -0.7109  1.0072  0.3033
  300MOL0     C40380   7.290   9.050  10.123 -0.2901  1.0470  0.6211
  300MOL0     C40381   7.353   8.917  10.161  0.5679 -0.8134 -0.7693
  300MOL0     N40382   7.494   8.926  10.119 -0.3129  0.1406 -0.4319
  300MOL0     C40383   7.559   8.838  10.039 -0.5599  0.2381  0.9374
  300MOL0     C40384   7.689   8.882  10.039  0.8816  1.0553 -0.0164
  300MOL0     C40385   7.794   8.837   9.945  0.4565 -0.5665 -0.0834
  300MOL0     C40386   7.930   8.900   9.963  0.5848 -0.6127 -0.6260
  300MOL0     C40387   8.022   8.830   9.876 -0.9345  0.4859  1.5128
  300MOL0     C40388   8.152   8.906   9.855  0.2958 -0.3222 -0.0012
  300MOL0     O40389   8.228   8.883   9.975 -0.3875 -0.9363  0.2622
  300MOL0     C40390   8.325   8.982  10.005 -0.3384  0.9126  0.2899
  300MOL0     C40391   8.371   8.993  10.138 -0.8493 -0.4175  0.6613
  300MOL0     C40392   8.480   9.076  10.174  1.2406 -0.1615  1.3844
  300MOL0     C40393   8.545   9.155  10.069 -0.2266 -0.2141  0.3098
  300MOL0     C40394   8.667   9.238  10.102  0.0470 -0.0136  1.0799
  300MOL0     O40395   8.689   9.273  10.224  1.0164  0.1724 -0.5704
  300MOL0     C40396   8.782   9.374  10.237 -0.5005 -0.0723  0.2365
  300MOL0     C40397   8.745   9.508  10.211  0.2071 -0.2093  0.1546
  300MOL0     C40398   8.836   9.610  10.229 -0.2334  0.2361 -0.1228
  300MOL0     C40399   8.965   9.585  10.268 -0.2225  0.4943 -0.4228
  300MOL0     O40400   9.061   9.675  10.304 -0.1382 -0.2175  0.7190
  300MOL0     C40401   9.073   9.815  10.276 -0.2521  0.0768  0.6435
  300MOL0     C40402   9.155   9.848  10.150  0.4261 -0.0768  0.4767
  300MOL0     C40403   9.155   9.996  10.120  0.5778  0.7122 -0.3656
  300MOL0     C40404   9.227  10.094  10.211 -0.3954  0.4096  0.2598
  300MOL0     C40405   9.196  10.242  10.190  0.7531 -0.1221  0.2698
  300MOL0     C40406   9.256  10.314  10.073  0.0514  0.0533 -0.4972
  300MOL0     C40407   9.250  10.469  10.100  0.2998 -0.2435 -0.1482
  300MOL0     C40408   9.110  10.535  10.116  0.8073  0.2593  0.1211
  300MOL0    Cl40409   9.118  10.703  10.178 -0.1257  0.4506  0.1366
  300MOL0     C40410   8.998   9.458  10.308 -0.5110 -0.4952 -0.4523
  300MOL0     C40411   8.907   9.353  10.294  0.8847 -0.2568  0.2358
  300MOL0     O40412   8.737   9.273  10.004 -0.1939 -0.4315 -0.0686
  300MOL0     C40413   8.482   9.150   9.937 -0.0186  0.2349  0.4720
  300MOL0     C40414   8.381   9.065   9.906 -0.5446 -0.3464 -0.6320
  300MOL0     N40415   7.707   8.981  10.137  0.5624  0.2611  0.6479
  300MOL0     N40416   7.585   9.003  10.191 -0.5484 -0.3084  0.0423
  300MOL0     C40417   6.414   9.035  10.299 -0.3836  0.3352  0.0963
  300MOL0     C40418   6.316   9.029  10.405 -0.8669  1.2197 -0.3847
  300MOL0     C40419   5.964   9.126  10.666 -0.4200 -0.2627  0.5101
  300MOL0     C40420   5.979   9.257  10.740 -0.3059  0.3948  0.9892
  300MOL0     C40421   5.889   9.291  10.839 -0.3040 -0.6959  0.3313
  300MOL0     C40422   5.790   9.197  10.873 -0.4335 -0.1009 -0.1839
  300MOL0     O40423   5.694   9.223  10.970  1.0601 -0.0875 -0.2341
  300MOL0     C40424   5.731   9.326  11.071 -0.3923  0.0271 -0.6564
  300MOL0     C40425   5.619   9.332  11.177  0.2982  0.2659 -0.1826
  300MOL0     C40426   5.635   9.450  11.268 -0.6193  0.0058 -0.7186
  300MOL0     C40427   5.529   9.474  11.376 -0.8833  0.2974 -0.2004
  300MOL0     C40428   5.396   9.474  11.323  0.2031 -0.3381 -0.8895
  300MOL0     C40429   5.283   9.481  11.299  0.3804 -0.2695 -0.5798
  300MOL0     C40430   5.779   9.074  10.815  0.7756  0.9945 -0.3283
  300MOL0     C40431   5.857   9.038  10.710 -0.4731 -0.4422  0.3796
  300MOL0     C40432   5.833   8.906  10.652  0.0921 -0.0451  0.0179
  300MOL0     H40433   6.311   9.352  10.475  0.1162 -0.5883  1.0926
  300MOL0     H40434   6.502   9.359  10.319 -0.3524  0.6376 -1.3869
  300MOL0     H40435   6.653   9.252  10.005  1.3235 -0.4881  0.0952
  300MOL0     H40436   6.526   9.332  10.101 -1.6850 -2.0724  2.3727
  300MOL0     H40437   6.728   9.300  10.285 -1.0077 -1.1739 -0.6415
  300MOL0     H40438   6.707   9.445  10.173 -0.8753  0.1849 -4.4866
  300MOL0     H40439   6.950   9.388  10.159  1.3674 -0.2968 -1.1320
  300MOL0     H40440   6.870   9.370  10.010 -2.6122 -0.7435 -0.5304
  300MOL0     H40441   6.910   9.142  10.227 -0.4112  1.3086 -0.2353
  300MOL0     H40442   6.872   9.117  10.054 -2.2512 -0.7578  1.0441
  300MOL0     H40443   7.092   9.181   9.997 -0.0009 -0.5765  0.2507
  300MOL0     H40444   7.132   9.251  10.156  3.2923 -2.4367  1.5856
  300MOL0     H40445   7.136   9.028  10.270 -2.5781 -0.6802 -0.1131
  300MOL0     H40446   7.092   8.957  10.131  1.1900 -0.1878  0.3171
  300MOL0     H40447   7.352   9.136  10.148 -0.1218  0.7964  1.0653
  300MOL0     H40448   7.290   9.048  10.013 -0.2668 -1.4895  0.6188
  300MOL0     H40449   7.346   8.903  10.269 -0.9191 -1.5397 -0.9341
  300MOL0     H40450   7.299   8.829  10.124 -0.3123 -1.3789  1.6896
  300MOL0     H40451   7.524   8.762   9.970 -0.4951  0.9341  0.1183
  300MOL0     H40452   7.795   8.727   9.949 -1.5891 -0.7226 -2.0062
  300MOL0     H40453   7.760   8.862   9.844 -1.4254 -0.3801  0.5627
  300MOL0     H40454   7.923   9.004   9.931 -1.8133 -0.5551 -0.1077
  300MOL0     H40455   7.963   8.892  10.067 -0.8639 -1.2181 -0.1959
  300MOL0     H40456   7.979   8.815   9.777 -0.2885 -2.0262  1.5424
  300MOL0     H40457   8.043   8.727   9.907 -3.5284 -0.5605  0.0880
  300MOL0     H40458   8.141   9.014   9.840  2.4889 -0.3608 -2.7357
  300MOL0     H40459   8.210   8.870   9.770  0.9784 -0.4026  0.4856
  300MOL0     H40460   8.326   8.927  10.211 -0.5874  0.3079  1.5013
  300MOL0     H40461   8.512   9.074  10.277  0.9975 -1.6216  1.4482
  300MOL0     H40462   8.650   9.531  10.164  0.2912 -0.9928 -0.4341
  300MOL0     H40463   8.825   9.717  10.218  1.7622  0.4765 -0.0272
  300MOL0     H40464   8.981   9.873  10.271  2.9387  5.7151 -1.6307
  300MOL0     H40465   9.116   9.863  10.364  4.2333 -1.5514 -0.3942
  300MOL0     H40466   9.257   9.811  10.160  1.0273  0.3127 -2.9088
  300MOL0     H40467   9.104   9.808  10.062 -0.4343  1.9309 -0.0032
  300MOL0     H40468   9.196   9.999  10.019  0.9926 -2.4179 -0.3698
  300MOL0     H40469   9.057  10.041  10.105  1.5031  2.3689 -1.7972
  300MOL0     H40470   9.333  10.084  10.185 -0.6804 -0.1294 -0.7265
  300MOL0     H40471   9.201  10.075  10.316 -0.1077  2.7795  0.8315
  300MOL0     H40472   9.215  10.290  10.286 -3.5651  1.5596  0.5263
  300MOL0     H40473   9.090  10.260  10.173  0.9663  0.3418 -0.6381
  300MOL0     H40474   9.365  10.304  10.068 -0.0587 -1.1188 -0.8049
  300MOL0     H40475   9.210  10.280   9.980 -3.3648 -1.5747  1.5825
  300MOL0     H40476   9.300  10.519  10.017 -0.2944  2.1685  0.8466
  300MOL0     H40477   9.302  10.499  10.192 -1.1220  2.6276 -0.1500
  300MOL0     H40478   9.080  10.552  10.012  2.2479  2.9536  0.0602
  300MOL0     H40479   9.037  10.479  10.175 -0.0429  0.9317 -0.2683
  300MOL0     H40480   9.099   9.450  10.346 -0.5008 -1.8263 -0.7140
  300MOL0     H40481   8.939   9.255  10.328  3.7951  0.0059 -1.4675
  300MOL0     H40482   8.524   9.215   9.861  2.5115 -1.3294  0.3943
  300MOL0     H40483   8.366   9.072   9.798 -0.4418 -1.6005 -0.7348
  300MOL0     H40484   6.448   8.948  10.245  0.9858  1.0278 -0.2137
  300MOL0     H40485   6.275   8.932  10.430 -1.4254  1.3480 -0.7798
  300MOL0     H40486   6.058   9.327  10.716 -0.2850  0.6093  1.6615
  300MOL0     H40487   5.905   9.389  10.881 -2.5455 -0.3935  0.5723
  300MOL0     H40488   5.759   9.423  11.029  2.6298  0.5229  2.0893
  300MOL0     H40489   5.824   9.293  11.116 -0.5795 -1.3032 -1.1871
  300MOL0     H40490   5.628   9.240  11.235 -1.1024  0.7683  0.8746
  300MOL0     H40491   5.522   9.330  11.126  0.2001  1.0663 -0.0355
  300MOL0     H40492   5.647   9.547  11.217  0.1913  1.3452  1.8385
  300MOL0     H40493   5.726   9.431  11.325 -2.1004 -1.6760  1.2168
  300MOL0     H40494   5.539   9.399  11.455  0.9864  0.0108 -0.6623
  300MOL0     H40495   5.556   9.565  11.431 -0.5428  1.2534 -1.8851
  300MOL0     H40496   5.180   9.503  11.282  0.8439  3.3418  0.5263
  300MOL0     H40497   5.706   9.006  10.858  2.1008 -0.2747  0.0098
  300MOL0     H40498   5.760   8.843  10.704 -1.3792  1.3060 -0.3433
  300MOL0     H40499   5.802   8.911  10.548  2.2601 -3.3775 -0.9280
  300MOL0     H40500   5.933   8.861  10.656  2.3173  4.4485  2.3738
  301MOL0     O40501   7.057   3.263   9.590 -0.4823  0.2981 -0.7027
  301MOL0     C40502   7.088   3.219   9.698  0.9192  0.7655 -0.5177
  301MOL0     O40503   7.211   3.217   9.756  0.4138  0.0332  0.1084
  301MOL0     C40504   7.321   3.286   9.711  0.4859  0.0206 -0.8304
  301MOL0     C40505   7.351   3.316   9.571 -0.2283  0.2028  0.1593
  301MOL0     C40506   7.477   3.372   9.534  0.6690  0.4476  0.1556
  301MOL0     C40507   7.584   3.386   9.622  0.4181 -0.2486  0.0563
  301MOL0     O40508   7.710   3.425   9.566 -0.3533 -0.1887 -0.2931
  301MOL0     C40509   7.827   3.434   9.660  0.0144  0.3960  0.5973
  301MOL0     C40510   7.927   3.522   9.585  0.0755  0.1084  0.4968
  301MOL0     C40511   8.064   3.521   9.648  0.2741  0.6969 -1.2146
  301MOL0     C40512   8.167   3.583   9.551  0.0810  0.8784 -0.4215
  301MOL0     C40513   8.199   3.482   9.435  0.1370 -0.2490 -0.8181
  301MOL0     C40514   8.284   3.365   9.481 -0.0354  0.0647  0.2478
  301MOL0     C40515   8.302   3.270   9.364  0.0189 -0.1910  0.4843
  301MOL0     C40516   8.391   3.140   9.399  0.2054  0.3173 -0.1166
  301MOL0     N40517   8.314   3.037   9.479 -0.2309 -0.5028  0.1318
  301MOL0     C40518   8.187   3.043   9.520 -0.7182  0.5276  0.4631
  301MOL0     C40519   8.179   2.978   9.639 -0.8159 -0.9138 -0.1259
  301MOL0     C40520   8.054   2.944   9.721  0.4243  0.5321  0.1163
  301MOL0     C40521   7.999   3.079   9.788  1.4742  0.1204 -0.5394
  301MOL0     C40522   7.871   3.057   9.880 -0.1355  0.7268 -0.4429
  301MOL0     C40523   7.754   3.008   9.801 -0.0590  0.2922 -0.6444
  301MOL0     O40524   7.639   2.993   9.891 -0.0930 -0.4783  0.3140
  301MOL0     C40525   7.513   2.973   9.843 -0.4361  1.1049 -0.1644
  301MOL0     C40526   7.471   3.002   9.716 -0.4641  0.7773  0.6913
  301MOL0     C40527   7.348   2.967   9.669 -0.8017  0.3286  0.1175
  301MOL0     C40528   7.254   2.906   9.756  0.1616 -0.0128 -0.3359
  301MOL0     C40529   7.124   2.852   9.701  0.2695  0.2684  0.7911
  301MOL0     O40530   7.098   2.881   9.563 -0.0639  0.2884 -0.3571
  301MOL0     C40531   6.991   2.829   9.492 -0.5708 -0.3094 -1.4409
  301MOL0     C40532   6.859   2.830   9.541 -0.8282  1.0020 -0.0979
  301MOL0     C40533   6.754   2.758   9.475  0.0317 -0.6086  0.1377
  301MOL0     C40534   6.772   2.718   9.341 -0.8396  0.2929  0.1394
  301MOL0     O40535   6.669   2.662   9.270  0.2785 -1.2148 -0.1054
  301MOL0     C40536   6.684   2.535   9.226 -0.5435  0.4248 -0.3247
  301MOL0     C40537   6.553   2.492   9.166  0.0758  0.8375  0.1071
  301MOL0     C40538   6.431   2.494   9.261  0.2007 -0.3442 -0.5244
  301MOL0     C40539   6.293   2.508   9.193 -0.4468  0.2293  0.2498
  301MOL0     C40540   6.174   2.515   9.280 -0.0106  0.2000 -0.4058
  301MOL0     C40541   6.161   2.410   9.398  0.0805  0.1848 -0.3836
  301MOL0     C40542   6.030   2.436   9.488  0.9716  0.9633 -0.8092
  301MOL0     C40543   6.031   2.567   9.558  0.1435 -0.7208 -0.6170
  301MOL0    Cl40544   6.165   2.562   9.679 -0.1848  0.1017 -0.2355
  301MOL0     C40545   6.902   2.739   9.290 -0.3335  0.3860  0.5935
  301MOL0     C40546   7.010   2.789   9.364  0.5132 -0.0376 -0.1210
  301MOL0     O40547   7.042   2.802   9.778 -0.4204  0.6543  0.1089
  301MOL0     C40548   7.297   2.883   9.892  1.6295 -0.1777 -0.3587
  301MOL0     C40549   7.425   2.909   9.927  0.0257 -0.4449 -0.5538
  301MOL0     N40550   8.303   2.914   9.665  0.1111  0.1169  0.1561
  301MOL0     N40551   8.380   2.954   9.568 -0.0702  0.1724 -1.2628
  301MOL0     C40552   7.556   3.367   9.762  0.9148  0.3725 -0.2595
  301MOL0     C40553   7.427   3.316   9.800 -0.0434 -0.4560 -0.0695
  301MOL0     C40554   6.973   3.152   9.776  0.5653 -1.3211 -0.4625
  301MOL0     C40555   6.999   3.119   9.921  0.4582  0.6593  0.6125
  301MOL0     C40556   6.906   3.049  10.001  0.3429 -0.0008  0.0939
  301MOL0     C40557   6.784   3.016   9.942  0.1659 -0.5473 -0.4559
  301MOL0     O40558   6.679   2.955  10.017 -0.4876 -0.6182  0.2927
  301MOL0     C40559   6.708   2.833  10.093  0.3312 -0.3936 -0.0165
  301MOL0     C40560   6.755   2.717  10.011 -0.2814  0.3225  0.3072
  301MOL0     C40561   6.651   2.673   9.905  0.2301  0.2640  0.3114
  301MOL0     C40562   6.723   2.564   9.814  0.1773  0.4188  0.0095
  301MOL0     C40563   6.613   2.477   9.750 -0.3076 -0.2136 -1.0154
  301MOL0     C40564   6.529   2.403   9.706  0.4466 -0.2165 -0.9086
  301MOL0     C40565   6.751   3.068   9.812 -0.8457  1.2797  0.0752
  301MOL0     C40566   6.845   3.128   9.730  0.2823 -0.6648  0.4066
  301MOL0     C40567   6.780   3.167   9.595 -0.4600  0.3141  0.7722
  301MOL0     H40568   7.275   3.287   9.499 -0.4045  1.2357 -0.0828
  301MOL0     H40569   7.502   3.384   9.429 -1.7799  1.4867 -0.4010
  301MOL0     H40570   7.803   3.483   9.754 -1.7957  2.4919 -0.8309
  301MOL0     H40571   7.881   3.339   9.666  0.6413  0.5691 -1.4084
  301MOL0     H40572   7.889   3.624   9.575 -0.5153 -0.3550 -4.6208
  301MOL0     H40573   7.933   3.483   9.483  0.1608 -0.4530  0.7169
  301MOL0     H40574   8.089   3.415   9.650  0.9411  0.8102 -2.7987
  301MOL0     H40575   8.062   3.568   9.747  1.2564  0.9775 -1.3203
  301MOL0     H40576   8.130   3.675   9.504  0.1738  0.1166 -2.0500
  301MOL0     H40577   8.261   3.600   9.605  1.0546 -1.7001 -1.1925
  301MOL0     H40578   8.108   3.446   9.384 -0.4224 -1.5311  1.0070
  301MOL0     H40579   8.263   3.535   9.363  0.0198  0.6082 -0.3120
  301MOL0     H40580   8.387   3.380   9.515  0.4019 -2.9663  0.5065
  301MOL0     H40581   8.237   3.312   9.565 -2.6479  0.0397 -1.1539
  301MOL0     H40582   8.366   3.322   9.293  1.5413 -2.1369  0.3460
  301MOL0     H40583   8.211   3.238   9.313 -0.2467 -0.7630  1.3071
  301MOL0     H40584   8.411   3.103   9.298 -0.3816 -0.8359  0.1710
  301MOL0     H40585   8.491   3.158   9.440  0.9647  0.6168 -2.0158
  301MOL0     H40586   8.117   3.106   9.467 -1.6644 -0.5372  0.4228
  301MOL0     H40587   7.988   2.901   9.645  0.5539 -1.4862  1.1043
  301MOL0     H40588   8.085   2.872   9.797 -0.1805 -1.8946 -1.7967
  301MOL0     H40589   8.077   3.120   9.853 -1.5648  3.8312  1.1498
  301MOL0     H40590   7.980   3.162   9.719 -1.5521  0.0875  0.1046
  301MOL0     H40591   7.837   3.150   9.929  0.5473  0.7827 -0.0645
  301MOL0     H40592   7.881   2.992   9.968 -1.5571  1.2506  0.1424
  301MOL0     H40593   7.776   2.910   9.759  3.0283  0.8755 -0.6373
  301MOL0     H40594   7.735   3.075   9.716 -0.4803  1.5917  0.4290
  301MOL0     H40595   7.532   3.055   9.643 -2.7924  0.6791 -1.4857
  301MOL0     H40596   7.326   2.999   9.568  1.0298  0.5226 -0.2638
  301MOL0     H40597   6.830   2.852   9.643 -0.5306 -2.6694  0.9179
  301MOL0     H40598   6.663   2.749   9.534 -0.8261  3.5304 -0.2687
  301MOL0     H40599   6.760   2.538   9.147  1.1736  1.0507  1.2773
  301MOL0     H40600   6.709   2.470   9.310 -3.1801 -1.6741 -1.0388
  301MOL0     H40601   6.536   2.562   9.083  1.5273 -0.6337 -1.4952
  301MOL0     H40602   6.571   2.393   9.124  0.5385 -0.5863  3.3798
  301MOL0     H40603   6.432   2.419   9.341  0.2588  2.0085  1.8371
  301MOL0     H40604   6.450   2.578   9.329 -1.2786  0.8260 -1.4724
  301MOL0     H40605   6.286   2.435   9.112  0.7207  0.8721 -0.4544
  301MOL0     H40606   6.294   2.606   9.144  2.5894 -0.9189 -2.3540
  301MOL0     H40607   6.078   2.521   9.227 -0.9574 -0.5087  1.1402
  301MOL0     H40608   6.190   2.609   9.333 -1.4316 -0.7547  1.9095
  301MOL0     H40609   6.150   2.314   9.346 -1.5632  1.6694 -2.9832
  301MOL0     H40610   6.252   2.413   9.459  0.1839 -1.5740 -0.3926
  301MOL0     H40611   6.032   2.351   9.558 -2.9575 -0.5274 -2.1932
  301MOL0     H40612   5.940   2.411   9.432  1.7664  0.4666 -1.8925
  301MOL0     H40613   6.053   2.655   9.497 -1.1721  0.6596  0.8293
  301MOL0     H40614   5.938   2.596   9.608  0.7711  2.1517 -0.9208
  301MOL0     H40615   6.923   2.703   9.190 -0.9207  0.8324  0.3006
  301MOL0     H40616   7.107   2.780   9.317 -0.1521 -0.6474 -1.4459
  301MOL0     H40617   7.228   2.845   9.966 -1.5859  1.2707 -2.3693
  301MOL0     H40618   7.450   2.886  10.030 -3.5981 -3.2891 -0.0941
  301MOL0     H40619   7.627   3.387   9.841 -0.7135 -0.2514  1.4396
  301MOL0     H40620   7.408   3.290   9.903 -0.1820 -1.1862 -0.2742
  301MOL0     H40621   7.102   3.124   9.953  1.0349  1.6080 -1.2657
  301MOL0     H40622   6.933   3.019  10.102  0.4810 -1.9404 -0.4833
  301MOL0     H40623   6.618   2.808  10.150  1.4084  0.1753  1.9924
  301MOL0     H40624   6.779   2.843  10.175 -2.0260 -0.7460  2.1864
  301MOL0     H40625   6.763   2.633  10.080  2.1337  1.2968  1.3439
  301MOL0     H40626   6.850   2.727   9.959 -0.9987 -0.3144 -1.1518
  301MOL0     H40627   6.621   2.764   9.852 -2.1767  0.3027  1.6284
  301MOL0     H40628   6.569   2.635   9.965 -0.4974  0.6646 -0.4061
  301MOL0     H40629   6.785   2.608   9.736 -1.7300 -0.9773 -2.4333
  301MOL0     H40630   6.785   2.503   9.881 -1.6992 -1.5493  0.0595
  301MOL0     H40631   6.456   2.341   9.658  0.4595 -3.8697  3.1377
  301MOL0     H40632   6.649   3.054   9.776 -0.2440  2.4478 -2.3175
  301MOL0     H40633   6.800   3.274   9.592  1.5641 -0.0490 -1.0146
  301MOL0     H40634   6.847   3.127   9.518 -2.6340 -0.7127 -0.6909
  301MOL0     H40635   6.678   3.143   9.563  0.0724 -1.9918  0.6133
  302MOL0     O40636  10.627   8.317  10.743 -0.4003  0.8065  0.0043
  302MOL0     C40637  10.524   8.322  10.810  0.0549 -0.1913  0.4649
  302MOL0     O40638  10.527   8.314  10.947 -0.8029 -0.6788  0.6849
  302MOL0     C40639  10.645   8.256  10.999  0.0196 -0.0755 -0.3929
  302MOL0     C40640  10.676   8.115  11.003 -0.3969  0.1320  0.7077
  302MOL0     C40641  10.802   8.072  11.055  0.2936 -0.5591 -0.6050
  302MOL0     C40642  10.905   8.159  11.089  0.4868 -0.7219 -0.1600
  302MOL0     O40643  11.013   8.089  11.131  0.4411 -0.1513  0.1185
  302MOL0     C40644  11.142   8.153  11.146  0.1340  0.4558 -0.5638
  302MOL0     C40645  11.168   8.199  11.287 -0.1364 -0.7299 -0.3312
  302MOL0     C40646  11.304   8.268  11.291 -0.2515 -0.0187 -0.3804
  302MOL0     C40647  11.277   8.415  11.264 -0.0779  0.4301  0.6969
  302MOL0     C40648  11.411   8.494  11.272  0.6693  1.3393 -0.4118
  302MOL0     C40649  11.464   8.512  11.413 -0.0843 -0.4032 -1.2813
  302MOL0     C40650  11.573   8.417  11.467 -0.6568 -0.3309  0.3257
  302MOL0     C40651  11.695   8.429  11.375  0.1643 -0.4892 -0.6926
  302MOL0     N40652  11.805   8.351  11.428 -0.5737 -0.1101 -0.3471
  302MOL0     C40653  11.853   8.237  11.371 -0.0144  0.0645 -0.5221
  302MOL0     C40654  11.947   8.201  11.457 -0.0243  0.1408  0.3293
  302MOL0     C40655  12.027   8.075  11.450  0.2307 -0.5019  0.1856
  302MOL0     C40656  12.022   7.995  11.587 -0.2013 -0.3123  0.6814
  302MOL0     C40657  12.068   7.851  11.552  0.0640  0.0310 -0.6008
  302MOL0     C40658  12.028   7.752  11.666  0.2778  0.6707 -0.6774
  302MOL0     O40659  12.125   7.765  11.774  0.7331 -0.5086  0.1651
  302MOL0     C40660  12.121   7.672  11.876 -0.0588  0.6772  0.3056
  302MOL0     C40661  12.237   7.661  11.954  0.6093  0.2718 -0.3530
  302MOL0     C40662  12.242   7.577  12.063  0.4148  0.2811  0.2073
  302MOL0     C40663  12.130   7.504  12.104 -0.4522 -0.6356 -0.0941
  302MOL0     C40664  12.126   7.414  12.220  0.5296  0.2322 -0.3061
  302MOL0     O40665  12.197   7.455  12.335  0.0469  0.0230  0.4549
  302MOL0     C40666  12.177   7.367  12.438 -0.1263 -1.1698  0.2427
  302MOL0     C40667  12.117   7.409  12.551  0.2782 -0.3624  0.6542
  302MOL0     C40668  12.091   7.311  12.648  0.0973  0.7752  0.3623
  302MOL0     C40669  12.127   7.178  12.633  1.5938 -0.4455  0.1943
  302MOL0     O40670  12.108   7.070  12.712 -0.3027  0.0189 -0.7617
  302MOL0     C40671  11.997   7.070  12.803 -0.3347 -1.2482 -0.8546
  302MOL0     C40672  12.044   6.994  12.926  0.2384  0.7690  0.6072
  302MOL0     C40673  12.044   6.840  12.901 -0.2960  0.2322 -0.2976
  302MOL0     C40674  11.925   6.767  12.953  0.3569 -0.1719 -0.2770
  302MOL0     C40675  11.956   6.725  13.096  0.8646  0.0943 -0.5145
  302MOL0     C40676  11.830   6.669  13.155  0.2452 -0.1211  0.0541
  302MOL0     C40677  11.850   6.674  13.312 -0.5592  0.9146 -0.5165
  302MOL0     C40678  11.811   6.804  13.379  0.7184  0.3750 -1.1004
  302MOL0    Cl40679  11.828   6.803  13.549 -0.3310 -0.5370  0.0168
  302MOL0     C40680  12.199   7.141  12.518 -0.9859 -0.1098 -0.1185
  302MOL0     C40681  12.232   7.236  12.426  1.3252 -0.0308  0.7502
  302MOL0     O40682  12.054   7.315  12.199  0.1431 -0.2880  0.2275
  302MOL0     C40683  12.017   7.512  12.024  0.4642 -0.8527 -0.0238
  302MOL0     C40684  12.013   7.594  11.906  0.3577 -0.0317  0.1676
  302MOL0     N40685  11.971   8.298  11.550 -0.2536 -0.4293  0.1106
  302MOL0     N40686  11.882   8.391  11.535 -0.4456 -0.4210  0.5898
  302MOL0     C40687  10.870   8.302  11.086 -0.6385  0.2712 -0.0645
  302MOL0     C40688  10.742   8.343  11.036  0.3389 -0.3557 -0.0107
  302MOL0     C40689  10.390   8.325  10.743  0.0637 -0.0339  1.0091
  302MOL0     C40690  10.391   8.361  10.608  0.0139  0.5525  1.2591
  302MOL0     C40691  10.277   8.368  10.529  0.2531  0.3259  0.7507
  302MOL0     C40692  10.150   8.321  10.583 -0.0083 -0.4838  1.1318
  302MOL0     O40693  10.036   8.314  10.508 -0.1405  0.0367 -0.4552
  302MOL0     C40694  10.017   8.361  10.375 -0.4889 -0.7560 -0.3014
  302MOL0     C40695   9.871   8.358  10.325  0.0635  0.3993  0.1560
  302MOL0     C40696   9.775   8.449  10.403 -0.0531  0.5851  0.4470
  302MOL0     C40697   9.632   8.443  10.346 -0.0391  0.1754  0.2171
  302MOL0     C40698   9.566   8.315  10.345 -0.2628 -0.2864  0.5820
  302MOL0     C40699   9.505   8.209  10.341  0.4983  0.0869 -0.5722
  302MOL0     C40700  10.154   8.282  10.716 -0.1539  0.1292 -0.1514
  302MOL0     C40701  10.271   8.280  10.797  0.1744  0.2760 -0.4337
  302MOL0     C40702  10.255   8.239  10.940  1.7095 -0.2508 -0.1563
  302MOL0     H40703  10.605   8.034  10.989 -1.3103  0.8369  1.1634
  302MOL0     H40704  10.812   7.964  11.063  0.2620 -0.4561  1.3005
  302MOL0     H40705  11.214   8.083  11.102 -0.7713 -0.1326 -1.1234
  302MOL0     H40706  11.164   8.241  11.085  3.1828 -0.2321 -0.6612
  302MOL0     H40707  11.174   8.108  11.347  3.4302 -0.9956 -0.8770
  302MOL0     H40708  11.091   8.267  11.324 -0.5154 -1.2818 -0.0958
  302MOL0     H40709  11.379   8.224  11.224 -0.7851 -0.2272 -0.8473
  302MOL0     H40710  11.345   8.251  11.391 -0.0725 -1.2888 -0.6452
  302MOL0     H40711  11.239   8.426  11.162  0.7182  1.1158  0.4563
  302MOL0     H40712  11.207   8.459  11.336  0.3086  0.7115  0.9036
  302MOL0     H40713  11.474   8.439  11.201 -3.3226  0.1559 -3.3912
  302MOL0     H40714  11.388   8.591  11.226  1.8379  1.2088 -1.3201
  302MOL0     H40715  11.494   8.617  11.419 -0.1122 -0.4711  1.0857
  302MOL0     H40716  11.383   8.495  11.485  1.1916 -1.9898 -0.1224
  302MOL0     H40717  11.543   8.312  11.476  0.8846 -1.2555 -3.4088
  302MOL0     H40718  11.606   8.447  11.567 -1.5092 -0.5579  0.6855
  302MOL0     H40719  11.680   8.375  11.281  0.6851 -3.6568  0.8868
  302MOL0     H40720  11.722   8.533  11.356 -1.3352  0.4681  1.9431
  302MOL0     H40721  11.821   8.197  11.275 -1.4924 -0.2201  0.0603
  302MOL0     H40722  11.992   8.010  11.370  0.5340  1.9296 -2.0454
  302MOL0     H40723  12.131   8.100  11.427 -0.0384  0.1566 -0.3440
  302MOL0     H40724  12.088   8.040  11.662  1.8379 -1.1916 -0.5022
  302MOL0     H40725  11.920   7.994  11.627 -0.9072  2.1139 -0.8357
  302MOL0     H40726  12.176   7.857  11.560 -0.0031 -1.1117  3.7667
  302MOL0     H40727  12.017   7.819  11.460 -0.8964 -3.0816  0.8680
  302MOL0     H40728  12.039   7.649  11.630  2.3568 -0.9559  3.9028
  302MOL0     H40729  11.924   7.773  11.691  0.4032  0.8287 -0.2803
  302MOL0     H40730  12.330   7.701  11.915  1.4996 -1.1298  0.2733
  302MOL0     H40731  12.334   7.580  12.121  1.3282  0.0059 -1.1835
  302MOL0     H40732  12.084   7.511  12.565 -2.9712 -1.5078  2.6961
  302MOL0     H40733  12.036   7.342  12.736  2.4435 -1.5698  2.8492
  302MOL0     H40734  11.967   7.173  12.824 -0.6884 -0.8904 -2.9209
  302MOL0     H40735  11.907   7.027  12.757 -3.2419  2.7327  0.5340
  302MOL0     H40736  12.147   7.024  12.948 -0.1071  2.0852  0.5267
  302MOL0     H40737  11.981   7.019  13.011 -2.5617 -0.3896 -1.0109
  302MOL0     H40738  12.051   6.812  12.796 -2.0588 -2.4342  0.2025
  302MOL0     H40739  12.132   6.797  12.949  0.3438  0.6806 -1.0614
  302MOL0     H40740  11.910   6.669  12.905  1.1286 -1.2175  1.5114
  302MOL0     H40741  11.829   6.818  12.941  1.1419  1.0908 -1.5599
  302MOL0     H40742  11.988   6.807  13.161  0.1679 -1.1748  1.5204
  302MOL0     H40743  12.031   6.645  13.097  0.3819 -0.3692  0.7423
  302MOL0     H40744  11.748   6.728  13.114 -0.7872  1.1696  3.6329
  302MOL0     H40745  11.814   6.564  13.130  0.0534 -0.0023 -0.3463
  302MOL0     H40746  11.956   6.656  13.333 -0.4609  1.4587 -0.5308
  302MOL0     H40747  11.777   6.598  13.338 -1.4987  1.2733 -1.9809
  302MOL0     H40748  11.866   6.891  13.343  1.3857  0.5562  0.3192
  302MOL0     H40749  11.706   6.829  13.361 -0.2242 -1.0293  1.8494
  302MOL0     H40750  12.235   7.039  12.513 -1.8577 -0.4638  0.5243
  302MOL0     H40751  12.302   7.209  12.347 -1.2793  0.4456 -1.8699
  302MOL0     H40752  11.925   7.465  12.055  0.0431  0.4316  0.7416
  302MOL0     H40753  11.921   7.603  11.850  2.5459 -0.8726 -3.9666
  302MOL0     H40754  10.932   8.383  11.123  0.4719 -1.2325  1.5492
  302MOL0     H40755  10.713   8.447  11.024  2.2745  0.4789  1.8611
  302MOL0     H40756  10.484   8.380  10.556  0.5683 -3.7155  0.2513
  302MOL0     H40757  10.293   8.397  10.425 -0.0879 -2.0044 -0.0178
  302MOL0     H40758  10.078   8.307  10.302  1.3983 -0.5728  1.0496
  302MOL0     H40759  10.052   8.463  10.398  1.5435 -2.1489  3.6947
  302MOL0     H40760   9.839   8.253  10.331 -2.1280  0.8790 -1.6886
  302MOL0     H40761   9.865   8.383  10.219 -0.4231  1.0559  0.3329
  302MOL0     H40762   9.813   8.551  10.390 -1.1207  1.0551  0.9569
  302MOL0     H40763   9.777   8.430  10.510  1.1459 -3.3372 -0.1206
  302MOL0     H40764   9.572   8.505  10.413 -1.1531  0.0316 -0.6236
  302MOL0     H40765   9.631   8.482  10.244  0.2254 -1.7788 -0.5695
  302MOL0     H40766   9.447   8.119  10.337 -0.4071  0.6031  0.5113
  302MOL0     H40767  10.065   8.242  10.765  0.0794  0.9581  0.9906
  302MOL0     H40768  10.276   8.321  11.009 -1.1141 -1.2277  2.0808
  302MOL0     H40769  10.157   8.194  10.963  0.9157  0.7938 -1.3333
  302MOL0     H40770  10.333   8.166  10.962  0.9320 -1.1276 -0.2034
  303MOL0     O40771   5.868   3.747   0.843 -0.5204 -0.0740  0.0750
  303MOL0     C40772   5.818   3.676   0.759  0.6820  0.1734  0.2902
  303MOL0     O40773   5.693   3.633   0.769  0.2457  0.1121  0.4491
  303MOL0     C40774   5.649   3.568   0.885 -0.5714  1.0135  0.0733
  303MOL0     C40775   5.514   3.560   0.916  0.9442 -0.4442  0.0982
  303MOL0     C40776   5.475   3.511   1.043 -1.0054  0.3145  0.7464
  303MOL0     C40777   5.567   3.453   1.139  0.8516 -0.2844  0.1190
  303MOL0     O40778   5.519   3.426   1.265  0.4823 -0.0404 -0.2675
  303MOL0     C40779   5.605   3.439   1.382  0.0463  1.2941  0.4805
  303MOL0     C40780   5.517   3.468   1.506 -0.1014 -0.5982  1.0803
  303MOL0     C40781   5.608   3.493   1.626  1.0677 -0.5546 -0.0953
  303MOL0     C40782   5.515   3.484   1.750  0.5573 -0.7819  0.4388
  303MOL0     C40783   5.600   3.526   1.872  0.1774  0.1105  0.3088
  303MOL0     C40784   5.604   3.680   1.869 -0.6429  0.2452 -0.0638
  303MOL0     C40785   5.662   3.723   2.003  0.7772  0.9607  0.8925
  303MOL0     C40786   5.738   3.853   1.990  0.3775  0.3230  0.0896
  303MOL0     N40787   5.884   3.829   1.946  0.1295 -0.4442 -0.5826
  303MOL0     C40788   5.927   3.788   1.825 -0.0216 -0.2176  0.5421
  303MOL0     C40789   6.059   3.771   1.838  1.4225  0.9347 -0.2970
  303MOL0     C40790   6.150   3.734   1.728 -0.5443 -0.3720  0.4634
  303MOL0     C40791   6.187   3.584   1.719 -0.9961  0.1619  0.6172
  303MOL0     C40792   6.137   3.532   1.584  0.0282 -0.1802 -0.0934
  303MOL0     C40793   6.181   3.388   1.540  0.8713  0.2848 -0.5279
  303MOL0     O40794   6.105   3.303   1.631 -0.1261  0.1433 -0.6524
  303MOL0     C40795   6.174   3.199   1.693  0.5914  0.0761 -0.6386
  303MOL0     C40796   6.308   3.195   1.714 -1.1919 -0.8656  0.5176
  303MOL0     C40797   6.362   3.094   1.792  0.4869  0.5592 -0.4085
  303MOL0     C40798   6.289   2.981   1.834  0.1602 -0.0977  0.5987
  303MOL0     C40799   6.349   2.866   1.919  0.5488 -0.3666 -0.1719
  303MOL0     O40800   6.482   2.872   1.935  0.1276  0.2635  0.2592
  303MOL0     C40801   6.543   2.797   2.036  0.3112 -0.6048 -0.6983
  303MOL0     C40802   6.639   2.704   2.001  0.8021  0.5540 -0.1226
  303MOL0     C40803   6.710   2.625   2.097  0.9011  0.0838  0.8349
  303MOL0     C40804   6.661   2.633   2.231 -1.3052 -0.6565  0.3532
  303MOL0     O40805   6.704   2.550   2.333 -0.0018  0.3450  0.0001
  303MOL0     C40806   6.780   2.429   2.304  1.1782 -0.6072 -0.2247
  303MOL0     C40807   6.699   2.324   2.248 -0.3039  0.5073 -0.5196
  303MOL0     C40808   6.552   2.297   2.301 -0.4303 -0.3289 -0.1601
  303MOL0     C40809   6.539   2.250   2.446  0.0343  0.7806  0.4960
  303MOL0     C40810   6.395   2.222   2.506 -0.3243 -0.0323  0.8185
  303MOL0     C40811   6.420   2.156   2.640 -0.3290 -0.0970 -0.3937
  303MOL0     C40812   6.301   2.083   2.711 -0.2065 -0.2654 -0.6002
  303MOL0     C40813   6.330   2.078   2.863 -0.8600  0.1204  0.1482
  303MOL0    Cl40814   6.170   2.043   2.933 -0.1272  0.3725  0.0520
  303MOL0     C40815   6.555   2.727   2.263  0.2155  0.2427  0.5176
  303MOL0     C40816   6.492   2.804   2.168  0.0648  0.6716 -0.5564
  303MOL0     O40817   6.268   2.796   1.983 -0.5619  0.0216  0.2411
  303MOL0     C40818   6.151   2.984   1.805  0.4748  1.0546 -0.6032
  303MOL0     C40819   6.094   3.092   1.733  0.9509 -0.0910 -0.3243
  303MOL0     N40820   6.094   3.808   1.964  0.2908 -1.9612 -0.0659
  303MOL0     N40821   5.991   3.847   2.025 -0.1666  0.2340  0.2620
  303MOL0     C40822   5.702   3.443   1.095  0.3751  0.0728 -0.4864
  303MOL0     C40823   5.735   3.510   0.978 -0.1364 -0.2731 -0.8237
  303MOL0     C40824   5.878   3.675   0.624  0.4610 -0.0766  0.1155
  303MOL0     C40825   5.807   3.728   0.520 -0.4933 -0.1192  0.2921
  303MOL0     C40826   5.853   3.742   0.387  0.5319 -0.0660 -0.3086
  303MOL0     C40827   5.983   3.700   0.356 -0.5608  0.0038 -0.0488
  303MOL0     O40828   6.032   3.724   0.234  0.1881 -0.6965  0.8759
  303MOL0     C40829   6.174   3.739   0.220  0.0228  0.1469 -0.7190
  303MOL0     C40830   6.209   3.830   0.100 -0.3262  0.5616  0.4951
  303MOL0     C40831   6.172   3.980   0.125 -0.3828 -0.4457  0.1878
  303MOL0     C40832   6.128   4.051  -0.006  0.3102  0.4694  1.0905
  303MOL0     C40833   6.217   4.031  -0.120  0.3672  0.3010 -1.0655
  303MOL0     C40834   6.307   4.000  -0.203 -0.0570  0.4159  0.7950
  303MOL0     C40835   6.058   3.644   0.461  0.0554 -0.3528  0.5161
  303MOL0     C40836   6.010   3.637   0.589  1.3025  1.0469 -0.6294
  303MOL0     C40837   6.110   3.573   0.683 -0.3768 -0.0453 -0.4426
  303MOL0     H40838   5.446   3.605   0.844 -0.0412 -1.1466  0.5759
  303MOL0     H40839   5.370   3.521   1.065 -1.1045  0.7805  0.1075
  303MOL0     H40840   5.659   3.346   1.405  0.9387  0.8962 -2.8035
  303MOL0     H40841   5.678   3.519   1.362  1.0846  0.7650  1.9268
  303MOL0     H40842   5.437   3.396   1.523 -2.1623  1.3099 -0.0384
  303MOL0     H40843   5.470   3.563   1.477  1.6623 -0.6644 -2.6701
  303MOL0     H40844   5.667   3.583   1.605  2.9676 -1.8582 -0.6831
  303MOL0     H40845   5.692   3.424   1.640  1.0020  0.0620  5.7277
  303MOL0     H40846   5.427   3.549   1.748  1.4175  0.4010 -0.0201
  303MOL0     H40847   5.489   3.378   1.764 -0.8731 -0.2612  2.1903
  303MOL0     H40848   5.541   3.485   1.954 -1.0418  0.0079 -0.5946
  303MOL0     H40849   5.699   3.481   1.875 -0.9926 -2.6227  1.8340
  303MOL0     H40850   5.663   3.709   1.782 -1.2131  0.6073 -0.3355
  303MOL0     H40851   5.504   3.725   1.859 -2.4613 -2.6553  2.7837
  303MOL0     H40852   5.717   3.639   2.046 -1.5991 -1.3820 -0.3404
  303MOL0     H40853   5.571   3.744   2.061 -0.3960  0.1063 -0.5628
  303MOL0     H40854   5.687   3.928   1.929  0.9664  0.7732  0.1410
  303MOL0     H40855   5.745   3.896   2.090 -1.6562  2.7601 -0.7224
  303MOL0     H40856   5.865   3.764   1.739 -2.8754  0.8158  2.1493
  303MOL0     H40857   6.107   3.767   1.633 -1.3701  0.1733  1.0133
  303MOL0     H40858   6.247   3.783   1.746 -1.1055  0.6768  0.7245
  303MOL0     H40859   6.293   3.559   1.731 -1.3782 -1.2016  1.4622
  303MOL0     H40860   6.137   3.524   1.795  0.4873 -3.4302 -0.9954
  303MOL0     H40861   6.178   3.601   1.509  4.6679 -0.0554  2.1786
  303MOL0     H40862   6.028   3.538   1.578  0.1330  0.7184 -2.1843
  303MOL0     H40863   6.289   3.374   1.548  0.9603  1.7884  1.6073
  303MOL0     H40864   6.163   3.355   1.437  3.3431 -2.0429 -0.3294
  303MOL0     H40865   6.370   3.282   1.697 -3.6399  0.5127 -2.3577
  303MOL0     H40866   6.469   3.081   1.808 -0.0319 -0.4706  3.0998
  303MOL0     H40867   6.670   2.712   1.898 -0.5774 -0.3135 -0.6376
  303MOL0     H40868   6.791   2.556   2.074  0.5073 -0.9291  2.2837
  303MOL0     H40869   6.865   2.452   2.239  1.4630  0.7998  0.5976
  303MOL0     H40870   6.822   2.400   2.401 -1.4256  0.4385  1.3153
  303MOL0     H40871   6.701   2.325   2.139  1.0832 -3.5496 -0.7035
  303MOL0     H40872   6.757   2.237   2.282 -1.5480 -0.3005 -0.4145
  303MOL0     H40873   6.476   2.373   2.281 -0.8190 -0.8433 -0.6958
  303MOL0     H40874   6.521   2.214   2.236 -0.8656 -0.7593  0.5789
  303MOL0     H40875   6.591   2.323   2.507  1.6682 -2.2380  3.0309
  303MOL0     H40876   6.601   2.161   2.460  1.3734  1.9165  2.2549
  303MOL0     H40877   6.344   2.146   2.446 -0.1580 -1.5841  2.5493
  303MOL0     H40878   6.337   2.313   2.523 -1.6996 -0.3742 -1.6143
  303MOL0     H40879   6.505   2.088   2.646 -2.0078 -2.1975  1.0164
  303MOL0     H40880   6.451   2.242   2.700  0.8190 -0.3294 -0.6249
  303MOL0     H40881   6.297   1.980   2.676  2.1576  0.5827 -3.7574
  303MOL0     H40882   6.207   2.139   2.705 -0.5549 -0.6463  0.8533
  303MOL0     H40883   6.398   1.997   2.890 -0.2370  1.1623  1.8480
  303MOL0     H40884   6.366   2.170   2.911 -3.3643  1.5408 -0.5049
  303MOL0     H40885   6.515   2.709   2.363 -3.0030 -0.0001 -0.6999
  303MOL0     H40886   6.407   2.867   2.191  0.8072  0.9007  1.8887
  303MOL0     H40887   6.080   2.906   1.829  0.8607  0.1713 -2.1808
  303MOL0     H40888   5.988   3.092   1.708 -0.6829  4.3442  4.5954
  303MOL0     H40889   5.772   3.399   1.166  1.6142  2.7154  0.0697
  303MOL0     H40890   5.843   3.499   0.973  0.2514  1.0138  2.3178
  303MOL0     H40891   5.705   3.766   0.518  0.1447  1.8985 -3.2479
  303MOL0     H40892   5.810   3.789   0.298 -2.3171 -0.5231  0.7315
  303MOL0     H40893   6.211   3.641   0.190 -1.6651  0.3658 -4.0481
  303MOL0     H40894   6.219   3.782   0.310 -2.6260 -0.0252  0.7833
  303MOL0     H40895   6.159   3.795   0.010 -1.0631 -2.2758  1.9000
  303MOL0     H40896   6.315   3.822   0.075 -0.8277  1.6559 -2.3371
  303MOL0     H40897   6.264   4.029   0.156  0.7351 -1.9738 -0.5664
  303MOL0     H40898   6.092   3.983   0.200 -2.3484  0.2295 -1.8110
  303MOL0     H40899   6.029   4.020  -0.040 -1.0103  3.8823  1.4195
  303MOL0     H40900   6.113   4.159   0.007 -1.5605  0.3396  0.2343
  303MOL0     H40901   6.369   3.969  -0.285 -2.2315 -2.1653  0.0120
  303MOL0     H40902   6.156   3.600   0.446 -0.2361 -1.7675  2.3846
  303MOL0     H40903   6.136   3.469   0.658  0.2919 -1.5652  5.1544
  303MOL0     H40904   6.202   3.631   0.677 -0.9086  1.0523  1.3045
  303MOL0     H40905   6.067   3.558   0.783 -2.7313 -0.2899 -1.4162
  304MOL0     O40906  11.292   4.378   6.201 -0.1986  0.0913 -0.2450
  304MOL0     C40907  11.249   4.434   6.104  0.0950  0.1964 -0.4200
  304MOL0     O40908  11.305   4.528   6.030 -0.0213 -0.6753  0.3916
  304MOL0     C40909  11.412   4.603   6.087  0.2349 -0.8261  0.4617
  304MOL0     C40910  11.504   4.563   6.176 -0.5765 -0.4336  0.6906
  304MOL0     C40911  11.609   4.645   6.210  0.1687  0.1524 -0.6397
  304MOL0     C40912  11.630   4.777   6.159  0.7480  0.0032  0.0965
  304MOL0     O40913  11.727   4.857   6.208 -0.0784  0.5010  0.5096
  304MOL0     C40914  11.859   4.810   6.184  0.5078 -0.0702  0.1630
  304MOL0     C40915  11.955   4.856   6.296  0.5427 -0.6308  0.2043
  304MOL0     C40916  11.986   5.009   6.279  0.7740 -0.1864  0.7319
  304MOL0     C40917  12.075   5.021   6.145  0.0760 -0.6787  0.1559
  304MOL0     C40918  12.196   5.101   6.172 -0.0637 -0.1075 -0.2998
  304MOL0     C40919  12.169   5.253   6.206  0.3371 -0.1461 -0.1299
  304MOL0     C40920  12.291   5.330   6.219 -0.6745 -0.3204 -0.1920
  304MOL0     C40921  12.373   5.280   6.344  0.3148 -0.7305 -0.3907
  304MOL0     N40922  12.477   5.374   6.386 -0.3506  0.2497 -0.7302
  304MOL0     C40923  12.465   5.451   6.492  0.9011  0.1725  0.6069
  304MOL0     C40924  12.585   5.520   6.488  0.2511  0.9329 -0.1800
  304MOL0     C40925  12.604   5.630   6.593  0.7266  0.7620  0.5072
  304MOL0     C40926  12.714   5.730   6.562  0.6417  0.0671 -0.0159
  304MOL0     C40927  12.857   5.676   6.582  0.8206  0.4184  0.7002
  304MOL0     C40928  12.961   5.781   6.593  0.0424  0.1610 -0.5516
  304MOL0     O40929  13.095   5.727   6.573  0.4141  0.0453  0.1652
  304MOL0     C40930  13.136   5.642   6.675  0.4330  0.7080  1.1489
  304MOL0     C40931  13.185   5.520   6.650  1.5440 -0.0775 -0.1247
  304MOL0     C40932  13.235   5.447   6.759  0.4238  0.6268  0.1242
  304MOL0     C40933  13.228   5.490   6.891 -0.5719 -0.4726 -0.3809
  304MOL0     C40934  13.286   5.407   7.008  0.1971 -0.7601 -0.6883
  304MOL0     O40935  13.321   5.277   6.986 -0.6810  1.1289  0.6466
  304MOL0     C40936  13.366   5.200   7.096 -0.0791 -0.8243  0.2992
  304MOL0     C40937  13.500   5.220   7.144  0.2756 -0.0527  0.1456
  304MOL0     C40938  13.568   5.127   7.231  0.7940 -0.0312  0.1392
  304MOL0     C40939  13.498   5.013   7.271 -0.0183 -0.2452 -1.1663
  304MOL0     O40940  13.559   4.914   7.350  0.5052  0.7306  0.1179
  304MOL0     C40941  13.701   4.909   7.365  0.8611 -0.0156  0.4871
  304MOL0     C40942  13.754   4.772   7.409 -0.6625 -0.4193 -0.5560
  304MOL0     C40943  13.696   4.725   7.552  0.2876 -1.2726 -0.0750
  304MOL0     C40944  13.786   4.611   7.612  0.2585 -0.2172 -0.2938
  304MOL0     C40945  13.724   4.564   7.747  0.4076 -0.2691 -0.7757
  304MOL0     C40946  13.814   4.453   7.802 -1.2848  0.2740 -0.2219
  304MOL0     C40947  13.782   4.416   7.945  0.2656  0.5394  1.0912
  304MOL0     C40948  13.894   4.325   7.997  0.3414  0.7281 -0.3430
  304MOL0    Cl40949  14.058   4.387   7.999  0.1510  0.4655 -0.1698
  304MOL0     C40950  13.363   4.992   7.234 -0.2739  0.4166  0.4230
  304MOL0     C40951  13.302   5.087   7.147  0.8165  0.2410 -0.5707
  304MOL0     O40952  13.272   5.454   7.122 -0.9348  0.5451 -0.7590
  304MOL0     C40953  13.176   5.619   6.911  0.0003 -0.0099  0.1839
  304MOL0     C40954  13.134   5.699   6.809  0.0190 -0.2250  0.4925
  304MOL0     N40955  12.668   5.476   6.385  0.2994  0.1210 -0.1523
  304MOL0     N40956  12.599   5.385   6.322 -0.8678  0.1213  0.2878
  304MOL0     C40957  11.535   4.821   6.068 -0.1312  0.1017 -1.1913
  304MOL0     C40958  11.423   4.735   6.037 -1.1352 -0.1521 -0.4978
  304MOL0     C40959  11.124   4.383   6.047  0.6469  0.6605  0.3082
  304MOL0     C40960  11.106   4.240   6.053 -0.9577  0.6295 -0.8191
  304MOL0     C40961  10.989   4.176   6.014 -0.1755 -0.2824  0.1061
  304MOL0     C40962  10.876   4.246   5.960 -1.5351 -0.3007 -0.5857
  304MOL0     O40963  10.762   4.171   5.933 -0.1766 -0.2907 -0.5376
  304MOL0     C40964  10.650   4.249   5.886  0.2288 -0.3921  0.6929
  304MOL0     C40965  10.517   4.178   5.884  0.3197  0.2159  0.4882
  304MOL0     C40966  10.462   4.126   6.016 -0.3767  0.9862 -0.1644
  304MOL0     C40967  10.308   4.120   6.023  0.4684  0.1112 -0.5418
  304MOL0     C40968  10.249   4.039   5.915  0.0247  1.7497  0.1613
  304MOL0     C40969  10.209   3.972   5.820  0.2117 -0.2481  0.4051
  304MOL0     C40970  10.904   4.385   5.953  0.6297 -0.0856  0.3500
  304MOL0     C40971  11.017   4.452   5.989 -0.9729  0.5442  0.0003
  304MOL0     C40972  11.019   4.598   5.969 -0.0759 -0.4358  0.0381
  304MOL0     H40973  11.509   4.469   6.230 -1.8360 -0.4142  0.8758
  304MOL0     H40974  11.676   4.602   6.284  2.0045 -2.0023 -3.3790
  304MOL0     H40975  11.846   4.702   6.175 -0.2489  0.0194  0.1264
  304MOL0     H40976  11.899   4.839   6.086 -1.7013 -1.2989 -1.1690
  304MOL0     H40977  12.047   4.797   6.307 -0.2027 -1.4566  2.9246
  304MOL0     H40978  11.897   4.835   6.387 -1.2850  0.2889 -0.6943
  304MOL0     H40979  12.048   5.046   6.362  3.7807 -0.3845 -1.2828
  304MOL0     H40980  11.897   5.071   6.276  2.1587  1.8657 -0.8829
  304MOL0     H40981  12.104   4.922   6.106 -3.6939 -0.4798 -4.0291
  304MOL0     H40982  12.023   5.066   6.060  1.7452  0.0250 -0.5485
  304MOL0     H40983  12.246   5.051   6.255 -0.8673  2.9647  2.2325
  304MOL0     H40984  12.264   5.092   6.087  0.9286  2.4363  0.1280
  304MOL0     H40985  12.101   5.297   6.132  0.6758 -0.1363 -0.4429
  304MOL0     H40986  12.107   5.258   6.296 -1.9899 -2.0237 -1.5066
  304MOL0     H40987  12.257   5.434   6.227 -2.9654 -1.0890  1.0112
  304MOL0     H40988  12.363   5.319   6.138 -0.2920  0.5150  0.0188
  304MOL0     H40989  12.311   5.253   6.430  0.1367  0.4906 -0.1148
  304MOL0     H40990  12.430   5.190   6.317  1.7815  0.8291 -2.9357
  304MOL0     H40991  12.380   5.466   6.558 -0.2476 -1.7312 -0.3630
  304MOL0     H40992  12.508   5.680   6.609 -0.3911 -1.3700  0.8725
  304MOL0     H40993  12.629   5.569   6.680  0.9293 -4.2131 -2.6319
  304MOL0     H40994  12.712   5.749   6.454 -0.8089 -1.3437 -0.2672
  304MOL0     H40995  12.699   5.820   6.622 -1.7586 -0.2379 -0.0789
  304MOL0     H40996  12.890   5.619   6.495  1.3637  1.2741  0.3267
  304MOL0     H40997  12.842   5.611   6.669 -1.7082  1.4447  1.1299
  304MOL0     H40998  12.954   5.842   6.683 -2.3312  0.5038 -0.8890
  304MOL0     H40999  12.934   5.842   6.506 -0.6904 -0.7545 -0.9907
  304MOL0     H41000  13.184   5.483   6.548  2.0749  1.7802 -0.8372
  304MOL0     H41001  13.277   5.348   6.743 -3.6477 -1.2669 -0.0590
  304MOL0     H41002  13.566   5.299   7.111  1.7726 -1.0633  0.5981
  304MOL0     H41003  13.667   5.144   7.273  1.2471 -3.5732  0.7721
  304MOL0     H41004  13.752   4.932   7.270 -0.6986 -0.8688 -0.5997
  304MOL0     H41005  13.733   4.993   7.427  2.4462  0.1239 -0.4568
  304MOL0     H41006  13.737   4.698   7.330 -0.1698 -1.7843  0.5874
  304MOL0     H41007  13.859   4.797   7.428 -1.5224  1.3092  2.6112
  304MOL0     H41008  13.689   4.809   7.622  0.2707 -1.9835  0.7907
  304MOL0     H41009  13.595   4.688   7.531 -0.9884  1.8068  0.0570
  304MOL0     H41010  13.886   4.649   7.633  0.3554 -0.3236 -0.5579
  304MOL0     H41011  13.807   4.523   7.551 -0.1726 -1.3430  1.1288
  304MOL0     H41012  13.618   4.537   7.752 -0.8513  3.7348  5.5269
  304MOL0     H41013  13.731   4.651   7.812  4.3140 -0.5888 -0.5572
  304MOL0     H41014  13.802   4.362   7.743 -0.7616 -0.5814  0.9474
  304MOL0     H41015  13.917   4.488   7.804 -0.8719 -0.8955 -0.4498
  304MOL0     H41016  13.690   4.359   7.931  1.9688 -1.8918 -1.1207
  304MOL0     H41017  13.763   4.502   8.010 -1.0862  0.5562  0.7152
  304MOL0     H41018  13.870   4.289   8.097 -1.2303  0.8887 -0.6279
  304MOL0     H41019  13.902   4.235   7.934 -0.5710 -0.4872  1.2108
  304MOL0     H41020  13.309   4.903   7.265 -2.9179  1.1622 -1.7224
  304MOL0     H41021  13.201   5.065   7.114  1.9666 -2.7526 -2.5215
  304MOL0     H41022  13.168   5.657   7.013 -1.7778  0.7015 -0.1835
  304MOL0     H41023  13.115   5.803   6.830  2.6397  0.7811 -1.5295
  304MOL0     H41024  11.541   4.921   6.025  1.3608  0.9357  0.7648
  304MOL0     H41025  11.351   4.763   5.960 -0.6765 -3.3581 -2.2441
  304MOL0     H41026  11.176   4.172   6.100  0.0422  1.2619 -1.3682
  304MOL0     H41027  11.002   4.069   6.024  1.9895 -0.0562  0.3192
  304MOL0     H41028  10.660   4.276   5.780 -0.7221  0.5203  0.8177
  304MOL0     H41029  10.642   4.345   5.937  0.8539 -0.1551  0.3519
  304MOL0     H41030  10.535   4.088   5.824  0.6369  0.0410  0.8438
  304MOL0     H41031  10.447   4.247   5.835  1.3226  0.2584 -0.9714
  304MOL0     H41032  10.505   4.178   6.102  1.3653  2.0054 -1.5857
  304MOL0     H41033  10.492   4.021   6.027 -1.1728  0.8827  1.1752
  304MOL0     H41034  10.275   4.079   6.119  0.1303 -0.3422 -0.8488
  304MOL0     H41035  10.265   4.220   6.015 -1.4694 -0.5514  0.7559
  304MOL0     H41036  10.198   3.918   5.728  1.6839  1.3890 -0.7941
  304MOL0     H41037  10.822   4.447   5.919 -1.4549 -2.2608  1.0726
  304MOL0     H41038  11.095   4.626   5.896 -2.3553  2.1783 -1.5458
  304MOL0     H41039  10.921   4.644   5.954  0.0829 -0.6855 -2.1728
  304MOL0     H41040  11.052   4.638   6.065 -3.6665 -0.0033  1.2323
  305MOL0     O41041   9.477   2.150   0.072  0.4475  0.7669  0.5716
  305MOL0     C41042   9.436   2.034   0.097 -0.1277  0.4267 -0.5920
  305MOL0     O41043   9.488   1.918   0.052 -0.1833  0.0704  0.0995
  305MOL0     C41044   9.601   1.924  -0.022 -1.0519  0.2604 -0.3306
  305MOL0     C41045   9.600   1.989  -0.145  0.0413 -0.1016 -0.5888
  305MOL0     C41046   9.717   2.022  -0.210 -0.3002 -0.5911 -0.0636
  305MOL0     C41047   9.842   1.971  -0.163 -0.7624 -0.2907 -0.1374
  305MOL0     O41048   9.966   1.999  -0.222 -0.4979 -0.4109  0.7322
  305MOL0     C41049   9.989   2.110  -0.308  0.4319 -0.5789  0.9402
  305MOL0     C41050  10.134   2.116  -0.340  0.7270  0.0322 -0.2499
  305MOL0     C41051  10.177   2.008  -0.443 -0.3341 -0.5010 -0.1329
  305MOL0     C41052  10.323   2.044  -0.487 -0.7666  1.0044  0.0051
  305MOL0     C41053  10.389   1.930  -0.575  0.2336  0.0060  0.2319
  305MOL0     C41054  10.537   1.971  -0.588  0.5780 -0.1084  0.6711
  305MOL0     C41055  10.627   1.865  -0.659  1.2637  0.3285 -0.6905
  305MOL0     C41056  10.775   1.918  -0.677 -0.0213  0.2660 -0.9842
  305MOL0     N41057  10.817   1.859  -0.802  0.8843  0.3865  0.4783
  305MOL0     C41058  10.836   1.925  -0.923  0.8380  0.1627 -1.3002
  305MOL0     C41059  10.882   1.833  -1.006  0.3819 -0.2290  0.4627
  305MOL0     C41060  10.916   1.873  -1.149  0.8396  0.6000  0.3781
  305MOL0     C41061  11.063   1.925  -1.163  0.0918  0.5872 -0.2380
  305MOL0     C41062  11.159   1.811  -1.108  0.3458  0.2911  0.4177
  305MOL0     C41063  11.300   1.833  -1.161 -0.0260  0.1931  0.0567
  305MOL0     O41064  11.362   1.933  -1.078 -0.1005 -0.5839 -0.1913
  305MOL0     C41065  11.486   1.970  -1.110 -0.3293  0.7103 -0.2016
  305MOL0     C41066  11.593   1.898  -1.050 -0.0584 -0.2594 -0.5048
  305MOL0     C41067  11.727   1.932  -1.089  0.8126 -0.5754 -0.3202
  305MOL0     C41068  11.755   2.049  -1.154  0.4184 -0.9555 -0.2639
  305MOL0     C41069  11.889   2.086  -1.184  0.6865 -0.3238 -0.4278
  305MOL0     O41070  11.914   2.191  -1.270  0.7668  0.0756  0.4181
  305MOL0     C41071  12.044   2.222  -1.287  0.2076  0.0693  0.4287
  305MOL0     C41072  12.118   2.266  -1.173 -0.4519 -0.5184 -0.1584
  305MOL0     C41073  12.248   2.296  -1.177 -0.5270  0.5589 -0.2204
  305MOL0     C41074  12.313   2.312  -1.299 -0.6642  1.0393  0.7383
  305MOL0     O41075  12.439   2.362  -1.310 -0.8031  0.0681  0.1723
  305MOL0     C41076  12.510   2.433  -1.202  0.2541 -0.6990  1.2727
  305MOL0     C41077  12.583   2.563  -1.261  0.1386  0.6799  0.2332
  305MOL0     C41078  12.678   2.634  -1.167 -0.0568  0.0317 -0.0907
  305MOL0     C41079  12.797   2.554  -1.143 -0.6884  0.3571  0.7202
  305MOL0     C41080  12.905   2.625  -1.075 -0.9713 -0.3431 -0.0555
  305MOL0     C41081  12.966   2.736  -1.158  0.3286  0.9684 -0.3955
  305MOL0     C41082  13.084   2.803  -1.095 -1.4880 -0.4505 -0.0271
  305MOL0     C41083  13.055   2.865  -0.957 -0.3026 -0.0964 -0.3411
  305MOL0    Cl41084  13.183   2.981  -0.906  0.3207 -0.0167  0.1362
  305MOL0     C41085  12.243   2.281  -1.415  0.3118 -0.8533 -0.1516
  305MOL0     C41086  12.109   2.239  -1.404 -0.0560 -0.2286 -0.1091
  305MOL0     O41087  11.979   2.021  -1.124  0.6211  0.1386  0.1476
  305MOL0     C41088  11.647   2.128  -1.199 -0.4671  0.1774  0.5277
  305MOL0     C41089  11.511   2.079  -1.187 -0.2277 -0.2706  0.0534
  305MOL0     N41090  10.899   1.708  -0.940  0.0240  0.3174 -0.0683
  305MOL0     N41091  10.857   1.735  -0.818 -0.4508  0.6412  0.6256
  305MOL0     C41092   9.841   1.891  -0.051  0.1237 -0.6422 -0.3057
  305MOL0     C41093   9.726   1.876   0.025 -0.1079 -0.3870  0.3693
  305MOL0     C41094   9.313   2.023   0.168 -0.5132 -0.7453 -0.9240
  305MOL0     C41095   9.206   2.100   0.113 -0.3682  0.0273 -0.1030
  305MOL0     C41096   9.085   2.081   0.173  0.6220 -0.4391 -0.3315
  305MOL0     C41097   9.064   1.998   0.282  0.4910  0.1033 -0.8395
  305MOL0     O41098   8.943   2.014   0.343  1.0306 -0.5698  0.0951
  305MOL0     C41099   8.918   1.945   0.467 -0.2950 -0.6086  0.3104
  305MOL0     C41100   8.761   1.924   0.469 -0.2676  0.2863  0.0512
  305MOL0     C41101   8.710   1.855   0.595 -0.5568  0.3505  0.9023
  305MOL0     C41102   8.748   1.918   0.721 -0.5473  0.0494 -1.2230
  305MOL0     C41103   8.714   2.056   0.741 -0.2865  0.4524  0.5056
  305MOL0     C41104   8.694   2.177   0.750 -0.4866  0.3204  0.4551
  305MOL0     C41105   9.169   1.925   0.343 -0.0610 -1.1586  0.4390
  305MOL0     C41106   9.298   1.937   0.282 -0.3182  0.0289 -0.2895
  305MOL0     C41107   9.424   1.875   0.338 -0.5846 -0.2699  0.5635
  305MOL0     H41108   9.505   2.025  -0.183 -0.2263  0.1534  0.3003
  305MOL0     H41109   9.700   2.084  -0.298 -1.8800 -0.2877  0.4233
  305MOL0     H41110   9.934   2.103  -0.403  1.7276 -0.0819  0.1311
  305MOL0     H41111   9.961   2.203  -0.257 -0.3330 -1.5385  2.3178
  305MOL0     H41112  10.194   2.119  -0.248 -1.0563 -1.0116  1.0064
  305MOL0     H41113  10.151   2.206  -0.400  1.3608  2.4291  3.2088
  305MOL0     H41114  10.116   2.002  -0.533 -0.6128 -2.6370  0.1419
  305MOL0     H41115  10.171   1.906  -0.404  0.3550 -0.6032 -0.2832
  305MOL0     H41116  10.321   2.138  -0.544 -4.1046  0.1079 -1.6376
  305MOL0     H41117  10.376   2.056  -0.393 -2.3226 -0.0649  1.0771
  305MOL0     H41118  10.383   1.837  -0.518 -4.7254  0.3124  0.6515
  305MOL0     H41119  10.344   1.917  -0.674  0.7448  0.9191 -0.1323
  305MOL0     H41120  10.533   2.061  -0.650 -2.1042 -0.1709  0.6269
  305MOL0     H41121  10.585   1.992  -0.492  3.0751  2.5341 -0.9808
  305MOL0     H41122  10.584   1.844  -0.757  0.7130  3.8084 -1.3013
  305MOL0     H41123  10.626   1.770  -0.605 -1.2856  0.3659 -0.5363
  305MOL0     H41124  10.780   2.027  -0.689  0.3712  0.2734 -0.7629
  305MOL0     H41125  10.834   1.877  -0.595  1.9332  1.6624 -1.5984
  305MOL0     H41126  10.820   2.033  -0.929 -0.1395  0.6111  4.1597
  305MOL0     H41127  10.901   1.781  -1.206  0.9526 -0.6016  2.2307
  305MOL0     H41128  10.854   1.949  -1.198  0.3677  0.2086  0.3595
  305MOL0     H41129  11.089   1.941  -1.268  0.5945  0.1519 -0.1865
  305MOL0     H41130  11.063   2.014  -1.100 -3.9524  0.3615  0.2789
  305MOL0     H41131  11.117   1.718  -1.145 -0.9453  2.1172 -3.1433
  305MOL0     H41132  11.159   1.803  -0.999  2.7512  1.4162  0.5615
  305MOL0     H41133  11.297   1.875  -1.262 -3.9389  1.9670  0.7402
  305MOL0     H41134  11.344   1.733  -1.174 -1.1252 -0.1327 -1.3643
  305MOL0     H41135  11.576   1.810  -0.990  0.9809 -2.1096 -2.7829
  305MOL0     H41136  11.816   1.880  -1.053  0.9945  0.4305  0.7272
  305MOL0     H41137  12.069   2.249  -1.078 -2.4681  1.6046 -0.7090
  305MOL0     H41138  12.300   2.304  -1.083 -1.0151  0.7528  0.0384
  305MOL0     H41139  12.443   2.470  -1.123 -2.4872 -2.3727 -0.1338
  305MOL0     H41140  12.584   2.369  -1.153  1.2994  1.3928  2.5839
  305MOL0     H41141  12.639   2.529  -1.349 -0.6295 -1.5026  0.5131
  305MOL0     H41142  12.503   2.631  -1.288 -0.2288 -0.1340 -0.8094
  305MOL0     H41143  12.705   2.731  -1.209  1.4562  1.0073  2.8576
  305MOL0     H41144  12.614   2.650  -1.080  0.7095  0.4488  0.4043
  305MOL0     H41145  12.833   2.516  -1.239 -2.4985  0.9995 -0.2403
  305MOL0     H41146  12.774   2.452  -1.109  1.2725 -0.3000  0.2252
  305MOL0     H41147  12.983   2.550  -1.061  0.1467  0.7966  0.0216
  305MOL0     H41148  12.866   2.658  -0.978  0.8899  1.7317  0.0850
  305MOL0     H41149  13.005   2.703  -1.255 -0.2079  2.1744 -1.0392
  305MOL0     H41150  12.889   2.810  -1.183 -0.8786 -0.5123 -1.2318
  305MOL0     H41151  13.107   2.890  -1.156  1.1166 -1.5770 -0.7808
  305MOL0     H41152  13.174   2.742  -1.107 -1.9445 -0.8188 -1.8778
  305MOL0     H41153  12.960   2.920  -0.960 -0.0661  0.3000 -0.6560
  305MOL0     H41154  13.053   2.778  -0.891  2.3682 -0.0327 -0.0727
  305MOL0     H41155  12.298   2.288  -1.508  0.8345 -0.1443  0.1996
  305MOL0     H41156  12.064   2.201  -1.495 -3.5718  1.5465  0.6966
  305MOL0     H41157  11.657   2.222  -1.253 -1.5430  1.9674  3.2320
  305MOL0     H41158  11.442   2.151  -1.229 -1.7408  0.2624  3.1797
  305MOL0     H41159   9.936   1.857  -0.013  0.8852 -0.2582 -1.7901
  305MOL0     H41160   9.726   1.812   0.113  1.3412 -0.1863  0.5415
  305MOL0     H41161   9.213   2.180   0.041 -0.0251  0.1430  0.0550
  305MOL0     H41162   8.999   2.141   0.144  0.7213 -0.7652 -1.3565
  305MOL0     H41163   8.956   2.003   0.552  1.5325  1.3741 -1.7462
  305MOL0     H41164   8.974   1.853   0.486  1.3310  0.6233  1.9302
  305MOL0     H41165   8.722   1.861   0.389 -0.1197  0.7022 -0.3585
  305MOL0     H41166   8.708   2.020   0.472 -0.0905  0.4037  3.4397
  305MOL0     H41167   8.744   1.752   0.583  1.8077  1.3124 -1.9627
  305MOL0     H41168   8.602   1.869   0.582 -0.0369  2.1378 -3.3534
  305MOL0     H41169   8.714   1.862   0.809  3.3581  1.0545  1.1714
  305MOL0     H41170   8.855   1.901   0.733 -0.7896 -0.5700  0.2813
  305MOL0     H41171   8.673   2.281   0.764 -0.0158  0.4909 -0.0903
  305MOL0     H41172   9.160   1.878   0.441 -2.6244 -1.8408 -0.0580
  305MOL0     H41173   9.478   1.803   0.275 -2.0296  0.5690 -1.7640
  305MOL0     H41174   9.499   1.951   0.362  1.2718 -2.1220  0.9258
  305MOL0     H41175   9.403   1.830   0.435 -0.4821  0.0648  0.7426
  306MOL0     O41176   2.250   4.400   5.618 -0.5314 -0.2522  0.2817
  306MOL0     C41177   2.225   4.435   5.499 -1.1786  0.4097 -0.5720
  306MOL0     O41178   2.317   4.471   5.407  0.1612 -0.1493  1.0870
  306MOL0     C41179   2.445   4.503   5.443  0.1837 -0.3900 -0.4475
  306MOL0     C41180   2.546   4.476   5.359  0.8336  0.0771  0.5595
  306MOL0     C41181   2.681   4.513   5.388 -0.0940  0.3913 -0.1765
  306MOL0     C41182   2.712   4.574   5.504  0.0749  0.1579  0.2237
  306MOL0     O41183   2.850   4.585   5.518  0.3860  0.2431 -0.3259
  306MOL0     C41184   2.894   4.696   5.599  0.3677 -0.1679  0.0355
  306MOL0     C41185   3.047   4.702   5.587  0.7782 -0.0043  0.7302
  306MOL0     C41186   3.121   4.786   5.685  0.0488 -0.4886 -0.0149
  306MOL0     C41187   3.272   4.765   5.653  1.1811 -0.3983  0.2053
  306MOL0     C41188   3.359   4.845   5.754  1.2133 -0.0748  0.5190
  306MOL0     C41189   3.509   4.831   5.729  0.1075  0.3885 -0.1194
  306MOL0     C41190   3.605   4.922   5.818  0.8908 -0.4576 -0.0193
  306MOL0     C41191   3.744   4.873   5.786 -0.6928  0.4505 -0.8033
  306MOL0     N41192   3.850   4.961   5.833  0.3617  0.2592 -0.2671
  306MOL0     C41193   3.860   5.093   5.795  0.0476 -0.7286 -0.8410
  306MOL0     C41194   3.968   5.142   5.871 -0.0464  0.4316  0.2593
  306MOL0     C41195   4.012   5.285   5.878  0.0854 -1.0067  0.1441
  306MOL0     C41196   3.998   5.349   6.010 -1.1465 -0.1079  0.1371
  306MOL0     C41197   3.852   5.358   6.063 -0.8298 -0.8157 -0.0573
  306MOL0     C41198   3.851   5.413   6.207 -0.1760  0.5545  0.0644
  306MOL0     O41199   3.719   5.458   6.243 -0.0098  0.1742 -0.1037
  306MOL0     C41200   3.643   5.381   6.336 -0.3251  0.0188  0.4128
  306MOL0     C41201   3.672   5.250   6.374 -0.8384  0.3487 -0.1739
  306MOL0     C41202   3.588   5.182   6.461  0.5691  0.1148  0.2815
  306MOL0     C41203   3.463   5.243   6.501 -1.1972  0.3398  0.1066
  306MOL0     C41204   3.372   5.158   6.586  0.5348  0.0588 -0.0884
  306MOL0     O41205   3.396   5.026   6.581  0.2727 -0.5228  0.2148
  306MOL0     C41206   3.286   4.945   6.605 -0.2678 -0.7266 -0.6420
  306MOL0     C41207   3.282   4.856   6.723  0.8795 -0.7280  0.7219
  306MOL0     C41208   3.173   4.767   6.732 -0.3343  0.2970 -0.3526
  306MOL0     C41209   3.067   4.774   6.641 -0.3619 -0.2467 -1.0120
  306MOL0     O41210   2.965   4.688   6.649  0.2219 -0.7514  0.2956
  306MOL0     C41211   2.920   4.623   6.531  1.6616 -0.2128 -0.3379
  306MOL0     C41212   2.855   4.497   6.589 -0.1565  0.6203  0.5666
  306MOL0     C41213   2.723   4.526   6.665 -0.1848 -0.4275 -0.1887
  306MOL0     C41214   2.657   4.402   6.713  0.3738  0.4825 -0.3574
  306MOL0     C41215   2.685   4.383   6.866  0.5790 -0.0675  0.2653
  306MOL0     C41216   2.628   4.258   6.919  0.8459  1.2423  0.3197
  306MOL0     C41217   2.678   4.220   7.047 -0.9932 -0.2538 -0.9736
  306MOL0     C41218   2.608   4.079   7.096  0.1328 -0.7028 -0.6503
  306MOL0    Cl41219   2.435   4.104   7.109 -0.3746  0.0365 -0.4478
  306MOL0     C41220   3.065   4.868   6.538 -0.8765  0.2386  0.1922
  306MOL0     C41221   3.177   4.951   6.519  0.0680  0.7898  0.2371
  306MOL0     O41222   3.285   5.215   6.651 -0.4900 -0.3252  0.6447
  306MOL0     C41223   3.432   5.366   6.457  0.7306 -0.1051  0.1625
  306MOL0     C41224   3.524   5.436   6.373 -0.4523  0.4609  0.0768
  306MOL0     N41225   4.025   5.034   5.944 -0.3900 -0.3661  0.6314
  306MOL0     N41226   3.944   4.933   5.921  0.0598  0.2777 -0.0101
  306MOL0     C41227   2.612   4.591   5.598  0.4487  0.2079 -0.2443
  306MOL0     C41228   2.479   4.566   5.567  0.0530 -0.3293  0.3231
  306MOL0     C41229   2.083   4.425   5.450  0.4257  0.2372 -0.9969
  306MOL0     C41230   2.054   4.452   5.314  0.1694  0.4569  0.1838
  306MOL0     C41231   1.925   4.450   5.258 -0.6415 -0.1849 -0.9337
  306MOL0     C41232   1.820   4.413   5.336  0.7676  0.0553 -0.1502
  306MOL0     O41233   1.702   4.412   5.261 -0.4258 -0.3274 -0.5385
  306MOL0     C41234   1.580   4.402   5.325  1.4319  1.2836  0.0769
  306MOL0     C41235   1.498   4.530   5.297 -0.9627 -0.1263  0.5856
  306MOL0     C41236   1.499   4.645   5.408  0.3054  0.4993  0.9717
  306MOL0     C41237   1.363   4.723   5.394 -0.7745 -0.3897  0.4633
  306MOL0     C41238   1.354   4.834   5.493  0.5151 -0.1069  0.1289
  306MOL0     C41239   1.358   4.919   5.575 -0.5390 -0.5329 -0.2771
  306MOL0     C41240   1.840   4.375   5.475 -0.5883 -0.7912 -0.1969
  306MOL0     C41241   1.970   4.381   5.533 -0.1390  0.3453  0.1398
  306MOL0     C41242   1.982   4.346   5.679 -0.3705  0.4161  0.2213
  306MOL0     H41243   2.528   4.411   5.275 -2.9281  1.3868  0.1576
  306MOL0     H41244   2.758   4.481   5.318 -0.5323 -0.1631 -0.4084
  306MOL0     H41245   2.842   4.788   5.573 -2.2793 -1.3839  0.7402
  306MOL0     H41246   2.875   4.691   5.707  0.4856  1.1166  0.1269
  306MOL0     H41247   3.069   4.738   5.486 -0.6717 -0.9644  0.0522
  306MOL0     H41248   3.085   4.599   5.595  1.0429 -0.0592 -0.8626
  306MOL0     H41249   3.109   4.745   5.786 -2.6893  0.6966  0.2387
  306MOL0     H41250   3.091   4.891   5.683  0.6925 -0.2375  1.8285
  306MOL0     H41251   3.292   4.658   5.662 -3.5527 -1.4884  0.6363
  306MOL0     H41252   3.295   4.779   5.547 -1.4506 -0.8467 -0.4867
  306MOL0     H41253   3.327   4.949   5.765 -0.1894  0.0409 -3.2388
  306MOL0     H41254   3.332   4.794   5.846  0.0163  0.9292  0.7603
  306MOL0     H41255   3.551   4.735   5.761 -1.5109 -0.9020 -1.6597
  306MOL0     H41256   3.542   4.846   5.626  0.5393  1.7822  0.1990
  306MOL0     H41257   3.570   4.917   5.922 -0.4345 -0.8875 -0.4661
  306MOL0     H41258   3.600   5.028   5.789 -3.2640 -0.5724 -0.3372
  306MOL0     H41259   3.765   4.783   5.845 -1.6613  0.9223  0.3024
  306MOL0     H41260   3.766   4.851   5.681  0.0965  4.2884 -1.5969
  306MOL0     H41261   3.800   5.144   5.721  0.1855 -1.1456 -1.2478
  306MOL0     H41262   4.118   5.292   5.853 -0.6947  3.0470 -3.1224
  306MOL0     H41263   3.965   5.341   5.797 -0.4054 -2.7395 -0.8408
  306MOL0     H41264   4.053   5.289   6.083 -1.0196 -1.5717 -1.1178
  306MOL0     H41265   4.049   5.445   6.005 -0.1355 -0.4696  2.5007
  306MOL0     H41266   3.800   5.262   6.052 -0.0328 -1.1665 -0.9514
  306MOL0     H41267   3.810   5.426   5.987  0.6527 -4.1707 -4.2911
  306MOL0     H41268   3.930   5.489   6.217  1.3528 -1.0652  0.7864
  306MOL0     H41269   3.890   5.343   6.281  1.8571  1.5539  0.0060
  306MOL0     H41270   3.756   5.196   6.332 -0.5033  1.1245 -0.5262
  306MOL0     H41271   3.597   5.081   6.499  0.3220  0.4763  1.3444
  306MOL0     H41272   3.355   4.858   6.804  1.4353  0.6014  0.2157
  306MOL0     H41273   3.154   4.704   6.818  1.7748 -0.7867 -0.6347
  306MOL0     H41274   2.861   4.690   6.468  2.3936  2.5143  1.6955
  306MOL0     H41275   3.006   4.589   6.471  3.2780  2.5447  0.2496
  306MOL0     H41276   2.846   4.420   6.512  2.3326  0.3208  0.4886
  306MOL0     H41277   2.929   4.450   6.655  1.6472 -0.5657 -2.1037
  306MOL0     H41278   2.733   4.593   6.751 -0.4585  0.0682 -0.5436
  306MOL0     H41279   2.667   4.582   6.590  1.8751  1.3553 -0.4780
  306MOL0     H41280   2.694   4.315   6.658 -2.5605 -2.0957  1.4069
  306MOL0     H41281   2.550   4.397   6.691  0.0987 -4.2039  0.8820
  306MOL0     H41282   2.625   4.455   6.922 -1.4575 -3.6508  3.1013
  306MOL0     H41283   2.790   4.378   6.899 -0.3838 -0.6949  3.5511
  306MOL0     H41284   2.519   4.260   6.913  0.7135 -0.5277  1.2602
  306MOL0     H41285   2.652   4.179   6.847  1.6835  1.5028  0.3030
  306MOL0     H41286   2.671   4.303   7.117  2.7940 -0.9003  0.4203
  306MOL0     H41287   2.785   4.201   7.035 -0.8603  0.8632 -1.6812
  306MOL0     H41288   2.629   4.006   7.018 -1.6340 -3.0072  0.9126
  306MOL0     H41289   2.644   4.054   7.196  0.5784  0.5417 -0.4787
  306MOL0     H41290   2.983   4.870   6.466 -1.1702 -3.0373  0.2808
  306MOL0     H41291   3.192   5.003   6.424  0.6283  1.2934  0.5924
  306MOL0     H41292   3.344   5.420   6.491  0.3712 -1.2014  1.0220
  306MOL0     H41293   3.501   5.529   6.322 -1.4822 -0.7399 -1.7717
  306MOL0     H41294   2.639   4.601   5.702 -3.6273 -1.4323  1.1539
  306MOL0     H41295   2.399   4.572   5.641 -1.5645 -1.1154 -1.2958
  306MOL0     H41296   2.140   4.472   5.251 -1.1717  0.2516 -1.8023
  306MOL0     H41297   1.923   4.471   5.152  3.2652 -0.7199 -1.2510
  306MOL0     H41298   1.578   4.382   5.432  0.3736  0.5266 -0.0665
  306MOL0     H41299   1.519   4.325   5.276 -0.4643  2.3986  0.5893
  306MOL0     H41300   1.398   4.503   5.261 -0.7387 -0.6066  0.3019
  306MOL0     H41301   1.548   4.574   5.210 -1.0808 -1.2143 -0.0684
  306MOL0     H41302   1.587   4.710   5.403  0.8705 -0.3385 -0.8548
  306MOL0     H41303   1.512   4.603   5.508  1.2039  0.6135  0.9122
  306MOL0     H41304   1.366   4.765   5.294  0.6187 -1.8811 -0.1592
  306MOL0     H41305   1.275   4.658   5.387 -1.9503  1.2687 -0.8602
  306MOL0     H41306   1.373   5.004   5.638 -0.4907 -0.7572  0.0134
  306MOL0     H41307   1.753   4.354   5.535  0.5254  0.4417  2.0043
  306MOL0     H41308   2.033   4.250   5.688 -2.0159 -0.7010 -1.6008
  306MOL0     H41309   2.049   4.407   5.740 -0.2532 -0.2870  0.8140
  306MOL0     H41310   1.886   4.332   5.729  0.2746  0.9152  1.6568
  307MOL0     O41311   4.402   3.728   3.161  0.1504  0.2900 -0.5109
  307MOL0     C41312   4.366   3.681   3.052  0.0404 -0.1047 -0.3400
  307MOL0     O41313   4.439   3.688   2.932 -0.3690 -0.0418  0.2227
  307MOL0     C41314   4.578   3.674   2.925 -0.7569 -0.3152 -0.6658
  307MOL0     C41315   4.675   3.676   3.025  0.2129  0.6935  0.4909
  307MOL0     C41316   4.809   3.657   3.000 -0.1925 -0.1119  0.5141
  307MOL0     C41317   4.844   3.631   2.869 -0.3437  0.4678  0.1078
  307MOL0     O41318   4.976   3.607   2.833  0.0371 -0.4236  0.4966
  307MOL0     C41319   5.049   3.536   2.933  0.0560 -0.4722 -0.3739
  307MOL0     C41320   5.179   3.472   2.879 -0.4153 -0.2688 -0.1318
  307MOL0     C41321   5.279   3.575   2.816  0.7351 -0.2638  0.6522
  307MOL0     C41322   5.370   3.643   2.916 -0.4691  0.6848 -0.5066
  307MOL0     C41323   5.485   3.722   2.856  0.1612  0.2607  0.5920
  307MOL0     C41324   5.606   3.622   2.818 -0.4593 -0.6452 -0.8896
  307MOL0     C41325   5.732   3.700   2.776 -1.1255 -0.1924 -0.2367
  307MOL0     C41326   5.852   3.609   2.746 -0.0284 -0.2359 -0.4257
  307MOL0     N41327   5.833   3.521   2.626 -0.7023 -0.3472 -0.1640
  307MOL0     C41328   5.874   3.560   2.505  0.6568  0.4459 -0.4560
  307MOL0     C41329   5.850   3.457   2.420 -0.7435 -0.3105  0.7693
  307MOL0     C41330   5.874   3.453   2.266 -1.0810 -0.3632  0.1557
  307MOL0     C41331   5.997   3.360   2.246 -0.3136 -0.5816 -0.6210
  307MOL0     C41332   6.033   3.335   2.101  0.0477 -0.3380 -0.4969
  307MOL0     C41333   6.171   3.286   2.075 -0.1330 -0.1294  0.0552
  307MOL0     O41334   6.271   3.387   2.055 -0.1612  0.0309 -0.1203
  307MOL0     C41335   6.400   3.337   2.052  0.2038  1.4638  0.5176
  307MOL0     C41336   6.445   3.237   2.147  0.0378  0.2580  0.2350
  307MOL0     C41337   6.574   3.173   2.135 -0.1311 -0.1762  0.3491
  307MOL0     C41338   6.643   3.200   2.022 -0.4343  0.0704 -0.4164
  307MOL0     C41339   6.757   3.126   1.984 -0.6764  0.5027 -0.0809
  307MOL0     O41340   6.821   3.034   2.067  0.4200 -0.5683 -0.2370
  307MOL0     C41341   6.934   2.983   2.018 -0.3741  0.7284 -0.2015
  307MOL0     C41342   7.057   3.013   2.054 -0.7455  0.2093  0.6826
  307MOL0     C41343   7.177   2.953   2.013  0.5398 -0.4745 -0.0006
  307MOL0     C41344   7.171   2.842   1.921  0.5316  0.2648  0.0435
  307MOL0     O41345   7.279   2.767   1.887 -0.0500  0.0931  0.1577
  307MOL0     C41346   7.411   2.830   1.901 -0.2730  0.1483  0.1519
  307MOL0     C41347   7.468   2.774   2.035  0.5510  0.5675  0.3018
  307MOL0     C41348   7.614   2.815   2.061 -0.9452 -0.3886  0.0595
  307MOL0     C41349   7.716   2.770   1.963 -0.4261  1.1070 -0.1118
  307MOL0     C41350   7.854   2.778   2.024 -0.2907 -0.7215  0.7462
  307MOL0     C41351   7.957   2.758   1.907 -0.4581 -0.3887  0.6312
  307MOL0     C41352   8.106   2.745   1.955  0.1767 -0.2283  0.6669
  307MOL0     C41353   8.157   2.879   2.023  0.3454 -0.0398 -0.1049
  307MOL0    Cl41354   8.334   2.857   2.069  0.2754  0.1197  0.3292
  307MOL0     C41355   7.043   2.812   1.874 -0.4950 -0.6539 -0.4643
  307MOL0     C41356   6.927   2.881   1.919  0.6851 -0.0031 -0.5714
  307MOL0     O41357   6.797   3.143   1.867 -0.8415 -0.7707  0.0314
  307MOL0     C41358   6.602   3.309   1.942  0.0784  0.2145  0.1117
  307MOL0     C41359   6.488   3.391   1.961  0.7194  0.4074 -1.0452
  307MOL0     N41360   5.805   3.351   2.500 -0.6335 -0.4199  0.0759
  307MOL0     N41361   5.786   3.403   2.621 -0.8005  0.4826 -0.2835
  307MOL0     C41362   4.758   3.640   2.761  0.8465 -0.5988 -0.1893
  307MOL0     C41363   4.627   3.656   2.792 -0.2423  0.0334  0.1076
  307MOL0     C41364   4.218   3.624   3.058 -0.2721  0.6630  0.4209
  307MOL0     C41365   4.153   3.635   3.180 -0.0193  0.7396 -0.0766
  307MOL0     C41366   4.026   3.577   3.200  0.6921 -0.1930 -0.2021
  307MOL0     C41367   3.957   3.510   3.097 -0.4529 -0.1325 -0.1743
  307MOL0     O41368   3.844   3.453   3.133  0.0280 -0.1957  0.3520
  307MOL0     C41369   3.776   3.376   3.032  0.5211 -0.0515  0.0597
  307MOL0     C41370   3.835   3.228   3.004 -0.3653 -0.6056 -0.5134
  307MOL0     C41371   3.759   3.163   2.891 -0.8023 -0.9475 -0.0022
  307MOL0     C41372   3.771   3.008   2.872 -0.1282 -0.5228  0.4899
  307MOL0     C41373   3.725   2.926   2.990  0.3580  0.7318 -0.6258
  307MOL0     C41374   3.688   2.862   3.090  0.1443 -0.6548  0.0517
  307MOL0     C41375   4.023   3.512   2.971  0.8940  0.0423  0.5280
  307MOL0     C41376   4.154   3.555   2.948 -0.0583  0.3375 -0.1066
  307MOL0     C41377   4.210   3.558   2.805 -0.0124 -0.0980 -0.7768
  307MOL0     H41378   4.637   3.677   3.126 -0.6929 -2.0047  0.2678
  307MOL0     H41379   4.873   3.653   3.087  1.2467  0.7796 -0.4643
  307MOL0     H41380   5.077   3.601   3.016  1.6004  0.0325 -1.2514
  307MOL0     H41381   4.990   3.451   2.969  1.0836  0.4568  4.0903
  307MOL0     H41382   5.148   3.391   2.812  1.3504 -0.4370 -0.8034
  307MOL0     H41383   5.230   3.417   2.959  1.0889  2.2501  0.7557
  307MOL0     H41384   5.228   3.650   2.754  2.5828  1.5932  1.2861
  307MOL0     H41385   5.341   3.526   2.741  0.4489  0.4434 -0.0674
  307MOL0     H41386   5.311   3.719   2.967 -0.7822 -1.3618  2.4888
  307MOL0     H41387   5.414   3.576   2.990 -0.0166  2.0878  0.5357
  307MOL0     H41388   5.458   3.775   2.765  1.4557 -0.2242 -0.1051
  307MOL0     H41389   5.530   3.801   2.917  2.7388  0.9866 -2.0188
  307MOL0     H41390   5.630   3.564   2.907 -2.2013  1.8020  1.3528
  307MOL0     H41391   5.570   3.553   2.741  0.1568  0.5309 -2.2723
  307MOL0     H41392   5.762   3.780   2.844 -4.4319  2.4150 -1.5311
  307MOL0     H41393   5.703   3.758   2.688 -1.5274 -0.5045 -0.3160
  307MOL0     H41394   5.931   3.685   2.742 -1.7769  1.6526 -2.8905
  307MOL0     H41395   5.873   3.548   2.834 -4.9765 -2.8556 -0.6940
  307MOL0     H41396   5.898   3.659   2.468  0.9616 -0.1991 -2.0732
  307MOL0     H41397   5.782   3.428   2.211 -0.8303 -0.8378 -0.0600
  307MOL0     H41398   5.902   3.556   2.245 -1.1949  0.3579  3.2155
  307MOL0     H41399   6.090   3.401   2.287 -0.5903  0.8412 -1.3632
  307MOL0     H41400   5.968   3.267   2.296 -1.8080  1.1397  1.9303
  307MOL0     H41401   6.029   3.435   2.056  3.0884 -0.0895 -0.4372
  307MOL0     H41402   5.967   3.260   2.058  0.2033 -0.5408 -0.3849
  307MOL0     H41403   6.157   3.234   1.980  1.7422  0.8141 -0.8031
  307MOL0     H41404   6.196   3.206   2.145 -1.3055 -1.1967 -0.6968
  307MOL0     H41405   6.371   3.217   2.224 -1.7123  1.0538 -1.1741
  307MOL0     H41406   6.609   3.089   2.193 -1.4320 -1.4802 -0.6789
  307MOL0     H41407   7.071   3.097   2.121  3.2109 -1.3682  2.1242
  307MOL0     H41408   7.271   2.990   2.053 -0.5466  2.6946 -0.0737
  307MOL0     H41409   7.468   2.790   1.817  0.1745  0.9452  0.0701
  307MOL0     H41410   7.412   2.938   1.884 -2.9087  0.0858 -0.9545
  307MOL0     H41411   7.401   2.809   2.115 -0.3341 -3.1981  1.4332
  307MOL0     H41412   7.463   2.665   2.029 -1.2874  0.6534 -0.5954
  307MOL0     H41413   7.629   2.923   2.070  1.0502 -0.6414  0.0993
  307MOL0     H41414   7.648   2.770   2.155  1.8181 -1.5400 -1.3710
  307MOL0     H41415   7.706   2.828   1.871 -0.7346  0.7709 -0.2926
  307MOL0     H41416   7.695   2.669   1.927 -1.8767  1.1102  0.6364
  307MOL0     H41417   7.871   2.715   2.111 -0.3819  0.1495  1.4134
  307MOL0     H41418   7.879   2.878   2.061  0.6716 -0.2338 -1.1064
  307MOL0     H41419   7.943   2.661   1.859  2.2001  0.5598 -2.4027
  307MOL0     H41420   7.960   2.839   1.833 -0.8080 -1.2399 -0.3461
  307MOL0     H41421   8.160   2.723   1.863 -0.4275  0.8305  0.0364
  307MOL0     H41422   8.114   2.661   2.025 -0.1289 -0.3928  0.5062
  307MOL0     H41423   8.145   2.960   1.951  1.0486 -1.5989 -2.0931
  307MOL0     H41424   8.105   2.896   2.117  1.2729  6.1850 -0.3233
  307MOL0     H41425   7.046   2.732   1.802  1.3768 -0.6919 -0.3888
  307MOL0     H41426   6.827   2.852   1.887  0.8361 -1.4739  0.2356
  307MOL0     H41427   6.667   3.336   1.860  0.5646 -0.0982  0.3919
  307MOL0     H41428   6.463   3.468   1.887 -1.3700 -1.4690 -2.4032
  307MOL0     H41429   4.787   3.634   2.657 -0.5039  0.0783 -0.6294
  307MOL0     H41430   4.551   3.675   2.718  0.7988  1.3173 -0.6743
  307MOL0     H41431   4.183   3.688   3.269 -3.1463 -2.0168  2.9403
  307MOL0     H41432   3.975   3.604   3.293  0.2840  3.7461 -1.3679
  307MOL0     H41433   3.764   3.427   2.936 -0.8525  1.8176  1.1520
  307MOL0     H41434   3.672   3.371   3.068  0.8957  0.9368  1.3553
  307MOL0     H41435   3.825   3.161   3.089  1.8104 -3.2239 -2.1395
  307MOL0     H41436   3.941   3.238   2.979 -0.1838  1.0701  0.7266
  307MOL0     H41437   3.791   3.212   2.798  3.0816 -1.9126  0.6188
  307MOL0     H41438   3.652   3.171   2.913 -0.5650 -0.6646  1.1635
  307MOL0     H41439   3.712   2.990   2.782  0.1015 -0.0014  0.2270
  307MOL0     H41440   3.868   2.976   2.832 -0.2674  0.6580 -0.8747
  307MOL0     H41441   3.651   2.806   3.173  0.3328 -2.3483 -0.9595
  307MOL0     H41442   3.968   3.471   2.887  2.9586 -1.4070 -0.1952
  307MOL0     H41443   4.313   3.525   2.794  0.4703  1.5043 -1.3912
  307MOL0     H41444   4.158   3.489   2.738 -0.8763 -0.1542 -0.0621
  307MOL0     H41445   4.206   3.663   2.773 -0.4923 -0.4553 -1.9335
  308MOL0     O41446   6.842   9.571   6.245 -0.3633 -0.0637  0.0292
  308MOL0     C41447   6.917   9.574   6.145  0.1723  0.2911 -0.2056
  308MOL0     O41448   6.888   9.542   6.023  0.8330  0.1018  0.9990
  308MOL0     C41449   6.776   9.479   5.981 -0.1250  0.4264 -0.5602
  308MOL0     C41450   6.755   9.490   5.846 -0.7420 -0.5582  0.4014
  308MOL0     C41451   6.633   9.445   5.801  0.4299 -0.2420  0.2140
  308MOL0     C41452   6.531   9.385   5.877 -0.7566 -0.4862  0.5345
  308MOL0     O41453   6.410   9.353   5.815 -0.1288 -0.2029 -0.6114
  308MOL0     C41454   6.303   9.310   5.896  0.1598  0.6174  1.0463
  308MOL0     C41455   6.300   9.168   5.928 -0.0286 -0.1889 -0.1397
  308MOL0     C41456   6.299   9.076   5.812 -0.5071 -0.2112 -0.3348
  308MOL0     C41457   6.235   8.936   5.848 -0.6919  0.3139  0.5160
  308MOL0     C41458   6.239   8.851   5.730 -0.0335 -0.0352  0.0997
  308MOL0     C41459   6.200   8.714   5.771 -0.1698 -0.7150 -0.7148
  308MOL0     C41460   6.310   8.643   5.852  0.5752 -0.3121 -0.5961
  308MOL0     C41461   6.261   8.505   5.898 -0.2557  0.0629  0.0371
  308MOL0     N41462   6.376   8.443   5.968  1.0627 -0.2371  0.1176
  308MOL0     C41463   6.419   8.321   5.932 -1.2080  0.1877  0.9552
  308MOL0     C41464   6.535   8.315   6.013 -0.0997  0.1752  0.4741
  308MOL0     C41465   6.607   8.188   6.043 -0.5270  1.0925  0.0204
  308MOL0     C41466   6.765   8.211   6.041 -0.5996  0.2830  0.1078
  308MOL0     C41467   6.843   8.071   6.050  0.8021  0.0820 -0.2304
  308MOL0     C41468   6.990   8.077   6.083 -0.4950  0.3781  0.3679
  308MOL0     O41469   7.010   8.146   6.206 -0.1819  0.2170 -0.6994
  308MOL0     C41470   7.137   8.154   6.249  0.6637 -0.2626 -0.3500
  308MOL0     C41471   7.144   8.196   6.383 -1.1325 -0.3427  0.6096
  308MOL0     C41472   7.271   8.205   6.450  0.0219 -0.1071  0.6094
  308MOL0     C41473   7.386   8.167   6.392 -0.2599  0.1886  0.0276
  308MOL0     C41474   7.513   8.177   6.473 -0.2480  0.5618 -0.1982
  308MOL0     O41475   7.500   8.218   6.599  0.3956 -0.4013  0.6071
  308MOL0     C41476   7.616   8.248   6.665  0.4268  0.3830  0.5152
  308MOL0     C41477   7.716   8.337   6.613 -0.5245  0.4855  0.1551
  308MOL0     C41478   7.827   8.357   6.691 -0.5419 -0.1320  0.3040
  308MOL0     C41479   7.864   8.279   6.800  0.6822 -0.6584 -0.0254
  308MOL0     O41480   7.984   8.314   6.860  1.0041  0.1322 -0.0169
  308MOL0     C41481   8.039   8.207   6.941 -0.2363  0.2849  0.1372
  308MOL0     C41482   8.178   8.251   7.000 -0.2703 -0.7217 -0.2144
  308MOL0     C41483   8.172   8.342   7.121 -0.5722  0.2601 -0.0367
  308MOL0     C41484   8.306   8.402   7.145 -0.4324 -0.0296  0.0894
  308MOL0     C41485   8.310   8.498   7.269 -0.5872 -0.3320 -0.6531
  308MOL0     C41486   8.231   8.628   7.265  0.2465 -0.5853  0.1717
  308MOL0     C41487   8.254   8.712   7.388  0.0103 -0.0314  0.3552
  308MOL0     C41488   8.180   8.844   7.371  0.1628 -0.4661  0.3374
  308MOL0    Cl41489   8.260   8.928   7.233 -0.2356  0.3193  0.1922
  308MOL0     C41490   7.762   8.187   6.846 -0.3208 -0.0660  1.0790
  308MOL0     C41491   7.641   8.188   6.783  0.1743  0.9600  0.4211
  308MOL0     O41492   7.615   8.156   6.411 -0.1858  1.6543 -0.2120
  308MOL0     C41493   7.374   8.118   6.259  0.4103 -0.3194  0.3671
  308MOL0     C41494   7.253   8.125   6.182  0.2344 -0.0561 -0.0483
  308MOL0     N41495   6.554   8.433   6.080  0.7770  0.1146 -0.9595
  308MOL0     N41496   6.451   8.503   6.061 -1.1977 -0.9559  0.1279
  308MOL0     C41497   6.574   9.347   5.999 -0.5393  0.0732 -0.9983
  308MOL0     C41498   6.687   9.400   6.053 -0.3972  0.4550  0.2429
  308MOL0     C41499   7.059   9.619   6.149  0.9972 -0.2041 -1.3180
  308MOL0     C41500   7.157   9.534   6.095  0.6840 -0.7577  0.3517
  308MOL0     C41501   7.289   9.579   6.100 -0.1093 -0.3824  0.6780
  308MOL0     C41502   7.331   9.697   6.156  1.0341  0.3200 -0.2327
  308MOL0     O41503   7.463   9.727   6.169  0.0964  0.1332 -0.0240
  308MOL0     C41504   7.533   9.658   6.271  0.3914 -0.2333  0.7220
  308MOL0     C41505   7.625   9.555   6.220  1.4468  0.1600 -0.7049
  308MOL0     C41506   7.742   9.606   6.133 -0.1402  0.0262 -0.1114
  308MOL0     C41507   7.842   9.504   6.089  0.4892 -0.3767  0.1590
  308MOL0     C41508   7.903   9.427   6.196  0.2982  0.7926 -0.5736
  308MOL0     C41509   7.968   9.368   6.273 -0.7376 -0.1592 -0.5595
  308MOL0     C41510   7.230   9.779   6.213  0.1849 -0.3075 -0.1073
  308MOL0     C41511   7.092   9.744   6.210 -0.2334  0.0945  1.2879
  308MOL0     C41512   6.992   9.848   6.261  1.0387  1.2646  0.4893
  308MOL0     H41513   6.825   9.531   5.774 -0.5565 -1.1881  0.2166
  308MOL0     H41514   6.610   9.465   5.697 -1.8494 -0.8477  0.5356
  308MOL0     H41515   6.296   9.382   5.979  0.2182  0.3528  1.2816
  308MOL0     H41516   6.208   9.318   5.842 -0.9989  0.2293  2.9315
  308MOL0     H41517   6.209   9.155   5.988  1.8690 -0.4629  2.9011
  308MOL0     H41518   6.385   9.145   5.993  2.3020 -0.3058 -3.0569
  308MOL0     H41519   6.400   9.060   5.772 -1.0753 -3.1438 -0.8117
  308MOL0     H41520   6.245   9.117   5.726 -0.9894  1.4546  0.7300
  308MOL0     H41521   6.298   8.888   5.923  1.5578  0.0830 -1.4216
  308MOL0     H41522   6.132   8.946   5.884 -1.4035 -1.6284 -0.7944
  308MOL0     H41523   6.170   8.892   5.656 -0.5992 -0.8915  0.1504
  308MOL0     H41524   6.335   8.855   5.679 -0.4247  0.1860 -0.6350
  308MOL0     H41525   6.113   8.726   5.837  0.5198  1.5662 -0.1421
  308MOL0     H41526   6.189   8.655   5.679  0.8497 -0.1771 -1.1902
  308MOL0     H41527   6.345   8.702   5.938  1.7665 -2.0770  0.1966
  308MOL0     H41528   6.390   8.632   5.779  0.2775  1.3107 -1.2080
  308MOL0     H41529   6.177   8.504   5.967 -0.6848 -1.3189 -0.4692
  308MOL0     H41530   6.227   8.456   5.807 -2.3947 -0.4938  1.0835
  308MOL0     H41531   6.382   8.240   5.869 -0.7438 -0.3838  1.4077
  308MOL0     H41532   6.583   8.164   6.147  4.1733  2.1634  1.6052
  308MOL0     H41533   6.564   8.111   5.978  1.9152  0.3438 -0.8204
  308MOL0     H41534   6.796   8.254   5.945 -1.7132  0.0435 -0.3665
  308MOL0     H41535   6.788   8.278   6.125 -2.8172 -2.8051  3.4774
  308MOL0     H41536   6.829   8.015   5.957  1.4339  2.0666 -1.5693
  308MOL0     H41537   6.803   8.009   6.131  1.5629 -2.4376 -1.6548
  308MOL0     H41538   7.048   8.132   6.009  1.2029  0.0917  1.4396
  308MOL0     H41539   7.033   7.976   6.081  0.7551  0.8601  1.5038
  308MOL0     H41540   7.057   8.230   6.439 -0.4850  0.6348  1.0418
  308MOL0     H41541   7.267   8.237   6.554  0.8302  1.6339  0.1297
  308MOL0     H41542   7.684   8.383   6.520 -0.2872 -0.3823 -0.3643
  308MOL0     H41543   7.902   8.425   6.651 -1.8578  0.8197 -0.6709
  308MOL0     H41544   7.973   8.197   7.027 -1.9026  1.9393 -0.8783
  308MOL0     H41545   8.063   8.119   6.881  3.5027  0.3064  1.3738
  308MOL0     H41546   8.239   8.167   7.033  0.9247 -0.1753 -0.9767
  308MOL0     H41547   8.223   8.303   6.915  0.6722 -1.0511  0.0696
  308MOL0     H41548   8.112   8.431   7.102  0.4361  0.5230 -2.2704
  308MOL0     H41549   8.136   8.290   7.210  1.9518 -1.8147 -0.1115
  308MOL0     H41550   8.337   8.468   7.064  3.3863  1.2478  2.3323
  308MOL0     H41551   8.375   8.318   7.148  0.0267  0.3595  1.5023
  308MOL0     H41552   8.416   8.526   7.280 -0.1172 -1.6936 -1.5194
  308MOL0     H41553   8.276   8.450   7.362 -2.1490  0.3192 -0.8580
  308MOL0     H41554   8.277   8.684   7.183 -2.2402  6.0969  2.6729
  308MOL0     H41555   8.124   8.610   7.252  0.1002  0.0867  0.4188
  308MOL0     H41556   8.361   8.732   7.403  0.1936  0.5673 -1.5500
  308MOL0     H41557   8.240   8.654   7.480  2.6833  1.6779  2.0010
  308MOL0     H41558   8.078   8.810   7.351  1.4803 -3.5827 -1.8295
  308MOL0     H41559   8.186   8.912   7.457  0.8863  1.0864 -0.8834
  308MOL0     H41560   7.782   8.125   6.933  1.4221 -0.2381  0.5941
  308MOL0     H41561   7.554   8.132   6.818 -0.7788  2.7273  0.9815
  308MOL0     H41562   7.469   8.097   6.212 -0.1181  0.4691 -1.0984
  308MOL0     H41563   7.254   8.082   6.082 -0.4145  0.4943 -0.2929
  308MOL0     H41564   6.520   9.297   6.078 -0.1525 -1.1478 -1.4719
  308MOL0     H41565   6.692   9.388   6.161 -1.4523  0.9337  0.3578
  308MOL0     H41566   7.136   9.440   6.045 -0.6938  1.6203 -4.0730
  308MOL0     H41567   7.366   9.516   6.057  0.3116 -0.7192  1.8703
  308MOL0     H41568   7.457   9.609   6.333 -0.7279 -0.6659 -0.9162
  308MOL0     H41569   7.585   9.734   6.329 -0.9084  0.4168  1.0651
  308MOL0     H41570   7.575   9.471   6.171  2.9467  0.4081 -2.7653
  308MOL0     H41571   7.672   9.508   6.307 -0.1626 -1.3817 -0.5977
  308MOL0     H41572   7.799   9.685   6.184  0.8050 -1.0359  0.5213
  308MOL0     H41573   7.700   9.642   6.039 -0.0864 -1.3850 -0.6841
  308MOL0     H41574   7.791   9.432   6.024 -3.5498  3.7128 -1.7651
  308MOL0     H41575   7.921   9.556   6.034  0.0991  0.0668  0.0138
  308MOL0     H41576   8.030   9.340   6.357  1.0291 -0.7857 -2.0104
  308MOL0     H41577   7.255   9.880   6.243 -1.9911  1.0636 -2.4784
  308MOL0     H41578   7.030   9.950   6.273  2.1237  1.0802 -1.0786
  308MOL0     H41579   6.903   9.858   6.200  0.4523  1.9577  1.4305
  308MOL0     H41580   6.963   9.808   6.359  1.7662 -0.6804 -0.0413
  309MOL0     O41581   2.557  10.934   9.211 -0.2635 -0.2349 -0.0663
  309MOL0     C41582   2.443  10.916   9.247 -0.6464 -0.4905 -0.2622
  309MOL0     O41583   2.411  10.931   9.382  0.1194 -1.2030 -0.0587
  309MOL0     C41584   2.504  10.970   9.478 -0.4570  0.8889 -0.4756
  309MOL0     C41585   2.464  11.061   9.581 -0.6311 -0.5353  0.3711
  309MOL0     C41586   2.563  11.101   9.677 -0.1774  0.5667  0.5220
  309MOL0     C41587   2.692  11.045   9.692 -0.4359 -0.3575 -0.5080
  309MOL0     O41588   2.782  11.067   9.795  0.1449  0.5326  0.3025
  309MOL0     C41589   2.766  11.189   9.870  0.1175 -0.2487 -0.7298
  309MOL0     C41590   2.869  11.187   9.986 -0.6519 -0.4318 -0.3417
  309MOL0     C41591   3.000  11.263   9.948 -0.2647  0.5767  0.1120
  309MOL0     C41592   3.098  11.251  10.072  0.3521 -0.1596  0.5261
  309MOL0     C41593   3.239  11.289  10.036 -0.1624  1.4707  1.1278
  309MOL0     C41594   3.316  11.286  10.166 -0.1217 -0.4697 -0.1410
  309MOL0     C41595   3.467  11.300  10.161  0.0229  0.3415  0.7082
  309MOL0     C41596   3.535  11.232  10.039  0.8588 -0.7263  1.0160
  309MOL0     N41597   3.675  11.260  10.021 -0.5745 -0.1931 -0.1060
  309MOL0     C41598   3.724  11.358   9.929 -0.3111  0.0071 -0.0418
  309MOL0     C41599   3.850  11.380   9.969  0.1570  1.1083 -0.3504
  309MOL0     C41600   3.948  11.469   9.908  0.1606 -0.1490  0.2995
  309MOL0     C41601   3.900  11.622   9.897 -0.4650  1.0699  0.1746
  309MOL0     C41602   3.881  11.700  10.028 -0.2529 -0.7499  0.1096
  309MOL0     C41603   4.015  11.743  10.095 -0.6513  1.1752  0.0020
  309MOL0     O41604   4.005  11.868  10.165 -0.3282 -0.6704 -0.1242
  309MOL0     C41605   4.116  11.920  10.219 -0.0314  0.0109 -0.5966
  309MOL0     C41606   4.247  11.856  10.222  0.4086 -0.1844 -0.6858
  309MOL0     C41607   4.355  11.933  10.269 -0.0922 -0.1569  0.7298
  309MOL0     C41608   4.334  12.046  10.333 -1.9577 -0.8243 -0.0396
  309MOL0     C41609   4.449  12.123  10.391  0.4596 -0.3548  0.4065
  309MOL0     O41610   4.574  12.097  10.335 -0.3772  0.2100  0.3731
  309MOL0     C41611   4.689  12.141  10.384  0.4356 -0.8736 -0.2711
  309MOL0     C41612   4.802  12.114  10.311 -0.4109  0.0483  0.1597
  309MOL0     C41613   4.933  12.161  10.343  0.0470  0.6005 -0.2168
  309MOL0     C41614   4.953  12.239  10.454 -0.6575  1.1486  0.8141
  309MOL0     O41615   5.073  12.292  10.480 -0.1985  0.4958  0.4582
  309MOL0     C41616   5.088  12.424  10.514 -0.3355  0.1431  0.6372
  309MOL0     C41617   5.229  12.459  10.570  0.6767 -0.0776  0.6931
  309MOL0     C41618   5.261  12.391  10.701 -0.5161  0.1460  0.6413
  309MOL0     C41619   5.212  12.475  10.822 -0.1224 -0.7878  0.4478
  309MOL0     C41620   5.296  12.440  10.943  0.2250 -0.4451  0.1553
  309MOL0     C41621   5.285  12.531  11.062  0.0967 -0.0611  0.5804
  309MOL0     C41622   5.321  12.459  11.192 -0.3790 -0.9458 -1.0490
  309MOL0     C41623   5.463  12.474  11.237 -0.6622 -0.8795 -0.2946
  309MOL0    Cl41624   5.574  12.404  11.127  0.1418 -0.2667  0.2313
  309MOL0     C41625   4.835  12.262  10.535  0.3748 -1.1243  0.5820
  309MOL0     C41626   4.712  12.212  10.495  0.5752 -0.2829 -0.1554
  309MOL0     O41627   4.421  12.203  10.474 -0.8318 -0.0231 -0.2187
  309MOL0     C41628   4.203  12.095  10.337  0.2870 -0.0478  0.2050
  309MOL0     C41629   4.095  12.037  10.279  0.0674 -1.0135  0.5574
  309MOL0     N41630   3.877  11.299  10.082 -0.7210  0.4243 -0.3564
  309MOL0     N41631   3.763  11.248  10.122 -0.2933  0.0064  0.3496
  309MOL0     C41632   2.724  10.950   9.594  0.1751 -0.6413  0.4281
  309MOL0     C41633   2.633  10.917   9.494 -0.3178 -0.4858  1.7012
  309MOL0     C41634   2.338  10.875   9.150  0.5487  0.1284 -0.5687
  309MOL0     C41635   2.361  10.867   9.011 -0.4913  0.3558 -0.2475
  309MOL0     C41636   2.277  10.822   8.909 -0.1273 -0.4325 -0.0977
  309MOL0     C41637   2.148  10.786   8.948  0.0795 -0.3970  0.4911
  309MOL0     O41638   2.064  10.729   8.857  0.3896 -0.0629  0.7255
  309MOL0     C41639   2.055  10.590   8.889 -0.1881  0.1779  0.1571
  309MOL0     C41640   1.995  10.533   8.768  0.2067  0.9031  0.4969
  309MOL0     C41641   1.853  10.593   8.739 -0.1893  0.2054 -0.3837
  309MOL0     C41642   1.790  10.515   8.634  0.3622  0.2067 -0.0241
  309MOL0     C41643   1.845  10.494   8.499 -0.3049 -0.5036 -0.8975
  309MOL0     C41644   1.873  10.494   8.380  0.5370  0.4327  1.3764
  309MOL0     C41645   2.117  10.797   9.085 -0.7356  0.2958 -0.3232
  309MOL0     C41646   2.209  10.832   9.185  0.0562 -0.1426 -0.3184
  309MOL0     C41647   2.155  10.842   9.325 -0.3727 -0.1574  0.7947
  309MOL0     H41648   2.367  11.108   9.577  0.5478  2.0151 -0.5008
  309MOL0     H41649   2.544  11.179   9.750  3.7033  1.5889  0.6230
  309MOL0     H41650   2.789  11.268   9.798 -0.5076  1.5558  0.9551
  309MOL0     H41651   2.670  11.195   9.922  0.1245 -0.9208 -0.6321
  309MOL0     H41652   2.894  11.082  10.002 -0.8040 -0.3891  0.1623
  309MOL0     H41653   2.836  11.235  10.078 -1.4703 -1.6377  0.0206
  309MOL0     H41654   2.984  11.366   9.915  1.9789  0.4957 -1.4128
  309MOL0     H41655   3.057  11.219   9.866 -1.3796 -2.1764  0.6853
  309MOL0     H41656   3.066  11.313  10.156 -0.2045  1.0013 -0.5190
  309MOL0     H41657   3.093  11.151  10.116 -1.7414 -0.4126 -0.1910
  309MOL0     H41658   3.281  11.209   9.975  1.6318  3.1283  0.0919
  309MOL0     H41659   3.251  11.389   9.994 -0.5002  1.8129  1.8248
  309MOL0     H41660   3.276  11.370  10.223  0.1972 -0.8784  0.7130
  309MOL0     H41661   3.304  11.186  10.210 -0.3518 -0.1710  0.4971
  309MOL0     H41662   3.500  11.259  10.257 -1.6885  3.4761  2.7888
  309MOL0     H41663   3.492  11.406  10.159 -0.2818  0.4008 -0.3282
  309MOL0     H41664   3.527  11.123  10.033  0.4941 -0.6194 -1.8965
  309MOL0     H41665   3.480  11.281   9.958 -0.7059  0.2013  2.5613
  309MOL0     H41666   3.668  11.400   9.847  0.8717 -0.2884 -1.0359
  309MOL0     H41667   4.041  11.457   9.963  1.6918  2.3079 -1.5663
  309MOL0     H41668   3.974  11.449   9.803  2.1857  1.5915  0.4077
  309MOL0     H41669   3.967  11.677   9.830 -0.4436 -0.6046 -1.2692
  309MOL0     H41670   3.808  11.621   9.838  0.9602 -1.3640 -2.2610
  309MOL0     H41671   3.817  11.641  10.093 -1.5636 -2.8285 -2.8200
  309MOL0     H41672   3.832  11.797  10.012  1.4287 -0.1527 -2.1561
  309MOL0     H41673   4.093  11.743  10.018 -0.5914  2.3521  0.0409
  309MOL0     H41674   4.060  11.663  10.154 -0.8877 -2.3924 -4.0852
  309MOL0     H41675   4.266  11.759  10.178  1.8261 -1.8981  3.1773
  309MOL0     H41676   4.456  11.897  10.254  0.4379  2.1345 -2.1254
  309MOL0     H41677   4.784  12.056  10.221  1.0789  0.8986 -0.7315
  309MOL0     H41678   5.021  12.128  10.289  0.4249 -0.6494  1.1025
  309MOL0     H41679   5.078  12.493  10.431  3.5443  1.9747  1.4583
  309MOL0     H41680   5.017  12.455  10.591 -0.6672 -1.3275  0.9690
  309MOL0     H41681   5.314  12.427  10.508  2.9874  3.5701  1.6620
  309MOL0     H41682   5.244  12.567  10.572  3.3105 -0.3530  0.1355
  309MOL0     H41683   5.207  12.297  10.711 -1.2527  0.4707 -0.1202
  309MOL0     H41684   5.370  12.383  10.703 -0.1774  3.1042 -0.1674
  309MOL0     H41685   5.108  12.447  10.842  0.5841 -2.0689  2.7694
  309MOL0     H41686   5.214  12.583  10.803  0.8224 -0.2837  2.9671
  309MOL0     H41687   5.399  12.422  10.911  0.2016 -1.7672  0.7369
  309MOL0     H41688   5.254  12.341  10.965 -3.3372  0.9334  0.1689
  309MOL0     H41689   5.348  12.620  11.052 -1.0161  0.8066  1.0304
  309MOL0     H41690   5.180  12.564  11.061  0.0580 -0.0809  2.1511
  309MOL0     H41691   5.292  12.354  11.195 -1.4920 -0.6320  0.0054
  309MOL0     H41692   5.282  12.503  11.284 -1.7361 -0.5078 -1.8133
  309MOL0     H41693   5.493  12.577  11.259 -1.0108 -0.3982 -1.9323
  309MOL0     H41694   5.479  12.424  11.332  1.8497 -2.4881 -1.4623
  309MOL0     H41695   4.845  12.326  10.623  0.2513  0.1597 -0.3049
  309MOL0     H41696   4.630  12.236  10.562  0.6982 -0.5677  0.0996
  309MOL0     H41697   4.182  12.184  10.396  0.6898 -0.1866  0.5571
  309MOL0     H41698   3.998  12.085  10.275  0.3966 -0.4039 -3.5168
  309MOL0     H41699   2.814  10.892   9.607  0.9948  0.9909  2.5843
  309MOL0     H41700   2.645  10.836   9.421 -1.2803  0.3766  0.5288
  309MOL0     H41701   2.466  10.887   8.991  0.7507 -0.1331  4.6335
  309MOL0     H41702   2.321  10.799   8.813  0.2249 -1.2109  0.2387
  309MOL0     H41703   2.001  10.563   8.980  1.8684 -2.0624  0.8500
  309MOL0     H41704   2.151  10.537   8.886 -0.6973 -0.8080 -3.6102
  309MOL0     H41705   1.989  10.423   8.769  1.4307  0.6718 -3.2275
  309MOL0     H41706   2.058  10.552   8.680  1.8793 -0.0597  1.4166
  309MOL0     H41707   1.855  10.701   8.720  0.4806  0.1851 -0.4408
  309MOL0     H41708   1.797  10.568   8.830  0.8052  0.8370  0.4315
  309MOL0     H41709   1.776  10.413   8.671  2.8959 -0.5340 -0.9049
  309MOL0     H41710   1.698  10.574   8.626  0.8264  0.8350 -0.9021
  309MOL0     H41711   1.900  10.495   8.276 -0.7225  1.5124  1.0254
  309MOL0     H41712   2.016  10.765   9.112 -0.9245 -0.8091 -2.1735
  309MOL0     H41713   2.051  10.810   9.336 -0.6441  0.5251  0.2585
  309MOL0     H41714   2.209  10.775   9.393 -1.3321  0.3563  2.1024
  309MOL0     H41715   2.164  10.946   9.359 -1.6465  1.1103 -2.3906
  310MOL0     O41716   8.980  11.077   2.133 -0.5554 -0.2768  0.1025
  310MOL0     C41717   9.010  11.168   2.201  0.7932 -0.4604  0.5718
  310MOL0     O41718   8.927  11.266   2.248 -0.3770 -0.6984 -0.3988
  310MOL0     C41719   8.797  11.287   2.191  0.1947 -0.8578 -0.1818
  310MOL0     C41720   8.704  11.190   2.175 -0.2611  0.3844  0.1143
  310MOL0     C41721   8.575  11.208   2.117  0.5822 -0.5291  0.8126
  310MOL0     C41722   8.525  11.339   2.087  0.0131 -0.2021  0.0570
  310MOL0     O41723   8.403  11.356   2.028  0.4962 -0.6573  0.6709
  310MOL0     C41724   8.388  11.465   1.936  1.1249 -0.0282 -0.1143
  310MOL0     C41725   8.252  11.460   1.872  0.3830 -0.4183  0.2155
  310MOL0     C41726   8.231  11.577   1.782 -0.3362 -0.6159 -0.0238
  310MOL0     C41727   8.097  11.571   1.708  0.4859 -0.4481 -0.2536
  310MOL0     C41728   8.120  11.491   1.574  0.1992 -0.4114  0.2994
  310MOL0     C41729   7.998  11.507   1.474  0.2409 -0.9288 -0.0612
  310MOL0     C41730   7.957  11.648   1.413 -0.4790  0.9938  0.1125
  310MOL0     C41731   7.837  11.642   1.327 -0.5954 -0.4739 -0.6593
  310MOL0     N41732   7.727  11.670   1.417  0.4503  0.5383  0.1242
  310MOL0     C41733   7.676  11.572   1.498 -0.3104  0.0782  0.3151
  310MOL0     C41734   7.607  11.641   1.591  0.2730 -0.1088  0.0267
  310MOL0     C41735   7.555  11.560   1.711  0.7410 -0.1484  0.0182
  310MOL0     C41736   7.664  11.495   1.802  0.8489 -0.4879  0.9005
  310MOL0     C41737   7.752  11.598   1.872  0.1334  0.8340  0.4541
  310MOL0     C41738   7.677  11.700   1.959 -0.3750  0.1156  0.4678
  310MOL0     O41739   7.629  11.804   1.879 -0.2411  0.5488  0.5821
  310MOL0     C41740   7.553  11.898   1.928  0.2444 -0.4310  0.6648
  310MOL0     C41741   7.492  11.984   1.833 -0.6962 -0.4107  0.3224
  310MOL0     C41742   7.392  12.072   1.864 -0.5720  0.1547 -0.7517
  310MOL0     C41743   7.339  12.074   1.998 -0.7059 -0.7442 -0.2076
  310MOL0     C41744   7.239  12.167   2.052 -0.4358  0.2214  0.0550
  310MOL0     O41745   7.214  12.275   1.963 -0.2088  0.5549 -0.6583
  310MOL0     C41746   7.124  12.377   1.990 -0.9807 -0.2171 -0.0828
  310MOL0     C41747   7.012  12.379   1.912  0.2957 -0.6187 -0.1334
  310MOL0     C41748   6.922  12.482   1.922 -0.3953 -0.3028  0.3806
  310MOL0     C41749   6.951  12.596   2.012 -0.3854 -0.1038 -0.4266
  310MOL0     O41750   6.863  12.700   2.008  0.4582  0.7421  0.0865
  310MOL0     C41751   6.900  12.816   2.081 -0.0816  0.2717 -0.5391
  310MOL0     C41752   6.792  12.912   2.068 -0.1464  0.3278 -0.0004
  310MOL0     C41753   6.660  12.874   2.132  0.0832 -0.0290 -0.4253
  310MOL0     C41754   6.663  12.894   2.287 -0.4438 -0.1508  0.4057
  310MOL0     C41755   6.521  12.862   2.351  0.1550  0.0420  0.2419
  310MOL0     C41756   6.509  12.866   2.502  0.0534 -0.3509  0.8050
  310MOL0     C41757   6.577  12.745   2.573 -0.5289 -0.6237 -0.5479
  310MOL0     C41758   6.618  12.780   2.717  0.5706 -0.6425  0.8242
  310MOL0    Cl41759   6.460  12.821   2.789  0.2362 -0.3471 -0.3213
  310MOL0     C41760   7.077  12.597   2.080  0.0615  0.4515  0.3402
  310MOL0     C41761   7.160  12.487   2.062  0.7904  0.3251 -0.2919
  310MOL0     O41762   7.188  12.155   2.163 -0.0917 -0.7852  0.2956
  310MOL0     C41763   7.405  12.000   2.097 -0.6100 -0.7269 -0.3748
  310MOL0     C41764   7.507  11.916   2.063  0.4702 -0.1769 -0.2801
  310MOL0     N41765   7.587  11.769   1.545  0.2175 -0.0573 -0.1158
  310MOL0     N41766   7.661  11.782   1.437  0.0389 -1.1471 -0.0900
  310MOL0     C41767   8.622  11.446   2.109  0.3567 -1.2063 -0.4944
  310MOL0     C41768   8.748  11.422   2.160  0.0878  0.3312  0.2981
  310MOL0     C41769   9.158  11.181   2.233  0.0229 -0.8229  0.0655
  310MOL0     C41770   9.261  11.116   2.169  0.6282 -0.3113 -0.2976
  310MOL0     C41771   9.398  11.141   2.202 -0.1849 -0.0032  0.1610
  310MOL0     C41772   9.433  11.233   2.298 -0.0061 -0.0297  0.3362
  310MOL0     O41773   9.559  11.283   2.323  0.7979  0.7422  0.2372
  310MOL0     C41774   9.669  11.217   2.266 -0.4929 -0.4542  0.8299
  310MOL0     C41775   9.690  11.285   2.125 -1.1777 -0.2923 -1.0729
  310MOL0     C41776   9.778  11.200   2.042  0.1490 -0.0193 -0.1826
  310MOL0     C41777   9.717  11.169   1.909  0.0326  0.9022  0.6725
  310MOL0     C41778   9.818  11.117   1.822 -0.0437  0.0014 -0.0443
  310MOL0     C41779   9.893  11.062   1.741 -0.1568 -0.2591  0.4048
  310MOL0     C41780   9.335  11.294   2.374 -0.0042  0.1660 -0.3591
  310MOL0     C41781   9.200  11.266   2.344 -0.1684 -0.0527  0.1753
  310MOL0     C41782   9.105  11.349   2.428 -0.2769  0.6607 -0.2745
  310MOL0     H41783   8.736  11.100   2.227 -1.5762  0.3103  0.8363
  310MOL0     H41784   8.513  11.121   2.096  3.0022 -2.0957 -0.2840
  310MOL0     H41785   8.385  11.556   1.995 -3.4808 -0.5310  0.7742
  310MOL0     H41786   8.472  11.468   1.865  2.0497 -0.4356  0.9198
  310MOL0     H41787   8.180  11.470   1.954 -0.5339 -0.3970 -0.5717
  310MOL0     H41788   8.233  11.367   1.817 -4.9776 -0.8806  2.1972
  310MOL0     H41789   8.307  11.578   1.704 -1.0769  0.0277 -0.7625
  310MOL0     H41790   8.245  11.671   1.837 -0.3032 -1.4497  1.4503
  310MOL0     H41791   8.014  11.538   1.771  0.6162  0.4480  0.4116
  310MOL0     H41792   8.074  11.675   1.683  1.8111  0.1701  1.0215
  310MOL0     H41793   8.205  11.531   1.517 -0.1578  0.3817  0.3130
  310MOL0     H41794   8.144  11.387   1.597  1.2518 -0.5398 -1.1984
  310MOL0     H41795   8.012  11.432   1.396  1.7888 -1.4120  0.6430
  310MOL0     H41796   7.913  11.467   1.531  0.3304 -2.2541 -0.8201
  310MOL0     H41797   8.032  11.673   1.337 -0.8511  0.9788 -0.2597
  310MOL0     H41798   7.944  11.732   1.482  0.3284  0.4574  0.9531
  310MOL0     H41799   7.828  11.707   1.240 -2.3864 -1.4422 -1.2544
  310MOL0     H41800   7.808  11.544   1.286 -2.7064  0.3533 -1.2492
  310MOL0     H41801   7.704  11.468   1.492 -3.0194 -0.7172  0.0214
  310MOL0     H41802   7.477  11.615   1.766 -2.5239 -0.9132 -3.4428
  310MOL0     H41803   7.500  11.473   1.673 -1.1888  0.3514  1.4749
  310MOL0     H41804   7.622  11.435   1.883 -0.5456 -0.8519 -0.0679
  310MOL0     H41805   7.732  11.434   1.742  0.6026  1.3377 -1.3438
  310MOL0     H41806   7.812  11.649   1.797 -1.6724  1.5293 -0.5921
  310MOL0     H41807   7.824  11.538   1.928  1.0374  1.9180  0.4824
  310MOL0     H41808   7.743  11.745   2.034  0.3065  0.8292 -0.5365
  310MOL0     H41809   7.596  11.653   2.015 -1.7006  2.2581  0.4476
  310MOL0     H41810   7.537  11.977   1.734  0.2212 -0.8704  0.7555
  310MOL0     H41811   7.347  12.135   1.787 -1.5663  2.0013  1.2433
  310MOL0     H41812   6.989  12.292   1.851 -3.2429  0.9326 -1.2538
  310MOL0     H41813   6.823  12.487   1.878 -0.4068 -0.7613  0.3533
  310MOL0     H41814   6.913  12.798   2.189 -0.7190  1.0283 -0.3242
  310MOL0     H41815   6.985  12.875   2.047  0.4643  1.0806  1.9987
  310MOL0     H41816   6.832  13.005   2.108  1.9876 -1.6091  2.7451
  310MOL0     H41817   6.765  12.915   1.962 -1.4407 -1.7469  0.2131
  310MOL0     H41818   6.584  12.940   2.091 -1.3350 -0.4254  1.4084
  310MOL0     H41819   6.634  12.774   2.097  0.2449 -0.2741  0.1383
  310MOL0     H41820   6.694  12.997   2.309 -1.7252  0.8007 -1.8994
  310MOL0     H41821   6.741  12.836   2.338 -0.9865  1.0010  2.6997
  310MOL0     H41822   6.503  12.761   2.313  2.0720 -0.1691 -0.2092
  310MOL0     H41823   6.444  12.933   2.318  1.1676  1.6277  1.1510
  310MOL0     H41824   6.549  12.957   2.550  2.5781 -1.0310  0.1418
  310MOL0     H41825   6.405  12.851   2.532  0.2398  0.8518  2.1670
  310MOL0     H41826   6.661  12.707   2.515  0.5555  1.4984 -0.4620
  310MOL0     H41827   6.499  12.669   2.575 -1.1971 -0.0582 -2.6151
  310MOL0     H41828   6.666  12.690   2.756 -1.1251 -1.2268  1.6514
  310MOL0     H41829   6.690  12.860   2.738  3.5765 -2.5904 -1.3200
  310MOL0     H41830   7.116  12.670   2.151 -3.1399  2.5061  0.1598
  310MOL0     H41831   7.255  12.470   2.113 -0.0056 -3.9582  0.1423
  310MOL0     H41832   7.380  12.002   2.202  1.0091 -1.3310  0.0612
  310MOL0     H41833   7.530  11.843   2.140  1.5560 -0.7509 -1.1251
  310MOL0     H41834   8.598  11.548   2.080 -0.9647 -0.7102  2.0449
  310MOL0     H41835   8.815  11.506   2.179  1.5682 -0.5890 -0.7073
  310MOL0     H41836   9.244  11.060   2.077  1.0871  1.0570 -1.2422
  310MOL0     H41837   9.480  11.104   2.142 -1.1937  0.6708 -1.6959
  310MOL0     H41838   9.647  11.110   2.264  0.9672 -0.8024 -2.3338
  310MOL0     H41839   9.754  11.227   2.334 -1.6851  0.7090  2.2081
  310MOL0     H41840   9.739  11.382   2.139  1.4807 -1.7669  0.5760
  310MOL0     H41841   9.599  11.304   2.067  1.2061  2.7659 -4.2466
  310MOL0     H41842   9.811  11.115   2.103 -1.8552  1.2530  2.9251
  310MOL0     H41843   9.866  11.262   2.021  0.2646 -0.7001 -1.8610
  310MOL0     H41844   9.631  11.103   1.922  0.5692  0.0568  0.0071
  310MOL0     H41845   9.683  11.257   1.853 -0.9183 -1.4167 -2.7040
  310MOL0     H41846   9.945  11.018   1.658  0.0967  2.0278 -0.7245
  310MOL0     H41847   9.365  11.350   2.462 -2.4910 -0.1419  0.7589
  310MOL0     H41848   9.149  11.373   2.525 -3.2946 -3.2284  2.3532
  310MOL0     H41849   9.071  11.431   2.364  1.3820  2.9861  1.6874
  310MOL0     H41850   9.023  11.292   2.472  1.9557 -0.3815  2.8730
  311MOL0     O41851   9.581   4.164   9.268  0.1260  0.9080  0.2199
  311MOL0     C41852   9.510   4.058   9.268  1.3387 -0.3121  0.2934
  311MOL0     O41853   9.416   4.040   9.171 -0.5970 -0.3286  0.4265
  311MOL0     C41854   9.375   4.141   9.087  0.1383 -0.1305 -0.2462
  311MOL0     C41855   9.356   4.278   9.141 -0.7129 -0.1011  0.1431
  311MOL0     C41856   9.328   4.379   9.054  1.0232  0.7430  0.4665
  311MOL0     C41857   9.302   4.345   8.922 -0.3710 -0.5148  0.8134
  311MOL0     O41858   9.236   4.439   8.848 -0.8648  0.0918  0.5135
  311MOL0     C41859   9.325   4.532   8.776  0.7847  0.2098  0.1840
  311MOL0     C41860   9.262   4.659   8.718  0.4455  0.1737  0.0475
  311MOL0     C41861   9.165   4.625   8.600 -0.2929  0.6650 -0.2176
  311MOL0     C41862   9.119   4.743   8.508 -0.1262 -0.0323  0.1309
  311MOL0     C41863   9.031   4.706   8.380  0.2675 -0.2872  0.9314
  311MOL0     C41864   8.895   4.648   8.428  0.6541  0.2415 -0.3408
  311MOL0     C41865   8.809   4.596   8.310 -0.4394  0.0900 -0.0675
  311MOL0     C41866   8.712   4.479   8.340  1.2208 -0.2645 -0.0226
  311MOL0     N41867   8.624   4.511   8.449  0.1936  0.1056 -0.2363
  311MOL0     C41868   8.549   4.625   8.467 -0.7758  0.4784  0.8305
  311MOL0     C41869   8.487   4.616   8.580 -0.2602 -0.8022 -0.0811
  311MOL0     C41870   8.389   4.716   8.630  0.3870 -0.2519 -0.2344
  311MOL0     C41871   8.245   4.689   8.572  1.3126  0.4789  0.8039
  311MOL0     C41872   8.142   4.792   8.610  0.0279 -0.1747 -0.5342
  311MOL0     C41873   8.002   4.752   8.561 -0.0155  0.2789 -0.0924
  311MOL0     O41874   8.017   4.726   8.421 -0.2361  0.1768  0.3919
  311MOL0     C41875   7.911   4.718   8.332  0.0301 -0.7233 -0.2961
  311MOL0     C41876   7.945   4.703   8.195  0.0605 -0.0928 -0.5300
  311MOL0     C41877   7.854   4.672   8.097 -0.5186 -0.0465  0.3767
  311MOL0     C41878   7.718   4.671   8.127 -0.2564 -0.0222  0.3435
  311MOL0     C41879   7.612   4.629   8.035 -0.6582 -0.4105 -0.0101
  311MOL0     O41880   7.655   4.540   7.936  0.3063 -0.3877 -0.2919
  311MOL0     C41881   7.558   4.501   7.847  0.1809  0.2130 -0.7451
  311MOL0     C41882   7.509   4.602   7.763  0.9988  0.0878 -0.1369
  311MOL0     C41883   7.402   4.569   7.674 -0.7869 -0.3345  0.6261
  311MOL0     C41884   7.364   4.437   7.653 -0.0689  0.1324 -0.0681
  311MOL0     O41885   7.266   4.411   7.563  0.2118 -0.0123 -0.1736
  311MOL0     C41886   7.181   4.307   7.584 -0.1459  0.4609 -0.5096
  311MOL0     C41887   7.078   4.323   7.703 -0.9309 -0.3502  1.4626
  311MOL0     C41888   6.974   4.205   7.708 -0.5219  0.4656 -0.7104
  311MOL0     C41889   6.832   4.237   7.777 -1.0129 -1.3467 -0.0446
  311MOL0     C41890   6.719   4.135   7.743 -0.0995  0.4045  0.0955
  311MOL0     C41891   6.597   4.143   7.834 -0.3392  0.7954 -0.2534
  311MOL0     C41892   6.541   4.281   7.826  1.2077 -1.0037  0.2672
  311MOL0     C41893   6.464   4.314   7.696  0.2926  0.2945 -0.4593
  311MOL0    Cl41894   6.355   4.185   7.640  0.8391  0.1360 -0.1530
  311MOL0     C41895   7.429   4.338   7.727 -0.4940  0.2491 -0.2725
  311MOL0     C41896   7.525   4.364   7.821  0.4042  1.0216  0.1859
  311MOL0     O41897   7.504   4.678   8.050  0.0431  0.2350  0.0992
  311MOL0     C41898   7.684   4.689   8.265 -0.4058  0.4460 -0.2668
  311MOL0     C41899   7.774   4.720   8.366  0.0154 -0.1341  0.3529
  311MOL0     N41900   8.510   4.491   8.630  0.4153  0.3717 -0.1098
  311MOL0     N41901   8.586   4.429   8.552  0.6823 -0.0037  0.4988
  311MOL0     C41902   9.300   4.218   8.864 -0.1731 -0.0039 -0.5329
  311MOL0     C41903   9.345   4.115   8.948  0.3392  0.6734 -0.3158
  311MOL0     C41904   9.514   3.960   9.379 -0.2956 -0.1733 -0.2023
  311MOL0     C41905   9.456   3.827   9.363 -0.2351  0.1966 -0.6368
  311MOL0     C41906   9.478   3.734   9.469  0.0926 -0.6750 -0.5202
  311MOL0     C41907   9.547   3.762   9.575  1.5153 -0.2950  0.0533
  311MOL0     O41908   9.543   3.672   9.669  0.1106  0.5316 -0.2958
  311MOL0     C41909   9.651   3.665   9.764  0.2918 -0.2169 -0.0960
  311MOL0     C41910   9.667   3.528   9.820  1.1200  0.1604  0.7048
  311MOL0     C41911   9.689   3.422   9.713 -0.3508  0.5191  0.9713
  311MOL0     C41912   9.636   3.293   9.758 -0.6008 -0.1596 -0.3455
  311MOL0     C41913   9.701   3.178   9.697  0.0435  0.1098  0.0595
  311MOL0     C41914   9.731   3.081   9.633 -0.1384  0.0388 -0.1839
  311MOL0     C41915   9.591   3.888   9.601 -0.4948 -0.5035  0.2534
  311MOL0     C41916   9.577   3.992   9.503 -0.1083  0.1896  0.4712
  311MOL0     C41917   9.627   4.124   9.537  0.6752  0.5160 -0.2985
  311MOL0     H41918   9.362   4.319   9.241 -0.6180  0.6244 -0.1532
  311MOL0     H41919   9.313   4.478   9.097  2.2220  0.9252  0.4904
  311MOL0     H41920   9.386   4.588   8.847 -0.6765  1.5784  0.4195
  311MOL0     H41921   9.389   4.480   8.704 -0.8609  1.0688 -2.0317
  311MOL0     H41922   9.336   4.735   8.691 -1.8266  2.3551 -0.4930
  311MOL0     H41923   9.195   4.710   8.789 -1.1596 -0.5973 -0.8578
  311MOL0     H41924   9.083   4.573   8.649  0.2273  2.8568  3.2755
  311MOL0     H41925   9.218   4.556   8.533 -0.6348  0.9209 -0.7669
  311MOL0     H41926   9.050   4.807   8.564 -0.1613 -0.5342  0.6678
  311MOL0     H41927   9.212   4.792   8.477  0.5492 -2.9734 -3.0582
  311MOL0     H41928   9.010   4.786   8.309  1.0831 -1.7135 -1.0135
  311MOL0     H41929   9.085   4.628   8.324 -0.6456 -0.1903 -0.1047
  311MOL0     H41930   8.929   4.562   8.486  4.2308  0.1399 -2.2901
  311MOL0     H41931   8.836   4.720   8.485 -2.7014 -0.9548 -2.0379
  311MOL0     H41932   8.881   4.556   8.239  1.2832  0.8039  1.1821
  311MOL0     H41933   8.756   4.683   8.270  3.1819  1.9077 -1.3073
  311MOL0     H41934   8.646   4.452   8.257  1.0398 -0.4193  0.1719
  311MOL0     H41935   8.775   4.398   8.377  1.1335  0.5932  2.1250
  311MOL0     H41936   8.533   4.716   8.409 -1.6327 -0.0598  0.2023
  311MOL0     H41937   8.375   4.719   8.738 -1.6545 -1.3391 -0.4156
  311MOL0     H41938   8.425   4.811   8.588 -0.1770 -0.3478 -0.9616
  311MOL0     H41939   8.260   4.690   8.464 -1.6718 -1.6454  0.2551
  311MOL0     H41940   8.203   4.594   8.605  0.4227  1.1335  1.6473
  311MOL0     H41941   8.165   4.886   8.559  2.3308 -1.4560 -2.0201
  311MOL0     H41942   8.134   4.804   8.719 -2.8020 -1.8346 -0.4661
  311MOL0     H41943   7.932   4.833   8.583  1.1682  0.6903  2.5524
  311MOL0     H41944   7.972   4.657   8.607  1.9339 -1.0422 -1.3819
  311MOL0     H41945   8.049   4.713   8.166 -0.5230  3.3687 -1.8313
  311MOL0     H41946   7.877   4.680   7.991 -1.2793  0.1084  0.2222
  311MOL0     H41947   7.526   4.707   7.783 -4.8083  0.9124  2.4761
  311MOL0     H41948   7.364   4.654   7.619 -0.8619  0.3969  1.7930
  311MOL0     H41949   7.114   4.299   7.498 -1.7200  0.7734  0.6640
  311MOL0     H41950   7.235   4.213   7.602 -1.4078  0.3442  3.7688
  311MOL0     H41951   7.125   4.339   7.801  1.8204  2.9382 -0.1805
  311MOL0     H41952   7.033   4.423   7.695 -0.1646 -0.0017  1.4129
  311MOL0     H41953   6.951   4.162   7.610  0.7815 -0.3760 -0.6690
  311MOL0     H41954   7.024   4.129   7.768 -0.7854 -0.3409 -1.4895
  311MOL0     H41955   6.805   4.335   7.735  1.2323 -0.6247  0.0484
  311MOL0     H41956   6.838   4.253   7.885 -1.3241 -2.5551  0.1701
  311MOL0     H41957   6.763   4.034   7.744 -2.2865 -0.6857  3.2176
  311MOL0     H41958   6.689   4.159   7.641 -0.8454  4.1305  1.0579
  311MOL0     H41959   6.521   4.071   7.800  0.7583  0.7948 -2.8524
  311MOL0     H41960   6.630   4.112   7.934  0.1700  1.0626 -0.3393
  311MOL0     H41961   6.611   4.365   7.835 -0.6736  0.4787  1.6196
  311MOL0     H41962   6.462   4.302   7.897 -0.0003  4.1297 -2.1124
  311MOL0     H41963   6.398   4.399   7.714  0.0355 -0.0802  0.4179
  311MOL0     H41964   6.548   4.334   7.628 -0.5287  1.3783 -1.2008
  311MOL0     H41965   7.422   4.232   7.704  0.2916  0.2484 -0.5618
  311MOL0     H41966   7.578   4.286   7.875 -1.1053 -0.8793 -0.9665
  311MOL0     H41967   7.578   4.674   8.279  0.0233 -3.7506 -0.0202
  311MOL0     H41968   7.745   4.754   8.465 -0.5895  5.7407 -1.4398
  311MOL0     H41969   9.267   4.206   8.761 -1.8555  2.7083 -0.4270
  311MOL0     H41970   9.367   4.018   8.905 -0.1097  0.2339  0.4377
  311MOL0     H41971   9.405   3.802   9.271  0.4576 -0.9655 -0.7230
  311MOL0     H41972   9.432   3.636   9.464  1.7578 -2.5048  6.8646
  311MOL0     H41973   9.617   3.734   9.842 -1.2387 -1.4693  0.4000
  311MOL0     H41974   9.745   3.692   9.716  0.6106 -4.1101 -2.0996
  311MOL0     H41975   9.569   3.513   9.867  0.5133  2.5936  0.3483
  311MOL0     H41976   9.745   3.544   9.895 -0.4486  0.2701  2.3926
  311MOL0     H41977   9.797   3.422   9.698 -0.2630 -0.0053  1.5508
  311MOL0     H41978   9.642   3.449   9.618  0.3326 -0.3946  0.3554
  311MOL0     H41979   9.649   3.277   9.866 -0.7178 -0.3618 -0.3600
  311MOL0     H41980   9.531   3.281   9.728 -1.0595  1.2935  0.5921
  311MOL0     H41981   9.728   2.999   9.563 -0.9409  0.0523 -0.1751
  311MOL0     H41982   9.616   3.914   9.704 -0.0244  1.7625 -0.3843
  311MOL0     H41983   9.668   4.122   9.639  1.8391  2.5279 -0.6551
  311MOL0     H41984   9.715   4.150   9.477  0.4704 -2.9697 -2.3537
  311MOL0     H41985   9.546   4.197   9.529  1.4220  1.5390  1.0740
  312MOL0     O41986   3.612   3.531   0.979  0.3329  0.2607 -0.2541
  312MOL0     C41987   3.580   3.629   1.034 -0.7124 -0.7615 -0.4372
  312MOL0     O41988   3.453   3.687   1.037  0.8413 -0.2062  0.3149
  312MOL0     C41989   3.351   3.612   0.987 -0.4168  0.6901 -0.0269
  312MOL0     C41990   3.293   3.655   0.863 -0.1609 -0.3833  1.0550
  312MOL0     C41991   3.189   3.573   0.811 -1.0614  1.0532 -0.2820
  312MOL0     C41992   3.148   3.453   0.875 -1.1808 -0.1425 -0.8662
  312MOL0     O41993   3.055   3.380   0.793  0.0327  0.3001 -1.0449
  312MOL0     C41994   2.947   3.300   0.859 -0.1906 -0.2871 -0.6528
  312MOL0     C41995   2.821   3.397   0.852  0.0278 -0.0670 -0.3931
  312MOL0     C41996   2.827   3.518   0.947  0.6610 -0.8091 -0.4681
  312MOL0     C41997   2.851   3.648   0.874  0.3980 -0.2310  0.1457
  312MOL0     C41998   2.829   3.776   0.953 -0.3766 -0.2995 -0.1331
  312MOL0     C41999   2.962   3.803   1.017 -0.5539 -0.3522  0.0599
  312MOL0     C42000   2.955   3.932   1.103  0.0118 -0.0379  0.2862
  312MOL0     C42001   3.086   3.973   1.164 -0.0939 -0.2703  0.2377
  312MOL0     N42002   3.059   4.104   1.231 -0.6560 -0.3358 -0.5057
  312MOL0     C42003   3.084   4.125   1.369  0.1365  0.5560  0.5342
  312MOL0     C42004   3.080   4.254   1.396 -0.3191  0.4526  1.3950
  312MOL0     C42005   3.088   4.327   1.525  0.0772 -0.1009 -0.4236
  312MOL0     C42006   3.231   4.373   1.545 -0.4061 -0.1522 -0.2517
  312MOL0     C42007   3.263   4.441   1.673 -0.0965 -0.2365  0.5482
  312MOL0     C42008   3.413   4.476   1.700  0.5087 -0.6685  0.1565
  312MOL0     O42009   3.422   4.488   1.843 -0.2701  0.0128 -0.4849
  312MOL0     C42010   3.545   4.495   1.904  0.0940  1.0601 -0.7518
  312MOL0     C42011   3.556   4.471   2.045 -0.3235 -0.4285 -0.5968
  312MOL0     C42012   3.672   4.504   2.120 -0.6740  0.8026  0.8937
  312MOL0     C42013   3.787   4.543   2.051  0.1693 -0.0912  0.6048
  312MOL0     C42014   3.917   4.544   2.121 -0.8802 -0.2247 -0.2931
  312MOL0     O42015   4.002   4.660   2.107 -0.7467 -0.3020 -0.1835
  312MOL0     C42016   4.090   4.688   2.211 -0.3806 -0.1324 -0.6836
  312MOL0     C42017   4.211   4.614   2.241 -0.3423 -0.4887  0.0175
  312MOL0     C42018   4.300   4.661   2.340 -0.3761 -0.1694  0.7016
  312MOL0     C42019   4.279   4.783   2.408 -0.2240  0.1611 -0.2257
  312MOL0     O42020   4.362   4.859   2.494 -0.3432  0.6444 -0.4139
  312MOL0     C42021   4.490   4.807   2.532 -0.0540  0.7367 -0.2533
  312MOL0     C42022   4.572   4.922   2.599 -0.0667 -0.0741  0.2860
  312MOL0     C42023   4.525   4.958   2.737  0.5943  0.2614  0.0918
  312MOL0     C42024   4.519   4.834   2.833  0.1941  0.1015  0.4350
  312MOL0     C42025   4.485   4.874   2.984 -0.7589  0.2113 -0.7935
  312MOL0     C42026   4.497   4.752   3.079 -0.2009  0.5751 -0.0945
  312MOL0     C42027   4.409   4.766   3.212  0.4784 -0.2059  1.1715
  312MOL0     C42028   4.280   4.681   3.225 -0.0572  0.3890  0.2560
  312MOL0    Cl42029   4.143   4.774   3.192 -0.0732  0.2211  0.1759
  312MOL0     C42030   4.159   4.847   2.378 -0.6518  0.4721 -1.3169
  312MOL0     C42031   4.064   4.802   2.286  0.3429 -0.2310  0.6211
  312MOL0     O42032   3.943   4.450   2.196 -0.1166 -0.7585  0.2795
  312MOL0     C42033   3.786   4.553   1.911  1.2042 -0.1878  0.4218
  312MOL0     C42034   3.667   4.530   1.840  0.4981 -0.8248  0.2901
  312MOL0     N42035   3.079   4.316   1.272  0.7458 -1.1162 -0.3505
  312MOL0     N42036   3.061   4.227   1.179 -0.0082 -0.1868  0.9423
  312MOL0     C42037   3.214   3.410   0.993 -0.3861 -0.2724 -0.3519
  312MOL0     C42038   3.317   3.494   1.043 -0.5475  0.4090  0.1107
  312MOL0     C42039   3.691   3.706   1.091 -0.8438 -0.5734 -0.6476
  312MOL0     C42040   3.821   3.703   1.043  0.2380  0.6936 -0.2534
  312MOL0     C42041   3.938   3.760   1.107  0.1491 -0.3518  0.5702
  312MOL0     C42042   3.915   3.844   1.216  0.3148  0.1090  0.2425
  312MOL0     O42043   4.005   3.919   1.283  0.7877  0.6927 -0.3760
  312MOL0     C42044   4.142   3.866   1.260  0.0481  0.6650 -0.1456
  312MOL0     C42045   4.237   3.904   1.374 -1.2605 -0.3787 -1.2119
  312MOL0     C42046   4.184   3.877   1.515 -0.6123  0.5449  0.0343
  312MOL0     C42047   4.212   3.727   1.561  0.5978  0.1302 -0.6357
  312MOL0     C42048   4.112   3.630   1.509 -0.4491 -0.3637 -0.4386
  312MOL0     C42049   4.027   3.559   1.472 -0.0004  0.9946  0.6514
  312MOL0     C42050   3.785   3.855   1.263  0.1930  1.3796  0.0328
  312MOL0     C42051   3.669   3.790   1.208  0.3189  0.2745 -0.1327
  312MOL0     C42052   3.527   3.816   1.281 -0.2224 -0.7329  0.3022
  312MOL0     H42053   3.315   3.749   0.815 -2.4872  0.7544  2.0460
  312MOL0     H42054   3.137   3.603   0.721 -0.4942 -1.0882 -1.3867
  312MOL0     H42055   2.921   3.202   0.818 -3.7340 -1.4443  3.5842
  312MOL0     H42056   2.971   3.277   0.964 -2.2475  0.5442  0.0435
  312MOL0     H42057   2.729   3.339   0.869 -0.2673 -0.2309 -2.3524
  312MOL0     H42058   2.800   3.424   0.748 -0.0899 -0.9589 -0.6143
  312MOL0     H42059   2.896   3.512   1.032 -1.6409  3.2393  2.0108
  312MOL0     H42060   2.731   3.524   0.998  0.1739 -2.9121 -1.0607
  312MOL0     H42061   2.944   3.638   0.818 -0.6060 -1.3121 -1.4546
  312MOL0     H42062   2.774   3.649   0.796  1.2620 -1.3683 -0.7656
  312MOL0     H42063   2.816   3.867   0.893 -0.9828  0.0515  0.5010
  312MOL0     H42064   2.754   3.776   1.033  0.3576  2.6905  0.7056
  312MOL0     H42065   2.994   3.725   1.087  2.0109  1.1008  0.6266
  312MOL0     H42066   3.049   3.819   0.953  0.6081 -2.1815  1.0712
  312MOL0     H42067   2.883   3.916   1.184 -2.2900 -0.5703 -1.7532
  312MOL0     H42068   2.911   4.008   1.038 -1.7508 -2.2739 -1.3140
  312MOL0     H42069   3.133   3.897   1.226 -1.5640  0.2308  2.0494
  312MOL0     H42070   3.159   3.991   1.084  1.9438  0.9856  2.2580
  312MOL0     H42071   3.091   4.050   1.447 -1.0699 -0.4338 -0.2633
  312MOL0     H42072   3.020   4.411   1.506 -1.9333 -1.4102  0.6329
  312MOL0     H42073   3.061   4.275   1.617  0.5070  1.6185  0.7469
  312MOL0     H42074   3.303   4.291   1.541  0.5363  0.5047  1.7785
  312MOL0     H42075   3.247   4.441   1.460 -0.7723  0.6965  0.3445
  312MOL0     H42076   3.230   4.379   1.757 -2.5496  0.5957  0.2833
  312MOL0     H42077   3.203   4.532   1.669 -2.5052 -1.7873 -1.5317
  312MOL0     H42078   3.434   4.573   1.655 -0.8144 -0.1280  0.6683
  312MOL0     H42079   3.486   4.404   1.661  0.5374 -0.8229  0.4897
  312MOL0     H42080   3.463   4.446   2.095  0.1017 -0.4842  0.1843
  312MOL0     H42081   3.687   4.475   2.223 -0.8164  1.2810  1.0512
  312MOL0     H42082   4.231   4.529   2.177  2.7792  1.6562 -2.1064
  312MOL0     H42083   4.397   4.611   2.342  1.5734  3.2839  0.5045
  312MOL0     H42084   4.476   4.723   2.600 -1.7015  1.3881  0.2648
  312MOL0     H42085   4.534   4.771   2.438  0.9988  2.5828 -0.5080
  312MOL0     H42086   4.676   4.891   2.608 -0.0832  0.3750  2.5710
  312MOL0     H42087   4.564   5.011   2.536 -0.5045 -0.2125  0.1437
  312MOL0     H42088   4.590   5.033   2.784  1.1541  2.1923 -3.4318
  312MOL0     H42089   4.422   4.995   2.742 -0.1702 -1.8942  3.5568
  312MOL0     H42090   4.623   4.802   2.828 -0.3462 -1.5891 -2.0696
  312MOL0     H42091   4.449   4.763   2.788  1.3611 -0.6789 -0.1876
  312MOL0     H42092   4.377   4.892   2.985 -0.4685  2.1564 -0.8402
  312MOL0     H42093   4.549   4.956   3.019  1.4670 -0.9986 -1.7952
  312MOL0     H42094   4.467   4.662   3.026 -0.4174  0.3580  0.3903
  312MOL0     H42095   4.599   4.748   3.118 -0.0755  3.6637  0.1448
  312MOL0     H42096   4.379   4.870   3.229 -2.1449 -0.3498 -1.8005
  312MOL0     H42097   4.469   4.741   3.300  0.4197 -3.9176  0.3310
  312MOL0     H42098   4.279   4.585   3.173  0.8056 -0.0189  0.9709
  312MOL0     H42099   4.278   4.659   3.332 -1.0809  0.4914  0.2717
  312MOL0     H42100   4.147   4.943   2.428  2.9663  0.2831  0.2001
  312MOL0     H42101   3.982   4.867   2.256 -1.9364 -3.2700 -0.1629
  312MOL0     H42102   3.869   4.597   1.855 -1.0477  2.4175 -1.1151
  312MOL0     H42103   3.676   4.570   1.739  1.0772  1.2700  1.1238
  312MOL0     H42104   3.183   3.311   1.025 -0.9183 -0.3833 -1.1608
  312MOL0     H42105   3.369   3.452   1.129 -0.6531  1.1167  0.5349
  312MOL0     H42106   3.857   3.649   0.956  0.6363  1.1021 -0.3475
  312MOL0     H42107   4.033   3.737   1.059 -1.2472 -2.1930 -1.5026
  312MOL0     H42108   4.186   3.888   1.162  1.8105 -1.1406  0.1972
  312MOL0     H42109   4.156   3.758   1.257  1.2681  0.8268 -1.0255
  312MOL0     H42110   4.239   4.013   1.375 -0.6668 -0.3581 -2.7225
  312MOL0     H42111   4.341   3.875   1.357 -0.1783  1.8727  0.9706
  312MOL0     H42112   4.080   3.902   1.536 -0.3449  1.9436 -0.2090
  312MOL0     H42113   4.237   3.938   1.588  0.2152 -2.4542  2.1207
  312MOL0     H42114   4.315   3.701   1.535  0.5676  0.8627 -1.5428
  312MOL0     H42115   4.219   3.726   1.670  0.5354 -1.8750 -0.6149
  312MOL0     H42116   3.953   3.497   1.425  1.6649  0.0063 -0.8002
  312MOL0     H42117   3.780   3.918   1.352  2.1540 -2.0620  2.8648
  312MOL0     H42118   3.481   3.906   1.239 -0.4044 -0.5622  0.8713
  312MOL0     H42119   3.464   3.729   1.263 -2.5646  0.4694  2.1040
  312MOL0     H42120   3.536   3.838   1.388 -1.2386 -1.2461  0.5040
  313MOL0     O42121   2.020   8.854   0.894 -0.1491  0.1070 -0.6898
  313MOL0     C42122   1.952   8.934   0.834  0.1581  0.7252 -0.4739
  313MOL0     O42123   1.904   9.054   0.876  0.2723 -0.1342  0.7873
  313MOL0     C42124   1.964   9.093   0.992 -0.4300 -0.0373  0.0042
  313MOL0     C42125   1.916   9.032   1.113 -0.6321  0.3685 -0.3305
  313MOL0     C42126   1.971   9.050   1.240  0.2042 -0.1225  0.1361
  313MOL0     C42127   2.077   9.142   1.249  0.7970  0.6493 -0.0847
  313MOL0     O42128   2.107   9.171   1.383 -0.1647 -0.3044  0.6838
  313MOL0     C42129   2.221   9.249   1.398  0.0630  0.1272  1.2002
  313MOL0     C42130   2.345   9.162   1.380  0.0692 -0.6984  0.2187
  313MOL0     C42131   2.372   9.046   1.479 -0.1254 -0.1295 -0.3640
  313MOL0     C42132   2.520   9.013   1.499  0.0238  0.7633  0.1002
  313MOL0     C42133   2.565   8.942   1.372  0.5400  0.0899  0.2241
  313MOL0     C42134   2.718   8.922   1.383 -0.6344 -0.1452  0.6768
  313MOL0     C42135   2.781   8.894   1.241 -0.5389  1.3379  1.1552
  313MOL0     C42136   2.708   8.785   1.157 -0.5210 -0.3021 -0.3479
  313MOL0     N42137   2.770   8.766   1.027  0.1643  0.2773 -0.0396
  313MOL0     C42138   2.858   8.673   1.003  0.1339  0.8705 -0.1477
  313MOL0     C42139   2.907   8.701   0.883  0.5564  0.1866  0.8348
  313MOL0     C42140   3.002   8.614   0.807 -0.1267 -0.2004  0.4834
  313MOL0     C42141   3.135   8.693   0.779  0.8404 -0.5434 -0.2223
  313MOL0     C42142   3.221   8.606   0.689 -0.3007 -0.7964 -0.2119
  313MOL0     C42143   3.324   8.532   0.767  0.5725 -0.6026 -0.2483
  313MOL0     O42144   3.379   8.431   0.681 -0.2686 -0.4451  0.1034
  313MOL0     C42145   3.520   8.416   0.677  1.4794 -1.0480  0.2343
  313MOL0     C42146   3.569   8.301   0.733 -0.2856 -0.8955 -0.5568
  313MOL0     C42147   3.711   8.280   0.747  0.0648 -0.3260 -0.0676
  313MOL0     C42148   3.797   8.379   0.684  0.2694 -0.9128  0.5190
  313MOL0     C42149   3.937   8.372   0.696 -1.6346 -0.1914 -0.6241
  313MOL0     O42150   4.005   8.471   0.637 -0.0537 -0.4264 -0.3722
  313MOL0     C42151   4.142   8.469   0.630  0.7644  0.0697 -1.2163
  313MOL0     C42152   4.195   8.590   0.580 -0.3646 -0.6553 -0.8000
  313MOL0     C42153   4.333   8.620   0.575 -0.3120 -0.6329  0.2934
  313MOL0     C42154   4.418   8.521   0.616  0.5335 -0.4799 -0.2480
  313MOL0     O42155   4.552   8.532   0.595  0.0951  0.8418  0.1152
  313MOL0     C42156   4.624   8.555   0.721 -0.3722  0.1198 -0.7478
  313MOL0     C42157   4.737   8.442   0.735  0.3945  0.8404 -0.3939
  313MOL0     C42158   4.858   8.493   0.652 -0.2047 -0.3856 -0.3559
  313MOL0     C42159   4.992   8.423   0.678  0.0112 -1.1778 -0.7692
  313MOL0     C42160   5.113   8.505   0.617  0.3855  0.5767 -0.1832
  313MOL0     C42161   5.255   8.473   0.685  0.7745  0.9172 -0.0076
  313MOL0     C42162   5.293   8.333   0.636  0.1511  0.7619 -0.3008
  313MOL0     C42163   5.409   8.259   0.696 -0.1153  0.7695 -0.2175
  313MOL0    Cl42164   5.543   8.378   0.670 -0.3594  0.5695  0.3513
  313MOL0     C42165   4.369   8.395   0.647 -0.0070  0.4551  0.4400
  313MOL0     C42166   4.234   8.369   0.659  0.7674  0.2686  0.6582
  313MOL0     O42167   3.983   8.301   0.785 -0.3606 -0.1934  0.0741
  313MOL0     C42168   3.729   8.484   0.612  0.0230 -0.2586 -0.2255
  313MOL0     C42169   3.598   8.514   0.613 -0.4393  0.0798 -0.9249
  313MOL0     N42170   2.857   8.822   0.834 -0.1302 -0.6594 -0.4818
  313MOL0     N42171   2.759   8.846   0.916 -0.0757  0.9093  0.6673
  313MOL0     C42172   2.125   9.208   1.133  0.7498 -0.0406  1.0483
  313MOL0     C42173   2.075   9.174   0.999  0.2414 -1.0720  0.4817
  313MOL0     C42174   1.938   8.899   0.694  0.3320  0.0123  0.5019
  313MOL0     C42175   1.926   8.760   0.659  0.6209 -0.4098 -1.4097
  313MOL0     C42176   1.901   8.714   0.536  0.5075  0.3586  0.2737
  313MOL0     C42177   1.884   8.804   0.435  0.5626  0.8252 -0.5409
  313MOL0     O42178   1.857   8.768   0.303 -0.2620  0.0316 -0.7789
  313MOL0     C42179   1.747   8.670   0.298 -0.3978 -0.6204  1.0219
  313MOL0     C42180   1.667   8.698   0.168  0.1980  0.2419  0.5858
  313MOL0     C42181   1.734   8.652   0.038 -0.1089 -0.3260 -0.3132
  313MOL0     C42182   1.734   8.767  -0.076  0.0988  0.9496  0.3560
  313MOL0     C42183   1.859   8.746  -0.154  0.7132  0.5651  0.0206
  313MOL0     C42184   1.956   8.728  -0.220  1.7958 -0.0281 -0.0370
  313MOL0     C42185   1.878   8.944   0.465  0.2106 -0.1229  0.7311
  313MOL0     C42186   1.889   8.994   0.595 -0.0541  0.0703 -1.0965
  313MOL0     C42187   1.847   9.141   0.617 -0.0146 -0.0941  0.1994
  313MOL0     H42188   1.837   8.959   1.106  1.0092 -1.3240 -2.5755
  313MOL0     H42189   1.928   8.999   1.326  1.3241  0.3463  1.0085
  313MOL0     H42190   2.221   9.336   1.331  1.4160 -0.8424 -0.1383
  313MOL0     H42191   2.222   9.276   1.504  0.2291  0.2304  1.1722
  313MOL0     H42192   2.416   9.243   1.396 -1.8046  0.4634  3.5717
  313MOL0     H42193   2.361   9.127   1.277 -1.2272 -0.4179 -0.1026
  313MOL0     H42194   2.307   8.965   1.446 -2.5957  0.6875  2.0557
  313MOL0     H42195   2.327   9.076   1.574  0.8080 -1.7853  0.6535
  313MOL0     H42196   2.578   9.106   1.497  2.3976 -0.5370  2.0223
  313MOL0     H42197   2.544   8.943   1.580  2.8450 -0.2462 -1.4390
  313MOL0     H42198   2.506   8.850   1.365  0.5719  0.1908 -2.5286
  313MOL0     H42199   2.538   8.993   1.279  0.6716  2.5510  1.4472
  313MOL0     H42200   2.748   9.022   1.416  0.5115 -0.2813  0.1091
  313MOL0     H42201   2.754   8.845   1.452  3.2671 -0.3566 -1.2896
  313MOL0     H42202   2.883   8.853   1.246 -0.9286  0.1303 -0.2089
  313MOL0     H42203   2.778   8.982   1.176  0.3498  2.0936  2.0913
  313MOL0     H42204   2.706   8.689   1.210 -2.2342 -0.1810 -0.1436
  313MOL0     H42205   2.611   8.832   1.142  0.1676  1.9414  1.5883
  313MOL0     H42206   2.880   8.589   1.068 -3.5375  0.6837  1.1143
  313MOL0     H42207   3.019   8.529   0.874  3.1210  1.4775  2.0372
  313MOL0     H42208   2.949   8.580   0.718 -0.9959  0.2670  0.8129
  313MOL0     H42209   3.110   8.791   0.738  0.0339 -0.4951  0.3644
  313MOL0     H42210   3.195   8.726   0.865  0.3743  1.6371 -0.6727
  313MOL0     H42211   3.266   8.667   0.610  1.7210 -0.4849  1.0900
  313MOL0     H42212   3.161   8.534   0.633 -0.5616  0.6806 -1.9230
  313MOL0     H42213   3.275   8.483   0.852  1.4724  2.4463  2.1974
  313MOL0     H42214   3.405   8.596   0.804  0.6948 -0.9084  0.0217
  313MOL0     H42215   3.501   8.229   0.777  1.8192 -2.2766  0.6258
  313MOL0     H42216   3.763   8.197   0.794 -1.3465 -1.2904 -0.1568
  313MOL0     H42217   4.130   8.673   0.552 -0.5623 -0.7725 -0.6912
  313MOL0     H42218   4.374   8.715   0.542 -1.2766 -0.0386  0.7583
  313MOL0     H42219   4.656   8.660   0.717 -0.7843  0.2917  0.2076
  313MOL0     H42220   4.567   8.549   0.815  4.0570  0.0644  2.2073
  313MOL0     H42221   4.762   8.430   0.841 -1.7083 -0.1179  0.0486
  313MOL0     H42222   4.692   8.350   0.698 -0.4072  0.0549  2.3143
  313MOL0     H42223   4.827   8.484   0.548 -1.6314  1.0685 -0.0888
  313MOL0     H42224   4.863   8.600   0.674  0.9183 -0.8448  1.9697
  313MOL0     H42225   4.991   8.317   0.652  1.8138 -1.7589  1.2150
  313MOL0     H42226   5.011   8.424   0.786  1.5435  1.5554 -0.9692
  313MOL0     H42227   5.101   8.613   0.620  3.5291  1.1191 -2.1838
  313MOL0     H42228   5.119   8.472   0.513  0.2214 -4.1298  1.0665
  313MOL0     H42229   5.328   8.548   0.655  0.6792  1.9918  2.2162
  313MOL0     H42230   5.245   8.478   0.794  0.3465  3.3392 -0.1156
  313MOL0     H42231   5.310   8.328   0.529 -1.5747  0.8429 -0.6053
  313MOL0     H42232   5.211   8.260   0.647  0.4337  0.4388 -0.3128
  313MOL0     H42233   5.406   8.233   0.802  0.8533  4.0298  0.7339
  313MOL0     H42234   5.428   8.167   0.641  1.1033  1.0195 -0.2455
  313MOL0     H42235   4.453   8.329   0.667 -0.4902 -0.2585  0.1697
  313MOL0     H42236   4.188   8.275   0.683 -3.0713  1.9240  0.4416
  313MOL0     H42237   3.790   8.562   0.566  0.1887  0.5394  1.2683
  313MOL0     H42238   3.565   8.613   0.583  2.4857  2.1583  1.9237
  313MOL0     H42239   2.199   9.286   1.130 -3.2822  4.2253 -0.8452
  313MOL0     H42240   2.110   9.218   0.907  1.0603 -0.3794  1.1085
  313MOL0     H42241   1.941   8.682   0.733 -4.6790 -1.3470 -0.9377
  313MOL0     H42242   1.923   8.610   0.517  3.9339  1.3614 -2.1689
  313MOL0     H42243   1.682   8.690   0.384  1.2915  1.0129  2.0066
  313MOL0     H42244   1.775   8.565   0.308  3.8587  0.3216  0.6566
  313MOL0     H42245   1.635   8.803   0.162  1.7110  0.7224  0.6058
  313MOL0     H42246   1.574   8.641   0.170  1.0352 -1.6740 -3.6670
  313MOL0     H42247   1.685   8.564  -0.003 -2.7139  1.4719 -1.3473
  313MOL0     H42248   1.840   8.631   0.057 -0.4124 -1.3127  0.3347
  313MOL0     H42249   1.645   8.763  -0.140  1.1761  4.1796 -1.5926
  313MOL0     H42250   1.743   8.867  -0.033 -0.6935  2.4763 -2.7330
  313MOL0     H42251   2.043   8.735  -0.281  0.6218  1.3905 -1.6409
  313MOL0     H42252   1.852   9.014   0.386  3.4314 -1.5646 -1.8449
  313MOL0     H42253   1.921   9.201   0.671 -1.0350  0.8559  0.5875
  313MOL0     H42254   1.820   9.191   0.523  1.1109 -0.8092 -0.5272
  313MOL0     H42255   1.763   9.147   0.687  0.7766  1.2565  1.0659
  314MOL0     O42256   0.190   1.623   8.718 -0.1784 -0.6598 -1.0183
  314MOL0     C42257   0.146   1.594   8.831 -0.0317 -1.1562 -0.4022
  314MOL0     O42258   0.233   1.548   8.927  0.4270  0.9705 -0.2726
  314MOL0     C42259   0.367   1.568   8.900 -0.4368  0.2623  0.4143
  314MOL0     C42260   0.449   1.468   8.842 -0.0524 -0.8678 -0.5746
  314MOL0     C42261   0.585   1.482   8.815 -0.2160 -0.4781 -0.1401
  314MOL0     C42262   0.650   1.603   8.860 -0.4433  1.1855 -0.9435
  314MOL0     O42263   0.782   1.634   8.843 -0.4117  0.0454 -0.4043
  314MOL0     C42264   0.873   1.523   8.850 -0.1340 -0.3671  0.0437
  314MOL0     C42265   1.014   1.576   8.895 -0.6419  0.6834  0.1155
  314MOL0     C42266   0.994   1.619   9.040  0.7343 -0.0002 -0.3587
  314MOL0     C42267   1.110   1.693   9.110 -1.0558 -0.6071  0.8519
  314MOL0     C42268   1.147   1.635   9.244  0.8664  0.4318 -0.3652
  314MOL0     C42269   1.211   1.495   9.228  0.1238 -0.1709  0.8788
  314MOL0     C42270   1.189   1.404   9.346 -0.5468  0.3408 -0.4928
  314MOL0     C42271   1.225   1.476   9.487 -0.3162  0.5143  1.1597
  314MOL0     N42272   1.366   1.491   9.510  0.3173  0.3402 -0.1441
  314MOL0     C42273   1.454   1.393   9.516 -0.2564  0.8721  0.2457
  314MOL0     C42274   1.575   1.456   9.539 -0.5227  1.6168  0.3689
  314MOL0     C42275   1.718   1.404   9.541 -0.1038 -0.7062  0.2059
  314MOL0     C42276   1.782   1.400   9.402 -0.2782  0.0134  0.0095
  314MOL0     C42277   1.843   1.264   9.372 -0.0323 -0.6429  0.2029
  314MOL0     C42278   1.988   1.273   9.426 -0.8335  0.3702 -0.4072
  314MOL0     O42279   2.077   1.186   9.354 -0.1571  0.1570 -0.0516
  314MOL0     C42280   2.207   1.197   9.383  0.4074 -0.1318  0.2211
  314MOL0     C42281   2.290   1.144   9.284 -0.8516 -0.2135  0.2471
  314MOL0     C42282   2.432   1.172   9.304  0.5189  0.2290 -0.1988
  314MOL0     C42283   2.488   1.234   9.414 -0.1794 -1.1615  0.2016
  314MOL0     C42284   2.628   1.275   9.418  0.4037 -0.4081 -0.1956
  314MOL0     O42285   2.681   1.308   9.539 -0.5823  0.1293  0.2850
  314MOL0     C42286   2.815   1.345   9.542 -0.2390 -0.6402  0.0201
  314MOL0     C42287   2.860   1.477   9.531  0.1181 -1.1107  0.5655
  314MOL0     C42288   2.989   1.513   9.533 -0.4575 -0.2926 -0.0049
  314MOL0     C42289   3.083   1.414   9.564 -0.0989 -0.2116  0.6259
  314MOL0     O42290   3.217   1.439   9.578 -0.6299  0.2350 -0.0038
  314MOL0     C42291   3.255   1.568   9.641 -0.3537  0.0953  0.1931
  314MOL0     C42292   3.375   1.545   9.731  0.0672  0.6077 -0.6168
  314MOL0     C42293   3.487   1.460   9.666 -0.2370 -0.3782 -0.0731
  314MOL0     C42294   3.583   1.420   9.776 -0.1942  0.5824 -0.1339
  314MOL0     C42295   3.708   1.336   9.735  0.5718 -0.5954  0.1201
  314MOL0     C42296   3.800   1.325   9.855 -0.0817  1.0008  0.1805
  314MOL0     C42297   3.925   1.243   9.817 -0.4755 -0.2344 -0.4117
  314MOL0     C42298   4.040   1.316   9.749 -0.5559 -0.3747  0.0364
  314MOL0    Cl42299   4.117   1.433   9.870 -0.2956  0.0310 -0.2069
  314MOL0     C42300   3.050   1.280   9.580 -0.7698 -1.4396 -0.3333
  314MOL0     C42301   2.911   1.245   9.570 -0.1798  0.1193 -0.9035
  314MOL0     O42302   2.691   1.249   9.310  0.5275  0.1326 -0.0694
  314MOL0     C42303   2.398   1.272   9.520  0.4877 -0.1518  0.4820
  314MOL0     C42304   2.262   1.245   9.503  0.5470 -0.1118 -0.1560
  314MOL0     N42305   1.547   1.592   9.539  0.2855  0.1522 -0.4713
  314MOL0     N42306   1.422   1.613   9.517 -0.6997  0.4323 -0.7475
  314MOL0     C42307   0.571   1.701   8.927 -0.5421 -0.2094 -0.2125
  314MOL0     C42308   0.433   1.684   8.942  0.8262  0.4445  0.0399
  314MOL0     C42309  -0.005   1.606   8.866  0.1608 -0.4855 -0.8908
  314MOL0     C42310  -0.090   1.633   8.757  0.6252 -0.4756 -0.5544
  314MOL0     C42311  -0.226   1.662   8.779  0.1504 -0.8503 -0.2120
  314MOL0     C42312  -0.292   1.649   8.903 -0.8835 -0.0254 -0.5768
  314MOL0     O42313  -0.421   1.675   8.933  0.4898 -0.5447 -0.3235
  314MOL0     C42314  -0.507   1.570   8.978 -0.3907 -0.6308 -0.6684
  314MOL0     C42315  -0.529   1.460   8.880 -0.4694  0.2114  0.8083
  314MOL0     C42316  -0.581   1.529   8.745  1.0482  0.4143  0.3342
  314MOL0     C42317  -0.670   1.436   8.668 -0.4259  0.3516  0.7455
  314MOL0     C42318  -0.803   1.417   8.736  0.4551 -0.1285  0.2754
  314MOL0     C42319  -0.908   1.404   8.800  0.4562 -0.6522 -0.7252
  314MOL0     C42320  -0.204   1.608   9.012 -0.0364  0.2436 -0.7224
  314MOL0     C42321  -0.064   1.597   8.997 -0.2674  0.4689 -0.0421
  314MOL0     C42322   0.012   1.583   9.124  0.0501  0.9122  0.3435
  314MOL0     H42323   0.396   1.384   8.798 -1.6346  0.0725 -0.5267
  314MOL0     H42324   0.635   1.408   8.752 -1.2243  0.6011 -2.3482
  314MOL0     H42325   0.837   1.439   8.909  0.8099  0.7198  2.2624
  314MOL0     H42326   0.879   1.486   8.747 -1.0854  1.0193 -0.5274
  314MOL0     H42327   1.041   1.653   8.821  3.4009 -1.4105 -0.9003
  314MOL0     H42328   1.092   1.499   8.892  0.1646  1.1041  4.3551
  314MOL0     H42329   0.974   1.530   9.100  0.1331  1.0175  1.0182
  314MOL0     H42330   0.909   1.689   9.048  0.5391 -0.3037  0.3176
  314MOL0     H42331   1.187   1.698   9.034 -1.1205 -0.3027  0.8048
  314MOL0     H42332   1.081   1.798   9.116  2.4805  0.5360  0.1677
  314MOL0     H42333   1.209   1.697   9.310  0.3835 -2.4432  3.1561
  314MOL0     H42334   1.058   1.635   9.307  2.2670  2.0616  1.7640
  314MOL0     H42335   1.178   1.446   9.136  0.9829 -1.0952  1.0469
  314MOL0     H42336   1.318   1.499   9.206 -0.2112 -1.8593 -1.4273
  314MOL0     H42337   1.242   1.309   9.333  0.9249  1.3446 -2.3441
  314MOL0     H42338   1.086   1.369   9.341  0.0393 -1.8499  1.1420
  314MOL0     H42339   1.172   1.570   9.504  0.3282  0.8230  1.5074
  314MOL0     H42340   1.185   1.418   9.570 -1.5131 -0.3793 -0.0038
  314MOL0     H42341   1.430   1.289   9.496  1.6525  0.7245 -1.7136
  314MOL0     H42342   1.776   1.459   9.615  1.1323  0.2535 -1.4113
  314MOL0     H42343   1.702   1.303   9.582 -3.0516 -0.4523 -0.0956
  314MOL0     H42344   1.703   1.412   9.328 -0.8025 -0.6844  0.4409
  314MOL0     H42345   1.846   1.487   9.385  0.5180 -0.5285  0.1303
  314MOL0     H42346   1.854   1.250   9.264  0.0859  1.9853 -0.1899
  314MOL0     H42347   1.787   1.181   9.417 -1.3520  0.4485  0.6532
  314MOL0     H42348   1.985   1.254   9.534  1.7854  0.9007 -0.1848
  314MOL0     H42349   2.029   1.375   9.418  0.5512 -0.1568 -0.2940
  314MOL0     H42350   2.259   1.086   9.198  3.7584 -2.1587 -0.4179
  314MOL0     H42351   2.488   1.140   9.216 -1.0127  1.2073 -1.6009
  314MOL0     H42352   2.800   1.566   9.513  2.5061  0.4206 -0.3040
  314MOL0     H42353   3.008   1.620   9.531 -1.1101 -0.1517  0.9835
  314MOL0     H42354   3.283   1.647   9.570  0.9366 -0.3457  0.1693
  314MOL0     H42355   3.167   1.596   9.699  0.2122 -1.6044  1.9684
  314MOL0     H42356   3.410   1.639   9.774  0.5631  0.0013  0.3368
  314MOL0     H42357   3.326   1.482   9.807 -2.2836  2.1336 -0.7530
  314MOL0     H42358   3.450   1.380   9.602 -0.8576 -0.5689  0.5190
  314MOL0     H42359   3.543   1.531   9.603  1.8126 -0.5161  1.4809
  314MOL0     H42360   3.531   1.354   9.847 -2.3581 -1.6525 -3.4808
  314MOL0     H42361   3.616   1.514   9.819  0.8529  0.3174 -0.3369
  314MOL0     H42362   3.746   1.397   9.652 -1.4552  1.7532  0.7836
  314MOL0     H42363   3.664   1.241   9.704 -2.0947 -0.5687  3.2039
  314MOL0     H42364   3.832   1.418   9.902  0.6302  0.8492  0.0210
  314MOL0     H42365   3.738   1.269   9.926 -0.2303  0.5038 -0.3366
  314MOL0     H42366   3.902   1.161   9.748  1.2737  0.9250 -2.5142
  314MOL0     H42367   3.969   1.199   9.907  1.0338  2.9586  0.5451
  314MOL0     H42368   4.111   1.252   9.697  0.2721  1.1671 -0.7845
  314MOL0     H42369   4.005   1.382   9.669 -1.8562 -1.0271  0.0342
  314MOL0     H42370   3.112   1.192   9.588 -1.9347 -2.3645 -1.1962
  314MOL0     H42371   2.873   1.148   9.602 -0.2118 -0.4256 -2.4700
  314MOL0     H42372   2.440   1.309   9.613 -0.3252 -0.2972  0.9176
  314MOL0     H42373   2.199   1.284   9.582 -0.0333 -0.1456 -0.5990
  314MOL0     H42374   0.616   1.793   8.963 -0.3182 -0.5420  0.3696
  314MOL0     H42375   0.368   1.754   8.994  0.2400  0.4217 -0.6463
  314MOL0     H42376  -0.048   1.650   8.658 -1.4277  0.9722 -1.2731
  314MOL0     H42377  -0.297   1.700   8.707 -1.4633 -1.9265  0.7584
  314MOL0     H42378  -0.593   1.625   9.015 -1.5329 -1.2939 -2.2301
  314MOL0     H42379  -0.457   1.529   9.067  1.9464 -2.5377 -2.6862
  314MOL0     H42380  -0.603   1.387   8.916 -1.3322 -0.0204 -1.3201
  314MOL0     H42381  -0.438   1.401   8.865 -0.2734 -0.0511  2.7537
  314MOL0     H42382  -0.501   1.537   8.671  1.5935 -2.0739  0.5799
  314MOL0     H42383  -0.629   1.627   8.757 -0.8581 -0.4974  0.6182
  314MOL0     H42384  -0.684   1.485   8.571  0.4681 -2.2179 -0.7742
  314MOL0     H42385  -0.614   1.343   8.654  0.8264  1.2789 -0.7237
  314MOL0     H42386  -1.004   1.390   8.846  1.8759 -0.7791  2.4428
  314MOL0     H42387  -0.235   1.601   9.116  1.0806  1.8483 -0.2468
  314MOL0     H42388   0.082   1.501   9.140  1.2959  1.8825  0.0160
  314MOL0     H42389   0.073   1.673   9.119  0.5046  0.5904 -0.0862
  314MOL0     H42390  -0.056   1.569   9.208 -1.1112 -0.6533 -0.7753
  315MOL0     O42391   7.764   4.505   5.292  0.0393  0.0912 -0.7505
  315MOL0     C42392   7.648   4.469   5.313 -0.7499 -0.8303 -0.8045
  315MOL0     O42393   7.561   4.548   5.373  0.6687  0.0795  0.5724
  315MOL0     C42394   7.575   4.684   5.382  0.3759  0.1851  0.0338
  315MOL0     C42395   7.527   4.741   5.498  0.1636  0.3453 -0.2341
  315MOL0     C42396   7.543   4.876   5.518  0.1460 -1.0070 -0.2882
  315MOL0     C42397   7.609   4.962   5.431 -0.6575 -0.5562 -0.7277
  315MOL0     O42398   7.599   5.095   5.475 -0.4473  0.3774 -0.1409
  315MOL0     C42399   7.608   5.199   5.380 -0.5633 -0.3696  0.6307
  315MOL0     C42400   7.588   5.337   5.453 -0.0053  0.0626  0.1875
  315MOL0     C42401   7.720   5.412   5.481 -0.2130  0.3733 -0.0276
  315MOL0     C42402   7.731   5.451   5.621 -0.0549  0.9090 -0.1754
  315MOL0     C42403   7.844   5.548   5.645  0.1367 -1.3196 -0.4073
  315MOL0     C42404   7.989   5.502   5.614  0.5250 -0.0429 -0.4126
  315MOL0     C42405   8.076   5.602   5.687  0.0667  0.4751  0.6235
  315MOL0     C42406   8.218   5.549   5.696 -0.4965  0.2522  0.3648
  315MOL0     N42407   8.262   5.526   5.552  0.3157 -0.6346 -1.5020
  315MOL0     C42408   8.270   5.396   5.511 -1.2712 -0.6431  0.1691
  315MOL0     C42409   8.253   5.414   5.377  0.4935 -0.6804 -0.0718
  315MOL0     C42410   8.236   5.305   5.277 -0.6004  0.2836  1.0737
  315MOL0     C42411   8.134   5.209   5.338  0.5279 -0.4774  0.3347
  315MOL0     C42412   8.102   5.105   5.242  0.7700 -0.9024  0.3320
  315MOL0     C42413   8.034   4.990   5.308  0.5884 -0.2748 -0.2179
  315MOL0     O42414   8.000   4.879   5.219  0.4086 -0.3545 -0.1813
  315MOL0     C42415   8.086   4.803   5.147  0.1475  0.4781  0.0825
  315MOL0     C42416   8.224   4.805   5.162 -0.4774  1.3940  0.2961
  315MOL0     C42417   8.314   4.720   5.081 -0.3698  0.5116 -0.2609
  315MOL0     C42418   8.257   4.635   4.990  0.6668 -1.0285  0.0740
  315MOL0     C42419   8.347   4.532   4.929  0.6306  0.0058 -0.0108
  315MOL0     O42420   8.315   4.501   4.806 -0.0994 -0.4419  0.5457
  315MOL0     C42421   8.364   4.384   4.745  1.3455  0.0188  0.6777
  315MOL0     C42422   8.473   4.398   4.660 -0.1299  0.2450  0.9494
  315MOL0     C42423   8.520   4.287   4.581 -0.0978 -0.7442 -0.2182
  315MOL0     C42424   8.457   4.157   4.602  0.7051 -0.0854  0.5401
  315MOL0     O42425   8.521   4.038   4.567 -0.8372 -0.2620 -0.4443
  315MOL0     C42426   8.454   3.957   4.467 -0.7463 -0.2017  0.4405
  315MOL0     C42427   8.493   3.813   4.496 -0.7190  0.2151  0.6280
  315MOL0     C42428   8.452   3.758   4.630  0.1765 -0.0513  1.3727
  315MOL0     C42429   8.542   3.633   4.659 -0.1046 -0.3856 -0.9536
  315MOL0     C42430   8.491   3.558   4.783 -0.6436 -0.0865  0.8237
  315MOL0     C42431   8.489   3.636   4.906  0.7618  1.0159 -0.2528
  315MOL0     C42432   8.587   3.581   5.018 -0.6698  0.2077 -0.7376
  315MOL0     C42433   8.593   3.688   5.131  0.4817  0.4445  0.6677
  315MOL0    Cl42434   8.750   3.661   5.215  0.0558 -0.0142  0.1272
  315MOL0     C42435   8.343   4.142   4.688  0.2205 -0.8348 -0.1340
  315MOL0     C42436   8.300   4.258   4.764 -0.1842  0.4751  0.7817
  315MOL0     O42437   8.433   4.477   4.996  0.0387  0.2815  0.4545
  315MOL0     C42438   8.112   4.635   4.985  0.9079 -0.4192 -0.0333
  315MOL0     C42439   8.033   4.718   5.061 -0.3717  0.6800  0.7981
  315MOL0     N42440   8.238   5.548   5.340  0.3331  0.2893 -0.3455
  315MOL0     N42441   8.245   5.616   5.452 -0.6967 -0.5044 -0.1254
  315MOL0     C42442   7.667   4.905   5.324  0.2752  0.0766  0.4411
  315MOL0     C42443   7.656   4.770   5.295  0.1949  0.1873  0.4017
  315MOL0     C42444   7.602   4.330   5.269 -0.3446 -0.1168  0.6276
  315MOL0     C42445   7.465   4.317   5.244 -0.4879  0.1621 -0.0699
  315MOL0     C42446   7.411   4.194   5.198 -0.0534 -0.5309  0.7552
  315MOL0     C42447   7.498   4.085   5.168  0.0525 -0.5028  0.6437
  315MOL0     O42448   7.472   3.962   5.115  0.3318 -0.3860 -0.3551
  315MOL0     C42449   7.334   3.919   5.110 -1.1990  0.2688  1.1485
  315MOL0     C42450   7.326   3.767   5.134 -0.1576 -0.0987  0.0198
  315MOL0     C42451   7.414   3.702   5.241 -0.1440 -0.7506  0.4110
  315MOL0     C42452   7.382   3.555   5.276  0.9489  0.7879  0.4058
  315MOL0     C42453   7.228   3.531   5.312 -0.2283  0.9072  0.2184
  315MOL0     C42454   7.108   3.512   5.319 -0.3248  0.2876 -0.5375
  315MOL0     C42455   7.632   4.108   5.186  0.2655  0.6712  0.4690
  315MOL0     C42456   7.690   4.224   5.235 -0.0204 -1.0760  0.3033
  315MOL0     C42457   7.835   4.220   5.268  0.2589  0.6906 -0.3165
  315MOL0     H42458   7.474   4.683   5.573  0.9785 -0.0926  0.0208
  315MOL0     H42459   7.504   4.917   5.611 -2.0371  0.8100 -1.8760
  315MOL0     H42460   7.706   5.192   5.331 -0.5516 -0.7029  0.7018
  315MOL0     H42461   7.529   5.180   5.307  0.6385  0.3083 -0.9236
  315MOL0     H42462   7.537   5.318   5.549 -1.4373 -1.1437 -0.7594
  315MOL0     H42463   7.522   5.403   5.397  1.9598  1.1952 -0.9030
  315MOL0     H42464   7.725   5.500   5.416  0.0259  1.0770  0.9226
  315MOL0     H42465   7.810   5.353   5.463  2.2479  2.8619  2.9230
  315MOL0     H42466   7.646   5.508   5.660  0.0281 -1.0855  3.3059
  315MOL0     H42467   7.740   5.355   5.673 -0.8288  1.3846  0.8764
  315MOL0     H42468   7.835   5.640   5.587  2.8124  0.0357  1.1419
  315MOL0     H42469   7.833   5.580   5.749 -0.8274 -0.7549 -0.6757
  315MOL0     H42470   8.016   5.402   5.649  1.6617 -0.2110 -1.6936
  315MOL0     H42471   8.006   5.511   5.506 -0.5714 -2.0935 -0.8021
  315MOL0     H42472   8.038   5.628   5.786 -1.2708  0.2253  0.1940
  315MOL0     H42473   8.071   5.693   5.628  2.6060  1.4770  1.8105
  315MOL0     H42474   8.294   5.614   5.740  0.1966  0.2516 -0.7997
  315MOL0     H42475   8.223   5.458   5.755 -1.4275 -2.0602 -2.8604
  315MOL0     H42476   8.287   5.302   5.562  3.6454  0.9354  2.0241
  315MOL0     H42477   8.214   5.337   5.175  2.1658 -5.8694 -1.9610
  315MOL0     H42478   8.336   5.268   5.254 -0.9726  1.5008 -3.7084
  315MOL0     H42479   8.158   5.162   5.433 -0.1653  0.0537  0.7794
  315MOL0     H42480   8.043   5.265   5.361  1.6404  1.1142  1.0635
  315MOL0     H42481   8.188   5.063   5.189 -2.1629 -2.5204 -3.7139
  315MOL0     H42482   8.038   5.144   5.162  0.6523 -2.5794 -0.4453
  315MOL0     H42483   7.946   5.030   5.359  0.3887 -0.4245 -0.4402
  315MOL0     H42484   8.106   4.943   5.375  0.2570  1.0892  1.1413
  315MOL0     H42485   8.278   4.855   5.242 -1.0564  0.3736  1.3665
  315MOL0     H42486   8.420   4.716   5.102 -0.6776  3.2075  2.6385
  315MOL0     H42487   8.517   4.494   4.636  0.1563  0.6764  3.0016
  315MOL0     H42488   8.590   4.319   4.505 -0.6697  2.4309  0.4567
  315MOL0     H42489   8.345   3.956   4.482 -0.5266  0.0159  2.2232
  315MOL0     H42490   8.472   3.988   4.364 -2.8770 -0.6556 -0.1176
  315MOL0     H42491   8.461   3.745   4.417 -0.4302  1.3357 -0.4723
  315MOL0     H42492   8.600   3.818   4.476 -1.4661  0.8692 -4.3179
  315MOL0     H42493   8.449   3.837   4.706 -1.7716 -0.5533  1.8902
  315MOL0     H42494   8.348   3.723   4.627 -0.7215  2.4362  0.3779
  315MOL0     H42495   8.639   3.672   4.694 -0.5011 -1.9390  2.2046
  315MOL0     H42496   8.556   3.566   4.573  2.7321 -0.5929 -0.4361
  315MOL0     H42497   8.557   3.470   4.787 -1.0714 -0.4356  0.3829
  315MOL0     H42498   8.389   3.529   4.757  0.1393 -1.8178 -0.5618
  315MOL0     H42499   8.490   3.745   4.891  0.4789  1.1447  0.6062
  315MOL0     H42500   8.387   3.622   4.944  1.6633  0.2767  2.0395
  315MOL0     H42501   8.686   3.574   4.973 -0.9601  1.9188 -1.7578
  315MOL0     H42502   8.551   3.485   5.056  0.5965 -0.6354 -1.6046
  315MOL0     H42503   8.596   3.789   5.087 -3.9986 -0.3303 -2.1159
  315MOL0     H42504   8.513   3.695   5.205  0.3201  2.6042  0.3620
  315MOL0     H42505   8.312   4.045   4.726 -0.2601 -0.2221  1.0914
  315MOL0     H42506   8.224   4.250   4.841 -1.5348  0.3496 -0.5078
  315MOL0     H42507   8.052   4.566   4.927 -0.1650  0.6860 -0.2805
  315MOL0     H42508   7.925   4.710   5.056 -0.1750 -1.6389 -1.5969
  315MOL0     H42509   7.728   4.970   5.262 -0.6027 -0.4555 -1.0406
  315MOL0     H42510   7.717   4.737   5.211  0.2222  0.1809  0.4238
  315MOL0     H42511   7.391   4.394   5.265 -0.6793  0.0356 -0.2695
  315MOL0     H42512   7.304   4.196   5.185  0.0908 -3.2572 -2.0018
  315MOL0     H42513   7.299   3.955   5.013  1.4998  0.1003  0.0366
  315MOL0     H42514   7.273   3.955   5.194  1.7582 -0.3234  3.7299
  315MOL0     H42515   7.331   3.718   5.036 -0.6555 -2.4662  1.1017
  315MOL0     H42516   7.223   3.753   5.168 -0.1462  2.1945  1.1712
  315MOL0     H42517   7.401   3.755   5.336  0.2630 -0.4189  0.2822
  315MOL0     H42518   7.520   3.698   5.216 -0.4877  0.7914 -1.4600
  315MOL0     H42519   7.417   3.499   5.188  0.5349 -0.0260  0.7482
  315MOL0     H42520   7.440   3.512   5.358  0.6109  1.4486  0.9987
  315MOL0     H42521   7.002   3.497   5.316 -0.4274 -0.8033  3.2049
  315MOL0     H42522   7.691   4.020   5.164 -2.0845 -1.0350  0.5460
  315MOL0     H42523   7.884   4.278   5.189  3.0667 -0.2140  0.6645
  315MOL0     H42524   7.863   4.258   5.366  0.2708  0.0719 -0.0779
  315MOL0     H42525   7.870   4.119   5.248 -1.7357  0.1250 -1.2322
  316MOL0     O42526   3.593   7.018   7.441  0.7498 -0.5893  0.6440
  316MOL0     C42527   3.622   7.121   7.388  0.0675 -1.2486  0.5619
  316MOL0     O42528   3.740   7.158   7.339  0.3226  0.4218  0.1792
  316MOL0     C42529   3.850   7.078   7.357 -0.2588 -0.8411  0.5448
  316MOL0     C42530   3.883   7.045   7.487  1.0714  0.3645 -0.0312
  316MOL0     C42531   3.996   6.974   7.518  0.3525 -1.4306  0.3852
  316MOL0     C42532   4.076   6.922   7.422  0.0615  0.5908 -0.3146
  316MOL0     O42533   4.186   6.851   7.462 -0.7109  0.0885 -0.4520
  316MOL0     C42534   4.273   6.786   7.363  0.7918 -0.5960 -0.3276
  316MOL0     C42535   4.341   6.691   7.444  0.0209  0.4627 -0.3118
  316MOL0     C42536   4.439   6.612   7.358  0.4878  0.5113 -0.0505
  316MOL0     C42537   4.430   6.466   7.393 -0.5855 -0.1213 -0.8573
  316MOL0     C42538   4.512   6.381   7.291 -0.5497  0.8560 -0.1097
  316MOL0     C42539   4.559   6.259   7.366  1.1325 -0.5853  0.8701
  316MOL0     C42540   4.657   6.177   7.286  0.9001  0.8153  0.6541
  316MOL0     C42541   4.678   6.034   7.346  0.2277  0.2118 -0.3613
  316MOL0     N42542   4.789   5.956   7.284  1.0091 -0.7060 -0.9275
  316MOL0     C42543   4.906   6.022   7.254  0.2581 -0.5244  1.1633
  316MOL0     C42544   4.990   5.917   7.226 -0.2044 -0.2624  0.6630
  316MOL0     C42545   5.135   5.930   7.200  0.6457 -0.6739 -1.3401
  316MOL0     C42546   5.199   5.818   7.131  0.3335 -0.2835  0.1722
  316MOL0     C42547   5.220   5.693   7.218 -1.1449 -1.3208  0.1481
  316MOL0     C42548   5.286   5.582   7.131  0.4479 -0.5424 -0.3580
  316MOL0     O42549   5.401   5.636   7.073 -0.6609  0.0580  0.2773
  316MOL0     C42550   5.481   5.569   6.979 -0.2154 -0.1610  0.0112
  316MOL0     C42551   5.586   5.628   6.900 -0.1128  0.7003 -0.3410
  316MOL0     C42552   5.661   5.553   6.798 -1.0548 -0.7262 -0.8846
  316MOL0     C42553   5.640   5.408   6.788  1.0235 -0.2269  0.7414
  316MOL0     C42554   5.736   5.324   6.724 -0.4958 -0.2771  0.6787
  316MOL0     O42555   5.704   5.195   6.694  0.0396  0.1216 -0.4674
  316MOL0     C42556   5.793   5.107   6.641 -0.9118  1.0499  0.8335
  316MOL0     C42557   5.826   4.984   6.704  0.0124  0.4290  0.7161
  316MOL0     C42558   5.914   4.891   6.646  1.1085 -0.7669 -0.0650
  316MOL0     C42559   5.967   4.915   6.514 -0.0758  0.1333 -0.6493
  316MOL0     O42560   6.049   4.822   6.471  0.1704  1.0807  0.4039
  316MOL0     C42561   6.114   4.827   6.340 -0.5730  0.0549 -0.0732
  316MOL0     C42562   6.236   4.719   6.329 -0.6062 -0.0402 -0.4059
  316MOL0     C42563   6.302   4.703   6.192 -0.2685 -0.1042  0.3588
  316MOL0     C42564   6.426   4.623   6.206  0.2430 -0.1390 -0.7379
  316MOL0     C42565   6.490   4.597   6.066 -0.0672  0.1799 -0.9842
  316MOL0     C42566   6.642   4.611   6.086 -0.0441 -0.2698 -0.6686
  316MOL0     C42567   6.702   4.503   6.174  0.0520  0.2201 -0.4141
  316MOL0     C42568   6.859   4.514   6.176 -0.1424 -0.2313  1.0907
  316MOL0    Cl42569   6.941   4.385   6.260 -0.3952 -0.0828 -0.3435
  316MOL0     C42570   5.939   5.036   6.445 -0.7618  1.4707  0.3143
  316MOL0     C42571   5.851   5.126   6.506  0.1598 -1.4123  0.0471
  316MOL0     O42572   5.851   5.380   6.709  0.3674  0.0257  0.3405
  316MOL0     C42573   5.536   5.359   6.864 -0.7233  0.6191  0.4717
  316MOL0     C42574   5.454   5.431   6.952 -0.2383 -0.3090  0.2288
  316MOL0     N42575   4.919   5.797   7.239 -0.6533  1.0554 -0.0309
  316MOL0     N42576   4.797   5.826   7.271 -0.0768 -0.0306 -0.2451
  316MOL0     C42577   4.045   6.957   7.290  0.4955 -0.3256 -0.6032
  316MOL0     C42578   3.940   7.042   7.255 -0.2411  0.0984 -0.1821
  316MOL0     C42579   3.518   7.229   7.377  0.5233  0.3574  0.3144
  316MOL0     C42580   3.562   7.359   7.371 -0.0421 -0.5425 -0.2845
  316MOL0     C42581   3.473   7.468   7.362  0.0714  0.3053 -0.6411
  316MOL0     C42582   3.332   7.451   7.360 -0.1403  0.8195 -0.2385
  316MOL0     O42583   3.255   7.566   7.356 -0.1931  0.2115  0.3364
  316MOL0     C42584   3.198   7.591   7.488  1.2291  1.0627  0.2757
  316MOL0     C42585   3.166   7.741   7.508 -0.0221 -0.0161 -0.3201
  316MOL0     C42586   3.160   7.770   7.661 -0.2186 -0.6611  1.3835
  316MOL0     C42587   3.146   7.919   7.680  0.8891  0.5177  0.7210
  316MOL0     C42588   3.006   7.968   7.702 -0.1479 -0.9785  0.8461
  316MOL0     C42589   2.893   8.009   7.712 -0.1076  0.4109  1.2712
  316MOL0     C42590   3.295   7.313   7.377  0.3963  0.0144 -0.3933
  316MOL0     C42591   3.382   7.204   7.369  1.3641 -0.3780  0.2966
  316MOL0     C42592   3.328   7.064   7.360  0.5845 -0.2706  0.0809
  316MOL0     H42593   3.816   7.078   7.566  0.6536  2.3614 -1.1743
  316MOL0     H42594   4.031   6.962   7.620 -0.1126 -0.9555  0.6028
  316MOL0     H42595   4.217   6.735   7.284  1.4881  0.8500 -1.8425
  316MOL0     H42596   4.339   6.861   7.316 -1.9436  1.3166 -1.3605
  316MOL0     H42597   4.262   6.623   7.478 -0.8314  0.7815 -1.5717
  316MOL0     H42598   4.388   6.740   7.530 -1.4348 -1.3575  1.6275
  316MOL0     H42599   4.541   6.647   7.368  0.2056  1.6604 -0.9907
  316MOL0     H42600   4.399   6.624   7.257 -1.1996  2.1300  0.7465
  316MOL0     H42601   4.477   6.459   7.492  0.7874  0.5166 -1.4252
  316MOL0     H42602   4.332   6.422   7.411  0.1274 -2.3092 -1.8982
  316MOL0     H42603   4.461   6.355   7.198  3.7812  1.3004 -2.9202
  316MOL0     H42604   4.606   6.427   7.258  0.4577  0.0683  1.5211
  316MOL0     H42605   4.588   6.282   7.469  0.3555 -1.3632  1.2771
  316MOL0     H42606   4.475   6.190   7.372  1.5056 -1.2906 -1.1645
  316MOL0     H42607   4.743   6.239   7.258 -0.3672  1.6074 -1.7382
  316MOL0     H42608   4.612   6.159   7.188 -0.5187  0.1787  1.3991
  316MOL0     H42609   4.679   6.029   7.455  0.3648  0.2408 -0.3608
  316MOL0     H42610   4.594   5.969   7.320  3.1524 -2.6703 -3.7729
  316MOL0     H42611   4.928   6.128   7.259  0.5162 -0.6402  3.5703
  316MOL0     H42612   5.146   6.026   7.148  0.6579  3.3680  5.0021
  316MOL0     H42613   5.181   5.952   7.296  0.3317 -1.0005 -1.1123
  316MOL0     H42614   5.136   5.798   7.044  0.8460  2.7907 -1.0514
  316MOL0     H42615   5.293   5.857   7.089  0.3020  1.7959  1.8713
  316MOL0     H42616   5.128   5.649   7.257 -0.8673 -0.0393  2.4105
  316MOL0     H42617   5.285   5.710   7.304 -1.2073 -0.3824  0.0227
  316MOL0     H42618   5.216   5.531   7.064  0.5945 -0.7611 -0.3474
  316MOL0     H42619   5.327   5.511   7.203 -0.6615  0.2957  1.1688
  316MOL0     H42620   5.615   5.731   6.918  0.1559  0.5055  0.4163
  316MOL0     H42621   5.730   5.611   6.737 -2.3906  1.5190 -0.3827
  316MOL0     H42622   5.769   4.977   6.796 -0.2535 -0.3015  0.4980
  316MOL0     H42623   5.934   4.807   6.711 -0.0849 -1.1877 -0.2107
  316MOL0     H42624   6.038   4.805   6.264 -0.0461  0.8328 -0.8456
  316MOL0     H42625   6.149   4.929   6.322 -1.3908  0.8358  2.3870
  316MOL0     H42626   6.313   4.747   6.400 -1.2121 -0.8639  0.5973
  316MOL0     H42627   6.192   4.622   6.355  3.8055 -1.9254  0.9081
  316MOL0     H42628   6.240   4.652   6.117  0.8008  1.7880 -1.9538
  316MOL0     H42629   6.327   4.803   6.155 -1.1971 -0.1271 -0.3818
  316MOL0     H42630   6.411   4.532   6.265  1.3126  1.4149  2.1363
  316MOL0     H42631   6.488   4.674   6.280 -0.7413 -2.7272  2.0761
  316MOL0     H42632   6.465   4.678   5.997  0.5215  0.8461 -0.4340
  316MOL0     H42633   6.468   4.502   6.015  2.3386 -1.6423  1.1180
  316MOL0     H42634   6.689   4.611   5.987  0.1917 -1.8097 -0.5882
  316MOL0     H42635   6.675   4.707   6.127  0.4787  0.5442 -2.8674
  316MOL0     H42636   6.658   4.406   6.149 -2.0494  0.4531  1.9784
  316MOL0     H42637   6.675   4.520   6.279 -2.1841 -1.4949 -0.6306
  316MOL0     H42638   6.892   4.494   6.074 -3.2072  0.6839 -0.2096
  316MOL0     H42639   6.894   4.609   6.219 -0.3740 -0.2261  1.2770
  316MOL0     H42640   5.975   5.064   6.347  0.3241 -0.4658  0.1048
  316MOL0     H42641   5.830   5.221   6.458 -0.3508 -0.1107  2.6409
  316MOL0     H42642   5.539   5.250   6.869  5.5672  0.4265  0.6009
  316MOL0     H42643   5.379   5.375   7.006  0.3308 -1.4892 -0.1692
  316MOL0     H42644   4.109   6.922   7.209 -1.3761 -1.5357 -1.6312
  316MOL0     H42645   3.928   7.053   7.147  2.4858  0.4378 -0.5363
  316MOL0     H42646   3.663   7.398   7.366 -1.2445  2.9552  0.1996
  316MOL0     H42647   3.500   7.571   7.342 -1.4835  0.2743 -3.3051
  316MOL0     H42648   3.267   7.547   7.560 -1.3401 -2.1887  1.0095
  316MOL0     H42649   3.112   7.526   7.506  1.9581  0.0993  0.4040
  316MOL0     H42650   3.081   7.773   7.446  0.3196  3.5291  0.8610
  316MOL0     H42651   3.254   7.794   7.470  0.1164  0.1821  0.2698
  316MOL0     H42652   3.254   7.749   7.712  0.5667  2.6044  1.5513
  316MOL0     H42653   3.085   7.706   7.707 -0.6818 -1.0481  0.1388
  316MOL0     H42654   3.197   7.943   7.774  1.5608 -1.3062  0.8597
  316MOL0     H42655   3.182   7.980   7.597  2.3843  1.6199  2.1264
  316MOL0     H42656   2.790   8.040   7.705  0.0335  1.1236  2.1456
  316MOL0     H42657   3.189   7.289   7.382 -0.5679  3.2932 -1.9830
  316MOL0     H42658   3.219   7.057   7.348  0.2396 -1.7882  3.1513
  316MOL0     H42659   3.384   7.013   7.282  1.0842  0.1749  0.1400
  316MOL0     H42660   3.347   7.019   7.458  0.0714 -0.0566  0.2833
  317MOL0     O42661  10.620   3.088   9.756 -0.4733  0.0843 -0.0032
  317MOL0     C42662  10.527   3.059   9.692  0.4839  0.2474  1.1361
  317MOL0     O42663  10.532   3.001   9.571 -0.0183  1.4476 -0.4751
  317MOL0     C42664  10.647   3.009   9.506  0.7719  0.1974 -0.3123
  317MOL0     C42665  10.735   2.892   9.493  0.6338 -0.2102  0.2718
  317MOL0     C42666  10.851   2.900   9.423 -0.6741 -0.5488  0.6040
  317MOL0     C42667  10.890   3.021   9.361  0.6057  0.0599  0.1261
  317MOL0     O42668  11.024   3.020   9.317  0.1447  0.1373  0.7211
  317MOL0     C42669  11.081   3.139   9.251 -0.5673  0.1000 -0.4872
  317MOL0     C42670  11.110   3.092   9.107  0.7027  0.3186  1.0644
  317MOL0     C42671  11.219   3.179   9.050  0.2774  0.9364 -0.0568
  317MOL0     C42672  11.201   3.192   8.900  0.4028  0.4233  0.0829
  317MOL0     C42673  11.342   3.227   8.835  0.3619  0.1917  0.1162
  317MOL0     C42674  11.336   3.226   8.681  0.3034 -0.4583  0.0522
  317MOL0     C42675  11.479   3.228   8.614 -0.1864 -0.2431  0.6247
  317MOL0     C42676  11.485   3.201   8.460 -0.3888  0.0148  0.0244
  317MOL0     N42677  11.631   3.229   8.413 -0.7038 -0.2138 -0.2184
  317MOL0     C42678  11.682   3.351   8.371  0.6342 -0.2363 -0.0346
  317MOL0     C42679  11.810   3.324   8.343  0.1628 -0.3736  1.0502
  317MOL0     C42680  11.910   3.436   8.289  0.6131 -0.0444  0.7161
  317MOL0     C42681  12.016   3.466   8.380 -1.1099 -0.5599 -0.5173
  317MOL0     C42682  12.107   3.572   8.310  0.8381 -0.1702  0.2418
  317MOL0     C42683  12.215   3.622   8.404 -0.3434 -0.0515  0.3058
  317MOL0     O42684  12.292   3.729   8.351 -1.1307 -0.4669  0.3839
  317MOL0     C42685  12.429   3.754   8.376  0.7674  0.6135  0.4841
  317MOL0     C42686  12.507   3.734   8.491 -1.1166 -0.4778  0.5621
  317MOL0     C42687  12.645   3.765   8.494  0.0127 -0.1174 -0.6270
  317MOL0     C42688  12.705   3.824   8.382 -0.4426 -0.0807  0.6542
  317MOL0     C42689  12.850   3.837   8.369 -0.0974 -0.3435 -0.4145
  317MOL0     O42690  12.903   3.858   8.243  0.1678  0.0760 -0.5821
  317MOL0     C42691  13.032   3.877   8.218  0.3951  0.2236 -1.2352
  317MOL0     C42692  13.099   3.978   8.280  0.4055 -0.0647  0.1742
  317MOL0     C42693  13.238   3.996   8.248  0.2635  0.1668 -0.3074
  317MOL0     C42694  13.291   3.914   8.151 -0.8153 -0.7798  0.2805
  317MOL0     O42695  13.420   3.925   8.104  0.3130 -1.0117 -0.1346
  317MOL0     C42696  13.523   3.977   8.188 -0.1598 -0.5006  0.6399
  317MOL0     C42697  13.576   3.874   8.288  0.0775  0.0769 -0.4391
  317MOL0     C42698  13.561   3.725   8.249  0.6724 -0.3794 -0.4029
  317MOL0     C42699  13.645   3.701   8.113  0.1619  0.1313 -0.5408
  317MOL0     C42700  13.628   3.543   8.079 -0.0842 -0.4084 -0.0525
  317MOL0     C42701  13.753   3.477   8.024  0.5146 -0.0318  0.0007
  317MOL0     C42702  13.735   3.331   8.023 -0.1520 -0.2336  0.3027
  317MOL0     C42703  13.833   3.262   7.926 -0.2403 -0.1881  0.5215
  317MOL0    Cl42704  13.836   3.095   7.968 -0.0265  0.4737  0.2043
  317MOL0     C42705  13.221   3.811   8.089  0.4221 -0.9285 -0.1679
  317MOL0     C42706  13.094   3.794   8.125  0.2858  0.4684 -0.2867
  317MOL0     O42707  12.917   3.805   8.468  1.4521 -0.1343 -0.5846
  317MOL0     C42708  12.619   3.850   8.262  0.3653  0.3304  0.1623
  317MOL0     C42709  12.480   3.811   8.259  0.5832  1.2938 -0.0378
  317MOL0     N42710  11.837   3.188   8.364  0.1511  0.0583 -0.5028
  317MOL0     N42711  11.727   3.135   8.401  0.2392  0.0145 -0.8984
  317MOL0     C42712  10.802   3.135   9.372  0.3411 -0.5173  0.7238
  317MOL0     C42713  10.679   3.126   9.450 -0.0714  0.1512  0.2053
  317MOL0     C42714  10.395   3.070   9.775  0.0119  0.4199 -0.6031
  317MOL0     C42715  10.401   3.064   9.915  0.1439 -0.2329  0.5773
  317MOL0     C42716  10.288   3.076   9.986 -0.0090 -0.3254 -0.8436
  317MOL0     C42717  10.169   3.085   9.932 -0.2038 -0.1639  0.6455
  317MOL0     O42718  10.060   3.095  10.023  0.0097  0.0057 -0.2338
  317MOL0     C42719   9.919   3.102   9.979 -0.0924  1.2303 -0.2468
  317MOL0     C42720   9.865   2.962   9.935  0.4211 -0.0833 -0.4611
  317MOL0     C42721   9.881   2.850  10.051 -0.3912  0.4207  0.6395
  317MOL0     C42722   9.825   2.887  10.193 -0.3174  0.2968  1.3229
  317MOL0     C42723   9.676   2.903  10.186  0.5661 -0.3138 -0.3025
  317MOL0     C42724   9.559   2.921  10.152 -0.3000 -0.6169 -0.3838
  317MOL0     C42725  10.156   3.094   9.791 -0.1097 -0.4852 -0.0522
  317MOL0     C42726  10.273   3.098   9.714  0.2607  1.2907  0.4011
  317MOL0     C42727  10.259   3.103   9.564  0.7886 -0.7880  0.1469
  317MOL0     H42728  10.699   2.802   9.543 -0.2250 -0.0160  0.0183
  317MOL0     H42729  10.915   2.813   9.416 -0.1386 -0.1002 -0.1969
  317MOL0     H42730  11.019   3.228   9.261  0.1457  0.9139 -2.7954
  317MOL0     H42731  11.169   3.162   9.312 -0.2063 -1.7565 -0.2320
  317MOL0     H42732  11.018   3.103   9.049  0.6052 -0.4842  1.0476
  317MOL0     H42733  11.127   2.985   9.093  1.0957  0.6132 -1.0966
  317MOL0     H42734  11.315   3.133   9.078 -0.4547 -1.0810 -0.6485
  317MOL0     H42735  11.209   3.280   9.090 -0.2093  0.2334  1.6968
  317MOL0     H42736  11.167   3.103   8.845  2.3565  0.0570 -0.5898
  317MOL0     H42737  11.131   3.274   8.879  0.3528  0.0812 -1.1207
  317MOL0     H42738  11.381   3.326   8.862 -0.3310  0.2928  0.7552
  317MOL0     H42739  11.411   3.151   8.873  0.6585  0.4330  0.0706
  317MOL0     H42740  11.286   3.139   8.639 -0.4437 -0.0593  0.0833
  317MOL0     H42741  11.278   3.313   8.647 -1.0533 -2.1246 -2.1455
  317MOL0     H42742  11.539   3.155   8.670  0.5449  0.0132  0.1924
  317MOL0     H42743  11.517   3.327   8.643  0.9982 -1.1251  2.2566
  317MOL0     H42744  11.462   3.098   8.431 -2.0296 -0.0079  1.2536
  317MOL0     H42745  11.410   3.261   8.408 -2.4081 -0.9310  1.7216
  317MOL0     H42746  11.629   3.445   8.364 -1.8080 -1.4605  0.8552
  317MOL0     H42747  11.951   3.402   8.194  0.3671 -0.3964  0.7334
  317MOL0     H42748  11.842   3.520   8.274  0.1393 -0.5249  0.1239
  317MOL0     H42749  11.983   3.506   8.476  1.7322 -2.0088  1.2125
  317MOL0     H42750  12.068   3.369   8.382 -5.3097 -3.0418 -0.5841
  317MOL0     H42751  12.045   3.660   8.292  3.0094  1.8995  2.2818
  317MOL0     H42752  12.154   3.545   8.215 -0.3823  2.7573 -1.3013
  317MOL0     H42753  12.279   3.541   8.438 -0.6330 -1.1459 -1.6073
  317MOL0     H42754  12.179   3.662   8.500 -0.3312  1.0776 -0.1396
  317MOL0     H42755  12.461   3.693   8.580  1.0383 -1.3363  1.3529
  317MOL0     H42756  12.705   3.747   8.582 -2.8928  1.0840  1.8150
  317MOL0     H42757  13.041   4.051   8.337 -0.1699  0.4271 -1.0148
  317MOL0     H42758  13.290   4.080   8.293 -2.4638  2.0680 -0.4474
  317MOL0     H42759  13.605   4.000   8.118 -0.6084 -2.4925 -0.6446
  317MOL0     H42760  13.503   4.075   8.230  1.0228  0.7802 -1.5891
  317MOL0     H42761  13.683   3.894   8.297  0.6828 -1.9600 -2.1960
  317MOL0     H42762  13.523   3.892   8.382  0.5841  0.3586 -0.2060
  317MOL0     H42763  13.606   3.672   8.333 -0.9144 -2.3849 -0.7239
  317MOL0     H42764  13.457   3.691   8.245  0.1841  0.3947  2.7786
  317MOL0     H42765  13.749   3.730   8.128  0.3497 -1.0050  0.5217
  317MOL0     H42766  13.609   3.763   8.031  2.1318  1.9513 -0.1195
  317MOL0     H42767  13.555   3.540   7.998  1.7236  1.8393 -1.8801
  317MOL0     H42768  13.598   3.486   8.168  2.3629  1.2683  2.0199
  317MOL0     H42769  13.773   3.531   7.930 -1.6832 -0.9448 -1.0650
  317MOL0     H42770  13.832   3.504   8.095  0.6323  2.0733 -0.8461
  317MOL0     H42771  13.634   3.310   7.985  0.0416  0.0759 -0.4055
  317MOL0     H42772  13.739   3.287   8.123 -1.6963  2.4421  1.6324
  317MOL0     H42773  13.798   3.281   7.825 -2.6249 -0.4548  1.2507
  317MOL0     H42774  13.937   3.296   7.938  0.1990 -1.6931  1.3333
  317MOL0     H42775  13.269   3.762   8.005  1.4323 -0.8748  0.3590
  317MOL0     H42776  13.044   3.717   8.067  1.1785  0.1393 -0.6331
  317MOL0     H42777  12.656   3.879   8.165  0.5344  1.4392  0.5402
  317MOL0     H42778  12.424   3.821   8.167  2.1949 -1.7391 -1.4878
  317MOL0     H42779  10.835   3.232   9.338  5.3494 -1.5457  1.9303
  317MOL0     H42780  10.624   3.217   9.469 -0.9351 -0.4526  0.6674
  317MOL0     H42781  10.492   3.040   9.969 -0.6225 -0.0493  2.0061
  317MOL0     H42782  10.298   3.075  10.094 -4.8376  1.1358 -0.1451
  317MOL0     H42783   9.887   3.180   9.910 -1.3862  2.2379  1.4037
  317MOL0     H42784   9.870   3.119  10.075 -1.7781 -2.4206 -0.2808
  317MOL0     H42785   9.914   2.926   9.844  0.9809 -2.5515  0.7548
  317MOL0     H42786   9.758   2.968   9.914  0.8918  3.1849 -2.6956
  317MOL0     H42787   9.986   2.825  10.068 -0.8139 -0.0332  2.9561
  317MOL0     H42788   9.841   2.755  10.018  0.9383  0.1233 -0.1984
  317MOL0     H42789   9.842   2.818  10.276  0.8911  2.3721  2.8953
  317MOL0     H42790   9.868   2.986  10.215 -2.2232  1.5658 -0.3087
  317MOL0     H42791   9.462   2.945  10.113 -0.8294  0.0975  1.2863
  317MOL0     H42792  10.064   3.109   9.735  0.6937  1.1834 -1.0133
  317MOL0     H42793  10.322   3.181   9.521  2.7972 -0.3007  3.5334
  317MOL0     H42794  10.265   3.008   9.511 -1.1274  0.7597 -3.0806
  317MOL0     H42795  10.156   3.136   9.548  1.6888  1.9217 -0.6803
  318MOL0     O42796   2.904   9.565   5.239 -0.4303  0.5983 -0.6028
  318MOL0     C42797   2.864   9.485   5.160  0.2371  0.8088  0.2183
  318MOL0     O42798   2.948   9.411   5.076  0.2092  0.1345 -0.2256
  318MOL0     C42799   3.082   9.402   5.110 -0.3147 -0.4252  0.6335
  318MOL0     C42800   3.180   9.426   5.013 -0.3760 -0.2403 -0.4953
  318MOL0     C42801   3.312   9.380   5.035 -0.1122 -0.1607  0.9983
  318MOL0     C42802   3.352   9.318   5.146  0.1110 -0.2614  0.3434
  318MOL0     O42803   3.476   9.256   5.155 -0.4643 -0.0942  0.3016
  318MOL0     C42804   3.582   9.332   5.113 -0.8082  0.5936  0.0166
  318MOL0     C42805   3.711   9.239   5.122 -0.0774  0.2160 -0.7831
  318MOL0     C42806   3.841   9.335   5.120  0.6615  0.4231 -0.0550
  318MOL0     C42807   3.965   9.259   5.074  0.1139 -0.1348 -0.2122
  318MOL0     C42808   4.100   9.331   5.125  0.6163  0.4624  0.1538
  318MOL0     C42809   4.218   9.241   5.080 -0.0856 -0.1540 -0.3391
  318MOL0     C42810   4.342   9.334   5.077  0.2548  0.0381  1.0408
  318MOL0     C42811   4.353   9.407   4.947  0.1462  0.4796  0.1155
  318MOL0     N42812   4.488   9.453   4.919  0.9241 -0.6004 -0.7520
  318MOL0     C42813   4.575   9.502   5.012 -0.2395 -0.3810  0.1158
  318MOL0     C42814   4.691   9.519   4.943  0.7200  0.4032  0.3346
  318MOL0     C42815   4.818   9.594   5.000  0.3337  0.5865  0.3519
  318MOL0     C42816   4.899   9.498   5.084 -0.0795 -0.0031 -0.2245
  318MOL0     C42817   5.021   9.570   5.131 -0.4352 -0.4631  0.1384
  318MOL0     C42818   5.111   9.476   5.222  0.6640 -0.4401  0.3157
  318MOL0     O42819   5.092   9.515   5.353 -0.8602 -0.8888 -0.1851
  318MOL0     C42820   5.146   9.639   5.382  0.9876  0.0843 -0.5899
  318MOL0     C42821   5.075   9.722   5.471 -0.6288 -0.2094  0.1362
  318MOL0     C42822   5.113   9.853   5.490 -0.2405 -0.2177  0.0133
  318MOL0     C42823   5.224   9.913   5.428  0.2540 -0.1943  0.0731
  318MOL0     C42824   5.242  10.060   5.427 -1.0600 -0.9986 -0.2037
  318MOL0     O42825   5.334  10.112   5.345 -0.1251  0.1594  0.2341
  318MOL0     C42826   5.330  10.245   5.336  0.3695 -0.3173 -0.1574
  318MOL0     C42827   5.286  10.302   5.211  0.5874 -0.1771 -0.3555
  318MOL0     C42828   5.284  10.438   5.188  0.5295  0.0308 -0.6089
  318MOL0     C42829   5.321  10.522   5.296 -0.6362  0.8743  0.3713
  318MOL0     O42830   5.322  10.657   5.297  0.2386 -1.3361 -0.3409
  318MOL0     C42831   5.294  10.732   5.179  1.2196 -0.9608  0.4595
  318MOL0     C42832   5.292  10.883   5.198 -0.2800  0.1101 -0.2108
  318MOL0     C42833   5.235  10.929   5.334 -0.3344  0.8117  0.3419
  318MOL0     C42834   5.194  11.074   5.337  0.3898 -0.2894 -0.3159
  318MOL0     C42835   5.119  11.097   5.468  0.2300 -0.5481 -0.2370
  318MOL0     C42836   5.093  11.252   5.487  0.2637 -0.5191  0.4904
  318MOL0     C42837   5.001  11.286   5.607  0.1675 -0.3498 -1.2914
  318MOL0     C42838   4.867  11.200   5.623  0.6564 -0.3415  0.5281
  318MOL0    Cl42839   4.887  11.048   5.717  0.6831  0.0109 -0.3290
  318MOL0     C42840   5.361  10.469   5.417  0.2478  0.6962  0.5219
  318MOL0     C42841   5.373  10.333   5.437 -0.0748  0.3489  0.2772
  318MOL0     O42842   5.172  10.124   5.508 -0.2052  0.1321 -0.1475
  318MOL0     C42843   5.302   9.829   5.346 -0.0867 -0.0427 -0.4490
  318MOL0     C42844   5.258   9.696   5.319  0.1093 -0.1776  0.0655
  318MOL0     N42845   4.681   9.465   4.818  0.1615  0.6528 -0.7105
  318MOL0     N42846   4.556   9.437   4.808  0.5010 -0.9351 -0.0717
  318MOL0     C42847   3.251   9.291   5.240  0.4122 -0.4027 -0.5941
  318MOL0     C42848   3.119   9.332   5.222 -0.8547  0.1890 -0.0222
  318MOL0     C42849   2.715   9.472   5.136  0.2204 -0.0029  0.7634
  318MOL0     C42850   2.675   9.379   5.035 -0.5666  0.2904 -0.0312
  318MOL0     C42851   2.542   9.359   4.999  0.3518 -0.1811 -0.1458
  318MOL0     C42852   2.446   9.435   5.065 -0.5648 -0.2773 -0.3866
  318MOL0     O42853   2.318   9.420   5.020  0.3115  0.0008 -0.2500
  318MOL0     C42854   2.241   9.538   5.006 -0.2456 -0.1972 -0.2088
  318MOL0     C42855   2.110   9.496   4.937  0.5735  0.6880  0.0275
  318MOL0     C42856   2.131   9.459   4.790  0.2958  0.2894 -1.0874
  318MOL0     C42857   2.000   9.440   4.716 -0.4490  0.0122  0.7148
  318MOL0     C42858   2.018   9.431   4.577  0.0181  1.3928 -0.5331
  318MOL0     C42859   2.033   9.441   4.458 -1.3392 -0.2847  0.0574
  318MOL0     C42860   2.484   9.516   5.169  0.1927  0.1414 -0.4381
  318MOL0     C42861   2.615   9.539   5.210 -0.0277  0.1783  0.3019
  318MOL0     C42862   2.639   9.629   5.330 -0.0817  0.7257 -0.3876
  318MOL0     H42863   3.150   9.470   4.918  2.1303  2.8722 -0.0233
  318MOL0     H42864   3.375   9.408   4.951 -1.1941  0.3765  0.3414
  318MOL0     H42865   3.580   9.368   5.010  2.7660 -2.7017 -1.4771
  318MOL0     H42866   3.595   9.414   5.184 -1.1890  0.1152  0.6475
  318MOL0     H42867   3.720   9.162   5.045  0.2928 -1.0256  0.4587
  318MOL0     H42868   3.703   9.176   5.211 -1.5483 -0.4329 -1.3482
  318MOL0     H42869   3.848   9.403   5.205 -2.1705  3.9402 -2.3323
  318MOL0     H42870   3.828   9.424   5.057 -3.1166  1.2632  1.5954
  318MOL0     H42871   3.950   9.156   5.108 -0.2119  0.4791  1.6380
  318MOL0     H42872   3.978   9.252   4.966  2.3796  0.0566 -0.0046
  318MOL0     H42873   4.098   9.437   5.099 -3.5962  1.0198  1.8509
  318MOL0     H42874   4.105   9.337   5.234  2.7316 -1.3691  0.2169
  318MOL0     H42875   4.235   9.172   5.163  0.7513 -0.5277 -0.8091
  318MOL0     H42876   4.214   9.177   4.991  2.0265 -1.5190  0.4662
  318MOL0     H42877   4.430   9.270   5.072  0.9335  1.0645 -2.3764
  318MOL0     H42878   4.350   9.409   5.157  0.2894  1.5126 -0.2969
  318MOL0     H42879   4.328   9.332   4.871  3.2761 -0.4718 -0.1292
  318MOL0     H42880   4.274   9.483   4.942 -0.1835  0.0688 -1.5744
  318MOL0     H42881   4.548   9.531   5.113  0.2938  1.1699 -0.1601
  318MOL0     H42882   4.888   9.630   4.924  1.8499  2.4395  2.4767
  318MOL0     H42883   4.778   9.679   5.056 -1.2340  0.5249 -0.6142
  318MOL0     H42884   4.838   9.470   5.170  1.2138  0.6442  0.9353
  318MOL0     H42885   4.916   9.412   5.019 -1.5573 -1.4656  1.2542
  318MOL0     H42886   4.994   9.662   5.183  1.3582 -0.5703  1.3111
  318MOL0     H42887   5.079   9.590   5.041  1.6275 -0.8922  1.3052
  318MOL0     H42888   5.213   9.464   5.184 -1.0697 -3.4565 -4.3283
  318MOL0     H42889   5.073   9.374   5.208  1.0295 -0.3510 -1.6930
  318MOL0     H42890   4.987   9.671   5.510 -0.9534 -0.4878 -0.9360
  318MOL0     H42891   5.049   9.919   5.548 -1.1471  0.7849 -2.0372
  318MOL0     H42892   5.263  10.239   5.126 -2.7258  1.0917 -0.5251
  318MOL0     H42893   5.265  10.472   5.087 -0.8447  2.2812  0.3450
  318MOL0     H42894   5.378  10.702   5.116  2.1873  1.5428  0.4757
  318MOL0     H42895   5.195  10.706   5.139  0.2337  2.4463  0.3938
  318MOL0     H42896   5.397  10.911   5.188  0.1319 -0.9311  1.0432
  318MOL0     H42897   5.231  10.934   5.122 -1.0988 -0.5421 -0.0087
  318MOL0     H42898   5.144  10.869   5.342  0.7899 -1.0330  0.0214
  318MOL0     H42899   5.302  10.900   5.415 -1.7165 -2.2984  0.5031
  318MOL0     H42900   5.130  11.101   5.252 -1.1243 -0.8135  0.6340
  318MOL0     H42901   5.287  11.132   5.334 -0.2072  1.3257  4.3633
  318MOL0     H42902   5.179  11.061   5.552 -0.1446  0.2023  0.3652
  318MOL0     H42903   5.021  11.050   5.467  0.5376 -1.2010 -1.4756
  318MOL0     H42904   5.181  11.315   5.501 -0.0461 -0.6821  3.9061
  318MOL0     H42905   5.045  11.274   5.391 -1.0060 -2.6232  0.5920
  318MOL0     H42906   4.966  11.387   5.587 -2.2104  0.0367  3.4761
  318MOL0     H42907   5.049  11.291   5.705  0.3384  1.7260 -1.4473
  318MOL0     H42908   4.805  11.273   5.676  0.6949 -1.3156  1.9514
  318MOL0     H42909   4.827  11.179   5.523 -2.4041 -0.1124  1.6021
  318MOL0     H42910   5.380  10.530   5.504  2.3563 -0.3340  0.8502
  318MOL0     H42911   5.401  10.299   5.536  0.0068  1.2340  0.5645
  318MOL0     H42912   5.395   9.875   5.314  0.8982  0.3400  2.5625
  318MOL0     H42913   5.320   9.633   5.255 -1.7840 -1.4429 -0.6082
  318MOL0     H42914   3.277   9.241   5.333  0.6778 -1.0399 -1.0047
  318MOL0     H42915   3.041   9.313   5.294 -1.8387  3.1569 -0.1811
  318MOL0     H42916   2.751   9.321   4.983 -0.5518 -0.6091  0.9673
  318MOL0     H42917   2.524   9.293   4.915 -0.7117  2.1985 -1.9263
  318MOL0     H42918   2.285   9.617   4.946  0.2401  2.2357  3.0861
  318MOL0     H42919   2.226   9.573   5.109  3.1319 -1.6480  0.9349
  318MOL0     H42920   2.037   9.577   4.946 -2.8475 -2.3428  3.2108
  318MOL0     H42921   2.056   9.412   4.983  1.3640 -0.1693 -0.5860
  318MOL0     H42922   2.190   9.367   4.781  0.2167  0.1504 -0.2756
  318MOL0     H42923   2.188   9.536   4.736  1.0971 -0.6468 -1.6186
  318MOL0     H42924   1.948   9.349   4.746 -0.6748 -0.7619 -1.7906
  318MOL0     H42925   1.946   9.532   4.739  1.6268  1.6596 -0.5500
  318MOL0     H42926   2.046   9.462   4.354 -0.2569 -0.4425  0.1442
  318MOL0     H42927   2.418   9.575   5.232  2.0635  0.9179  0.8918
  318MOL0     H42928   2.665   9.723   5.278 -1.2648  0.0253 -2.3461
  318MOL0     H42929   2.555   9.647   5.397  0.7469 -0.0925  0.9085
  318MOL0     H42930   2.723   9.581   5.381 -1.5589 -2.1548 -0.5261
  319MOL0     O42931   1.193   6.975   8.141 -0.8885  0.1578 -0.4766
  319MOL0     C42932   1.204   7.100   8.162 -0.1934 -0.0505  0.3387
  319MOL0     O42933   1.310   7.156   8.224  0.7534  1.2663 -0.1637
  319MOL0     C42934   1.422   7.080   8.245 -0.0394  0.4487 -1.1123
  319MOL0     C42935   1.429   6.982   8.341  0.6207 -0.1909 -0.0830
  319MOL0     C42936   1.548   6.903   8.358 -1.0446  0.1836  0.6780
  319MOL0     C42937   1.663   6.932   8.279  0.7474 -0.1571 -0.3883
  319MOL0     O42938   1.783   6.869   8.293  0.6171  0.4258  0.1362
  319MOL0     C42939   1.806   6.772   8.396  0.3009 -0.1096  0.4412
  319MOL0     C42940   1.954   6.718   8.376  1.1241 -0.3973 -0.3058
  319MOL0     C42941   1.986   6.592   8.466 -0.6325  0.4287 -0.0447
  319MOL0     C42942   2.131   6.568   8.430 -0.1471 -0.3137 -1.1440
  319MOL0     C42943   2.192   6.464   8.527 -0.4908 -0.2615 -0.6351
  319MOL0     C42944   2.315   6.397   8.470 -0.5865 -0.0746  0.3936
  319MOL0     C42945   2.383   6.283   8.548  0.0371 -1.3785 -0.3942
  319MOL0     C42946   2.519   6.247   8.495 -0.8110 -0.6024  0.2661
  319MOL0     N42947   2.622   6.333   8.552 -0.2455 -0.2852 -0.0114
  319MOL0     C42948   2.758   6.308   8.545  0.4034 -0.0228  0.3190
  319MOL0     C42949   2.825   6.415   8.598  0.5826  1.8316  0.3934
  319MOL0     C42950   2.970   6.435   8.633 -0.2756  0.0394 -0.1513
  319MOL0     C42951   3.072   6.392   8.522  0.5930 -0.0598  0.0628
  319MOL0     C42952   3.215   6.432   8.564  1.0638  0.5598  0.8326
  319MOL0     C42953   3.324   6.359   8.496  0.4689 -0.5873  0.5671
  319MOL0     O42954   3.441   6.409   8.554  0.0619 -0.1258  0.8427
  319MOL0     C42955   3.568   6.358   8.532 -0.1921  0.1913 -0.5281
  319MOL0     C42956   3.661   6.434   8.588 -0.7164 -0.6138 -0.0099
  319MOL0     C42957   3.790   6.390   8.595  0.3077  0.2877  0.5180
  319MOL0     C42958   3.831   6.263   8.545 -0.3876 -0.1552  0.3702
  319MOL0     C42959   3.966   6.221   8.556 -0.4767  0.1992  0.0101
  319MOL0     O42960   3.993   6.094   8.501 -0.2880 -1.2639 -0.1423
  319MOL0     C42961   4.116   6.046   8.487 -0.4662  0.6167  0.0836
  319MOL0     C42962   4.215   6.041   8.593 -0.0709  0.1402  0.0865
  319MOL0     C42963   4.347   6.004   8.578 -0.5992  0.4607  0.5533
  319MOL0     C42964   4.393   5.971   8.453  0.7365  0.1107  0.2673
  319MOL0     O42965   4.521   5.904   8.450 -0.2787  0.0021  0.0624
  319MOL0     C42966   4.580   5.874   8.321 -0.2367  0.7409 -0.8209
  319MOL0     C42967   4.586   5.725   8.314 -0.5512 -1.1246 -0.2290
  319MOL0     C42968   4.665   5.676   8.195  0.6630  0.6636 -0.4025
  319MOL0     C42969   4.686   5.524   8.211  0.2982  0.0767  0.3117
  319MOL0     C42970   4.799   5.469   8.118  0.5466  0.2198  1.2677
  319MOL0     C42971   4.809   5.314   8.144  0.0359 -0.3191  0.4403
  319MOL0     C42972   4.925   5.248   8.058  0.8505  0.4105 -0.3789
  319MOL0     C42973   4.897   5.251   7.901 -0.1617  0.7964 -0.3682
  319MOL0    Cl42974   4.733   5.192   7.862 -0.7003  0.0874  0.0578
  319MOL0     C42975   4.299   5.971   8.344 -0.8545  0.0792  0.3499
  319MOL0     C42976   4.161   5.996   8.360  0.9921  0.5551 -0.0054
  319MOL0     O42977   4.053   6.308   8.582  0.1816 -0.7308  0.1652
  319MOL0     C42978   3.733   6.196   8.469  0.1672  0.0695  0.3675
  319MOL0     C42979   3.599   6.240   8.469  0.0928  0.9612  0.0649
  319MOL0     N42980   2.728   6.517   8.614 -0.5512 -0.3693  0.1142
  319MOL0     N42981   2.612   6.468   8.590  0.3006  0.4823  0.8560
  319MOL0     C42982   1.649   7.023   8.178 -0.3580 -0.4583  0.0034
  319MOL0     C42983   1.529   7.098   8.162 -1.0045  0.3383  0.5604
  319MOL0     C42984   1.104   7.205   8.115 -0.2215 -0.0429  0.0483
  319MOL0     C42985   1.149   7.327   8.074 -0.7032 -0.3128 -0.1002
  319MOL0     C42986   1.065   7.432   8.033 -0.4208 -0.4603  0.5357
  319MOL0     C42987   0.924   7.407   8.029 -0.3095 -0.5507  0.9340
  319MOL0     O42988   0.840   7.508   7.989 -0.3184  0.6182 -0.0549
  319MOL0     C42989   0.886   7.590   7.875 -0.1075 -0.3231 -1.1585
  319MOL0     C42990   0.924   7.519   7.741  0.5713 -0.3476 -0.4717
  319MOL0     C42991   0.825   7.410   7.706 -0.6487 -0.0605 -0.2831
  319MOL0     C42992   0.850   7.352   7.569 -1.1241 -0.4183  0.3122
  319MOL0     C42993   0.735   7.294   7.512  0.5096  0.5062 -0.0557
  319MOL0     C42994   0.635   7.222   7.482 -0.2058  0.5165  0.4846
  319MOL0     C42995   0.875   7.284   8.070  0.1556  0.6260 -1.0774
  319MOL0     C42996   0.957   7.191   8.115  0.0049  0.7838 -0.9336
  319MOL0     C42997   0.894   7.067   8.169  0.1181  0.2639 -0.1132
  319MOL0     H42998   1.353   6.976   8.418  1.5376  0.2559  0.8924
  319MOL0     H42999   1.562   6.851   8.452  1.9385 -0.8225 -0.2006
  319MOL0     H43000   1.792   6.805   8.499 -1.2399 -1.4013  0.6780
  319MOL0     H43001   1.734   6.690   8.399 -1.8284  1.6345 -0.1108
  319MOL0     H43002   2.019   6.803   8.399  0.9870 -0.3141 -0.2194
  319MOL0     H43003   1.970   6.701   8.269  1.1043 -0.4548 -0.2995
  319MOL0     H43004   1.934   6.497   8.450  1.2269 -0.9531  1.6161
  319MOL0     H43005   1.977   6.619   8.572 -0.2750  2.0363 -0.3922
  319MOL0     H43006   2.125   6.531   8.327 -1.0200 -1.4927 -0.6835
  319MOL0     H43007   2.199   6.653   8.446 -3.0998  1.5401  3.5170
  319MOL0     H43008   2.212   6.513   8.622 -0.0612 -5.2287  2.1855
  319MOL0     H43009   2.122   6.383   8.549  0.2997 -0.6424  0.5627
  319MOL0     H43010   2.297   6.363   8.368  0.4424 -1.0849  0.5328
  319MOL0     H43011   2.386   6.480   8.469 -0.1435 -0.4078  1.8997
  319MOL0     H43012   2.311   6.201   8.536 -1.4282 -0.1866  0.0396
  319MOL0     H43013   2.403   6.318   8.650 -4.0993  0.4991 -0.0334
  319MOL0     H43014   2.535   6.144   8.529  1.0018 -0.6186 -0.5107
  319MOL0     H43015   2.533   6.251   8.387 -1.8786  0.0432  0.1423
  319MOL0     H43016   2.798   6.213   8.509 -2.2111 -0.4193 -1.9030
  319MOL0     H43017   2.990   6.537   8.667  3.4050  0.3392 -2.6544
  319MOL0     H43018   2.987   6.358   8.709 -0.1745  0.6408  0.4506
  319MOL0     H43019   3.064   6.287   8.493 -0.3474  0.3771 -1.4128
  319MOL0     H43020   3.040   6.447   8.433  0.7239 -0.1186 -0.0206
  319MOL0     H43021   3.223   6.424   8.673  1.9998  0.0015  0.7387
  319MOL0     H43022   3.232   6.537   8.537 -2.8549  1.0336 -0.4080
  319MOL0     H43023   3.330   6.383   8.389  1.7605  1.2525  1.0053
  319MOL0     H43024   3.320   6.250   8.508 -0.9088 -0.4848  1.2760
  319MOL0     H43025   3.639   6.534   8.623 -2.0136  0.7127 -3.9847
  319MOL0     H43026   3.870   6.453   8.632  2.0895 -1.5659 -0.0015
  319MOL0     H43027   4.186   6.073   8.692  0.1380 -0.1072  0.2281
  319MOL0     H43028   4.420   5.998   8.659  1.1478  1.1688 -0.8840
  319MOL0     H43029   4.538   5.915   8.228  2.0307 -2.6414 -3.6334
  319MOL0     H43030   4.685   5.906   8.322 -0.0727  0.2678  1.4389
  319MOL0     H43031   4.628   5.686   8.407  0.3298 -0.8968 -0.5200
  319MOL0     H43032   4.485   5.685   8.297 -0.4515 -2.1826  1.4023
  319MOL0     H43033   4.617   5.709   8.102  0.6526 -0.4392 -0.7954
  319MOL0     H43034   4.765   5.721   8.202 -1.3062  5.8964 -1.1807
  319MOL0     H43035   4.598   5.459   8.200  1.7841 -2.2426  1.2748
  319MOL0     H43036   4.715   5.515   8.315 -0.1436  1.2907  0.5565
  319MOL0     H43037   4.889   5.530   8.129  1.8621  0.0208 -4.8967
  319MOL0     H43038   4.769   5.482   8.013 -1.5387  1.2557  1.9227
  319MOL0     H43039   4.827   5.292   8.249  1.6495  2.3322  0.8318
  319MOL0     H43040   4.717   5.262   8.115  2.6329 -4.6306 -0.9409
  319MOL0     H43041   4.942   5.143   8.086 -0.8794  1.0777  3.8224
  319MOL0     H43042   5.022   5.294   8.077  1.5551 -0.6383 -1.2998
  319MOL0     H43043   4.894   5.355   7.867 -0.7714  1.3346  1.2421
  319MOL0     H43044   4.971   5.191   7.846 -1.4567 -1.5607  0.3057
  319MOL0     H43045   4.340   5.943   8.247  0.8515  0.0870  1.0306
  319MOL0     H43046   4.102   5.988   8.269 -0.8838  0.3508  1.1610
  319MOL0     H43047   3.756   6.102   8.420 -0.1266 -0.0987  0.5472
  319MOL0     H43048   3.531   6.179   8.409  1.5733 -2.1134  1.2814
  319MOL0     H43049   1.735   7.027   8.113  0.3782 -1.3434  0.8974
  319MOL0     H43050   1.527   7.177   8.088 -0.3193  0.9206  1.1447
  319MOL0     H43051   1.256   7.338   8.063 -0.7002 -0.7590 -0.5398
  319MOL0     H43052   1.104   7.529   8.004  1.3660 -1.4758 -0.6613
  319MOL0     H43053   0.967   7.651   7.917 -1.4855 -0.0982  1.3727
  319MOL0     H43054   0.807   7.659   7.845  0.2887  2.8659  3.9409
  319MOL0     H43055   1.028   7.485   7.738  1.9471  3.3187 -0.4406
  319MOL0     H43056   0.920   7.602   7.669  1.2659  0.2083  0.1119
  319MOL0     H43057   0.720   7.442   7.713 -1.1166 -1.7171  0.8148
  319MOL0     H43058   0.839   7.326   7.774  1.5325  1.1942  0.9185
  319MOL0     H43059   0.880   7.414   7.484  1.2769 -3.1172 -0.9920
  319MOL0     H43060   0.919   7.267   7.573 -1.2148 -0.5524 -0.7838
  319MOL0     H43061   0.553   7.155   7.473  0.8664 -0.8538  0.6325
  319MOL0     H43062   0.768   7.267   8.070 -0.0768  1.8101  0.8236
  319MOL0     H43063   0.787   7.068   8.150 -0.5498  0.9096  3.1193
  319MOL0     H43064   0.942   6.977   8.128  0.3742  0.7663 -0.9428
  319MOL0     H43065   0.904   7.061   8.277 -0.7607  2.2621  0.1232
  320MOL0     O43066  11.029   5.389   6.236 -0.3245 -0.3315  0.8707
  320MOL0     C43067  11.060   5.271   6.264 -0.0506  0.4359 -0.0557
  320MOL0     O43068  11.171   5.224   6.326  1.0473  0.7905  0.2287
  320MOL0     C43069  11.261   5.314   6.367 -0.0413  0.4886  0.1028
  320MOL0     C43070  11.248   5.350   6.502  0.0506 -0.1361 -0.1573
  320MOL0     C43071  11.359   5.412   6.566  0.4661  0.2083 -0.5345
  320MOL0     C43072  11.466   5.467   6.494 -0.3649 -0.3183 -0.0331
  320MOL0     O43073  11.557   5.539   6.567  0.2013  0.3279  0.5995
  320MOL0     C43074  11.620   5.457   6.662 -0.4396 -0.4381 -0.0191
  320MOL0     C43075  11.751   5.518   6.715  0.8168  0.0179  0.5100
  320MOL0     C43076  11.720   5.626   6.819 -0.4056 -0.1181  0.1682
  320MOL0     C43077  11.844   5.715   6.842 -0.2198  0.2206  0.2887
  320MOL0     C43078  11.819   5.825   6.935 -0.0025 -0.7612  0.2329
  320MOL0     C43079  11.788   5.781   7.080 -0.1684  0.2546  0.3580
  320MOL0     C43080  11.907   5.714   7.156  0.4588 -0.4917  0.1866
  320MOL0     C43081  12.026   5.810   7.181 -0.1387  0.1593  0.4727
  320MOL0     N43082  12.114   5.750   7.285  0.1195 -0.4513 -0.5915
  320MOL0     C43083  12.180   5.631   7.273 -0.8601 -0.2444  0.2677
  320MOL0     C43084  12.245   5.606   7.392  0.2793  0.0759 -0.0234
  320MOL0     C43085  12.350   5.506   7.416 -0.0944  0.4514  0.2749
  320MOL0     C43086  12.282   5.394   7.494  0.5056 -0.9983  0.2558
  320MOL0     C43087  12.383   5.301   7.525 -0.3936 -0.3640  0.0894
  320MOL0     C43088  12.349   5.174   7.588  0.1477  0.4010 -0.1799
  320MOL0     O43089  12.255   5.107   7.505 -0.0572  0.5474 -0.0252
  320MOL0     C43090  12.188   5.005   7.557 -0.1768 -0.1655 -0.5733
  320MOL0     C43091  12.078   4.954   7.490 -0.5791  0.1247  0.0289
  320MOL0     C43092  11.998   4.851   7.536  0.0504  0.1291 -0.4832
  320MOL0     C43093  12.020   4.789   7.659 -0.1055 -0.4046  0.5347
  320MOL0     C43094  11.933   4.678   7.716  0.8972  0.2686 -0.0158
  320MOL0     O43095  11.977   4.617   7.829 -0.1112  0.9531 -0.4608
  320MOL0     C43096  11.925   4.502   7.884  0.3312 -0.2272  0.7477
  320MOL0     C43097  11.889   4.390   7.802  0.3073  0.3377  0.8510
  320MOL0     C43098  11.856   4.266   7.862 -0.4814  0.0587  0.0168
  320MOL0     C43099  11.857   4.259   8.002  0.1271 -0.1097 -0.4472
  320MOL0     O43100  11.823   4.153   8.070 -1.1314  0.2136 -0.1152
  320MOL0     C43101  11.914   4.047   8.037  0.6620 -0.3248 -0.0958
  320MOL0     C43102  12.059   4.061   8.069  0.5381 -0.3422 -0.5056
  320MOL0     C43103  12.119   3.939   8.001 -0.9613  0.0604 -0.2271
  320MOL0     C43104  12.268   3.966   7.957  0.0740  1.0576  0.7094
  320MOL0     C43105  12.325   3.866   7.850  0.3177 -0.6089  0.2653
  320MOL0     C43106  12.318   3.718   7.893  0.3510  0.0350 -0.5990
  320MOL0     C43107  12.399   3.642   7.797  0.3607 -0.1830  0.4081
  320MOL0     C43108  12.387   3.486   7.827 -0.1358 -0.0465 -0.1331
  320MOL0    Cl43109  12.480   3.384   7.719  0.5173 -0.3250  0.1128
  320MOL0     C43110  11.905   4.363   8.077  0.5030 -0.5119  0.3837
  320MOL0     C43111  11.941   4.485   8.021  0.8176  0.6625 -0.0172
  320MOL0     O43112  11.827   4.652   7.663 -0.3812  0.1535  0.1277
  320MOL0     C43113  12.118   4.843   7.737  0.3408  0.2227  1.1084
  320MOL0     C43114  12.205   4.944   7.691 -0.4781  0.2129 -0.1595
  320MOL0     N43115  12.180   5.694   7.476 -0.3278  0.0695  0.1225
  320MOL0     N43116  12.111   5.782   7.417 -0.1445  0.0735  0.2832
  320MOL0     C43117  11.481   5.432   6.353 -0.1152  0.5399 -0.2871
  320MOL0     C43118  11.379   5.356   6.287 -0.2073  0.2270 -0.5947
  320MOL0     C43119  10.969   5.159   6.228 -0.4788 -0.2284  1.1440
  320MOL0     C43120  11.025   5.036   6.198  0.1731 -0.3895 -0.3965
  320MOL0     C43121  10.947   4.924   6.178  0.2238 -0.4601 -0.2543
  320MOL0     C43122  10.806   4.935   6.199  0.6807  0.0610  1.0435
  320MOL0     O43123  10.737   4.818   6.180 -0.3768  0.2365 -0.5756
  320MOL0     C43124  10.597   4.841   6.145  0.4398 -0.6464  0.6073
  320MOL0     C43125  10.520   4.708   6.107  0.1242 -0.5513  0.1125
  320MOL0     C43126  10.489   4.618   6.227  0.5640 -0.4184  0.6118
  320MOL0     C43127  10.438   4.487   6.176  0.0760  0.0449 -0.6288
  320MOL0     C43128  10.403   4.412   6.294  0.9181  1.3301  1.3642
  320MOL0     C43129  10.371   4.360   6.402  0.5101 -0.5501 -0.9102
  320MOL0     C43130  10.746   5.067   6.224  0.1529  0.7855 -0.1438
  320MOL0     C43131  10.829   5.175   6.236 -0.2264  0.4870  1.0984
  320MOL0     C43132  10.756   5.304   6.259  0.1912 -0.5924  0.5303
  320MOL0     H43133  11.167   5.317   6.565 -0.9503 -4.6572 -3.3190
  320MOL0     H43134  11.341   5.429   6.672  2.6831  0.4136 -0.1601
  320MOL0     H43135  11.555   5.436   6.747 -1.2145 -0.9790 -0.7258
  320MOL0     H43136  11.644   5.360   6.618 -2.2883 -1.5064  1.1703
  320MOL0     H43137  11.809   5.563   6.634  0.4006  0.3613  0.3983
  320MOL0     H43138  11.794   5.436   6.774 -0.9769 -0.8388  0.7184
  320MOL0     H43139  11.698   5.568   6.909 -1.2341 -0.6714 -0.3741
  320MOL0     H43140  11.641   5.698   6.797  0.0121  0.7765  1.4774
  320MOL0     H43141  11.921   5.650   6.886  2.7516  2.2629 -1.5558
  320MOL0     H43142  11.876   5.762   6.749 -0.0857 -1.5581 -0.6007
  320MOL0     H43143  11.912   5.881   6.928  0.6314 -1.9384 -1.2633
  320MOL0     H43144  11.741   5.894   6.902 -0.8022 -0.0192  3.3670
  320MOL0     H43145  11.744   5.856   7.147 -1.0626 -1.0569  1.3138
  320MOL0     H43146  11.706   5.709   7.074 -0.1492  0.1198  1.3797
  320MOL0     H43147  11.927   5.620   7.105 -0.9431 -0.7641  0.0936
  320MOL0     H43148  11.855   5.678   7.246 -1.5501  0.8549 -0.3734
  320MOL0     H43149  12.076   5.817   7.083 -0.9556 -0.6309 -0.0047
  320MOL0     H43150  11.981   5.904   7.214  2.1762  0.9189  1.6975
  320MOL0     H43151  12.201   5.583   7.178 -2.2780  1.8452 -1.1965
  320MOL0     H43152  12.390   5.471   7.320 -4.5707  0.1776 -1.7305
  320MOL0     H43153  12.435   5.553   7.467  0.8843  0.9634 -1.7219
  320MOL0     H43154  12.247   5.432   7.591  2.7942  1.6698  0.1778
  320MOL0     H43155  12.198   5.350   7.441  0.2512 -0.6840  0.3959
  320MOL0     H43156  12.463   5.348   7.584 -0.9933  3.1111 -1.6521
  320MOL0     H43157  12.432   5.286   7.428 -2.1098  1.4002 -1.1228
  320MOL0     H43158  12.323   5.198   7.692  2.4763  2.8108 -0.0367
  320MOL0     H43159  12.439   5.113   7.590 -0.4987 -0.5743 -0.0094
  320MOL0     H43160  12.052   5.000   7.395 -0.5858 -0.4019 -0.2262
  320MOL0     H43161  11.922   4.809   7.471 -1.3357 -0.7681  1.6072
  320MOL0     H43162  11.899   4.403   7.695  1.2811 -1.6190  0.6536
  320MOL0     H43163  11.826   4.173   7.814 -0.2914 -0.5246  1.0091
  320MOL0     H43164  11.872   3.973   8.106 -1.6820  1.6968  0.8193
  320MOL0     H43165  11.907   4.019   7.931  2.2846 -1.1787 -0.0137
  320MOL0     H43166  12.099   4.152   8.024  0.1521 -0.8774 -1.9745
  320MOL0     H43167  12.072   4.062   8.178  1.7425  1.4535 -0.6381
  320MOL0     H43168  12.118   3.851   8.067  1.2339  0.1243 -0.0259
  320MOL0     H43169  12.068   3.908   7.909  1.5256 -0.5696 -1.4986
  320MOL0     H43170  12.325   3.964   8.050  1.0604 -0.0857  0.1108
  320MOL0     H43171  12.270   4.065   7.912  0.3534  0.6097 -0.3153
  320MOL0     H43172  12.428   3.895   7.829  0.2339 -1.5332 -1.7240
  320MOL0     H43173  12.274   3.872   7.753  0.9602  1.2382  0.0188
  320MOL0     H43174  12.370   3.721   7.989  3.0407 -0.1344 -1.9781
  320MOL0     H43175  12.214   3.685   7.908 -0.1181  2.0307  0.8402
  320MOL0     H43176  12.503   3.674   7.813  1.0475 -1.2601 -1.5847
  320MOL0     H43177  12.381   3.647   7.689 -0.4114 -6.6008 -0.1361
  320MOL0     H43178  12.410   3.460   7.931 -0.4221  0.8831  0.1736
  320MOL0     H43179  12.279   3.469   7.823 -0.5207  2.1395 -0.6012
  320MOL0     H43180  11.924   4.337   8.180  4.8980 -0.8981 -0.3177
  320MOL0     H43181  11.975   4.569   8.081  0.6258  0.2129  0.7319
  320MOL0     H43182  12.141   4.787   7.826  2.6982  0.0629  0.4749
  320MOL0     H43183  12.285   4.965   7.761 -0.0757 -0.5762 -0.3649
  320MOL0     H43184  11.569   5.464   6.298 -0.7148  2.3745 -0.2281
  320MOL0     H43185  11.392   5.323   6.184  1.7870  1.0280 -0.6421
  320MOL0     H43186  11.132   5.020   6.186  0.2398  0.9518 -1.9237
  320MOL0     H43187  10.990   4.837   6.129  3.0225  2.8121 -4.3775
  320MOL0     H43188  10.594   4.910   6.061  0.4957 -1.4492 -0.0615
  320MOL0     H43189  10.547   4.879   6.235  0.2723 -0.3708  0.3986
  320MOL0     H43190  10.579   4.658   6.030 -0.7553  0.7714 -1.4976
  320MOL0     H43191  10.419   4.722   6.068 -0.9139 -1.1990  2.4014
  320MOL0     H43192  10.415   4.671   6.287 -0.8935  4.2218 -4.4338
  320MOL0     H43193  10.579   4.593   6.284  1.0393  0.8084  0.4460
  320MOL0     H43194  10.342   4.486   6.123 -1.7062  1.2638  2.2900
  320MOL0     H43195  10.518   4.435   6.122  2.4628 -0.9119  3.3764
  320MOL0     H43196  10.349   4.323   6.500 -0.7840  0.6836 -0.7199
  320MOL0     H43197  10.638   5.080   6.234  0.1222 -0.0314  0.7104
  320MOL0     H43198  10.742   5.351   6.161 -0.1665  0.7764  1.2097
  320MOL0     H43199  10.652   5.298   6.294 -0.2860 -3.3110 -1.0611
  320MOL0     H43200  10.804   5.382   6.319 -2.4192  2.4182 -0.9765
  321MOL0     O43201   2.320   7.157   0.743  0.3511  0.2718 -0.5269
  321MOL0     C43202   2.304   7.175   0.619 -1.2993  0.7167  0.0858
  321MOL0     O43203   2.200   7.136   0.544 -0.2487  0.7251  0.6378
  321MOL0     C43204   2.081   7.114   0.618  0.1867  0.0736  0.6185
  321MOL0     C43205   1.968   7.192   0.583  0.2219  0.1052  0.2290
  321MOL0     C43206   1.838   7.170   0.644 -0.4158  0.1394  0.2605
  321MOL0     C43207   1.823   7.086   0.746  0.2806  0.0125  0.6486
  321MOL0     O43208   1.700   7.092   0.817 -0.2634  0.0420 -0.4292
  321MOL0     C43209   1.692   7.072   0.957 -0.0013  0.1386 -0.0938
  321MOL0     C43210   1.581   7.160   1.000  0.0367  0.4676  1.5201
  321MOL0     C43211   1.444   7.126   0.938  0.4718  0.6017 -0.6534
  321MOL0     C43212   1.347   7.237   1.005 -0.3507  0.5779 -0.1002
  321MOL0     C43213   1.212   7.232   0.930  0.1745 -0.2559 -0.4908
  321MOL0     C43214   1.229   7.294   0.793 -0.4830  0.5663  0.5242
  321MOL0     C43215   1.096   7.351   0.738 -0.3501  0.0573  0.0119
  321MOL0     C43216   1.116   7.407   0.584 -0.4317 -0.3862  0.2918
  321MOL0     N43217   1.219   7.507   0.562  0.7563 -0.4852  0.5640
  321MOL0     C43218   1.354   7.490   0.547  1.0854  0.0439  0.1062
  321MOL0     C43219   1.400   7.615   0.540  0.2503  0.6763  0.5075
  321MOL0     C43220   1.549   7.640   0.530 -0.5776 -0.7679 -1.3015
  321MOL0     C43221   1.564   7.729   0.404  0.0612 -1.2506 -0.4475
  321MOL0     C43222   1.713   7.754   0.377 -0.5338  0.7908  0.4865
  321MOL0     C43223   1.750   7.836   0.250  1.3523 -0.1327  0.2419
  321MOL0     O43224   1.678   7.954   0.259  0.4965 -0.8619 -0.0174
  321MOL0     C43225   1.683   8.035   0.148  0.0464 -0.5246  0.0400
  321MOL0     C43226   1.584   8.137   0.161  0.3807 -0.4616  0.4800
  321MOL0     C43227   1.580   8.238   0.063  0.6229  0.4263  0.4483
  321MOL0     C43228   1.657   8.238  -0.052 -0.8875  0.3850 -0.6727
  321MOL0     C43229   1.634   8.326  -0.172  0.9653 -0.1369  0.0379
  321MOL0     O43230   1.718   8.312  -0.279  0.2618 -0.0339  0.6837
  321MOL0     C43231   1.719   8.411  -0.381 -0.1809  0.2884  0.0718
  321MOL0     C43232   1.777   8.365  -0.502 -0.8109  0.2089 -0.6204
  321MOL0     C43233   1.794   8.448  -0.616 -0.1598 -0.0307  0.1433
  321MOL0     C43234   1.730   8.574  -0.612  0.1043 -0.0519 -0.4633
  321MOL0     O43235   1.742   8.651  -0.724 -0.2505 -0.0514 -1.1872
  321MOL0     C43236   1.690   8.606  -0.850 -0.7392  1.2640 -0.7572
  321MOL0     C43237   1.604   8.709  -0.919 -0.3904 -0.3313  0.8516
  321MOL0     C43238   1.471   8.737  -0.844  0.1617 -0.1278  0.0387
  321MOL0     C43239   1.367   8.795  -0.935 -0.7995  0.3876 -0.0240
  321MOL0     C43240   1.231   8.786  -0.860  0.4789 -0.4624 -0.2695
  321MOL0     C43241   1.118   8.803  -0.967 -0.2476 -1.3437 -0.2838
  321MOL0     C43242   0.985   8.802  -0.895  0.1119 -0.1605 -0.5282
  321MOL0     C43243   0.942   8.932  -0.824 -0.8395 -0.0947 -0.3430
  321MOL0    Cl43244   0.903   9.056  -0.937  0.0122  0.1996  0.3525
  321MOL0     C43245   1.676   8.622  -0.494  1.0434  0.1221 -0.1521
  321MOL0     C43246   1.667   8.536  -0.382 -0.6280  0.4841  0.7546
  321MOL0     O43247   1.538   8.405  -0.168 -0.3444 -0.3707  0.0277
  321MOL0     C43248   1.758   8.144  -0.059 -0.6061  0.1525 -0.7608
  321MOL0     C43249   1.773   8.046   0.040  0.0987 -0.4003 -0.1342
  321MOL0     N43250   1.292   7.704   0.524  0.0055  0.7212 -0.9818
  321MOL0     N43251   1.186   7.639   0.536 -0.1109  0.2779  0.3653
  321MOL0     C43252   1.927   7.003   0.782 -0.6310 -0.2434  0.3085
  321MOL0     C43253   2.053   7.015   0.714 -0.0900 -0.6863 -0.4377
  321MOL0     C43254   2.419   7.229   0.548 -0.3167  0.7230  0.5232
  321MOL0     C43255   2.551   7.195   0.593 -0.4067  0.4029 -0.5646
  321MOL0     C43256   2.668   7.253   0.543  0.3485 -0.4193 -1.0785
  321MOL0     C43257   2.661   7.354   0.444  0.0017 -1.3175  0.0712
  321MOL0     O43258   2.784   7.411   0.407 -0.4931 -0.7093 -0.8601
  321MOL0     C43259   2.776   7.525   0.324  0.2485 -0.1651  0.1396
  321MOL0     C43260   2.921   7.578   0.313  0.0534  0.6342  0.0729
  321MOL0     C43261   3.039   7.487   0.280  0.6487 -0.2454 -0.3213
  321MOL0     C43262   3.169   7.571   0.290  0.2777  0.7829 -0.3674
  321MOL0     C43263   3.258   7.514   0.185  0.1428 -0.2415  0.8984
  321MOL0     C43264   3.343   7.458   0.117  0.2458  0.5663  0.8524
  321MOL0     C43265   2.532   7.382   0.391  0.2851  0.4206  0.1284
  321MOL0     C43266   2.417   7.331   0.443  0.8042  0.0701  0.2959
  321MOL0     C43267   2.287   7.402   0.402  0.2079 -0.7203  0.7513
  321MOL0     H43268   1.998   7.251   0.497  1.6568  0.2913  0.8354
  321MOL0     H43269   1.747   7.226   0.622 -0.7331  0.0224  1.2110
  321MOL0     H43270   1.680   6.965   0.972  2.8650 -0.1682  0.6184
  321MOL0     H43271   1.789   7.094   1.002 -0.0983 -0.2606  0.3176
  321MOL0     H43272   1.608   7.259   0.960 -1.7227  0.6395  0.6235
  321MOL0     H43273   1.579   7.173   1.109 -2.8162 -3.0018  2.0524
  321MOL0     H43274   1.408   7.030   0.976 -3.1536  2.0918  0.0731
  321MOL0     H43275   1.431   7.130   0.829  0.3757 -0.8362 -0.7116
  321MOL0     H43276   1.335   7.197   1.106 -2.1571  0.0812 -0.4769
  321MOL0     H43277   1.395   7.335   1.002  0.6906  0.0632 -2.3648
  321MOL0     H43278   1.186   7.127   0.915  0.1471 -0.2970 -0.1611
  321MOL0     H43279   1.139   7.282   0.994  0.3122 -2.4491  1.5202
  321MOL0     H43280   1.307   7.370   0.802 -0.4196  0.9575 -2.3854
  321MOL0     H43281   1.263   7.222   0.718 -1.7741 -0.0874  0.5266
  321MOL0     H43282   1.078   7.436   0.804 -1.6378  2.1417 -2.7968
  321MOL0     H43283   1.008   7.290   0.757  0.1805 -0.5947  0.4178
  321MOL0     H43284   1.137   7.322   0.518 -1.5080  1.8089 -3.1648
  321MOL0     H43285   1.020   7.450   0.555 -0.6338 -0.6887  0.5027
  321MOL0     H43286   1.408   7.396   0.541  0.2066 -0.5921  1.5704
  321MOL0     H43287   1.573   7.703   0.616 -2.6367  2.7303 -3.0355
  321MOL0     H43288   1.611   7.551   0.514  1.6479  0.5615 -0.4463
  321MOL0     H43289   1.518   7.669   0.325 -1.5984 -2.9003  1.6469
  321MOL0     H43290   1.504   7.820   0.412  1.9459  0.0200 -0.1776
  321MOL0     H43291   1.758   7.656   0.356  0.8911  1.2862  1.0947
  321MOL0     H43292   1.754   7.794   0.470  3.1009  0.3847 -0.7885
  321MOL0     H43293   1.706   7.784   0.164 -0.3776  0.0746  0.9543
  321MOL0     H43294   1.857   7.843   0.229  1.1035 -1.0846 -1.5305
  321MOL0     H43295   1.505   8.123   0.234  0.8604 -0.4305  1.0118
  321MOL0     H43296   1.498   8.309   0.065  0.6983  0.9530 -4.1185
  321MOL0     H43297   1.822   8.267  -0.512 -0.2198  0.5641 -1.6227
  321MOL0     H43298   1.839   8.400  -0.702  1.2323 -1.6191  1.6642
  321MOL0     H43299   1.779   8.595  -0.914 -1.4444  0.4916 -1.6252
  321MOL0     H43300   1.645   8.507  -0.846  0.0130  0.8245 -2.2065
  321MOL0     H43301   1.656   8.805  -0.928  0.1940 -0.7967 -1.4460
  321MOL0     H43302   1.585   8.670  -1.020  0.1715  1.5849 -0.0442
  321MOL0     H43303   1.429   8.641  -0.811  0.9086 -0.5102 -0.1141
  321MOL0     H43304   1.482   8.799  -0.754 -0.9688  3.9931 -2.3796
  321MOL0     H43305   1.355   8.739  -1.029  0.4445 -2.6276  1.4570
  321MOL0     H43306   1.383   8.898  -0.967 -1.1639  0.6254  0.5421
  321MOL0     H43307   1.228   8.860  -0.780  0.1340 -2.7684  1.9602
  321MOL0     H43308   1.223   8.691  -0.807 -1.7679  0.7804  1.8324
  321MOL0     H43309   1.111   8.895  -1.026 -4.6194 -0.0565  1.7621
  321MOL0     H43310   1.125   8.719  -1.036  3.7076 -1.1475 -0.3417
  321MOL0     H43311   0.993   8.728  -0.815  3.6481 -2.5863 -2.8504
  321MOL0     H43312   0.897   8.780  -0.956  0.2302  1.1108 -1.1994
  321MOL0     H43313   0.870   8.911  -0.745  1.4811 -0.0905  1.9202
  321MOL0     H43314   1.040   8.967  -0.789 -1.0335  1.0575 -0.8956
  321MOL0     H43315   1.616   8.712  -0.496 -3.9502 -2.7875  1.4869
  321MOL0     H43316   1.630   8.582  -0.290  0.7343  0.4428  1.3477
  321MOL0     H43317   1.834   8.149  -0.137  0.6802  2.1921  0.5202
  321MOL0     H43318   1.856   7.978   0.030 -1.9121 -3.3077  1.5480
  321MOL0     H43319   1.900   6.918   0.844  0.1940  0.0777  1.1350
  321MOL0     H43320   2.133   6.944   0.733 -0.4876 -0.9339  0.3242
  321MOL0     H43321   2.565   7.119   0.670  2.5903  1.0985 -0.3159
  321MOL0     H43322   2.768   7.231   0.581  0.8644 -1.4277 -2.9050
  321MOL0     H43323   2.714   7.607   0.361  2.1033  0.3866  2.3025
  321MOL0     H43324   2.745   7.497   0.224  3.3637  0.7560 -1.2148
  321MOL0     H43325   2.955   7.609   0.412  0.2835  0.8215 -0.0620
  321MOL0     H43326   2.922   7.664   0.245 -0.9298  1.7196  1.3805
  321MOL0     H43327   3.040   7.442   0.180  2.7997 -2.3035  0.5553
  321MOL0     H43328   3.042   7.426   0.370  0.5964  1.6978  1.0781
  321MOL0     H43329   3.148   7.678   0.280 -0.7231  0.6300 -0.0318
  321MOL0     H43330   3.211   7.567   0.391 -1.0286 -0.3760  0.1676
  321MOL0     H43331   3.424   7.416   0.062 -0.5355 -0.1703  0.2285
  321MOL0     H43332   2.505   7.468   0.330 -3.9953 -0.1352  0.9004
  321MOL0     H43333   2.269   7.373   0.298 -0.6796 -2.1282  1.2695
  321MOL0     H43334   2.194   7.370   0.448 -1.1578 -0.3951 -1.6074
  321MOL0     H43335   2.291   7.511   0.406  1.1730 -0.7526  0.9132
  322MOL0     O43336   2.092  11.334   6.362  0.6724 -0.0400 -0.2479
  322MOL0     C43337   2.082  11.456   6.379  0.0274 -0.5836  0.1345
  322MOL0     O43338   2.170  11.539   6.443  0.2076 -0.2962 -0.4996
  322MOL0     C43339   2.287  11.477   6.492  1.4067  0.2443 -0.2017
  322MOL0     C43340   2.390  11.435   6.407  0.6808  0.6860 -0.8206
  322MOL0     C43341   2.496  11.370   6.458  0.0382  0.3532 -0.5599
  322MOL0     C43342   2.518  11.351   6.595  0.3226  0.3320  1.0021
  322MOL0     O43343   2.644  11.330   6.640 -0.5726 -0.9943  0.1239
  322MOL0     C43344   2.668  11.274   6.767 -0.5935  0.1585 -0.3937
  322MOL0     C43345   2.783  11.172   6.749  0.0303  0.0591 -0.0514
  322MOL0     C43346   2.904  11.244   6.680  0.0188  0.3950  0.7416
  322MOL0     C43347   2.978  11.346   6.769  0.3641 -0.6030  0.5363
  322MOL0     C43348   3.112  11.390   6.707 -0.0502 -0.6498  0.0690
  322MOL0     C43349   3.182  11.510   6.773  1.1332 -0.1569  0.2447
  322MOL0     C43350   3.116  11.645   6.727  0.4090 -0.7779 -0.1513
  322MOL0     C43351   3.189  11.782   6.771  0.6799  0.4797  0.8618
  322MOL0     N43352   3.329  11.776   6.736 -0.2199  1.3372  0.4490
  322MOL0     C43353   3.376  11.743   6.608  0.1940  0.0411 -0.5491
  322MOL0     C43354   3.509  11.745   6.622 -0.5661  0.4107 -0.3163
  322MOL0     C43355   3.609  11.736   6.513 -1.0369  0.1208 -0.9809
  322MOL0     C43356   3.734  11.830   6.553  0.5277  0.1265  0.1647
  322MOL0     C43357   3.838  11.840   6.448 -0.0868 -0.5777  0.3995
  322MOL0     C43358   3.960  11.929   6.474  0.5540  0.4235 -0.2536
  322MOL0     O43359   3.923  12.064   6.501 -0.2895 -0.3266  0.6346
  322MOL0     C43360   3.916  12.158   6.399 -0.0222 -0.5455 -0.7854
  322MOL0     C43361   3.805  12.241   6.391 -0.3545  0.3403  0.4997
  322MOL0     C43362   3.794  12.337   6.291 -0.5820 -0.2658  0.1778
  322MOL0     C43363   3.896  12.351   6.193  0.3384 -0.2777 -0.0615
  322MOL0     C43364   3.893  12.450   6.086  0.5221  0.2052  0.8747
  322MOL0     O43365   3.997  12.438   5.990  0.4652 -0.2773 -0.8145
  322MOL0     C43366   3.982  12.522   5.883  0.0230 -0.6282  0.0850
  322MOL0     C43367   4.005  12.657   5.906  0.1920 -0.3029  0.6517
  322MOL0     C43368   4.021  12.746   5.803 -0.6861 -0.0845  0.4571
  322MOL0     C43369   3.991  12.702   5.669 -0.7504  1.0359  0.1893
  322MOL0     O43370   3.984  12.794   5.564 -0.3873  0.4756 -0.3896
  322MOL0     C43371   4.090  12.893   5.568  0.9701 -1.1234 -0.5958
  322MOL0     C43372   4.150  12.912   5.430  0.3593 -0.8070  0.2617
  322MOL0     C43373   4.231  12.797   5.377  0.0042 -0.1115  0.5070
  322MOL0     C43374   4.276  12.848   5.238 -0.3547 -0.5354  0.1229
  322MOL0     C43375   4.353  12.740   5.167 -0.0738 -0.0952 -0.3745
  322MOL0     C43376   4.500  12.715   5.220 -0.1637 -0.8717 -0.5128
  322MOL0     C43377   4.597  12.839   5.218  0.6506  0.1679 -0.9534
  322MOL0     C43378   4.618  12.912   5.086  0.6206 -0.1075  0.3148
  322MOL0    Cl43379   4.720  12.818   4.976  0.1455  0.2831 -0.3463
  322MOL0     C43380   3.953  12.572   5.649  0.8500 -0.7297 -0.3557
  322MOL0     C43381   3.960  12.479   5.751 -0.5403 -0.0974  0.4023
  322MOL0     O43382   3.806  12.537   6.083  0.6417 -0.3709  0.2086
  322MOL0     C43383   4.004  12.261   6.199  0.1850  0.1151  0.5466
  322MOL0     C43384   4.018  12.173   6.305 -0.0600  0.0384  0.8077
  322MOL0     N43385   3.532  11.748   6.759 -0.5154 -0.5178  0.3371
  322MOL0     N43386   3.427  11.769   6.828 -0.1187  0.9121 -0.8133
  322MOL0     C43387   2.412  11.387   6.677 -0.5476 -0.2571  1.2601
  322MOL0     C43388   2.303  11.451   6.627  0.0883  0.3264  0.5677
  322MOL0     C43389   1.986  11.536   6.290 -0.2709  0.3176  0.3944
  322MOL0     C43390   1.973  11.675   6.318 -0.9842 -0.4246  0.5152
  322MOL0     C43391   1.879  11.759   6.247 -0.0933 -0.0812  1.4947
  322MOL0     C43392   1.793  11.704   6.150 -1.5480  0.8924 -0.0821
  322MOL0     O43393   1.702  11.769   6.071  1.0571  0.8073  0.0093
  322MOL0     C43394   1.661  11.908   6.085  0.2570  0.0333 -0.7184
  322MOL0     C43395   1.688  11.974   5.956 -1.0372  0.1369 -0.5602
  322MOL0     C43396   1.663  12.124   5.960  0.0513  0.4371  1.0209
  322MOL0     C43397   1.681  12.187   5.822  0.0215 -0.4553 -0.0526
  322MOL0     C43398   1.576  12.145   5.724  0.9021  0.7176 -0.7657
  322MOL0     C43399   1.509  12.105   5.629 -0.4256  0.1861 -0.5685
  322MOL0     C43400   1.802  11.577   6.124 -0.9678 -0.2744  0.4717
  322MOL0     C43401   1.901  11.489   6.191  0.3522  0.7374 -0.0775
  322MOL0     C43402   1.902  11.341   6.151  0.7383  0.7756  0.0185
  322MOL0     H43403   2.387  11.460   6.301 -0.9708  2.1559 -0.4699
  322MOL0     H43404   2.581  11.356   6.392  1.3506 -1.6754  1.4381
  322MOL0     H43405   2.692  11.356   6.835 -3.9942  0.5494  0.5039
  322MOL0     H43406   2.576  11.221   6.794 -0.1549 -1.2149 -1.4726
  322MOL0     H43407   2.739  11.090   6.691  2.6671 -0.2636 -1.7806
  322MOL0     H43408   2.809  11.139   6.849 -0.4881 -0.1360  0.0219
  322MOL0     H43409   2.879  11.287   6.582  3.0866  1.3554  0.2688
  322MOL0     H43410   2.985  11.175   6.655  0.3359  1.6776 -2.2196
  322MOL0     H43411   2.919  11.438   6.768  0.3954 -0.5759  0.9619
  322MOL0     H43412   2.991  11.317   6.874  0.3431  0.8973  0.9750
  322MOL0     H43413   3.179  11.304   6.704 -0.3181 -0.8385 -2.2660
  322MOL0     H43414   3.090  11.423   6.605 -1.1684 -0.2935  0.4070
  322MOL0     H43415   3.179  11.499   6.882  0.0873  0.3184  0.2704
  322MOL0     H43416   3.282  11.503   6.729 -0.2230 -0.1734 -3.1134
  322MOL0     H43417   3.011  11.660   6.755 -0.6402 -1.9291 -3.1353
  322MOL0     H43418   3.098  11.649   6.619 -0.5626  0.4285  0.0320
  322MOL0     H43419   3.138  11.859   6.713 -0.1134 -1.9870 -1.9257
  322MOL0     H43420   3.181  11.803   6.878 -0.8078 -1.1966  1.1155
  322MOL0     H43421   3.316  11.735   6.518  0.2358  3.3184 -1.0197
  322MOL0     H43422   3.642  11.632   6.520  0.0479  0.5386  0.7813
  322MOL0     H43423   3.568  11.759   6.414 -0.1705 -2.1806 -1.9365
  322MOL0     H43424   3.693  11.928   6.579 -0.9628 -0.0035 -1.5270
  322MOL0     H43425   3.791  11.802   6.642 -0.0063  3.0310  1.5565
  322MOL0     H43426   3.795  11.879   6.355 -0.3280 -2.6681 -0.4265
  322MOL0     H43427   3.877  11.739   6.433  0.6552 -0.5845  2.1556
  322MOL0     H43428   4.037  11.916   6.398  0.2782 -4.3988 -0.0374
  322MOL0     H43429   4.008  11.889   6.563  0.8059  0.3704 -0.4129
  322MOL0     H43430   3.727  12.227   6.464 -0.8437 -1.3512 -0.3059
  322MOL0     H43431   3.709  12.404   6.287 -1.1328 -0.8940  1.0337
  322MOL0     H43432   4.007  12.696   6.007 -0.2377 -1.7878  1.2702
  322MOL0     H43433   4.036  12.853   5.807 -1.2233  0.0239 -0.1930
  322MOL0     H43434   4.039  12.981   5.608  0.0389 -1.6192 -0.6528
  322MOL0     H43435   4.173  12.865   5.634  1.8296 -3.1982 -2.4323
  322MOL0     H43436   4.067  12.940   5.365 -0.7565 -2.2622  1.0063
  322MOL0     H43437   4.222  12.995   5.435 -1.7378  1.2375 -1.3734
  322MOL0     H43438   4.327  12.785   5.429  0.3348  1.2667  0.2537
  322MOL0     H43439   4.180  12.701   5.383 -1.0223  0.4825  2.0546
  322MOL0     H43440   4.337  12.939   5.239  0.6897 -1.0842 -3.0763
  322MOL0     H43441   4.184  12.863   5.180 -0.3952 -2.6740 -0.4252
  322MOL0     H43442   4.362  12.751   5.059 -0.9432 -0.3678 -0.4831
  322MOL0     H43443   4.292  12.651   5.185 -1.4647  1.5370  4.7398
  322MOL0     H43444   4.483  12.670   5.318 -2.9527 -0.5989 -0.7904
  322MOL0     H43445   4.552  12.642   5.156  0.5593  1.5970 -2.9640
  322MOL0     H43446   4.693  12.813   5.264  0.1304  2.6504  1.8588
  322MOL0     H43447   4.549  12.909   5.287  0.2843 -2.5909  1.8260
  322MOL0     H43448   4.525  12.953   5.047  1.6735  5.1759  2.5027
  322MOL0     H43449   4.681  13.001   5.099 -0.3872  0.5361  0.8871
  322MOL0     H43450   3.943  12.545   5.544  0.6061  1.5582 -0.9658
  322MOL0     H43451   3.940  12.373   5.737 -1.1979 -0.3168  2.5949
  322MOL0     H43452   4.079  12.261   6.121 -0.8752  0.5963 -0.4951
  322MOL0     H43453   4.112  12.119   6.311  0.4041  0.8348  0.8900
  322MOL0     H43454   2.423  11.394   6.784  1.1933  0.3501  1.0711
  322MOL0     H43455   2.221  11.472   6.695 -0.5070 -4.7690  1.8476
  322MOL0     H43456   2.035  11.721   6.393  2.7165 -2.9409 -0.7328
  322MOL0     H43457   1.882  11.865   6.267 -0.4444  0.0236  1.0048
  322MOL0     H43458   1.705  11.963   6.169 -1.4875 -3.8033  3.1145
  322MOL0     H43459   1.553  11.907   6.105  0.6931  2.4801  2.6185
  322MOL0     H43460   1.614  11.944   5.881 -2.4329  1.4920  0.1994
  322MOL0     H43461   1.786  11.945   5.917  0.4828  2.3527  1.3355
  322MOL0     H43462   1.726  12.180   6.031  1.5079  1.0349 -0.6590
  322MOL0     H43463   1.558  12.132   5.988 -0.2198  0.3296  0.0477
  322MOL0     H43464   1.659  12.294   5.834 -2.0874 -1.1309  3.0419
  322MOL0     H43465   1.783  12.169   5.785 -0.4125 -1.2356 -0.8954
  322MOL0     H43466   1.471  12.068   5.536  0.3714  2.2282 -1.7723
  322MOL0     H43467   1.739  11.529   6.050 -1.0788  1.2485 -0.4669
  322MOL0     H43468   2.000  11.302   6.123 -0.1528 -0.4481 -1.5606
  322MOL0     H43469   1.853  11.281   6.228 -0.6198  0.8763 -0.7369
  322MOL0     H43470   1.846  11.333   6.057  0.6836  1.7860 -0.0480
  323MOL0     O43471   1.320   1.958   6.746  0.1122 -0.7554 -0.1628
  323MOL0     C43472   1.209   1.914   6.713  0.2557  0.1396 -0.1918
  323MOL0     O43473   1.091   1.967   6.759  0.6871 -0.6575  0.3322
  323MOL0     C43474   1.088   2.083   6.836  0.3069 -1.0257 -0.2308
  323MOL0     C43475   1.035   2.077   6.958  0.3383  0.4422  0.0095
  323MOL0     C43476   1.028   2.188   7.045 -0.0562  0.4169  0.4432
  323MOL0     C43477   1.091   2.313   7.006  0.2780 -1.0464 -0.2720
  323MOL0     O43478   1.088   2.424   7.096 -0.2110 -0.6829  0.0339
  323MOL0     C43479   1.058   2.555   7.039  0.1138 -0.2327  0.4135
  323MOL0     C43480   0.937   2.631   7.106  0.2787  0.5063  0.6006
  323MOL0     C43481   0.805   2.552   7.096 -0.5667  0.1127  0.6503
  323MOL0     C43482   0.708   2.558   7.208 -1.2440  0.3519  1.1140
  323MOL0     C43483   0.756   2.499   7.331  0.2818  0.4727  0.3398
  323MOL0     C43484   0.791   2.350   7.337 -0.8843  0.1887  0.0041
  323MOL0     C43485   0.844   2.297   7.470  0.6414 -0.0142  0.4392
  323MOL0     C43486   0.992   2.334   7.483  0.6371 -0.5009  0.4240
  323MOL0     N43487   1.077   2.265   7.580 -0.6377  0.7260  0.5594
  323MOL0     C43488   1.214   2.239   7.565 -0.5661 -0.1013 -0.7295
  323MOL0     C43489   1.242   2.145   7.658 -0.4844  0.2787  0.0511
  323MOL0     C43490   1.376   2.085   7.689  0.5288  0.6305 -0.4426
  323MOL0     C43491   1.481   2.180   7.757 -0.2182 -0.4551  0.1758
  323MOL0     C43492   1.419   2.250   7.878 -0.3457 -0.9415  0.2630
  323MOL0     C43493   1.512   2.308   7.980 -0.2407 -1.0120 -0.9268
  323MOL0     O43494   1.596   2.404   7.924 -0.1019  0.0130  0.4708
  323MOL0     C43495   1.700   2.464   7.999 -1.1732  0.0587  0.3773
  323MOL0     C43496   1.717   2.442   8.133 -0.3296  0.8449 -0.3054
  323MOL0     C43497   1.822   2.499   8.200  0.6743 -0.0123 -0.1292
  323MOL0     C43498   1.925   2.569   8.123  0.2210  0.5112  0.7552
  323MOL0     C43499   2.040   2.638   8.183  1.0309  0.2035  0.1801
  323MOL0     O43500   2.167   2.632   8.125  0.7350 -0.1105  0.1879
  323MOL0     C43501   2.272   2.677   8.202 -0.6817  0.7526  0.0734
  323MOL0     C43502   2.335   2.794   8.163 -0.0294 -0.0960 -0.6949
  323MOL0     C43503   2.450   2.827   8.230 -1.7113  0.4849  0.0697
  323MOL0     C43504   2.512   2.751   8.333 -0.0381  0.1629 -0.1204
  323MOL0     O43505   2.629   2.788   8.394 -0.1014 -0.0909  0.4072
  323MOL0     C43506   2.621   2.811   8.533 -0.7046 -0.5977  0.1377
  323MOL0     C43507   2.513   2.915   8.554 -0.8742 -0.4281 -0.0884
  323MOL0     C43508   2.477   2.924   8.706 -0.9068  0.0590 -0.4758
  323MOL0     C43509   2.340   2.968   8.750  0.6673  0.2162 -0.4207
  323MOL0     C43510   2.330   2.960   8.900  0.0647  0.4003 -0.3923
  323MOL0     C43511   2.190   2.983   8.965  0.4528  0.5073  0.7521
  323MOL0     C43512   2.186   2.983   9.120  0.0502  0.2316  0.3002
  323MOL0     C43513   2.046   2.980   9.178 -0.4824  0.0526 -0.3844
  323MOL0    Cl43514   2.045   2.815   9.247 -0.8395 -0.2627  0.4424
  323MOL0     C43515   2.438   2.643   8.368  0.5003  0.2188  0.2687
  323MOL0     C43516   2.319   2.606   8.310 -1.5409 -0.0403  0.2235
  323MOL0     O43517   2.018   2.666   8.296  0.7555 -0.6120 -0.1439
  323MOL0     C43518   1.911   2.591   7.985  0.6123  0.0340 -0.5895
  323MOL0     C43519   1.796   2.539   7.929  0.8360 -0.3492  0.7786
  323MOL0     N43520   1.126   2.114   7.729 -0.0105  0.3499 -1.0153
  323MOL0     N43521   1.030   2.192   7.685 -0.5916  0.4302  1.1417
  323MOL0     C43522   1.146   2.321   6.882  0.4469 -0.1399  1.5249
  323MOL0     C43523   1.147   2.207   6.797 -0.9990 -0.4513 -0.0477
  323MOL0     C43524   1.196   1.805   6.611 -0.1349  0.4565  0.1922
  323MOL0     C43525   1.065   1.778   6.554 -0.5419 -0.8571 -0.4196
  323MOL0     C43526   1.047   1.674   6.467  0.7677  0.7830 -0.1227
  323MOL0     C43527   1.158   1.592   6.425  0.2161 -1.1227 -0.0579
  323MOL0     O43528   1.153   1.508   6.318 -0.3513  0.1536  0.5434
  323MOL0     C43529   1.023   1.458   6.273  0.3667  0.2408 -0.0423
  323MOL0     C43530   1.039   1.356   6.164  0.2869 -0.0751 -0.9235
  323MOL0     C43531   0.926   1.335   6.073 -0.1371 -0.4936 -0.6359
  323MOL0     C43532   0.940   1.203   5.996 -0.0220 -1.0578  0.7140
  323MOL0     C43533   0.830   1.189   5.890 -0.9573 -0.8914  0.0029
  323MOL0     C43534   0.755   1.162   5.794  0.2680 -0.6033  0.3733
  323MOL0     C43535   1.284   1.619   6.483 -1.2294  0.2561  0.2240
  323MOL0     C43536   1.304   1.714   6.581 -0.2043  0.6437 -0.3389
  323MOL0     C43537   1.436   1.732   6.640 -0.3288 -0.0057 -0.4094
  323MOL0     H43538   0.996   1.985   6.999 -4.1414  1.4708 -1.3367
  323MOL0     H43539   0.979   2.172   7.140 -2.2887 -2.3596 -1.0375
  323MOL0     H43540   1.141   2.621   7.064 -0.1575  0.0139  0.6756
  323MOL0     H43541   1.050   2.556   6.930 -2.9092 -0.2147  0.5501
  323MOL0     H43542   0.934   2.729   7.058 -1.2085  0.7465  1.1247
  323MOL0     H43543   0.971   2.644   7.209 -0.7244 -1.6088  1.2700
  323MOL0     H43544   0.817   2.447   7.070  0.7599 -0.2781  2.6101
  323MOL0     H43545   0.760   2.588   7.004 -0.1794 -3.3742 -1.0411
  323MOL0     H43546   0.693   2.665   7.226 -2.1072  0.8291 -1.9053
  323MOL0     H43547   0.615   2.517   7.168 -0.2189  0.9680 -2.2176
  323MOL0     H43548   0.852   2.548   7.352 -0.0163  0.6861  1.2882
  323MOL0     H43549   0.689   2.513   7.417 -0.4949 -0.9866  0.0103
  323MOL0     H43550   0.704   2.284   7.325 -0.1442 -0.7670 -0.2359
  323MOL0     H43551   0.854   2.316   7.254  1.0318  0.3122  1.3536
  323MOL0     H43552   0.856   2.188   7.466  3.6025  0.0656  2.9787
  323MOL0     H43553   0.784   2.340   7.551  0.9691  1.9827 -0.3422
  323MOL0     H43554   1.036   2.327   7.383 -0.1111  1.0116 -0.0464
  323MOL0     H43555   0.989   2.438   7.518 -1.0770 -1.4057  3.2356
  323MOL0     H43556   1.288   2.276   7.495  2.3585 -1.8096  1.2359
  323MOL0     H43557   1.358   2.001   7.757  1.3391 -0.3697 -1.4246
  323MOL0     H43558   1.421   2.051   7.595 -1.3203  0.6958 -1.3967
  323MOL0     H43559   1.558   2.107   7.783  0.2043 -0.7105 -1.6406
  323MOL0     H43560   1.531   2.259   7.700  0.4650  0.0386  1.4320
  323MOL0     H43561   1.352   2.186   7.936  1.9537 -1.1172  2.9370
  323MOL0     H43562   1.364   2.338   7.843  0.3261 -0.2056  0.9787
  323MOL0     H43563   1.574   2.235   8.033 -2.3561 -0.9127  1.9044
  323MOL0     H43564   1.458   2.369   8.053  1.9220 -2.5010  2.1764
  323MOL0     H43565   1.643   2.392   8.195  1.0730  1.9835  2.4878
  323MOL0     H43566   1.842   2.494   8.306  0.5789 -1.8651 -0.1555
  323MOL0     H43567   2.295   2.869   8.096 -0.7272 -0.6230 -0.8859
  323MOL0     H43568   2.505   2.917   8.202  0.2291 -0.9639 -0.9573
  323MOL0     H43569   2.612   2.716   8.585  6.6886 -1.9627  0.0403
  323MOL0     H43570   2.719   2.849   8.563 -0.9130 -0.9322  1.2863
  323MOL0     H43571   2.551   3.010   8.516 -0.2167 -0.8708 -0.5572
  323MOL0     H43572   2.420   2.891   8.503 -2.0099  4.4215 -0.7640
  323MOL0     H43573   2.481   2.823   8.748 -0.8761  1.3506  2.9144
  323MOL0     H43574   2.555   2.986   8.750 -0.2805 -1.3482  0.4791
  323MOL0     H43575   2.262   2.901   8.714 -0.0394 -0.8017  2.7579
  323MOL0     H43576   2.308   3.069   8.720 -0.1759  1.2747  3.5073
  323MOL0     H43577   2.402   3.030   8.942  0.7591 -0.2788 -0.4084
  323MOL0     H43578   2.351   2.857   8.932 -1.3781  0.3578  0.5131
  323MOL0     H43579   2.160   3.085   8.937  1.0664  0.4228 -0.3060
  323MOL0     H43580   2.125   2.913   8.913  0.3729  0.1834  1.2823
  323MOL0     H43581   2.241   3.066   9.165 -0.9337  0.5758  0.9014
  323MOL0     H43582   2.248   2.896   9.146 -1.0337 -1.4569 -2.3469
  323MOL0     H43583   2.032   3.049   9.261 -1.6511  1.9749 -2.0885
  323MOL0     H43584   1.962   2.997   9.109  1.2135  4.3403 -1.7045
  323MOL0     H43585   2.468   2.575   8.447 -0.8612  2.7110  3.1083
  323MOL0     H43586   2.275   2.511   8.339 -0.8091 -0.9294 -1.4110
  323MOL0     H43587   1.993   2.634   7.929  0.5887 -1.5016 -1.8494
  323MOL0     H43588   1.771   2.540   7.823  0.1623  0.7727  0.9353
  323MOL0     H43589   1.176   2.418   6.843 -1.1977  0.4909  1.7374
  323MOL0     H43590   1.192   2.201   6.698 -4.8998  0.0606 -2.0148
  323MOL0     H43591   0.980   1.833   6.593  0.4697  1.3851 -1.2187
  323MOL0     H43592   0.947   1.678   6.423  0.7068  0.6725  0.0046
  323MOL0     H43593   0.954   1.534   6.234 -0.4725 -0.2898  0.3840
  323MOL0     H43594   0.976   1.409   6.359 -0.9375  1.3215 -0.1161
  323MOL0     H43595   1.066   1.259   6.208 -0.2078 -0.2528 -1.0135
  323MOL0     H43596   1.116   1.388   6.093 -0.9033 -0.4413 -2.4178
  323MOL0     H43597   0.929   1.402   5.987  2.4997 -1.3485 -1.2910
  323MOL0     H43598   0.836   1.341   6.135  0.9188 -1.3667  1.0836
  323MOL0     H43599   1.042   1.193   5.957  0.3740  0.4709  1.2678
  323MOL0     H43600   0.924   1.115   6.059  2.2114 -0.7686  1.7850
  323MOL0     H43601   0.700   1.162   5.702 -4.2909 -0.7212  2.8220
  323MOL0     H43602   1.369   1.558   6.452 -0.4937 -0.2465  2.9490
  323MOL0     H43603   1.437   1.737   6.749 -0.0393  0.1527 -0.4175
  323MOL0     H43604   1.506   1.649   6.623  0.8292  1.0607 -1.0425
  323MOL0     H43605   1.482   1.817   6.589 -2.5844  2.3709  1.2639
  324MOL0     O43606   4.257   6.845   6.997  0.0184  0.3294 -0.0628
  324MOL0     C43607   4.275   6.814   6.877  0.8892 -0.6282 -0.2859
  324MOL0     O43608   4.174   6.811   6.781  0.2733 -0.2785  0.2423
  324MOL0     C43609   4.040   6.791   6.806 -0.3959  1.1538  0.1232
  324MOL0     C43610   3.977   6.668   6.774  0.2597 -0.4468  0.7366
  324MOL0     C43611   3.842   6.646   6.805 -0.3086 -0.9128  0.1497
  324MOL0     C43612   3.769   6.745   6.865  0.2603 -0.0064  0.1784
  324MOL0     O43613   3.629   6.726   6.875  0.1918  0.2919 -0.1902
  324MOL0     C43614   3.544   6.837   6.856  0.5441 -0.4062 -0.8530
  324MOL0     C43615   3.394   6.792   6.845  0.0976  0.0085 -0.5703
  324MOL0     C43616   3.332   6.783   6.991  1.0958 -0.4063 -0.0673
  324MOL0     C43617   3.191   6.729   6.992  0.5319 -0.0914  0.7472
  324MOL0     C43618   3.170   6.581   6.947 -0.0860  0.5670 -0.2394
  324MOL0     C43619   3.255   6.478   7.030 -0.2244 -0.1111 -1.3527
  324MOL0     C43620   3.401   6.432   6.982  0.0582 -0.9297  0.2344
  324MOL0     C43621   3.395   6.357   6.849 -0.5339  0.0101 -0.3509
  324MOL0     N43622   3.521   6.329   6.795  0.4009 -0.2581 -0.3541
  324MOL0     C43623   3.605   6.238   6.841  0.0364  0.0323 -1.3142
  324MOL0     C43624   3.713   6.255   6.759  0.1020  0.5156 -0.9678
  324MOL0     C43625   3.839   6.170   6.757 -0.1977  0.4192  0.3332
  324MOL0     C43626   3.939   6.203   6.646  0.3900  0.5556  0.5121
  324MOL0     C43627   4.064   6.108   6.651  0.3501  0.2578 -0.8412
  324MOL0     C43628   4.117   6.092   6.505  0.2593 -0.1796  0.3765
  324MOL0     O43629   4.044   5.989   6.428 -0.6747 -0.5099  0.1455
  324MOL0     C43630   4.095   5.948   6.313  0.3189 -0.4424  1.0165
  324MOL0     C43631   4.199   6.005   6.234 -0.0299  0.0566 -0.8203
  324MOL0     C43632   4.246   5.960   6.109 -0.3254  0.1621 -0.2288
  324MOL0     C43633   4.179   5.856   6.057 -0.1856  0.5009  0.4430
  324MOL0     C43634   4.224   5.803   5.926  0.3484 -0.1499  0.8230
  324MOL0     O43635   4.157   5.705   5.872 -0.4499  0.7200 -0.4500
  324MOL0     C43636   4.217   5.628   5.770  0.1942 -1.0546 -0.8751
  324MOL0     C43637   4.211   5.663   5.636  0.8300 -0.7401 -0.2467
  324MOL0     C43638   4.258   5.576   5.534  0.5521  0.1187  0.3501
  324MOL0     C43639   4.327   5.460   5.568 -0.5071 -0.2511  0.8553
  324MOL0     O43640   4.373   5.391   5.464 -0.2582  0.4882  0.2021
  324MOL0     C43641   4.373   5.248   5.485 -0.5211 -0.6033 -0.2795
  324MOL0     C43642   4.302   5.183   5.377 -0.7199  0.7089  0.6024
  324MOL0     C43643   4.150   5.203   5.394  0.0411  0.8668 -0.4573
  324MOL0     C43644   4.074   5.130   5.276 -0.2894 -1.1343  0.0063
  324MOL0     C43645   3.918   5.135   5.313 -0.0420  0.4977 -0.2579
  324MOL0     C43646   3.861   4.993   5.337 -0.9215 -0.6901  0.6565
  324MOL0     C43647   3.703   4.998   5.355  0.3385  0.6651 -0.1076
  324MOL0     C43648   3.647   4.858   5.345  0.5818 -0.1482  0.0596
  324MOL0    Cl43649   3.632   4.840   5.170  0.2796 -0.2798 -0.5393
  324MOL0     C43650   4.351   5.436   5.707 -1.0440  0.1199 -0.3168
  324MOL0     C43651   4.295   5.522   5.807  0.8275 -0.5376 -0.3967
  324MOL0     O43652   4.319   5.854   5.879 -0.1925  0.1968 -0.1547
  324MOL0     C43653   4.061   5.803   6.122 -0.7508 -0.1311 -0.2715
  324MOL0     C43654   4.030   5.846   6.250  0.0422 -0.0784  0.2466
  324MOL0     N43655   3.680   6.337   6.650  0.7725  0.3182 -1.0600
  324MOL0     N43656   3.566   6.381   6.683  0.3345 -0.0182  0.2015
  324MOL0     C43657   3.828   6.872   6.889 -0.1429 -0.1539 -0.3530
  324MOL0     C43658   3.971   6.889   6.871  0.0423  0.2108  0.8911
  324MOL0     C43659   4.413   6.810   6.828 -0.3463 -1.1434 -0.5860
  324MOL0     C43660   4.436   6.848   6.692  0.3611  0.4616  0.5883
  324MOL0     C43661   4.562   6.867   6.636 -0.8349 -0.6681 -0.1164
  324MOL0     C43662   4.679   6.826   6.713  1.0468  0.6871 -0.4394
  324MOL0     O43663   4.814   6.829   6.677 -0.2237  0.1669 -0.1643
  324MOL0     C43664   4.857   6.905   6.561  0.2475  0.0142 -0.0533
  324MOL0     C43665   5.008   6.912   6.573 -0.7901 -0.1744 -0.3533
  324MOL0     C43666   5.058   6.963   6.438  0.0378  0.2191  0.1708
  324MOL0     C43667   5.214   7.002   6.461 -1.3356 -1.0682  0.1041
  324MOL0     C43668   5.232   7.136   6.532 -0.5159  0.3148 -0.2439
  324MOL0     C43669   5.218   7.240   6.594  0.1008  0.6194 -0.1945
  324MOL0     C43670   4.655   6.782   6.844  0.2034 -0.1734 -0.2744
  324MOL0     C43671   4.526   6.778   6.900 -0.6080 -0.9115  0.4476
  324MOL0     C43672   4.530   6.752   7.045  0.0005  0.4947 -0.0432
  324MOL0     H43673   4.041   6.597   6.723  2.4914  0.1216  2.5632
  324MOL0     H43674   3.801   6.550   6.776 -1.4909  0.1371 -1.8559
  324MOL0     H43675   3.558   6.906   6.940  5.8028 -1.2870 -0.6853
  324MOL0     H43676   3.558   6.876   6.755 -0.3084 -0.7256 -1.1051
  324MOL0     H43677   3.392   6.701   6.784  1.3027 -1.2074  1.0980
  324MOL0     H43678   3.334   6.867   6.792 -4.0065 -2.6846 -0.1976
  324MOL0     H43679   3.340   6.884   7.033 -3.9343  0.2176  0.1089
  324MOL0     H43680   3.393   6.723   7.059  1.2548 -1.5023 -1.1447
  324MOL0     H43681   3.153   6.739   7.094  1.1349 -2.1315  1.2244
  324MOL0     H43682   3.125   6.787   6.927  0.9462 -1.6583 -1.1824
  324MOL0     H43683   3.063   6.568   6.964  0.1544  0.0582  0.9894
  324MOL0     H43684   3.190   6.569   6.840 -1.5761  0.0277 -0.4751
  324MOL0     H43685   3.261   6.499   7.137 -0.3003 -2.6328 -0.7915
  324MOL0     H43686   3.201   6.384   7.040  2.3745 -1.5983 -0.0315
  324MOL0     H43687   3.445   6.361   7.053  1.6016 -1.8708 -1.5921
  324MOL0     H43688   3.468   6.517   6.969  0.1847 -1.1310 -0.4752
  324MOL0     H43689   3.341   6.265   6.874  0.1129 -0.8504 -1.9890
  324MOL0     H43690   3.346   6.414   6.769 -0.5557 -1.7215 -1.6299
  324MOL0     H43691   3.602   6.182   6.934 -0.9875 -0.9641 -1.9310
  324MOL0     H43692   3.891   6.195   6.850 -0.9823  1.1008  0.6034
  324MOL0     H43693   3.810   6.065   6.754 -1.9093  0.5893  4.2452
  324MOL0     H43694   3.880   6.168   6.561  0.7030  2.0397 -0.3502
  324MOL0     H43695   3.963   6.309   6.635 -1.6284  0.9628 -0.4239
  324MOL0     H43696   4.036   6.010   6.693 -0.3448  0.9253  0.3011
  324MOL0     H43697   4.141   6.156   6.712 -0.0136 -1.3947  1.0602
  324MOL0     H43698   4.223   6.067   6.517  0.3535 -0.5897 -1.0445
  324MOL0     H43699   4.117   6.187   6.451 -3.4830 -0.3539 -0.2073
  324MOL0     H43700   4.248   6.088   6.284 -0.2341 -0.3662  0.0988
  324MOL0     H43701   4.333   6.009   6.066 -0.1103 -1.2310 -1.4717
  324MOL0     H43702   4.160   5.753   5.605  4.8012  1.8196 -0.1091
  324MOL0     H43703   4.267   5.600   5.429 -0.6390 -0.6935  0.0415
  324MOL0     H43704   4.477   5.214   5.484 -0.0682  0.2020 -5.0528
  324MOL0     H43705   4.325   5.223   5.580  0.5234  4.6803  2.0228
  324MOL0     H43706   4.334   5.231   5.284 -0.1502  0.7463  0.8128
  324MOL0     H43707   4.327   5.077   5.371  0.4792  1.0450 -3.6831
  324MOL0     H43708   4.108   5.168   5.489 -3.0433  1.7087 -1.3918
  324MOL0     H43709   4.116   5.307   5.389 -0.8508  0.5537 -1.3817
  324MOL0     H43710   4.117   5.030   5.264  3.0526  0.2165 -0.3418
  324MOL0     H43711   4.091   5.174   5.177 -1.1556 -0.3949  0.1719
  324MOL0     H43712   3.869   5.186   5.230 -1.0784  1.1746  0.7395
  324MOL0     H43713   3.896   5.197   5.401  0.2978  0.0535  0.1454
  324MOL0     H43714   3.886   4.935   5.247 -1.7408 -0.7536  0.4585
  324MOL0     H43715   3.908   4.951   5.426  0.1524  1.9459  1.4421
  324MOL0     H43716   3.672   5.069   5.278  1.2500  2.2853  0.9676
  324MOL0     H43717   3.670   5.053   5.444 -2.9384 -0.5577 -0.4255
  324MOL0     H43718   3.712   4.788   5.398 -1.1467  0.5234  3.3511
  324MOL0     H43719   3.550   4.841   5.392 -1.0726 -2.0486 -3.5796
  324MOL0     H43720   4.404   5.344   5.729  3.0208  2.5030  0.8262
  324MOL0     H43721   4.304   5.501   5.913 -0.5402  2.1433  0.3143
  324MOL0     H43722   4.013   5.717   6.077  0.8575 -0.7676 -0.8428
  324MOL0     H43723   3.937   5.812   6.294 -0.2541  0.6808  0.2275
  324MOL0     H43724   3.776   6.960   6.924  0.7725 -0.8413  3.1370
  324MOL0     H43725   4.028   6.979   6.891  1.0879  0.5052 -2.6990
  324MOL0     H43726   4.353   6.872   6.626 -1.1754 -1.7043  1.5863
  324MOL0     H43727   4.578   6.898   6.534  1.2436  0.3397  0.4699
  324MOL0     H43728   4.819   7.007   6.559  0.2556  0.0299  0.5177
  324MOL0     H43729   4.834   6.859   6.464 -0.8059 -0.3451  0.3480
  324MOL0     H43730   5.051   6.816   6.605 -0.6528  1.3786  5.0697
  324MOL0     H43731   5.028   6.987   6.650 -1.9810 -1.8460  1.6825
  324MOL0     H43732   4.998   7.045   6.397  0.3193 -0.6036 -2.0071
  324MOL0     H43733   5.034   6.885   6.365 -0.8486  1.5349 -0.9941
  324MOL0     H43734   5.272   6.926   6.514  2.8397  0.9988 -1.0668
  324MOL0     H43735   5.272   7.013   6.369  0.1865 -1.1950  1.0125
  324MOL0     H43736   5.186   7.327   6.648  1.1947 -0.3250  2.1049
  324MOL0     H43737   4.746   6.762   6.900  1.8001  2.0346 -1.8940
  324MOL0     H43738   4.448   6.685   7.073  1.0774 -0.6025  0.5135
  324MOL0     H43739   4.623   6.698   7.066  0.9672  2.2017  0.2446
  324MOL0     H43740   4.538   6.839   7.112  2.0595  0.0082  0.4002
  325MOL0     O43741   4.528   5.310  10.206  0.5403  0.4508  0.2398
  325MOL0     C43742   4.468   5.414  10.228 -1.4093  0.4397  0.0117
  325MOL0     O43743   4.358   5.435  10.309 -0.8322 -0.6791 -0.5020
  325MOL0     C43744   4.303   5.321  10.371 -0.5345 -0.0663 -0.1270
  325MOL0     C43745   4.341   5.295  10.508 -0.5735  0.1717  0.2699
  325MOL0     C43746   4.291   5.193  10.579 -0.6635 -0.6586  0.4387
  325MOL0     C43747   4.216   5.101  10.515  0.0257  0.4302 -0.2217
  325MOL0     O43748   4.153   4.997  10.576 -0.4138  0.3145  0.4500
  325MOL0     C43749   4.247   4.887  10.595 -0.2192  1.1584  1.0058
  325MOL0     C43750   4.251   4.777  10.485 -0.0787 -0.1049 -0.6936
  325MOL0     C43751   4.144   4.667  10.511 -0.2913  0.8409  0.3894
  325MOL0     C43752   4.123   4.571  10.386 -1.1017  0.0804 -0.4318
  325MOL0     C43753   4.071   4.427  10.435  0.1492 -0.6202  0.3888
  325MOL0     C43754   3.934   4.431  10.484  0.0010  0.2032 -0.3318
  325MOL0     C43755   3.831   4.409  10.373 -0.2613  0.2139  0.3292
  325MOL0     C43756   3.711   4.355  10.445  0.4806  0.8955  1.5484
  325MOL0     N43757   3.601   4.346  10.347 -0.1729 -0.4583 -1.0995
  325MOL0     C43758   3.591   4.259  10.244 -0.4258 -0.8953  0.3090
  325MOL0     C43759   3.459   4.287  10.205 -0.3322  0.1238  0.0866
  325MOL0     C43760   3.382   4.214  10.098 -0.0565 -1.1504  0.2821
  325MOL0     C43761   3.291   4.305  10.012 -0.2861 -1.3931  0.1175
  325MOL0     C43762   3.232   4.226   9.900  0.3350 -0.8192  0.3987
  325MOL0     C43763   3.154   4.308   9.795 -0.7807  0.0993 -0.3687
  325MOL0     O43764   3.132   4.224   9.678 -0.2516  0.5550 -0.1388
  325MOL0     C43765   3.027   4.267   9.588  0.3040  0.1628 -0.6382
  325MOL0     C43766   2.979   4.183   9.484 -0.2880  0.4216  0.2508
  325MOL0     C43767   2.878   4.225   9.392 -0.2585 -0.3859  0.2349
  325MOL0     C43768   2.808   4.345   9.423  0.5821 -0.0897  0.3337
  325MOL0     C43769   2.685   4.393   9.354 -0.1052 -0.0042 -0.3308
  325MOL0     O43770   2.631   4.286   9.287 -0.4221 -0.0390 -0.0432
  325MOL0     C43771   2.515   4.310   9.228  1.5017 -0.2808  0.4049
  325MOL0     C43772   2.392   4.363   9.299  0.1610  0.7351  1.0944
  325MOL0     C43773   2.283   4.388   9.215  0.1427  0.7794 -0.9357
  325MOL0     C43774   2.280   4.365   9.078 -0.0265  0.5592 -0.3528
  325MOL0     O43775   2.160   4.400   9.032  0.2041 -0.2361  0.7702
  325MOL0     C43776   2.123   4.369   8.896  0.5499  0.7893 -0.3491
  325MOL0     C43777   1.961   4.368   8.872 -0.5132  0.1465  0.7414
  325MOL0     C43778   1.893   4.229   8.891  0.1429 -0.4720  0.4788
  325MOL0     C43779   1.867   4.216   9.039 -0.0096  1.0318  0.1190
  325MOL0     C43780   1.757   4.114   9.085  0.1338 -0.1259 -0.1830
  325MOL0     C43781   1.790   3.977   9.030 -0.1275  0.3993  0.4288
  325MOL0     C43782   1.680   3.869   9.083 -0.7451 -0.4103  0.7528
  325MOL0     C43783   1.672   3.737   9.001 -0.4980 -0.4479 -0.5124
  325MOL0    Cl43784   1.595   3.616   9.101 -0.2974  0.3531 -0.7021
  325MOL0     C43785   2.399   4.322   9.016 -0.5396 -0.1910  0.8138
  325MOL0     C43786   2.507   4.283   9.091 -0.0868  0.6778  0.5631
  325MOL0     O43787   2.659   4.510   9.341  0.1080 -0.0191  0.4742
  325MOL0     C43788   2.849   4.420   9.530  0.4852 -0.2934 -0.1910
  325MOL0     C43789   2.962   4.396   9.600  1.1765  0.7249 -0.5735
  325MOL0     N43790   3.405   4.391  10.265  0.2343  0.0272  0.8323
  325MOL0     N43791   3.493   4.423  10.356 -0.7697  0.2203  0.2292
  325MOL0     C43792   4.172   5.128  10.383 -0.1556  0.2981 -0.3723
  325MOL0     C43793   4.219   5.235  10.304 -0.1097  0.3361 -0.5663
  325MOL0     C43794   4.535   5.540  10.181 -0.3236  0.2388  0.8187
  325MOL0     C43795   4.583   5.628  10.282  0.3648  0.0991 -0.1944
  325MOL0     C43796   4.635   5.752  10.242  0.2942 -0.7974 -0.0705
  325MOL0     C43797   4.631   5.791  10.107  0.3584 -0.1112 -0.1974
  325MOL0     O43798   4.639   5.923  10.066  0.4409  0.4717 -0.0350
  325MOL0     C43799   4.769   5.999  10.080 -0.0532 -0.3109 -0.0543
  325MOL0     C43800   4.867   5.984   9.971  0.4337  0.0396  0.5030
  325MOL0     C43801   4.995   5.915  10.025  0.2872 -0.0974  0.1160
  325MOL0     C43802   5.107   5.934   9.916  0.3627 -0.0816  0.1480
  325MOL0     C43803   5.223   5.855   9.956  0.3901 -0.0328 -1.0355
  325MOL0     C43804   5.314   5.777   9.986 -0.1334  0.5619 -0.1589
  325MOL0     C43805   4.599   5.697  10.012  0.1690 -0.4384 -0.3711
  325MOL0     C43806   4.571   5.565  10.050  0.0810  0.1328  0.4778
  325MOL0     C43807   4.543   5.464   9.941 -0.0473 -0.1097 -0.0463
  325MOL0     H43808   4.411   5.370  10.544 -1.1432  0.7852  0.1292
  325MOL0     H43809   4.327   5.181  10.681 -1.6322  1.1486  1.0271
  325MOL0     H43810   4.350   4.921  10.608 -0.3221  0.3249  5.2118
  325MOL0     H43811   4.222   4.827  10.683 -3.5067 -2.4876 -2.0349
  325MOL0     H43812   4.355   4.752  10.463  0.7714  2.3839  0.0894
  325MOL0     H43813   4.220   4.824  10.392 -0.9753  1.8299  0.5210
  325MOL0     H43814   4.054   4.727  10.524  0.3167  1.8847 -0.0017
  325MOL0     H43815   4.175   4.605  10.595 -1.4695  1.2942  1.1755
  325MOL0     H43816   4.058   4.616  10.310 -2.3582 -0.8646  0.0475
  325MOL0     H43817   4.225   4.548  10.354 -0.8519  2.3205 -1.3808
  325MOL0     H43818   4.080   4.344  10.365 -2.6845 -0.3344 -0.4361
  325MOL0     H43819   4.135   4.394  10.518 -0.5023  2.8328  2.4473
  325MOL0     H43820   3.925   4.358  10.564  1.6649 -2.9520 -2.8210
  325MOL0     H43821   3.897   4.523  10.531 -0.5390 -0.4468  0.5475
  325MOL0     H43822   3.865   4.340  10.295 -0.4893  0.3859  0.0758
  325MOL0     H43823   3.810   4.504  10.322  0.8950  0.6996  0.7156
  325MOL0     H43824   3.719   4.258  10.495  1.2137  0.2780  0.2769
  325MOL0     H43825   3.687   4.421  10.529  0.3215  1.3892  1.1219
  325MOL0     H43826   3.657   4.180  10.211  1.4131 -1.1327  4.0525
  325MOL0     H43827   3.454   4.160  10.035  0.9816  0.4547  0.0521
  325MOL0     H43828   3.312   4.152  10.156  0.6620 -1.4203  0.8712
  325MOL0     H43829   3.213   4.350  10.075  1.7621  1.2472  0.9774
  325MOL0     H43830   3.349   4.386   9.968 -3.1979  0.5449 -0.4013
  325MOL0     H43831   3.173   4.146   9.944  0.4777  0.6033  3.4296
  325MOL0     H43832   3.319   4.185   9.849  1.1624  1.7633 -0.4061
  325MOL0     H43833   3.216   4.397   9.778  0.6159 -0.8305 -0.2395
  325MOL0     H43834   3.061   4.340   9.844 -0.8357  0.8335 -0.9260
  325MOL0     H43835   3.047   4.099   9.475  0.2244  0.9513 -1.0065
  325MOL0     H43836   2.841   4.152   9.321 -0.9628 -0.8002  1.0006
  325MOL0     H43837   2.398   4.375   9.406  4.9700 -1.9391  1.4187
  325MOL0     H43838   2.192   4.424   9.263  0.5475 -1.3159  1.6230
  325MOL0     H43839   2.175   4.441   8.833  3.2700 -1.5597 -0.9696
  325MOL0     H43840   2.150   4.268   8.863 -2.7806 -0.0753 -0.8312
  325MOL0     H43841   1.910   4.450   8.924 -0.4992  1.1067 -0.6993
  325MOL0     H43842   1.941   4.396   8.769 -1.5772 -1.0125  0.6075
  325MOL0     H43843   1.793   4.237   8.846 -0.5195  0.6179  2.0427
  325MOL0     H43844   1.958   4.152   8.850  3.0598  2.2509 -0.4876
  325MOL0     H43845   1.834   4.303   9.097 -1.6248 -0.9684  2.4047
  325MOL0     H43846   1.963   4.191   9.084  0.9612  4.2895  0.1552
  325MOL0     H43847   1.658   4.148   9.054 -0.5503 -0.7406  1.2117
  325MOL0     H43848   1.757   4.116   9.195 -0.7567  0.1759 -0.1791
  325MOL0     H43849   1.801   3.971   8.921 -2.1187 -0.3747  0.2207
  325MOL0     H43850   1.890   3.965   9.071  0.0855  0.3372 -0.0927
  325MOL0     H43851   1.576   3.900   9.075  0.2284  3.1062 -0.0677
  325MOL0     H43852   1.703   3.845   9.187  0.9232 -0.3086  0.4382
  325MOL0     H43853   1.616   3.752   8.908  1.2286  2.1985 -1.2332
  325MOL0     H43854   1.772   3.708   8.968 -2.0535 -2.2705 -4.1095
  325MOL0     H43855   2.390   4.297   8.910 -0.3427  1.8494  0.2691
  325MOL0     H43856   2.587   4.232   9.038 -2.6254 -1.4700 -1.4604
  325MOL0     H43857   2.798   4.513   9.556  1.8616  0.2014  0.8576
  325MOL0     H43858   2.994   4.465   9.677 -0.8110  0.7517  0.2952
  325MOL0     H43859   4.090   5.069  10.342 -0.1675  1.0329 -1.4693
  325MOL0     H43860   4.192   5.252  10.201 -0.3525 -1.2224 -0.7817
  325MOL0     H43861   4.577   5.619  10.390 -1.8681  1.3714 -0.1613
  325MOL0     H43862   4.655   5.819  10.325 -3.0588  1.3749 -0.8282
  325MOL0     H43863   4.807   5.986  10.182 -3.8158  0.8545  1.7108
  325MOL0     H43864   4.745   6.105  10.071  2.2779  0.3177  0.5152
  325MOL0     H43865   4.892   6.084   9.936  0.4320  0.3515  1.3774
  325MOL0     H43866   4.818   5.927   9.892 -1.7311  0.7209  1.2792
  325MOL0     H43867   4.971   5.808  10.029  0.6759 -0.2767  5.6393
  325MOL0     H43868   5.023   5.946  10.126 -1.2914 -0.6547  0.7682
  325MOL0     H43869   5.070   5.898   9.820 -0.2954 -1.8408  1.0150
  325MOL0     H43870   5.143   6.037   9.915  2.0482 -0.6027 -2.3320
  325MOL0     H43871   5.387   5.699   9.993 -1.6877 -0.8485  1.6823
  325MOL0     H43872   4.602   5.720   9.906  0.0888  1.3377 -0.0131
  325MOL0     H43873   4.468   5.513   9.877 -0.8365  0.0417  0.9788
  325MOL0     H43874   4.639   5.444   9.891  0.6581  0.5820  0.9966
  325MOL0     H43875   4.492   5.368   9.954  1.7906 -1.4537 -1.9515
  326MOL0     O43876   6.784   2.629   8.095 -0.2132  0.0632  0.3482
  326MOL0     C43877   6.721   2.723   8.136  0.6961 -1.2547  0.5069
  326MOL0     O43878   6.600   2.719   8.198  0.6318 -0.6081  0.3053
  326MOL0     C43879   6.525   2.608   8.228 -0.5266  0.4767  0.2074
  326MOL0     C43880   6.581   2.488   8.271 -0.5168 -0.7923 -0.0548
  326MOL0     C43881   6.495   2.381   8.302 -0.7281 -0.2390  0.9548
  326MOL0     C43882   6.356   2.393   8.289 -0.3473  0.9604 -0.5503
  326MOL0     O43883   6.269   2.283   8.317  0.8051 -0.3571  0.4481
  326MOL0     C43884   6.174   2.261   8.213  0.4889 -0.3296 -0.0226
  326MOL0     C43885   6.143   2.116   8.194  1.0405  0.1972  0.7841
  326MOL0     C43886   6.080   2.058   8.321  0.2645  0.0909 -0.3872
  326MOL0     C43887   6.012   1.920   8.281  0.1625 -0.1664 -0.3242
  326MOL0     C43888   5.945   1.875   8.411  0.6164  0.6248 -1.1958
  326MOL0     C43889   5.900   1.727   8.378  0.3812  0.0126 -0.0945
  326MOL0     C43890   5.788   1.672   8.473 -0.5907  0.1283  0.4015
  326MOL0     C43891   5.648   1.726   8.451 -0.1110 -0.9349  0.8139
  326MOL0     N43892   5.547   1.666   8.547  0.0228  0.4040 -0.3100
  326MOL0     C43893   5.536   1.528   8.572  0.2225 -0.1388 -0.1324
  326MOL0     C43894   5.410   1.512   8.626 -0.5224  0.2686  0.0244
  326MOL0     C43895   5.359   1.391   8.715  0.2427 -0.3800 -0.5105
  326MOL0     C43896   5.210   1.399   8.746  0.5478  0.3342  0.0699
  326MOL0     C43897   5.174   1.470   8.875  0.4361 -0.9752 -0.1784
  326MOL0     C43898   5.015   1.474   8.894  0.4125  0.7300  0.7541
  326MOL0     O43899   4.993   1.492   9.039 -0.4801 -0.4781  0.2538
  326MOL0     C43900   4.873   1.524   9.080  0.0416  0.5152 -0.6234
  326MOL0     C43901   4.871   1.503   9.219  0.0009 -0.1028  0.1473
  326MOL0     C43902   4.760   1.534   9.293 -0.7539 -0.0897 -0.1399
  326MOL0     C43903   4.647   1.563   9.230 -0.1081 -0.9655 -0.4132
  326MOL0     C43904   4.530   1.597   9.297  0.7889 -0.8860 -0.3834
  326MOL0     O43905   4.550   1.641   9.427  0.3019  0.6919 -0.1067
  326MOL0     C43906   4.433   1.655   9.503  0.0877  0.5673  0.3512
  326MOL0     C43907   4.323   1.575   9.518 -0.1793 -0.3131  1.2332
  326MOL0     C43908   4.210   1.611   9.590 -0.3226  0.2408 -0.0930
  326MOL0     C43909   4.198   1.737   9.648 -0.6750 -0.9360 -0.8546
  326MOL0     O43910   4.082   1.787   9.711 -0.1887  0.0763 -0.4222
  326MOL0     C43911   3.956   1.719   9.695 -0.0961 -0.4633  0.5497
  326MOL0     C43912   3.862   1.812   9.757  0.2568  0.4369 -0.6837
  326MOL0     C43913   3.725   1.787   9.702  0.7035  0.4252  0.2790
  326MOL0     C43914   3.632   1.900   9.752 -0.4202  0.4624  0.2228
  326MOL0     C43915   3.511   1.922   9.662 -0.1591  1.1974 -0.0210
  326MOL0     C43916   3.424   2.039   9.721 -0.1915 -0.2742 -0.5354
  326MOL0     C43917   3.289   2.069   9.642 -0.2456 -0.6764  0.4891
  326MOL0     C43918   3.201   2.179   9.705  0.9284 -0.5835  0.5160
  326MOL0    Cl43919   3.243   2.351   9.635  0.2001  0.3399  0.3272
  326MOL0     C43920   4.310   1.818   9.638  0.5355  0.0412 -1.0179
  326MOL0     C43921   4.426   1.774   9.571  0.4804  0.2557 -0.4079
  326MOL0     O43922   4.418   1.576   9.244  0.4400  0.7510 -0.3657
  326MOL0     C43923   4.637   1.568   9.090  0.4463  0.1858  0.0048
  326MOL0     C43924   4.755   1.559   9.015  0.0216  0.4302 -0.4902
  326MOL0     N43925   5.356   1.633   8.636 -0.3206 -0.9247 -1.0052
  326MOL0     N43926   5.438   1.726   8.600  0.1091 -0.6764 -0.3281
  326MOL0     C43927   6.299   2.518   8.250 -0.0244 -0.7433  0.0147
  326MOL0     C43928   6.388   2.626   8.221  0.0639 -0.9932  0.1853
  326MOL0     C43929   6.775   2.857   8.110 -0.0741 -0.2190  0.4961
  326MOL0     C43930   6.699   2.952   8.043 -0.4817 -0.4802 -0.0124
  326MOL0     C43931   6.743   3.083   8.023 -1.3607 -0.4295 -0.6244
  326MOL0     C43932   6.880   3.108   8.040  0.5934 -0.6720 -0.0527
  326MOL0     O43933   6.925   3.233   8.011 -0.7599  0.0369 -0.2955
  326MOL0     C43934   6.920   3.275   7.876 -0.0767 -0.1400  0.1440
  326MOL0     C43935   7.037   3.225   7.785 -0.0524 -0.0687 -0.5217
  326MOL0     C43936   7.179   3.264   7.821 -0.0438 -0.5500 -1.0137
  326MOL0     C43937   7.275   3.233   7.699 -0.0805  0.6081 -0.2483
  326MOL0     C43938   7.416   3.244   7.749 -0.2784 -0.5416 -0.0668
  326MOL0     C43939   7.520   3.245   7.804 -0.1716  0.5468 -0.2703
  326MOL0     C43940   6.961   3.012   8.110 -0.1398 -0.7477 -0.2440
  326MOL0     C43941   6.908   2.883   8.146  0.6291  0.7622 -0.9427
  326MOL0     C43942   6.985   2.793   8.243  0.3103 -0.1100 -0.3641
  326MOL0     H43943   6.685   2.482   8.301 -1.2938  0.7439  3.3397
  326MOL0     H43944   6.547   2.289   8.327  2.1745 -0.5805 -4.7546
  326MOL0     H43945   6.076   2.305   8.235  2.4493  3.9348  1.2411
  326MOL0     H43946   6.210   2.298   8.116 -0.5347  2.7337  0.6454
  326MOL0     H43947   6.228   2.049   8.172  1.8589  0.3284  3.2732
  326MOL0     H43948   6.077   2.110   8.107  2.1021  0.1683 -0.0491
  326MOL0     H43949   6.005   2.125   8.365  0.3919 -1.1874  1.9220
  326MOL0     H43950   6.151   2.052   8.404  1.8560  1.0761 -1.6338
  326MOL0     H43951   5.934   1.946   8.209 -0.6224  1.4103  1.0221
  326MOL0     H43952   6.079   1.854   8.226 -1.8582 -0.3286 -2.7467
  326MOL0     H43953   6.011   1.883   8.498 -0.8958 -1.6851  0.2820
  326MOL0     H43954   5.861   1.943   8.429 -1.8773 -2.3632 -0.6102
  326MOL0     H43955   5.857   1.727   8.277 -2.0234 -1.8238  0.8216
  326MOL0     H43956   5.992   1.668   8.380  1.5972  1.8377  1.7067
  326MOL0     H43957   5.804   1.691   8.579 -2.3812 -0.9715  0.9162
  326MOL0     H43958   5.792   1.564   8.452 -0.5861  0.1595  0.2415
  326MOL0     H43959   5.654   1.835   8.457 -0.7971 -0.8409 -0.0169
  326MOL0     H43960   5.606   1.708   8.352 -0.7512 -1.7559  1.2178
  326MOL0     H43961   5.619   1.467   8.606  0.3533 -0.4609 -0.9937
  326MOL0     H43962   5.386   1.296   8.666  5.0831  1.3564 -1.7392
  326MOL0     H43963   5.403   1.402   8.814  0.5591  2.4378 -0.9042
  326MOL0     H43964   5.165   1.443   8.656 -2.1964  2.4378  2.3116
  326MOL0     H43965   5.183   1.293   8.753  3.5789 -0.6294 -0.9091
  326MOL0     H43966   5.201   1.575   8.862 -2.2988 -0.2010 -0.2710
  326MOL0     H43967   5.229   1.426   8.959  2.5896  2.2588  0.3002
  326MOL0     H43968   4.983   1.375   8.860  2.0574  0.1833  0.6980
  326MOL0     H43969   4.963   1.542   8.826  1.0316  1.6464  1.1709
  326MOL0     H43970   4.952   1.467   9.280 -0.0221  1.1373  0.9405
  326MOL0     H43971   4.761   1.526   9.401 -0.8550  1.6069  0.0114
  326MOL0     H43972   4.318   1.480   9.465 -1.5831  0.0999  0.5864
  326MOL0     H43973   4.123   1.547   9.599 -0.4368  0.4630  0.3849
  326MOL0     H43974   3.937   1.698   9.590 -0.5018 -0.7277  0.6736
  326MOL0     H43975   3.948   1.616   9.733 -2.5164  0.9032  4.3770
  326MOL0     H43976   3.866   1.801   9.866  2.2809  2.7627 -0.4382
  326MOL0     H43977   3.887   1.917   9.742 -1.2423  2.0180  5.3008
  326MOL0     H43978   3.731   1.768   9.595  1.3585  0.1263  0.3561
  326MOL0     H43979   3.684   1.693   9.740 -1.8830  0.2505 -2.6022
  326MOL0     H43980   3.692   1.990   9.746  4.0440 -2.2927 -3.1982
  326MOL0     H43981   3.615   1.875   9.857  3.7086 -3.1672  0.3095
  326MOL0     H43982   3.459   1.826   9.653  0.2649  0.8935  0.6881
  326MOL0     H43983   3.557   1.937   9.564 -0.6383  1.1046 -0.2649
  326MOL0     H43984   3.392   2.003   9.820  0.0280 -2.7018 -1.2935
  326MOL0     H43985   3.486   2.127   9.740 -0.6199  0.0949 -0.8290
  326MOL0     H43986   3.236   1.973   9.643 -1.3874 -0.1007  3.0297
  326MOL0     H43987   3.309   2.109   9.542 -0.2271 -1.0616  0.3373
  326MOL0     H43988   3.100   2.148   9.679  0.7936  1.6895 -2.0669
  326MOL0     H43989   3.212   2.177   9.814  2.0776  1.5127  0.4909
  326MOL0     H43990   4.293   1.919   9.674  0.6371  0.0082 -0.8781
  326MOL0     H43991   4.497   1.854   9.554  0.1048  1.1393  1.9276
  326MOL0     H43992   4.546   1.591   9.036  1.0166  0.8784 -0.6703
  326MOL0     H43993   4.753   1.561   8.907 -0.2929 -1.4049 -0.5502
  326MOL0     H43994   6.191   2.518   8.250 -0.0352 -1.7942  0.1418
  326MOL0     H43995   6.337   2.719   8.198 -1.8009 -2.0358 -0.1851
  326MOL0     H43996   6.594   2.931   8.022 -0.4896  1.2448 -2.0630
  326MOL0     H43997   6.673   3.157   7.985 -1.4732 -0.1692  0.0862
  326MOL0     H43998   6.924   3.384   7.872  0.7867 -0.1918 -2.9940
  326MOL0     H43999   6.821   3.246   7.838 -0.7392  2.1988 -0.0968
  326MOL0     H44000   7.021   3.275   7.689  1.9244  1.3557 -0.1526
  326MOL0     H44001   7.026   3.118   7.765 -1.3285 -0.2996  1.2197
  326MOL0     H44002   7.219   3.195   7.896 -0.0429 -2.6387 -2.8472
  326MOL0     H44003   7.176   3.366   7.862  2.7703 -1.1965  1.0946
  326MOL0     H44004   7.261   3.131   7.662 -0.2623  0.6506 -0.3010
  326MOL0     H44005   7.255   3.307   7.621 -1.5009  1.7369  1.1155
  326MOL0     H44006   7.606   3.240   7.869 -0.0352  2.4510 -0.2545
  326MOL0     H44007   7.062   3.045   8.132  0.5405 -3.1409  0.5470
  326MOL0     H44008   6.912   2.730   8.295  0.6908 -1.5349 -1.4776
  326MOL0     H44009   7.066   2.733   8.200  0.7322 -0.8758  1.3661
  326MOL0     H44010   7.037   2.863   8.309  2.6004  1.9818 -4.0532
  327MOL0     O44011   2.859   7.267  10.882 -0.1192 -0.4050  0.0956
  327MOL0     C44012   2.813   7.169  10.833  0.1844  0.9294  0.9450
  327MOL0     O44013   2.844   7.122  10.707 -0.1939 -0.2336 -0.3583
  327MOL0     C44014   2.910   7.203  10.619 -0.6839 -0.2196  0.4244
  327MOL0     C44015   3.028   7.172  10.556 -0.3603  0.1423  0.5122
  327MOL0     C44016   3.090   7.254  10.463  0.3679  0.0429  0.8606
  327MOL0     C44017   3.015   7.358  10.413  0.5172 -0.3506  0.0332
  327MOL0     O44018   3.079   7.430  10.320 -0.0380  0.0889 -0.8623
  327MOL0     C44019   3.009   7.518  10.237  0.1241 -0.2126 -0.8011
  327MOL0     C44020   3.059   7.486  10.102 -0.2768  0.5390 -0.0332
  327MOL0     C44021   3.167   7.585  10.052 -0.1449 -0.4653 -0.9856
  327MOL0     C44022   3.123   7.725  10.010 -0.1710  0.7462 -0.4974
  327MOL0     C44023   3.240   7.820  10.020 -0.1324  0.1106  0.8168
  327MOL0     C44024   3.201   7.948   9.940  0.7650  1.3517  0.2814
  327MOL0     C44025   3.157   7.921   9.794 -1.0154 -0.5453  0.2464
  327MOL0     C44026   3.171   8.042   9.714 -1.4715 -0.1226 -0.0473
  327MOL0     N44027   3.102   8.018   9.584 -0.4388  0.1857  0.2714
  327MOL0     C44028   3.171   7.961   9.480 -0.2789  0.6154 -0.4084
  327MOL0     C44029   3.071   7.965   9.383  0.7311  0.0321 -0.2072
  327MOL0     C44030   3.092   7.902   9.254 -0.3787  0.2487 -0.5656
  327MOL0     C44031   3.073   7.746   9.263 -0.3857  0.0485 -0.1086
  327MOL0     C44032   2.929   7.704   9.302  0.0261 -0.4957 -0.4311
  327MOL0     C44033   2.913   7.668   9.451 -0.3868  0.4302 -1.1465
  327MOL0     O44034   2.772   7.669   9.475 -0.2236 -0.4107  0.2968
  327MOL0     C44035   2.754   7.632   9.607 -0.4816 -0.2308 -0.2407
  327MOL0     C44036   2.802   7.717   9.703 -0.1927  0.1825  0.4306
  327MOL0     C44037   2.776   7.686   9.838 -0.6536 -0.0291  0.3057
  327MOL0     C44038   2.694   7.576   9.876  0.2285 -0.1631  0.1178
  327MOL0     C44039   2.659   7.557  10.021  0.2976  0.7196 -0.2458
  327MOL0     O44040   2.606   7.437  10.056 -0.1215 -1.0691 -0.6544
  327MOL0     C44041   2.579   7.408  10.194  0.3147 -0.2704 -0.1018
  327MOL0     C44042   2.646   7.303  10.249  0.0482  0.3350 -0.1065
  327MOL0     C44043   2.608   7.259  10.377  0.1647 -0.0345 -1.0163
  327MOL0     C44044   2.502   7.312  10.446  0.6745 -0.3906 -0.0282
  327MOL0     O44045   2.454   7.262  10.561 -0.0283 -0.1215  0.1867
  327MOL0     C44046   2.473   7.358  10.673 -0.5493  0.1941  0.7296
  327MOL0     C44047   2.327   7.372  10.733 -0.2889 -0.2804 -1.0966
  327MOL0     C44048   2.244   7.263  10.800 -0.6131 -0.1685  1.1993
  327MOL0     C44049   2.242   7.260  10.954 -0.8204 -0.1722  0.2592
  327MOL0     C44050   2.179   7.126  11.009 -0.3386  0.3032 -0.0991
  327MOL0     C44051   2.025   7.142  11.005 -0.8608 -0.1161 -0.6219
  327MOL0     C44052   1.969   7.017  11.072  0.2476 -0.0408  0.2852
  327MOL0     C44053   1.821   7.038  11.113  0.5406 -0.7077  0.8181
  327MOL0    Cl44054   1.770   6.903  11.217  0.2547 -0.0523 -0.0901
  327MOL0     C44055   2.423   7.404  10.382 -0.0737 -1.2686 -0.2675
  327MOL0     C44056   2.464   7.459  10.257  0.5036  0.4148 -0.3461
  327MOL0     O44057   2.695   7.641  10.103 -0.9575 -0.0811  1.4606
  327MOL0     C44058   2.634   7.503   9.772  0.5895 -0.8667 -0.1840
  327MOL0     C44059   2.667   7.526   9.636  0.3685  0.0791  0.4576
  327MOL0     N44060   2.949   8.008   9.430 -0.0911  0.2414 -0.2021
  327MOL0     N44061   2.974   8.041   9.553 -0.0801 -0.5452 -0.4049
  327MOL0     C44062   2.892   7.388  10.470  0.0768 -0.9605  0.2320
  327MOL0     C44063   2.845   7.315  10.573  0.3893  0.2446  0.4797
  327MOL0     C44064   2.705   7.095  10.911  0.0103 -0.9788  0.6737
  327MOL0     C44065   2.638   7.001  10.839  0.6772 -0.8380 -0.3331
  327MOL0     C44066   2.527   6.929  10.890  0.4558  0.1507  0.8022
  327MOL0     C44067   2.493   6.939  11.024  0.6487 -0.6202 -0.1543
  327MOL0     O44068   2.397   6.856  11.071  0.3322 -0.3800 -0.2390
  327MOL0     C44069   2.365   6.852  11.216  1.0071 -0.4560  0.5107
  327MOL0     C44070   2.472   6.804  11.311  0.0965 -1.1259 -0.0670
  327MOL0     C44071   2.565   6.687  11.255 -0.1464  0.1451  0.2193
  327MOL0     C44072   2.635   6.592  11.358  0.0056 -0.2322  0.6179
  327MOL0     C44073   2.731   6.677  11.423 -1.0085 -0.0914  0.2391
  327MOL0     C44074   2.811   6.735  11.486 -0.8190 -0.1156  0.0796
  327MOL0     C44075   2.572   7.029  11.102  0.5990 -0.1201  0.0401
  327MOL0     C44076   2.666   7.114  11.045  0.8371  0.3953  0.4448
  327MOL0     C44077   2.716   7.227  11.133 -0.1022 -0.9493  0.2785
  327MOL0     H44078   3.074   7.081  10.594 -2.6474 -1.6917 -0.8721
  327MOL0     H44079   3.186   7.243  10.413 -1.1940  0.3921 -2.4529
  327MOL0     H44080   2.901   7.506  10.235  0.0284  0.6224 -1.7570
  327MOL0     H44081   3.030   7.624  10.254  0.3970 -0.0255 -2.1554
  327MOL0     H44082   2.979   7.493  10.028  0.8068 -2.9444 -1.7439
  327MOL0     H44083   3.093   7.382  10.096  0.6516  0.6769  2.0299
  327MOL0     H44084   3.207   7.535   9.964  1.6617  1.8731 -1.5912
  327MOL0     H44085   3.248   7.593  10.126 -0.5414 -0.9956 -0.4837
  327MOL0     H44086   3.079   7.718   9.910  1.4117 -0.4283 -1.1702
  327MOL0     H44087   3.043   7.765  10.072 -0.2636  0.4673 -0.4348
  327MOL0     H44088   3.270   7.843  10.123 -0.9234 -0.6273  1.2247
  327MOL0     H44089   3.328   7.779   9.969 -0.4464 -0.7215  0.9236
  327MOL0     H44090   3.115   7.993   9.991 -1.4977 -2.3286  0.0475
  327MOL0     H44091   3.279   8.024   9.955  1.2127  0.5708  2.2618
  327MOL0     H44092   3.051   7.895   9.794 -0.4697 -3.0838 -1.1086
  327MOL0     H44093   3.210   7.830   9.766  0.8171 -0.7361  3.7081
  327MOL0     H44094   3.131   8.136   9.751  3.4816  2.9382 -1.3992
  327MOL0     H44095   3.277   8.063   9.696 -0.7648  0.4659  3.9495
  327MOL0     H44096   3.273   7.924   9.470 -0.6123 -0.0787 -1.4381
  327MOL0     H44097   3.021   7.938   9.178 -2.3796  0.1306  1.1632
  327MOL0     H44098   3.194   7.915   9.217 -0.4023  1.3913 -0.2671
  327MOL0     H44099   3.106   7.708   9.166 -1.2730 -0.0276 -0.3968
  327MOL0     H44100   3.139   7.705   9.340 -0.8341  0.1251  0.3306
  327MOL0     H44101   2.911   7.607   9.254  3.1823 -1.4259  0.0576
  327MOL0     H44102   2.848   7.767   9.262  0.3870 -0.4910 -1.1748
  327MOL0     H44103   2.964   7.736   9.520 -0.8026  1.3777 -1.7480
  327MOL0     H44104   2.953   7.567   9.459  0.2639  0.8282  1.5561
  327MOL0     H44105   2.859   7.805   9.679 -1.7608  1.3456  0.8297
  327MOL0     H44106   2.835   7.739   9.912  3.0098  0.4967 -2.6870
  327MOL0     H44107   2.722   7.253  10.190 -1.5273 -1.1199 -1.0148
  327MOL0     H44108   2.650   7.166  10.414 -0.9324 -0.1783 -0.0640
  327MOL0     H44109   2.546   7.312  10.741  2.8653  1.3442 -1.8390
  327MOL0     H44110   2.505   7.452  10.628 -1.2603  0.7311  1.3230
  327MOL0     H44111   2.332   7.450  10.809  1.5742 -0.8971 -0.5275
  327MOL0     H44112   2.267   7.405  10.648 -3.1450 -2.0610  0.1004
  327MOL0     H44113   2.144   7.262  10.757  1.2741  0.1407 -3.8544
  327MOL0     H44114   2.295   7.171  10.771  1.3069  1.4543 -0.9450
  327MOL0     H44115   2.182   7.346  10.984  0.6190  0.3235  1.8890
  327MOL0     H44116   2.347   7.270  10.983 -1.0612  1.1692  0.7322
  327MOL0     H44117   2.206   7.101  11.112  1.9826 -1.7323 -1.0784
  327MOL0     H44118   2.198   7.036  10.950 -2.4725 -1.4811  1.7396
  327MOL0     H44119   1.994   7.237  11.048 -1.0970 -0.3403 -0.2939
  327MOL0     H44120   1.983   7.142  10.904 -4.1450 -2.0775  0.5770
  327MOL0     H44121   2.025   6.986  11.161  0.8074  1.6517  0.5564
  327MOL0     H44122   1.973   6.940  10.995  1.5947  1.1723 -0.9053
  327MOL0     H44123   1.821   7.131  11.170 -1.1160  0.1778 -0.5243
  327MOL0     H44124   1.753   7.040  11.026 -0.6163 -1.6837  1.6537
  327MOL0     H44125   2.329   7.436  10.426 -1.1286 -0.0159 -3.1951
  327MOL0     H44126   2.393   7.516  10.197 -0.0145 -0.3832 -0.5148
  327MOL0     H44127   2.556   7.435   9.803 -0.5209  0.3938 -0.1035
  327MOL0     H44128   2.619   7.463   9.562 -3.9015  0.8213  2.3225
  327MOL0     H44129   2.835   7.477  10.443  1.1535  0.3102  1.8980
  327MOL0     H44130   2.757   7.337  10.633 -0.2958 -3.1382  0.9050
  327MOL0     H44131   2.654   6.986  10.733 -0.6630 -3.7030 -0.2110
  327MOL0     H44132   2.473   6.853  10.833 -0.2123 -1.0652  2.9332
  327MOL0     H44133   2.273   6.794  11.229  0.0792  1.1442  1.3502
  327MOL0     H44134   2.337   6.950  11.254 -1.0086 -1.0054  0.5399
  327MOL0     H44135   2.430   6.774  11.407  1.9395 -3.5028  0.1016
  327MOL0     H44136   2.537   6.889  11.334  1.2105 -1.9005 -0.2592
  327MOL0     H44137   2.636   6.731  11.185  0.0136 -1.1429 -0.4414
  327MOL0     H44138   2.495   6.623  11.201  0.1602 -0.3707  0.4253
  327MOL0     H44139   2.567   6.556  11.435 -0.5025  1.4273  0.9838
  327MOL0     H44140   2.690   6.516  11.303 -0.7029 -0.4414  0.1913
  327MOL0     H44141   2.891   6.770  11.547 -2.0718  0.6591  1.3381
  327MOL0     H44142   2.550   7.041  11.208  1.2142  3.1625 -0.0952
  327MOL0     H44143   2.690   7.323  11.089  2.1298 -1.1892 -1.8214
  327MOL0     H44144   2.675   7.211  11.233 -1.7994  1.5580  0.0768
  327MOL0     H44145   2.825   7.216  11.140 -0.2334 -3.5374 -0.5802
  328MOL0     O44146   5.846  10.820   2.294 -0.1815 -0.2408  0.0936
  328MOL0     C44147   5.810  10.941   2.293 -0.2014  1.1961 -0.1584
  328MOL0     O44148   5.687  10.983   2.325 -0.9209  0.2031  0.2238
  328MOL0     C44149   5.596  10.897   2.315  0.4067 -0.1272  0.1987
  328MOL0     C44150   5.561  10.809   2.424 -0.8094 -0.5500  0.6594
  328MOL0     C44151   5.447  10.728   2.412  0.3302  0.4763  0.0285
  328MOL0     C44152   5.355  10.747   2.304  0.1496  0.5248  0.1177
  328MOL0     O44153   5.246  10.672   2.278 -0.0582  0.4589  0.1491
  328MOL0     C44154   5.174  10.622   2.388 -0.2476 -0.2405  0.0494
  328MOL0     C44155   5.035  10.637   2.343 -0.2553 -0.3528  0.1212
  328MOL0     C44156   4.978  10.772   2.301 -0.1445  0.4017  0.4939
  328MOL0     C44157   4.957  10.872   2.414  0.3278  0.1739  0.5596
  328MOL0     C44158   4.891  11.002   2.360 -0.3084 -0.4699 -1.0936
  328MOL0     C44159   4.856  11.097   2.470  0.1519 -0.7237  0.0818
  328MOL0     C44160   4.792  11.214   2.424  0.1293 -0.3792 -0.7248
  328MOL0     C44161   4.656  11.199   2.368  0.7924 -0.4379  0.5252
  328MOL0     N44162   4.615  11.328   2.300  0.3010  0.3741  0.6013
  328MOL0     C44163   4.651  11.364   2.177  0.0382 -0.7585  0.6898
  328MOL0     C44164   4.625  11.491   2.166 -0.8465 -1.2069  0.4595
  328MOL0     C44165   4.654  11.581   2.060  0.1524 -0.6565  0.2914
  328MOL0     C44166   4.553  11.570   1.949  0.4550 -0.1736 -0.0213
  328MOL0     C44167   4.590  11.642   1.819 -0.5324 -0.8128  0.0779
  328MOL0     C44168   4.582  11.802   1.841 -0.2528  0.4865 -0.3432
  328MOL0     O44169   4.648  11.866   1.733  0.2526  0.1212 -0.3925
  328MOL0     C44170   4.704  11.996   1.752 -0.2096 -0.3128 -0.4819
  328MOL0     C44171   4.680  12.087   1.858  0.5977  0.6839  0.0653
  328MOL0     C44172   4.728  12.217   1.860 -0.8385 -0.1609  0.3736
  328MOL0     C44173   4.804  12.272   1.745  0.0970 -0.2778 -0.3545
  328MOL0     C44174   4.866  12.415   1.737  0.5454  0.0080 -0.0823
  328MOL0     O44175   4.825  12.499   1.827 -0.1736 -0.7929 -1.1499
  328MOL0     C44176   4.852  12.633   1.827 -0.7041  0.6789  0.2371
  328MOL0     C44177   4.872  12.705   1.949  0.0597 -0.0695 -0.0125
  328MOL0     C44178   4.924  12.838   1.947 -0.4636 -0.5309  0.3461
  328MOL0     C44179   4.939  12.906   1.831 -0.4637  0.4081 -0.3263
  328MOL0     O44180   4.967  13.040   1.844  0.0437 -0.2898 -0.3711
  328MOL0     C44181   5.029  13.109   1.736 -0.4085  0.1325  0.1285
  328MOL0     C44182   5.079  13.254   1.785 -1.0009 -1.1663 -0.5080
  328MOL0     C44183   5.152  13.238   1.922  0.2400  0.0759  0.0021
  328MOL0     C44184   5.212  13.375   1.969 -0.3409  0.5836  0.1222
  328MOL0     C44185   5.304  13.367   2.084 -0.3324  0.2161 -0.0352
  328MOL0     C44186   5.256  13.280   2.198  0.5070  0.4026 -0.7166
  328MOL0     C44187   5.383  13.243   2.277 -0.6752 -0.1125  0.7926
  328MOL0     C44188   5.372  13.192   2.416 -0.4393 -0.5725  0.5341
  328MOL0    Cl44189   5.262  13.049   2.426  0.4148  0.1499 -0.0753
  328MOL0     C44190   4.914  12.833   1.711 -0.0968  0.0739  0.1812
  328MOL0     C44191   4.875  12.703   1.703  0.4601 -0.9059 -0.2837
  328MOL0     O44192   4.955  12.434   1.657 -0.3882 -0.2022 -0.1821
  328MOL0     C44193   4.835  12.179   1.651 -0.5262  0.4113  0.5097
  328MOL0     C44194   4.784  12.050   1.644  0.8481  0.0688 -0.3942
  328MOL0     N44195   4.549  11.528   2.278  0.3207  0.0426  0.1515
  328MOL0     N44196   4.547  11.429   2.363 -0.1116 -0.2501  0.2933
  328MOL0     C44197   5.385  10.824   2.197 -0.0541 -0.1645 -0.1655
  328MOL0     C44198   5.511  10.898   2.203 -0.0939 -0.5645  0.1599
  328MOL0     C44199   5.907  11.038   2.244 -0.2961 -0.6098  0.4245
  328MOL0     C44200   6.044  11.003   2.249 -0.7686 -0.9272 -1.0342
  328MOL0     C44201   6.154  11.085   2.215  1.2275  0.4440  0.9398
  328MOL0     C44202   6.124  11.212   2.164  0.1206  0.4729  0.0614
  328MOL0     O44203   6.212  11.308   2.117 -0.0613 -0.8980  0.4123
  328MOL0     C44204   6.329  11.330   2.200  0.6798 -0.1797  0.6191
  328MOL0     C44205   6.422  11.424   2.130  0.5511 -0.4628 -1.2207
  328MOL0     C44206   6.529  11.481   2.226  0.6359  0.2500 -0.7292
  328MOL0     C44207   6.640  11.548   2.140  1.1585  0.0578  0.4050
  328MOL0     C44208   6.575  11.636   2.041 -0.9727 -0.5690 -0.3358
  328MOL0     C44209   6.524  11.693   1.947 -0.8761 -0.1174 -0.6706
  328MOL0     C44210   5.984  11.249   2.151  0.7277  0.5530 -0.0262
  328MOL0     C44211   5.883  11.171   2.194  0.2723 -1.2887  0.5397
  328MOL0     C44212   5.747  11.227   2.169  0.0798 -1.1127 -0.2301
  328MOL0     H44213   5.621  10.823   2.514 -0.8848 -1.0165  0.7840
  328MOL0     H44214   5.420  10.667   2.497 -1.2735  0.7754 -0.2353
  328MOL0     H44215   5.185  10.518   2.420 -2.8263 -0.1882  1.3741
  328MOL0     H44216   5.181  10.691   2.473  2.3627 -0.6652  0.2623
  328MOL0     H44217   4.966  10.612   2.424 -0.9534  0.4446 -0.2129
  328MOL0     H44218   5.019  10.557   2.270  0.7649  0.8028 -1.4364
  328MOL0     H44219   4.877  10.743   2.272  0.1283 -1.4826  1.2553
  328MOL0     H44220   5.036  10.819   2.221 -1.6826  2.9537  0.7804
  328MOL0     H44221   4.895  10.829   2.493 -1.0365 -2.3214 -1.7076
  328MOL0     H44222   5.061  10.888   2.447  1.1374 -1.9211 -0.7486
  328MOL0     H44223   4.965  11.046   2.293  0.9540 -2.8761 -1.3971
  328MOL0     H44224   4.808  10.973   2.295 -2.0794 -0.5105  1.0708
  328MOL0     H44225   4.791  11.062   2.550 -0.0817 -3.1888 -1.1090
  328MOL0     H44226   4.948  11.128   2.521  0.6183 -2.3922  0.2960
  328MOL0     H44227   4.852  11.254   2.342 -1.5177  1.2123 -1.2188
  328MOL0     H44228   4.798  11.291   2.502  0.2236 -2.7059  1.7340
  328MOL0     H44229   4.665  11.129   2.284  5.6541  1.5891 -1.0408
  328MOL0     H44230   4.587  11.159   2.443  0.7272 -3.0775 -0.8238
  328MOL0     H44231   4.719  11.312   2.112  1.5876 -0.2174  1.8230
  328MOL0     H44232   4.653  11.685   2.094  1.2661  0.7375 -3.4063
  328MOL0     H44233   4.759  11.569   2.033 -0.0609 -4.3901  0.5412
  328MOL0     H44234   4.520  11.467   1.937 -3.7158  0.8816  0.6437
  328MOL0     H44235   4.459  11.611   1.988 -0.3613 -0.5539 -1.5235
  328MOL0     H44236   4.518  11.603   1.747 -0.2393 -1.0203 -0.1036
  328MOL0     H44237   4.690  11.613   1.787 -0.5420 -2.1593  1.1652
  328MOL0     H44238   4.632  11.842   1.930 -0.6756  4.2659 -1.5819
  328MOL0     H44239   4.476  11.829   1.836 -0.4527  0.3441  2.0312
  328MOL0     H44240   4.605  12.057   1.930 -0.2901  0.3736 -0.9697
  328MOL0     H44241   4.700  12.290   1.935 -0.2426  0.6670 -0.1866
  328MOL0     H44242   4.859  12.651   2.043  0.6740 -2.0160 -0.9951
  328MOL0     H44243   4.945  12.885   2.043 -0.8701  0.3413  0.0244
  328MOL0     H44244   5.119  13.049   1.724  0.9757  1.4978  2.8043
  328MOL0     H44245   4.972  13.112   1.643  0.2057  1.2344 -0.2437
  328MOL0     H44246   5.153  13.282   1.710 -0.0796  1.4033  1.2170
  328MOL0     H44247   5.009  13.338   1.784  0.2128 -0.0710  1.0896
  328MOL0     H44248   5.073  13.220   1.995  0.8781 -1.2745  0.4004
  328MOL0     H44249   5.228  13.161   1.906 -0.3279 -0.5705  0.3722
  328MOL0     H44250   5.134  13.444   2.002 -0.1989  1.0503 -0.4924
  328MOL0     H44251   5.269  13.425   1.890 -0.7140  2.8264  1.2140
  328MOL0     H44252   5.343  13.464   2.114 -2.4448  0.4328  2.3900
  328MOL0     H44253   5.390  13.312   2.044 -1.3592  0.8636 -3.4363
  328MOL0     H44254   5.198  13.341   2.268 -1.7155 -0.7945 -1.4316
  328MOL0     H44255   5.205  13.188   2.171  0.9817  0.0189 -0.3294
  328MOL0     H44256   5.439  13.337   2.281 -0.1493 -0.4255  0.7999
  328MOL0     H44257   5.430  13.168   2.214 -1.2771  0.5735 -0.5232
  328MOL0     H44258   5.472  13.170   2.454  0.4472  0.0721 -1.2921
  328MOL0     H44259   5.332  13.279   2.468 -1.1247 -0.6170  0.0885
  328MOL0     H44260   4.921  12.878   1.613  2.9201 -0.4913  0.0570
  328MOL0     H44261   4.876  12.647   1.611  2.7341 -0.7671 -0.4003
  328MOL0     H44262   4.915  12.213   1.585 -0.3421 -0.3349  0.3373
  328MOL0     H44263   4.823  11.974   1.577 -0.7177 -2.8169  1.7547
  328MOL0     H44264   5.320  10.832   2.110  2.3725  1.5511 -1.9376
  328MOL0     H44265   5.530  10.961   2.116  0.2523 -2.2363 -1.0258
  328MOL0     H44266   6.062  10.908   2.297 -0.4753  0.0018  0.7692
  328MOL0     H44267   6.253  11.048   2.239  0.9960 -1.6995 -1.0321
  328MOL0     H44268   6.379  11.236   2.220 -1.0870 -0.8511  2.1173
  328MOL0     H44269   6.282  11.364   2.292 -3.3725  0.1245 -1.3385
  328MOL0     H44270   6.359  11.507   2.098  0.5478 -0.3978 -1.0493
  328MOL0     H44271   6.474  11.380   2.045 -0.7626  0.6061 -2.6239
  328MOL0     H44272   6.564  11.405   2.297 -0.7684  0.3541  0.1251
  328MOL0     H44273   6.471  11.552   2.286 -2.1061 -0.4026 -2.4514
  328MOL0     H44274   6.700  11.606   2.211  3.1293 -1.8911  0.4385
  328MOL0     H44275   6.708  11.480   2.088  0.0966 -2.8153  2.5052
  328MOL0     H44276   6.499  11.741   1.854  0.4151  0.7983 -0.5745
  328MOL0     H44277   5.965  11.342   2.099  0.2793  0.5543  0.1330
  328MOL0     H44278   5.702  11.183   2.079  3.4852 -1.7281 -1.8073
  328MOL0     H44279   5.691  11.224   2.262  3.7575 -0.8137  2.2104
  328MOL0     H44280   5.754  11.335   2.154 -3.2309 -0.9292 -1.3399
  329MOL0     O44281   8.524   4.203  11.007  0.0699  0.7917 -0.4654
  329MOL0     C44282   8.505   4.085  10.977 -0.0012  0.5423  0.0560
  329MOL0     O44283   8.605   3.998  10.976  0.1052 -0.4480 -0.2485
  329MOL0     C44284   8.732   4.051  10.999 -0.1333  0.2779  0.1027
  329MOL0     C44285   8.791   4.065  11.126 -0.1941  0.8972 -0.0821
  329MOL0     C44286   8.903   4.146  11.151  0.8152  0.1125  0.3713
  329MOL0     C44287   8.970   4.202  11.045 -0.8612  1.2198  0.1430
  329MOL0     O44288   9.078   4.284  11.043  0.3832  0.0590 -0.1990
  329MOL0     C44289   9.142   4.312  11.174 -0.1565  0.1926 -0.1405
  329MOL0     C44290   9.284   4.351  11.159  0.1372  0.7954 -1.7483
  329MOL0     C44291   9.323   4.485  11.090  0.2000  0.1039 -0.7426
  329MOL0     C44292   9.266   4.611  11.165 -0.0455 -0.3031 -0.4687
  329MOL0     C44293   9.346   4.736  11.116 -0.0879 -1.0509 -0.4420
  329MOL0     C44294   9.264   4.860  11.174  0.5999  0.0569 -0.8896
  329MOL0     C44295   9.332   4.995  11.176 -0.2802 -0.8657 -0.5491
  329MOL0     C44296   9.388   5.048  11.039 -0.0601  0.6005 -0.5360
  329MOL0     N44297   9.297   5.034  10.922 -0.2639 -0.1267  0.7387
  329MOL0     C44298   9.178   5.093  10.915 -0.7060 -1.0742 -0.3563
  329MOL0     C44299   9.102   5.017  10.828 -0.0498 -0.0832 -0.3076
  329MOL0     C44300   8.958   5.049  10.793 -0.8703 -0.8477 -0.5440
  329MOL0     C44301   8.911   5.008  10.655 -0.9267 -0.3370  0.4320
  329MOL0     C44302   8.894   5.124  10.554 -0.2307  0.6753 -0.4226
  329MOL0     C44303   8.818   5.063  10.435 -0.2772  0.2010 -0.5460
  329MOL0     O44304   8.693   5.000  10.471  0.0399 -0.3230  0.0156
  329MOL0     C44305   8.580   5.068  10.452  1.0574  0.3406 -0.1621
  329MOL0     C44306   8.461   4.991  10.457  0.3346 -0.0034  0.2265
  329MOL0     C44307   8.338   5.054  10.447 -0.3520 -0.0180 -0.4294
  329MOL0     C44308   8.321   5.193  10.438  0.4651 -0.4187 -0.5378
  329MOL0     C44309   8.189   5.252  10.443 -0.1184 -0.2639  0.0364
  329MOL0     O44310   8.172   5.366  10.371  0.4497  0.3970  0.2821
  329MOL0     C44311   8.050   5.416  10.335  0.0714  0.5487 -0.0058
  329MOL0     C44312   7.935   5.413  10.419 -0.4633  0.4884  0.5287
  329MOL0     C44313   7.819   5.475  10.374  0.0429  0.6816 -0.2978
  329MOL0     C44314   7.807   5.532  10.251 -0.6930  0.0816 -0.0424
  329MOL0     O44315   7.687   5.594  10.217 -0.0003 -0.1597 -0.0423
  329MOL0     C44316   7.686   5.686  10.107 -0.0735  0.5185  0.0546
  329MOL0     C44317   7.537   5.724  10.083  0.2804 -0.5939 -0.0747
  329MOL0     C44318   7.532   5.799   9.943  0.0088  0.1498 -0.6599
  329MOL0     C44319   7.459   5.941   9.970 -0.2112  0.4242 -0.6303
  329MOL0     C44320   7.463   6.028   9.836  0.0063 -0.4617  0.5627
  329MOL0     C44321   7.437   6.174   9.874 -1.4542  0.3234  0.7400
  329MOL0     C44322   7.435   6.268   9.758 -1.1052 -0.4239 -0.3497
  329MOL0     C44323   7.406   6.407   9.814  0.6018 -0.0842  0.7012
  329MOL0    Cl44324   7.540   6.471   9.907 -0.0872  0.5153 -0.2941
  329MOL0     C44325   7.914   5.512  10.159 -0.4900  0.7252 -0.2262
  329MOL0     C44326   8.038   5.463  10.202  0.5475  0.2520  0.4947
  329MOL0     O44327   8.101   5.179  10.482  0.1316 -0.3893  0.7729
  329MOL0     C44328   8.443   5.267  10.418  0.1642  0.2208 -0.0847
  329MOL0     C44329   8.564   5.202  10.430  0.1538  0.0149  1.2521
  329MOL0     N44330   9.187   4.929  10.774  0.4750 -0.2865  1.0452
  329MOL0     N44331   9.304   4.949  10.815  0.1300 -0.9021 -0.0146
  329MOL0     C44332   8.932   4.164  10.907  0.3245  0.0934 -0.3213
  329MOL0     C44333   8.808   4.092  10.889 -0.6760 -0.6325 -0.1157
  329MOL0     C44334   8.371   4.028  10.957 -0.1277 -1.2354  0.2015
  329MOL0     C44335   8.371   3.886  10.939 -0.3906 -0.5484 -0.3488
  329MOL0     C44336   8.253   3.813  10.942  1.3740  0.6537 -0.4823
  329MOL0     C44337   8.123   3.873  10.964  1.0403  0.4925 -1.0220
  329MOL0     O44338   8.013   3.793  10.996 -0.5479 -0.2798  0.8063
  329MOL0     C44339   7.884   3.851  10.982 -0.1472  0.3947 -0.4128
  329MOL0     C44340   7.820   3.867  10.851 -0.7640  0.1630  0.1742
  329MOL0     C44341   7.792   3.742  10.769 -0.6094  0.0586 -1.3518
  329MOL0     C44342   7.724   3.765  10.640 -0.5323  0.9221 -0.8084
  329MOL0     C44343   7.664   3.648  10.587 -0.3118  0.8027  0.2414
  329MOL0     C44344   7.600   3.550  10.557 -0.1391  0.4581 -0.0526
  329MOL0     C44345   8.127   4.022  10.970  0.1506 -0.0164  0.0212
  329MOL0     C44346   8.249   4.100  10.980  1.8649  0.1685 -0.5520
  329MOL0     C44347   8.245   4.247  11.005  0.1744  0.4603  0.6241
  329MOL0     H44348   8.730   4.019  11.203 -0.6015 -1.3855 -1.6654
  329MOL0     H44349   8.941   4.166  11.251  0.2026  3.2783  0.0972
  329MOL0     H44350   9.099   4.395  11.230  0.2269 -1.3977  2.7162
  329MOL0     H44351   9.137   4.227  11.243  0.0841  0.1129 -0.2174
  329MOL0     H44352   9.333   4.278  11.093 -2.9753 -1.3991 -1.8726
  329MOL0     H44353   9.334   4.347  11.256 -0.4605  1.4821 -1.4060
  329MOL0     H44354   9.308   4.497  10.982 -0.1104  2.5745 -0.4938
  329MOL0     H44355   9.430   4.487  11.111 -0.6046 -0.8938  5.1068
  329MOL0     H44356   9.163   4.635  11.140 -0.0307  1.5529  1.0150
  329MOL0     H44357   9.272   4.603  11.274 -4.4473  2.5382  0.2484
  329MOL0     H44358   9.451   4.727  11.144 -0.7341 -2.7384  1.6528
  329MOL0     H44359   9.346   4.748  11.007  0.5312 -0.2322 -0.3688
  329MOL0     H44360   9.169   4.869  11.121 -0.9113 -0.2645  1.6174
  329MOL0     H44361   9.233   4.847  11.278 -0.0271  0.1526 -1.0608
  329MOL0     H44362   9.407   4.982  11.255 -0.3706  1.9430  0.0898
  329MOL0     H44363   9.258   5.071  11.200  0.4968  0.2472 -1.5793
  329MOL0     H44364   9.401   5.154  11.062  2.5540  0.0978  0.7564
  329MOL0     H44365   9.485   5.008  11.007 -0.1472  2.1658 -2.9851
  329MOL0     H44366   9.135   5.178  10.967  1.0187 -0.6790  0.4635
  329MOL0     H44367   8.892   5.008  10.871 -1.5089  0.3538 -0.4353
  329MOL0     H44368   8.948   5.158  10.794 -2.8531 -0.8107  4.4230
  329MOL0     H44369   8.982   4.940  10.607 -1.6364 -1.5291  1.0134
  329MOL0     H44370   8.817   4.952  10.656 -2.6159  1.8268 -4.6469
  329MOL0     H44371   8.991   5.160  10.518  0.6456 -1.1464  0.0228
  329MOL0     H44372   8.846   5.211  10.601  0.2918  1.0723 -0.6097
  329MOL0     H44373   8.878   4.979  10.398 -1.8677 -1.6914  0.9333
  329MOL0     H44374   8.803   5.144  10.363 -0.5198  1.7302  1.1507
  329MOL0     H44375   8.473   4.884  10.468 -2.8827 -0.4708  0.0163
  329MOL0     H44376   8.255   4.983  10.447  0.7875 -1.6229  3.1099
  329MOL0     H44377   7.941   5.372  10.520  0.6651  1.3529  0.8418
  329MOL0     H44378   7.734   5.470  10.441  0.1185 -1.2219 -0.2935
  329MOL0     H44379   7.753   5.771  10.115  0.3429  0.0422  2.3718
  329MOL0     H44380   7.708   5.635  10.012  1.5618  0.0566  0.6616
  329MOL0     H44381   7.474   5.635  10.081  1.0082 -1.1128 -0.5735
  329MOL0     H44382   7.502   5.787  10.165 -3.4604  0.3182 -2.1435
  329MOL0     H44383   7.633   5.827   9.914 -0.2116  4.5600  1.9652
  329MOL0     H44384   7.480   5.745   9.863  0.4379  0.1253 -0.9239
  329MOL0     H44385   7.495   6.002  10.053  0.8768  0.5116 -1.1413
  329MOL0     H44386   7.355   5.919   9.996  1.4656 -3.6166  4.2765
  329MOL0     H44387   7.390   5.997   9.761 -1.2370  0.2790  1.4131
  329MOL0     H44388   7.560   6.025   9.787  0.2987  1.6454  0.9121
  329MOL0     H44389   7.341   6.177   9.926 -1.1128 -5.0862  2.2188
  329MOL0     H44390   7.509   6.207   9.951 -1.3488  1.6222  0.1184
  329MOL0     H44391   7.364   6.246   9.679 -0.5470  1.1003 -1.3214
  329MOL0     H44392   7.530   6.270   9.704 -0.3835  0.3272  0.8703
  329MOL0     H44393   7.377   6.475   9.733 -0.7022 -0.3345  0.9506
  329MOL0     H44394   7.321   6.390   9.879  0.8710 -1.5313  0.6947
  329MOL0     H44395   7.906   5.545  10.056 -2.8476 -0.7338 -0.5778
  329MOL0     H44396   8.119   5.473  10.131 -3.2411  3.9224 -3.9483
  329MOL0     H44397   8.449   5.375  10.421 -0.5466  0.3093  4.2954
  329MOL0     H44398   8.653   5.265  10.425  0.6592 -0.6760 -3.4179
  329MOL0     H44399   8.986   4.189  10.816  0.1196 -3.8183 -1.7331
  329MOL0     H44400   8.766   4.068  10.792 -1.4216 -0.1169  0.0686
  329MOL0     H44401   8.462   3.827  10.944  1.0096  1.2163 -2.6372
  329MOL0     H44402   8.241   3.705  10.941 -4.0728  0.9581 -0.3266
  329MOL0     H44403   7.901   3.949  11.028 -1.1012 -0.1104  1.1179
  329MOL0     H44404   7.819   3.794  11.049  0.1490 -0.7652 -1.0808
  329MOL0     H44405   7.875   3.942  10.794 -0.0527 -1.5226 -1.4566
  329MOL0     H44406   7.732   3.926  10.881  1.9541  2.6209  4.3460
  329MOL0     H44407   7.724   3.676  10.824  2.2902 -1.6455  0.4911
  329MOL0     H44408   7.879   3.680  10.746 -1.6511 -2.2004  0.4111
  329MOL0     H44409   7.640   3.829  10.667  1.2818  2.8642  0.5027
  329MOL0     H44410   7.794   3.800  10.564  0.9591  0.6764  0.4101
  329MOL0     H44411   7.534   3.471  10.528  0.9384 -0.0060 -1.3638
  329MOL0     H44412   8.037   4.072  11.003 -3.0101 -4.5829 -0.6762
  329MOL0     H44413   8.280   4.281  10.907 -0.7380 -1.5721 -0.4767
  329MOL0     H44414   8.147   4.292  11.023  1.0384  1.9230  1.9189
  329MOL0     H44415   8.303   4.281  11.092 -2.0776  0.4492  2.2196
  330MOL0     O44416   6.375   1.424   3.735  0.6769  0.2905  0.7345
  330MOL0     C44417   6.464   1.461   3.811 -0.0214 -0.4566 -0.1913
  330MOL0     O44418   6.472   1.574   3.886  0.3856 -0.0758 -0.0236
  330MOL0     C44419   6.364   1.657   3.899  0.1165 -0.4946 -0.5233
  330MOL0     C44420   6.384   1.791   3.886  0.5555 -0.2532  0.0038
  330MOL0     C44421   6.291   1.887   3.934 -0.1474 -0.3193 -0.3749
  330MOL0     C44422   6.181   1.839   3.996  0.0017  0.0505 -0.1341
  330MOL0     O44423   6.087   1.911   4.061  0.1723 -0.2405 -0.3258
  330MOL0     C44424   6.135   2.041   4.105 -0.3132  0.0037 -0.0679
  330MOL0     C44425   6.045   2.094   4.214 -0.4589 -0.0127 -0.2303
  330MOL0     C44426   6.095   2.223   4.271  0.2046 -0.6815  0.4500
  330MOL0     C44427   6.191   2.202   4.385 -0.6409  0.4087  0.3467
  330MOL0     C44428   6.196   2.321   4.482  0.7251  0.0993 -0.1360
  330MOL0     C44429   6.265   2.447   4.428 -0.0161  0.7495  0.5149
  330MOL0     C44430   6.415   2.426   4.425  0.4278 -0.1851  0.8978
  330MOL0     C44431   6.486   2.563   4.409  0.4020 -0.2314 -0.8573
  330MOL0     N44432   6.619   2.549   4.358  0.2290  0.2130  0.0172
  330MOL0     C44433   6.739   2.553   4.434  1.3846  0.6870  0.2867
  330MOL0     C44434   6.832   2.529   4.338 -1.2074 -0.0976  1.4167
  330MOL0     C44435   6.977   2.505   4.380  1.2634 -0.1166 -0.0254
  330MOL0     C44436   7.068   2.467   4.266 -0.1069 -0.4570  1.1523
  330MOL0     C44437   7.194   2.415   4.324 -0.0939 -0.0492  0.0725
  330MOL0     C44438   7.315   2.442   4.243 -0.1719 -0.6214 -0.4443
  330MOL0     O44439   7.306   2.459   4.103 -0.6320  0.5426 -0.0647
  330MOL0     C44440   7.419   2.450   4.024 -0.3064 -0.4999 -0.5417
  330MOL0     C44441   7.405   2.431   3.888 -0.8233  0.9799 -1.6716
  330MOL0     C44442   7.515   2.424   3.802  0.1212  0.9256  0.5892
  330MOL0     C44443   7.645   2.433   3.857 -0.4434  0.1408 -0.3512
  330MOL0     C44444   7.769   2.415   3.774  0.3334  0.5215  1.1406
  330MOL0     O44445   7.876   2.497   3.808 -0.5648 -0.2506  0.1183
  330MOL0     C44446   8.002   2.488   3.750 -0.1531 -0.2186  0.1987
  330MOL0     C44447   8.089   2.374   3.709 -0.2115 -0.6211 -0.7819
  330MOL0     C44448   8.223   2.395   3.659 -0.9128 -0.0411  0.4647
  330MOL0     C44449   8.281   2.532   3.651 -0.4863 -0.1678  0.4578
  330MOL0     O44450   8.413   2.550   3.619  0.6108 -0.8232 -0.6286
  330MOL0     C44451   8.457   2.504   3.499 -0.1162 -0.1408 -0.2382
  330MOL0     C44452   8.603   2.539   3.474 -0.0327  0.9254  0.1049
  330MOL0     C44453   8.696   2.564   3.587 -0.5506  0.0608  0.6595
  330MOL0     C44454   8.692   2.457   3.700  0.1933  1.2026  1.2972
  330MOL0     C44455   8.748   2.322   3.651  0.5483  0.1377  0.0400
  330MOL0     C44456   8.791   2.229   3.769 -1.0513 -0.0229 -1.0354
  330MOL0     C44457   8.907   2.297   3.854 -0.0779 -0.6610  0.4190
  330MOL0     C44458   8.981   2.193   3.948 -0.0122  0.6840  0.4713
  330MOL0    Cl44459   8.868   2.138   4.074  0.5293  0.0254  0.2980
  330MOL0     C44460   8.202   2.627   3.709 -0.3633 -0.0689  0.9068
  330MOL0     C44461   8.071   2.608   3.751 -0.2260  1.0177  0.0319
  330MOL0     O44462   7.764   2.327   3.690 -0.3521 -0.0792  0.3527
  330MOL0     C44463   7.650   2.456   3.996  0.0262  0.1280  0.4623
  330MOL0     C44464   7.543   2.466   4.077 -0.5449  0.4613 -0.5792
  330MOL0     N44465   6.770   2.521   4.211 -0.0254  0.3416 -0.0629
  330MOL0     N44466   6.637   2.527   4.223  0.4698 -0.0531 -0.4136
  330MOL0     C44467   6.157   1.703   4.007  0.3721 -0.2610  0.5993
  330MOL0     C44468   6.246   1.611   3.961 -0.1725 -0.6536  0.6338
  330MOL0     C44469   6.584   1.384   3.814 -0.5862  0.7609  0.6185
  330MOL0     C44470   6.703   1.445   3.791 -0.0554  0.1258  0.1008
  330MOL0     C44471   6.819   1.359   3.793  0.4759 -0.8035 -0.7449
  330MOL0     C44472   6.811   1.224   3.806 -0.3445 -0.0862 -1.0188
  330MOL0     O44473   6.932   1.165   3.816  0.1426 -0.3317  0.0730
  330MOL0     C44474   6.936   1.017   3.844  0.6463  0.4683  0.0624
  330MOL0     C44475   7.070   0.971   3.797 -0.4651  0.2914 -0.4620
  330MOL0     C44476   7.176   1.001   3.905  0.2544  0.3751 -0.6043
  330MOL0     C44477   7.318   0.945   3.876  0.4253  0.2370  0.6659
  330MOL0     C44478   7.320   0.801   3.908  1.1155 -0.7958 -0.8985
  330MOL0     C44479   7.323   0.684   3.944 -0.2688  0.0564 -1.2511
  330MOL0     C44480   6.689   1.163   3.829  0.5524  0.0229 -0.5729
  330MOL0     C44481   6.572   1.244   3.826  0.9947 -0.2977 -0.1684
  330MOL0     C44482   6.435   1.166   3.862 -0.5062  0.1440 -0.0428
  330MOL0     H44483   6.479   1.819   3.843 -0.4118 -0.0264 -2.1029
  330MOL0     H44484   6.303   1.994   3.922 -1.7464 -0.2167 -1.2906
  330MOL0     H44485   6.239   2.027   4.139 -0.2551 -0.3083 -0.3691
  330MOL0     H44486   6.143   2.112   4.022 -0.2800  0.1146  0.0303
  330MOL0     H44487   6.020   2.017   4.287  0.2480 -0.5237 -0.5175
  330MOL0     H44488   5.946   2.099   4.169 -0.4378 -1.7688 -0.5363
  330MOL0     H44489   6.006   2.269   4.314  1.6596  0.4445  2.4149
  330MOL0     H44490   6.145   2.277   4.190  2.1469 -3.5452 -0.4130
  330MOL0     H44491   6.177   2.108   4.439 -1.2759 -1.3535 -2.6721
  330MOL0     H44492   6.288   2.200   4.334  1.1425  0.9621  3.4298
  330MOL0     H44493   6.099   2.338   4.528  1.0586  0.9824  0.2641
  330MOL0     H44494   6.259   2.286   4.565 -1.8774 -2.2596  1.0057
  330MOL0     H44495   6.238   2.464   4.324 -1.1989 -0.3541  0.6140
  330MOL0     H44496   6.240   2.536   4.486  2.6784  1.2417  1.0485
  330MOL0     H44497   6.432   2.373   4.331  0.7567  2.2787 -0.5372
  330MOL0     H44498   6.455   2.370   4.510 -0.0318 -1.7240  0.1286
  330MOL0     H44499   6.429   2.632   4.346 -2.8021 -0.3746  1.6022
  330MOL0     H44500   6.496   2.616   4.504 -0.5742 -1.1988 -0.1753
  330MOL0     H44501   6.762   2.568   4.539 -0.0303 -0.6494  0.8197
  330MOL0     H44502   7.007   2.605   4.413 -0.9304  1.3631 -2.0680
  330MOL0     H44503   6.992   2.428   4.456  1.0228 -0.7164 -0.5778
  330MOL0     H44504   7.012   2.403   4.198 -1.5298  2.7081 -0.8906
  330MOL0     H44505   7.101   2.548   4.200 -3.3628 -1.9743 -2.7740
  330MOL0     H44506   7.182   2.307   4.315 -3.0606  0.4084 -4.4453
  330MOL0     H44507   7.219   2.459   4.421  2.0181  2.8102 -1.5942
  330MOL0     H44508   7.380   2.355   4.259  0.3723 -0.7421 -2.8492
  330MOL0     H44509   7.363   2.534   4.278 -0.5847 -0.0597 -1.3133
  330MOL0     H44510   7.306   2.419   3.845 -1.1228  0.7462 -0.9312
  330MOL0     H44511   7.495   2.414   3.696  0.8307 -1.5788  0.6332
  330MOL0     H44512   8.065   2.270   3.725 -0.4964 -0.2102  2.0719
  330MOL0     H44513   8.281   2.305   3.644 -0.3022 -0.0832  2.6436
  330MOL0     H44514   8.438   2.396   3.497  0.5988 -0.2766  0.0527
  330MOL0     H44515   8.393   2.545   3.420 -0.2826 -0.2789 -0.1755
  330MOL0     H44516   8.636   2.458   3.408 -2.2293 -1.4773  1.7501
  330MOL0     H44517   8.599   2.620   3.401  2.4877 -2.0192 -3.6843
  330MOL0     H44518   8.796   2.579   3.546 -2.0486  1.1646 -2.9518
  330MOL0     H44519   8.662   2.658   3.632  0.4329 -0.5861  2.8991
  330MOL0     H44520   8.594   2.435   3.744  0.0500  2.2908  1.5368
  330MOL0     H44521   8.759   2.497   3.776  1.0342  0.1474  1.1334
  330MOL0     H44522   8.827   2.325   3.576 -1.8751 -2.1341 -2.8972
  330MOL0     H44523   8.672   2.272   3.590  0.5972 -0.1207  0.1871
  330MOL0     H44524   8.703   2.199   3.827  0.9520 -2.0654  1.1250
  330MOL0     H44525   8.844   2.141   3.732 -1.7522 -1.9849  2.1952
  330MOL0     H44526   8.871   2.374   3.922  6.1577  2.1082  1.1617
  330MOL0     H44527   8.978   2.345   3.787 -0.0211 -1.0380  0.2019
  330MOL0     H44528   9.027   2.106   3.901 -0.1645  0.4998  0.6592
  330MOL0     H44529   9.055   2.258   3.996  0.4386  1.0185 -0.6440
  330MOL0     H44530   8.248   2.722   3.735 -2.5538  1.5072 -0.6329
  330MOL0     H44531   8.013   2.684   3.803 -3.1545 -1.5463  0.7334
  330MOL0     H44532   7.751   2.461   4.036 -0.7411 -0.3831  2.5773
  330MOL0     H44533   7.561   2.485   4.182  2.0836  1.4644 -1.1258
  330MOL0     H44534   6.076   1.661   4.067  0.0197 -0.0517  0.2769
  330MOL0     H44535   6.229   1.504   3.974 -0.2295 -1.0771 -2.2517
  330MOL0     H44536   6.704   1.553   3.782 -0.3837  0.6897  4.4798
  330MOL0     H44537   6.922   1.390   3.806 -0.1953  0.4385  2.3717
  330MOL0     H44538   6.858   0.963   3.789 -1.1435  1.5335  1.4310
  330MOL0     H44539   6.923   0.982   3.947 -0.6733 -1.6758 -0.7572
  330MOL0     H44540   7.096   1.025   3.705 -2.9479  3.6278  0.5972
  330MOL0     H44541   7.071   0.865   3.773  1.7773 -0.4636  2.3966
  330MOL0     H44542   7.142   0.964   4.002 -1.3569 -3.0363 -2.2712
  330MOL0     H44543   7.189   1.109   3.911  2.5371  0.1930 -1.3453
  330MOL0     H44544   7.341   0.976   3.774  1.0066 -0.7772  0.4797
  330MOL0     H44545   7.378   1.004   3.945  1.7675 -0.4705  0.1306
  330MOL0     H44546   7.326   0.582   3.979 -1.6967 -0.1012 -1.5123
  330MOL0     H44547   6.676   1.057   3.847  0.7402  0.2897  1.4215
  330MOL0     H44548   6.383   1.125   3.775 -0.1184  1.7776 -1.0793
  330MOL0     H44549   6.462   1.081   3.925 -2.4179 -1.0503 -0.7517
  330MOL0     H44550   6.360   1.223   3.919 -1.5440 -1.0102 -0.2129
  331MOL0     O44551   8.192   5.952   0.987 -0.7004  0.0726 -0.1590
  331MOL0     C44552   8.267   5.932   1.085 -1.4531  0.2740 -0.4503
  331MOL0     O44553   8.369   5.844   1.086  0.3023 -0.7401 -0.2574
  331MOL0     C44554   8.366   5.749   0.985 -0.4055  0.1369  0.0534
  331MOL0     C44555   8.300   5.628   0.996 -0.0346  0.3890  0.3385
  331MOL0     C44556   8.291   5.538   0.892  0.5473  0.1449  0.0827
  331MOL0     C44557   8.354   5.564   0.772  0.3807 -0.0164 -0.0662
  331MOL0     O44558   8.358   5.487   0.656  0.7043 -0.0939 -0.2752
  331MOL0     C44559   8.269   5.368   0.653 -0.4270 -0.9468 -0.3170
  331MOL0     C44560   8.245   5.324   0.520 -0.8916 -0.7934 -0.4225
  331MOL0     C44561   8.156   5.204   0.496  0.3404  0.2392 -0.2795
  331MOL0     C44562   8.165   5.092   0.596  0.5969  0.3284 -0.2133
  331MOL0     C44563   8.081   4.970   0.546  0.6591 -0.4019  0.7442
  331MOL0     C44564   8.078   4.853   0.633 -0.9807  0.8036 -0.2342
  331MOL0     C44565   7.999   4.735   0.573 -0.4164 -0.3625 -0.5519
  331MOL0     C44566   8.087   4.664   0.457  0.9158 -0.0420 -0.3864
  331MOL0     N44567   7.993   4.569   0.378 -0.2542  0.4639  0.5049
  331MOL0     C44568   7.979   4.431   0.392 -0.6354 -0.3567  1.0181
  331MOL0     C44569   7.874   4.402   0.316 -0.1215 -0.8200  0.2697
  331MOL0     C44570   7.826   4.266   0.286  0.5812  0.0422 -0.1232
  331MOL0     C44571   7.834   4.235   0.138 -0.6255  0.5860 -0.8361
  331MOL0     C44572   7.694   4.212   0.077 -0.4658  1.6349  0.7663
  331MOL0     C44573   7.710   4.150  -0.067 -0.2107  0.1961 -0.7852
  331MOL0     O44574   7.788   4.025  -0.066 -0.5962  0.0755  0.1801
  331MOL0     C44575   7.722   3.915  -0.007  0.1101  0.0528  0.1773
  331MOL0     C44576   7.578   3.904   0.024 -0.8058 -0.7998  0.0117
  331MOL0     C44577   7.519   3.787   0.067  0.0412 -1.0149  0.2810
  331MOL0     C44578   7.598   3.677   0.094  0.1050  0.3240 -0.4670
  331MOL0     C44579   7.537   3.546   0.131 -0.1267  0.2849  0.1427
  331MOL0     O44580   7.612   3.460   0.209 -0.6806 -0.6612  1.0070
  331MOL0     C44581   7.565   3.338   0.229 -0.4619  0.0256  0.3766
  331MOL0     C44582   7.528   3.243   0.124 -0.6192 -0.5713 -0.1528
  331MOL0     C44583   7.490   3.114   0.163  0.8508 -0.4028  0.9359
  331MOL0     C44584   7.496   3.068   0.297 -0.9429  0.6107 -0.3517
  331MOL0     O44585   7.448   2.940   0.315  0.1161 -0.4080  0.0872
  331MOL0     C44586   7.482   2.869   0.439 -0.2111  0.0352 -0.3834
  331MOL0     C44587   7.396   2.735   0.446 -0.5385  0.6269 -0.7215
  331MOL0     C44588   7.246   2.750   0.457  0.6590 -0.9167 -0.7435
  331MOL0     C44589   7.188   2.866   0.546 -0.0609 -0.5425 -0.0383
  331MOL0     C44590   7.032   2.857   0.560  0.0299 -0.1689 -0.0476
  331MOL0     C44591   6.943   2.957   0.630  1.6886 -0.7186  0.6266
  331MOL0     C44592   6.814   2.884   0.679 -0.6297 -0.4210  0.3042
  331MOL0     C44593   6.722   2.989   0.739  0.5789 -0.2530 -0.8079
  331MOL0    Cl44594   6.583   2.915   0.814 -0.3854 -0.0999  0.0744
  331MOL0     C44595   7.548   3.151   0.392  0.3330 -0.0486 -0.4768
  331MOL0     C44596   7.578   3.283   0.358 -0.0362  0.6034  0.2236
  331MOL0     O44597   7.422   3.524   0.096 -0.2560  0.2675  0.1810
  331MOL0     C44598   7.735   3.686   0.062 -0.2088 -0.6967  0.2701
  331MOL0     C44599   7.790   3.805   0.010  0.2133  1.0032 -0.0428
  331MOL0     N44600   7.833   4.518   0.245 -0.2303  0.6122 -0.5052
  331MOL0     N44601   7.912   4.611   0.275 -0.2970 -0.8792 -0.1877
  331MOL0     C44602   8.434   5.674   0.765 -0.8738  0.2124 -0.2248
  331MOL0     C44603   8.437   5.770   0.869  0.1315 -0.3487  0.6550
  331MOL0     C44604   8.282   6.042   1.181  1.0034 -0.0180 -0.5828
  331MOL0     C44605   8.407   6.081   1.225 -1.4829  0.3679 -0.3369
  331MOL0     C44606   8.422   6.161   1.341 -1.3000 -0.2606  0.3984
  331MOL0     C44607   8.312   6.215   1.403 -0.5038  0.1941  0.0507
  331MOL0     O44608   8.307   6.293   1.511 -0.1305  0.4411  0.0732
  331MOL0     C44609   8.429   6.320   1.578  0.6683 -0.3280  0.0032
  331MOL0     C44610   8.498   6.446   1.520 -0.2637  0.2557  0.6164
  331MOL0     C44611   8.631   6.470   1.595 -0.4915 -0.1874 -0.1946
  331MOL0     C44612   8.620   6.498   1.746 -0.5174  0.5631 -0.9418
  331MOL0     C44613   8.757   6.499   1.800 -0.0306  0.0480  0.7406
  331MOL0     C44614   8.875   6.497   1.832  0.3835  1.0962  0.0010
  331MOL0     C44615   8.191   6.171   1.360  0.7542  0.1920 -0.1382
  331MOL0     C44616   8.169   6.083   1.257  0.3370  0.4285  0.7475
  331MOL0     C44617   8.019   6.056   1.226 -0.8882 -1.1296 -0.1927
  331MOL0     H44618   8.242   5.605   1.084  1.4302 -2.3342  0.7102
  331MOL0     H44619   8.235   5.446   0.909 -1.4091  1.2775 -0.0052
  331MOL0     H44620   8.306   5.280   0.707  1.3003 -0.3394 -0.4255
  331MOL0     H44621   8.171   5.399   0.691 -2.1718 -3.8397 -2.0807
  331MOL0     H44622   8.342   5.315   0.472 -1.1106 -2.0765 -0.6736
  331MOL0     H44623   8.188   5.404   0.472 -0.0619 -0.5057 -0.9264
  331MOL0     H44624   8.170   5.162   0.396  2.5312 -0.6486  0.3393
  331MOL0     H44625   8.054   5.244   0.496 -0.8577 -2.5150 -2.2219
  331MOL0     H44626   8.269   5.061   0.609  1.2240  1.9604 -0.9930
  331MOL0     H44627   8.136   5.131   0.694  1.8397  1.0946 -0.1236
  331MOL0     H44628   7.981   5.006   0.521  0.8355 -0.2404  0.2341
  331MOL0     H44629   8.119   4.937   0.448  0.3526 -2.6484  1.3432
  331MOL0     H44630   8.182   4.823   0.652 -0.9178  1.2276  0.0915
  331MOL0     H44631   8.038   4.889   0.728 -0.5052  3.1377 -0.8577
  331MOL0     H44632   7.905   4.766   0.525 -1.5509 -2.5749  0.0693
  331MOL0     H44633   7.975   4.672   0.659  1.1622  2.4952  2.2052
  331MOL0     H44634   8.132   4.731   0.383 -2.4016  3.2666  0.2821
  331MOL0     H44635   8.165   4.602   0.500  1.4277  1.9433  1.7343
  331MOL0     H44636   8.041   4.367   0.454  0.0077 -0.3045  0.4371
  331MOL0     H44637   7.883   4.185   0.333  2.9628 -0.4032 -3.4326
  331MOL0     H44638   7.722   4.268   0.322  0.7756 -0.6157  0.4989
  331MOL0     H44639   7.894   4.311   0.087 -0.8186  1.7661  0.6204
  331MOL0     H44640   7.892   4.143   0.133 -2.0108 -0.5564  2.1218
  331MOL0     H44641   7.643   4.309   0.072 -2.6046  0.5145 -0.5545
  331MOL0     H44642   7.632   4.147   0.138 -1.7196  2.2800  0.2134
  331MOL0     H44643   7.764   4.220  -0.132  3.5756 -2.5843 -1.0073
  331MOL0     H44644   7.612   4.129  -0.112 -0.0642  0.3364 -1.1776
  331MOL0     H44645   7.507   3.984   0.009 -0.0616 -0.1159  0.0968
  331MOL0     H44646   7.415   3.776   0.097 -0.7121  2.1814 -0.7906
  331MOL0     H44647   7.535   3.283   0.024  1.3057 -2.2336 -0.7370
  331MOL0     H44648   7.455   3.037   0.095  1.2568  0.5781 -0.4299
  331MOL0     H44649   7.586   2.836   0.434  0.4108  2.0905 -2.7008
  331MOL0     H44650   7.466   2.924   0.532 -2.6201 -1.7694  0.3802
  331MOL0     H44651   7.419   2.683   0.352  2.1042 -1.7895  1.1121
  331MOL0     H44652   7.433   2.674   0.529 -1.5825  0.4199 -0.3912
  331MOL0     H44653   7.208   2.755   0.355 -0.0523 -3.2169 -0.6548
  331MOL0     H44654   7.209   2.657   0.503  3.3950 -0.4187  2.8907
  331MOL0     H44655   7.207   2.962   0.497  1.7855 -1.0380 -0.3650
  331MOL0     H44656   7.244   2.875   0.640 -0.1909  0.2116 -0.0237
  331MOL0     H44657   7.020   2.754   0.597 -1.7126 -0.0780 -0.2839
  331MOL0     H44658   6.991   2.846   0.459  3.3171 -1.4867 -1.3866
  331MOL0     H44659   6.987   2.995   0.722 -0.3110  1.8103  0.6234
  331MOL0     H44660   6.922   3.042   0.565  6.4839  0.8930  0.7590
  331MOL0     H44661   6.837   2.809   0.755  1.7746 -2.6816 -2.3924
  331MOL0     H44662   6.768   2.835   0.592  1.2088 -1.0482 -0.3718
  331MOL0     H44663   6.764   3.053   0.817 -1.3931  0.1561 -0.0117
  331MOL0     H44664   6.690   3.059   0.661 -0.7045 -0.3793 -0.4210
  331MOL0     H44665   7.554   3.122   0.496 -0.1429  2.8575  0.4588
  331MOL0     H44666   7.628   3.346   0.431  0.8198  0.1549  0.0402
  331MOL0     H44667   7.795   3.596   0.069 -2.2084 -2.4572 -2.7873
  331MOL0     H44668   7.891   3.796  -0.029  0.8322 -3.4382  1.9284
  331MOL0     H44669   8.489   5.676   0.671  3.4097 -0.4253  2.0345
  331MOL0     H44670   8.494   5.858   0.842 -0.0502  0.2220  2.0786
  331MOL0     H44671   8.497   6.040   1.180 -1.1657  0.3820  0.2780
  331MOL0     H44672   8.522   6.179   1.378  1.4626 -1.5246 -5.3234
  331MOL0     H44673   8.503   6.240   1.567 -2.3063 -3.0175 -2.2138
  331MOL0     H44674   8.428   6.333   1.686  0.7527 -0.7232  0.0498
  331MOL0     H44675   8.438   6.536   1.506 -2.1583 -1.1927 -1.1774
  331MOL0     H44676   8.519   6.417   1.417 -0.7449 -0.8950  0.8319
  331MOL0     H44677   8.675   6.558   1.547  0.7709 -0.0016  1.2354
  331MOL0     H44678   8.696   6.383   1.583 -0.2622 -0.2150  1.0970
  331MOL0     H44679   8.582   6.598   1.768 -0.1013  0.4083  0.5720
  331MOL0     H44680   8.565   6.427   1.807 -0.4021  1.1873 -0.0853
  331MOL0     H44681   8.971   6.487   1.877  0.4500 -1.4585 -0.5312
  331MOL0     H44682   8.107   6.204   1.420  1.1053 -2.1507  1.7414
  331MOL0     H44683   7.994   6.147   1.170  1.8672  0.4336  0.9001
  331MOL0     H44684   8.013   5.961   1.174  0.5477 -1.8293  0.8297
  331MOL0     H44685   7.971   6.058   1.325 -0.5757  1.2937 -0.0239
  332MOL0     O44686   0.616   8.487   6.110 -0.0493 -0.5198  0.5143
  332MOL0     C44687   0.566   8.406   6.184  0.0073  0.4893 -0.5601
  332MOL0     O44688   0.636   8.304   6.247  0.0407  0.3488 -0.4369
  332MOL0     C44689   0.772   8.318   6.267  0.6761 -0.3425  0.8411
  332MOL0     C44690   0.818   8.426   6.350 -0.5481  0.4610 -1.0960
  332MOL0     C44691   0.954   8.433   6.390  0.2165  0.2692 -0.9106
  332MOL0     C44692   1.050   8.340   6.333  0.4135 -1.1611  0.3560
  332MOL0     O44693   1.182   8.354   6.356 -0.5064  0.0660 -0.9442
  332MOL0     C44694   1.286   8.343   6.256  0.0498 -0.0542  0.2538
  332MOL0     C44695   1.300   8.457   6.161 -0.0237 -0.4835  0.1534
  332MOL0     C44696   1.454   8.497   6.135  0.2592 -0.1317  0.3290
  332MOL0     C44697   1.526   8.390   6.058 -0.2426 -1.5849 -0.8969
  332MOL0     C44698   1.670   8.437   6.029  0.9789  0.9523 -0.0348
  332MOL0     C44699   1.770   8.321   6.018 -0.7854  0.6496  0.0712
  332MOL0     C44700   1.915   8.358   6.042 -0.4210 -0.4977 -0.4826
  332MOL0     C44701   1.994   8.413   5.923  0.5974 -0.3714 -0.8483
  332MOL0     N44702   2.128   8.453   5.956 -0.2307  1.2373  0.0931
  332MOL0     C44703   2.169   8.576   6.005 -0.6409  0.1613  1.2485
  332MOL0     C44704   2.306   8.578   5.998  0.4576 -1.0244  0.4844
  332MOL0     C44705   2.374   8.703   6.040  0.0484  0.5556  0.6057
  332MOL0     C44706   2.401   8.695   6.194 -1.0563  0.6647 -0.2434
  332MOL0     C44707   2.290   8.620   6.274  0.3061  0.0780  0.2149
  332MOL0     C44708   2.303   8.646   6.425  0.1203 -0.6313 -0.3388
  332MOL0     O44709   2.241   8.551   6.518 -0.1035  1.1999  0.3682
  332MOL0     C44710   2.123   8.484   6.483 -0.1387  0.3044  0.2986
  332MOL0     C44711   2.004   8.547   6.497 -0.1181 -0.9044  0.5242
  332MOL0     C44712   1.893   8.477   6.459  1.2284  0.2461 -0.5729
  332MOL0     C44713   1.894   8.337   6.429 -0.4198  0.8861 -0.3848
  332MOL0     C44714   1.768   8.264   6.396 -1.5221 -0.3408 -0.3156
  332MOL0     O44715   1.782   8.135   6.354 -0.0888 -0.3122 -0.1526
  332MOL0     C44716   1.671   8.061   6.322  0.3122  0.3147 -0.2398
  332MOL0     C44717   1.655   7.995   6.196  0.9718  0.5695 -0.3206
  332MOL0     C44718   1.537   7.924   6.164 -0.5460 -0.3882  0.0108
  332MOL0     C44719   1.433   7.912   6.263  0.1234  0.7831 -0.5455
  332MOL0     O44720   1.321   7.829   6.257 -0.6492  0.0295  0.6530
  332MOL0     C44721   1.265   7.789   6.128  0.0117 -0.3964 -0.4065
  332MOL0     C44722   1.133   7.729   6.157  0.0631 -0.4586 -0.3905
  332MOL0     C44723   1.021   7.824   6.195  0.0676  0.3988 -0.4529
  332MOL0     C44724   0.904   7.738   6.258  0.7423 -0.0497  0.2294
  332MOL0     C44725   0.783   7.825   6.234 -0.1671  0.0406  0.2373
  332MOL0     C44726   0.683   7.810   6.345 -0.6860  0.6464 -0.2897
  332MOL0     C44727   0.576   7.914   6.343 -0.1149 -0.3614  0.1783
  332MOL0     C44728   0.465   7.868   6.436 -0.2940  0.1736 -0.3950
  332MOL0    Cl44729   0.321   7.966   6.408 -0.7385  0.3905 -0.4511
  332MOL0     C44730   1.465   7.964   6.389 -0.1225  0.1180 -0.7310
  332MOL0     C44731   1.571   8.052   6.414  1.0379  0.8618 -1.1908
  332MOL0     O44732   1.661   8.317   6.429 -0.4753 -0.4397 -0.8409
  332MOL0     C44733   2.022   8.274   6.429  1.1080 -0.4399 -0.4366
  332MOL0     C44734   2.137   8.356   6.446  0.2423 -0.0714  0.5598
  332MOL0     N44735   2.349   8.450   5.957  0.7458 -0.1051  0.2062
  332MOL0     N44736   2.240   8.375   5.941  0.1777  0.2553 -0.3364
  332MOL0     C44737   1.002   8.244   6.246 -0.0199 -0.0180 -0.6629
  332MOL0     C44738   0.867   8.225   6.220  0.9189  0.5694  0.2883
  332MOL0     C44739   0.423   8.411   6.222  0.2472  0.3781  0.7522
  332MOL0     C44740   0.370   8.320   6.314 -0.4243 -0.1707  0.5096
  332MOL0     C44741   0.237   8.337   6.375  0.7083  0.0117  0.3915
  332MOL0     C44742   0.151   8.437   6.318 -1.3170 -0.3432 -0.5727
  332MOL0     O44743   0.022   8.456   6.365 -0.5431  0.5732  0.7580
  332MOL0     C44744  -0.031   8.389   6.482 -0.4024 -0.5467  0.2713
  332MOL0     C44745  -0.171   8.432   6.509  0.2827 -0.3043  0.7766
  332MOL0     C44746  -0.269   8.456   6.397  0.1858  0.2642 -0.4379
  332MOL0     C44747  -0.403   8.517   6.439  0.5358 -0.7578  0.4038
  332MOL0     C44748  -0.490   8.436   6.533  0.2126  0.1632  0.7433
  332MOL0     C44749  -0.556   8.383   6.618  0.2366  0.2277 -0.2351
  332MOL0     C44750   0.198   8.514   6.209  0.3445  0.7068 -0.7122
  332MOL0     C44751   0.336   8.508   6.159  0.2146  0.0623 -0.1212
  332MOL0     C44752   0.372   8.604   6.050 -0.1099 -0.6957  0.6505
  332MOL0     H44753   0.748   8.505   6.371 -0.1969  0.5869 -0.3455
  332MOL0     H44754   0.996   8.516   6.444  0.5224 -1.1283  1.1077
  332MOL0     H44755   1.384   8.336   6.305  1.5232 -0.5634 -2.5433
  332MOL0     H44756   1.273   8.250   6.199  4.1086 -0.8562  0.3075
  332MOL0     H44757   1.240   8.529   6.216 -0.9742 -1.9421  1.1034
  332MOL0     H44758   1.248   8.432   6.068  0.1340 -0.2587  0.0038
  332MOL0     H44759   1.503   8.531   6.227 -0.1857 -0.2859  0.6269
  332MOL0     H44760   1.455   8.588   6.075 -1.2554 -0.7851 -0.7536
  332MOL0     H44761   1.529   8.295   6.111  1.0173 -1.4100 -0.6315
  332MOL0     H44762   1.469   8.377   5.965  1.8802  0.3821 -2.6210
  332MOL0     H44763   1.669   8.497   5.937  2.8668  1.9846  0.5781
  332MOL0     H44764   1.702   8.498   6.114 -1.4694  1.4623  0.5921
  332MOL0     H44765   1.751   8.246   6.095  0.9648 -0.6469 -0.7099
  332MOL0     H44766   1.768   8.274   5.919 -0.6524  1.1006 -0.1486
  332MOL0     H44767   1.956   8.265   6.080 -4.4370 -1.1336  3.0341
  332MOL0     H44768   1.931   8.433   6.120 -1.5217  0.2330 -0.9283
  332MOL0     H44769   1.984   8.337   5.845  4.4202  1.2526 -3.2362
  332MOL0     H44770   1.942   8.497   5.876 -2.9745 -2.0865 -0.2553
  332MOL0     H44771   2.095   8.650   6.033 -4.0340 -2.0766 -1.1440
  332MOL0     H44772   2.467   8.724   5.988  0.1264  2.4740  1.4244
  332MOL0     H44773   2.301   8.777   6.007 -1.8753 -0.7932  1.6016
  332MOL0     H44774   2.494   8.642   6.216 -2.7415 -1.5910  2.1041
  332MOL0     H44775   2.428   8.797   6.224  2.7818  0.1727 -1.5327
  332MOL0     H44776   2.301   8.512   6.263  0.1500 -0.0735  1.4516
  332MOL0     H44777   2.198   8.666   6.238  0.2158  1.9091  2.5501
  332MOL0     H44778   2.238   8.735   6.433  1.0060  0.0350 -0.4648
  332MOL0     H44779   2.407   8.662   6.452 -0.6127 -1.4793  3.7633
  332MOL0     H44780   2.004   8.651   6.527 -0.9337 -0.0113 -2.2713
  332MOL0     H44781   1.798   8.529   6.464  0.9429 -0.3662  0.6516
  332MOL0     H44782   1.731   8.000   6.119 -0.4786 -1.1148 -1.9424
  332MOL0     H44783   1.545   7.877   6.067  1.8990 -0.7881  0.3331
  332MOL0     H44784   1.256   7.866   6.051 -0.3765  1.1925  1.1733
  332MOL0     H44785   1.330   7.710   6.088  2.4249  0.8701  0.7887
  332MOL0     H44786   1.100   7.680   6.065  3.6367  0.0402 -2.1241
  332MOL0     H44787   1.140   7.658   6.240  1.8558  1.4346  1.1887
  332MOL0     H44788   1.063   7.897   6.264  1.1640 -2.0911  1.6941
  332MOL0     H44789   0.985   7.867   6.101 -1.1298  1.0593  0.2883
  332MOL0     H44790   0.937   7.718   6.361 -0.4576 -2.5725  0.1979
  332MOL0     H44791   0.890   7.649   6.195 -1.2068  0.7887 -0.5769
  332MOL0     H44792   0.743   7.791   6.138 -0.1652 -0.1968  0.3200
  332MOL0     H44793   0.808   7.929   6.215  0.2104 -0.6260 -3.8454
  332MOL0     H44794   0.634   7.714   6.333  0.9091 -0.5352  2.0240
  332MOL0     H44795   0.733   7.820   6.441 -0.2286  3.4057 -0.7099
  332MOL0     H44796   0.544   7.908   6.238 -1.5777  0.7048  0.5351
  332MOL0     H44797   0.624   8.008   6.370 -1.0092  0.6056 -1.4484
  332MOL0     H44798   0.433   7.764   6.421 -2.3394  0.1987  2.9417
  332MOL0     H44799   0.494   7.879   6.541 -0.7409 -1.1178 -0.1093
  332MOL0     H44800   1.396   7.955   6.472  1.9660  0.2681  1.0916
  332MOL0     H44801   1.572   8.104   6.509  1.0404  0.6187 -1.0562
  332MOL0     H44802   2.018   8.170   6.398  0.6559 -1.3708  2.4642
  332MOL0     H44803   2.236   8.325   6.414 -0.2474  0.8125 -2.0979
  332MOL0     H44804   1.077   8.173   6.211  0.6141 -1.4349  3.1004
  332MOL0     H44805   0.821   8.152   6.154 -1.3145  0.3054  1.9898
  332MOL0     H44806   0.428   8.235   6.349 -1.0542  0.0782  2.2805
  332MOL0     H44807   0.211   8.271   6.458  1.3520  0.3336  0.8579
  332MOL0     H44808   0.036   8.384   6.568  0.3547 -3.1518 -0.3694
  332MOL0     H44809  -0.032   8.285   6.449  1.4948 -0.1588 -1.1752
  332MOL0     H44810  -0.156   8.526   6.562  3.0751 -0.5548  0.5542
  332MOL0     H44811  -0.198   8.347   6.573  0.9697  2.1691  4.6128
  332MOL0     H44812  -0.283   8.361   6.346 -0.7116 -0.4845  1.1505
  332MOL0     H44813  -0.224   8.527   6.326 -2.1089  1.1087 -1.1534
  332MOL0     H44814  -0.380   8.614   6.482 -0.0624  0.7430 -2.4070
  332MOL0     H44815  -0.462   8.530   6.347  0.8823 -4.8545 -0.6111
  332MOL0     H44816  -0.610   8.326   6.691  1.4181 -0.7526 -0.0926
  332MOL0     H44817   0.127   8.582   6.163 -0.0189 -1.2753 -3.2984
  332MOL0     H44818   0.294   8.678   6.029  0.5283 -0.4653 -1.0936
  332MOL0     H44819   0.465   8.657   6.071 -0.5277  0.2578  0.1525
  332MOL0     H44820   0.394   8.555   5.954  1.4952 -1.2299  1.2686
  333MOL0     O44821   8.773   4.886   1.398  0.3783 -0.9082  0.1827
  333MOL0     C44822   8.896   4.897   1.417  0.4988  0.8020  0.2032
  333MOL0     O44823   8.956   4.902   1.540 -0.0450 -0.0222 -0.1399
  333MOL0     C44824   8.895   4.859   1.654  0.4299 -0.4531  0.4341
  333MOL0     C44825   8.782   4.929   1.700  0.6914 -0.2201 -0.0658
  333MOL0     C44826   8.721   4.919   1.825 -0.0643  0.1832 -1.1054
  333MOL0     C44827   8.778   4.828   1.916  0.3880  0.2618  0.4420
  333MOL0     O44828   8.714   4.818   2.041 -0.1257 -0.1638 -0.0964
  333MOL0     C44829   8.740   4.701   2.127  0.1455 -0.0543  0.1966
  333MOL0     C44830   8.790   4.749   2.261 -1.1697  1.2201  0.7921
  333MOL0     C44831   8.705   4.863   2.317  0.2790 -0.9317  0.1697
  333MOL0     C44832   8.674   4.844   2.469 -0.1445 -0.7729 -0.1673
  333MOL0     C44833   8.602   4.964   2.520 -0.4679 -0.2747 -0.4211
  333MOL0     C44834   8.472   4.981   2.453  0.8572  0.1750  0.1196
  333MOL0     C44835   8.359   4.867   2.473 -0.8422 -0.6970  0.0256
  333MOL0     C44836   8.339   4.826   2.626 -0.4066 -0.1870 -0.5656
  333MOL0     N44837   8.207   4.758   2.646 -0.0679 -0.1682 -0.3309
  333MOL0     C44838   8.176   4.654   2.571  0.3602  0.5088  0.3291
  333MOL0     C44839   8.053   4.612   2.625  0.5686  0.4681  0.0981
  333MOL0     C44840   7.950   4.516   2.567  0.3188  0.7899  0.3219
  333MOL0     C44841   7.853   4.596   2.479  0.3560  0.1765  0.2961
  333MOL0     C44842   7.760   4.507   2.398 -0.4227  0.4627 -0.2812
  333MOL0     C44843   7.651   4.586   2.325 -0.5404 -0.7692  0.6675
  333MOL0     O44844   7.571   4.669   2.419  0.4033  0.2737 -0.2304
  333MOL0     C44845   7.480   4.755   2.380  0.4009 -0.4543 -0.0855
  333MOL0     C44846   7.415   4.829   2.480  0.5458 -0.2816 -0.2796
  333MOL0     C44847   7.300   4.907   2.451 -0.6258 -0.3608  0.4264
  333MOL0     C44848   7.257   4.925   2.316 -0.5897 -0.2236 -0.6237
  333MOL0     C44849   7.142   5.008   2.274  0.1417  0.1896  0.2317
  333MOL0     O44850   7.071   5.057   2.378 -0.7404 -0.2096 -0.1490
  333MOL0     C44851   6.937   5.082   2.359 -0.3263  0.9431 -0.2725
  333MOL0     C44852   6.852   5.034   2.253 -0.2223 -0.1333  0.8189
  333MOL0     C44853   6.720   5.076   2.251 -0.3330  0.8371 -0.4582
  333MOL0     C44854   6.665   5.158   2.346 -0.4143 -0.7264  0.8100
  333MOL0     O44855   6.534   5.190   2.333  0.1946  0.1816 -0.1006
  333MOL0     C44856   6.449   5.214   2.444 -0.3413 -0.8913 -0.6716
  333MOL0     C44857   6.307   5.252   2.398 -0.4864  0.3269 -0.3851
  333MOL0     C44858   6.214   5.242   2.527 -0.8263  0.1105  0.5959
  333MOL0     C44859   6.227   5.368   2.613 -0.1458 -0.7157  0.2546
  333MOL0     C44860   6.143   5.356   2.729 -0.4112 -0.4844 -0.5210
  333MOL0     C44861   5.991   5.360   2.701 -0.4381  0.8065  1.0932
  333MOL0     C44862   5.916   5.377   2.834 -0.3179 -0.4489  1.1585
  333MOL0     C44863   5.770   5.426   2.816  0.7262 -1.3443 -0.2384
  333MOL0    Cl44864   5.651   5.321   2.721  0.0608 -0.0074  0.3061
  333MOL0     C44865   6.755   5.205   2.447  0.6331 -0.5500  0.9113
  333MOL0     C44866   6.887   5.170   2.446  0.9783 -0.4271 -0.1082
  333MOL0     O44867   7.121   5.020   2.154 -0.4842  0.2570  0.1777
  333MOL0     C44868   7.325   4.851   2.221  0.4154 -0.3236 -0.5524
  333MOL0     C44869   7.430   4.764   2.248  0.4123 -0.9394  0.1302
  333MOL0     N44870   8.018   4.706   2.713 -0.1174 -0.6526 -0.1340
  333MOL0     N44871   8.109   4.802   2.730 -0.3338  0.2736  0.1931
  333MOL0     C44872   8.902   4.765   1.876 -0.1596 -0.4584  1.1630
  333MOL0     C44873   8.954   4.779   1.744 -0.3261  0.1698 -0.8161
  333MOL0     C44874   8.996   4.885   1.303  0.2052 -0.2489 -0.2661
  333MOL0     C44875   9.129   4.858   1.320 -0.0164  0.1542 -0.3304
  333MOL0     C44876   9.223   4.839   1.217  0.1114 -0.9953  0.2645
  333MOL0     C44877   9.178   4.845   1.086 -0.2280 -0.1884  0.2323
  333MOL0     O44878   9.259   4.831   0.978 -0.1103  0.4399  0.5494
  333MOL0     C44879   9.397   4.808   0.992 -0.1614  0.5727  0.4369
  333MOL0     C44880   9.445   4.775   0.847  0.0311 -0.0804  0.6450
  333MOL0     C44881   9.448   4.893   0.754 -0.0055 -1.3935 -0.5082
  333MOL0     C44882   9.490   4.868   0.607 -0.2907  0.1370 -0.4972
  333MOL0     C44883   9.495   4.989   0.530  0.2277 -0.2591 -0.0605
  333MOL0     C44884   9.490   5.102   0.474  0.5882 -0.7430  0.1888
  333MOL0     C44885   9.046   4.872   1.061 -0.3038  1.5198  0.1674
  333MOL0     C44886   8.957   4.887   1.164 -0.1355 -0.5067  0.2847
  333MOL0     C44887   8.802   4.913   1.125 -0.2365  0.5260 -0.0312
  333MOL0     H44888   8.747   5.013   1.641  1.3650  0.4431  0.4477
  333MOL0     H44889   8.642   4.986   1.857  1.8397  1.8321  0.4590
  333MOL0     H44890   8.641   4.656   2.136  0.7451 -1.8046 -1.3278
  333MOL0     H44891   8.791   4.612   2.089 -0.2383  0.3259 -1.2578
  333MOL0     H44892   8.890   4.788   2.240 -1.3564 -0.3789 -4.5792
  333MOL0     H44893   8.813   4.664   2.326 -0.1727 -3.5106 -4.8701
  333MOL0     H44894   8.608   4.877   2.268 -2.3661 -2.0386  4.5663
  333MOL0     H44895   8.757   4.957   2.294 -2.6741  0.5054 -1.3507
  333MOL0     H44896   8.621   4.751   2.495  1.2752 -0.9938  2.1608
  333MOL0     H44897   8.774   4.847   2.511  0.2034  0.6662 -1.0505
  333MOL0     H44898   8.607   4.966   2.629  0.7210  1.0344 -0.4682
  333MOL0     H44899   8.657   5.051   2.484 -1.3388  0.1215 -0.8371
  333MOL0     H44900   8.420   5.066   2.496 -4.5412 -2.1022 -1.1180
  333MOL0     H44901   8.476   4.989   2.344  3.7887 -2.7420 -0.1698
  333MOL0     H44902   8.385   4.778   2.415 -0.7814 -1.2169  0.8516
  333MOL0     H44903   8.272   4.911   2.423  0.6422  0.4227 -1.7314
  333MOL0     H44904   8.428   4.770   2.655 -1.7418 -2.5187 -0.7001
  333MOL0     H44905   8.349   4.920   2.680  1.4324  0.0330 -1.2223
  333MOL0     H44906   8.224   4.613   2.483 -1.5670  0.9795 -1.0241
  333MOL0     H44907   8.002   4.447   2.500 -1.7352  0.4208 -0.9822
  333MOL0     H44908   7.904   4.451   2.642 -2.1571 -0.4013 -2.0694
  333MOL0     H44909   7.802   4.650   2.559  1.2394  1.1202  0.2479
  333MOL0     H44910   7.899   4.675   2.419  1.1825 -1.2566 -1.0190
  333MOL0     H44911   7.708   4.436   2.462 -1.5841  0.5360 -1.1134
  333MOL0     H44912   7.822   4.459   2.322  1.3603  0.2514  1.2444
  333MOL0     H44913   7.590   4.524   2.259 -1.3706 -1.0349  1.6528
  333MOL0     H44914   7.694   4.657   2.254  1.2235 -2.4860 -0.0540
  333MOL0     H44915   7.446   4.822   2.584 -2.8809  0.6650  0.9367
  333MOL0     H44916   7.258   4.951   2.540  1.4962  1.1180  0.7580
  333MOL0     H44917   6.888   4.956   2.186 -4.5908 -0.8997 -0.9611
  333MOL0     H44918   6.658   5.043   2.169 -1.0699 -1.9608  1.1027
  333MOL0     H44919   6.452   5.134   2.519  2.8124 -2.0800 -1.9035
  333MOL0     H44920   6.480   5.309   2.488 -2.7402  0.7606 -2.3106
  333MOL0     H44921   6.304   5.348   2.346  3.6499  0.2406 -1.0541
  333MOL0     H44922   6.280   5.180   2.320  2.5739 -2.4282  0.8838
  333MOL0     H44923   6.115   5.255   2.482 -0.2164  2.1268 -0.2592
  333MOL0     H44924   6.224   5.146   2.578 -0.4599 -1.0810 -1.5706
  333MOL0     H44925   6.198   5.450   2.547  0.6677 -0.1030  0.6450
  333MOL0     H44926   6.330   5.390   2.644 -0.8889  0.9954  1.7324
  333MOL0     H44927   6.175   5.439   2.794  1.8031 -1.6179 -0.0632
  333MOL0     H44928   6.153   5.263   2.784 -3.4816 -0.2775  0.6053
  333MOL0     H44929   5.964   5.439   2.630 -0.5371 -1.3388 -1.4323
  333MOL0     H44930   5.960   5.259   2.674 -1.4066  1.5246 -0.6688
  333MOL0     H44931   5.979   5.443   2.895 -0.0770  3.1586 -2.6129
  333MOL0     H44932   5.922   5.288   2.897 -0.9235  0.0744  1.9763
  333MOL0     H44933   5.728   5.430   2.917  0.3804 -1.1483 -0.3901
  333MOL0     H44934   5.757   5.531   2.789 -3.4217 -0.4906  3.7547
  333MOL0     H44935   6.723   5.270   2.527  0.7462 -0.6189  1.0140
  333MOL0     H44936   6.947   5.194   2.533 -0.0206 -4.0733  1.8136
  333MOL0     H44937   7.295   4.857   2.117  2.6584  0.5234 -1.2202
  333MOL0     H44938   7.482   4.718   2.164 -0.5547 -1.2115 -0.3383
  333MOL0     H44939   8.949   4.705   1.953 -0.3158 -0.7945  1.0020
  333MOL0     H44940   9.040   4.715   1.726 -1.4417 -1.3009 -1.1747
  333MOL0     H44941   9.168   4.826   1.417  2.2316 -1.1043 -1.5549
  333MOL0     H44942   9.330   4.839   1.238 -0.5878 -0.0561  4.9737
  333MOL0     H44943   9.424   4.717   1.048  1.9822 -0.3948 -1.9792
  333MOL0     H44944   9.455   4.880   1.051 -1.7244  1.4326  0.9692
  333MOL0     H44945   9.372   4.704   0.808  0.6923  0.1652 -1.1636
  333MOL0     H44946   9.548   4.737   0.841  1.2879  2.9302  1.2831
  333MOL0     H44947   9.530   4.959   0.785 -1.4372  0.0452  0.4023
  333MOL0     H44948   9.352   4.943   0.771 -0.8919 -3.1742 -0.0387
  333MOL0     H44949   9.589   4.822   0.603 -0.9515 -1.2807 -1.5702
  333MOL0     H44950   9.414   4.800   0.567 -0.2156 -0.6415  0.6407
  333MOL0     H44951   9.493   5.196   0.422 -1.7195  0.4676  2.0036
  333MOL0     H44952   9.018   4.866   0.956  1.8834 -0.5035 -0.4007
  333MOL0     H44953   8.732   4.836   1.156 -1.6880  1.3423 -1.1609
  333MOL0     H44954   8.771   5.007   1.173  0.6659  0.6423  0.3531
  333MOL0     H44955   8.794   4.915   1.016 -2.3008  0.9567  0.0823
  334MOL0     O44956   6.873   3.405   7.530  0.2213 -0.8566  0.1024
  334MOL0     C44957   6.843   3.521   7.538 -0.1174 -0.0308 -0.9233
  334MOL0     O44958   6.732   3.565   7.606  0.0958  0.2842  0.0547
  334MOL0     C44959   6.652   3.492   7.686  0.0109 -0.1526  0.0129
  334MOL0     C44960   6.574   3.570   7.774 -0.1339 -0.1086 -0.5689
  334MOL0     C44961   6.471   3.509   7.856 -1.0015 -1.0451 -0.6645
  334MOL0     C44962   6.455   3.375   7.852 -0.2838  0.4239  0.8728
  334MOL0     O44963   6.357   3.319   7.931  0.5447 -0.9457  0.0413
  334MOL0     C44964   6.346   3.180   7.960  0.0399  0.3124  0.3454
  334MOL0     C44965   6.283   3.174   8.098  0.0165 -0.1797 -0.1342
  334MOL0     C44966   6.232   3.029   8.130 -0.6192 -0.1494  0.1186
  334MOL0     C44967   6.137   3.015   8.247  0.6140  0.7327 -0.3148
  334MOL0     C44968   6.095   2.870   8.283 -0.1906 -1.3025  0.1303
  334MOL0     C44969   5.984   2.863   8.387  0.7327 -0.0247 -0.5111
  334MOL0     C44970   5.884   2.738   8.357  0.5467 -0.4364 -0.5044
  334MOL0     C44971   5.954   2.594   8.369 -0.0747 -0.5785  0.3349
  334MOL0     N44972   5.867   2.488   8.406 -0.1750 -0.1714  0.4201
  334MOL0     C44973   5.743   2.464   8.360  0.5769  0.1316 -0.7553
  334MOL0     C44974   5.721   2.327   8.405  0.6991  0.0140  0.5257
  334MOL0     C44975   5.589   2.256   8.385 -0.1392  0.1605 -0.0258
  334MOL0     C44976   5.599   2.127   8.310  0.1959 -0.7054 -0.0422
  334MOL0     C44977   5.595   2.142   8.158 -0.1979 -0.3461  0.7996
  334MOL0     C44978   5.648   2.020   8.084 -0.4832 -0.1496 -0.4791
  334MOL0     O44979   5.595   1.893   8.129  0.2819 -0.5195  0.7380
  334MOL0     C44980   5.462   1.880   8.096 -0.6432  0.8019 -0.8196
  334MOL0     C44981   5.360   1.860   8.194  0.0789 -0.6387 -0.1760
  334MOL0     C44982   5.230   1.855   8.151  0.6271  0.5995  0.3473
  334MOL0     C44983   5.196   1.871   8.017 -0.0752  1.0542  0.2548
  334MOL0     C44984   5.055   1.856   7.987 -0.1983 -0.4730  0.1876
  334MOL0     O44985   4.971   1.799   8.070  0.6254 -0.3347  1.2371
  334MOL0     C44986   4.854   1.751   8.011 -0.0662 -0.3191 -0.2731
  334MOL0     C44987   4.837   1.617   7.966 -0.2523  0.1400 -0.3242
  334MOL0     C44988   4.723   1.578   7.895 -0.3327  0.3316  0.2924
  334MOL0     C44989   4.621   1.668   7.882 -0.0384 -0.2177 -0.0159
  334MOL0     O44990   4.517   1.637   7.804  0.5391 -0.6528  0.2850
  334MOL0     C44991   4.382   1.637   7.855 -0.1129  0.1968  0.0463
  334MOL0     C44992   4.297   1.746   7.794  0.6762 -0.0827  0.4246
  334MOL0     C44993   4.150   1.723   7.826  0.5242 -0.6996 -0.5530
  334MOL0     C44994   4.076   1.855   7.804  0.5845  0.1276 -0.0544
  334MOL0     C44995   3.926   1.819   7.814 -0.2663 -0.1230  1.2124
  334MOL0     C44996   3.831   1.930   7.840  0.0158 -1.1357 -0.2568
  334MOL0     C44997   3.693   1.885   7.877  0.5402 -0.5253  0.0102
  334MOL0     C44998   3.619   2.010   7.930  0.4589  0.1549  0.9495
  334MOL0    Cl44999   3.456   1.953   7.957 -0.3344 -0.2446  0.1351
  334MOL0     C45000   4.628   1.797   7.932  0.1929 -0.2057 -0.2601
  334MOL0     C45001   4.744   1.837   7.996 -0.6123  0.3108 -0.5903
  334MOL0     O45002   5.028   1.884   7.875 -0.3260 -0.4840  0.3713
  334MOL0     C45003   5.296   1.891   7.925  0.2316 -0.3220  0.2844
  334MOL0     C45004   5.427   1.898   7.959 -0.0578  0.2707  0.0302
  334MOL0     N45005   5.827   2.289   8.486  0.2739  0.8433  0.6029
  334MOL0     N45006   5.911   2.383   8.489  0.0039 -0.3664 -0.0590
  334MOL0     C45007   6.526   3.293   7.765 -0.2511 -1.0780  0.9207
  334MOL0     C45008   6.631   3.355   7.684  0.7248  0.1579 -0.3121
  334MOL0     C45009   6.934   3.632   7.485 -0.0125 -0.9888 -0.7728
  334MOL0     C45010   6.946   3.755   7.555 -0.0365 -0.0501 -0.2235
  334MOL0     C45011   7.031   3.855   7.524 -0.8982  0.5691  0.3354
  334MOL0     C45012   7.102   3.848   7.400  0.8961 -0.0848  0.3069
  334MOL0     O45013   7.200   3.945   7.379  0.2300  0.1634  0.0858
  334MOL0     C45014   7.285   3.953   7.259  0.0365  0.5133  0.9224
  334MOL0     C45015   7.422   3.872   7.283  0.7532 -0.7938  0.0074
  334MOL0     C45016   7.475   3.800   7.156 -0.0508  0.2756 -0.2651
  334MOL0     C45017   7.549   3.897   7.062 -0.1555  0.3098  0.3371
  334MOL0     C45018   7.603   3.823   6.947  0.2113  0.0744  0.1678
  334MOL0     C45019   7.665   3.759   6.866  0.3230 -1.2083  1.0722
  334MOL0     C45020   7.094   3.724   7.333 -0.6529  0.9697  0.2619
  334MOL0     C45021   7.012   3.618   7.366 -0.0402  0.9918 -0.5246
  334MOL0     C45022   7.016   3.496   7.276 -0.1343 -0.2842  0.2760
  334MOL0     H45023   6.574   3.678   7.775 -3.5478  0.0067 -1.2843
  334MOL0     H45024   6.419   3.576   7.923  0.7758 -1.3400  1.1361
  334MOL0     H45025   6.282   3.132   7.884  1.3356 -0.0268 -0.5629
  334MOL0     H45026   6.439   3.123   7.951 -0.4388 -1.1393  3.3623
  334MOL0     H45027   6.197   3.241   8.094 -1.7476 -2.3663 -0.8338
  334MOL0     H45028   6.342   3.217   8.180 -0.6588  2.3225 -0.8600
  334MOL0     H45029   6.326   2.975   8.145  0.4410  1.5895 -0.0032
  334MOL0     H45030   6.185   2.993   8.038 -0.6800 -2.2502  0.9085
  334MOL0     H45031   6.189   3.047   8.338  1.1816  3.7009 -1.5535
  334MOL0     H45032   6.047   3.076   8.235 -1.5743 -1.8131  1.8869
  334MOL0     H45033   6.044   2.826   8.197 -2.1899  1.6286 -0.3369
  334MOL0     H45034   6.184   2.812   8.312  0.9913 -1.1722 -2.8975
  334MOL0     H45035   6.023   2.853   8.489 -0.9193 -0.6987  0.1038
  334MOL0     H45036   5.918   2.950   8.392 -2.6935 -2.4141  0.6836
  334MOL0     H45037   5.839   2.769   8.262  1.9610  1.8827 -0.4848
  334MOL0     H45038   5.804   2.731   8.431  0.1026  1.2964 -0.7803
  334MOL0     H45039   5.988   2.562   8.271  1.6671  0.3509  0.5908
  334MOL0     H45040   6.044   2.608   8.430  0.5069  2.9729 -1.0671
  334MOL0     H45041   5.676   2.531   8.307  3.3683  0.7456 -3.8891
  334MOL0     H45042   5.550   2.223   8.482 -1.3041  1.4935  0.0025
  334MOL0     H45043   5.517   2.334   8.357  1.5518  2.1023  0.7606
  334MOL0     H45044   5.690   2.073   8.336 -0.2107 -2.1302 -1.4161
  334MOL0     H45045   5.506   2.072   8.330 -1.5591  2.5248  1.5516
  334MOL0     H45046   5.661   2.224   8.128 -0.6195 -0.6428 -1.0523
  334MOL0     H45047   5.497   2.175   8.124  0.4368  2.0357  1.1097
  334MOL0     H45048   5.756   2.027   8.100 -0.9955  1.6057  3.3376
  334MOL0     H45049   5.624   2.040   7.979  2.4132  1.1063 -0.9815
  334MOL0     H45050   5.394   1.851   8.297  1.3417 -0.4922 -0.5630
  334MOL0     H45051   5.165   1.833   8.235  1.8017 -1.8101  0.7033
  334MOL0     H45052   4.925   1.556   7.979 -0.2601  0.7217  4.2955
  334MOL0     H45053   4.711   1.479   7.851  1.6756  0.3350 -0.3740
  334MOL0     H45054   4.327   1.544   7.843 -2.2785  1.4840 -0.6362
  334MOL0     H45055   4.391   1.657   7.963  1.5313 -0.2673  0.0207
  334MOL0     H45056   4.328   1.846   7.823 -0.4440 -0.7555  4.5375
  334MOL0     H45057   4.309   1.742   7.685  1.4391  0.5420  0.4738
  334MOL0     H45058   4.104   1.653   7.756 -0.8380 -2.3117  1.8470
  334MOL0     H45059   4.139   1.694   7.930  2.5174  1.8756  0.4873
  334MOL0     H45060   4.098   1.894   7.703  0.1834  1.2244  0.2612
  334MOL0     H45061   4.102   1.938   7.870  3.1774 -1.8872  1.6389
  334MOL0     H45062   3.908   1.737   7.884 -2.6945 -0.4827  0.2488
  334MOL0     H45063   3.902   1.775   7.717 -1.0173  0.3440  1.1826
  334MOL0     H45064   3.875   1.983   7.926 -2.0943 -1.0756  0.8415
  334MOL0     H45065   3.824   1.988   7.748 -0.5023 -1.8591 -0.6748
  334MOL0     H45066   3.691   1.811   7.957 -0.2770 -0.5075  0.0149
  334MOL0     H45067   3.644   1.846   7.787  2.3147  0.3349 -1.3917
  334MOL0     H45068   3.665   2.046   8.023  1.2823 -2.3984  1.6138
  334MOL0     H45069   3.614   2.088   7.854 -0.5529 -0.9887 -0.1896
  334MOL0     H45070   4.553   1.868   7.902 -0.0879  0.6568  2.1980
  334MOL0     H45071   4.758   1.941   8.020 -1.2125  0.3599 -0.4347
  334MOL0     H45072   5.274   1.910   7.820  1.7995  2.5086  0.3822
  334MOL0     H45073   5.503   1.907   7.882 -0.5559 -0.7999 -0.5928
  334MOL0     H45074   6.516   3.187   7.748 -0.0206 -0.9372 -0.1869
  334MOL0     H45075   6.678   3.285   7.617  0.9276  0.2911 -0.3107
  334MOL0     H45076   6.881   3.760   7.641 -1.0484 -0.2884 -0.9553
  334MOL0     H45077   7.051   3.928   7.603  2.4933  1.4103 -1.1097
  334MOL0     H45078   7.306   4.060   7.247  0.6901  0.1485 -1.7047
  334MOL0     H45079   7.222   3.913   7.180 -0.6488  0.6515  1.3846
  334MOL0     H45080   7.396   3.799   7.360 -2.6212  0.6563  0.4263
  334MOL0     H45081   7.498   3.933   7.333  1.4885 -2.8551  1.5452
  334MOL0     H45082   7.382   3.752   7.121 -1.4176  0.0008  3.2843
  334MOL0     H45083   7.552   3.731   7.192 -0.1779 -0.4299 -1.2960
  334MOL0     H45084   7.480   3.979   7.042 -0.6251  0.0851  0.9781
  334MOL0     H45085   7.627   3.937   7.127  0.4239 -0.9852  0.4636
  334MOL0     H45086   7.704   3.689   6.795  0.4227 -1.6158  1.5231
  334MOL0     H45087   7.157   3.720   7.244  0.4710  2.9646  0.9019
  334MOL0     H45088   6.999   3.407   7.338  2.9250 -0.6800  0.7105
  334MOL0     H45089   6.941   3.500   7.197 -1.5220  0.9528  1.5815
  334MOL0     H45090   7.120   3.486   7.241  1.2227  4.0168  2.4096
  335MOL0     O45091  10.878   4.016   5.621 -0.0378  0.1954 -0.1022
  335MOL0     C45092  10.969   3.990   5.701 -0.4462  0.2796 -0.8006
  335MOL0     O45093  10.964   3.885   5.792  0.4105  0.0839  0.0149
  335MOL0     C45094  10.838   3.841   5.827  0.2142  0.6568  0.0101
  335MOL0     C45095  10.777   3.742   5.741 -1.0420 -0.2208 -0.2024
  335MOL0     C45096  10.657   3.682   5.771 -0.4022 -0.2625  0.0875
  335MOL0     C45097  10.583   3.725   5.885 -0.1201  0.4288 -0.0504
  335MOL0     O45098  10.448   3.688   5.885  0.4256 -0.1384  0.1770
  335MOL0     C45099  10.373   3.688   6.011 -0.5108 -0.2439 -0.6121
  335MOL0     C45100  10.373   3.541   6.061  0.3415  0.1840 -0.4310
  335MOL0     C45101  10.270   3.450   6.004 -0.7464 -0.3167 -0.0323
  335MOL0     C45102  10.300   3.423   5.855  0.1691 -0.8414  0.2210
  335MOL0     C45103  10.220   3.301   5.803  1.2350 -1.5905 -0.1473
  335MOL0     C45104  10.065   3.326   5.809  0.8345  0.8341  0.8267
  335MOL0     C45105   9.995   3.204   5.739 -0.1424  0.7547  0.1245
  335MOL0     C45106  10.015   3.066   5.813  0.0529  0.3519 -0.5510
  335MOL0     N45107   9.955   2.944   5.744  0.4586 -0.8950  0.1481
  335MOL0     C45108   9.817   2.930   5.729 -0.2831  0.1858  0.1032
  335MOL0     C45109   9.794   2.857   5.621 -0.3701  0.3954 -0.2182
  335MOL0     C45110   9.668   2.804   5.562  0.4389  0.0690 -0.5296
  335MOL0     C45111   9.677   2.847   5.412 -0.1096 -0.4306  0.9882
  335MOL0     C45112   9.648   3.001   5.388 -0.1865  0.4163 -0.4580
  335MOL0     C45113   9.761   3.092   5.430  0.7168  0.4064  0.2881
  335MOL0     O45114   9.748   3.225   5.379  0.8642  0.0459  0.2028
  335MOL0     C45115   9.839   3.314   5.412  0.1822 -0.2274 -0.2847
  335MOL0     C45116   9.951   3.344   5.336 -0.5047  0.7083 -0.4511
  335MOL0     C45117  10.028   3.456   5.369  0.8526 -0.4534 -0.0233
  335MOL0     C45118  10.001   3.534   5.494  1.1048  0.3588  0.7913
  335MOL0     C45119  10.078   3.646   5.531 -0.4364  0.4176 -0.2872
  335MOL0     O45120  10.203   3.658   5.468 -0.2340 -0.1239  0.8584
  335MOL0     C45121  10.252   3.787   5.471 -0.9022  0.5801 -0.6646
  335MOL0     C45122  10.195   3.899   5.415  0.1033  0.2228  0.2183
  335MOL0     C45123  10.260   4.020   5.440 -0.3049  1.1988 -0.1042
  335MOL0     C45124  10.365   4.039   5.521  0.2093  0.3034 -0.0175
  335MOL0     O45125  10.407   4.166   5.525 -0.0678  0.3836  0.3524
  335MOL0     C45126  10.534   4.164   5.455  0.5601 -0.3496 -0.6779
  335MOL0     C45127  10.575   4.315   5.453 -0.4120  0.3004  0.1925
  335MOL0     C45128  10.728   4.324   5.420 -0.0981 -0.1536  1.0009
  335MOL0     C45129  10.802   4.439   5.481  0.2218 -0.0634 -1.1087
  335MOL0     C45130  10.935   4.481   5.415  0.6014  1.0977  1.3287
  335MOL0     C45131  10.897   4.553   5.281  0.3549 -0.2970  0.3750
  335MOL0     C45132  11.034   4.599   5.221 -0.4341  0.3324  0.2826
  335MOL0     C45133  11.030   4.621   5.075 -0.6337 -0.2677  0.5455
  335MOL0    Cl45134  11.191   4.695   5.048 -0.2901 -0.1235 -0.0043
  335MOL0     C45135  10.426   3.929   5.585  0.9306 -0.3415  0.6349
  335MOL0     C45136  10.368   3.805   5.557  0.4760  0.3335 -0.2060
  335MOL0     O45137  10.038   3.723   5.611 -0.0382  0.1677  0.3944
  335MOL0     C45138   9.894   3.490   5.573 -0.2388 -0.2065  1.1434
  335MOL0     C45139   9.811   3.383   5.533  0.8209  0.8365  0.1811
  335MOL0     N45140   9.916   2.821   5.565 -0.2761  0.6110 -0.8885
  335MOL0     N45141  10.010   2.874   5.643  0.0993 -0.0844  0.7329
  335MOL0     C45142  10.646   3.816   5.973 -0.0632 -0.5022  0.1633
  335MOL0     C45143  10.779   3.874   5.946  0.3676  0.3990  0.5909
  335MOL0     C45144  11.088   4.077   5.702 -0.7034 -0.3452  0.7335
  335MOL0     C45145  11.082   4.204   5.647  0.4851  0.0861 -0.5938
  335MOL0     C45146  11.184   4.297   5.644 -0.1199  0.1036  0.5561
  335MOL0     C45147  11.303   4.270   5.716 -0.6773 -0.6321  0.0503
  335MOL0     O45148  11.389   4.376   5.731  0.5386 -0.1963 -0.5767
  335MOL0     C45149  11.515   4.342   5.767 -0.0577  0.0734  0.2315
  335MOL0     C45150  11.610   4.442   5.694  0.7219 -0.1538 -0.7827
  335MOL0     C45151  11.759   4.423   5.727 -0.3096 -0.6855 -0.0236
  335MOL0     C45152  11.855   4.507   5.636  0.1333  0.4866  0.1497
  335MOL0     C45153  11.985   4.513   5.705  0.4418 -0.7806  0.1352
  335MOL0     C45154  12.093   4.515   5.752  0.0083 -0.0250  1.1822
  335MOL0     C45155  11.321   4.141   5.773 -0.3729 -1.3700  0.5175
  335MOL0     C45156  11.216   4.051   5.759  0.1733 -0.2719 -0.0026
  335MOL0     C45157  11.245   3.913   5.814 -0.1702 -0.1824  0.1506
  335MOL0     H45158  10.834   3.717   5.652  0.1554  0.2333  0.4117
  335MOL0     H45159  10.610   3.613   5.702  0.2611  0.7281 -1.4135
  335MOL0     H45160  10.408   3.756   6.089 -3.1120 -0.4632  0.8601
  335MOL0     H45161  10.275   3.723   5.979  0.1070  1.2339 -0.9764
  335MOL0     H45162  10.361   3.537   6.170  3.0986 -2.1174 -0.0910
  335MOL0     H45163  10.474   3.502   6.043  0.5359  0.5175 -0.0784
  335MOL0     H45164  10.173   3.499   6.011 -0.3085  0.7545 -1.1340
  335MOL0     H45165  10.283   3.355   6.058  5.1358  1.2761  2.0529
  335MOL0     H45166  10.281   3.513   5.796 -1.4148 -1.7972 -0.8076
  335MOL0     H45167  10.406   3.400   5.846  0.1869 -0.5071 -0.5296
  335MOL0     H45168  10.244   3.296   5.696  2.1657  3.1294 -0.3833
  335MOL0     H45169  10.251   3.213   5.860  1.2762 -1.0004  0.7643
  335MOL0     H45170  10.032   3.322   5.913 -1.6239  1.9726  0.1776
  335MOL0     H45171  10.025   3.417   5.762  0.6649 -0.8444 -2.5379
  335MOL0     H45172  10.022   3.186   5.634 -1.3053  0.6608 -0.1715
  335MOL0     H45173   9.890   3.235   5.743 -0.7499 -1.3427  2.3425
  335MOL0     H45174  10.124   3.054   5.816 -0.0574 -0.4928  1.0500
  335MOL0     H45175   9.974   3.062   5.915  0.7736 -0.0974 -0.2725
  335MOL0     H45176   9.742   2.982   5.787  0.8821  0.7987  1.1234
  335MOL0     H45177   9.662   2.696   5.575 -1.4497 -0.1234 -2.3775
  335MOL0     H45178   9.574   2.836   5.609 -0.4403 -2.0136 -0.7812
  335MOL0     H45179   9.777   2.831   5.371 -0.6792 -2.4286  0.2981
  335MOL0     H45180   9.599   2.790   5.362 -1.4629  2.3049 -0.2480
  335MOL0     H45181   9.553   3.028   5.434 -2.1611  0.5327 -4.2784
  335MOL0     H45182   9.621   3.013   5.283  1.0733  1.9978 -0.6426
  335MOL0     H45183   9.851   3.040   5.395  0.0455 -0.8542  0.3538
  335MOL0     H45184   9.768   3.099   5.539  2.9972  2.2529  0.1050
  335MOL0     H45185   9.950   3.285   5.245  0.9741  0.9864 -0.6881
  335MOL0     H45186  10.109   3.485   5.302  0.5201  0.5624  0.0035
  335MOL0     H45187  10.101   3.895   5.361  0.4654  0.8103 -0.4783
  335MOL0     H45188  10.206   4.102   5.392 -0.7090  0.7149 -0.4950
  335MOL0     H45189  10.612   4.101   5.499 -0.0364 -1.8091 -1.6534
  335MOL0     H45190  10.526   4.136   5.349 -4.1923  0.2018 -0.6532
  335MOL0     H45191  10.519   4.370   5.377  3.6302  1.0404 -2.5304
  335MOL0     H45192  10.559   4.356   5.553  4.4824 -0.2531  1.4221
  335MOL0     H45193  10.787   4.236   5.447  1.5563  1.7624  4.1587
  335MOL0     H45194  10.733   4.338   5.312 -1.0578 -2.5641  0.5713
  335MOL0     H45195  10.828   4.409   5.583  1.5537 -1.3654 -1.7848
  335MOL0     H45196  10.728   4.518   5.486  1.4080  1.0957 -1.3375
  335MOL0     H45197  10.997   4.392   5.405 -1.4242 -0.3280  0.7709
  335MOL0     H45198  10.975   4.543   5.496 -2.1684  1.7854  2.2844
  335MOL0     H45199  10.858   4.484   5.205 -3.0095 -0.4187  2.0122
  335MOL0     H45200  10.827   4.636   5.297  2.4089  1.8501 -1.1458
  335MOL0     H45201  11.117   4.529   5.234 -1.9342 -2.0631 -1.9803
  335MOL0     H45202  11.059   4.687   5.281 -1.6317  0.1362  1.1034
  335MOL0     H45203  11.014   4.532   5.014  2.1045 -0.7703  0.4411
  335MOL0     H45204  10.954   4.698   5.059 -0.5226 -0.3332 -0.3424
  335MOL0     H45205  10.513   3.956   5.644  0.3508  1.7102  0.6337
  335MOL0     H45206  10.413   3.718   5.604 -2.7252 -1.0682  0.4940
  335MOL0     H45207   9.881   3.538   5.670  0.6525 -3.1377  2.8563
  335MOL0     H45208   9.729   3.349   5.596 -0.1653 -0.9367 -1.9270
  335MOL0     H45209  10.597   3.843   6.066  1.4552 -0.5751  1.0119
  335MOL0     H45210  10.834   3.935   6.017  1.5799  0.3156 -0.2536
  335MOL0     H45211  10.994   4.226   5.589  2.5366 -0.6280 -4.3191
  335MOL0     H45212  11.172   4.398   5.607  2.0232  1.4960  3.2600
  335MOL0     H45213  11.544   4.246   5.723 -1.1251  0.2317 -0.8644
  335MOL0     H45214  11.525   4.352   5.875 -0.1092  1.0044  0.1568
  335MOL0     H45215  11.580   4.546   5.712  4.8130  0.6428  3.2377
  335MOL0     H45216  11.599   4.414   5.589 -1.6460  1.3744 -1.0313
  335MOL0     H45217  11.790   4.318   5.721 -1.3372 -0.9055 -3.2881
  335MOL0     H45218  11.775   4.452   5.831 -1.3620 -0.4736  0.0874
  335MOL0     H45219  11.867   4.452   5.542 -1.6295  0.1030  0.1103
  335MOL0     H45220  11.814   4.606   5.613  0.8415  1.5319  2.9440
  335MOL0     H45221  12.185   4.493   5.801  0.0852 -0.7853  0.7238
  335MOL0     H45222  11.418   4.126   5.819  1.2407  4.3501 -0.2856
  335MOL0     H45223  11.191   3.838   5.754  0.9788 -2.2826  1.6051
  335MOL0     H45224  11.352   3.891   5.812 -0.2367 -0.4965 -0.3253
  335MOL0     H45225  11.202   3.907   5.914 -2.7756 -0.0171 -0.8786
  336MOL0     O45226   3.615   3.281   2.420  0.2248 -0.3786 -0.2885
  336MOL0     C45227   3.674   3.379   2.370  0.0130  0.1448  0.7965
  336MOL0     O45228   3.683   3.413   2.237  0.3441  0.4367 -0.6301
  336MOL0     C45229   3.639   3.318   2.148  0.1609 -0.3556 -0.3428
  336MOL0     C45230   3.733   3.275   2.055 -0.0788  0.6519  0.2512
  336MOL0     C45231   3.693   3.180   1.958 -0.7148 -0.0273 -0.3172
  336MOL0     C45232   3.554   3.156   1.929  0.0399 -0.3048 -0.2469
  336MOL0     O45233   3.508   3.084   1.826  0.0786 -0.5732  0.2058
  336MOL0     C45234   3.585   2.989   1.756 -0.4291  0.2223  0.8345
  336MOL0     C45235   3.467   2.908   1.689  0.0618  0.6077 -0.0412
  336MOL0     C45236   3.374   2.841   1.789  0.4945 -0.6950 -0.2858
  336MOL0     C45237   3.262   2.749   1.735  0.2389 -0.3093  0.8725
  336MOL0     C45238   3.212   2.795   1.602 -0.4929 -0.4443  0.0663
  336MOL0     C45239   3.094   2.722   1.540  0.0208  0.7415 -0.2545
  336MOL0     C45240   3.126   2.582   1.493  0.6226 -0.0951  0.0583
  336MOL0     C45241   3.214   2.585   1.377  0.5691  0.0420 -0.7120
  336MOL0     N45242   3.230   2.454   1.305 -0.3280  0.8125  0.9116
  336MOL0     C45243   3.268   2.329   1.359  0.4558  0.1512 -0.9451
  336MOL0     C45244   3.282   2.251   1.252 -0.8657 -0.2941 -0.2284
  336MOL0     C45245   3.348   2.117   1.271 -0.5574  0.7197  0.4611
  336MOL0     C45246   3.344   2.034   1.138  0.1261 -0.6608 -1.0049
  336MOL0     C45247   3.468   2.043   1.057  0.4696  0.1440  0.0831
  336MOL0     C45248   3.592   2.011   1.140 -0.2982 -0.0359  0.6164
  336MOL0     O45249   3.568   1.894   1.217  0.1754 -0.9840 -0.0180
  336MOL0     C45250   3.680   1.866   1.303 -0.2980 -0.1977 -0.2526
  336MOL0     C45251   3.668   1.747   1.365 -0.3958 -0.6212  0.4789
  336MOL0     C45252   3.749   1.717   1.483  0.4563  0.5696 -0.3017
  336MOL0     C45253   3.855   1.795   1.522 -0.8739  0.3560 -0.2852
  336MOL0     C45254   3.934   1.767   1.646 -0.3027  0.1169 -1.3069
  336MOL0     O45255   4.032   1.855   1.684 -0.0816  0.1216 -0.4896
  336MOL0     C45256   4.110   1.836   1.791  0.1929  0.5715  0.6890
  336MOL0     C45257   4.058   1.864   1.917  0.3540 -0.2531 -0.0493
  336MOL0     C45258   4.140   1.867   2.036 -0.0215 -0.7267  0.8465
  336MOL0     C45259   4.278   1.833   2.024  0.0560  0.0225  0.5455
  336MOL0     O45260   4.352   1.853   2.139  0.0121 -0.7432  0.0675
  336MOL0     C45261   4.494   1.851   2.130 -0.1421  0.0537  0.6536
  336MOL0     C45262   4.549   1.713   2.161 -0.0902  0.6518  0.0689
  336MOL0     C45263   4.702   1.687   2.155  0.6138 -0.3187 -1.0597
  336MOL0     C45264   4.792   1.784   2.236  0.5286 -0.2642  0.5492
  336MOL0     C45265   4.745   1.818   2.375 -0.3381  0.2699 -0.4010
  336MOL0     C45266   4.808   1.954   2.429  0.4988 -0.3200  0.5981
  336MOL0     C45267   4.960   1.963   2.443 -0.0604  0.8217 -0.5159
  336MOL0     C45268   5.010   2.101   2.466 -0.0535 -0.8898 -1.5222
  336MOL0    Cl45269   4.934   2.166   2.611 -0.0799  0.6250 -0.0275
  336MOL0     C45270   4.324   1.801   1.897  0.1053  1.0098  0.2110
  336MOL0     C45271   4.243   1.797   1.786 -0.5479 -0.6510  0.1927
  336MOL0     O45272   3.893   1.674   1.718 -0.3299 -0.2381  0.4326
  336MOL0     C45273   3.875   1.911   1.443 -0.7642  0.2427 -0.4873
  336MOL0     C45274   3.786   1.949   1.344 -0.6676 -0.3059  0.6585
  336MOL0     N45275   3.239   2.320   1.135  0.2415  0.2435 -0.0752
  336MOL0     N45276   3.204   2.434   1.172 -0.0784 -0.2522  0.1864
  336MOL0     C45277   3.462   3.212   2.008 -0.4627 -0.5780  0.2658
  336MOL0     C45278   3.500   3.290   2.120 -0.2345 -0.4401  0.8919
  336MOL0     C45279   3.735   3.472   2.465 -0.5392 -0.0663 -0.3314
  336MOL0     C45280   3.832   3.561   2.414  0.3145 -0.4378  0.0816
  336MOL0     C45281   3.899   3.653   2.493  0.5266  0.3040  0.6628
  336MOL0     C45282   3.872   3.670   2.626  0.1306  0.1533 -0.5562
  336MOL0     O45283   3.943   3.763   2.698  0.8063  0.4186 -0.5947
  336MOL0     C45284   3.864   3.828   2.802  0.7493 -0.3593 -0.4966
  336MOL0     C45285   3.950   3.947   2.859  0.0448  0.2103 -0.5148
  336MOL0     C45286   3.883   4.016   2.973  0.0112  0.9594  0.9693
  336MOL0     C45287   3.911   3.959   3.106 -0.3279  0.1852  1.0982
  336MOL0     C45288   4.042   3.993   3.164  0.5110 -0.7401  0.7189
  336MOL0     C45289   4.141   4.004   3.232 -0.1532  0.8888 -0.1525
  336MOL0     C45290   3.763   3.595   2.684  0.2489 -0.7029  0.8251
  336MOL0     C45291   3.692   3.507   2.598  0.2525  0.4011 -0.2541
  336MOL0     C45292   3.592   3.422   2.673  0.1124 -0.5387 -0.3837
  336MOL0     H45293   3.836   3.311   2.056  0.7528 -1.2537 -2.3052
  336MOL0     H45294   3.768   3.136   1.892  1.2365  0.0185  1.7204
  336MOL0     H45295   3.638   3.030   1.670 -1.4242 -0.8652 -0.3539
  336MOL0     H45296   3.650   2.922   1.812 -0.1950  0.5908  1.0026
  336MOL0     H45297   3.520   2.854   1.610  3.9597  1.2290  1.8983
  336MOL0     H45298   3.400   2.979   1.639  1.0133  2.1497  0.7866
  336MOL0     H45299   3.317   2.913   1.849  2.8920 -1.0612  2.6370
  336MOL0     H45300   3.442   2.780   1.849  1.6257  0.4746 -0.3309
  336MOL0     H45301   3.286   2.643   1.721 -0.4967 -0.4419  0.6097
  336MOL0     H45302   3.180   2.756   1.807  3.0617  4.5934  4.2061
  336MOL0     H45303   3.185   2.901   1.604 -5.8640 -1.5362 -0.4297
  336MOL0     H45304   3.293   2.785   1.529  0.0419  0.7458  0.4729
  336MOL0     H45305   3.023   2.717   1.624  1.7774  3.0537  1.5322
  336MOL0     H45306   3.057   2.785   1.459 -1.1192 -0.9061 -1.0605
  336MOL0     H45307   3.031   2.540   1.460  1.1687 -0.5724 -0.9748
  336MOL0     H45308   3.156   2.512   1.572 -0.5758  0.8644  1.3965
  336MOL0     H45309   3.177   2.659   1.306 -0.9342 -1.5224 -1.6331
  336MOL0     H45310   3.311   2.615   1.418  0.3697 -1.4556  1.0095
  336MOL0     H45311   3.288   2.298   1.461 -0.6734  1.6329 -0.2420
  336MOL0     H45312   3.449   2.136   1.309  0.3898 -2.9136  0.1368
  336MOL0     H45313   3.303   2.052   1.346  0.1390 -1.1039 -0.6287
  336MOL0     H45314   3.328   1.930   1.165 -0.0636 -1.0901 -2.6955
  336MOL0     H45315   3.252   2.061   1.085 -0.1573  0.5976  0.0469
  336MOL0     H45316   3.467   2.137   1.001  0.4580 -0.1213 -0.3700
  336MOL0     H45317   3.469   1.965   0.980 -0.7378 -2.1620  2.2492
  336MOL0     H45318   3.600   2.103   1.198 -2.4438  0.5055  0.1386
  336MOL0     H45319   3.683   2.011   1.080  0.0457  2.8468  1.0152
  336MOL0     H45320   3.591   1.687   1.319 -1.4461 -1.1980  2.8682
  336MOL0     H45321   3.712   1.630   1.536  1.1692 -1.0992 -2.3830
  336MOL0     H45322   3.951   1.880   1.929  0.8772  3.1625  0.8933
  336MOL0     H45323   4.114   1.901   2.136  0.5700  4.5633 -0.4902
  336MOL0     H45324   4.527   1.886   2.031  1.6666  3.7973  2.3593
  336MOL0     H45325   4.539   1.925   2.197  1.1881 -0.8935  0.8394
  336MOL0     H45326   4.507   1.690   2.259 -0.2196 -0.0113 -0.1392
  336MOL0     H45327   4.513   1.639   2.089  1.4080 -1.8253  1.7091
  336MOL0     H45328   4.719   1.585   2.191  0.6213  0.2875  0.7649
  336MOL0     H45329   4.735   1.692   2.050 -0.0393  1.0927 -1.2062
  336MOL0     H45330   4.796   1.877   2.179  3.5077 -0.6810 -0.0919
  336MOL0     H45331   4.894   1.744   2.230  0.7108  0.3368 -0.5685
  336MOL0     H45332   4.783   1.740   2.442 -1.4278 -0.7993 -0.9903
  336MOL0     H45333   4.636   1.827   2.385 -0.0838  3.3430  0.6542
  336MOL0     H45334   4.768   2.026   2.357 -0.5897  0.7784  2.2373
  336MOL0     H45335   4.768   1.992   2.523 -2.5850 -2.8215  0.4797
  336MOL0     H45336   5.000   1.921   2.351  0.6200 -2.6577  1.2008
  336MOL0     H45337   4.995   1.906   2.530  0.6506 -2.4961 -2.7923
  336MOL0     H45338   5.116   2.105   2.491 -0.9753  0.5498  3.2056
  336MOL0     H45339   4.994   2.164   2.378  1.3368  0.8835 -0.5502
  336MOL0     H45340   4.426   1.766   1.890 -0.7039 -1.4189 -0.4318
  336MOL0     H45341   4.280   1.754   1.693 -0.0482  0.0059  0.0778
  336MOL0     H45342   3.962   1.972   1.465 -0.1676 -1.1092  1.1460
  336MOL0     H45343   3.808   2.048   1.306  1.5829 -0.8786  0.3341
  336MOL0     H45344   3.358   3.210   1.975  0.6602 -0.1926 -3.8872
  336MOL0     H45345   3.415   3.330   2.175 -1.0224 -0.4257 -0.3007
  336MOL0     H45346   3.865   3.560   2.310 -0.6210  2.5739 -0.3525
  336MOL0     H45347   3.971   3.720   2.449  0.1518  2.1184  2.6548
  336MOL0     H45348   3.829   3.771   2.888 -2.0435  1.0466 -0.6150
  336MOL0     H45349   3.776   3.877   2.759  0.8565 -1.0995 -1.5924
  336MOL0     H45350   3.969   4.018   2.778 -3.2593 -2.7106 -4.2802
  336MOL0     H45351   4.046   3.904   2.889 -0.9359 -0.9834  1.0259
  336MOL0     H45352   3.777   3.995   2.955  0.9232 -2.8367 -1.1507
  336MOL0     H45353   3.897   4.124   2.970 -0.0381  0.9845 -2.4934
  336MOL0     H45354   3.835   3.977   3.183 -1.2733 -0.9014  0.4565
  336MOL0     H45355   3.920   3.851   3.090  3.4463  0.7651 -2.6186
  336MOL0     H45356   4.234   4.030   3.280  0.1653  0.4530 -0.5285
  336MOL0     H45357   3.740   3.607   2.789 -1.9333 -1.5263  0.4880
  336MOL0     H45358   3.567   3.462   2.772  0.6703 -1.7011  0.2453
  336MOL0     H45359   3.501   3.416   2.612  1.3079 -3.0646 -2.0822
  336MOL0     H45360   3.617   3.319   2.697 -1.7086 -1.0961 -0.7231
  337MOL0     O45361   8.938  10.000   5.199  0.0604  0.0352  0.0804
  337MOL0     C45362   8.823   9.955   5.204 -0.3614 -0.6014  0.5127
  337MOL0     O45363   8.713  10.036   5.209  0.8387  0.6388 -0.1082
  337MOL0     C45364   8.700  10.160   5.145  0.1964  0.8142 -0.1083
  337MOL0     C45365   8.593  10.245   5.181  0.2586  0.7992 -0.0246
  337MOL0     C45366   8.572  10.369   5.125  0.9106  0.2178  0.0330
  337MOL0     C45367   8.672  10.425   5.036 -0.1960 -0.9548  0.4228
  337MOL0     O45368   8.667  10.551   4.979  0.2126  0.0285  0.7126
  337MOL0     C45369   8.532  10.607   4.968 -1.1845  0.6314 -0.1610
  337MOL0     C45370   8.562  10.744   4.904 -0.2425  0.1800 -0.0122
  337MOL0     C45371   8.430  10.820   4.880 -0.7643  0.0464  0.4849
  337MOL0     C45372   8.391  10.901   5.004 -0.0637 -0.2454  0.2330
  337MOL0     C45373   8.244  10.915   5.034  0.3269 -0.7656  0.0765
  337MOL0     C45374   8.166  10.786   5.059 -0.6530 -0.7237  0.9551
  337MOL0     C45375   8.188  10.717   5.190 -0.9124 -0.2502  0.0029
  337MOL0     C45376   8.094  10.597   5.220 -0.4257  0.0630  0.3157
  337MOL0     N45377   8.115  10.480   5.136 -0.0094  0.4109 -0.2914
  337MOL0     C45378   8.077  10.472   5.008  0.1330  0.5187 -0.0041
  337MOL0     C45379   8.142  10.370   4.956  0.1171 -0.6520 -0.3516
  337MOL0     C45380   8.129  10.317   4.815 -0.0226 -0.2222 -0.7873
  337MOL0     C45381   8.078  10.172   4.819 -0.4890 -0.1073  0.0974
  337MOL0     C45382   8.083  10.103   4.680 -0.4777 -0.5658 -0.1267
  337MOL0     C45383   8.224  10.105   4.609 -0.1057 -0.4644 -0.0797
  337MOL0     O45384   8.335  10.108   4.700 -0.1355  0.7825 -0.3792
  337MOL0     C45385   8.467  10.113   4.647  0.4775 -0.7702  0.2471
  337MOL0     C45386   8.575  10.151   4.731 -0.1947 -0.1488 -0.1964
  337MOL0     C45387   8.710  10.167   4.698  0.3024 -0.0556 -0.3017
  337MOL0     C45388   8.743  10.143   4.560  0.2762 -0.6890  0.2786
  337MOL0     C45389   8.877  10.172   4.491 -0.4485 -0.6324  0.3353
  337MOL0     O45390   8.894  10.130   4.354  0.1465  0.5137  0.5966
  337MOL0     C45391   9.015  10.169   4.299  0.0555 -0.6425 -0.0123
  337MOL0     C45392   9.010  10.290   4.231  0.1265  0.9199 -0.8114
  337MOL0     C45393   9.127  10.351   4.185 -0.5327 -0.4392 -0.3578
  337MOL0     C45394   9.253  10.292   4.200 -0.1612 -0.0775  0.3796
  337MOL0     O45395   9.368  10.354   4.152  0.8798  0.2669  0.3688
  337MOL0     C45396   9.494  10.296   4.171 -0.2742  0.0226  0.4824
  337MOL0     C45397   9.585  10.351   4.069 -0.0156 -0.9326  1.1641
  337MOL0     C45398   9.707  10.265   4.042  0.0817  0.3766 -0.1323
  337MOL0     C45399   9.814  10.350   3.977  0.1594 -0.5867 -0.2332
  337MOL0     C45400   9.877  10.451   4.082 -0.0750 -0.5167 -0.7724
  337MOL0     C45401  10.024  10.492   4.058 -0.1350  0.0116  0.1696
  337MOL0     C45402  10.069  10.609   4.158 -0.3342 -0.3504 -0.2032
  337MOL0     C45403  10.214  10.655   4.134 -0.5326 -0.1603  0.3503
  337MOL0    Cl45404  10.319  10.518   4.180  0.0503 -0.0264  0.2176
  337MOL0     C45405   9.258  10.177   4.287  0.0858  0.2217  0.2230
  337MOL0     C45406   9.142  10.115   4.320  1.0116  0.9394 -0.6189
  337MOL0     O45407   8.965  10.221   4.561  0.1132  0.5785 -0.0863
  337MOL0     C45408   8.633  10.096   4.476  1.7993 -0.8311  0.1875
  337MOL0     C45409   8.503  10.079   4.517  0.1681  0.6164 -0.4581
  337MOL0     N45410   8.227  10.312   5.053  0.4880 -0.5458 -0.2300
  337MOL0     N45411   8.202  10.377   5.155  0.4779 -0.0270 -0.5103
  337MOL0     C45412   8.776  10.338   4.999  0.5970 -0.2612  0.5905
  337MOL0     C45413   8.790  10.209   5.049  0.1848  0.5865 -0.1119
  337MOL0     C45414   8.796   9.812   5.250 -0.3333 -0.8624 -0.9273
  337MOL0     C45415   8.655   9.777   5.274  0.3194 -0.5512  0.4991
  337MOL0     C45416   8.621   9.651   5.325  0.1361 -0.4507  0.1254
  337MOL0     C45417   8.715   9.552   5.322 -0.1037  0.8053 -0.2430
  337MOL0     O45418   8.695   9.429   5.373 -0.3818 -0.5439  0.1420
  337MOL0     C45419   8.583   9.399   5.456 -0.0712  0.4463 -1.0304
  337MOL0     C45420   8.569   9.475   5.586  0.1003  0.6389  0.0271
  337MOL0     C45421   8.701   9.484   5.662  0.1617 -0.2450 -0.3807
  337MOL0     C45422   8.675   9.525   5.809 -0.3000 -0.3241  0.0104
  337MOL0     C45423   8.804   9.560   5.859 -0.0265 -0.6099 -0.5868
  337MOL0     C45424   8.919   9.590   5.895 -0.2750 -0.0982 -0.2995
  337MOL0     C45425   8.851   9.575   5.276  0.3193  0.3454 -0.1217
  337MOL0     C45426   8.893   9.709   5.254  0.3721 -0.3442  0.6235
  337MOL0     C45427   9.028   9.736   5.199  0.2283 -0.3118 -1.2816
  337MOL0     H45428   8.508  10.210   5.238  1.8159 -2.0482  0.7273
  337MOL0     H45429   8.490  10.431   5.159  1.7784  2.6823 -2.0648
  337MOL0     H45430   8.466  10.545   4.907 -2.4319  2.8205 -1.1789
  337MOL0     H45431   8.485  10.627   5.065 -1.7414 -0.7337 -0.1255
  337MOL0     H45432   8.622  10.722   4.816 -0.2916  2.1933 -0.5992
  337MOL0     H45433   8.629  10.802   4.968 -0.4833 -0.6815  1.0509
  337MOL0     H45434   8.358  10.741   4.856  1.7670 -2.3040  0.1375
  337MOL0     H45435   8.450  10.874   4.787  1.9899 -2.7059 -0.7239
  337MOL0     H45436   8.443  10.865   5.093  3.9578  1.6162 -1.1271
  337MOL0     H45437   8.448  10.993   4.987  1.1930 -1.3435 -2.0119
  337MOL0     H45438   8.239  10.956   5.136  0.3062 -1.4007  0.3344
  337MOL0     H45439   8.185  10.973   4.962  1.3836  0.9904  0.5582
  337MOL0     H45440   8.059  10.806   5.045 -0.2550  2.0796  1.2850
  337MOL0     H45441   8.195  10.714   4.982  0.3304 -1.2840  1.8199
  337MOL0     H45442   8.173  10.791   5.269 -0.7171 -0.3308  0.1158
  337MOL0     H45443   8.289  10.675   5.180 -1.5468 -1.7492 -0.3598
  337MOL0     H45444   8.125  10.551   5.315  1.7223 -0.4045 -0.5449
  337MOL0     H45445   7.991  10.627   5.237  0.3712  2.0282  2.1989
  337MOL0     H45446   8.009  10.540   4.958 -0.5973  1.7207  2.4624
  337MOL0     H45447   8.062  10.385   4.760  1.2600  2.2092  0.4615
  337MOL0     H45448   8.223  10.322   4.760 -0.8263  0.2658 -2.1585
  337MOL0     H45449   8.138  10.112   4.888  1.0311 -4.8278 -4.6256
  337MOL0     H45450   7.975  10.179   4.856 -0.3045 -0.1470  0.6292
  337MOL0     H45451   8.016  10.163   4.617 -1.7418 -1.7424  0.0708
  337MOL0     H45452   8.041  10.003   4.692 -0.9282 -0.0126  5.2532
  337MOL0     H45453   8.232  10.198   4.552  0.9975  0.3116  1.2755
  337MOL0     H45454   8.221  10.018   4.542  0.3050  1.4184 -2.7039
  337MOL0     H45455   8.530  10.173   4.827 -1.5426  3.9530 -1.5350
  337MOL0     H45456   8.777  10.210   4.771  1.1727  0.5197 -1.3995
  337MOL0     H45457   8.917  10.343   4.217 -0.9671  0.6573  3.7786
  337MOL0     H45458   9.121  10.443   4.127 -0.6001 -0.7490 -0.8432
  337MOL0     H45459   9.528  10.303   4.275  1.6530 -2.2427  0.0852
  337MOL0     H45460   9.490  10.187   4.167  0.5370 -0.3100  4.4642
  337MOL0     H45461   9.526  10.369   3.979  1.6244 -2.4687 -0.3090
  337MOL0     H45462   9.606  10.450   4.111  1.1326 -0.9526  0.6836
  337MOL0     H45463   9.735  10.208   4.131  0.5183  1.7409  0.6182
  337MOL0     H45464   9.676  10.189   3.969  2.1435 -0.5204 -0.1492
  337MOL0     H45465   9.790  10.402   3.883  0.3805 -2.1567 -1.2069
  337MOL0     H45466   9.897  10.281   3.961 -1.3860 -2.3795 -0.8835
  337MOL0     H45467   9.874  10.405   4.181 -2.3437  0.8108 -0.1359
  337MOL0     H45468   9.821  10.545   4.090 -0.9679 -0.6188 -4.2576
  337MOL0     H45469  10.089  10.405   4.070  2.8895  2.1059  0.2561
  337MOL0     H45470  10.029  10.542   3.961 -0.7813 -2.3640 -1.1600
  337MOL0     H45471  10.070  10.571   4.260  2.3763  1.0811  0.3985
  337MOL0     H45472   9.998  10.691   4.146  0.9078  0.7859 -0.0203
  337MOL0     H45473  10.231  10.691   4.032 -2.1251  4.0756  1.3480
  337MOL0     H45474  10.233  10.738   4.203 -1.3124  2.1150 -1.9800
  337MOL0     H45475   9.349  10.117   4.291  0.3499  0.6115  0.0681
  337MOL0     H45476   9.150  10.021   4.376 -0.3496 -0.1688 -2.1777
  337MOL0     H45477   8.639  10.069   4.372  3.4732 -1.9204  0.5378
  337MOL0     H45478   8.434  10.043   4.441  0.5309 -0.1844 -0.4140
  337MOL0     H45479   8.862  10.382   4.950  0.1777 -1.3998 -1.2718
  337MOL0     H45480   8.871  10.146   5.013 -0.3527  0.1271 -0.5339
  337MOL0     H45481   8.578   9.854   5.267  0.6208 -0.3239 -0.3964
  337MOL0     H45482   8.516   9.630   5.346 -0.2341 -1.2420 -2.2374
  337MOL0     H45483   8.582   9.291   5.475 -0.2349  0.3541 -1.5605
  337MOL0     H45484   8.493   9.413   5.395 -1.1572 -0.1000  0.3767
  337MOL0     H45485   8.490   9.423   5.640  1.1853 -0.4128  0.6561
  337MOL0     H45486   8.544   9.579   5.563  2.5988  1.7680  1.9370
  337MOL0     H45487   8.780   9.547   5.620  0.1498  1.6328  2.1943
  337MOL0     H45488   8.748   9.385   5.665  0.7830  0.0470 -0.2623
  337MOL0     H45489   8.610   9.614   5.811 -1.0536 -0.8720  1.3861
  337MOL0     H45490   8.639   9.440   5.868  0.4165  0.0620  1.0148
  337MOL0     H45491   9.022   9.603   5.920  0.3286 -1.8141 -1.7014
  337MOL0     H45492   8.907   9.483   5.264 -0.8838 -0.7225  1.8865
  337MOL0     H45493   9.077   9.814   5.258 -0.7856 -1.1818  0.8637
  337MOL0     H45494   9.087   9.647   5.224 -0.8863 -0.5415  0.8155
  337MOL0     H45495   9.035   9.749   5.091  1.2558 -4.5611 -1.9138
  338MOL0     O45496   2.700   5.006   4.957 -0.0701  1.0236 -0.5894
  338MOL0     C45497   2.579   5.010   4.934  0.0348 -0.3803 -0.2017
  338MOL0     O45498   2.527   5.067   4.813  0.2477  0.4023  0.6351
  338MOL0     C45499   2.586   5.174   4.749 -0.7771 -0.2186 -0.4692
  338MOL0     C45500   2.538   5.207   4.615  0.1617 -0.0327 -0.6004
  338MOL0     C45501   2.590   5.325   4.563  0.3372  0.6189  0.5329
  338MOL0     C45502   2.685   5.405   4.621  0.2638  0.8690 -0.3128
  338MOL0     O45503   2.741   5.524   4.564 -0.1792  0.1314  0.2194
  338MOL0     C45504   2.676   5.582   4.446 -0.8053 -0.5262 -0.0445
  338MOL0     C45505   2.757   5.707   4.410 -0.6674 -0.0655  0.7520
  338MOL0     C45506   2.897   5.674   4.361 -1.2282 -0.1300 -0.5634
  338MOL0     C45507   2.992   5.795   4.358  0.2437  0.1996  0.1381
  338MOL0     C45508   3.136   5.778   4.324 -0.3939  0.6326 -0.1617
  338MOL0     C45509   3.139   5.712   4.187 -0.3552  0.1898  0.0394
  338MOL0     C45510   3.280   5.707   4.140 -0.5503  0.0437  1.2501
  338MOL0     C45511   3.348   5.595   4.215 -0.5148  0.8790 -0.5325
  338MOL0     N45512   3.488   5.581   4.175  0.5074  0.1288  0.3784
  338MOL0     C45513   3.589   5.677   4.203  0.6979  0.4961  0.2265
  338MOL0     C45514   3.701   5.603   4.179 -0.5144 -0.9861  1.0071
  338MOL0     C45515   3.833   5.665   4.208 -0.0457  0.7057  0.9655
  338MOL0     C45516   3.914   5.686   4.079  0.7636 -0.4239  0.9485
  338MOL0     C45517   4.021   5.797   4.100 -0.8310 -0.3274 -0.1492
  338MOL0     C45518   4.121   5.774   4.225  0.1884 -0.0081 -0.5371
  338MOL0     O45519   4.221   5.691   4.166  0.3596  0.5217  0.0564
  338MOL0     C45520   4.349   5.738   4.175 -0.7726 -0.1477  0.0976
  338MOL0     C45521   4.420   5.761   4.061  1.1289 -0.0005  0.4298
  338MOL0     C45522   4.546   5.812   4.061 -0.2351  0.1598  0.1553
  338MOL0     C45523   4.611   5.822   4.184 -0.2682  0.9496  0.1638
  338MOL0     C45524   4.756   5.854   4.182 -0.9131  0.6200 -0.1390
  338MOL0     O45525   4.829   5.834   4.075  0.4072  0.5015 -0.5732
  338MOL0     C45526   4.952   5.887   4.081 -0.5614 -0.5964  0.1028
  338MOL0     C45527   5.066   5.811   4.119  0.4626 -0.6855 -0.0483
  338MOL0     C45528   5.185   5.875   4.143 -1.0159 -0.2579 -0.6227
  338MOL0     C45529   5.200   6.010   4.113  0.0571  0.4007  0.6160
  338MOL0     O45530   5.325   6.055   4.135  0.3005  0.0401 -0.0339
  338MOL0     C45531   5.355   6.195   4.118 -1.0288  0.6355 -0.1605
  338MOL0     C45532   5.386   6.229   3.973  0.1207 -0.2756 -0.7496
  338MOL0     C45533   5.521   6.156   3.939 -0.3345 -0.2805  0.4702
  338MOL0     C45534   5.648   6.247   3.937 -0.7729 -0.3567 -0.5320
  338MOL0     C45535   5.777   6.159   3.908  0.5852 -0.7175 -0.1775
  338MOL0     C45536   5.913   6.228   3.933 -0.1893  0.1966 -0.0388
  338MOL0     C45537   6.038   6.141   3.932  0.3832  0.8333 -0.1261
  338MOL0     C45538   6.048   6.070   4.065  0.3833  0.0175 -0.3354
  338MOL0    Cl45539   6.110   6.171   4.200 -0.1642 -0.3176 -0.1927
  338MOL0     C45540   5.087   6.083   4.065 -1.4712  0.3562  0.0238
  338MOL0     C45541   4.967   6.021   4.051  0.3727  0.4314  0.3437
  338MOL0     O45542   4.799   5.902   4.282  0.0553 -0.1400  0.0432
  338MOL0     C45543   4.542   5.808   4.303 -0.2309 -0.1967  1.2048
  338MOL0     C45544   4.418   5.775   4.292  0.0132  0.5591 -0.4978
  338MOL0     N45545   3.684   5.473   4.139 -0.7542 -0.7145 -0.2115
  338MOL0     N45546   3.552   5.464   4.147 -0.0999  0.1962 -0.5531
  338MOL0     C45547   2.728   5.368   4.750  0.6324  1.3636  0.2938
  338MOL0     C45548   2.687   5.250   4.811 -0.5032 -0.1139  0.1111
  338MOL0     C45549   2.480   4.966   5.037 -0.6843  0.1620  0.7816
  338MOL0     C45550   2.344   4.967   5.001  0.4031 -0.5396 -0.3364
  338MOL0     C45551   2.249   4.904   5.082  0.0625 -0.4995 -0.0229
  338MOL0     C45552   2.288   4.842   5.201  0.5687 -0.2831 -0.9290
  338MOL0     O45553   2.192   4.787   5.279  0.8875 -0.1284 -0.1832
  338MOL0     C45554   2.224   4.806   5.412 -0.6692 -0.3951 -0.6918
  338MOL0     C45555   2.111   4.772   5.501  1.0143  0.1068  1.0165
  338MOL0     C45556   2.003   4.881   5.536 -0.1354 -0.2418 -0.1580
  338MOL0     C45557   1.864   4.816   5.560 -0.5198  0.2704 -0.7720
  338MOL0     C45558   1.762   4.912   5.612  0.1837 -0.0236  0.3023
  338MOL0     C45559   1.676   4.977   5.662 -0.1967  0.3602 -0.4070
  338MOL0     C45560   2.420   4.838   5.234  0.1161 -0.1593  0.2030
  338MOL0     C45561   2.514   4.900   5.160 -0.8024 -0.2044 -0.1455
  338MOL0     C45562   2.655   4.911   5.220 -0.1464 -1.0933 -0.0129
  338MOL0     H45563   2.464   5.162   4.549 -0.4637  0.7460 -0.4394
  338MOL0     H45564   2.556   5.342   4.461 -1.1531  1.1039  1.0752
  338MOL0     H45565   2.665   5.532   4.350  1.2275 -1.2273  0.0270
  338MOL0     H45566   2.580   5.624   4.475 -0.4453  0.0707  0.3110
  338MOL0     H45567   2.752   5.783   4.489  4.3669  0.9206  0.4664
  338MOL0     H45568   2.689   5.743   4.332 -2.1586  1.6614  2.7533
  338MOL0     H45569   2.888   5.627   4.263 -0.2299 -0.6410 -0.4274
  338MOL0     H45570   2.940   5.605   4.434  1.8205  1.8040 -0.3094
  338MOL0     H45571   2.948   5.861   4.282 -0.0737  0.3024  0.4091
  338MOL0     H45572   2.988   5.838   4.459 -0.9270  1.2032 -0.3194
  338MOL0     H45573   3.183   5.876   4.321  1.7295 -0.3497 -1.8539
  338MOL0     H45574   3.185   5.714   4.399  1.3836 -0.0964 -1.8442
  338MOL0     H45575   3.094   5.612   4.188 -0.8338  0.3532 -2.0845
  338MOL0     H45576   3.083   5.762   4.108 -2.4765 -1.8784  0.1400
  338MOL0     H45577   3.327   5.806   4.145 -0.6976  0.2518 -0.6746
  338MOL0     H45578   3.287   5.684   4.033  4.0659 -0.1977  1.4049
  338MOL0     H45579   3.331   5.597   4.323  1.5799 -2.7652  0.0160
  338MOL0     H45580   3.300   5.503   4.179  0.7238 -1.1521  2.5683
  338MOL0     H45581   3.583   5.783   4.225  0.6604  1.3499 -3.2453
  338MOL0     H45582   3.822   5.763   4.255 -0.7661  0.3350  1.5767
  338MOL0     H45583   3.895   5.604   4.274  1.0420 -0.2680 -0.8679
  338MOL0     H45584   3.957   5.595   4.037  1.6167  0.1691  0.5053
  338MOL0     H45585   3.848   5.727   4.002  2.5919  1.4490  0.2688
  338MOL0     H45586   3.967   5.891   4.105  1.4083  0.9884  0.8829
  338MOL0     H45587   4.084   5.811   4.012 -1.0510 -0.1409 -0.2766
  338MOL0     H45588   4.072   5.720   4.306  0.7313 -2.3416 -1.6729
  338MOL0     H45589   4.152   5.870   4.267  0.5894 -0.0252 -0.7889
  338MOL0     H45590   4.381   5.735   3.963 -1.8652 -0.0676  1.5445
  338MOL0     H45591   4.599   5.847   3.973  1.9894 -3.6832 -0.2285
  338MOL0     H45592   5.060   5.707   4.149 -0.5975 -0.2621  1.3172
  338MOL0     H45593   5.269   5.822   4.186 -0.0931  0.4547 -1.5046
  338MOL0     H45594   5.270   6.253   4.155 -2.1700 -3.0393  3.8074
  338MOL0     H45595   5.443   6.195   4.183  0.0623 -1.6693 -1.4914
  338MOL0     H45596   5.308   6.181   3.913  1.3857 -0.1774 -2.5541
  338MOL0     H45597   5.366   6.336   3.961 -1.2881 -0.2468  1.2891
  338MOL0     H45598   5.542   6.075   4.010 -0.0088  0.7228  1.5580
  338MOL0     H45599   5.514   6.114   3.838  1.3770  1.4515 -0.4369
  338MOL0     H45600   5.665   6.286   4.038 -1.1010  1.0718 -0.9974
  338MOL0     H45601   5.626   6.328   3.866  0.0278 -2.0800 -2.8601
  338MOL0     H45602   5.778   6.142   3.800 -0.2474 -0.4491 -0.2361
  338MOL0     H45603   5.761   6.063   3.957  0.5704  0.0039  1.2871
  338MOL0     H45604   5.928   6.300   3.853  0.2363 -0.7280 -0.8142
  338MOL0     H45605   5.897   6.277   4.029 -1.4158  1.8879 -1.0691
  338MOL0     H45606   6.117   6.216   3.932  0.1026  1.1674 -1.7386
  338MOL0     H45607   6.055   6.078   3.844 -1.6796 -0.2091  0.1459
  338MOL0     H45608   5.950   6.029   4.091  0.4859  0.5621  0.9468
  338MOL0     H45609   6.124   5.992   4.049 -0.1723 -0.7012  0.4310
  338MOL0     H45610   5.091   6.184   4.023 -0.1090 -0.8450 -3.0583
  338MOL0     H45611   4.875   6.062   4.010  0.9635 -0.3510 -1.9234
  338MOL0     H45612   4.595   5.826   4.395 -0.2551  0.2684  1.1302
  338MOL0     H45613   4.365   5.771   4.386  3.4987 -1.4206  1.5947
  338MOL0     H45614   2.799   5.433   4.799  1.9423 -0.0020  0.2807
  338MOL0     H45615   2.731   5.244   4.910 -1.3160  2.1541  0.6750
  338MOL0     H45616   2.312   5.007   4.906 -2.1505 -0.7419  0.3781
  338MOL0     H45617   2.144   4.899   5.053 -1.1211  3.2398  2.7655
  338MOL0     H45618   2.238   4.913   5.428 -3.1716 -0.4243  2.8274
  338MOL0     H45619   2.305   4.751   5.461 -0.3345  0.7620  0.1037
  338MOL0     H45620   2.147   4.740   5.599 -0.7335  1.5295  2.1924
  338MOL0     H45621   2.046   4.701   5.451  1.5922 -1.9546  3.0122
  338MOL0     H45622   1.987   4.936   5.443 -2.8745 -0.6187  0.0042
  338MOL0     H45623   2.051   4.944   5.612  0.6442 -0.7699 -0.2049
  338MOL0     H45624   1.823   4.757   5.477 -1.1978  1.1734 -1.1007
  338MOL0     H45625   1.876   4.741   5.638  1.8965 -1.2262 -2.4462
  338MOL0     H45626   1.597   5.040   5.697 -0.3126  0.1465 -0.2819
  338MOL0     H45627   2.452   4.786   5.324  1.4170 -2.2492 -1.3638
  338MOL0     H45628   2.654   4.857   5.315 -1.2743  0.2141  0.7677
  338MOL0     H45629   2.731   4.868   5.155 -0.5097 -0.2509 -1.0287
  338MOL0     H45630   2.686   5.015   5.235 -2.6909  0.0243 -1.6571
  339MOL0     O45631   2.911   5.673   2.647  1.1954 -0.0746 -0.5523
  339MOL0     C45632   2.970   5.599   2.725 -0.2710 -0.2738  0.4297
  339MOL0     O45633   3.083   5.634   2.786 -0.0353 -0.2441 -0.1993
  339MOL0     C45634   3.151   5.755   2.766 -0.2818  0.7641 -0.0058
  339MOL0     C45635   3.225   5.776   2.648  0.4554 -0.2828  0.1441
  339MOL0     C45636   3.313   5.881   2.620 -0.2113  0.3365 -0.6195
  339MOL0     C45637   3.321   5.985   2.705  0.0953 -0.2952  0.2599
  339MOL0     O45638   3.393   6.097   2.694 -0.4579 -0.1085 -0.0412
  339MOL0     C45639   3.501   6.098   2.606  0.4641 -0.0283  0.4768
  339MOL0     C45640   3.571   6.235   2.616 -0.0325 -0.2244  0.7793
  339MOL0     C45641   3.638   6.284   2.489  0.7247 -0.0617  0.6536
  339MOL0     C45642   3.766   6.206   2.461 -0.5400  1.0094  0.6664
  339MOL0     C45643   3.839   6.251   2.328  0.9623 -0.1347 -0.5606
  339MOL0     C45644   3.993   6.224   2.335  0.4611 -0.4901 -0.1412
  339MOL0     C45645   4.079   6.263   2.213  0.1733  0.2305  0.5782
  339MOL0     C45646   4.080   6.413   2.181  0.0061 -0.0026  0.8849
  339MOL0     N45647   4.120   6.499   2.288  0.0883 -0.2556 -0.2665
  339MOL0     C45648   4.229   6.489   2.360 -0.5368  0.6935 -0.1836
  339MOL0     C45649   4.215   6.580   2.455  0.3780  0.0990  0.1610
  339MOL0     C45650   4.302   6.607   2.566 -0.2726 -0.1714  0.0955
  339MOL0     C45651   4.279   6.522   2.688 -0.1236  0.4466 -0.0308
  339MOL0     C45652   4.342   6.588   2.812 -0.0499  0.1413  0.9495
  339MOL0     C45653   4.483   6.621   2.791  0.0853 -0.0837  0.0566
  339MOL0     O45654   4.550   6.644   2.920  0.0819 -0.3132  0.1436
  339MOL0     C45655   4.691   6.651   2.931 -0.2420  0.6952 -1.0217
  339MOL0     C45656   4.779   6.678   2.836  0.1166  0.2141 -0.2788
  339MOL0     C45657   4.921   6.679   2.856 -0.3549 -0.3717 -0.5326
  339MOL0     C45658   4.973   6.666   2.991 -0.0352 -0.2532  0.2612
  339MOL0     C45659   5.115   6.676   3.016 -0.2615  0.0498 -0.1779
  339MOL0     O45660   5.194   6.673   2.904 -0.2914 -0.3436 -0.4511
  339MOL0     C45661   5.319   6.716   2.896  0.5668 -0.1927  0.0899
  339MOL0     C45662   5.347   6.823   2.801 -0.3324  0.6132 -0.7864
  339MOL0     C45663   5.484   6.865   2.776  0.4335  0.1746 -0.2902
  339MOL0     C45664   5.590   6.809   2.852 -0.0143 -0.0091 -0.7072
  339MOL0     O45665   5.725   6.844   2.837 -0.0310  0.1094 -0.5891
  339MOL0     C45666   5.747   6.949   2.741  0.0751  0.7215  0.9889
  339MOL0     C45667   5.894   6.991   2.740 -1.3638 -0.1720  0.4811
  339MOL0     C45668   6.000   6.887   2.731  0.6686 -0.1497  0.5774
  339MOL0     C45669   6.000   6.814   2.598 -0.2622 -0.5450  0.7240
  339MOL0     C45670   6.129   6.740   2.571  0.9682  0.2071 -1.5159
  339MOL0     C45671   6.139   6.609   2.657 -1.4911  0.2223  0.1662
  339MOL0     C45672   6.281   6.562   2.627 -0.6071 -0.0177  0.0400
  339MOL0     C45673   6.289   6.418   2.681 -1.5513 -0.6474 -0.3993
  339MOL0    Cl45674   6.300   6.404   2.860 -0.2207 -0.0100 -0.4140
  339MOL0     C45675   5.559   6.699   2.932  0.1068 -0.5638 -0.1471
  339MOL0     C45676   5.430   6.654   2.958  0.2253 -0.3181  0.9384
  339MOL0     O45677   5.159   6.669   3.129  0.6405  0.1017  0.2462
  339MOL0     C45678   4.883   6.652   3.093 -0.1690  0.0176  0.5299
  339MOL0     C45679   4.746   6.637   3.066  0.2185  0.3462  0.7292
  339MOL0     N45680   4.090   6.654   2.440 -0.5692  0.7897 -0.0097
  339MOL0     N45681   4.039   6.596   2.341  0.2769 -0.4259 -0.0224
  339MOL0     C45682   3.235   5.975   2.821  0.0112  0.4218  0.4990
  339MOL0     C45683   3.156   5.862   2.855  0.3167 -0.1647  0.2108
  339MOL0     C45684   2.925   5.457   2.739  0.6712  0.0484  0.0495
  339MOL0     C45685   2.990   5.387   2.844  0.3923  0.5445 -0.1816
  339MOL0     C45686   2.941   5.269   2.883  0.3541  0.1404  0.0247
  339MOL0     C45687   2.825   5.210   2.832 -0.1687  0.2060  0.5512
  339MOL0     O45688   2.782   5.099   2.900 -0.8922 -0.3194  0.6861
  339MOL0     C45689   2.654   5.053   2.875  0.0983  0.6260 -1.4656
  339MOL0     C45690   2.601   4.944   2.972 -0.4256  0.0622 -0.0889
  339MOL0     C45691   2.441   4.935   2.965  0.7378 -1.4832  0.0506
  339MOL0     C45692   2.380   4.805   2.990  0.5820  0.1674 -0.6249
  339MOL0     C45693   2.241   4.813   2.957  0.5873  0.1048  0.4851
  339MOL0     C45694   2.124   4.839   2.939 -0.5160 -0.4576  0.3570
  339MOL0     C45695   2.754   5.277   2.727 -0.4262  0.1117  0.5622
  339MOL0     C45696   2.805   5.401   2.677  0.4053  0.0627  0.2623
  339MOL0     C45697   2.721   5.477   2.575 -0.2983  0.6138  0.3312
  339MOL0     H45698   3.227   5.705   2.566  0.6692 -0.0963 -0.0141
  339MOL0     H45699   3.365   5.896   2.526  0.8351  0.0677 -0.1007
  339MOL0     H45700   3.572   6.021   2.638 -2.2205 -2.3721  1.2667
  339MOL0     H45701   3.461   6.072   2.508 -0.3752  2.9017 -0.0356
  339MOL0     H45702   3.637   6.237   2.703 -1.2865 -1.4610  1.7902
  339MOL0     H45703   3.488   6.303   2.637 -0.6402 -1.1198  1.3383
  339MOL0     H45704   3.660   6.390   2.501 -2.1035  0.9213 -1.6531
  339MOL0     H45705   3.568   6.270   2.406  1.3889  0.1282  0.0552
  339MOL0     H45706   3.827   6.227   2.550 -2.9533  0.2905  2.5895
  339MOL0     H45707   3.742   6.099   2.453  1.5705  0.5560 -0.4233
  339MOL0     H45708   3.791   6.201   2.243 -3.8051  2.7948  0.0275
  339MOL0     H45709   3.810   6.356   2.324  1.4750 -0.0390 -2.6957
  339MOL0     H45710   4.031   6.267   2.427 -3.7826  0.6454  1.3322
  339MOL0     H45711   3.989   6.114   2.334  1.4177 -0.6035  2.4665
  339MOL0     H45712   4.040   6.214   2.124 -0.7975  1.0984  0.4951
  339MOL0     H45713   4.179   6.221   2.222 -1.2981 -3.5243  1.1985
  339MOL0     H45714   4.139   6.425   2.090  0.6982 -0.9647  1.1873
  339MOL0     H45715   3.974   6.437   2.165 -0.5985 -1.4071  2.4638
  339MOL0     H45716   4.326   6.442   2.349 -1.3434 -0.4902 -3.8070
  339MOL0     H45717   4.404   6.584   2.532 -0.4664 -0.7732 -0.0971
  339MOL0     H45718   4.294   6.712   2.594 -0.4831 -0.2769  0.4465
  339MOL0     H45719   4.171   6.513   2.699  0.1817 -0.3992  3.2894
  339MOL0     H45720   4.324   6.424   2.669 -1.7302 -0.1892 -0.7260
  339MOL0     H45721   4.330   6.519   2.897  0.8633 -1.3960 -0.1144
  339MOL0     H45722   4.294   6.677   2.853 -0.5181  2.8246 -4.6347
  339MOL0     H45723   4.489   6.717   2.741 -0.9284  0.1132  0.2842
  339MOL0     H45724   4.535   6.547   2.729  1.4211 -1.3215  2.4839
  339MOL0     H45725   4.727   6.697   2.743 -0.0749  3.4604  0.3749
  339MOL0     H45726   4.990   6.711   2.778  1.4178 -0.4485  0.9134
  339MOL0     H45727   5.273   6.864   2.732 -0.8178  1.1280  0.0237
  339MOL0     H45728   5.504   6.942   2.701 -0.9929 -0.2401 -1.1422
  339MOL0     H45729   5.714   6.909   2.644  0.4358 -1.7799  1.8136
  339MOL0     H45730   5.698   7.045   2.759  1.7798  1.5774  1.3199
  339MOL0     H45731   5.909   7.070   2.666 -1.0662  0.8495  1.5983
  339MOL0     H45732   5.910   7.042   2.835 -0.4478  1.7819 -0.6617
  339MOL0     H45733   6.094   6.938   2.753  1.0570 -0.5072 -0.2316
  339MOL0     H45734   5.983   6.809   2.805  1.7729 -2.1047 -1.1428
  339MOL0     H45735   5.987   6.884   2.514  3.0969 -0.9179 -0.2656
  339MOL0     H45736   5.919   6.740   2.593  0.7007 -1.5784 -3.1307
  339MOL0     H45737   6.220   6.801   2.580  2.1171 -1.4072 -1.8467
  339MOL0     H45738   6.131   6.700   2.469  0.3317 -2.1006 -0.6747
  339MOL0     H45739   6.127   6.637   2.762 -2.7995  1.7346 -0.3419
  339MOL0     H45740   6.063   6.535   2.631 -3.5931  3.1808 -2.9718
  339MOL0     H45741   6.362   6.618   2.676  0.9871 -1.5781 -0.6894
  339MOL0     H45742   6.300   6.564   2.519 -1.6031  0.0035 -0.1414
  339MOL0     H45743   6.213   6.354   2.633 -0.5677 -0.2490 -2.6312
  339MOL0     H45744   6.387   6.388   2.642  1.2703  6.8187 -0.7559
  339MOL0     H45745   5.640   6.635   2.966  0.2784 -0.8432 -1.0528
  339MOL0     H45746   5.401   6.574   3.025  0.5764 -1.9861 -0.8092
  339MOL0     H45747   4.927   6.646   3.192 -1.6369  1.5336  1.3212
  339MOL0     H45748   4.666   6.612   3.136  0.2978 -0.4716  0.5467
  339MOL0     H45749   3.220   6.067   2.877 -0.4532  0.4759  0.2877
  339MOL0     H45750   3.087   5.865   2.939 -1.4418 -1.2493 -1.1053
  339MOL0     H45751   3.073   5.425   2.903 -0.7869  0.5057  1.5549
  339MOL0     H45752   2.988   5.203   2.956 -0.6171 -0.1903  0.3597
  339MOL0     H45753   2.641   5.027   2.769  0.4520 -3.2060 -0.6842
  339MOL0     H45754   2.590   5.141   2.889 -1.2952 -0.6974  1.0463
  339MOL0     H45755   2.628   4.982   3.071 -3.0168  3.0929 -0.3985
  339MOL0     H45756   2.651   4.848   2.954  0.8183  0.2181  2.2293
  339MOL0     H45757   2.397   4.981   2.875 -3.9574 -1.6016  2.0062
  339MOL0     H45758   2.414   5.014   3.036  1.0375  0.5448 -1.9398
  339MOL0     H45759   2.431   4.727   2.934 -0.4739 -1.6552  0.8304
  339MOL0     H45760   2.369   4.786   3.098  0.3381 -1.0665 -0.8490
  339MOL0     H45761   2.023   4.841   2.904  0.3924 -1.3213 -2.5887
  339MOL0     H45762   2.668   5.236   2.675 -1.2706  0.2189  1.8269
  339MOL0     H45763   2.664   5.558   2.622 -3.8934 -1.2739 -0.4330
  339MOL0     H45764   2.786   5.514   2.494  1.7698  1.2097  2.1603
  339MOL0     H45765   2.652   5.408   2.525 -0.1482  0.1071  0.8279
  340MOL0     O45766   7.531   9.973  10.316 -0.4707 -0.4395  1.0205
  340MOL0     C45767   7.566  10.018  10.425 -0.3384  0.8473  0.4933
  340MOL0     O45768   7.518   9.980  10.553  1.3794 -0.2863 -0.7065
  340MOL0     C45769   7.415   9.884  10.551 -0.7141 -0.3725  0.6190
  340MOL0     C45770   7.417   9.756  10.486 -0.1194  0.1756 -0.4552
  340MOL0     C45771   7.295   9.687  10.480  0.3332  0.7410 -0.0090
  340MOL0     C45772   7.174   9.737  10.537 -0.6944 -0.0731  0.9244
  340MOL0     O45773   7.058   9.666  10.545  0.2912 -0.5129  0.1452
  340MOL0     C45774   7.055   9.533  10.501  0.2445 -0.3993 -0.4032
  340MOL0     C45775   6.912   9.489  10.493 -0.6663  0.2672 -0.4253
  340MOL0     C45776   6.853   9.462  10.631  0.2429  0.1929 -1.2952
  340MOL0     C45777   6.703   9.416  10.635 -0.7542  0.8238  0.5890
  340MOL0     C45778   6.652   9.357  10.774 -0.2628 -0.0354 -0.2878
  340MOL0     C45779   6.506   9.333  10.760  0.5765  1.1230 -0.1155
  340MOL0     C45780   6.436   9.346  10.899  0.5522  0.1252 -0.1806
  340MOL0     C45781   6.423   9.489  10.947  0.0006  0.3640  0.3031
  340MOL0     N45782   6.360   9.589  10.850  0.4630 -0.6152  0.5998
  340MOL0     C45783   6.224   9.603  10.835  0.4545 -0.5889 -1.2576
  340MOL0     C45784   6.217   9.665  10.714  1.1702 -0.0474  0.1051
  340MOL0     C45785   6.096   9.702  10.641  0.6424  0.7010 -1.1186
  340MOL0     C45786   6.070   9.849  10.655  0.3848 -1.1078  0.4512
  340MOL0     C45787   5.958   9.893  10.549  0.0621  0.3082 -0.5750
  340MOL0     C45788   5.925  10.045  10.543  0.0838  0.0461 -0.3404
  340MOL0     O45789   5.959  10.109  10.667  0.4053 -0.4249 -0.1105
  340MOL0     C45790   5.873  10.212  10.704 -0.2626 -0.7862  0.6139
  340MOL0     C45791   5.779  10.277  10.619  0.4608 -0.4417 -0.5801
  340MOL0     C45792   5.695  10.370  10.673  0.5162 -0.0105 -0.9844
  340MOL0     C45793   5.717  10.419  10.806  0.5544 -0.1747 -0.3691
  340MOL0     C45794   5.628  10.524  10.866  0.7028 -0.0479 -1.2425
  340MOL0     O45795   5.679  10.578  10.977  1.2053 -0.1771 -0.2163
  340MOL0     C45796   5.609  10.682  11.035 -0.0860 -0.1745 -0.6653
  340MOL0     C45797   5.527  10.656  11.145 -1.6183 -0.0218  0.3359
  340MOL0     C45798   5.455  10.757  11.208  0.0438  0.1969 -0.6834
  340MOL0     C45799   5.447  10.879  11.155  0.2859 -0.1490  0.1311
  340MOL0     O45800   5.360  10.957  11.225 -0.7802  0.3252  0.1991
  340MOL0     C45801   5.367  11.095  11.195 -0.0319 -0.2184  0.1045
  340MOL0     C45802   5.268  11.175  11.276 -0.3377  0.1213 -0.9950
  340MOL0     C45803   5.124  11.166  11.228  0.1313 -0.2362  0.1859
  340MOL0     C45804   5.049  11.302  11.221  0.1328 -0.6101 -0.0469
  340MOL0     C45805   4.905  11.280  11.169 -0.0154 -0.3849 -0.0713
  340MOL0     C45806   4.888  11.241  11.023 -0.7543  0.6388  0.7094
  340MOL0     C45807   4.744  11.230  10.969 -0.4509 -0.0677 -0.4032
  340MOL0     C45808   4.732  11.140  10.847  0.6976 -0.5414 -0.1169
  340MOL0    Cl45809   4.555  11.146  10.826  0.4285  0.1974 -0.0504
  340MOL0     C45810   5.530  10.914  11.048 -0.3001  0.8366  0.4047
  340MOL0     C45811   5.612  10.819  10.994 -0.2488  0.6467 -0.5893
  340MOL0     O45812   5.518  10.552  10.816 -0.3723  0.0945  0.3433
  340MOL0     C45813   5.811  10.361  10.886  0.0360 -0.0297  0.7143
  340MOL0     C45814   5.891  10.265  10.829 -0.3019  0.0619 -0.6832
  340MOL0     N45815   6.348   9.696  10.673  0.0842  0.1074  0.0088
  340MOL0     N45816   6.432   9.644  10.757  0.6191  0.4461 -0.2030
  340MOL0     C45817   7.177   9.867  10.591  0.0874  0.5943 -0.0382
  340MOL0     C45818   7.295   9.942  10.603 -0.6781 -0.0131  0.7699
  340MOL0     C45819   7.686  10.111  10.431  0.0134 -0.7389  0.3651
  340MOL0     C45820   7.755  10.125  10.551  0.8230  0.0662 -0.2634
  340MOL0     C45821   7.863  10.199  10.566 -0.6483 -0.4046 -0.0297
  340MOL0     C45822   7.913  10.266  10.458  0.0942 -0.7648 -0.2700
  340MOL0     O45823   8.031  10.336  10.461 -0.1727 -0.1071 -0.2941
  340MOL0     C45824   8.088  10.384  10.582 -0.3547  0.0364 -0.7967
  340MOL0     C45825   8.229  10.442  10.551 -0.9887 -0.8498 -0.0533
  340MOL0     C45826   8.269  10.537  10.667 -0.2820 -0.7501 -0.0753
  340MOL0     C45827   8.418  10.583  10.650 -0.4678 -0.1382  0.3591
  340MOL0     C45828   8.492  10.503  10.739  0.0618 -0.1953 -0.7037
  340MOL0     C45829   8.540  10.427  10.815 -0.6075  0.2255 -0.4874
  340MOL0     C45830   7.852  10.263  10.336  0.9848 -0.6277 -0.4433
  340MOL0     C45831   7.733  10.194  10.322 -0.3539  0.7126  0.7767
  340MOL0     C45832   7.665  10.208  10.187  0.2567  0.6387 -0.4895
  340MOL0     H45833   7.503   9.700  10.450  0.6097  0.7526  0.3548
  340MOL0     H45834   7.294   9.586  10.439 -2.4326  0.2243  1.1665
  340MOL0     H45835   7.097   9.520  10.401  0.5850 -3.1639  0.0335
  340MOL0     H45836   7.102   9.463  10.570 -2.6075 -3.0487 -0.9342
  340MOL0     H45837   6.907   9.406  10.421  3.2902  1.4719 -2.3605
  340MOL0     H45838   6.854   9.571  10.451 -1.1189  0.6843  0.9656
  340MOL0     H45839   6.856   9.551  10.695  2.8577 -1.7244  1.5796
  340MOL0     H45840   6.922   9.390  10.676 -3.0718 -0.6365  3.2338
  340MOL0     H45841   6.635   9.500  10.616 -1.8043  0.1907  1.4205
  340MOL0     H45842   6.683   9.340  10.559 -1.8324  1.8711 -0.2173
  340MOL0     H45843   6.701   9.262  10.800  1.4267 -0.2844 -3.8167
  340MOL0     H45844   6.683   9.417  10.861  0.0012 -2.9924  1.8192
  340MOL0     H45845   6.451   9.386  10.681 -0.0703 -0.5015 -0.8021
  340MOL0     H45846   6.492   9.231  10.723  0.1718  1.8023 -1.9746
  340MOL0     H45847   6.492   9.287  10.972 -0.6350  1.4227  1.8649
  340MOL0     H45848   6.336   9.304  10.890  0.6234 -0.4293  1.2629
  340MOL0     H45849   6.367   9.489  11.041 -1.8168 -0.1308 -0.7410
  340MOL0     H45850   6.525   9.522  10.969  0.5190 -0.7884 -0.2802
  340MOL0     H45851   6.156   9.575  10.914  3.2617 -0.8746  1.2135
  340MOL0     H45852   6.113   9.666  10.539  4.0954 -1.3309  0.0250
  340MOL0     H45853   6.016   9.650  10.695  3.9983 -2.5723  1.2398
  340MOL0     H45854   6.029   9.881  10.752  1.4658  0.3374  0.4635
  340MOL0     H45855   6.161   9.907  10.637 -2.4458  4.2610  1.2617
  340MOL0     H45856   5.864   9.852  10.588  0.4075 -0.1925 -0.2728
  340MOL0     H45857   5.985   9.866  10.447  4.1683  2.9656 -0.4244
  340MOL0     H45858   5.819  10.051  10.517 -0.1448  0.8496  0.7041
  340MOL0     H45859   5.982  10.096  10.465 -0.7984  0.3435 -0.8092
  340MOL0     H45860   5.768  10.248  10.515 -0.7958  1.2537 -0.9793
  340MOL0     H45861   5.614  10.415  10.616  0.4311 -0.1521 -0.9766
  340MOL0     H45862   5.517  10.551  11.173 -2.2535 -0.1836 -0.4617
  340MOL0     H45863   5.407  10.738  11.304  1.2954 -2.2058 -0.4626
  340MOL0     H45864   5.465  11.142  11.212 -1.2913  1.9500  1.8604
  340MOL0     H45865   5.333  11.112  11.093 -3.3658  2.2463  1.4375
  340MOL0     H45866   5.265  11.146  11.381  1.0850 -1.4626 -1.3392
  340MOL0     H45867   5.301  11.279  11.273  3.2055 -0.8530 -1.3428
  340MOL0     H45868   5.111  11.107  11.137 -3.3429 -3.5095  2.4907
  340MOL0     H45869   5.067  11.104  11.298 -0.0936  2.2587  2.4129
  340MOL0     H45870   5.099  11.371  11.151  0.7754  0.4676  1.4105
  340MOL0     H45871   5.057  11.338  11.324  1.2978 -1.7279  0.2750
  340MOL0     H45872   4.845  11.369  11.192  1.7174  1.2741 -1.5896
  340MOL0     H45873   4.857  11.204  11.230  1.2469  0.8029  2.5526
  340MOL0     H45874   4.948  11.319  10.976  0.3585  1.0893  2.7635
  340MOL0     H45875   4.926  11.140  11.003 -0.8673  0.6580  0.4034
  340MOL0     H45876   4.709  11.330  10.942  1.3944  1.8938  3.6171
  340MOL0     H45877   4.672  11.204  11.047  0.1180 -0.3141  0.0472
  340MOL0     H45878   4.782  11.188  10.763  1.1742  0.7824  0.8839
  340MOL0     H45879   4.752  11.034  10.865 -1.1134 -1.4498 -2.7689
  340MOL0     H45880   5.532  11.011  10.999 -1.3129 -0.1169 -1.6291
  340MOL0     H45881   5.688  10.846  10.921  0.9185  1.4847  0.8556
  340MOL0     H45882   5.813  10.377  10.993 -1.2085 -1.7538  1.0351
  340MOL0     H45883   5.952  10.221  10.907 -2.3295  0.3504  1.1809
  340MOL0     H45884   7.085   9.916  10.619 -0.2926 -1.1645  1.9936
  340MOL0     H45885   7.285  10.039  10.651  2.4053  0.6395  0.3065
  340MOL0     H45886   7.726  10.067  10.638 -0.9379  0.8801 -0.2778
  340MOL0     H45887   7.910  10.209  10.664 -0.2716  1.9352 -0.3775
  340MOL0     H45888   8.089  10.312  10.664 -0.6630 -1.1656 -1.8272
  340MOL0     H45889   8.025  10.464  10.622 -0.6896 -0.2936 -0.6616
  340MOL0     H45890   8.246  10.493  10.456  0.2844 -1.9225 -0.4285
  340MOL0     H45891   8.295  10.355  10.551 -0.0831 -0.2259  1.7742
  340MOL0     H45892   8.245  10.470  10.750 -1.3265 -0.2481  0.0398
  340MOL0     H45893   8.196  10.618  10.658 -0.7729 -1.3119 -1.5866
  340MOL0     H45894   8.458  10.577  10.548 -0.7716  2.0611  0.0632
  340MOL0     H45895   8.427  10.690  10.670 -0.0314 -0.3805  1.4942
  340MOL0     H45896   8.587  10.360  10.884  3.4102  3.7790  0.6618
  340MOL0     H45897   7.891  10.328  10.258  2.3071  1.4393  1.8267
  340MOL0     H45898   7.556  10.210  10.200  0.3679  0.7483  0.4708
  340MOL0     H45899   7.685  10.305  10.141  1.2481  1.0666  0.7844
  340MOL0     H45900   7.699  10.135  10.114 -2.4526 -0.6515 -0.5960
  341MOL0     O45901   6.298   7.828   7.010 -0.2427 -0.1921  0.1205
  341MOL0     C45902   6.414   7.806   7.048  0.2946 -0.2434  0.1540
  341MOL0     O45903   6.462   7.710   7.130  0.1876  1.1335  0.6143
  341MOL0     C45904   6.359   7.623   7.173 -0.6502  0.1603  0.3133
  341MOL0     C45905   6.290   7.539   7.083 -0.6772 -0.1230  0.1481
  341MOL0     C45906   6.204   7.446   7.132  0.4390  0.8338 -0.0049
  341MOL0     C45907   6.183   7.432   7.268  0.0642 -0.3749  0.7265
  341MOL0     O45908   6.100   7.341   7.324  0.4544  0.1796 -0.1048
  341MOL0     C45909   5.965   7.380   7.314 -0.2654 -0.1667 -0.1921
  341MOL0     C45910   5.903   7.375   7.176 -0.1483  0.3150  0.3037
  341MOL0     C45911   5.750   7.381   7.176 -1.6173  0.1312 -0.7925
  341MOL0     C45912   5.684   7.499   7.233 -0.1234  0.3130  0.1094
  341MOL0     C45913   5.531   7.492   7.210 -0.7875 -0.6814 -0.2835
  341MOL0     C45914   5.486   7.508   7.067  0.2542 -0.8590  0.3098
  341MOL0     C45915   5.337   7.541   7.055  0.9926  0.6134 -0.0591
  341MOL0     C45916   5.269   7.527   6.916 -0.2048  0.1666  0.0543
  341MOL0     N45917   5.357   7.578   6.814  0.4023  0.0491  0.0457
  341MOL0     C45918   5.399   7.704   6.802  0.0873  0.1134 -0.6842
  341MOL0     C45919   5.498   7.695   6.718 -0.3107  0.5170 -0.4733
  341MOL0     C45920   5.603   7.791   6.674  0.1682 -0.1058 -1.0547
  341MOL0     C45921   5.699   7.826   6.790  0.0734 -0.1689 -0.9812
  341MOL0     C45922   5.800   7.730   6.839 -0.1753 -0.4941  0.2201
  341MOL0     C45923   5.894   7.783   6.953  0.5827  0.1460 -0.7609
  341MOL0     O45924   5.813   7.849   7.060 -0.0423  0.0612 -0.3004
  341MOL0     C45925   5.869   7.848   7.191 -0.1432 -0.1281 -0.6049
  341MOL0     C45926   6.008   7.821   7.214 -0.3005  0.5467  0.1277
  341MOL0     C45927   6.054   7.817   7.346 -0.3025  0.6210  0.6370
  341MOL0     C45928   5.971   7.825   7.454  0.4306  0.8161 -0.1604
  341MOL0     C45929   6.026   7.806   7.593 -0.4056  0.5830  0.6206
  341MOL0     O45930   6.161   7.796   7.610 -0.2124 -0.8009  0.5901
  341MOL0     C45931   6.204   7.810   7.739 -0.4105  0.3339 -0.6647
  341MOL0     C45932   6.163   7.914   7.823 -0.1895  1.0223  0.5519
  341MOL0     C45933   6.201   7.920   7.957 -0.8404  0.1032  0.0039
  341MOL0     C45934   6.304   7.832   8.005  1.2726 -0.5656  0.3632
  341MOL0     O45935   6.350   7.849   8.134 -0.0915 -0.3354 -0.2036
  341MOL0     C45936   6.410   7.741   8.210  0.1636  0.8736  0.4427
  341MOL0     C45937   6.560   7.747   8.182 -1.3450 -0.3136 -0.2806
  341MOL0     C45938   6.626   7.888   8.199  0.4581  0.1175  0.3556
  341MOL0     C45939   6.628   7.953   8.342  0.4146 -0.9904  0.5275
  341MOL0     C45940   6.652   8.104   8.343  0.1034  0.4741  0.2889
  341MOL0     C45941   6.797   8.134   8.299  0.2836  0.3269  0.8685
  341MOL0     C45942   6.824   8.281   8.249 -1.2125 -0.6101 -0.4833
  341MOL0     C45943   6.834   8.385   8.372 -0.1377  0.4757 -0.2064
  341MOL0    Cl45944   6.975   8.333   8.467 -0.4998  0.2068  0.0940
  341MOL0     C45945   6.357   7.736   7.921  0.2262 -0.2517  0.6305
  341MOL0     C45946   6.315   7.735   7.783 -0.8183  0.6106 -0.2337
  341MOL0     O45947   5.945   7.795   7.684 -0.1936 -0.8218 -0.1843
  341MOL0     C45948   5.833   7.852   7.423  0.4014  0.6124  0.6446
  341MOL0     C45949   5.781   7.869   7.297  0.0003 -0.3184  0.0133
  341MOL0     N45950   5.514   7.559   6.681 -0.8259 -0.6219  0.0932
  341MOL0     N45951   5.427   7.487   6.738  0.2224 -0.5189 -0.7991
  341MOL0     C45952   6.247   7.520   7.357 -0.6150 -0.2173  0.2535
  341MOL0     C45953   6.340   7.619   7.310  0.7955 -0.1659 -0.2867
  341MOL0     C45954   6.524   7.878   6.982  0.2734 -0.0194 -0.7833
  341MOL0     C45955   6.497   8.006   6.940  0.2704  0.0656 -0.3902
  341MOL0     C45956   6.593   8.079   6.863  0.2329  0.0334  0.3536
  341MOL0     C45957   6.725   8.031   6.852  0.3658  0.4937  0.7203
  341MOL0     O45958   6.827   8.107   6.788  0.0690  0.0670  0.1929
  341MOL0     C45959   6.785   8.188   6.678  0.8205 -0.4920  0.0241
  341MOL0     C45960   6.724   8.114   6.557  0.0926  0.3463 -0.5129
  341MOL0     C45961   6.703   8.195   6.431  0.1358 -0.4428 -0.1509
  341MOL0     C45962   6.546   8.232   6.408 -0.4394  0.0975  0.0111
  341MOL0     C45963   6.491   8.304   6.519  0.2044  0.1715  0.6194
  341MOL0     C45964   6.438   8.362   6.611 -0.0480  0.1509  0.4936
  341MOL0     C45965   6.751   7.908   6.905 -0.0841 -0.4069 -0.3530
  341MOL0     C45966   6.654   7.824   6.960  0.8304  0.2510 -0.0199
  341MOL0     C45967   6.692   7.683   6.978 -0.5071 -0.4258  1.5772
  341MOL0     H45968   6.293   7.554   6.976 -1.0697  0.4496  0.2141
  341MOL0     H45969   6.146   7.387   7.063  1.2399 -0.2145  0.1847
  341MOL0     H45970   5.908   7.320   7.385  1.2919 -0.4158  0.9225
  341MOL0     H45971   5.954   7.480   7.359 -0.0912 -0.9249  1.6235
  341MOL0     H45972   5.931   7.279   7.130  0.3479  0.1463  0.9394
  341MOL0     H45973   5.936   7.462   7.119  1.8410  0.4954  1.6459
  341MOL0     H45974   5.718   7.288   7.225  1.7943 -2.1421 -2.4413
  341MOL0     H45975   5.703   7.363   7.079 -1.4729  0.2933 -0.8934
  341MOL0     H45976   5.702   7.505   7.341 -2.2792  0.1441  0.5269
  341MOL0     H45977   5.736   7.591   7.205 -0.5081  0.8527  1.1067
  341MOL0     H45978   5.485   7.398   7.241 -1.1086  0.0154  1.4501
  341MOL0     H45979   5.490   7.573   7.271  2.0217  1.4337 -1.0177
  341MOL0     H45980   5.543   7.586   7.015 -0.5501 -1.8966 -2.2982
  341MOL0     H45981   5.508   7.412   7.020  2.3002 -0.9426  1.3211
  341MOL0     H45982   5.331   7.647   7.080 -2.7247  0.6945 -0.6712
  341MOL0     H45983   5.269   7.487   7.122  1.0101  1.1282  0.3735
  341MOL0     H45984   5.247   7.425   6.886 -1.7357  0.3321  0.5259
  341MOL0     H45985   5.170   7.573   6.912 -0.6331 -0.8351 -2.6989
  341MOL0     H45986   5.371   7.801   6.843  3.1219  0.3049  1.3100
  341MOL0     H45987   5.660   7.742   6.594  0.6307 -2.6949  0.7273
  341MOL0     H45988   5.559   7.880   6.629  0.1526  1.0830  1.1449
  341MOL0     H45989   5.763   7.902   6.745 -1.6455  0.9087 -1.6950
  341MOL0     H45990   5.637   7.858   6.874  2.0216 -1.3303  1.0135
  341MOL0     H45991   5.860   7.696   6.754 -0.4558  0.4262 -0.3590
  341MOL0     H45992   5.747   7.642   6.877  2.5946 -2.6553 -0.6329
  341MOL0     H45993   5.965   7.857   6.915 -0.6239  2.6248  1.4377
  341MOL0     H45994   5.943   7.695   6.994 -1.2051  0.1024  1.5083
  341MOL0     H45995   6.088   7.813   7.141  0.1636  1.7685  0.4657
  341MOL0     H45996   6.158   7.791   7.360 -0.2914  0.1101 -0.2705
  341MOL0     H45997   6.087   7.983   7.786 -2.5483 -2.6777 -2.1872
  341MOL0     H45998   6.172   7.998   8.027 -0.3357 -1.7393  2.3999
  341MOL0     H45999   6.387   7.757   8.316 -0.7764  1.1997  0.1978
  341MOL0     H46000   6.362   7.648   8.178  1.6317  0.5332 -0.8811
  341MOL0     H46001   6.617   7.683   8.250  1.3325 -1.4210 -3.2594
  341MOL0     H46002   6.586   7.701   8.086  0.2697 -0.8304  0.3606
  341MOL0     H46003   6.731   7.882   8.170 -0.1008 -1.3640 -1.5855
  341MOL0     H46004   6.570   7.953   8.131  0.9037 -0.7341 -0.8500
  341MOL0     H46005   6.696   7.893   8.402  1.0331  0.3652  1.2315
  341MOL0     H46006   6.525   7.943   8.378  0.0392  1.7938  0.4250
  341MOL0     H46007   6.630   8.157   8.437  0.0380 -0.7464  0.9878
  341MOL0     H46008   6.589   8.145   8.264  0.8448  2.7688  0.8090
  341MOL0     H46009   6.862   8.103   8.380  1.2175 -2.3797 -0.7922
  341MOL0     H46010   6.821   8.076   8.209  3.7853  2.6323  0.0883
  341MOL0     H46011   6.742   8.313   8.183 -1.6343 -1.2932 -0.3060
  341MOL0     H46012   6.915   8.287   8.190  1.7238 -1.2429  3.5828
  341MOL0     H46013   6.863   8.487   8.345 -0.3800  0.1404 -1.8334
  341MOL0     H46014   6.746   8.393   8.437 -2.4236 -0.5922 -2.9741
  341MOL0     H46015   6.428   7.659   7.949 -0.6997 -2.1930 -1.8932
  341MOL0     H46016   6.348   7.654   7.718 -1.4012  0.4846 -0.3744
  341MOL0     H46017   5.755   7.853   7.499 -1.2493 -1.6386 -0.8680
  341MOL0     H46018   5.676   7.890   7.280  0.2091  0.8691  0.0982
  341MOL0     H46019   6.236   7.506   7.464 -3.5894  0.9160  0.1928
  341MOL0     H46020   6.395   7.686   7.375  1.8984 -0.1418 -1.2097
  341MOL0     H46021   6.395   8.040   6.950 -1.1960 -4.1534  0.6773
  341MOL0     H46022   6.571   8.168   6.805  2.4806  1.5668  1.7266
  341MOL0     H46023   6.882   8.231   6.652 -0.2735  1.7112 -0.6509
  341MOL0     H46024   6.725   8.272   6.714  4.8214  2.2379  1.0293
  341MOL0     H46025   6.641   8.047   6.577  0.6225 -0.5458 -1.2052
  341MOL0     H46026   6.804   8.041   6.541 -0.3446 -1.0278  2.7949
  341MOL0     H46027   6.756   8.145   6.349 -1.3081 -0.3342 -1.1874
  341MOL0     H46028   6.758   8.289   6.441  0.1525 -0.4731  0.0362
  341MOL0     H46029   6.537   8.295   6.319  0.0838  1.2124  0.7218
  341MOL0     H46030   6.479   8.152   6.376 -2.1173  0.2359  2.8602
  341MOL0     H46031   6.402   8.438   6.677  0.4591  0.8827 -0.0602
  341MOL0     H46032   6.850   7.868   6.889  0.1935 -0.0827  0.5168
  341MOL0     H46033   6.789   7.662   6.932 -1.5592  0.6241 -1.3202
  341MOL0     H46034   6.696   7.641   7.079  1.1009 -1.9175  0.9685
  341MOL0     H46035   6.618   7.616   6.933  0.7018  0.6791 -2.5208
  342MOL0     O46036   7.127   5.036   4.621  0.9246  0.5322 -0.2202
  342MOL0     C46037   7.008   5.058   4.600 -0.0471  0.7385  0.7932
  342MOL0     O46038   6.958   5.120   4.495  0.3356 -0.8686  0.5707
  342MOL0     C46039   7.042   5.191   4.415 -1.0542  0.0984  0.0797
  342MOL0     C46040   7.146   5.131   4.346  0.2334  0.3900  0.0755
  342MOL0     C46041   7.244   5.206   4.281  0.9452 -0.5916  0.1291
  342MOL0     C46042   7.239   5.349   4.302 -0.7847  1.2587 -0.6041
  342MOL0     O46043   7.334   5.428   4.251 -0.1195  0.1351 -0.3238
  342MOL0     C46044   7.301   5.548   4.170  0.3102  0.3845  0.1463
  342MOL0     C46045   7.422   5.567   4.087  0.4743 -0.6536 -0.5631
  342MOL0     C46046   7.414   5.499   3.941 -0.9895  0.1545 -0.2171
  342MOL0     C46047   7.379   5.348   3.942 -0.0925  0.3268 -1.1261
  342MOL0     C46048   7.335   5.305   3.804 -0.0610  0.2451 -0.3706
  342MOL0     C46049   7.442   5.312   3.695 -0.6898 -0.0254  0.7273
  342MOL0     C46050   7.391   5.252   3.567  0.1827  0.3417 -0.1575
  342MOL0     C46051   7.504   5.239   3.467 -0.0967  0.4180 -0.5817
  342MOL0     N46052   7.469   5.197   3.330  0.3802  1.1876  0.4873
  342MOL0     C46053   7.347   5.171   3.277 -0.1371  0.2784  0.0486
  342MOL0     C46054   7.358   5.139   3.147 -0.1577 -0.9907  0.0795
  342MOL0     C46055   7.246   5.129   3.051 -0.6837  0.6987 -0.3631
  342MOL0     C46056   7.141   5.030   3.098  0.6754  0.1654 -0.4340
  342MOL0     C46057   7.040   4.984   2.992  1.5696 -0.2979  0.9875
  342MOL0     C46058   7.000   5.092   2.892  0.0235  0.4197 -0.0381
  342MOL0     O46059   6.902   5.054   2.794  0.4689  0.6060 -0.2268
  342MOL0     C46060   6.771   5.057   2.833  0.3028 -0.2762  0.1998
  342MOL0     C46061   6.674   5.015   2.745  0.1842  0.4918  0.4389
  342MOL0     C46062   6.541   5.007   2.767  0.2065 -0.7966  0.5097
  342MOL0     C46063   6.489   5.068   2.885 -0.2532  0.7691 -0.2532
  342MOL0     C46064   6.342   5.069   2.904  0.2044 -0.3331  0.8487
  342MOL0     O46065   6.261   4.978   2.845 -0.1089 -0.4944 -0.0571
  342MOL0     C46066   6.131   4.980   2.888  0.2698 -0.2638  0.6285
  342MOL0     C46067   6.104   4.939   3.020 -0.4330  0.2117 -0.2328
  342MOL0     C46068   5.972   4.936   3.065  0.0572 -0.3092  0.6828
  342MOL0     C46069   5.860   4.972   2.982 -0.1636 -0.0872  0.3928
  342MOL0     O46070   5.730   4.956   3.023  0.2900 -0.2438  0.2429
  342MOL0     C46071   5.619   4.979   2.937  0.1574  0.0256  0.2759
  342MOL0     C46072   5.481   4.973   3.005  0.7884  0.5467 -0.1004
  342MOL0     C46073   5.372   5.010   2.896  0.8080 -0.3881  0.3841
  342MOL0     C46074   5.244   5.064   2.965  0.0263  0.0654 -0.7084
  342MOL0     C46075   5.182   4.957   3.057 -0.3219  0.1290  0.7262
  342MOL0     C46076   5.054   5.004   3.126  0.2938 -0.5592  0.8641
  342MOL0     C46077   5.028   4.931   3.257  0.3371 -0.0013  0.7100
  342MOL0     C46078   4.892   4.983   3.316 -0.1049 -0.0607 -0.2309
  342MOL0    Cl46079   4.773   4.962   3.187  0.1325  0.0992 -0.1751
  342MOL0     C46080   5.890   5.017   2.852  0.2249 -0.2224 -0.3363
  342MOL0     C46081   6.024   5.011   2.796  0.3495  0.2458 -0.2535
  342MOL0     O46082   6.307   5.166   2.978  0.2296 -0.0382  0.4757
  342MOL0     C46083   6.584   5.112   2.990  0.1857 -0.7007  0.0542
  342MOL0     C46084   6.721   5.107   2.961 -0.5364 -1.0166 -0.2167
  342MOL0     N46085   7.497   5.154   3.122  0.3767  0.2856  0.4305
  342MOL0     N46086   7.562   5.194   3.235 -0.5923  0.2866 -0.3622
  342MOL0     C46087   7.132   5.408   4.364  0.0795 -0.5063 -0.1957
  342MOL0     C46088   7.034   5.332   4.426  0.0584  0.5938  0.5663
  342MOL0     C46089   6.907   4.974   4.675  1.0957 -0.0233 -0.2148
  342MOL0     C46090   6.782   4.954   4.621 -0.3363  0.9508  1.2836
  342MOL0     C46091   6.691   4.867   4.676 -0.4873  0.5772  0.2407
  342MOL0     C46092   6.713   4.809   4.799  0.6500 -1.4354 -0.9181
  342MOL0     O46093   6.608   4.740   4.859 -0.2943  0.2560  0.2387
  342MOL0     C46094   6.646   4.658   4.970  0.9893 -0.2924  0.7041
  342MOL0     C46095   6.701   4.522   4.933 -0.4286 -0.7901  0.7641
  342MOL0     C46096   6.725   4.421   5.043  0.6169 -0.5685  0.3319
  342MOL0     C46097   6.805   4.455   5.154 -1.7072 -0.4953  0.5345
  342MOL0     C46098   6.947   4.468   5.132 -0.6312  0.3473 -0.2003
  342MOL0     C46099   7.062   4.487   5.092 -0.4218  0.0192 -0.3299
  342MOL0     C46100   6.842   4.829   4.869  0.0501 -0.1249  0.2571
  342MOL0     C46101   6.923   4.924   4.809  0.2179 -0.3951  0.1078
  342MOL0     C46102   7.032   4.991   4.898  0.0615 -0.7212  0.0485
  342MOL0     H46103   7.156   5.023   4.337 -1.1344  0.1394  1.1573
  342MOL0     H46104   7.321   5.157   4.222  1.4889 -1.7937  1.7523
  342MOL0     H46105   7.218   5.530   4.102  0.6747  2.5844 -0.9676
  342MOL0     H46106   7.285   5.637   4.231  1.5318 -0.4043  1.7115
  342MOL0     H46107   7.510   5.544   4.148  1.3348  0.9484 -1.1344
  342MOL0     H46108   7.435   5.673   4.061 -2.5720 -0.1693 -0.4343
  342MOL0     H46109   7.518   5.516   3.908 -1.0341  2.5039  0.6386
  342MOL0     H46110   7.341   5.554   3.881 -2.3017 -0.9308  0.3537
  342MOL0     H46111   7.458   5.287   3.985 -1.3063  1.2138  2.6857
  342MOL0     H46112   7.292   5.332   4.007  0.4440 -2.3084 -0.9655
  342MOL0     H46113   7.297   5.202   3.806 -0.8708  0.5398  0.0417
  342MOL0     H46114   7.242   5.358   3.781 -0.3231 -0.2270 -0.4202
  342MOL0     H46115   7.470   5.416   3.677 -2.8848  0.6776  1.0806
  342MOL0     H46116   7.530   5.258   3.730 -0.7937  0.0094  1.0464
  342MOL0     H46117   7.313   5.311   3.518 -2.0722 -2.7044 -0.4753
  342MOL0     H46118   7.356   5.150   3.582  2.7004 -0.5454  0.2950
  342MOL0     H46119   7.548   5.339   3.455 -0.0619  0.4349 -0.3166
  342MOL0     H46120   7.580   5.183   3.524  1.4186  3.9831  1.2505
  342MOL0     H46121   7.246   5.182   3.315 -1.4531 -1.2073 -2.7279
  342MOL0     H46122   7.210   5.231   3.038  3.1430  2.1895 -0.3293
  342MOL0     H46123   7.289   5.091   2.958  0.2414  2.2823 -0.6114
  342MOL0     H46124   7.189   4.945   3.146 -1.3290  0.3367  2.0759
  342MOL0     H46125   7.083   5.071   3.181  0.6680 -0.2889 -0.2154
  342MOL0     H46126   6.943   4.952   3.030  1.3157 -0.0575  0.5542
  342MOL0     H46127   7.084   4.900   2.937  0.7275 -0.9042  1.2332
  342MOL0     H46128   7.089   5.105   2.830 -0.9647 -1.0995 -1.8696
  342MOL0     H46129   6.962   5.183   2.940 -1.6977 -0.1367 -0.2744
  342MOL0     H46130   6.714   4.978   2.651  3.0517  2.2044  0.8546
  342MOL0     H46131   6.468   4.966   2.698 -0.5787  0.4663  0.5388
  342MOL0     H46132   6.182   4.926   3.094 -0.1348 -0.5797 -0.6719
  342MOL0     H46133   5.949   4.894   3.162  0.8993  0.9304  1.4433
  342MOL0     H46134   5.621   5.080   2.895 -0.4747 -0.8390 -1.9492
  342MOL0     H46135   5.622   4.903   2.858  2.7084 -0.8305  1.0868
  342MOL0     H46136   5.447   4.875   3.040 -1.2602  0.6647 -1.5882
  342MOL0     H46137   5.461   5.030   3.096 -2.7700 -1.9178  0.8648
  342MOL0     H46138   5.422   5.080   2.830  1.7095 -2.1378 -0.8544
  342MOL0     H46139   5.340   4.922   2.839  2.6109  0.1964 -1.6016
  342MOL0     H46140   5.168   5.099   2.895 -1.2166  1.2414  1.1451
  342MOL0     H46141   5.271   5.144   3.034  5.1519 -0.3560 -1.8554
  342MOL0     H46142   5.255   4.922   3.131  1.1344 -0.5430 -0.9404
  342MOL0     H46143   5.145   4.867   3.006 -3.1450  0.4486  2.0499
  342MOL0     H46144   5.083   5.108   3.148  2.0559 -0.4755 -1.3994
  342MOL0     H46145   4.985   4.997   3.042  0.8310 -0.1692  0.3802
  342MOL0     H46146   5.113   4.946   3.324 -0.2517 -1.3234  1.7935
  342MOL0     H46147   5.025   4.827   3.223 -0.3824  0.4888 -0.8164
  342MOL0     H46148   4.872   4.925   3.406 -0.4995 -1.4380 -1.1704
  342MOL0     H46149   4.904   5.086   3.349 -0.2802  1.2655 -3.8267
  342MOL0     H46150   5.802   5.042   2.794 -2.5011  0.5649  3.7703
  342MOL0     H46151   6.051   5.014   2.691  3.1902 -1.9348  0.3025
  342MOL0     H46152   6.552   5.138   3.091 -1.8506 -0.8109 -0.5152
  342MOL0     H46153   6.791   5.142   3.036 -1.1089  0.3984 -0.3164
  342MOL0     H46154   7.127   5.516   4.369  0.3859 -0.5442  1.8307
  342MOL0     H46155   6.948   5.381   4.469 -0.1920 -0.5948  1.4677
  342MOL0     H46156   6.746   4.995   4.527  0.2037  0.7783  0.9982
  342MOL0     H46157   6.598   4.842   4.624 -0.1310 -1.0683  0.3478
  342MOL0     H46158   6.557   4.630   5.027 -0.3540 -0.8651 -1.5388
  342MOL0     H46159   6.713   4.709   5.040 -0.1221 -0.1444  1.6980
  342MOL0     H46160   6.793   4.542   4.877 -0.8690  0.3804  0.4251
  342MOL0     H46161   6.627   4.484   4.862  1.7690 -0.3507 -1.9358
  342MOL0     H46162   6.772   4.336   4.993 -1.2732 -0.1720 -2.3704
  342MOL0     H46163   6.631   4.382   5.085 -0.0159  0.9835  0.4262
  342MOL0     H46164   6.771   4.553   5.188  1.0171  1.7694 -2.6307
  342MOL0     H46165   6.796   4.384   5.236 -0.0493 -0.0720  1.1244
  342MOL0     H46166   7.165   4.503   5.066  0.1493 -1.1957  1.0538
  342MOL0     H46167   6.864   4.792   4.969  0.3904  0.6757  0.4892
  342MOL0     H46168   7.005   4.968   5.001 -0.8059  1.4284  0.3499
  342MOL0     H46169   7.124   4.937   4.870  0.0181 -1.0506  0.5299
  342MOL0     H46170   7.037   5.098   4.876 -3.5732 -0.6698 -1.1864
  343MOL0     O46171   0.146   3.051  10.449 -0.4508  0.3850 -0.1166
  343MOL0     C46172   0.146   3.152  10.523 -1.4284 -0.2007 -0.3998
  343MOL0     O46173   0.242   3.251  10.524 -0.6997  0.7894  0.6657
  343MOL0     C46174   0.328   3.263  10.412 -0.2789  0.2150 -0.5402
  343MOL0     C46175   0.288   3.277  10.283 -0.2709 -0.0627  0.0678
  343MOL0     C46176   0.381   3.290  10.176  0.1174 -0.2486 -0.5058
  343MOL0     C46177   0.521   3.287  10.204 -0.8109 -0.2701  0.1680
  343MOL0     O46178   0.617   3.316  10.106 -0.2053 -0.7256 -0.6798
  343MOL0     C46179   0.754   3.286  10.130  0.4838 -0.7706 -0.7118
  343MOL0     C46180   0.835   3.340  10.009 -0.2869  0.6246  0.1777
  343MOL0     C46181   0.987   3.301  10.017 -0.1143 -0.3645 -0.3182
  343MOL0     C46182   1.040   3.314   9.878  0.1754  0.4752 -0.0857
  343MOL0     C46183   1.188   3.325   9.879 -0.8074  0.0126  0.2486
  343MOL0     C46184   1.250   3.470   9.897  0.5792 -0.1655 -0.1718
  343MOL0     C46185   1.393   3.483   9.828 -0.3687  0.1244 -0.0738
  343MOL0     C46186   1.468   3.622   9.857  0.1346 -0.2372 -0.3465
  343MOL0     N46187   1.514   3.642   9.998  0.2893 -0.4147  0.2192
  343MOL0     C46188   1.551   3.559  10.101  0.1231  0.2838  1.0458
  343MOL0     C46189   1.587   3.648  10.200  0.2527 -0.2723 -0.0857
  343MOL0     C46190   1.626   3.610  10.348 -0.0403 -0.2421 -0.0640
  343MOL0     C46191   1.494   3.579  10.424 -0.4301  0.8010  0.8616
  343MOL0     C46192   1.447   3.720  10.487 -0.5611  0.1672 -0.3382
  343MOL0     C46193   1.294   3.727  10.505 -0.1717  0.1516 -0.2663
  343MOL0     O46194   1.247   3.660  10.622  0.1160  0.9603  0.0193
  343MOL0     C46195   1.115   3.663  10.651  0.3011 -0.1220 -0.0452
  343MOL0     C46196   1.081   3.590  10.759 -0.0440  0.4086  0.2187
  343MOL0     C46197   0.959   3.583  10.810 -0.3059  0.2593 -0.6132
  343MOL0     C46198   0.857   3.669  10.768  0.5681 -0.1385  0.2043
  343MOL0     C46199   0.719   3.660  10.821  0.4556  0.6627  0.3445
  343MOL0     O46200   0.623   3.712  10.747 -0.0723 -0.6205  0.2930
  343MOL0     C46201   0.490   3.679  10.767 -0.5596 -0.4753  0.9309
  343MOL0     C46202   0.431   3.600  10.667  0.0397  0.4329  0.5302
  343MOL0     C46203   0.290   3.568  10.682  1.2629  0.2997 -1.4038
  343MOL0     C46204   0.209   3.624  10.786  0.4454 -0.5502 -0.2664
  343MOL0     O46205   0.077   3.598  10.797  0.7227 -0.1771  0.2330
  343MOL0     C46206   0.001   3.717  10.821  0.1600 -0.4056  0.7272
  343MOL0     C46207  -0.145   3.679  10.789 -0.1640 -0.5747  0.3885
  343MOL0     C46208  -0.238   3.799  10.773  0.6642 -0.0970  0.5116
  343MOL0     C46209  -0.378   3.761  10.723  0.0768  0.2973  0.5767
  343MOL0     C46210  -0.463   3.874  10.692 -0.4375  0.5580  0.9101
  343MOL0     C46211  -0.587   3.839  10.601 -0.1409  0.0143  0.2571
  343MOL0     C46212  -0.696   3.754  10.644 -0.5244  0.3848 -0.8611
  343MOL0     C46213  -0.800   3.759  10.534 -0.7590 -0.2564  0.1937
  343MOL0    Cl46214  -0.932   3.635  10.582  0.2010 -0.2161 -0.3584
  343MOL0     C46215   0.269   3.697  10.883 -0.2641 -0.7363  0.1160
  343MOL0     C46216   0.405   3.716  10.872 -0.3729 -0.2289 -0.1230
  343MOL0     O46217   0.702   3.580  10.918  0.4858 -0.1690 -0.0306
  343MOL0     C46218   0.888   3.751  10.650  0.4890 -0.1389 -0.2987
  343MOL0     C46219   1.019   3.748  10.594 -0.4809 -0.1075 -0.2175
  343MOL0     N46220   1.550   3.774  10.162  0.8508  0.0129 -0.0657
  343MOL0     N46221   1.509   3.771  10.044 -1.0137  0.0895  0.7387
  343MOL0     C46222   0.558   3.276  10.338  0.5703 -0.2883  0.3588
  343MOL0     C46223   0.469   3.268  10.443 -0.2522 -0.3675  0.4103
  343MOL0     C46224   0.034   3.162  10.619  0.7015 -0.3604  0.9074
  343MOL0     C46225   0.030   3.282  10.700 -0.1996 -0.1200  0.0780
  343MOL0     C46226  -0.074   3.300  10.792  0.1299  0.1520 -0.4842
  343MOL0     C46227  -0.182   3.210  10.806 -0.5995 -0.5205 -0.0416
  343MOL0     O46228  -0.293   3.229  10.887 -0.2203 -0.6153 -0.3860
  343MOL0     C46229  -0.395   3.137  10.902  0.5909 -0.1028  0.3141
  343MOL0     C46230  -0.500   3.180  11.010 -1.0045  0.1387 -0.0334
  343MOL0     C46231  -0.617   3.088  10.989  1.1389  0.7296  0.2299
  343MOL0     C46232  -0.749   3.136  11.062  0.2652 -0.0708  0.1564
  343MOL0     C46233  -0.859   3.090  10.975  0.1263 -0.3967  0.3212
  343MOL0     C46234  -0.932   3.040  10.887 -0.0048 -0.9525 -0.1252
  343MOL0     C46235  -0.178   3.109  10.709  0.1793 -0.4631 -0.2522
  343MOL0     C46236  -0.080   3.085  10.613  1.1433  0.0100  0.3605
  343MOL0     C46237  -0.117   2.978  10.504  0.0413 -0.0394 -0.1870
  343MOL0     H46238   0.184   3.292  10.253  0.4899  3.1643 -1.3862
  343MOL0     H46239   0.338   3.294  10.076 -0.9611  1.9252 -0.0219
  343MOL0     H46240   0.788   3.350  10.213  2.2171 -0.4333 -1.6349
  343MOL0     H46241   0.760   3.182  10.161 -2.1414  0.0449  3.1844
  343MOL0     H46242   0.816   3.447   9.996 -1.6459  0.3611 -0.1388
  343MOL0     H46243   0.792   3.290   9.921  1.6018 -2.0059  0.6256
  343MOL0     H46244   1.012   3.198  10.042  0.1328 -0.0907  0.6083
  343MOL0     H46245   1.029   3.375  10.086  3.3357 -2.3839 -0.0169
  343MOL0     H46246   1.000   3.228   9.823 -2.0403 -0.0762  2.2083
  343MOL0     H46247   1.002   3.400   9.823 -1.6431  0.5077  1.1308
  343MOL0     H46248   1.228   3.252   9.950  0.3447  0.9096  0.5495
  343MOL0     H46249   1.223   3.287   9.782  3.1766  0.3088  1.3889
  343MOL0     H46250   1.180   3.536   9.846  1.7937  0.6796 -0.8057
  343MOL0     H46251   1.250   3.499  10.002 -3.8507 -0.9667  0.2195
  343MOL0     H46252   1.385   3.468   9.720 -0.3195  2.5047 -0.4514
  343MOL0     H46253   1.451   3.395   9.857 -1.7593 -0.0677  2.4341
  343MOL0     H46254   1.566   3.636   9.810  1.7494 -0.2406  2.7584
  343MOL0     H46255   1.403   3.705   9.832  1.6091  0.5184 -1.8766
  343MOL0     H46256   1.548   3.452  10.112 -2.8003  0.5463  4.6059
  343MOL0     H46257   1.690   3.521  10.349 -1.1107 -1.0981  2.7539
  343MOL0     H46258   1.676   3.692  10.400 -2.1626  0.8851  0.3439
  343MOL0     H46259   1.417   3.539  10.358  0.9574  0.9585 -0.9260
  343MOL0     H46260   1.510   3.504  10.502 -2.5493 -0.5780  0.0558
  343MOL0     H46261   1.467   3.798  10.413 -1.4576 -0.6188 -1.4407
  343MOL0     H46262   1.506   3.741  10.577 -0.2318 -0.8967 -0.2935
  343MOL0     H46263   1.239   3.688  10.419 -1.0019  0.0817  0.2936
  343MOL0     H46264   1.263   3.832  10.508  2.0629  0.8635 -0.0742
  343MOL0     H46265   1.144   3.513  10.801 -2.2663 -2.0160 -0.6426
  343MOL0     H46266   0.932   3.507  10.882  2.3256  0.8650  1.1291
  343MOL0     H46267   0.492   3.560  10.587 -0.0388 -1.6101  1.4158
  343MOL0     H46268   0.255   3.488  10.618 -0.1869 -3.1191  3.1354
  343MOL0     H46269   0.006   3.750  10.926 -0.2672  1.0866  0.3083
  343MOL0     H46270   0.011   3.796  10.746 -1.0222 -2.1535 -1.4035
  343MOL0     H46271  -0.143   3.617  10.698  3.2244 -0.0788 -0.0124
  343MOL0     H46272  -0.188   3.615  10.867 -2.3773 -3.6733 -3.0033
  343MOL0     H46273  -0.257   3.850  10.868 -2.9721 -0.7658  0.2676
  343MOL0     H46274  -0.187   3.867  10.704  1.4121 -2.2022 -1.1158
  343MOL0     H46275  -0.432   3.699  10.795  0.9763 -0.3538  0.7059
  343MOL0     H46276  -0.369   3.690  10.640 -0.5993 -2.2185  2.5272
  343MOL0     H46277  -0.407   3.952  10.639  1.1791 -1.3255 -0.2988
  343MOL0     H46278  -0.499   3.910  10.789  1.7380 -1.3357  2.5165
  343MOL0     H46279  -0.623   3.939  10.573  1.5822 -0.5252 -4.9889
  343MOL0     H46280  -0.544   3.794  10.511  0.9181 -1.0210  1.2320
  343MOL0     H46281  -0.734   3.797  10.737 -1.2248  3.1830 -2.3109
  343MOL0     H46282  -0.658   3.653  10.661  1.4781  1.2052 -0.3128
  343MOL0     H46283  -0.847   3.857  10.542  1.2167  0.5850  3.4923
  343MOL0     H46284  -0.755   3.743  10.435  1.9659 -0.1385  1.3213
  343MOL0     H46285   0.210   3.730  10.968 -0.3036 -2.2094  0.6911
  343MOL0     H46286   0.445   3.770  10.956 -0.3418  0.9297 -0.8579
  343MOL0     H46287   0.821   3.823  10.603  0.9766  0.4332 -0.1248
  343MOL0     H46288   1.039   3.808  10.506 -0.2039 -0.9633 -0.7524
  343MOL0     H46289   0.664   3.264  10.358  0.7422 -1.2900 -1.0437
  343MOL0     H46290   0.516   3.237  10.535  2.8212  1.3630 -0.4122
  343MOL0     H46291   0.114   3.351  10.711  2.9461 -3.4923 -0.6777
  343MOL0     H46292  -0.075   3.392  10.850  2.0817 -1.6564  2.6305
  343MOL0     H46293  -0.346   3.040  10.916  0.3822  0.0465  2.3937
  343MOL0     H46294  -0.450   3.132  10.808 -0.7312  1.1157  0.9751
  343MOL0     H46295  -0.518   3.286  10.989  2.5522  0.5572 -1.8808
  343MOL0     H46296  -0.468   3.166  11.113 -0.9887 -0.1941 -0.0819
  343MOL0     H46297  -0.586   2.987  11.017  4.3218  0.9329 -1.9874
  343MOL0     H46298  -0.649   3.089  10.885  0.8374  2.0611  0.3143
  343MOL0     H46299  -0.749   3.080  11.156 -1.4175 -0.3223  0.0437
  343MOL0     H46300  -0.750   3.244  11.081 -2.9067 -0.0047  0.1204
  343MOL0     H46301  -0.985   2.998  10.804  0.0621  1.0694 -1.2509
  343MOL0     H46302  -0.257   3.036  10.714  1.0978 -1.4954 -0.5126
  343MOL0     H46303  -0.217   2.937  10.523 -0.0321  0.0242 -0.4305
  343MOL0     H46304  -0.121   3.024  10.405  2.9259  0.0402 -0.3497
  343MOL0     H46305  -0.038   2.903  10.499  1.7460  1.4540  2.2330
  344MOL0     O46306   5.047   5.081   8.819 -0.5800  0.3807 -0.4640
  344MOL0     C46307   5.006   5.179   8.872  0.7954 -0.7236 -0.2536
  344MOL0     O46308   5.088   5.274   8.926 -0.8506 -0.1545 -0.2003
  344MOL0     C46309   5.227   5.260   8.910 -0.0268 -1.4119 -0.7522
  344MOL0     C46310   5.290   5.268   8.785  0.5103  0.1025  0.2990
  344MOL0     C46311   5.427   5.262   8.768 -1.0504  0.6108  0.2121
  344MOL0     C46312   5.505   5.231   8.885 -0.6140  0.0153  0.5051
  344MOL0     O46313   5.640   5.220   8.881 -1.0019 -0.1336 -0.0006
  344MOL0     C46314   5.700   5.165   8.770  0.0460 -0.1426 -0.2841
  344MOL0     C46315   5.843   5.137   8.814 -0.6217  0.2944 -0.0021
  344MOL0     C46316   5.924   5.262   8.807 -0.7742  0.1609  0.0179
  344MOL0     C46317   6.040   5.286   8.909  0.3614 -0.4008  0.5276
  344MOL0     C46318   6.002   5.299   9.062  0.4355 -0.9004  0.7482
  344MOL0     C46319   6.114   5.363   9.144 -0.5135 -0.4426 -0.5045
  344MOL0     C46320   6.080   5.370   9.298  0.3258 -0.0700 -0.1810
  344MOL0     C46321   6.196   5.410   9.393 -0.2591 -0.1023 -0.0794
  344MOL0     N46322   6.244   5.547   9.389  1.1242 -0.3060  0.3752
  344MOL0     C46323   6.367   5.588   9.424  0.0044  1.0492  0.4169
  344MOL0     C46324   6.370   5.716   9.367  0.3893  0.4303 -0.8949
  344MOL0     C46325   6.496   5.790   9.373  0.0040 -0.0036  0.3871
  344MOL0     C46326   6.505   5.887   9.252  0.5107  0.3743 -0.4280
  344MOL0     C46327   6.646   5.924   9.219 -0.3338  0.8818 -0.1128
  344MOL0     C46328   6.717   6.006   9.326  0.4070 -0.3854  0.5437
  344MOL0     O46329   6.843   6.063   9.282 -0.0600  0.3405  0.4188
  344MOL0     C46330   6.844   6.193   9.238 -1.4172  0.5861  1.0354
  344MOL0     C46331   6.969   6.229   9.173  0.1654  0.0401 -0.8179
  344MOL0     C46332   7.004   6.355   9.142  0.3061 -0.2915  0.3643
  344MOL0     C46333   6.907   6.455   9.161  0.0617 -0.4140  0.4194
  344MOL0     C46334   6.941   6.598   9.134  0.6880  0.1869  1.0172
  344MOL0     O46335   7.072   6.630   9.108  0.4373 -1.0758 -0.5183
  344MOL0     C46336   7.098   6.753   9.067  0.3182  0.1273  0.7668
  344MOL0     C46337   7.040   6.804   8.946 -0.2865 -0.5441  0.5207
  344MOL0     C46338   7.063   6.931   8.900 -0.2695  0.6771  0.4877
  344MOL0     C46339   7.159   7.004   8.963 -0.2103 -1.2920  0.7438
  344MOL0     O46340   7.188   7.132   8.906  0.9598 -0.1948 -0.1510
  344MOL0     C46341   7.323   7.167   8.898  0.4309 -0.4435  0.8512
  344MOL0     C46342   7.316   7.295   8.817 -0.3214  0.1177 -0.4509
  344MOL0     C46343   7.451   7.340   8.777  0.3987 -0.0843 -0.7691
  344MOL0     C46344   7.447   7.474   8.696 -0.6326 -1.2765  0.1966
  344MOL0     C46345   7.588   7.508   8.655  0.3033 -0.3724  0.2084
  344MOL0     C46346   7.601   7.658   8.629  0.7861 -0.5199 -0.7274
  344MOL0     C46347   7.595   7.741   8.763 -0.0532 -0.2848 -0.2967
  344MOL0     C46348   7.583   7.891   8.724  0.0050 -0.0962  0.0515
  344MOL0    Cl46349   7.440   7.899   8.614  0.0038  0.3047  0.7543
  344MOL0     C46350   7.228   6.956   9.077 -1.0752 -0.5563  0.1910
  344MOL0     C46351   7.186   6.835   9.131  0.4828 -0.0219 -0.7971
  344MOL0     O46352   6.846   6.673   9.118 -0.0759  0.0469 -0.7459
  344MOL0     C46353   6.775   6.416   9.191  0.1013  0.1138 -0.3767
  344MOL0     C46354   6.746   6.286   9.226 -0.7006 -0.1551 -0.6830
  344MOL0     N46355   6.253   5.743   9.299 -0.1251 -0.7025  0.3819
  344MOL0     N46356   6.172   5.643   9.321 -0.5874 -0.4003  0.8676
  344MOL0     C46357   5.441   5.199   9.007 -0.6763 -0.1427 -0.0915
  344MOL0     C46358   5.303   5.217   9.022  0.5540  0.1668 -0.3002
  344MOL0     C46359   4.859   5.198   8.877 -0.0033  0.3559 -0.0267
  344MOL0     C46360   4.783   5.136   8.777  0.7100 -0.4340  1.1733
  344MOL0     C46361   4.640   5.149   8.768  0.5069  0.1981 -0.5982
  344MOL0     C46362   4.576   5.227   8.861  0.2268  0.2884 -1.2069
  344MOL0     O46363   4.438   5.253   8.852 -0.5933  0.1033  0.1863
  344MOL0     C46364   4.366   5.246   8.729 -0.2417 -0.0340 -1.0904
  344MOL0     C46365   4.413   5.361   8.645 -0.2337 -0.3917  0.6618
  344MOL0     C46366   4.356   5.343   8.494 -0.5007 -0.0408 -1.2805
  344MOL0     C46367   4.393   5.458   8.406  0.3485 -0.1225 -1.2328
  344MOL0     C46368   4.328   5.581   8.440 -0.0043 -0.7804  0.1733
  344MOL0     C46369   4.279   5.678   8.480  0.0728  0.3833 -0.4334
  344MOL0     C46370   4.648   5.279   8.964 -0.0030  0.0280 -0.1287
  344MOL0     C46371   4.790   5.276   8.973 -0.1443 -0.3189 -0.3038
  344MOL0     C46372   4.860   5.360   9.081  0.0489 -0.3066 -0.6152
  344MOL0     H46373   5.231   5.299   8.699  1.6097  1.9680  0.1459
  344MOL0     H46374   5.464   5.275   8.666 -0.5993 -1.4530  0.0726
  344MOL0     H46375   5.644   5.073   8.753  1.7176 -1.2371 -0.1363
  344MOL0     H46376   5.704   5.219   8.675  2.2090  1.9627  0.8943
  344MOL0     H46377   5.875   5.054   8.750 -0.5495 -0.0052  0.4141
  344MOL0     H46378   5.860   5.102   8.916 -0.6300 -2.4308 -0.8574
  344MOL0     H46379   5.869   5.356   8.810 -0.9228  0.1156 -0.9355
  344MOL0     H46380   5.970   5.271   8.708 -0.3017 -0.6527  0.1547
  344MOL0     H46381   6.133   5.230   8.896  1.0493  0.7405  0.4505
  344MOL0     H46382   6.077   5.385   8.881 -0.1308 -0.1043  0.9075
  344MOL0     H46383   5.919   5.371   9.061 -1.0107 -2.3803 -2.3299
  344MOL0     H46384   5.963   5.206   9.104  0.1599 -0.2088  2.0783
  344MOL0     H46385   6.198   5.292   9.136 -0.0108 -0.7674  4.6154
  344MOL0     H46386   6.144   5.460   9.104  0.4808 -1.1657 -1.6035
  344MOL0     H46387   6.044   5.270   9.323 -2.3373  0.6407 -0.8544
  344MOL0     H46388   5.989   5.430   9.299 -0.9603 -1.9510  1.0839
  344MOL0     H46389   6.156   5.399   9.495 -1.6871 -2.0853 -0.7901
  344MOL0     H46390   6.272   5.339   9.358 -3.2530 -2.9248 -1.4336
  344MOL0     H46391   6.441   5.525   9.473  0.1575  0.5163 -0.4876
  344MOL0     H46392   6.499   5.848   9.466 -0.0819  2.6691 -1.1658
  344MOL0     H46393   6.571   5.711   9.369  0.6047  0.5921 -3.2755
  344MOL0     H46394   6.476   5.825   9.166  2.0541 -2.8316  1.1922
  344MOL0     H46395   6.431   5.968   9.257  1.3046  1.0187  2.4859
  344MOL0     H46396   6.644   5.976   9.123 -1.2447 -1.1445 -1.2628
  344MOL0     H46397   6.703   5.831   9.213  1.3330  1.7839  1.0051
  344MOL0     H46398   6.728   5.926   9.400  1.2524 -1.0143 -0.2410
  344MOL0     H46399   6.648   6.086   9.354 -0.9531 -1.1299 -0.5886
  344MOL0     H46400   7.044   6.153   9.157  0.5510 -0.3579  2.1666
  344MOL0     H46401   7.099   6.377   9.093 -0.1766  1.1653  0.0448
  344MOL0     H46402   6.960   6.743   8.905 -0.4113  2.4637 -4.5809
  344MOL0     H46403   7.005   6.970   8.816 -0.7299  1.6801  1.2445
  344MOL0     H46404   7.367   7.198   8.993 -0.1328 -0.2743  1.0592
  344MOL0     H46405   7.381   7.092   8.844  0.0010 -1.3963  1.6663
  344MOL0     H46406   7.265   7.270   8.724  0.0594 -0.0035 -0.6295
  344MOL0     H46407   7.269   7.377   8.873  2.9787 -0.1504  3.1669
  344MOL0     H46408   7.520   7.343   8.863 -0.0231  1.0358 -0.4533
  344MOL0     H46409   7.488   7.261   8.711  1.1700 -1.8011  1.5570
  344MOL0     H46410   7.398   7.551   8.756  0.7493 -1.5210  1.7010
  344MOL0     H46411   7.388   7.486   8.604  1.0969 -0.4895 -0.8597
  344MOL0     H46412   7.618   7.458   8.562  2.3177  2.4267 -0.7739
  344MOL0     H46413   7.660   7.476   8.731  0.4527  2.7310  1.5037
  344MOL0     H46414   7.699   7.681   8.586  0.3007  1.0172 -1.0549
  344MOL0     H46415   7.520   7.683   8.560 -0.8145  2.5007  1.9386
  344MOL0     H46416   7.693   7.732   8.811 -1.3776  0.0228  2.6628
  344MOL0     H46417   7.516   7.717   8.834 -0.2381  2.9626  0.7651
  344MOL0     H46418   7.584   7.953   8.814  0.6069  0.2251 -0.1742
  344MOL0     H46419   7.670   7.927   8.668  0.5686  1.7343  1.9646
  344MOL0     H46420   7.311   7.007   9.124 -0.9626 -0.6932  0.1388
  344MOL0     H46421   7.242   6.803   9.218 -0.5975  1.7712  0.6417
  344MOL0     H46422   6.700   6.494   9.202 -2.3224 -1.7879 -2.3014
  344MOL0     H46423   6.642   6.270   9.253  0.3569 -1.6762  3.1029
  344MOL0     H46424   5.501   5.149   9.082  1.6740 -0.0177 -1.7747
  344MOL0     H46425   5.253   5.169   9.106  0.1018 -2.0492 -1.7396
  344MOL0     H46426   4.836   5.069   8.710 -1.5031  0.5223 -1.7486
  344MOL0     H46427   4.602   5.101   8.678  1.2991 -0.5001 -0.5754
  344MOL0     H46428   4.261   5.274   8.746  0.3142  1.0572  0.9391
  344MOL0     H46429   4.382   5.145   8.691  2.0199 -0.1105 -0.0900
  344MOL0     H46430   4.522   5.372   8.650 -0.3261  2.0904 -1.3507
  344MOL0     H46431   4.368   5.450   8.689 -0.0162  0.1384 -0.1774
  344MOL0     H46432   4.246   5.342   8.499 -0.4912  0.7720 -0.6297
  344MOL0     H46433   4.404   5.258   8.445  1.3655  1.5397 -2.3471
  344MOL0     H46434   4.499   5.476   8.427  0.2388 -0.1244 -0.6824
  344MOL0     H46435   4.371   5.445   8.299 -2.5306 -1.8409 -0.5072
  344MOL0     H46436   4.233   5.762   8.527 -1.7254 -1.3866  1.1591
  344MOL0     H46437   4.601   5.341   9.040 -0.2518  1.7847 -1.6279
  344MOL0     H46438   4.924   5.437   9.038 -0.6155 -0.5574 -2.1122
  344MOL0     H46439   4.778   5.418   9.124 -1.3249 -0.0254 -3.3800
  344MOL0     H46440   4.920   5.301   9.151 -1.2266  1.1720  1.8579
  345MOL0     O46441   1.336   3.330  10.209  0.0090  0.9815 -0.0965
  345MOL0     C46442   1.320   3.214  10.253  0.5118 -0.2430  0.0820
  345MOL0     O46443   1.422   3.122  10.274 -0.8770 -0.0829 -0.3001
  345MOL0     C46444   1.551   3.163  10.235  0.4076 -0.4319  0.5047
  345MOL0     C46445   1.601   3.154  10.105  0.1552  0.8096  0.2371
  345MOL0     C46446   1.732   3.182  10.073  0.9031  1.2539 -0.9894
  345MOL0     C46447   1.818   3.227  10.174  0.8416  0.8026 -0.1751
  345MOL0     O46448   1.951   3.233  10.136  0.5245  0.6039 -0.4143
  345MOL0     C46449   2.054   3.186  10.233  0.6659 -0.9847 -0.3539
  345MOL0     C46450   2.046   3.038  10.265 -0.6730 -0.5742  1.0066
  345MOL0     C46451   2.180   2.984  10.309  0.0519  0.2513 -0.1778
  345MOL0     C46452   2.165   2.838  10.368  0.3159 -0.1233 -0.6646
  345MOL0     C46453   2.293   2.768  10.397  0.1212 -0.8524 -1.0995
  345MOL0     C46454   2.378   2.749  10.267 -0.1400 -0.5772 -0.6585
  345MOL0     C46455   2.514   2.678  10.287  0.0352  0.0141  0.4210
  345MOL0     C46456   2.560   2.639  10.150  0.2814 -0.2377  0.1876
  345MOL0     N46457   2.665   2.548  10.166 -1.0422  1.0505  0.0804
  345MOL0     C46458   2.665   2.412  10.176 -0.0177  0.2827 -0.2914
  345MOL0     C46459   2.797   2.379  10.173 -0.9555  1.0823  0.0887
  345MOL0     C46460   2.842   2.238  10.191 -0.0544  0.7251 -0.4272
  345MOL0     C46461   2.989   2.233  10.226  0.6517 -0.1025  0.9736
  345MOL0     C46462   3.085   2.250  10.103  1.4550  0.1097  0.0760
  345MOL0     C46463   3.225   2.241  10.157 -0.0076 -0.0961  0.2448
  345MOL0     O46464   3.324   2.251  10.058 -0.2058 -0.2111 -0.1194
  345MOL0     C46465   3.450   2.210  10.098 -0.2238 -0.4864  0.3672
  345MOL0     C46466   3.492   2.076  10.076  0.8051 -0.9366 -0.0670
  345MOL0     C46467   3.616   2.029  10.123 -0.0404  0.2855  0.2022
  345MOL0     C46468   3.700   2.108  10.202 -0.8055  0.6097  0.3752
  345MOL0     C46469   3.823   2.048  10.257 -0.2270 -0.3973 -0.7555
  345MOL0     O46470   3.885   2.114  10.356  0.3207  0.5332 -0.7263
  345MOL0     C46471   3.976   2.052  10.436  0.3813 -0.5872  0.4967
  345MOL0     C46472   4.068   2.145  10.487  0.1057 -0.5237 -0.3257
  345MOL0     C46473   4.173   2.088  10.565  0.1398 -0.4150 -0.3191
  345MOL0     C46474   4.172   1.948  10.594 -0.3413  0.3666  0.5200
  345MOL0     O46475   4.251   1.896  10.697  0.5533  0.0386  0.2051
  345MOL0     C46476   4.208   1.899  10.839  0.1995  0.9868  1.3375
  345MOL0     C46477   4.084   1.981  10.857 -0.4750 -0.0812  0.9651
  345MOL0     C46478   4.029   1.979  11.003  0.0873 -0.5841 -0.4873
  345MOL0     C46479   3.889   2.018  11.019 -0.0993 -0.0985  0.5688
  345MOL0     C46480   3.822   1.982  11.156 -0.3776  0.7771 -0.0383
  345MOL0     C46481   3.914   1.974  11.276 -0.4749  0.4380 -0.1962
  345MOL0     C46482   3.942   2.122  11.319  0.1817  0.2852  0.1101
  345MOL0     C46483   4.040   2.161  11.431  0.0215 -0.2905  0.0689
  345MOL0    Cl46484   4.197   2.094  11.386  0.2713  0.0018 -0.6976
  345MOL0     C46485   4.090   1.865  10.530  0.4433  0.0949 -0.4918
  345MOL0     C46486   3.986   1.912  10.457 -0.3847 -0.3383 -0.3502
  345MOL0     O46487   3.872   1.947  10.207  1.0914  0.2496  0.2354
  345MOL0     C46488   3.651   2.235  10.244 -0.2864 -0.3312 -0.0904
  345MOL0     C46489   3.531   2.289  10.178 -1.2351  0.4463 -0.4348
  345MOL0     N46490   2.880   2.489  10.158 -0.2954 -0.2011 -0.0746
  345MOL0     N46491   2.801   2.587  10.162 -0.5255  0.1858 -0.1348
  345MOL0     C46492   1.767   3.255  10.303  1.5166  0.6730 -0.2202
  345MOL0     C46493   1.635   3.212  10.336  0.3613 -1.4451  1.3396
  345MOL0     C46494   1.187   3.155  10.281 -0.2740 -0.8484  0.3111
  345MOL0     C46495   1.163   3.033  10.233 -0.3034 -0.4833  0.0869
  345MOL0     C46496   1.042   2.968  10.257 -0.5768  0.2773  0.5075
  345MOL0     C46497   0.936   3.034  10.322 -0.7122  0.9547 -0.1296
  345MOL0     O46498   0.802   3.008  10.320 -0.3654  0.4846 -0.7509
  345MOL0     C46499   0.767   2.867  10.296 -0.5301  1.0258 -1.1397
  345MOL0     C46500   0.728   2.796  10.424  0.1475  0.1006 -0.0394
  345MOL0     C46501   0.649   2.666  10.391  0.2679  0.0576 -0.5338
  345MOL0     C46502   0.630   2.559  10.501  0.2973 -0.7943  0.0443
  345MOL0     C46503   0.756   2.505  10.551 -0.2205  0.9729  0.5731
  345MOL0     C46504   0.861   2.459  10.596  0.3438 -1.0086 -0.0616
  345MOL0     C46505   0.960   3.162  10.364 -0.9989  2.0685  0.1297
  345MOL0     C46506   1.086   3.222  10.353 -0.1210  0.6449 -0.4940
  345MOL0     C46507   1.112   3.341  10.432 -0.6362 -0.5166  1.0315
  345MOL0     H46508   1.537   3.117  10.025  1.8146  1.0960 -1.2894
  345MOL0     H46509   1.770   3.155   9.975 -1.2373 -1.1384 -1.2622
  345MOL0     H46510   2.144   3.215  10.178 -0.8043  1.4249 -1.6814
  345MOL0     H46511   2.046   3.249  10.322 -3.7792 -1.6854 -0.0728
  345MOL0     H46512   2.015   2.986  10.174  1.4833 -0.6319  0.2491
  345MOL0     H46513   1.965   3.012  10.334 -0.5297 -1.1625  0.9578
  345MOL0     H46514   2.212   3.049  10.390  4.3137  0.2194 -1.5553
  345MOL0     H46515   2.259   2.981  10.233  1.3520  0.0099  1.1393
  345MOL0     H46516   2.123   2.857  10.467 -2.8341 -2.3888 -1.4233
  345MOL0     H46517   2.092   2.783  10.308  0.5504 -1.5242  0.2845
  345MOL0     H46518   2.358   2.831  10.458 -0.8664 -1.0275  0.1634
  345MOL0     H46519   2.275   2.675  10.452 -2.0372  1.3867  2.3304
  345MOL0     H46520   2.322   2.695  10.190  3.1093 -2.0594 -2.1880
  345MOL0     H46521   2.411   2.845  10.228  0.8511  0.8248  3.1221
  345MOL0     H46522   2.506   2.585  10.345  1.2442  0.3158  1.1051
  345MOL0     H46523   2.583   2.743  10.342  0.7774 -0.1710 -0.2722
  345MOL0     H46524   2.488   2.589  10.084  0.1649  0.0411  0.1021
  345MOL0     H46525   2.596   2.724  10.092  1.9388 -0.3407  1.0090
  345MOL0     H46526   2.574   2.352  10.174 -1.3324  2.1835 -1.9332
  345MOL0     H46527   2.792   2.188  10.273  2.1238  1.7657  1.6621
  345MOL0     H46528   2.827   2.184  10.097  0.6980  1.1504 -0.8094
  345MOL0     H46529   3.020   2.310  10.297  1.6375  2.5575 -2.1134
  345MOL0     H46530   3.017   2.147  10.288  1.1227 -0.2450  0.5722
  345MOL0     H46531   3.063   2.353  10.073 -3.3538 -0.6653  0.0362
  345MOL0     H46532   3.051   2.179  10.026  0.7596  1.0214 -0.4727
  345MOL0     H46533   3.240   2.145  10.207 -0.1345  0.2149  0.8886
  345MOL0     H46534   3.255   2.317  10.230  3.2238 -1.7798  0.8309
  345MOL0     H46535   3.419   2.009  10.031 -0.2832 -1.1450  1.8838
  345MOL0     H46536   3.637   1.924  10.103 -0.1015  0.4498 -0.7988
  345MOL0     H46537   4.063   2.251  10.466  1.3795 -0.1049  1.2202
  345MOL0     H46538   4.262   2.138  10.601 -1.9057  2.6401  0.8679
  345MOL0     H46539   4.175   1.799  10.868 -0.4087  0.5302 -0.7804
  345MOL0     H46540   4.290   1.922  10.908  1.0489 -1.5832  1.2793
  345MOL0     H46541   4.101   2.083  10.824  0.0209  0.0553  1.6228
  345MOL0     H46542   4.013   1.947  10.781  0.4298 -1.3949  0.6676
  345MOL0     H46543   4.034   1.872  11.027 -0.2510 -0.5575 -0.2911
  345MOL0     H46544   4.087   2.038  11.074  0.3320 -1.2431 -0.1292
  345MOL0     H46545   3.833   1.971  10.937  1.1125  0.9801 -0.9560
  345MOL0     H46546   3.898   2.125  10.995  4.8960  0.1304  2.2873
  345MOL0     H46547   3.783   1.880  11.150 -0.0414  0.7174 -3.1908
  345MOL0     H46548   3.731   2.041  11.165 -1.9703 -1.7804  1.9282
  345MOL0     H46549   3.875   1.909  11.355  0.5466 -0.6552 -0.5712
  345MOL0     H46550   4.004   1.922  11.244 -2.4590 -1.1784 -3.6155
  345MOL0     H46551   3.853   2.185  11.331  0.1636  1.0447 -3.1922
  345MOL0     H46552   3.995   2.164  11.233  0.3851 -0.3804 -0.0958
  345MOL0     H46553   4.059   2.269  11.435 -0.1610 -0.2591  0.0810
  345MOL0     H46554   4.012   2.144  11.535  1.7990 -1.4830  0.3969
  345MOL0     H46555   4.089   1.759  10.556 -2.4528  0.2561  0.4533
  345MOL0     H46556   3.913   1.844  10.414  3.0814 -2.7939 -2.8756
  345MOL0     H46557   3.699   2.300  10.316 -0.4483 -1.0732  0.7083
  345MOL0     H46558   3.504   2.393  10.191 -0.7022  0.9289 -2.8356
  345MOL0     H46559   1.836   3.296  10.376  2.6886  3.3908 -2.6775
  345MOL0     H46560   1.589   3.228  10.433 -2.8235 -3.5743  0.3234
  345MOL0     H46561   1.232   2.976  10.171 -2.3812  0.0433 -2.9431
  345MOL0     H46562   1.032   2.866  10.219 -0.1475 -0.3256  1.9521
  345MOL0     H46563   0.843   2.809  10.243 -0.4138 -2.3403  2.2740
  345MOL0     H46564   0.684   2.865  10.225  0.3122  1.2972 -2.1506
  345MOL0     H46565   0.681   2.861  10.499  1.0170  2.2239 -1.2268
  345MOL0     H46566   0.814   2.767  10.485  0.2099  0.2848 -0.0370
  345MOL0     H46567   0.703   2.606  10.319  0.5373 -4.6549  3.1008
  345MOL0     H46568   0.555   2.701  10.346 -0.5821  1.4445  2.0729
  345MOL0     H46569   0.588   2.613  10.586 -1.7622  2.6305 -2.9193
  345MOL0     H46570   0.564   2.480  10.464 -1.1539  1.1600 -1.7060
  345MOL0     H46571   0.960   2.423  10.616  0.3010 -1.4441 -0.6228
  345MOL0     H46572   0.883   3.227  10.405 -2.7297 -0.0756  0.4627
  345MOL0     H46573   1.066   3.318  10.528 -0.5570 -2.8353  0.5680
  345MOL0     H46574   1.219   3.360  10.445 -0.9682  2.2065  0.5226
  345MOL0     H46575   1.069   3.427  10.379  3.1997 -0.1875 -1.9320
  346MOL0     O46576   0.679   0.834  10.430 -0.2343 -0.1875 -0.3374
  346MOL0     C46577   0.713   0.740  10.361  0.1574 -0.5062  0.8627
  346MOL0     O46578   0.816   0.653  10.384  0.3094 -0.5342  0.1344
  346MOL0     C46579   0.898   0.669  10.500  0.3836 -0.2285 -0.1758
  346MOL0     C46580   0.876   0.589  10.612 -0.0175 -0.6270 -0.0794
  346MOL0     C46581   0.957   0.603  10.725 -1.0389 -0.1804  0.4535
  346MOL0     C46582   1.070   0.693  10.722 -0.5443  0.4535 -0.7709
  346MOL0     O46583   1.166   0.709  10.822 -1.3069  0.6782  0.9743
  346MOL0     C46584   1.115   0.703  10.955 -0.3956 -0.5650 -0.3955
  346MOL0     C46585   1.248   0.686  11.033 -0.6164 -0.5286 -0.0543
  346MOL0     C46586   1.317   0.815  11.051  0.4729 -0.0100  0.2714
  346MOL0     C46587   1.234   0.932  11.123  0.3152  0.7960 -0.2856
  346MOL0     C46588   1.324   1.046  11.172  0.3855  0.1716  0.2681
  346MOL0     C46589   1.403   1.131  11.069 -0.4806 -0.9441 -1.3521
  346MOL0     C46590   1.499   1.223  11.158 -1.0539  0.8626  0.3109
  346MOL0     C46591   1.412   1.334  11.230 -1.0072 -0.3798  0.6715
  346MOL0     N46592   1.504   1.407  11.315 -0.4594  0.6935 -0.1318
  346MOL0     C46593   1.500   1.417  11.453 -0.6929 -0.6639 -0.0348
  346MOL0     C46594   1.596   1.512  11.483  0.7844  0.2249  0.4284
  346MOL0     C46595   1.642   1.549  11.624 -0.0867 -0.2445 -0.0530
  346MOL0     C46596   1.638   1.692  11.657  0.7590 -0.1537 -0.7089
  346MOL0     C46597   1.728   1.720  11.778 -0.1024  0.0430 -0.2590
  346MOL0     C46598   1.669   1.845  11.854  0.9861 -0.1230  0.4246
  346MOL0     O46599   1.744   1.876  11.972  0.0355 -1.3896  0.1954
  346MOL0     C46600   1.856   1.957  11.961 -0.1544 -0.6691 -0.1626
  346MOL0     C46601   1.897   2.026  11.844  0.0593 -1.1413 -0.7382
  346MOL0     C46602   2.013   2.103  11.839 -0.2165 -0.3004 -0.0320
  346MOL0     C46603   2.084   2.123  11.962  0.2258  0.3541 -0.4984
  346MOL0     C46604   2.212   2.191  11.964 -0.4732 -0.9717 -0.5659
  346MOL0     O46605   2.259   2.208  12.092 -0.2138  0.5089 -0.4572
  346MOL0     C46606   2.361   2.291  12.127  0.1082  0.9856  0.0867
  346MOL0     C46607   2.388   2.409  12.063 -0.6534  0.2077  0.4720
  346MOL0     C46608   2.481   2.498  12.113 -0.3484  0.3270 -0.2777
  346MOL0     C46609   2.553   2.478  12.233 -0.0910  0.0294  0.4812
  346MOL0     O46610   2.632   2.586  12.272 -0.6406  0.7818  0.2874
  346MOL0     C46611   2.764   2.555  12.329 -0.7385 -0.5868 -0.2479
  346MOL0     C46612   2.848   2.672  12.394  0.1161  0.2795  0.5270
  346MOL0     C46613   2.877   2.785  12.288 -0.3040  0.4859 -0.0439
  346MOL0     C46614   2.853   2.922  12.348 -0.1652 -0.6002  0.6151
  346MOL0     C46615   2.931   2.960  12.477  0.9367  0.1553  0.4111
  346MOL0     C46616   3.075   2.964  12.453  0.4374  0.2864  0.3008
  346MOL0     C46617   3.136   2.988  12.595  0.5526  0.2813 -0.2397
  346MOL0     C46618   3.289   2.976  12.612  1.3041 -0.1960 -0.7318
  346MOL0    Cl46619   3.343   3.044  12.769 -0.2718 -0.5703 -0.0195
  346MOL0     C46620   2.520   2.365  12.292  0.2621 -0.3074  0.0175
  346MOL0     C46621   2.426   2.272  12.248  0.1936  0.1959 -0.8036
  346MOL0     O46622   2.262   2.240  11.864 -0.4173  0.3014 -1.2146
  346MOL0     C46623   2.035   2.059  12.080 -0.0624  0.2161  0.5458
  346MOL0     C46624   1.927   1.976  12.077 -0.6057 -0.2435  0.4363
  346MOL0     N46625   1.648   1.543  11.360 -0.0154 -0.8335  0.9069
  346MOL0     N46626   1.583   1.498  11.257 -0.4289  0.3719 -0.9544
  346MOL0     C46627   1.100   0.762  10.602 -0.6468  0.7156  0.0576
  346MOL0     C46628   1.010   0.755  10.500 -1.3343  0.0657  0.7424
  346MOL0     C46629   0.633   0.721  10.232  0.4052  0.0112 -1.6000
  346MOL0     C46630   0.495   0.750  10.247  0.8188 -0.3428  0.6875
  346MOL0     C46631   0.419   0.723  10.124 -0.1187  0.0555  0.3032
  346MOL0     C46632   0.476   0.682  10.003 -0.0830  0.3946  0.4856
  346MOL0     O46633   0.383   0.658   9.902 -0.4514 -0.3690  0.9596
  346MOL0     C46634   0.399   0.557   9.801 -0.2434  0.0179 -0.3656
  346MOL0     C46635   0.293   0.582   9.693 -0.2169  0.0952 -0.3585
  346MOL0     C46636   0.275   0.469   9.593 -1.5154  0.4256  0.2334
  346MOL0     C46637   0.164   0.503   9.483  0.1180 -0.5854 -0.4994
  346MOL0     C46638   0.033   0.561   9.528 -0.2399 -0.2867  0.8305
  346MOL0     C46639  -0.081   0.592   9.558  0.4569 -0.1658  0.5171
  346MOL0     C46640   0.610   0.659   9.995  0.1155 -0.0313 -0.3579
  346MOL0     C46641   0.691   0.682  10.108 -0.6838  0.6964 -0.8855
  346MOL0     C46642   0.845   0.672  10.079  0.2759  0.4420  0.1814
  346MOL0     H46643   0.803   0.509  10.606  1.2468 -1.7727 -0.9833
  346MOL0     H46644   0.958   0.528  10.804  2.7864 -0.2509  0.5237
  346MOL0     H46645   1.061   0.793  10.986 -1.8300 -1.6091  0.2971
  346MOL0     H46646   1.047   0.619  10.974  0.0923 -0.5547  1.6277
  346MOL0     H46647   1.306   0.612  10.977 -2.2699 -2.0488  0.1578
  346MOL0     H46648   1.239   0.641  11.133  2.4144 -0.4077  0.3859
  346MOL0     H46649   1.347   0.840  10.949  0.2754  2.4498  0.7678
  346MOL0     H46650   1.408   0.805  11.111  0.7978  0.5946 -0.1223
  346MOL0     H46651   1.159   0.970  11.053 -1.2430 -1.5435 -0.0116
  346MOL0     H46652   1.167   0.906  11.205  1.8831  1.2688  1.2112
  346MOL0     H46653   1.261   1.109  11.235 -0.3568  2.6789 -2.7071
  346MOL0     H46654   1.399   1.007  11.241 -1.5146 -0.5832  2.0094
  346MOL0     H46655   1.459   1.068  10.999  0.3154  0.0414 -1.6299
  346MOL0     H46656   1.331   1.188  11.009 -0.3782 -0.6696 -1.2136
  346MOL0     H46657   1.568   1.275  11.091 -0.1439  0.0846  0.6323
  346MOL0     H46658   1.548   1.176  11.243 -1.5830  3.3818  2.1344
  346MOL0     H46659   1.368   1.400  11.155 -1.0487 -0.4669  0.6186
  346MOL0     H46660   1.325   1.298  11.285 -1.6363 -3.7400 -2.1083
  346MOL0     H46661   1.434   1.356  11.514 -1.1452 -0.1131  0.0429
  346MOL0     H46662   1.596   1.493  11.706 -0.3319  0.9836  0.6760
  346MOL0     H46663   1.747   1.520  11.622  0.6447  2.2141 -1.4184
  346MOL0     H46664   1.668   1.757  11.574  0.1434 -0.7154 -1.3741
  346MOL0     H46665   1.535   1.690  11.692  0.8842 -1.3683 -0.3741
  346MOL0     H46666   1.831   1.740  11.750  1.0039 -1.9946  1.9842
  346MOL0     H46667   1.727   1.637  11.849  1.1088  2.3852  2.6727
  346MOL0     H46668   1.576   1.811  11.899 -0.1455  4.6941  2.2646
  346MOL0     H46669   1.641   1.929  11.790  1.9877 -0.7913 -0.9546
  346MOL0     H46670   1.836   2.019  11.755 -2.3555  1.0564  0.6239
  346MOL0     H46671   2.036   2.158  11.748  4.7766 -0.0834  1.0447
  346MOL0     H46672   2.331   2.442  11.977  0.4971  2.5619  0.5506
  346MOL0     H46673   2.515   2.576  12.046  1.6312 -3.3006 -3.9704
  346MOL0     H46674   2.759   2.486  12.415 -2.5933  0.8263  0.8350
  346MOL0     H46675   2.831   2.516  12.251  1.6561 -1.3324  2.0165
  346MOL0     H46676   2.780   2.714  12.468  0.1791 -0.1966  0.8542
  346MOL0     H46677   2.939   2.631  12.438  1.2567  0.5708 -1.4371
  346MOL0     H46678   2.976   2.772  12.245 -0.4898 -1.8090  0.0693
  346MOL0     H46679   2.812   2.768  12.202 -0.8515  0.4799  0.3624
  346MOL0     H46680   2.753   2.947  12.385 -0.2903 -3.6590  2.7666
  346MOL0     H46681   2.874   2.994  12.268  0.0891  0.2489  1.4206
  346MOL0     H46682   2.911   2.881  12.550  0.5751 -1.5043 -1.4013
  346MOL0     H46683   2.892   3.057  12.506  2.8436  0.5493  1.8640
  346MOL0     H46684   3.119   2.867  12.425 -1.8267 -0.9257  0.6653
  346MOL0     H46685   3.117   3.034  12.380  2.9507 -1.0019  0.3829
  346MOL0     H46686   3.100   2.904  12.655 -1.5357  1.1915 -0.1681
  346MOL0     H46687   3.104   3.078  12.647  1.5043  0.2058  0.5119
  346MOL0     H46688   3.318   2.872  12.628  1.6478 -0.0246 -0.2295
  346MOL0     H46689   3.345   3.004  12.522  1.4418 -0.3800 -0.7031
  346MOL0     H46690   2.539   2.346  12.397 -1.7280  2.1806  0.9335
  346MOL0     H46691   2.407   2.176  12.295  1.7377  0.0741 -0.3717
  346MOL0     H46692   2.083   2.065  12.178 -2.0778  0.4463  1.5752
  346MOL0     H46693   1.908   1.935  12.176  0.8092  0.7513  1.1499
  346MOL0     H46694   1.181   0.833  10.603  1.4206 -1.4171  3.1569
  346MOL0     H46695   1.031   0.799  10.403 -2.9650 -4.0967 -1.7785
  346MOL0     H46696   0.443   0.776  10.338 -0.9575  0.7499 -0.5827
  346MOL0     H46697   0.313   0.738  10.141 -0.2551 -1.8329  1.3369
  346MOL0     H46698   0.408   0.452   9.829  0.3542 -0.7940 -3.2109
  346MOL0     H46699   0.500   0.582   9.767  1.2285  0.1990  3.6041
  346MOL0     H46700   0.319   0.671   9.635  0.6921  0.7723  1.0153
  346MOL0     H46701   0.201   0.598   9.751  1.4114  0.6239  2.2474
  346MOL0     H46702   0.256   0.379   9.653  0.5510 -1.5669 -1.8636
  346MOL0     H46703   0.369   0.448   9.541 -0.4507 -0.1410  2.2780
  346MOL0     H46704   0.205   0.577   9.414  0.5671 -0.4508 -0.0897
  346MOL0     H46705   0.138   0.411   9.428 -1.8698 -1.9495  2.4543
  346MOL0     H46706  -0.174   0.622   9.602  0.0172 -1.7457  0.7561
  346MOL0     H46707   0.653   0.626   9.901  4.2770  0.4949  1.1499
  346MOL0     H46708   0.875   0.567  10.068 -0.7228  0.2874 -1.3602
  346MOL0     H46709   0.865   0.706   9.977 -2.5892 -0.5866 -0.8194
  346MOL0     H46710   0.910   0.720  10.152  0.7568 -1.2809  0.9462
  347MOL0     O46711   9.018   4.710   3.310 -0.1077 -0.2081 -0.3684
  347MOL0     C46712   9.114   4.722   3.384  0.3176 -1.1898 -1.1225
  347MOL0     O46713   9.158   4.627   3.467 -0.0061  0.0394  0.1319
  347MOL0     C46714   9.119   4.493   3.468 -0.2498  0.2063 -0.4991
  347MOL0     C46715   9.042   4.419   3.381 -0.8272  0.7391 -0.7637
  347MOL0     C46716   9.025   4.289   3.385  0.1326 -0.0162 -0.5846
  347MOL0     C46717   9.093   4.211   3.479 -0.8684 -0.1415 -0.6330
  347MOL0     O46718   9.073   4.076   3.492 -0.6562 -0.1147  0.4570
  347MOL0     C46719   8.949   4.015   3.449  0.8198 -0.0187  1.5294
  347MOL0     C46720   8.963   3.865   3.492 -0.0243 -1.0818 -0.3924
  347MOL0     C46721   8.962   3.846   3.651  0.2915 -0.0822  0.7807
  347MOL0     C46722   8.952   3.704   3.676  0.3063 -0.2637  0.2767
  347MOL0     C46723   8.982   3.663   3.823 -0.2080 -0.8212 -0.1682
  347MOL0     C46724   8.846   3.671   3.899  0.3105 -0.4412 -0.6610
  347MOL0     C46725   8.871   3.621   4.046  0.4044  0.1524  0.0179
  347MOL0     C46726   8.754   3.678   4.132 -0.3241  0.5308  0.1597
  347MOL0     N46727   8.719   3.823   4.131  0.0324  0.9407  0.3892
  347MOL0     C46728   8.614   3.884   4.066 -0.1476  0.5705  0.2387
  347MOL0     C46729   8.603   4.004   4.121 -0.5481 -0.0773 -0.1249
  347MOL0     C46730   8.509   4.103   4.063 -0.6761  0.2999 -0.7164
  347MOL0     C46731   8.470   4.224   4.150  1.2725 -1.2954 -0.1405
  347MOL0     C46732   8.586   4.323   4.180 -0.0875  0.2626  0.0431
  347MOL0     C46733   8.539   4.449   4.252  0.6019  0.0673  1.3009
  347MOL0     O46734   8.450   4.522   4.162 -0.1628 -0.0902 -0.2262
  347MOL0     C46735   8.500   4.641   4.107 -0.6619 -0.5492 -0.0286
  347MOL0     C46736   8.466   4.759   4.165 -0.9307 -0.7631 -0.0701
  347MOL0     C46737   8.522   4.877   4.115  0.5304  0.4524 -1.5268
  347MOL0     C46738   8.606   4.877   4.012 -0.1331  0.3602  0.7407
  347MOL0     C46739   8.690   4.988   3.974 -0.6904 -0.2837  1.1067
  347MOL0     O46740   8.636   5.117   4.010 -0.4440 -0.4895  0.3040
  347MOL0     C46741   8.695   5.237   3.967  0.2183 -0.5710  0.3009
  347MOL0     C46742   8.757   5.254   3.841  0.1088 -0.9028 -0.0507
  347MOL0     C46743   8.812   5.380   3.812  0.3998  0.7174  1.2560
  347MOL0     C46744   8.794   5.497   3.885 -0.2202  0.1639  0.1010
  347MOL0     O46745   8.853   5.621   3.867 -0.1331  0.2762  0.3054
  347MOL0     C46746   8.911   5.663   3.740 -0.3745  0.3519 -0.1563
  347MOL0     C46747   8.874   5.815   3.721  0.5170  0.6729 -0.1247
  347MOL0     C46748   8.916   5.874   3.581 -0.0568 -0.7940  1.1172
  347MOL0     C46749   8.871   6.028   3.566 -0.1553 -0.2511  0.8670
  347MOL0     C46750   8.934   6.099   3.446  0.0070  0.3526 -0.1902
  347MOL0     C46751   8.868   6.231   3.411  0.0957  0.2265  1.0271
  347MOL0     C46752   8.937   6.292   3.287 -0.3485  0.8828 -0.0140
  347MOL0     C46753   8.857   6.399   3.225 -0.1659 -0.7789  0.2539
  347MOL0    Cl46754   8.737   6.317   3.122 -0.2618 -0.2167  0.1172
  347MOL0     C46755   8.725   5.475   4.006  0.2134 -0.2323  0.3224
  347MOL0     C46756   8.672   5.353   4.039 -1.2187 -0.7713 -0.7687
  347MOL0     O46757   8.790   4.967   3.908 -0.4538  0.0648  0.5220
  347MOL0     C46758   8.618   4.758   3.936  0.6049  0.0281 -0.1514
  347MOL0     C46759   8.565   4.642   3.990 -0.0798 -0.3140  0.4194
  347MOL0     N46760   8.697   4.019   4.221 -0.4719  1.2277 -0.3543
  347MOL0     N46761   8.772   3.906   4.222 -0.2592 -0.1446  0.5823
  347MOL0     C46762   9.184   4.279   3.561 -0.1954 -0.5294 -0.3122
  347MOL0     C46763   9.185   4.421   3.566  0.0915  0.5018 -0.5694
  347MOL0     C46764   9.181   4.854   3.390 -0.2857  1.2761 -0.3557
  347MOL0     C46765   9.253   4.886   3.500 -0.1949 -0.0331 -0.7863
  347MOL0     C46766   9.325   5.008   3.516  0.4909  1.0291 -0.7598
  347MOL0     C46767   9.318   5.103   3.409 -0.3369 -0.2143  0.3834
  347MOL0     O46768   9.403   5.214   3.422  0.1911  0.0852 -0.3839
  347MOL0     C46769   9.429   5.281   3.299 -0.4963  0.3416  0.6469
  347MOL0     C46770   9.547   5.368   3.290 -0.4306  0.0646  0.3490
  347MOL0     C46771   9.550   5.478   3.397  0.0341 -0.1037 -0.7594
  347MOL0     C46772   9.464   5.600   3.369 -0.0455 -0.0857  0.8153
  347MOL0     C46773   9.507   5.676   3.246  0.0370 -0.9146  1.0850
  347MOL0     C46774   9.576   5.720   3.157 -0.7364 -0.2245 -0.9289
  347MOL0     C46775   9.241   5.071   3.294 -0.0663 -0.3168  0.1665
  347MOL0     C46776   9.176   4.951   3.282  1.0016 -0.1972 -0.0061
  347MOL0     C46777   9.077   4.937   3.164  0.0928  0.2694 -0.0092
  347MOL0     H46778   8.986   4.485   3.315 -2.8679  0.5261  0.6726
  347MOL0     H46779   8.954   4.242   3.318  0.1243 -1.4436  0.3907
  347MOL0     H46780   8.858   4.073   3.467 -0.5265 -2.2273  2.1743
  347MOL0     H46781   8.947   4.016   3.340  2.6213  0.5982  1.4655
  347MOL0     H46782   9.060   3.830   3.456  0.0098 -0.8328 -0.5456
  347MOL0     H46783   8.886   3.798   3.453 -1.4494  1.2030 -1.7414
  347MOL0     H46784   8.882   3.905   3.698  0.3514  1.7255 -1.2621
  347MOL0     H46785   9.061   3.883   3.680  0.3214 -1.8969  3.4170
  347MOL0     H46786   8.849   3.672   3.654  0.6289 -0.2696 -1.3600
  347MOL0     H46787   9.016   3.651   3.605 -2.3323 -1.4267 -1.4110
  347MOL0     H46788   9.001   3.556   3.837 -3.2396 -1.2424  1.4882
  347MOL0     H46789   9.064   3.722   3.866  0.2064 -0.9198 -0.7977
  347MOL0     H46790   8.815   3.776   3.903  1.8902  0.0268  1.2556
  347MOL0     H46791   8.773   3.607   3.851  0.6614 -0.1489 -1.6014
  347MOL0     H46792   8.973   3.642   4.080 -0.5757  3.8695  1.1438
  347MOL0     H46793   8.873   3.512   4.045 -0.4604  0.1302  0.1848
  347MOL0     H46794   8.674   3.607   4.109 -0.2495  0.0209  1.4100
  347MOL0     H46795   8.785   3.650   4.233 -2.7219  0.4553  0.9226
  347MOL0     H46796   8.556   3.847   3.982  0.4912 -1.9560  0.8412
  347MOL0     H46797   8.547   4.138   3.966 -0.2056  0.0886 -0.6106
  347MOL0     H46798   8.424   4.041   4.033 -1.4860  1.8109 -1.6622
  347MOL0     H46799   8.385   4.277   4.106 -0.9489 -0.9138  4.1142
  347MOL0     H46800   8.417   4.188   4.238 -1.3352 -2.0741 -1.8895
  347MOL0     H46801   8.643   4.351   4.090  1.9881 -0.5082  1.0530
  347MOL0     H46802   8.662   4.279   4.245  0.9654  1.1028 -0.5809
  347MOL0     H46803   8.624   4.516   4.272  0.8317 -0.1963  1.2076
  347MOL0     H46804   8.490   4.419   4.345 -0.9571  3.4654  1.7574
  347MOL0     H46805   8.407   4.762   4.257 -2.0548 -0.2868 -0.7754
  347MOL0     H46806   8.517   4.972   4.165  2.6640  0.7462 -1.7735
  347MOL0     H46807   8.767   5.169   3.774 -4.1709 -1.9404  0.3369
  347MOL0     H46808   8.876   5.387   3.724 -2.5015 -0.5197 -1.1185
  347MOL0     H46809   9.021   5.658   3.745 -0.4101  0.2528  4.0071
  347MOL0     H46810   8.875   5.612   3.650  0.4497  0.5635 -0.6181
  347MOL0     H46811   8.765   5.825   3.722  0.3155 -1.2596 -0.0271
  347MOL0     H46812   8.914   5.877   3.802  1.7268  1.3726 -1.2149
  347MOL0     H46813   9.022   5.898   3.582  0.4050 -0.8994 -5.1626
  347MOL0     H46814   8.883   5.804   3.503 -0.4655 -0.9354  1.4123
  347MOL0     H46815   8.878   6.095   3.652 -1.6623  3.9172 -1.9482
  347MOL0     H46816   8.761   6.024   3.560 -0.0637 -0.9530 -1.4398
  347MOL0     H46817   8.938   6.029   3.362  0.3160  0.9864 -0.7169
  347MOL0     H46818   9.040   6.112   3.470  0.1334  0.5552 -0.8389
  347MOL0     H46819   8.760   6.223   3.400  0.0403  1.9219 -0.1371
  347MOL0     H46820   8.877   6.305   3.492 -3.6747 -0.3521  2.1281
  347MOL0     H46821   8.956   6.216   3.210 -0.1937  0.9815 -0.0732
  347MOL0     H46822   9.030   6.340   3.319  0.3163  2.5392 -3.8944
  347MOL0     H46823   8.820   6.465   3.304  2.6757 -0.7576  1.6827
  347MOL0     H46824   8.910   6.466   3.157 -1.2984  1.0565  1.0989
  347MOL0     H46825   8.690   5.558   4.067  1.0843  1.1323 -0.9981
  347MOL0     H46826   8.614   5.354   4.131  0.1446  2.3826  0.2176
  347MOL0     H46827   8.680   4.741   3.849  0.2499  1.6220 -0.7534
  347MOL0     H46828   8.593   4.551   3.938 -0.6458 -1.3387  1.8649
  347MOL0     H46829   9.244   4.222   3.631 -1.4859 -0.7363  0.6634
  347MOL0     H46830   9.241   4.478   3.639  0.0764  2.0263 -1.6930
  347MOL0     H46831   9.256   4.810   3.577 -2.6996  1.1576  0.6054
  347MOL0     H46832   9.370   5.044   3.608  0.2401  0.5441 -0.4450
  347MOL0     H46833   9.349   5.355   3.289  2.4607  3.6400 -1.0916
  347MOL0     H46834   9.439   5.214   3.213  0.0670 -0.4174  1.2859
  347MOL0     H46835   9.551   5.424   3.196 -1.6592  0.7503  0.6786
  347MOL0     H46836   9.636   5.307   3.307  0.2001  0.2228 -2.1248
  347MOL0     H46837   9.650   5.519   3.413 -0.1347  0.1708 -0.4058
  347MOL0     H46838   9.519   5.440   3.494  1.9103 -0.5072 -0.2831
  347MOL0     H46839   9.358   5.585   3.348  0.1057  1.6092 -1.4503
  347MOL0     H46840   9.476   5.649   3.467  0.1496 -0.7062  1.1068
  347MOL0     H46841   9.635   5.771   3.084  0.8893 -0.3847  0.2086
  347MOL0     H46842   9.225   5.153   3.224 -2.8041 -1.1217 -0.2568
  347MOL0     H46843   9.093   4.840   3.115 -1.0198 -0.6266  1.3116
  347MOL0     H46844   8.972   4.930   3.193 -0.5495 -0.5419 -2.2839
  347MOL0     H46845   9.085   5.018   3.092 -0.1789  0.1611 -0.1641
  348MOL0     O46846  10.282   2.083   6.274  0.5799  0.1101 -0.6620
  348MOL0     C46847  10.216   2.183   6.309 -1.7897 -0.5574  0.4811
  348MOL0     O46848  10.269   2.311   6.300  0.4944 -0.4784 -0.3168
  348MOL0     C46849  10.396   2.325   6.265  0.2746 -0.4044 -0.1361
  348MOL0     C46850  10.437   2.393   6.149  0.3032 -0.1197  0.1832
  348MOL0     C46851  10.564   2.410   6.112 -0.6047  1.1008 -0.7179
  348MOL0     C46852  10.665   2.357   6.203  0.1508 -0.4888  0.0988
  348MOL0     O46853  10.797   2.370   6.163 -0.5003  0.0270  1.0373
  348MOL0     C46854  10.904   2.358   6.259 -0.1954 -0.9113  0.6861
  348MOL0     C46855  11.036   2.371   6.185  0.5125 -0.3830  1.1832
  348MOL0     C46856  11.149   2.322   6.270 -0.2492  0.6400 -0.6756
  348MOL0     C46857  11.290   2.359   6.216 -0.6796  0.5634 -0.1503
  348MOL0     C46858  11.390   2.279   6.289 -0.2090  0.2027  0.2011
  348MOL0     C46859  11.537   2.277   6.236 -0.5965  0.6234 -0.3921
  348MOL0     C46860  11.594   2.414   6.243 -0.1665 -0.1858  0.5898
  348MOL0     C46861  11.654   2.445   6.378 -0.0721 -0.4552 -0.1019
  348MOL0     N46862  11.746   2.562   6.376 -0.5979 -0.2235  0.3631
  348MOL0     C46863  11.727   2.680   6.311 -0.1899  0.5122 -0.3840
  348MOL0     C46864  11.840   2.741   6.335 -0.5560 -0.0788  0.0353
  348MOL0     C46865  11.876   2.879   6.279 -0.3136  0.4944  0.2341
  348MOL0     C46866  12.014   2.878   6.201 -0.8613 -0.5563 -0.2142
  348MOL0     C46867  12.019   2.973   6.087 -0.6819  1.2468  0.7572
  348MOL0     C46868  12.158   2.986   6.014 -0.1473 -0.3326 -0.1849
  348MOL0     O46869  12.252   3.060   6.093  0.1591 -0.9210 -0.2051
  348MOL0     C46870  12.370   3.084   6.032  0.2973  0.2620  0.2946
  348MOL0     C46871  12.442   2.984   5.965  0.6035  0.3116 -0.6389
  348MOL0     C46872  12.554   3.015   5.899  0.3179 -0.5285  1.0285
  348MOL0     C46873  12.607   3.147   5.896  0.5417  0.1018  0.7878
  348MOL0     C46874  12.737   3.181   5.834 -0.2736 -0.3200 -1.1321
  348MOL0     O46875  12.768   3.310   5.831 -0.5020 -0.4430 -0.0236
  348MOL0     C46876  12.891   3.353   5.774  0.1431  0.5950 -0.8156
  348MOL0     C46877  12.930   3.331   5.646 -0.3500 -0.1062  0.1752
  348MOL0     C46878  13.071   3.351   5.608 -0.8599 -0.9626  0.0257
  348MOL0     C46879  13.162   3.403   5.700  0.5806 -0.0063 -0.5265
  348MOL0     O46880  13.281   3.441   5.648 -0.1505  0.0538  0.3539
  348MOL0     C46881  13.329   3.562   5.707 -0.0300 -0.5456 -0.0556
  348MOL0     C46882  13.441   3.605   5.619  0.3109 -0.4467  0.0211
  348MOL0     C46883  13.420   3.649   5.471  0.5462  1.3602 -0.3432
  348MOL0     C46884  13.564   3.673   5.416  0.0190 -0.3041  0.3950
  348MOL0     C46885  13.545   3.693   5.272 -0.6034  0.0191 -0.1475
  348MOL0     C46886  13.668   3.699   5.195  0.0336 -0.2293  0.1834
  348MOL0     C46887  13.636   3.717   5.048  0.0973  0.5424  0.0034
  348MOL0     C46888  13.639   3.596   4.968  0.9502  0.4379  0.3981
  348MOL0    Cl46889  13.485   3.497   4.973  0.1709 -0.3191  0.1026
  348MOL0     C46890  13.117   3.430   5.826  0.5655 -0.4067  0.0358
  348MOL0     C46891  12.984   3.404   5.869 -0.0020 -0.6958  0.5354
  348MOL0     O46892  12.813   3.088   5.809 -0.0836 -0.8437  0.2037
  348MOL0     C46893  12.541   3.240   5.974 -0.2833 -0.4991 -0.7684
  348MOL0     C46894  12.420   3.211   6.035 -0.7912 -0.0797 -0.0984
  348MOL0     N46895  11.920   2.680   6.430 -0.5084  0.2855  0.4319
  348MOL0     N46896  11.869   2.563   6.437 -0.1530  0.3404 -0.4329
  348MOL0     C46897  10.630   2.299   6.328 -0.0623 -0.0691  0.1947
  348MOL0     C46898  10.496   2.282   6.358  0.0362  0.3396  0.0962
  348MOL0     C46899  10.077   2.161   6.350 -0.5488 -0.4425 -0.9703
  348MOL0     C46900  10.009   2.065   6.274  0.7092  0.7496  0.4919
  348MOL0     C46901   9.868   2.056   6.284  0.0852 -0.2071 -0.6306
  348MOL0     C46902   9.807   2.129   6.386  0.3097  0.3960 -1.3871
  348MOL0     O46903   9.673   2.116   6.425  0.4999  0.3292  0.5869
  348MOL0     C46904   9.607   1.988   6.416 -0.6090 -0.8604 -0.3831
  348MOL0     C46905   9.485   1.988   6.331 -0.7449 -0.3916 -0.3942
  348MOL0     C46906   9.366   1.956   6.412 -0.0507 -0.3998  0.1758
  348MOL0     C46907   9.245   1.943   6.316  0.6543  0.1714  0.5287
  348MOL0     C46908   9.133   1.882   6.386 -0.7619  0.0044  0.2375
  348MOL0     C46909   9.033   1.834   6.438  0.2099 -0.1642 -0.1753
  348MOL0     C46910   9.872   2.229   6.454 -0.5302  0.6348 -0.3940
  348MOL0     C46911  10.008   2.246   6.444  0.4198  0.1217 -0.6055
  348MOL0     C46912  10.082   2.343   6.527  0.3320 -0.4241  0.7471
  348MOL0     H46913  10.362   2.432   6.080 -0.6234  2.8574  2.6295
  348MOL0     H46914  10.592   2.441   6.012 -0.3158  0.5874 -0.7953
  348MOL0     H46915  10.900   2.439   6.332  0.9967  1.8217 -2.0844
  348MOL0     H46916  10.894   2.259   6.306 -0.5558 -0.7957  0.8607
  348MOL0     H46917  11.048   2.478   6.163  4.5661 -0.6709  1.2583
  348MOL0     H46918  11.040   2.320   6.088  0.4267  3.6407 -1.1715
  348MOL0     H46919  11.139   2.214   6.286 -0.3955  0.6935 -0.3968
  348MOL0     H46920  11.135   2.357   6.373 -0.5376 -1.0475 -0.1080
  348MOL0     H46921  11.294   2.319   6.114 -2.1243 -0.9147  0.3263
  348MOL0     H46922  11.311   2.466   6.220 -2.9139  1.1747 -2.1890
  348MOL0     H46923  11.391   2.303   6.396 -2.9551 -2.4085  0.9465
  348MOL0     H46924  11.367   2.173   6.281  1.5141 -0.1455 -0.7496
  348MOL0     H46925  11.594   2.208   6.299  0.0459  0.7338 -0.8434
  348MOL0     H46926  11.536   2.239   6.134  1.2748 -2.1793  0.5217
  348MOL0     H46927  11.527   2.491   6.204  0.9239  0.0654 -0.9068
  348MOL0     H46928  11.668   2.413   6.162 -2.6928  1.3630 -1.9457
  348MOL0     H46929  11.567   2.455   6.443  0.4069 -3.1874  1.1237
  348MOL0     H46930  11.715   2.362   6.417  1.5717 -0.1408 -1.8648
  348MOL0     H46931  11.630   2.698   6.266 -0.7893 -1.6124 -0.1014
  348MOL0     H46932  11.796   2.904   6.209 -0.1481  2.6299  0.7147
  348MOL0     H46933  11.869   2.953   6.360  1.5445 -1.0002  1.8794
  348MOL0     H46934  12.088   2.913   6.274 -0.2166  0.7670 -1.4328
  348MOL0     H46935  12.049   2.779   6.170 -0.4907  0.0606 -1.9264
  348MOL0     H46936  12.004   3.073   6.129  3.7062  1.7131  1.7464
  348MOL0     H46937  11.941   2.949   6.014  1.5668  3.1496 -2.5590
  348MOL0     H46938  12.147   3.035   5.917 -1.0554 -2.4180 -1.2023
  348MOL0     H46939  12.201   2.886   5.998  5.4290  1.7885 -0.6924
  348MOL0     H46940  12.401   2.884   5.961 -3.8315  1.9124 -0.9989
  348MOL0     H46941  12.605   2.945   5.832 -1.7214  0.6366 -1.9524
  348MOL0     H46942  12.869   3.310   5.558 -2.0954  1.0414  1.0553
  348MOL0     H46943  13.113   3.330   5.510  2.7154 -2.2973  1.6540
  348MOL0     H46944  13.254   3.642   5.705  0.6494  0.1379  1.1074
  348MOL0     H46945  13.364   3.552   5.810  1.0202  0.5588 -0.2844
  348MOL0     H46946  13.478   3.697   5.665 -1.7007  0.3632  0.1203
  348MOL0     H46947  13.508   3.519   5.624  0.7122 -0.0702  2.2539
  348MOL0     H46948  13.379   3.565   5.415  2.1331 -0.1919  0.6931
  348MOL0     H46949  13.355   3.736   5.466 -1.2802 -0.0166 -1.9241
  348MOL0     H46950  13.628   3.586   5.433  0.5955 -0.4047 -1.9558
  348MOL0     H46951  13.617   3.754   5.466  0.4131 -0.6580  0.5595
  348MOL0     H46952  13.492   3.787   5.252 -0.7591 -0.4575 -2.2091
  348MOL0     H46953  13.480   3.617   5.228  0.7064  0.7180 -3.5626
  348MOL0     H46954  13.713   3.797   5.217  1.0770 -0.7957  0.6338
  348MOL0     H46955  13.747   3.627   5.218 -1.0528 -1.4534  0.1962
  348MOL0     H46956  13.711   3.788   5.010 -0.9149  0.7063 -1.8097
  348MOL0     H46957  13.533   3.753   5.039 -1.3226 -2.6870  1.7884
  348MOL0     H46958  13.650   3.622   4.862 -2.6236  1.7905  0.2201
  348MOL0     H46959  13.723   3.529   4.993 -1.3145 -2.1619  1.6096
  348MOL0     H46960  13.178   3.465   5.908 -2.5072  0.8126  1.9629
  348MOL0     H46961  12.960   3.417   5.974 -0.9605  0.3147  0.2048
  348MOL0     H46962  12.590   3.335   5.993  1.9067 -1.7395  0.1294
  348MOL0     H46963  12.368   3.297   6.075  2.8414  1.9977  0.6349
  348MOL0     H46964  10.710   2.292   6.401  2.5070  1.5257 -2.2107
  348MOL0     H46965  10.458   2.233   6.447 -0.1223 -1.5815 -0.9841
  348MOL0     H46966  10.047   2.005   6.192 -0.5377 -1.5360  1.4634
  348MOL0     H46967   9.814   1.998   6.210 -4.0904  1.5621  0.7744
  348MOL0     H46968   9.596   1.947   6.517 -0.1175 -1.5509 -0.5982
  348MOL0     H46969   9.678   1.918   6.372  0.7936  0.9567 -1.1447
  348MOL0     H46970   9.505   1.916   6.252 -1.4491 -0.4769 -0.5024
  348MOL0     H46971   9.473   2.088   6.290 -0.4761  0.6900  1.9803
  348MOL0     H46972   9.357   2.042   6.479 -1.1152  0.6570 -1.2549
  348MOL0     H46973   9.380   1.861   6.463  3.5114 -0.7511 -1.1824
  348MOL0     H46974   9.213   2.040   6.278  0.7535  0.6813  1.7150
  348MOL0     H46975   9.274   1.874   6.236  0.8925  0.0975  0.6769
  348MOL0     H46976   8.942   1.790   6.474  0.3678 -0.5641 -0.2524
  348MOL0     H46977   9.810   2.284   6.524 -2.0563  0.5697 -1.6301
  348MOL0     H46978  10.103   2.434   6.469  0.5029 -2.3256 -2.3970
  348MOL0     H46979  10.030   2.364   6.621 -3.9765 -1.7590 -1.0921
  348MOL0     H46980  10.181   2.304   6.551  0.3981 -0.7457 -0.0304
  349MOL0     O46981   3.133   4.492   8.444 -0.1758  0.4336 -0.0155
  349MOL0     C46982   3.067   4.520   8.349  0.2269  0.3867 -0.4514
  349MOL0     O46983   3.102   4.487   8.221 -0.2502 -0.6440 -0.3930
  349MOL0     C46984   3.238   4.478   8.207  0.0812  0.3864  0.4657
  349MOL0     C46985   3.314   4.360   8.231 -0.6223 -0.6406  0.0219
  349MOL0     C46986   3.458   4.371   8.215  0.5391 -0.5384 -1.1295
  349MOL0     C46987   3.528   4.497   8.199  0.2593 -0.3402  0.2058
  349MOL0     O46988   3.660   4.485   8.185 -0.1725  0.2473  0.2207
  349MOL0     C46989   3.730   4.609   8.174  0.4012  0.4079  0.5809
  349MOL0     C46990   3.887   4.582   8.163 -0.6742 -0.2635 -0.5252
  349MOL0     C46991   3.974   4.712   8.138 -0.0774 -0.2190  0.8269
  349MOL0     C46992   3.959   4.825   8.244  0.0768 -0.4924 -0.3248
  349MOL0     C46993   4.056   4.939   8.214  0.1674  0.0687 -0.3584
  349MOL0     C46994   4.046   5.059   8.305 -1.0727 -0.3362  1.0365
  349MOL0     C46995   4.159   5.161   8.277 -0.4496  0.6628  0.3057
  349MOL0     C46996   4.149   5.204   8.128  0.5226 -0.5463  0.3131
  349MOL0     N46997   4.198   5.334   8.089  0.7278  0.0349 -0.2390
  349MOL0     C46998   4.285   5.356   7.983  0.6660  0.1754  0.3172
  349MOL0     C46999   4.289   5.490   7.962 -0.4213 -0.2329 -0.7767
  349MOL0     C47000   4.377   5.571   7.873  0.2215 -0.1122 -0.0578
  349MOL0     C47001   4.319   5.572   7.722  0.3075  1.0718  0.0596
  349MOL0     C47002   4.406   5.632   7.616  0.3015 -0.4436 -0.3522
  349MOL0     C47003   4.536   5.563   7.612 -1.4150 -0.1915  0.1948
  349MOL0     O47004   4.598   5.596   7.482 -0.6324 -0.3355 -0.3530
  349MOL0     C47005   4.711   5.522   7.450 -0.8920  0.2934 -0.2308
  349MOL0     C47006   4.761   5.524   7.319  0.5097  0.1316 -0.3385
  349MOL0     C47007   4.873   5.449   7.289 -0.1280 -0.4141 -0.0791
  349MOL0     C47008   4.932   5.366   7.388  0.4112  0.7817  0.6106
  349MOL0     C47009   5.042   5.268   7.358  0.3497  0.2677 -0.1244
  349MOL0     O47010   5.140   5.306   7.266 -0.7692 -0.1036  0.9565
  349MOL0     C47011   5.239   5.214   7.227  0.3517 -0.8171 -0.2160
  349MOL0     C47012   5.227   5.140   7.110 -0.0901 -0.9148  0.4759
  349MOL0     C47013   5.328   5.057   7.074 -0.5795  0.3309 -0.1417
  349MOL0     C47014   5.448   5.044   7.160 -0.3315  0.4752  0.5792
  349MOL0     O47015   5.550   4.959   7.126 -0.6352  0.1536 -0.0411
  349MOL0     C47016   5.601   4.875   7.231  0.3085 -0.4785 -0.4758
  349MOL0     C47017   5.696   4.782   7.159 -0.4377  0.5584 -0.4160
  349MOL0     C47018   5.637   4.693   7.054  0.5146  0.4796 -0.0462
  349MOL0     C47019   5.647   4.551   7.094 -0.4339  0.9441 -0.6004
  349MOL0     C47020   5.582   4.450   7.003  0.3423  0.9295  0.0785
  349MOL0     C47021   5.652   4.433   6.870  0.4039 -0.0743  0.8059
  349MOL0     C47022   5.583   4.334   6.766 -0.3387 -0.3333  0.5765
  349MOL0     C47023   5.608   4.181   6.788  0.2104 -0.0670 -0.2306
  349MOL0    Cl47024   5.489   4.086   6.692 -0.0685 -0.1202 -0.2091
  349MOL0     C47025   5.451   5.111   7.275 -0.4610 -0.5284  0.6328
  349MOL0     C47026   5.348   5.200   7.311 -0.3103  0.9362  0.6605
  349MOL0     O47027   5.040   5.162   7.416  0.2626  0.1861 -1.0422
  349MOL0     C47028   4.883   5.364   7.515  0.0546  0.6853 -1.7120
  349MOL0     C47029   4.775   5.447   7.549 -0.6820 -0.0502  0.2330
  349MOL0     N47030   4.208   5.543   8.068 -0.2783 -0.2311 -0.0637
  349MOL0     N47031   4.155   5.457   8.144 -0.5422  0.1048 -0.3485
  349MOL0     C47032   3.445   4.608   8.170 -0.1810 -0.5110 -0.2872
  349MOL0     C47033   3.305   4.601   8.178  0.2301  0.1902 -0.3043
  349MOL0     C47034   2.936   4.586   8.371 -0.0417  0.0259  0.2437
  349MOL0     C47035   2.835   4.556   8.278 -0.7253 -0.1949  0.3355
  349MOL0     C47036   2.704   4.594   8.283  0.2128  0.2948 -0.5991
  349MOL0     C47037   2.662   4.671   8.392 -0.1506  0.1778  0.7944
  349MOL0     O47038   2.524   4.701   8.389  0.0412 -0.7484 -0.2101
  349MOL0     C47039   2.485   4.757   8.520  0.6640  0.0254  0.6386
  349MOL0     C47040   2.340   4.802   8.510  0.2483 -1.2253 -0.3942
  349MOL0     C47041   2.280   4.823   8.644 -0.3625 -0.7086 -0.7227
  349MOL0     C47042   2.232   4.706   8.723  0.8474 -0.1655  0.0739
  349MOL0     C47043   2.087   4.707   8.730 -0.7042  0.1755 -0.4285
  349MOL0     C47044   1.969   4.717   8.725 -0.1730 -0.4134  0.1341
  349MOL0     C47045   2.753   4.686   8.499 -0.5243 -0.1740  0.1279
  349MOL0     C47046   2.893   4.663   8.484  0.8433  0.1264 -0.3880
  349MOL0     C47047   2.989   4.696   8.609  0.2696  0.2854  0.7762
  349MOL0     H47048   3.268   4.264   8.254 -1.3563 -0.2566  0.1780
  349MOL0     H47049   3.508   4.276   8.224 -1.1648 -1.4429 -0.6796
  349MOL0     H47050   3.709   4.666   8.082 -1.2483 -1.6194 -0.3886
  349MOL0     H47051   3.712   4.680   8.255  0.6551  0.7904  0.3091
  349MOL0     H47052   3.904   4.521   8.074  0.3991 -0.3456 -0.2707
  349MOL0     H47053   3.927   4.539   8.255 -1.3263  2.4290  1.1389
  349MOL0     H47054   3.947   4.760   8.043 -0.1994 -3.9484 -1.2274
  349MOL0     H47055   4.080   4.697   8.118 -0.2956  1.4594 -2.1481
  349MOL0     H47056   3.854   4.855   8.254  0.8030  1.8373  0.9216
  349MOL0     H47057   3.987   4.771   8.335  1.1174 -1.1483 -1.0070
  349MOL0     H47058   4.159   4.901   8.219 -0.1553 -0.6896  1.7812
  349MOL0     H47059   4.044   4.951   8.106  0.5429 -3.1511 -0.8782
  349MOL0     H47060   3.948   5.107   8.305 -0.5705  0.8109 -1.1433
  349MOL0     H47061   4.067   5.018   8.404 -2.3508 -2.8634  0.3542
  349MOL0     H47062   4.257   5.121   8.306 -0.3010 -0.3923 -1.4788
  349MOL0     H47063   4.146   5.246   8.343 -1.6517  0.8509 -0.1497
  349MOL0     H47064   4.199   5.119   8.080 -0.8848 -0.8254 -0.7053
  349MOL0     H47065   4.043   5.201   8.102  0.1982 -0.5113  1.5397
  349MOL0     H47066   4.332   5.283   7.919 -0.2945 -1.1329  1.0400
  349MOL0     H47067   4.366   5.674   7.907  1.7513  0.5066 -1.3007
  349MOL0     H47068   4.480   5.534   7.872 -0.0587 -0.9629 -1.4911
  349MOL0     H47069   4.303   5.472   7.681  1.7868  1.1498 -0.7620
  349MOL0     H47070   4.221   5.621   7.722  0.6761  1.8139 -0.7308
  349MOL0     H47071   4.417   5.738   7.644  0.6612 -0.7714  0.8152
  349MOL0     H47072   4.348   5.618   7.525 -3.0505  0.3730  1.4741
  349MOL0     H47073   4.505   5.459   7.605 -1.2526 -0.1350 -2.1120
  349MOL0     H47074   4.602   5.597   7.693  1.4609  0.6533 -2.3125
  349MOL0     H47075   4.703   5.588   7.253  0.1511  2.2059  1.8335
  349MOL0     H47076   4.910   5.448   7.187  1.0947 -0.7271  0.3488
  349MOL0     H47077   5.137   5.147   7.050 -1.8614 -0.6495  3.0108
  349MOL0     H47078   5.325   5.001   6.981  0.6870  1.5977 -0.9851
  349MOL0     H47079   5.657   4.938   7.301 -0.5661  0.3333 -0.4889
  349MOL0     H47080   5.521   4.823   7.285 -0.6280  0.0918 -1.2830
  349MOL0     H47081   5.776   4.834   7.107 -1.0555  3.0464  0.9911
  349MOL0     H47082   5.751   4.718   7.228 -1.3306 -3.4557 -3.0414
  349MOL0     H47083   5.529   4.711   7.043  0.1508 -1.4657 -0.0239
  349MOL0     H47084   5.676   4.706   6.953 -0.2041 -0.7410 -0.4953
  349MOL0     H47085   5.591   4.535   7.187 -0.7399 -2.8852 -1.2668
  349MOL0     H47086   5.751   4.522   7.111  0.0041  1.1306 -2.7318
  349MOL0     H47087   5.477   4.480   6.995 -0.0800  0.3402  2.5439
  349MOL0     H47088   5.571   4.354   7.055  1.3904  0.9289  0.3128
  349MOL0     H47089   5.658   4.524   6.811 -5.6688 -0.1714 -0.5786
  349MOL0     H47090   5.754   4.398   6.887  1.1245  2.5168  2.3600
  349MOL0     H47091   5.608   4.358   6.662 -1.4104 -4.0194 -0.6949
  349MOL0     H47092   5.475   4.351   6.765 -0.3792 -0.1287  3.0152
  349MOL0     H47093   5.707   4.148   6.757  0.0466  0.0591 -0.9108
  349MOL0     H47094   5.593   4.161   6.895  0.7012  1.4782  0.1635
  349MOL0     H47095   5.540   5.097   7.336 -0.8717 -2.2905  0.8806
  349MOL0     H47096   5.361   5.263   7.399  1.6763 -1.5107  2.2917
  349MOL0     H47097   4.920   5.300   7.594  0.8282 -0.4033 -2.9091
  349MOL0     H47098   4.751   5.456   7.654 -1.8022 -0.3528  0.0163
  349MOL0     H47099   3.491   4.705   8.153 -1.4763 -0.0458 -1.4166
  349MOL0     H47100   3.253   4.695   8.166 -3.2971 -0.5939  5.0024
  349MOL0     H47101   2.866   4.491   8.196  1.0612  1.3059 -0.2500
  349MOL0     H47102   2.629   4.569   8.208  1.1257  3.6757 -2.8972
  349MOL0     H47103   2.557   4.835   8.544  0.3011  0.7325 -0.4950
  349MOL0     H47104   2.487   4.676   8.594 -3.2485 -2.2783 -1.4102
  349MOL0     H47105   2.281   4.722   8.465  0.5287 -1.8663  0.3506
  349MOL0     H47106   2.331   4.882   8.436 -0.7953 -2.2214 -1.3664
  349MOL0     H47107   2.203   4.900   8.647 -1.2105 -1.5545  0.8046
  349MOL0     H47108   2.359   4.867   8.705  0.0286  0.0577 -1.7603
  349MOL0     H47109   2.271   4.612   8.683  0.5882 -0.3330  0.2169
  349MOL0     H47110   2.266   4.698   8.827 -1.4590 -0.8332  0.8440
  349MOL0     H47111   1.863   4.712   8.713  0.0955 -3.6514 -2.0901
  349MOL0     H47112   2.724   4.731   8.593  1.1236  1.1612  0.0452
  349MOL0     H47113   3.032   4.601   8.643  1.9731  1.6283  2.6938
  349MOL0     H47114   3.076   4.756   8.580 -0.5262 -0.2844 -3.3349
  349MOL0     H47115   2.939   4.747   8.691  1.1221  3.0656 -0.3298
  350MOL0     O47116  10.331   6.132   1.058 -1.4454  0.2624  0.4870
  350MOL0     C47117  10.225   6.099   1.093 -0.2107  0.1089 -0.9052
  350MOL0     O47118  10.211   6.055   1.222 -0.2153 -0.6217 -0.0134
  350MOL0     C47119  10.325   6.043   1.296 -0.9827  0.4101  0.4598
  350MOL0     C47120  10.374   5.909   1.316  0.1041  0.3105  0.1266
  350MOL0     C47121  10.495   5.887   1.393  1.0721  0.3142 -0.6468
  350MOL0     C47122  10.563   5.989   1.443 -0.7413 -1.3761 -0.2185
  350MOL0     O47123  10.690   5.960   1.489 -0.1717 -0.1330 -0.5965
  350MOL0     C47124  10.794   6.057   1.541  0.0645  1.0649  0.8669
  350MOL0     C47125  10.917   5.967   1.562  0.6780 -0.0413 -0.6810
  350MOL0     C47126  11.022   6.035   1.652 -0.0372 -0.0992 -0.4968
  350MOL0     C47127  11.155   5.984   1.602 -0.0077 -0.1948 -0.7472
  350MOL0     C47128  11.270   6.040   1.707  0.6899  0.2303  0.0142
  350MOL0     C47129  11.409   6.040   1.653  0.4732 -0.2851  0.5204
  350MOL0     C47130  11.464   5.910   1.591  0.1648 -0.0171 -1.1068
  350MOL0     C47131  11.589   5.948   1.516  0.1036  0.1685  0.5983
  350MOL0     N47132  11.566   6.028   1.390  0.2875 -0.0437  0.2072
  350MOL0     C47133  11.509   5.984   1.266  0.9685  0.1517  0.3419
  350MOL0     C47134  11.549   6.077   1.180 -0.1895 -0.4618 -0.1793
  350MOL0     C47135  11.532   6.069   1.028  0.5230 -0.2853  0.2613
  350MOL0     C47136  11.650   6.073   0.939 -0.4955 -0.5266 -0.1266
  350MOL0     C47137  11.699   6.224   0.935 -0.4821  0.4562 -0.2540
  350MOL0     C47138  11.786   6.254   0.807  0.7797  0.2629  0.5878
  350MOL0     O47139  11.844   6.381   0.812 -0.4341  0.5463  0.0398
  350MOL0     C47140  11.795   6.487   0.743 -0.4842  0.3579  0.1895
  350MOL0     C47141  11.852   6.611   0.765 -0.0112 -0.0461  0.1208
  350MOL0     C47142  11.812   6.721   0.691 -1.5517  0.0259  1.0734
  350MOL0     C47143  11.716   6.706   0.590  0.2929  0.4329 -0.3372
  350MOL0     C47144  11.680   6.830   0.518 -0.9305 -0.7498  0.0445
  350MOL0     O47145  11.774   6.939   0.525  0.1022 -0.8821  0.0877
  350MOL0     C47146  11.767   7.034   0.424 -0.5188  0.2367 -0.6493
  350MOL0     C47147  11.800   7.159   0.453 -0.4032 -0.0066 -0.0575
  350MOL0     C47148  11.801   7.250   0.338 -0.1688 -0.0466 -0.6960
  350MOL0     C47149  11.764   7.220   0.207  0.7603 -1.3488 -0.2080
  350MOL0     O47150  11.766   7.308   0.101 -0.0994 -0.2117 -0.4415
  350MOL0     C47151  11.730   7.443   0.127 -0.1662  0.1629  0.3285
  350MOL0     C47152  11.696   7.531   0.004 -0.0754 -0.3941 -0.1898
  350MOL0     C47153  11.574   7.489  -0.078 -0.3407 -0.5501  0.2135
  350MOL0     C47154  11.523   7.578  -0.191  1.0114 -0.1340  0.3124
  350MOL0     C47155  11.379   7.533  -0.230  0.0985 -0.4502 -0.0527
  350MOL0     C47156  11.282   7.610  -0.155 -0.2187  0.4871  0.8472
  350MOL0     C47157  11.133   7.591  -0.199  0.6754  0.6258  0.2667
  350MOL0     C47158  11.032   7.679  -0.115  0.1982 -0.4742 -0.0872
  350MOL0    Cl47159  11.014   7.608   0.045 -0.1187 -0.1178  0.3341
  350MOL0     C47160  11.733   7.089   0.184  0.6919 -0.3206  0.2903
  350MOL0     C47161  11.730   6.999   0.293 -0.6881 -0.6060  0.2300
  350MOL0     O47162  11.570   6.832   0.463  0.0844 -0.3073 -0.7024
  350MOL0     C47163  11.657   6.589   0.565  0.1689  0.4381  0.2868
  350MOL0     C47164  11.696   6.475   0.642  0.4382  0.5166  0.1076
  350MOL0     N47165  11.599   6.183   1.253  0.3345 -1.3629  0.8181
  350MOL0     N47166  11.605   6.156   1.372 -0.0624  0.2192  0.1872
  350MOL0     C47167  10.509   6.121   1.432  0.1281 -0.8284  0.4174
  350MOL0     C47168  10.392   6.150   1.361  0.2641  0.1146 -0.1574
  350MOL0     C47169  10.117   6.113   0.996 -0.1698 -0.7405 -0.1150
  350MOL0     C47170  10.138   6.169   0.869 -0.9823 -0.9435 -0.1194
  350MOL0     C47171  10.042   6.189   0.769  0.7020  0.9825 -1.1692
  350MOL0     C47172   9.905   6.150   0.793  1.1440  0.3401  1.0527
  350MOL0     O47173   9.797   6.158   0.700  0.1464 -0.3578  0.9369
  350MOL0     C47174   9.824   6.185   0.556  0.1378  0.2282  0.0819
  350MOL0     C47175   9.868   6.059   0.477 -0.6945  0.2671  0.2970
  350MOL0     C47176   9.755   5.968   0.460 -0.2620 -0.0566  0.0468
  350MOL0     C47177   9.651   6.030   0.361  0.7816  0.1608  0.0865
  350MOL0     C47178   9.544   5.926   0.342  0.1284  0.1494 -0.1111
  350MOL0     C47179   9.483   5.820   0.312  0.1338  0.3748 -0.5177
  350MOL0     C47180   9.878   6.098   0.925  0.1970 -0.3423  1.0015
  350MOL0     C47181   9.974   6.092   1.026  0.7799  0.4474  0.0358
  350MOL0     C47182   9.929   6.066   1.165  0.0241 -0.1590 -0.3918
  350MOL0     H47183  10.334   5.816   1.276 -0.2174 -0.0020  1.1451
  350MOL0     H47184  10.543   5.791   1.407  1.3123  0.3084 -1.4442
  350MOL0     H47185  10.822   6.139   1.475  1.2900 -0.0933 -0.1050
  350MOL0     H47186  10.764   6.100   1.638  0.4366  3.4133 -0.0070
  350MOL0     H47187  10.953   5.934   1.464 -0.5171 -1.9288 -0.5465
  350MOL0     H47188  10.879   5.881   1.618  0.1072  2.5528  3.3301
  350MOL0     H47189  11.017   6.007   1.758  3.0417 -1.8638 -0.7112
  350MOL0     H47190  11.011   6.143   1.643 -1.8038  0.0941  2.3984
  350MOL0     H47191  11.154   5.875   1.607  1.3589 -0.2781 -1.6684
  350MOL0     H47192  11.182   6.026   1.505 -1.2413 -0.2907 -1.1453
  350MOL0     H47193  11.243   6.146   1.717  2.1752  0.8192 -1.5783
  350MOL0     H47194  11.266   5.981   1.799  0.6357 -2.2618 -1.4989
  350MOL0     H47195  11.410   6.115   1.574  2.6639 -0.7071  0.0904
  350MOL0     H47196  11.477   6.069   1.734  0.3882 -1.1371  0.9095
  350MOL0     H47197  11.390   5.871   1.521 -1.4683  1.1664 -0.1028
  350MOL0     H47198  11.473   5.838   1.674  0.3585  2.1907  0.9053
  350MOL0     H47199  11.657   5.992   1.590  1.5793  0.7830 -1.0492
  350MOL0     H47200  11.634   5.854   1.483  1.1657 -0.1394  2.7510
  350MOL0     H47201  11.470   5.883   1.251  0.9097  0.0457  1.1492
  350MOL0     H47202  11.475   5.977   1.011  0.0093 -0.5168  2.8128
  350MOL0     H47203  11.457   6.139   0.991 -0.9347 -1.8663  0.0658
  350MOL0     H47204  11.727   6.010   0.984  1.3912  1.9539  0.3187
  350MOL0     H47205  11.618   6.044   0.839  0.3101  1.7488 -1.0878
  350MOL0     H47206  11.772   6.239   1.016  0.6675 -0.1712 -1.1378
  350MOL0     H47207  11.620   6.298   0.947  0.7400  1.7231  0.2441
  350MOL0     H47208  11.709   6.248   0.728  0.2433  5.5372  0.3669
  350MOL0     H47209  11.864   6.178   0.794  1.7704  1.4938 -1.0306
  350MOL0     H47210  11.933   6.615   0.837 -0.2707  0.2000  0.4051
  350MOL0     H47211  11.860   6.815   0.715 -1.5636 -0.1022  1.6178
  350MOL0     H47212  11.837   7.189   0.551  2.1531 -0.0283 -0.9241
  350MOL0     H47213  11.828   7.351   0.366 -3.9961  0.9162  0.0561
  350MOL0     H47214  11.640   7.442   0.189  0.8761  0.2034  1.9211
  350MOL0     H47215  11.811   7.492   0.183  0.4483  1.5300 -1.6372
  350MOL0     H47216  11.675   7.630   0.045  1.3153 -0.1765  0.0569
  350MOL0     H47217  11.789   7.549  -0.051 -1.7845  0.1098 -3.0980
  350MOL0     H47218  11.588   7.390  -0.123 -2.8205 -2.8966  3.9960
  350MOL0     H47219  11.499   7.485   0.001  0.5473  1.0553  1.1901
  350MOL0     H47220  11.589   7.582  -0.278 -2.5341  1.4212 -2.5924
  350MOL0     H47221  11.522   7.681  -0.153  1.5803 -1.7731  5.4722
  350MOL0     H47222  11.378   7.424  -0.231  1.6815 -0.5126 -1.8387
  350MOL0     H47223  11.367   7.550  -0.338  0.0250  1.8467  0.2654
  350MOL0     H47224  11.281   7.575  -0.052 -2.2028  1.6746  1.2802
  350MOL0     H47225  11.305   7.716  -0.170  0.4514  0.0318 -2.0707
  350MOL0     H47226  11.126   7.483  -0.184  3.9364  0.6290  2.8242
  350MOL0     H47227  11.116   7.623  -0.302 -3.3184  0.9117  0.8559
  350MOL0     H47228  11.060   7.784  -0.122 -0.1307 -0.3089  0.9180
  350MOL0     H47229  10.933   7.674  -0.162 -0.4918 -1.1731  1.3686
  350MOL0     H47230  11.712   7.059   0.082  1.7204 -0.5988  0.1406
  350MOL0     H47231  11.702   6.896   0.275 -1.5787  0.2254 -4.3206
  350MOL0     H47232  11.586   6.580   0.484 -0.2791  0.2012  0.6969
  350MOL0     H47233  11.646   6.384   0.611 -0.6812  1.4775 -1.0496
  350MOL0     H47234  10.573   6.205   1.456  0.7724 -0.6635 -1.6640
  350MOL0     H47235  10.362   6.253   1.344 -2.5206 -0.9592 -2.6190
  350MOL0     H47236  10.238   6.197   0.836 -1.5174 -0.0756 -1.0543
  350MOL0     H47237  10.079   6.210   0.669 -0.1453 -0.1654 -1.7441
  350MOL0     H47238   9.903   6.261   0.557  0.6545 -0.2879 -0.5718
  350MOL0     H47239   9.744   6.236   0.502  2.3737  3.2230 -0.7173
  350MOL0     H47240   9.939   6.001   0.537 -1.4233 -3.5998 -2.2126
  350MOL0     H47241   9.917   6.078   0.381 -1.3942 -1.2725 -0.3930
  350MOL0     H47242   9.715   5.952   0.560 -3.9716  3.0922 -0.6829
  350MOL0     H47243   9.798   5.876   0.419 -2.3252  0.0529 -2.7093
  350MOL0     H47244   9.593   6.115   0.398  0.5850  0.3037 -0.5324
  350MOL0     H47245   9.704   6.064   0.272  1.7930 -0.1023  0.5714
  350MOL0     H47246   9.442   5.731   0.269  0.5685  0.8449 -1.9780
  350MOL0     H47247   9.774   6.071   0.941 -0.2553  0.3833 -0.5190
  350MOL0     H47248   9.819   6.064   1.163 -0.1731  2.9174  1.0635
  350MOL0     H47249   9.954   5.960   1.178  1.9322 -0.1454 -3.0488
  350MOL0     H47250   9.963   6.129   1.247 -1.3151 -0.5841  0.5292
  351MOL0     O47251   5.430   0.454   4.578 -0.1416 -0.4630 -0.6396
  351MOL0     C47252   5.412   0.485   4.460  0.6285  0.6186 -0.7501
  351MOL0     O47253   5.314   0.564   4.411  0.4220 -0.2728 -0.3120
  351MOL0     C47254   5.236   0.644   4.496 -0.4666  0.8272 -1.1815
  351MOL0     C47255   5.099   0.645   4.468 -0.2473 -0.0430  0.6135
  351MOL0     C47256   5.016   0.742   4.525  0.1056 -0.2851  0.1993
  351MOL0     C47257   5.067   0.832   4.621 -0.0241 -0.4657 -0.1617
  351MOL0     O47258   4.971   0.899   4.686  0.6481 -0.4472  0.5349
  351MOL0     C47259   4.996   1.037   4.724 -0.9514  1.3403 -0.4088
  351MOL0     C47260   4.870   1.125   4.670 -0.0344 -0.2803  0.2976
  351MOL0     C47261   4.738   1.060   4.713 -0.1257  0.6668 -0.1535
  351MOL0     C47262   4.628   1.172   4.694 -0.6830 -0.2142 -0.3442
  351MOL0     C47263   4.496   1.135   4.760 -0.1192  0.4393  0.0732
  351MOL0     C47264   4.394   1.239   4.734  0.3801  0.4109 -0.1733
  351MOL0     C47265   4.246   1.206   4.760  0.0012  0.0443 -0.5433
  351MOL0     C47266   4.216   1.133   4.896  0.5141 -0.1381  0.6106
  351MOL0     N47267   4.080   1.074   4.888  0.1788 -0.6316 -0.4736
  351MOL0     C47268   3.955   1.139   4.896  0.0899  0.1898  0.3398
  351MOL0     C47269   3.857   1.038   4.869  0.5125  0.5772 -0.5590
  351MOL0     C47270   3.711   1.058   4.850 -0.6377  0.0207 -0.2071
  351MOL0     C47271   3.681   1.191   4.773  0.2326 -0.2249  0.5677
  351MOL0     C47272   3.762   1.210   4.647  0.4825  0.4880  0.9023
  351MOL0     C47273   3.726   1.337   4.567  0.0015  0.6995 -0.1719
  351MOL0     O47274   3.777   1.334   4.428 -0.5441  0.0241  0.0885
  351MOL0     C47275   3.910   1.337   4.406  0.0986 -0.1764 -0.9547
  351MOL0     C47276   4.001   1.384   4.503 -0.2626  0.8924  0.1282
  351MOL0     C47277   4.137   1.370   4.481 -0.3474  0.1502 -0.3167
  351MOL0     C47278   4.189   1.320   4.353  0.0802 -0.5148  0.9988
  351MOL0     C47279   4.337   1.311   4.332 -0.7433  0.3514 -0.1113
  351MOL0     O47280   4.380   1.227   4.237  0.1328  0.5334  0.1526
  351MOL0     C47281   4.521   1.210   4.220  0.1779  0.3040 -0.5882
  351MOL0     C47282   4.578   1.103   4.296  0.1456  0.4724  0.4146
  351MOL0     C47283   4.709   1.067   4.271  0.1523  0.6514  0.3800
  351MOL0     C47284   4.794   1.128   4.171  0.2788 -0.8070 -0.0897
  351MOL0     O47285   4.926   1.100   4.173 -0.2272 -0.2985  0.1305
  351MOL0     C47286   5.014   1.198   4.235 -0.9846  0.4899  0.2097
  351MOL0     C47287   5.111   1.118   4.335  0.4433  0.1270 -0.0546
  351MOL0     C47288   5.192   1.004   4.269  0.4063  0.4456 -0.5019
  351MOL0     C47289   5.310   1.046   4.185 -0.4343  0.2500 -0.6362
  351MOL0     C47290   5.392   0.919   4.142 -0.5294  0.8442 -0.0362
  351MOL0     C47291   5.535   0.944   4.117  0.3684  0.7365 -0.6570
  351MOL0     C47292   5.609   0.835   4.042  0.6277 -0.1140  0.6879
  351MOL0     C47293   5.760   0.849   4.052  1.1263  0.1383  0.0020
  351MOL0    Cl47294   5.849   0.826   4.208  0.2131 -0.2961  0.4380
  351MOL0     C47295   4.737   1.230   4.096  0.3119  0.2902 -0.3344
  351MOL0     C47296   4.594   1.260   4.111 -0.0507 -0.2487 -0.0566
  351MOL0     O47297   4.407   1.383   4.405 -0.1129 -0.3543  0.9712
  351MOL0     C47298   4.093   1.279   4.261 -0.1104  0.6405 -0.2896
  351MOL0     C47299   3.957   1.288   4.281 -0.0569 -0.0702 -0.7081
  351MOL0     N47300   3.926   0.914   4.860  0.7997 -0.2536 -0.7823
  351MOL0     N47301   4.052   0.934   4.874 -0.5311 -0.9535  0.1648
  351MOL0     C47302   5.205   0.828   4.650 -0.2156  0.5360  0.0363
  351MOL0     C47303   5.282   0.735   4.589 -0.2347  0.1717  0.2244
  351MOL0     C47304   5.500   0.419   4.355 -0.0829 -0.0944  0.0688
  351MOL0     C47305   5.477   0.455   4.217 -0.0977  0.0308  0.0273
  351MOL0     C47306   5.563   0.421   4.114 -1.4032 -0.0556 -0.5701
  351MOL0     C47307   5.665   0.329   4.147  0.2158 -0.1320 -0.1157
  351MOL0     O47308   5.759   0.290   4.059 -0.1996 -0.1413 -0.3915
  351MOL0     C47309   5.843   0.393   4.002 -0.0653 -0.3018  0.5201
  351MOL0     C47310   5.906   0.374   3.862  0.2748 -0.7650 -0.6466
  351MOL0     C47311   5.951   0.238   3.814 -0.1285  0.4422  0.4588
  351MOL0     C47312   5.985   0.239   3.664  0.2077  1.0501  1.2073
  351MOL0     C47313   6.018   0.108   3.604 -0.4440 -0.0577  0.1884
  351MOL0     C47314   6.051   0.001   3.551  0.2920  0.2428 -0.1488
  351MOL0     C47315   5.674   0.273   4.276  0.5517 -0.6065 -0.0314
  351MOL0     C47316   5.595   0.314   4.381  0.0300 -0.4124  0.0585
  351MOL0     C47317   5.598   0.238   4.515  0.1141  0.5522  0.5498
  351MOL0     H47318   5.064   0.594   4.379 -0.0197  1.0658 -0.1505
  351MOL0     H47319   4.914   0.762   4.494  0.0298 -0.2731  0.4519
  351MOL0     H47320   4.994   1.042   4.833  1.4350  0.0838 -0.2521
  351MOL0     H47321   5.089   1.072   4.680 -0.5690 -1.4293 -2.0888
  351MOL0     H47322   4.871   1.127   4.560  0.1799  0.2686  0.3083
  351MOL0     H47323   4.875   1.228   4.705 -0.2942 -0.5634  1.1901
  351MOL0     H47324   4.741   1.029   4.818  3.6755 -1.2674 -0.6836
  351MOL0     H47325   4.714   0.980   4.643  1.9848 -0.7984  0.7086
  351MOL0     H47326   4.668   1.265   4.735  2.8655 -1.8038  0.2274
  351MOL0     H47327   4.609   1.198   4.590  0.3494  1.0228 -0.2386
  351MOL0     H47328   4.468   1.039   4.715  3.3693 -1.3949  1.4442
  351MOL0     H47329   4.509   1.126   4.868 -1.9046 -1.6025  0.1913
  351MOL0     H47330   4.417   1.338   4.774  2.4367 -0.7424  1.7118
  351MOL0     H47331   4.406   1.264   4.628  2.0359 -0.1817 -0.1605
  351MOL0     H47332   4.204   1.142   4.681  1.1290  0.3872 -1.4557
  351MOL0     H47333   4.181   1.293   4.759  2.0421  1.6584 -2.0375
  351MOL0     H47334   4.290   1.055   4.916 -1.7513 -2.3420  0.8798
  351MOL0     H47335   4.214   1.191   4.989 -1.4581 -1.0536  1.2084
  351MOL0     H47336   3.933   1.245   4.906  2.1153  0.6644  0.3891
  351MOL0     H47337   3.682   0.969   4.793  1.5849  0.6279 -2.4753
  351MOL0     H47338   3.674   1.070   4.952  1.3315 -0.8716  0.6733
  351MOL0     H47339   3.574   1.197   4.749 -0.0512  2.9466  2.1696
  351MOL0     H47340   3.703   1.277   4.837 -1.5475  0.9848 -0.3449
  351MOL0     H47341   3.732   1.127   4.583 -0.6518  1.3480  0.2680
  351MOL0     H47342   3.869   1.211   4.669  0.3223  0.2579  1.7242
  351MOL0     H47343   3.753   1.427   4.623 -4.4702  2.4125 -0.4018
  351MOL0     H47344   3.620   1.360   4.557  0.4089  1.7076 -3.0190
  351MOL0     H47345   3.969   1.416   4.602  1.0582 -0.8341  1.1835
  351MOL0     H47346   4.200   1.394   4.565  0.9783 -0.9829 -0.9464
  351MOL0     H47347   4.533   1.062   4.386  0.2881  2.0545  1.2571
  351MOL0     H47348   4.761   1.002   4.341  3.9667  0.9408 -1.8619
  351MOL0     H47349   5.076   1.246   4.159 -2.5706  2.4731  0.0912
  351MOL0     H47350   4.955   1.273   4.288 -2.8053 -0.0136 -1.0130
  351MOL0     H47351   5.170   1.193   4.389  0.6751  0.4367 -0.7305
  351MOL0     H47352   5.057   1.062   4.412  3.2140 -1.5687  0.8167
  351MOL0     H47353   5.234   0.929   4.337  1.1321  0.6621 -0.7027
  351MOL0     H47354   5.118   0.951   4.208 -0.1638  0.5022  0.1283
  351MOL0     H47355   5.384   1.094   4.249  0.8382  1.4534 -2.9000
  351MOL0     H47356   5.291   1.116   4.103  2.9286  0.9151 -0.9806
  351MOL0     H47357   5.352   0.870   4.053 -2.1392  2.4523 -0.2577
  351MOL0     H47358   5.384   0.855   4.230 -0.4171 -0.5764 -1.0338
  351MOL0     H47359   5.550   1.030   4.051  3.1449  0.4648 -0.5191
  351MOL0     H47360   5.589   0.977   4.207 -1.5341  1.9205  0.0965
  351MOL0     H47361   5.571   0.829   3.940 -0.6759  2.0627  0.9843
  351MOL0     H47362   5.568   0.742   4.084 -2.8117  2.1199  2.8145
  351MOL0     H47363   5.807   0.794   3.970 -1.4168 -0.1791 -1.3439
  351MOL0     H47364   5.776   0.953   4.020  2.4053 -0.2231 -0.6099
  351MOL0     H47365   4.782   1.284   4.013 -2.2178 -0.9802 -2.6973
  351MOL0     H47366   4.558   1.330   4.036  1.0369  0.8343  0.3913
  351MOL0     H47367   4.120   1.237   4.165  3.5986  0.6892  0.5869
  351MOL0     H47368   3.881   1.255   4.211  0.2657 -1.1560 -0.5652
  351MOL0     H47369   5.239   0.900   4.725 -1.8589  0.5842  0.7796
  351MOL0     H47370   5.387   0.748   4.614  0.7439 -1.0452 -2.8525
  351MOL0     H47371   5.408   0.535   4.195  0.3602  0.3841 -0.1452
  351MOL0     H47372   5.547   0.466   4.017 -0.2024  1.2997 -0.1671
  351MOL0     H47373   5.930   0.409   4.067  1.2976  0.1904 -1.3447
  351MOL0     H47374   5.783   0.483   3.986 -1.0805 -1.2409 -1.2408
  351MOL0     H47375   5.990   0.445   3.868  0.0105 -0.5106  0.3648
  351MOL0     H47376   5.835   0.417   3.791  3.0346  1.6115 -2.2266
  351MOL0     H47377   5.872   0.166   3.838 -3.1193  2.3433 -2.7536
  351MOL0     H47378   6.043   0.214   3.868  0.0122 -2.2316 -0.8270
  351MOL0     H47379   5.900   0.281   3.609 -0.7811 -0.3892  1.5869
  351MOL0     H47380   6.071   0.302   3.640  0.5508 -0.5098 -2.2845
  351MOL0     H47381   6.062  -0.078   3.479 -2.0301  1.3320 -1.8328
  351MOL0     H47382   5.753   0.198   4.279  2.2202  0.9320 -2.2499
  351MOL0     H47383   5.496   0.207   4.539 -1.1774  1.5547 -3.0015
  351MOL0     H47384   5.652   0.143   4.513  0.3446  0.5844  2.9238
  351MOL0     H47385   5.647   0.292   4.596 -2.4831  1.3777  1.6950
  352MOL0     O47386   4.081   0.378   1.459 -0.5079 -0.3393 -0.3994
  352MOL0     C47387   4.022   0.463   1.524 -0.5212  0.2199 -0.5472
  352MOL0     O47388   4.061   0.600   1.544  0.2129  0.0579  0.1061
  352MOL0     C47389   4.174   0.639   1.479 -0.4173  0.3640  0.4202
  352MOL0     C47390   4.294   0.604   1.540 -1.3621 -0.4584  0.5908
  352MOL0     C47391   4.403   0.632   1.473 -0.1429 -0.5059 -0.0404
  352MOL0     C47392   4.405   0.690   1.339 -0.7423 -0.7049  0.1332
  352MOL0     O47393   4.515   0.701   1.256  0.9742 -0.3971 -0.1243
  352MOL0     C47394   4.639   0.656   1.297  0.5185 -0.0178 -1.0046
  352MOL0     C47395   4.763   0.658   1.198  0.6154  0.5400 -0.2741
  352MOL0     C47396   4.879   0.690   1.277 -0.0821 -0.1027 -0.2979
  352MOL0     C47397   5.009   0.673   1.193  0.5557 -0.3298  0.1045
  352MOL0     C47398   5.129   0.707   1.277  0.6372  0.0962  0.4248
  352MOL0     C47399   5.257   0.666   1.199 -1.1688 -0.7952 -0.3205
  352MOL0     C47400   5.372   0.750   1.254 -0.1746 -0.3123 -0.1115
  352MOL0     C47401   5.515   0.702   1.216 -0.1538  0.0073 -0.7599
  352MOL0     N47402   5.547   0.575   1.291 -0.6399 -0.4330 -0.2348
  352MOL0     C47403   5.584   0.570   1.430  0.1144  0.2272 -0.3434
  352MOL0     C47404   5.649   0.456   1.443 -0.3774  1.1365  1.6046
  352MOL0     C47405   5.716   0.380   1.556 -0.2872 -0.6766  0.5242
  352MOL0     C47406   5.729   0.472   1.672  0.3898 -0.1921 -0.3426
  352MOL0     C47407   5.844   0.416   1.763  0.9579  0.3972  0.3153
  352MOL0     C47408   5.986   0.470   1.730  0.0036  0.1467  0.1687
  352MOL0     O47409   5.997   0.611   1.781 -0.7918  0.3541  0.6394
  352MOL0     C47410   6.115   0.663   1.814 -0.9501  0.4882 -0.9309
  352MOL0     C47411   6.242   0.618   1.763  0.5213 -0.0696  0.0434
  352MOL0     C47412   6.363   0.666   1.796  0.0126  0.0106 -0.7532
  352MOL0     C47413   6.372   0.774   1.881  0.9715  0.8115 -0.1026
  352MOL0     C47414   6.492   0.834   1.934 -0.8287 -0.2459 -0.6898
  352MOL0     O47415   6.485   0.884   2.057 -0.3559  0.3211  0.4559
  352MOL0     C47416   6.604   0.905   2.138 -0.2239  0.3174 -0.5222
  352MOL0     C47417   6.731   0.846   2.112 -0.7548  0.0258 -0.1747
  352MOL0     C47418   6.837   0.868   2.199 -0.7946 -0.6235 -0.9932
  352MOL0     C47419   6.809   0.943   2.328 -0.2583  0.2485  0.4960
  352MOL0     O47420   6.902   0.954   2.431  0.4910  0.1321 -0.3805
  352MOL0     C47421   7.041   0.957   2.395  0.0796  0.8764  0.1369
  352MOL0     C47422   7.104   0.994   2.534 -0.5400 -0.2398  0.1977
  352MOL0     C47423   7.107   1.147   2.550 -0.2172  0.8229  0.3101
  352MOL0     C47424   6.974   1.216   2.536  0.3664 -0.0731  0.3587
  352MOL0     C47425   6.969   1.352   2.599  0.5901 -0.1614  0.5706
  352MOL0     C47426   7.076   1.449   2.539 -1.3228  0.4682  0.7532
  352MOL0     C47427   7.073   1.582   2.613 -1.3781 -0.2675  1.5129
  352MOL0     C47428   6.983   1.689   2.559 -0.7710  0.2428  0.6872
  352MOL0    Cl47429   7.008   1.721   2.390  0.3445  0.6080  0.2111
  352MOL0     C47430   6.683   0.979   2.358 -0.0687 -0.4501 -0.5266
  352MOL0     C47431   6.583   0.974   2.261  0.6527  0.2026 -1.4018
  352MOL0     O47432   6.595   0.828   1.864  0.1204 -0.3600 -0.2846
  352MOL0     C47433   6.247   0.824   1.929  0.2862 -0.2019  1.0168
  352MOL0     C47434   6.120   0.774   1.893  0.1326  0.0002 -0.0459
  352MOL0     N47435   5.638   0.385   1.319 -0.1371 -0.4707  0.2064
  352MOL0     N47436   5.569   0.449   1.238  0.1023 -0.3424  0.1619
  352MOL0     C47437   4.284   0.720   1.287  0.3798  0.8880 -0.7705
  352MOL0     C47438   4.168   0.708   1.354  0.6669 -0.0293  0.8459
  352MOL0     C47439   3.891   0.423   1.595  0.6831 -0.4626  0.3224
  352MOL0     C47440   3.796   0.519   1.600  0.0339  0.4147 -0.2219
  352MOL0     C47441   3.668   0.502   1.652 -0.3438  1.0033  0.5720
  352MOL0     C47442   3.637   0.373   1.687  0.1812  0.1725  0.9919
  352MOL0     O47443   3.507   0.356   1.738 -0.0956 -0.0818  0.6155
  352MOL0     C47444   3.440   0.221   1.734 -0.5316  0.0553  0.4901
  352MOL0     C47445   3.304   0.226   1.673  0.5312 -0.1412  0.0156
  352MOL0     C47446   3.291   0.306   1.539  0.7903 -0.1863 -0.8454
  352MOL0     C47447   3.385   0.273   1.432  0.5673 -1.0150  0.3701
  352MOL0     C47448   3.366   0.367   1.325 -0.1788 -0.7413  0.7720
  352MOL0     C47449   3.334   0.415   1.207 -0.4615 -0.6959  0.1043
  352MOL0     C47450   3.732   0.271   1.680  0.6122 -0.0218 -0.5315
  352MOL0     C47451   3.865   0.296   1.641 -0.4827 -0.6782 -0.3099
  352MOL0     C47452   3.958   0.176   1.661  0.0167  0.0417  0.1072
  352MOL0     H47453   4.298   0.559   1.639 -2.8771 -3.6095 -0.6217
  352MOL0     H47454   4.492   0.609   1.530  0.4161 -1.4184 -1.2271
  352MOL0     H47455   4.654   0.709   1.391  0.2278 -0.4681 -0.6998
  352MOL0     H47456   4.623   0.555   1.337  0.0416 -0.4276 -2.1681
  352MOL0     H47457   4.736   0.726   1.116 -1.5864  0.4591  0.3336
  352MOL0     H47458   4.783   0.555   1.169  2.5599  0.4066  1.3531
  352MOL0     H47459   4.890   0.630   1.368 -4.2932  1.0015  1.1720
  352MOL0     H47460   4.864   0.792   1.313  1.1216  1.2518 -3.3427
  352MOL0     H47461   5.001   0.566   1.175 -2.0868 -0.1187 -0.3082
  352MOL0     H47462   5.006   0.741   1.108  2.4586  1.7011  1.5437
  352MOL0     H47463   5.127   0.810   1.312 -0.2756 -0.3337  1.6945
  352MOL0     H47464   5.123   0.645   1.367  2.4873 -1.4426 -0.4304
  352MOL0     H47465   5.282   0.562   1.223  3.4399 -0.1403 -1.4083
  352MOL0     H47466   5.259   0.674   1.090 -1.8997 -0.7841 -0.3384
  352MOL0     H47467   5.368   0.764   1.362  0.0458  0.4411 -0.1914
  352MOL0     H47468   5.341   0.849   1.219 -2.1658  0.0626  2.4287
  352MOL0     H47469   5.546   0.702   1.111  0.3738 -0.4015 -0.6066
  352MOL0     H47470   5.587   0.769   1.264 -3.1761  0.4621  3.6827
  352MOL0     H47471   5.577   0.653   1.499 -2.0233  2.9324 -3.4733
  352MOL0     H47472   5.658   0.292   1.587  1.7534 -2.2009  0.2241
  352MOL0     H47473   5.813   0.340   1.528  1.2717  1.0576  3.0122
  352MOL0     H47474   5.743   0.572   1.632 -0.9531 -0.5634 -1.8571
  352MOL0     H47475   5.632   0.469   1.722 -1.4741 -1.9170 -3.6573
  352MOL0     H47476   5.840   0.307   1.766  1.6583  0.2363 -2.3079
  352MOL0     H47477   5.818   0.456   1.862  0.0123  0.0631  0.2163
  352MOL0     H47478   5.992   0.463   1.621 -0.4371 -0.3641  0.1754
  352MOL0     H47479   6.063   0.401   1.765  0.1199 -0.9635 -2.0846
  352MOL0     H47480   6.247   0.538   1.690  1.3741 -0.0059  0.0300
  352MOL0     H47481   6.459   0.622   1.771  1.1050  0.1197  2.7114
  352MOL0     H47482   6.745   0.780   2.027  1.4462 -1.4704  1.2301
  352MOL0     H47483   6.927   0.808   2.189  0.2076  0.4208  1.0465
  352MOL0     H47484   7.060   0.855   2.360  1.7100 -0.6262  4.6427
  352MOL0     H47485   7.063   1.030   2.317  0.1239  3.0098  2.0357
  352MOL0     H47486   7.055   0.943   2.617  2.3974 -1.4695  1.3256
  352MOL0     H47487   7.209   0.961   2.530  0.2263  2.0133  0.2330
  352MOL0     H47488   7.150   1.165   2.649 -0.4737  1.5923  0.2883
  352MOL0     H47489   7.181   1.183   2.478  1.6952  0.6168  2.0741
  352MOL0     H47490   6.901   1.152   2.586  0.4452  1.2800  2.3215
  352MOL0     H47491   6.953   1.218   2.429 -0.2236 -1.0425  0.4433
  352MOL0     H47492   6.987   1.335   2.706 -1.3756 -3.7216  0.5012
  352MOL0     H47493   6.866   1.389   2.588  0.5133 -0.8617 -1.4741
  352MOL0     H47494   7.171   1.405   2.568 -1.2808  0.8534  1.2099
  352MOL0     H47495   7.076   1.468   2.431  0.9925  0.7994  0.7759
  352MOL0     H47496   7.173   1.625   2.603 -1.4457 -0.2655  0.8071
  352MOL0     H47497   7.054   1.555   2.717  1.7853 -2.6552  1.6490
  352MOL0     H47498   6.877   1.662   2.561 -1.3384  1.9201 -1.9330
  352MOL0     H47499   7.008   1.776   2.620  2.1924  0.2446 -0.3730
  352MOL0     H47500   6.664   1.016   2.459  1.0379 -1.3280  0.0344
  352MOL0     H47501   6.488   1.026   2.269  0.2996 -0.4907 -0.9888
  352MOL0     H47502   6.245   0.916   1.986 -2.6973  0.2353  0.3613
  352MOL0     H47503   6.028   0.809   1.939  0.6907  1.8291 -0.2543
  352MOL0     H47504   4.276   0.778   1.195  1.4730  1.2583 -0.6478
  352MOL0     H47505   4.071   0.744   1.320  1.6474  1.5147 -0.4639
  352MOL0     H47506   3.825   0.615   1.557 -4.0189  0.7531 -2.7181
  352MOL0     H47507   3.596   0.583   1.655 -1.3776  0.1418 -0.2941
  352MOL0     H47508   3.438   0.175   1.833  2.3076  0.0078  0.6046
  352MOL0     H47509   3.507   0.157   1.676 -0.0121 -0.7682  1.9436
  352MOL0     H47510   3.246   0.287   1.744  1.0145  0.8514 -0.4165
  352MOL0     H47511   3.259   0.128   1.657  2.7338 -0.7300 -3.7942
  352MOL0     H47512   3.311   0.410   1.566  0.5971 -0.3786  0.0617
  352MOL0     H47513   3.190   0.299   1.498  0.4390  2.3231 -0.5332
  352MOL0     H47514   3.492   0.280   1.455  0.7296  1.1875 -0.8312
  352MOL0     H47515   3.358   0.176   1.391  1.8541 -0.5997 -1.5946
  352MOL0     H47516   3.316   0.455   1.109  1.7887 -0.5052 -0.2958
  352MOL0     H47517   3.699   0.170   1.703 -1.9743  0.1474 -2.9174
  352MOL0     H47518   3.907   0.097   1.717 -0.6492 -0.7477 -1.5186
  352MOL0     H47519   3.987   0.142   1.561 -0.1509  2.4873 -0.8449
  352MOL0     H47520   4.050   0.205   1.713 -1.4112  4.3418  0.5747
  353MOL0     O47521   4.305   7.075   0.254 -0.2066 -0.3040  0.1728
  353MOL0     C47522   4.218   7.113   0.330  0.9139 -0.4264  0.3278
  353MOL0     O47523   4.236   7.210   0.421  0.4861 -0.1786 -0.4194
  353MOL0     C47524   4.358   7.273   0.444  0.6502 -0.1408  0.2797
  353MOL0     C47525   4.444   7.322   0.341  0.1639  0.3220 -0.5691
  353MOL0     C47526   4.564   7.372   0.375 -0.6847 -0.7530  0.2304
  353MOL0     C47527   4.598   7.403   0.507 -1.0748  0.4116  0.5414
  353MOL0     O47528   4.716   7.452   0.551 -0.0033  1.1798 -0.3718
  353MOL0     C47529   4.833   7.408   0.476  0.8401 -0.1751 -0.7973
  353MOL0     C47530   4.941   7.425   0.586  0.6260  0.5380 -0.1184
  353MOL0     C47531   5.082   7.389   0.545 -0.4289  0.3098 -0.0918
  353MOL0     C47532   5.168   7.422   0.665  0.3830 -0.1149 -0.9684
  353MOL0     C47533   5.310   7.417   0.626  0.5471 -1.0974 -0.3540
  353MOL0     C47534   5.417   7.461   0.736 -0.4508  0.4338  0.0278
  353MOL0     C47535   5.463   7.335   0.820 -0.4343  0.0217  0.7821
  353MOL0     C47536   5.567   7.251   0.745  0.1377 -1.0591 -0.8904
  353MOL0     N47537   5.610   7.133   0.822  0.2959  0.2767  0.3440
  353MOL0     C47538   5.592   7.119   0.959 -0.0205  0.2355 -0.8841
  353MOL0     C47539   5.660   7.002   0.979  0.6408 -0.7545 -0.0245
  353MOL0     C47540   5.677   6.925   1.109  0.9777  0.0597  0.3945
  353MOL0     C47541   5.594   6.794   1.120  0.6780  0.3458 -0.1899
  353MOL0     C47542   5.648   6.697   1.222  0.5851 -0.9916 -0.0957
  353MOL0     C47543   5.576   6.563   1.213  0.5771 -0.2676  0.0869
  353MOL0     O47544   5.624   6.484   1.324  0.1299  0.0665  0.4709
  353MOL0     C47545   5.534   6.387   1.376 -0.0921 -0.7802 -0.2194
  353MOL0     C47546   5.556   6.344   1.505 -0.2307 -0.3897 -0.2115
  353MOL0     C47547   5.486   6.239   1.568 -0.3758 -0.3091 -0.3269
  353MOL0     C47548   5.375   6.181   1.504  0.1296  0.2406  0.0682
  353MOL0     C47549   5.307   6.066   1.560  0.1140  0.2969  0.5328
  353MOL0     O47550   5.247   5.990   1.473  0.4742 -0.0081 -0.0625
  353MOL0     C47551   5.147   5.899   1.494  0.6201 -0.0135  0.3982
  353MOL0     C47552   5.086   5.885   1.619 -0.0729  1.0300  0.3667
  353MOL0     C47553   4.982   5.799   1.636  0.3630  0.7856 -0.4854
  353MOL0     C47554   4.934   5.725   1.525 -0.6486 -0.3592  0.0500
  353MOL0     O47555   4.843   5.618   1.526 -0.6947 -0.5399  0.2957
  353MOL0     C47556   4.756   5.619   1.631  0.3238  0.4591  0.3177
  353MOL0     C47557   4.794   5.526   1.736 -0.3925  0.2348 -0.5828
  353MOL0     C47558   4.687   5.477   1.825 -0.4550 -0.5780 -0.3443
  353MOL0     C47559   4.623   5.352   1.750  0.5442 -0.2258  0.5725
  353MOL0     C47560   4.481   5.303   1.800  0.3462 -0.9882  0.7419
  353MOL0     C47561   4.376   5.411   1.806  0.0771 -0.3728  0.2465
  353MOL0     C47562   4.329   5.472   1.669 -0.7717  0.1862  0.2046
  353MOL0     C47563   4.264   5.612   1.694 -0.3918  0.3114 -0.3589
  353MOL0    Cl47564   4.392   5.743   1.714 -0.2660  0.1840 -0.3304
  353MOL0     C47565   4.997   5.735   1.398  0.4791  0.0123  0.3093
  353MOL0     C47566   5.104   5.824   1.384 -0.4366 -0.6380  0.7153
  353MOL0     O47567   5.332   6.040   1.674  0.0193  0.3071 -0.3015
  353MOL0     C47568   5.346   6.228   1.376  0.1902 -0.6912  0.7956
  353MOL0     C47569   5.417   6.341   1.324 -0.6380  0.0509  0.4124
  353MOL0     N47570   5.700   6.951   0.865 -0.4372  0.6560 -0.6226
  353MOL0     N47571   5.660   7.023   0.765  0.5144 -0.0978  1.1864
  353MOL0     C47572   4.507   7.367   0.606  0.2202 -0.2632  0.7996
  353MOL0     C47573   4.387   7.309   0.572  0.8426  0.1797  0.5963
  353MOL0     C47574   4.093   7.029   0.333 -0.2086  0.3497  0.9534
  353MOL0     C47575   4.087   6.909   0.262 -0.4343 -0.6985  0.3317
  353MOL0     C47576   3.975   6.830   0.262  0.1662 -0.2939  0.4677
  353MOL0     C47577   3.869   6.858   0.349  0.4515  0.2781 -0.9247
  353MOL0     O47578   3.765   6.761   0.376 -0.1353  0.0607 -0.4947
  353MOL0     C47579   3.788   6.624   0.333 -0.1503  0.6443  0.6640
  353MOL0     C47580   3.724   6.516   0.417 -0.0166  0.0980 -0.2727
  353MOL0     C47581   3.569   6.535   0.454  0.9737  0.6996 -0.6287
  353MOL0     C47582   3.515   6.417   0.532  0.6641  0.1857 -0.6751
  353MOL0     C47583   3.378   6.415   0.578  0.2924 -0.9843  0.5431
  353MOL0     C47584   3.258   6.411   0.611 -0.4136 -0.4916  0.2198
  353MOL0     C47585   3.870   6.980   0.411 -0.5726  1.0875  0.8028
  353MOL0     C47586   3.978   7.065   0.404  0.3045  0.7444  0.8751
  353MOL0     C47587   3.959   7.197   0.473 -0.3996 -0.6848 -0.6019
  353MOL0     H47588   4.409   7.291   0.243  1.7519 -0.3390 -0.9574
  353MOL0     H47589   4.634   7.413   0.304 -1.2040  1.9840  1.1723
  353MOL0     H47590   4.823   7.304   0.441  1.4397 -0.2586 -0.7217
  353MOL0     H47591   4.851   7.475   0.392  0.7028  0.4847 -0.3105
  353MOL0     H47592   4.915   7.363   0.671  1.0742 -1.5174 -1.4149
  353MOL0     H47593   4.941   7.528   0.623  1.5244  1.1743 -1.7681
  353MOL0     H47594   5.109   7.443   0.454  3.9954  0.0191  0.8230
  353MOL0     H47595   5.092   7.281   0.531  1.5102  0.3671  0.5336
  353MOL0     H47596   5.143   7.525   0.694  0.2928 -0.2189 -0.6711
  353MOL0     H47597   5.149   7.360   0.753 -2.0141 -0.4061 -1.6313
  353MOL0     H47598   5.333   7.315   0.594  0.7307 -0.8809 -0.9443
  353MOL0     H47599   5.319   7.484   0.539  2.1217  1.2122  1.4588
  353MOL0     H47600   5.507   7.504   0.691  0.2571 -1.1171 -0.0948
  353MOL0     H47601   5.357   7.529   0.797 -2.8270 -0.6516 -0.9434
  353MOL0     H47602   5.379   7.270   0.847 -1.1799 -0.1380 -1.6500
  353MOL0     H47603   5.509   7.381   0.907  1.2946  1.6964 -0.9148
  353MOL0     H47604   5.530   7.230   0.645 -3.8779  1.3244 -0.1426
  353MOL0     H47605   5.659   7.309   0.732 -0.0199 -0.7408 -0.6085
  353MOL0     H47606   5.540   7.174   1.037 -0.1439  0.1257 -0.8876
  353MOL0     H47607   5.784   6.904   1.114  1.4754  2.5165  2.0167
  353MOL0     H47608   5.656   6.988   1.196  3.8105 -0.7857  1.8169
  353MOL0     H47609   5.491   6.824   1.141  0.6206 -1.1606  1.9585
  353MOL0     H47610   5.602   6.751   1.020 -0.7388 -0.2308 -0.0832
  353MOL0     H47611   5.635   6.735   1.324  0.8367  2.4649 -1.2371
  353MOL0     H47612   5.754   6.682   1.201  0.8612  0.1649  0.4049
  353MOL0     H47613   5.612   6.519   1.120  0.6010 -2.9857  1.2895
  353MOL0     H47614   5.468   6.582   1.207  0.6457 -0.3207 -2.9976
  353MOL0     H47615   5.641   6.375   1.566  1.5452 -3.3089 -0.9943
  353MOL0     H47616   5.529   6.201   1.660 -1.9477 -0.9355  0.1891
  353MOL0     H47617   5.119   5.956   1.695 -1.0897  1.3019  0.5649
  353MOL0     H47618   4.949   5.779   1.738  2.1635 -2.0407 -0.3484
  353MOL0     H47619   4.743   5.717   1.677  1.6944  1.8755 -2.0976
  353MOL0     H47620   4.658   5.585   1.596  0.5221 -2.6948  2.4092
  353MOL0     H47621   4.851   5.444   1.693  0.4050  1.7379 -2.5380
  353MOL0     H47622   4.860   5.582   1.804  0.9934 -1.0845 -0.7858
  353MOL0     H47623   4.728   5.450   1.922 -0.1820 -1.8151 -0.7919
  353MOL0     H47624   4.607   5.552   1.822 -0.3315 -0.4281 -3.2263
  353MOL0     H47625   4.701   5.276   1.764  1.7533  1.1913  2.0294
  353MOL0     H47626   4.609   5.372   1.644  1.8967 -3.6994 -0.3997
  353MOL0     H47627   4.487   5.268   1.904 -2.3793 -1.9602  0.6689
  353MOL0     H47628   4.443   5.219   1.741  0.3124 -1.4459  1.4080
  353MOL0     H47629   4.282   5.371   1.847 -0.0659  1.2613  1.5964
  353MOL0     H47630   4.400   5.496   1.869  0.6149 -1.3153  1.3483
  353MOL0     H47631   4.244   5.411   1.635 -1.4046  0.8502  0.5750
  353MOL0     H47632   4.401   5.466   1.587 -2.8219 -0.5615 -1.6340
  353MOL0     H47633   4.197   5.636   1.612 -1.6527 -1.4842  0.0689
  353MOL0     H47634   4.211   5.605   1.790 -0.5644  2.1819 -0.2978
  353MOL0     H47635   4.947   5.685   1.316 -1.4250  0.8428  0.8893
  353MOL0     H47636   5.158   5.828   1.290 -0.3745  0.1533  0.7803
  353MOL0     H47637   5.260   6.183   1.328 -0.6443  1.5901 -0.0022
  353MOL0     H47638   5.394   6.385   1.227 -0.3224  0.0984  0.3600
  353MOL0     H47639   4.538   7.383   0.709  0.6234  1.4510  0.4354
  353MOL0     H47640   4.319   7.281   0.652  1.4004  3.0580  2.2203
  353MOL0     H47641   4.180   6.874   0.218 -0.9956  0.0536 -1.5459
  353MOL0     H47642   3.983   6.734   0.212 -1.5652  0.4194 -1.3305
  353MOL0     H47643   3.895   6.602   0.344 -0.4915 -1.1029  0.7762
  353MOL0     H47644   3.762   6.610   0.228 -0.2710 -1.4495  0.9140
  353MOL0     H47645   3.775   6.522   0.514 -0.1151  0.6924 -0.2509
  353MOL0     H47646   3.739   6.414   0.379 -3.3700 -0.6086 -0.0131
  353MOL0     H47647   3.511   6.544   0.361  1.6654 -2.2842 -1.4473
  353MOL0     H47648   3.567   6.618   0.525  0.4732  0.0328  0.1576
  353MOL0     H47649   3.539   6.322   0.484  0.6034 -1.7844  2.8614
  353MOL0     H47650   3.562   6.419   0.631 -1.8656  0.6779  0.5846
  353MOL0     H47651   3.156   6.391   0.637 -1.1502 -1.0956 -2.7224
  353MOL0     H47652   3.799   7.006   0.489 -2.0490  0.1004 -0.1594
  353MOL0     H47653   3.855   7.204   0.508 -0.2598  1.1849 -0.4602
  353MOL0     H47654   4.032   7.204   0.553 -0.2102 -1.4218 -0.7017
  353MOL0     H47655   3.973   7.280   0.403  0.3734 -1.9228 -1.9610
  354MOL0     O47656  10.201   5.058   0.032 -0.4222 -0.3733 -0.5250
  354MOL0     C47657  10.114   5.118   0.089  1.0499  0.2880  0.2335
  354MOL0     O47658  10.114   5.260   0.100 -0.7501 -0.3844 -0.3487
  354MOL0     C47659  10.212   5.330   0.035  0.0189 -0.1312  0.1169
  354MOL0     C47660  10.237   5.315  -0.100  0.8436 -0.9689  0.0188
  354MOL0     C47661  10.341   5.393  -0.160  0.0449 -0.9630 -0.5708
  354MOL0     C47662  10.421   5.481  -0.079  0.1493 -0.2046  0.2487
  354MOL0     O47663  10.514   5.579  -0.118  0.0649  0.0149 -0.4944
  354MOL0     C47664  10.543   5.561  -0.257  0.9990  0.5464 -0.4589
  354MOL0     C47665  10.690   5.613  -0.278 -0.4806  0.2780 -0.4680
  354MOL0     C47666  10.709   5.761  -0.274  0.2620 -0.3062 -0.4330
  354MOL0     C47667  10.862   5.786  -0.293 -0.8070  0.0297  0.6545
  354MOL0     C47668  10.882   5.934  -0.331  0.1205 -0.4820 -1.2563
  354MOL0     C47669  11.023   5.980  -0.359  0.0273 -0.5744 -0.1136
  354MOL0     C47670  11.121   5.883  -0.435 -0.1123  0.3068  0.1372
  354MOL0     C47671  11.268   5.948  -0.436 -0.7855  0.0856  0.5531
  354MOL0     N47672  11.345   5.869  -0.529  0.0509  0.5781 -0.2964
  354MOL0     C47673  11.424   5.772  -0.479 -0.8878  0.2289  0.8784
  354MOL0     C47674  11.459   5.699  -0.594 -0.3847  0.4892  0.4700
  354MOL0     C47675  11.542   5.575  -0.614  0.5213  0.5403 -0.5154
  354MOL0     C47676  11.684   5.616  -0.582 -0.1186 -0.4987 -0.5474
  354MOL0     C47677  11.762   5.489  -0.560 -0.7577 -0.9837  0.2808
  354MOL0     C47678  11.908   5.512  -0.520 -0.5004  0.6799  0.8311
  354MOL0     O47679  11.979   5.388  -0.538  0.3215  0.0415 -0.2677
  354MOL0     C47680  12.106   5.385  -0.493 -0.5531 -0.0795 -0.4163
  354MOL0     C47681  12.131   5.312  -0.371  0.1185 -0.1230 -0.3355
  354MOL0     C47682  12.257   5.308  -0.321 -0.6137 -0.0378  0.3708
  354MOL0     C47683  12.366   5.364  -0.400  0.1834  0.1755  0.6447
  354MOL0     C47684  12.508   5.358  -0.358  0.9808  0.0331  0.5493
  354MOL0     O47685  12.606   5.411  -0.437  0.5973  0.1481  0.7770
  354MOL0     C47686  12.729   5.405  -0.388 -0.0388 -0.0178 -0.0516
  354MOL0     C47687  12.800   5.291  -0.421  0.3586 -0.1549 -0.5206
  354MOL0     C47688  12.932   5.279  -0.396  0.3749 -0.1773 -0.6450
  354MOL0     C47689  13.006   5.387  -0.330  0.6540 -0.5602 -0.2496
  354MOL0     O47690  13.139   5.374  -0.289 -0.2632  0.4078 -0.7963
  354MOL0     C47691  13.221   5.487  -0.286 -0.7554 -0.2434 -0.1137
  354MOL0     C47692  13.359   5.449  -0.241 -0.2532  0.1094 -0.0583
  354MOL0     C47693  13.438   5.359  -0.337 -0.1720  0.2423  0.6267
  354MOL0     C47694  13.574   5.315  -0.276 -0.4954 -0.3567  0.4637
  354MOL0     C47695  13.658   5.220  -0.374  0.2353 -0.7382 -0.5219
  354MOL0     C47696  13.740   5.105  -0.301  0.3103  0.0868 -0.7132
  354MOL0     C47697  13.829   5.171  -0.194  0.4439  0.8302  0.6859
  354MOL0     C47698  13.886   5.059  -0.117 -0.4741  0.8089 -0.6777
  354MOL0    Cl47699  13.971   5.116   0.032  0.0068  0.5405 -0.5959
  354MOL0     C47700  12.933   5.509  -0.314  0.0779  0.2439  0.3899
  354MOL0     C47701  12.796   5.518  -0.344 -0.2431 -0.6068  0.4918
  354MOL0     O47702  12.522   5.308  -0.249 -0.1764 -0.5831 -0.6865
  354MOL0     C47703  12.333   5.443  -0.517 -0.6647  0.3946 -0.1960
  354MOL0     C47704  12.203   5.441  -0.564 -0.1321 -0.3432  1.1668
  354MOL0     N47705  11.410   5.766  -0.707 -0.3720  0.8276 -0.2360
  354MOL0     N47706  11.340   5.872  -0.668 -0.6037 -0.1814 -0.3728
  354MOL0     C47707  10.395   5.483   0.055  0.3353  0.1016  0.4994
  354MOL0     C47708  10.289   5.413   0.116  0.0228 -0.2126  0.2788
  354MOL0     C47709  10.013   5.032   0.147 -0.2312  1.2434  1.1442
  354MOL0     C47710  10.045   4.894   0.176  0.2230  0.1525  0.0560
  354MOL0     C47711   9.970   4.801   0.249 -0.0452  0.8426 -0.3913
  354MOL0     C47712   9.848   4.844   0.293 -0.4115  0.3299 -0.2942
  354MOL0     O47713   9.763   4.768   0.371 -0.2672  0.4297 -0.8475
  354MOL0     C47714   9.758   4.622   0.373  0.4473  0.3050 -0.0860
  354MOL0     C47715   9.675   4.582   0.251  0.7855 -0.4300  0.9253
  354MOL0     C47716   9.535   4.650   0.251 -0.2190 -0.0858  0.1945
  354MOL0     C47717   9.430   4.609   0.138 -0.3023 -0.2691 -0.2473
  354MOL0     C47718   9.366   4.483   0.170 -1.2292  0.3125  0.4270
  354MOL0     C47719   9.314   4.375   0.178 -0.1801  0.0669 -0.5087
  354MOL0     C47720   9.810   4.982   0.270  0.6755 -0.2281 -0.3345
  354MOL0     C47721   9.882   5.072   0.188  0.1135 -0.2816 -0.7962
  354MOL0     C47722   9.826   5.214   0.162  0.0279  0.9540  0.3811
  354MOL0     H47723  10.175   5.248  -0.160 -0.4623 -1.2843  1.6556
  354MOL0     H47724  10.357   5.373  -0.265  0.6361 -2.6722 -0.1974
  354MOL0     H47725  10.563   5.459  -0.291  4.0282  1.4719 -1.7813
  354MOL0     H47726  10.471   5.612  -0.322 -0.6903 -1.8114 -0.5792
  354MOL0     H47727  10.725   5.564  -0.369  0.2847 -4.1076  1.9334
  354MOL0     H47728  10.751   5.570  -0.198 -0.8025 -0.5964 -0.6818
  354MOL0     H47729  10.688   5.794  -0.172 -0.6941  0.0205 -0.7252
  354MOL0     H47730  10.647   5.819  -0.343 -0.9030  1.2559  1.7958
  354MOL0     H47731  10.910   5.768  -0.196  0.7231  2.1139  0.3676
  354MOL0     H47732  10.913   5.734  -0.374  1.8106  0.6247  1.8170
  354MOL0     H47733  10.818   5.948  -0.419 -1.5489 -4.3896 -0.8539
  354MOL0     H47734  10.839   5.992  -0.249  1.8159 -0.2904 -0.4599
  354MOL0     H47735  11.008   6.070  -0.420 -2.7105 -1.7364 -1.3426
  354MOL0     H47736  11.053   6.014  -0.260  1.2725 -0.4453 -0.5184
  354MOL0     H47737  11.085   5.860  -0.536  0.4042 -0.9523  0.2190
  354MOL0     H47738  11.131   5.786  -0.384  3.1664 -0.1356 -1.0837
  354MOL0     H47739  11.265   6.054  -0.466 -0.3247  1.0600  3.5956
  354MOL0     H47740  11.305   5.940  -0.333 -0.2686 -2.6586  0.2110
  354MOL0     H47741  11.446   5.743  -0.376  0.3885  0.6855  0.7450
  354MOL0     H47742  11.504   5.507  -0.538 -0.5998  0.4168 -1.1677
  354MOL0     H47743  11.537   5.531  -0.714 -3.6630  2.6986 -1.5026
  354MOL0     H47744  11.749   5.679  -0.645  2.0470 -0.8578  1.1890
  354MOL0     H47745  11.680   5.667  -0.485  2.0961 -0.1555 -0.5838
  354MOL0     H47746  11.764   5.434  -0.655  2.6423  2.6382 -2.0568
  354MOL0     H47747  11.708   5.424  -0.491 -2.7643 -0.1590 -0.4323
  354MOL0     H47748  11.900   5.534  -0.413  0.8359 -2.5049  1.7390
  354MOL0     H47749  11.954   5.593  -0.576  0.2949  1.4102  2.4713
  354MOL0     H47750  12.049   5.276  -0.310  1.8299 -1.2320  1.4048
  354MOL0     H47751  12.263   5.260  -0.224 -1.8385  1.9942  1.5300
  354MOL0     H47752  12.739   5.208  -0.455 -2.5037  1.6697 -0.2579
  354MOL0     H47753  12.989   5.188  -0.413  0.8186 -0.0252 -0.0127
  354MOL0     H47754  13.234   5.529  -0.385  1.3567  1.6322  0.8854
  354MOL0     H47755  13.180   5.554  -0.210 -0.5156  2.0498 -1.9020
  354MOL0     H47756  13.418   5.539  -0.221  0.7500 -1.0764  2.8809
  354MOL0     H47757  13.342   5.398  -0.146 -2.1324  0.0030 -0.4109
  354MOL0     H47758  13.373   5.273  -0.354  0.9868 -0.8088  1.2970
  354MOL0     H47759  13.451   5.414  -0.430  0.3429  0.6282  0.9201
  354MOL0     H47760  13.559   5.269  -0.178  0.8785  0.8563  1.3035
  354MOL0     H47761  13.636   5.404  -0.260  0.5619 -0.9142 -0.3464
  354MOL0     H47762  13.716   5.291  -0.433 -1.4858  0.2755 -1.0655
  354MOL0     H47763  13.582   5.172  -0.437 -2.0460 -1.5920  2.6072
  354MOL0     H47764  13.668   5.032  -0.261  1.9413 -2.7566 -2.5948
  354MOL0     H47765  13.806   5.053  -0.371  2.2240 -0.0361  1.0634
  354MOL0     H47766  13.767   5.232  -0.129  1.0321 -1.5851  3.7500
  354MOL0     H47767  13.909   5.228  -0.242  0.4862  0.2850  0.0947
  354MOL0     H47768  13.823   4.973  -0.090  1.8797 -1.4381 -1.8301
  354MOL0     H47769  13.962   5.016  -0.183  0.9690 -0.4020  1.6397
  354MOL0     H47770  12.963   5.603  -0.270 -4.6369  2.2181  0.0113
  354MOL0     H47771  12.747   5.615  -0.343  4.7538  2.2658  0.6676
  354MOL0     H47772  12.409   5.507  -0.560 -0.7934  1.2375  0.7899
  354MOL0     H47773  12.168   5.502  -0.647  2.2857  0.1608  0.4571
  354MOL0     H47774  10.457   5.555   0.107 -0.8199 -0.5184  2.8759
  354MOL0     H47775  10.264   5.434   0.219 -1.9889  2.8426 -0.6916
  354MOL0     H47776  10.148   4.864   0.161  0.3183  0.7132 -0.4277
  354MOL0     H47777  10.013   4.703   0.267  0.6164  0.4323 -3.5018
  354MOL0     H47778   9.724   4.592   0.473  0.9624  3.5916  1.2342
  354MOL0     H47779   9.853   4.568   0.364  1.6245  1.9234  1.7038
  354MOL0     H47780   9.663   4.474   0.241  0.9908 -0.5052  1.4443
  354MOL0     H47781   9.720   4.611   0.155  0.4123  1.7384  1.3481
  354MOL0     H47782   9.547   4.757   0.234 -0.0197 -0.2251 -0.5496
  354MOL0     H47783   9.493   4.636   0.351 -0.4990  0.5271  0.1664
  354MOL0     H47784   9.349   4.683   0.137 -1.8577 -1.8885 -1.6040
  354MOL0     H47785   9.470   4.616   0.037 -0.4861  1.6523 -0.2403
  354MOL0     H47786   9.257   4.285   0.188 -0.8506  0.6342  1.0131
  354MOL0     H47787   9.717   5.019   0.314  1.6097 -1.7260  3.2687
  354MOL0     H47788   9.900   5.294   0.170  0.7532  0.3324  0.0467
  354MOL0     H47789   9.791   5.216   0.059 -3.5134 -2.2794  1.3031
  354MOL0     H47790   9.740   5.221   0.229 -0.0152  4.5186  0.1154
  355MOL0     O47791   4.690   4.738   9.596 -0.0900  0.4124 -0.2152
  355MOL0     C47792   4.736   4.790   9.499 -0.5887  0.2705 -1.8047
  355MOL0     O47793   4.867   4.768   9.441  0.3522 -0.4666 -0.0543
  355MOL0     C47794   4.956   4.695   9.520 -1.5733  0.7945 -0.2472
  355MOL0     C47795   4.998   4.735   9.648 -1.1016 -0.7413  0.2925
  355MOL0     C47796   5.061   4.654   9.736 -0.0974 -0.0110  0.4142
  355MOL0     C47797   5.099   4.524   9.696 -0.7672 -0.1080 -0.3541
  355MOL0     O47798   5.159   4.443   9.794 -1.2854  0.1584 -0.5409
  355MOL0     C47799   5.243   4.340   9.751 -0.2412 -0.5571  0.1343
  355MOL0     C47800   5.322   4.278   9.874 -0.2369  0.6612  0.2497
  355MOL0     C47801   5.341   4.126   9.858  0.4086  0.1039  0.1855
  355MOL0     C47802   5.421   4.082   9.984  1.3362 -0.5833 -0.1677
  355MOL0     C47803   5.461   3.936   9.975  0.6391  0.0478  0.3146
  355MOL0     C47804   5.538   3.895  10.095 -0.9582  0.2368 -0.9073
  355MOL0     C47805   5.451   3.837  10.208  0.4580 -0.4336 -0.4451
  355MOL0     C47806   5.528   3.821  10.339 -0.9343  0.5412  0.8771
  355MOL0     N47807   5.465   3.723  10.425 -0.0234  0.2289  0.4493
  355MOL0     C47808   5.478   3.587  10.403 -0.5112  1.3407 -0.0602
  355MOL0     C47809   5.399   3.527  10.484  0.2813 -0.3014 -0.3557
  355MOL0     C47810   5.389   3.379  10.491 -0.1581  0.1137 -0.3824
  355MOL0     C47811   5.365   3.322  10.355  0.6725  0.6235 -0.2033
  355MOL0     C47812   5.354   3.162  10.354 -0.5720 -0.0323 -0.2075
  355MOL0     C47813   5.302   3.101  10.221  0.3731 -0.1161  0.0234
  355MOL0     O47814   5.374   3.138  10.101  0.1673 -0.5294 -0.3298
  355MOL0     C47815   5.313   3.242  10.027 -0.1039  0.2348 -0.3259
  355MOL0     C47816   5.188   3.225   9.979  0.2868  0.1263 -0.5601
  355MOL0     C47817   5.116   3.322   9.917 -0.1669 -0.6618 -0.4286
  355MOL0     C47818   5.185   3.437   9.877  0.1242  0.6611 -0.5405
  355MOL0     C47819   5.120   3.550   9.813  0.2436  0.2621  0.2044
  355MOL0     O47820   5.203   3.662   9.797  0.3848 -0.1324  0.4491
  355MOL0     C47821   5.185   3.762   9.699  0.0378  0.9575  0.0053
  355MOL0     C47822   5.067   3.836   9.681 -0.7479  0.2880  0.9096
  355MOL0     C47823   5.069   3.944   9.588 -0.9464  0.1979 -0.0313
  355MOL0     C47824   5.195   3.981   9.535 -0.5131 -0.7161  0.0088
  355MOL0     O47825   5.213   4.096   9.468 -0.5867  0.1567 -0.3068
  355MOL0     C47826   5.143   4.094   9.337 -0.0489  0.0713 -0.2259
  355MOL0     C47827   5.191   3.998   9.229 -0.0398  0.0221 -0.2081
  355MOL0     C47828   5.332   4.047   9.173  0.5823 -0.4432 -0.3107
  355MOL0     C47829   5.318   4.162   9.072 -0.1668  0.6755  0.5800
  355MOL0     C47830   5.258   4.114   8.935  0.1326 -0.4296 -1.0728
  355MOL0     C47831   5.369   4.068   8.843  0.0471 -0.0467  0.2792
  355MOL0     C47832   5.316   3.997   8.716  0.1138 -0.1259 -0.1598
  355MOL0     C47833   5.439   3.930   8.639 -0.5427  1.5267  0.2634
  355MOL0    Cl47834   5.386   3.854   8.482  0.0727  0.3262  0.2374
  355MOL0     C47835   5.306   3.891   9.546  0.2099  0.2062 -0.1766
  355MOL0     C47836   5.300   3.780   9.627 -0.9185 -0.7037 -0.1976
  355MOL0     O47837   5.008   3.532   9.754  0.4739 -0.1004 -0.0712
  355MOL0     C47838   5.324   3.452   9.921 -0.4721 -0.5489 -0.1643
  355MOL0     C47839   5.381   3.357   9.999 -0.3444  0.0105  0.5919
  355MOL0     N47840   5.338   3.622  10.557  0.0998  0.7692  0.0663
  355MOL0     N47841   5.368   3.738  10.515  0.0935 -0.1287 -0.3445
  355MOL0     C47842   5.064   4.478   9.571  0.4388  0.1512 -0.7193
  355MOL0     C47843   4.997   4.565   9.481  0.0124  0.8664 -0.1371
  355MOL0     C47844   4.646   4.889   9.433  0.1668  0.5172  0.5741
  355MOL0     C47845   4.693   4.937   9.309  0.9494 -0.6797 -0.2818
  355MOL0     C47846   4.620   5.042   9.242  0.2137 -0.7154  0.1658
  355MOL0     C47847   4.513   5.100   9.302  0.8470 -0.1330  0.0548
  355MOL0     O47848   4.467   5.198   9.221 -0.4587  0.0024 -1.4120
  355MOL0     C47849   4.343   5.256   9.241 -0.6470 -0.8483 -0.0967
  355MOL0     C47850   4.225   5.167   9.214  0.3017 -0.6796  0.5857
  355MOL0     C47851   4.086   5.246   9.198 -0.6327  0.2464 -0.2261
  355MOL0     C47852   4.068   5.334   9.077  0.5132  0.4402 -0.6607
  355MOL0     C47853   4.011   5.260   8.963  0.6218  0.0295 -0.7753
  355MOL0     C47854   3.983   5.208   8.858  0.8526  0.0490  0.6336
  355MOL0     C47855   4.456   5.044   9.414 -0.1131 -0.0289 -0.3962
  355MOL0     C47856   4.514   4.928   9.475  0.2685 -0.1874  0.6908
  355MOL0     C47857   4.443   4.875   9.589  0.4067 -0.2244  0.2893
  355MOL0     H47858   4.975   4.836   9.680 -0.7634 -0.1305 -1.3144
  355MOL0     H47859   5.089   4.692   9.834  0.1093 -2.0844  1.2047
  355MOL0     H47860   5.182   4.260   9.708 -0.5857 -0.0268 -0.3730
  355MOL0     H47861   5.309   4.372   9.670 -2.4992  0.3098 -1.4404
  355MOL0     H47862   5.265   4.290   9.966 -2.4405  1.0065 -1.0874
  355MOL0     H47863   5.411   4.342   9.872  1.4342 -1.3400 -4.4455
  355MOL0     H47864   5.386   4.104   9.760 -1.5140 -4.6711  0.0657
  355MOL0     H47865   5.244   4.076   9.866  0.9164 -0.5561  3.4215
  355MOL0     H47866   5.502   4.153  10.001 -0.4489  1.5646 -0.1602
  355MOL0     H47867   5.356   4.092  10.071 -1.3801 -0.4379 -2.0908
  355MOL0     H47868   5.369   3.877   9.966 -0.4409  1.5265  1.1698
  355MOL0     H47869   5.503   3.931   9.874 -0.5759 -0.3311 -0.1831
  355MOL0     H47870   5.597   3.811  10.057 -1.6537  0.4196 -2.5054
  355MOL0     H47871   5.596   3.978  10.136 -0.9787 -1.1590  2.2012
  355MOL0     H47872   5.413   3.739  10.178 -2.5516  0.2771  0.6694
  355MOL0     H47873   5.366   3.904  10.223 -0.4165  0.0947 -5.6821
  355MOL0     H47874   5.628   3.784  10.314 -2.7245 -2.4611 -2.8230
  355MOL0     H47875   5.535   3.918  10.389  1.1673  2.0848 -2.0926
  355MOL0     H47876   5.534   3.529  10.331 -1.8918  0.2720 -0.3105
  355MOL0     H47877   5.483   3.340  10.531  0.4493  2.2116  0.3547
  355MOL0     H47878   5.305   3.352  10.557 -0.4147  1.1642 -0.2658
  355MOL0     H47879   5.268   3.366  10.329 -0.5231 -1.1649  0.9378
  355MOL0     H47880   5.432   3.361  10.278 -1.9162  4.2605 -0.8529
  355MOL0     H47881   5.292   3.120  10.433  0.7217  0.2846  1.0051
  355MOL0     H47882   5.457   3.130  10.371  1.3552  3.2133 -4.0309
  355MOL0     H47883   5.198   3.135  10.209  1.2854  2.3775 -1.3613
  355MOL0     H47884   5.298   2.993  10.237 -1.1946 -0.0453  0.3020
  355MOL0     H47885   5.122   3.140   9.999 -1.3241  0.8214 -2.4952
  355MOL0     H47886   5.014   3.293   9.891 -0.0495 -0.8245 -0.7106
  355MOL0     H47887   4.985   3.804   9.743  0.7052  1.2608  3.5028
  355MOL0     H47888   4.981   4.007   9.575 -0.1639  1.8771  2.1962
  355MOL0     H47889   5.041   4.068   9.365 -0.0284  0.6427  0.3973
  355MOL0     H47890   5.138   4.192   9.290 -0.8121  0.5666  0.8624
  355MOL0     H47891   5.189   3.895   9.265  0.9129  0.6943  1.9231
  355MOL0     H47892   5.117   4.008   9.149 -0.9892  4.0070  0.9564
  355MOL0     H47893   5.404   4.077   9.250  0.1477  2.4562 -0.9047
  355MOL0     H47894   5.391   3.968   9.126  2.9519  0.5091  0.9221
  355MOL0     H47895   5.420   4.196   9.054 -0.1611  1.5177  2.0256
  355MOL0     H47896   5.252   4.242   9.108 -0.9326  1.2548 -1.8986
  355MOL0     H47897   5.205   4.199   8.891 -0.9152 -1.1702 -1.3020
  355MOL0     H47898   5.189   4.029   8.942  0.3190 -0.5896 -1.1820
  355MOL0     H47899   5.423   4.160   8.819 -0.4447  0.1285 -0.1683
  355MOL0     H47900   5.439   4.003   8.896 -0.4576  0.0589  1.0810
  355MOL0     H47901   5.272   4.062   8.640  1.3872 -1.8571 -2.5151
  355MOL0     H47902   5.244   3.918   8.734 -0.6055  0.0953 -1.8661
  355MOL0     H47903   5.518   4.003   8.619 -0.5247  1.8907  1.5936
  355MOL0     H47904   5.476   3.847   8.699  3.2506  2.3220 -0.6967
  355MOL0     H47905   5.396   3.921   9.492  2.2089 -1.8028  1.8197
  355MOL0     H47906   5.396   3.729   9.634 -0.5890 -0.4723 -2.2738
  355MOL0     H47907   5.383   3.542   9.905 -1.1174 -0.1372 -0.2504
  355MOL0     H47908   5.485   3.366  10.029  0.2535  0.6088 -1.4986
  355MOL0     H47909   5.092   4.377   9.542 -1.5052 -0.8629  0.7490
  355MOL0     H47910   4.959   4.535   9.383 -2.5775  0.8974  0.7696
  355MOL0     H47911   4.781   4.898   9.259 -1.7592 -3.8002 -3.1084
  355MOL0     H47912   4.668   5.081   9.153 -2.5909 -1.3191 -1.7396
  355MOL0     H47913   4.338   5.355   9.193  0.2017  1.4844  4.1381
  355MOL0     H47914   4.342   5.274   9.348 -1.4168  0.9893 -0.3769
  355MOL0     H47915   4.206   5.090   9.289 -0.9641  0.4789  1.5146
  355MOL0     H47916   4.255   5.116   9.122  1.0511  0.0366  0.4238
  355MOL0     H47917   4.092   5.309   9.287 -1.7482  0.4904 -0.3172
  355MOL0     H47918   3.994   5.189   9.208  1.5465 -3.3306  1.7147
  355MOL0     H47919   3.996   5.407   9.114 -0.6043 -1.4558  1.1274
  355MOL0     H47920   4.153   5.396   9.048  1.7532 -0.8174  0.1469
  355MOL0     H47921   3.975   5.153   8.766  2.3844  2.3739 -1.0335
  355MOL0     H47922   4.362   5.076   9.458  0.7383  1.3198  0.5228
  355MOL0     H47923   4.433   4.767   9.569  0.0733 -0.2295  0.4902
  355MOL0     H47924   4.479   4.907   9.687  1.9523  1.4351 -0.7531
  355MOL0     H47925   4.342   4.916   9.594  0.0826 -0.7710 -1.1532
  356MOL0     O47926   9.510   6.909   2.674 -0.2927  0.9817  0.0949
  356MOL0     C47927   9.526   6.801   2.729  0.3818 -1.0383 -0.4922
  356MOL0     O47928   9.443   6.701   2.716  0.0586 -0.0395  0.2588
  356MOL0     C47929   9.315   6.711   2.664  0.8416  1.2532  0.0685
  356MOL0     C47930   9.261   6.583   2.661  0.6152 -0.2814 -0.6092
  356MOL0     C47931   9.131   6.563   2.603 -0.4291  0.5582 -1.0007
  356MOL0     C47932   9.046   6.675   2.573 -0.6587 -0.3445  0.7125
  356MOL0     O47933   8.918   6.654   2.519  0.8726  0.4732 -0.2333
  356MOL0     C47934   8.810   6.710   2.593 -0.1476 -0.2832  0.1388
  356MOL0     C47935   8.780   6.615   2.708  0.6616  0.6025 -0.2532
  356MOL0     C47936   8.648   6.659   2.776  0.0201 -0.4261 -0.0411
  356MOL0     C47937   8.651   6.608   2.918 -0.5442 -0.6916 -0.4933
  356MOL0     C47938   8.550   6.658   3.008  0.9252 -0.1320  0.6586
  356MOL0     C47939   8.410   6.657   2.946  0.4102 -0.5153  0.1949
  356MOL0     C47940   8.318   6.680   3.059 -0.1610 -0.0985 -0.0485
  356MOL0     C47941   8.267   6.557   3.126 -0.1440 -0.7024 -0.6477
  356MOL0     N47942   8.352   6.491   3.233 -0.4935 -0.1205 -0.6370
  356MOL0     C47943   8.388   6.557   3.348 -0.2245 -0.9421  0.3604
  356MOL0     C47944   8.467   6.477   3.424  0.9551  0.0330  0.6185
  356MOL0     C47945   8.499   6.515   3.561  0.6721  0.1218 -0.4813
  356MOL0     C47946   8.407   6.446   3.658  0.9254 -0.1621  0.1883
  356MOL0     C47947   8.256   6.441   3.610 -0.1203 -0.6236  0.4193
  356MOL0     C47948   8.188   6.575   3.614 -0.6563 -0.2929 -0.0826
  356MOL0     O47949   8.168   6.604   3.749  0.1038 -0.5899 -0.2826
  356MOL0     C47950   8.098   6.707   3.787 -1.0837 -0.6640 -0.8495
  356MOL0     C47951   8.034   6.795   3.700  0.4539  0.4951 -0.3388
  356MOL0     C47952   7.941   6.892   3.746 -0.0920 -0.0687  0.2071
  356MOL0     C47953   7.909   6.908   3.882 -0.7718 -0.6695 -0.4358
  356MOL0     C47954   7.820   7.016   3.928  0.9131 -0.9712  0.0771
  356MOL0     O47955   7.827   7.069   4.061 -0.0761 -0.4954 -0.2398
  356MOL0     C47956   7.712   7.124   4.109 -0.3159 -0.4668  0.1199
  356MOL0     C47957   7.698   7.262   4.105 -0.3448  0.2263 -0.8955
  356MOL0     C47958   7.593   7.321   4.177  0.6968  0.3023  0.4020
  356MOL0     C47959   7.498   7.235   4.244 -0.5713  0.1997  0.5778
  356MOL0     O47960   7.395   7.300   4.308  0.6665  0.1616  0.3859
  356MOL0     C47961   7.323   7.209   4.393 -0.4158  0.1600 -0.6007
  356MOL0     C47962   7.235   7.293   4.481  0.2216  0.7243  0.5159
  356MOL0     C47963   7.214   7.232   4.629 -0.3559  0.4292 -0.1297
  356MOL0     C47964   7.113   7.307   4.714 -0.3164  0.2437 -0.1371
  356MOL0     C47965   6.977   7.286   4.649  0.4958 -0.0287 -0.0040
  356MOL0     C47966   6.883   7.406   4.659  0.8798  1.2016 -0.0000
  356MOL0     C47967   6.930   7.536   4.582  0.1446  0.3587  0.0239
  356MOL0     C47968   6.923   7.537   4.431 -0.7095 -0.6453 -0.6521
  356MOL0    Cl47969   6.759   7.496   4.375  0.3809  0.6043 -0.2163
  356MOL0     C47970   7.524   7.099   4.244 -0.5305  0.0838  0.2292
  356MOL0     C47971   7.625   7.037   4.172 -0.5267 -0.5546  1.0758
  356MOL0     O47972   7.744   7.064   3.838  0.4057  0.3050 -0.6740
  356MOL0     C47973   7.966   6.811   3.969  0.3283 -0.6286 -0.1380
  356MOL0     C47974   8.060   6.713   3.925  0.5695  0.1491 -0.4413
  356MOL0     N47975   8.486   6.359   3.348 -0.1610 -0.1180  0.4957
  356MOL0     N47976   8.422   6.372   3.231 -0.2436  0.1084 -0.4885
  356MOL0     C47977   9.105   6.795   2.597  1.0113 -0.0757 -0.0759
  356MOL0     C47978   9.241   6.818   2.627 -0.0899  0.4129 -0.3307
  356MOL0     C47979   9.658   6.769   2.786 -0.1602 -0.2878 -1.3510
  356MOL0     C47980   9.773   6.821   2.727  1.4190 -0.1162 -0.0147
  356MOL0     C47981   9.903   6.785   2.768 -0.7384 -0.4935  0.6376
  356MOL0     C47982   9.921   6.700   2.878 -0.1373 -0.4275  0.9320
  356MOL0     O47983  10.042   6.649   2.926  0.0008 -0.4592 -0.2049
  356MOL0     C47984  10.157   6.722   2.892  0.4020 -0.6380 -0.4100
  356MOL0     C47985  10.267   6.655   2.971 -0.0745 -0.8165 -0.6515
  356MOL0     C47986  10.266   6.664   3.125 -0.0080  0.0098 -0.2109
  356MOL0     C47987  10.383   6.614   3.201  0.0572  0.9883 -0.1401
  356MOL0     C47988  10.498   6.696   3.196  0.3198 -0.9160 -0.3423
  356MOL0     C47989  10.594   6.770   3.189  0.1364 -0.7679  1.0269
  356MOL0     C47990   9.809   6.662   2.944 -0.6015  0.2274  0.2010
  356MOL0     C47991   9.673   6.687   2.905 -0.1671 -0.7900  0.4194
  356MOL0     C47992   9.567   6.630   2.997 -0.0295  0.3744  0.0655
  356MOL0     H47993   9.318   6.499   2.698  3.2067  0.8342 -1.8430
  356MOL0     H47994   9.101   6.460   2.590 -0.8781  0.3485  1.3042
  356MOL0     H47995   8.843   6.806   2.631  3.5580 -1.1372 -0.5647
  356MOL0     H47996   8.722   6.728   2.531 -0.3909 -1.0891  0.2332
  356MOL0     H47997   8.860   6.610   2.781  0.2243  0.3103  0.2136
  356MOL0     H47998   8.766   6.510   2.681 -0.6945  0.2917  1.4917
  356MOL0     H47999   8.552   6.631   2.731  0.7027 -1.2969 -0.9621
  356MOL0     H48000   8.647   6.769   2.780  0.9237 -0.4393  1.6145
  356MOL0     H48001   8.653   6.499   2.906  0.8644 -0.8175  0.5408
  356MOL0     H48002   8.749   6.637   2.959 -0.9194 -0.5901  0.3453
  356MOL0     H48003   8.550   6.596   3.098 -3.1100  2.4094  2.7199
  356MOL0     H48004   8.576   6.760   3.037 -2.0443  0.7404  0.5733
  356MOL0     H48005   8.388   6.741   2.879 -1.2856 -1.1089 -0.0457
  356MOL0     H48006   8.392   6.559   2.901 -1.8916 -0.2371  0.3789
  356MOL0     H48007   8.225   6.731   3.032 -0.4662  0.3627  1.7496
  356MOL0     H48008   8.367   6.748   3.129  2.0635  0.8236 -2.3428
  356MOL0     H48009   8.178   6.595   3.177  1.3266 -0.5977  1.9806
  356MOL0     H48010   8.241   6.485   3.048  2.2732 -0.1184 -2.0762
  356MOL0     H48011   8.358   6.658   3.373 -1.9608 -0.9489 -1.4714
  356MOL0     H48012   8.605   6.505   3.584  0.8716  3.6895  0.6693
  356MOL0     H48013   8.494   6.624   3.563  0.7993  0.1567 -1.5039
  356MOL0     H48014   8.451   6.347   3.670  2.0752  0.5399  2.4405
  356MOL0     H48015   8.416   6.491   3.758 -1.3840 -1.3253  0.9970
  356MOL0     H48016   8.203   6.368   3.672 -1.0620 -0.1982  0.1345
  356MOL0     H48017   8.253   6.392   3.512  1.3753 -1.0217  0.5405
  356MOL0     H48018   8.094   6.575   3.558  1.7102 -2.2839 -4.5121
  356MOL0     H48019   8.259   6.646   3.572  2.0490 -2.8377 -0.1702
  356MOL0     H48020   8.062   6.798   3.595 -0.3114  1.9287 -0.5344
  356MOL0     H48021   7.889   6.946   3.668  0.9538 -0.9817 -1.1657
  356MOL0     H48022   7.783   7.320   4.069  1.1387  0.4592  2.5780
  356MOL0     H48023   7.569   7.426   4.187 -3.8169 -0.5948  1.5000
  356MOL0     H48024   7.271   7.133   4.334 -2.1496 -0.9612  2.1893
  356MOL0     H48025   7.393   7.154   4.456  0.0739 -0.0199 -1.2878
  356MOL0     H48026   7.280   7.392   4.493 -2.8472  1.8896  5.5154
  356MOL0     H48027   7.141   7.295   4.426  0.5675  0.9799 -0.0669
  356MOL0     H48028   7.186   7.129   4.606  1.1695  0.1023 -0.6599
  356MOL0     H48029   7.308   7.215   4.683 -0.2771 -0.7686 -0.6242
  356MOL0     H48030   7.137   7.413   4.704  0.6039  0.0461 -0.1730
  356MOL0     H48031   7.105   7.271   4.817  0.4102 -1.1379 -0.5366
  356MOL0     H48032   6.932   7.199   4.697  1.7075  0.8618  3.0647
  356MOL0     H48033   6.982   7.263   4.543 -2.5047 -0.2347 -0.1742
  356MOL0     H48034   6.781   7.381   4.628  0.8050  2.2254 -0.6359
  356MOL0     H48035   6.878   7.433   4.765  3.1011  0.6746  0.3041
  356MOL0     H48036   7.028   7.568   4.618  0.2231  0.9383 -0.6788
  356MOL0     H48037   6.870   7.624   4.603 -1.7827 -0.2274 -2.5176
  356MOL0     H48038   6.951   7.637   4.397 -5.3496  0.7148 -1.0768
  356MOL0     H48039   6.994   7.468   4.385  0.0355 -1.4116  1.5006
  356MOL0     H48040   7.458   7.025   4.288  1.3023 -2.8356 -1.5857
  356MOL0     H48041   7.639   6.930   4.170 -2.1363 -0.8034 -1.6754
  356MOL0     H48042   7.929   6.820   4.071 -2.8523 -1.0812 -1.1307
  356MOL0     H48043   8.089   6.632   3.990  1.7876  1.4984  0.7800
  356MOL0     H48044   9.048   6.885   2.576 -0.2884 -0.3789  1.8624
  356MOL0     H48045   9.293   6.913   2.617  0.0624  0.1281 -2.9004
  356MOL0     H48046   9.763   6.882   2.637  0.3841 -1.0168 -0.5325
  356MOL0     H48047   9.986   6.827   2.713 -0.1919 -1.3221  0.8072
  356MOL0     H48048  10.164   6.827   2.922 -3.5072  0.2006 -1.7923
  356MOL0     H48049  10.174   6.720   2.784  1.8504  0.1549 -0.2207
  356MOL0     H48050  10.361   6.703   2.946 -1.1013  1.4799 -0.3159
  356MOL0     H48051  10.274   6.552   2.934  0.7145  0.1998 -3.5681
  356MOL0     H48052  10.166   6.632   3.155 -0.7369  2.2635 -0.0144
  356MOL0     H48053  10.262   6.766   3.166 -1.9958 -0.2373  0.3135
  356MOL0     H48054  10.361   6.603   3.308  3.2324  1.3452  0.6501
  356MOL0     H48055  10.421   6.524   3.151  0.4395  1.8484 -1.4422
  356MOL0     H48056  10.672   6.844   3.190  0.6018 -1.2509  1.5613
  356MOL0     H48057   9.833   6.602   3.031  0.5889  1.7438  0.9617
  356MOL0     H48058   9.587   6.619   3.104 -0.3089 -0.3321  0.0491
  356MOL0     H48059   9.474   6.689   2.994 -0.0396  0.5159  1.9072
  356MOL0     H48060   9.536   6.536   2.951  4.2527  0.6406 -4.1310
  357MOL0     O48061   1.279   9.208   0.663 -0.4965  0.3237 -0.3952
  357MOL0     C48062   1.233   9.241   0.554  0.5746  0.5940  0.1149
  357MOL0     O48063   1.294   9.325   0.456  1.0824  0.4315  0.8047
  357MOL0     C48064   1.396   9.405   0.504 -0.1056  0.4766 -0.0518
  357MOL0     C48065   1.523   9.354   0.529 -0.1079 -0.6562  0.5403
  357MOL0     C48066   1.619   9.444   0.574  0.3152 -0.4536  0.1292
  357MOL0     C48067   1.588   9.576   0.613  0.2003 -0.1911 -0.3353
  357MOL0     O48068   1.672   9.660   0.689  0.4559 -0.4579 -0.1309
  357MOL0     C48069   1.811   9.637   0.693  0.1357  0.4432  0.0216
  357MOL0     C48070   1.898   9.765   0.733 -0.2987  0.5492  0.3995
  357MOL0     C48071   1.871   9.895   0.642 -0.3725  0.1884 -0.9696
  357MOL0     C48072   1.936  10.018   0.708 -0.4635 -0.7137 -0.1737
  357MOL0     C48073   2.085  10.020   0.690 -0.1942 -1.4948  0.7009
  357MOL0     C48074   2.146  10.161   0.716 -0.3236 -0.9226  0.7033
  357MOL0     C48075   2.297  10.166   0.703 -0.1323  0.6148  0.2308
  357MOL0     C48076   2.347  10.193   0.563 -0.5757  0.8406 -0.4160
  357MOL0     N48077   2.491  10.181   0.549  0.7569 -0.1269 -1.3639
  357MOL0     C48078   2.589  10.277   0.576 -0.5783 -0.9977  0.3023
  357MOL0     C48079   2.704  10.229   0.531  0.0082  0.3587  0.2811
  357MOL0     C48080   2.840  10.279   0.537 -0.1226 -0.3849  0.5383
  357MOL0     C48081   2.879  10.394   0.423 -0.1529  0.1048 -0.8049
  357MOL0     C48082   2.893  10.344   0.275  0.0933  0.5710 -0.0788
  357MOL0     C48083   3.014  10.254   0.252 -0.4129 -0.0385  0.1151
  357MOL0     O48084   3.142  10.324   0.267  0.2302  0.0144  0.4535
  357MOL0     C48085   3.254  10.275   0.208 -0.3136  0.3186  0.3552
  357MOL0     C48086   3.258  10.170   0.113 -0.8248 -0.6967  0.5065
  357MOL0     C48087   3.376  10.123   0.049 -0.7431 -0.9042  0.5647
  357MOL0     C48088   3.495  10.191   0.065 -0.2634  0.1842 -0.7840
  357MOL0     C48089   3.617  10.165  -0.014  0.3774 -0.7469  0.1913
  357MOL0     O48090   3.738  10.231   0.019  0.4689  0.3579  0.0311
  357MOL0     C48091   3.843  10.226  -0.065 -0.3002 -0.3632  0.0400
  357MOL0     C48092   3.869  10.330  -0.154  0.3213  0.3620  0.1363
  357MOL0     C48093   3.982  10.328  -0.235 -0.4278 -0.0782 -0.0559
  357MOL0     C48094   4.076  10.228  -0.229 -0.1720  0.5405  0.4277
  357MOL0     O48095   4.183  10.224  -0.306 -0.4220 -0.4619 -0.0767
  357MOL0     C48096   4.218  10.338  -0.385  0.4993 -0.6406  0.3983
  357MOL0     C48097   4.349  10.317  -0.455 -0.5847  0.1503  0.3575
  357MOL0     C48098   4.473  10.313  -0.357  0.2269 -0.9059  0.2370
  357MOL0     C48099   4.594  10.290  -0.446  0.2705 -0.3097 -0.4901
  357MOL0     C48100   4.719  10.259  -0.371 -0.6440 -0.4724 -0.0474
  357MOL0     C48101   4.713  10.129  -0.283 -0.3243 -0.3004 -0.4540
  357MOL0     C48102   4.853  10.100  -0.216  0.2534  0.0219  0.7805
  357MOL0     C48103   4.839   9.996  -0.112  0.0481  0.2298 -0.1625
  357MOL0    Cl48104   4.765  10.047   0.041 -0.0835 -0.4000 -0.2219
  357MOL0     C48105   4.054  10.132  -0.132 -0.2647 -0.1091 -0.0244
  357MOL0     C48106   3.942  10.131  -0.058 -0.1210 -0.6209  0.4970
  357MOL0     O48107   3.613  10.078  -0.101  0.7003  0.1180  0.3704
  357MOL0     C48108   3.492  10.297   0.153  1.0304 -1.4950 -0.5733
  357MOL0     C48109   3.377  10.329   0.227 -0.5255 -0.3258  0.0757
  357MOL0     N48110   2.676  10.105   0.473  0.7204 -0.2153 -0.0375
  357MOL0     N48111   2.554  10.075   0.490  0.5677  0.6330  0.5940
  357MOL0     C48112   1.463   9.621   0.582  0.1370  0.0425 -0.8538
  357MOL0     C48113   1.364   9.533   0.526 -1.1737 -1.1131 -0.0507
  357MOL0     C48114   1.109   9.164   0.514 -0.7103  0.1806  0.7953
  357MOL0     C48115   1.072   9.161   0.375  0.2114  0.0562  0.1248
  357MOL0     C48116   0.956   9.085   0.331  0.6710 -0.7543 -0.1615
  357MOL0     C48117   0.883   9.015   0.422  0.0095 -0.3355  0.3714
  357MOL0     O48118   0.780   8.935   0.391  0.2803  0.0982 -0.1549
  357MOL0     C48119   0.744   8.900   0.257 -0.8923  0.2519  0.5431
  357MOL0     C48120   0.727   8.741   0.250  0.3765  0.0379  1.1823
  357MOL0     C48121   0.680   8.673   0.122  0.6819  0.0568 -0.1257
  357MOL0     C48122   0.559   8.734   0.047  0.3928 -0.5278 -0.2289
  357MOL0     C48123   0.449   8.773   0.138  0.2191  0.2973  0.4115
  357MOL0     C48124   0.357   8.787   0.217 -0.8724  0.3333 -0.1023
  357MOL0     C48125   0.913   9.025   0.559 -0.0577 -0.0385 -0.4988
  357MOL0     C48126   1.021   9.098   0.603  0.5356  0.1043  0.3145
  357MOL0     C48127   1.035   9.091   0.753 -0.0575  0.0964 -1.3652
  357MOL0     H48128   1.554   9.250   0.519 -1.1098 -0.9669  0.5891
  357MOL0     H48129   1.724   9.419   0.584  1.3361  2.2179 -2.4662
  357MOL0     H48130   1.831   9.556   0.763 -0.2778 -0.3244 -0.7354
  357MOL0     H48131   1.848   9.606   0.595 -2.3454  1.8637 -1.5014
  357MOL0     H48132   2.004   9.740   0.728 -0.1599  0.7667  1.9437
  357MOL0     H48133   1.870   9.786   0.836 -0.4789 -1.9650  0.9163
  357MOL0     H48134   1.763   9.904   0.638 -0.6314 -1.4341  0.7810
  357MOL0     H48135   1.901   9.889   0.537 -1.8332 -1.6454 -1.3402
  357MOL0     H48136   1.890  10.103   0.657  2.9951  0.0291 -2.3553
  357MOL0     H48137   1.914  10.020   0.816  1.7712 -1.4880  0.3480
  357MOL0     H48138   2.137   9.946   0.751 -2.2774 -2.5493  1.3122
  357MOL0     H48139   2.100   9.994   0.585 -0.6296  1.0838 -0.0863
  357MOL0     H48140   2.116  10.240   0.646  1.6519 -0.5890  0.1573
  357MOL0     H48141   2.118  10.182   0.819  1.0021 -1.7913  1.2601
  357MOL0     H48142   2.348  10.079   0.745 -0.1425  0.9219  0.8856
  357MOL0     H48143   2.328  10.251   0.765 -3.7922  2.2247  0.1492
  357MOL0     H48144   2.301  10.134   0.483  2.6734  0.4422 -2.1589
  357MOL0     H48145   2.317  10.295   0.538  0.4254  0.9011 -1.4427
  357MOL0     H48146   2.594  10.373   0.627  2.0394 -0.9577  0.1096
  357MOL0     H48147   2.855  10.317   0.638  1.3798 -0.1033  0.2345
  357MOL0     H48148   2.920  10.207   0.525 -0.0933 -0.1212 -1.0739
  357MOL0     H48149   2.805  10.474   0.414 -2.1399 -1.6358 -0.7332
  357MOL0     H48150   2.960  10.453   0.465 -2.3496  1.8773  1.2508
  357MOL0     H48151   2.900  10.429   0.208  3.1917 -0.9368 -1.9196
  357MOL0     H48152   2.804  10.285   0.254  0.4862  0.0456 -0.2996
  357MOL0     H48153   3.017  10.228   0.145  1.9989  0.0996  0.0900
  357MOL0     H48154   3.003  10.165   0.314 -0.4896  0.4356  0.7828
  357MOL0     H48155   3.177  10.110   0.071  0.4609 -0.7338 -2.1185
  357MOL0     H48156   3.381  10.050  -0.031 -2.5582  0.2023 -0.6282
  357MOL0     H48157   3.803  10.416  -0.161 -0.3504 -0.0871  0.8997
  357MOL0     H48158   3.988  10.426  -0.281  0.9405 -0.0446  0.1646
  357MOL0     H48159   4.139  10.362  -0.457  0.7086 -2.2029 -0.3849
  357MOL0     H48160   4.238  10.420  -0.315 -0.7548  1.6386 -1.7491
  357MOL0     H48161   4.343  10.228  -0.518 -0.0932 -0.7123  1.5081
  357MOL0     H48162   4.362  10.393  -0.533 -1.6439  0.9040  0.8938
  357MOL0     H48163   4.484  10.407  -0.301  1.2225 -1.8286  1.6515
  357MOL0     H48164   4.469  10.236  -0.279  1.0221  2.3956  3.8554
  357MOL0     H48165   4.618  10.371  -0.515  1.3842 -0.9967 -0.9310
  357MOL0     H48166   4.568  10.207  -0.513 -0.0859 -0.1029 -0.6132
  357MOL0     H48167   4.755  10.342  -0.310 -1.7940 -1.3337  1.8769
  357MOL0     H48168   4.798  10.246  -0.446 -2.9786 -2.6647 -2.3798
  357MOL0     H48169   4.653  10.159  -0.196  3.1504  4.6708  0.6557
  357MOL0     H48170   4.672  10.040  -0.332  2.5554 -0.6895 -2.3941
  357MOL0     H48171   4.893  10.190  -0.167 -2.5459  1.8422 -0.0500
  357MOL0     H48172   4.914  10.072  -0.302 -1.0991 -2.9241  0.6643
  357MOL0     H48173   4.780   9.908  -0.140  1.1183 -1.8811  3.4584
  357MOL0     H48174   4.933   9.951  -0.079 -0.0919  0.6204  0.8030
  357MOL0     H48175   4.125  10.052  -0.115 -0.1027  0.6780  4.1009
  357MOL0     H48176   3.932  10.058   0.022 -2.2283  1.8448  2.7372
  357MOL0     H48177   3.584  10.352   0.166 -0.1105  1.2732 -2.9451
  357MOL0     H48178   3.400  10.410   0.296  3.7220 -1.2535  0.0675
  357MOL0     H48179   1.434   9.724   0.600 -3.9610 -1.1496  0.3114
  357MOL0     H48180   1.265   9.575   0.509  0.1451  1.9294 -0.7316
  357MOL0     H48181   1.150   9.189   0.305  2.6510 -1.8837  1.8743
  357MOL0     H48182   0.946   9.098   0.223  0.2439  2.6537  0.2013
  357MOL0     H48183   0.823   8.932   0.190 -2.3320  1.0153 -0.8483
  357MOL0     H48184   0.653   8.952   0.226 -0.6889  1.1633  1.4348
  357MOL0     H48185   0.661   8.697   0.326  0.1978 -5.7378 -1.7146
  357MOL0     H48186   0.821   8.698   0.285  0.7682  1.1202  1.5029
  357MOL0     H48187   0.659   8.571   0.153 -0.0654  0.0978 -0.4818
  357MOL0     H48188   0.758   8.679   0.045 -1.7054  2.2703 -2.5971
  357MOL0     H48189   0.595   8.823  -0.006  2.9771 -0.2602  1.7492
  357MOL0     H48190   0.507   8.671  -0.025  0.4968  0.5924 -1.3273
  357MOL0     H48191   0.275   8.804   0.283 -0.5861  3.3699 -0.3840
  357MOL0     H48192   0.856   8.962   0.626  0.5457 -0.9689 -0.8295
  357MOL0     H48193   1.027   9.188   0.803  0.2664 -1.9349  3.1466
  357MOL0     H48194   0.959   9.033   0.807 -1.8172  2.8855 -0.6762
  357MOL0     H48195   1.130   9.039   0.768 -0.8608 -1.1075 -0.2452
  358MOL0     O48196  10.192   3.030   2.726 -0.4313 -0.2852 -0.2054
  358MOL0     C48197  10.072   3.015   2.745  0.3806  1.6978  0.1925
  358MOL0     O48198  10.008   2.975   2.860  0.3543  0.0095  0.1904
  358MOL0     C48199  10.095   2.941   2.968  0.2619 -0.0262 -0.4336
  358MOL0     C48200  10.095   2.822   3.035 -0.8105  0.1249 -0.7685
  358MOL0     C48201  10.176   2.803   3.157 -0.1876 -0.2720  0.1966
  358MOL0     C48202  10.250   2.904   3.207 -0.1957  0.4414  0.2611
  358MOL0     O48203  10.309   2.882   3.330 -0.6786  0.2039  0.2061
  358MOL0     C48204  10.416   2.973   3.362 -0.3591  0.6779  0.1325
  358MOL0     C48205  10.484   2.917   3.493 -0.1655  0.3550 -0.3604
  358MOL0     C48206  10.595   3.007   3.551  0.4677 -0.3995  0.0437
  358MOL0     C48207  10.685   2.927   3.650  0.7190 -0.4394  0.7644
  358MOL0     C48208  10.797   3.019   3.706 -0.1882  0.6140 -0.0295
  358MOL0     C48209  10.923   3.025   3.611  0.0437  0.2044  0.1003
  358MOL0     C48210  11.036   3.119   3.650 -0.1437 -0.7268 -0.5508
  358MOL0     C48211  11.160   3.095   3.573  0.0540  0.8070 -0.3285
  358MOL0     N48212  11.145   3.094   3.422 -0.6061 -0.3359  0.0247
  358MOL0     C48213  11.175   2.997   3.323  0.4865 -0.7695 -0.3149
  358MOL0     C48214  11.164   3.072   3.210  0.1775  0.0503 -0.9032
  358MOL0     C48215  11.168   3.028   3.066 -0.3978  0.3195 -1.3173
  358MOL0     C48216  11.294   3.025   2.997 -0.6406  0.5033 -0.2423
  358MOL0     C48217  11.332   3.163   2.940 -0.2120 -0.0216 -0.0205
  358MOL0     C48218  11.470   3.158   2.891 -0.5125 -0.0596  0.7233
  358MOL0     O48219  11.515   3.035   2.828  0.7857 -0.1753 -0.8602
  358MOL0     C48220  11.643   3.021   2.783  0.3457 -1.1986  0.3600
  358MOL0     C48221  11.677   2.911   2.709  0.1764 -0.9780 -0.1089
  358MOL0     C48222  11.811   2.886   2.658 -0.1850 -0.6201 -0.3482
  358MOL0     C48223  11.912   2.988   2.680  0.6086  0.3045 -0.6920
  358MOL0     C48224  12.055   2.957   2.647  0.4788 -0.3954 -0.6422
  358MOL0     O48225  12.079   2.853   2.566 -0.0753  0.4578 -0.1430
  358MOL0     C48226  12.203   2.850   2.512 -0.6584  0.1436  0.0520
  358MOL0     C48227  12.303   2.782   2.575  0.1271  0.9949 -0.4096
  358MOL0     C48228  12.424   2.785   2.531 -1.0000  0.4472  0.3519
  358MOL0     C48229  12.463   2.866   2.415  0.7083  0.0151  0.2841
  358MOL0     O48230  12.580   2.858   2.348  0.0586  0.2960  0.3148
  358MOL0     C48231  12.695   2.784   2.393 -0.6681 -0.3245  0.8233
  358MOL0     C48232  12.769   2.854   2.505  0.0065  0.5078  0.6753
  358MOL0     C48233  12.913   2.806   2.514 -0.3969  0.0494  0.5119
  358MOL0     C48234  12.977   2.836   2.653 -0.5676 -0.2133 -0.0730
  358MOL0     C48235  13.098   2.744   2.677 -0.4602 -0.6343  0.6643
  358MOL0     C48236  13.180   2.815   2.784  0.2934  0.5841  0.4296
  358MOL0     C48237  13.313   2.741   2.800 -0.7011 -0.9435  0.2573
  358MOL0     C48238  13.410   2.811   2.893  0.9255 -0.7716 -0.0364
  358MOL0    Cl48239  13.360   2.774   3.068 -0.0314 -0.2202  0.0762
  358MOL0     C48240  12.359   2.940   2.359 -0.2409 -0.2939  0.1111
  358MOL0     C48241  12.232   2.934   2.405  0.5404  0.7372 -0.7872
  358MOL0     O48242  12.140   3.041   2.695  0.2493 -0.1326 -0.2772
  358MOL0     C48243  11.871   3.100   2.748 -0.0597 -0.0335  0.0356
  358MOL0     C48244  11.745   3.113   2.807  1.1689  0.0647  0.0115
  358MOL0     N48245  11.121   3.200   3.233  0.7325  1.5544 -0.4727
  358MOL0     N48246  11.106   3.211   3.358 -0.2594 -1.4575  0.1776
  358MOL0     C48247  10.253   3.023   3.133 -0.0172  0.3474 -1.1518
  358MOL0     C48248  10.177   3.044   3.017  0.7530 -0.0603 -0.3512
  358MOL0     C48249   9.974   3.042   2.638 -0.1559  1.0404  0.3376
  358MOL0     C48250   9.837   3.024   2.653 -0.1190 -0.6305  0.1107
  358MOL0     C48251   9.744   3.071   2.566  0.3959  0.7134  0.2239
  358MOL0     C48252   9.788   3.141   2.447  1.2534  0.3244 -0.6676
  358MOL0     O48253   9.701   3.172   2.347  0.3867 -0.3278  0.6162
  358MOL0     C48254   9.565   3.200   2.384  0.6639  0.5052 -0.4930
  358MOL0     C48255   9.470   3.228   2.266 -0.2195  0.0905  0.9116
  358MOL0     C48256   9.429   3.102   2.193  0.3185 -0.8087  0.3918
  358MOL0     C48257   9.419   3.116   2.040 -0.1328  0.2792 -0.1354
  358MOL0     C48258   9.395   2.973   1.983 -0.1378 -0.3305 -0.0279
  358MOL0     C48259   9.353   2.870   1.923 -0.6970 -0.0093 -0.5838
  358MOL0     C48260   9.916   3.178   2.441 -0.0981  0.0726 -0.3870
  358MOL0     C48261  10.014   3.132   2.535 -0.8096 -0.1813 -0.3595
  358MOL0     C48262  10.153   3.179   2.495 -0.0355 -0.4170 -0.1795
  358MOL0     H48263  10.042   2.735   2.999  1.9182 -3.7964  3.6401
  358MOL0     H48264  10.168   2.716   3.220 -1.0103  0.1065  0.6279
  358MOL0     H48265  10.486   2.993   3.280 -1.3427  5.7098  0.2091
  358MOL0     H48266  10.373   3.072   3.384  1.6606  1.2874  1.7078
  358MOL0     H48267  10.529   2.819   3.471 -0.8696  0.3041 -1.6852
  358MOL0     H48268  10.412   2.896   3.573 -0.3236  1.8143 -0.0984
  358MOL0     H48269  10.553   3.084   3.616 -1.3037 -0.8945 -0.4721
  358MOL0     H48270  10.657   3.050   3.472  0.6664 -1.1250 -0.2017
  358MOL0     H48271  10.624   2.890   3.733 -0.0165 -0.6698  0.1273
  358MOL0     H48272  10.736   2.847   3.596  3.7031  2.9566 -1.9720
  358MOL0     H48273  10.757   3.118   3.726 -2.0634  0.0158 -0.6109
  358MOL0     H48274  10.835   2.976   3.800 -3.3894 -1.2564  0.5679
  358MOL0     H48275  10.960   2.923   3.607  0.1599 -0.1544  4.6739
  358MOL0     H48276  10.898   3.050   3.508  4.9329 -0.1615 -1.3832
  358MOL0     H48277  11.050   3.119   3.759 -2.3457 -1.0096 -0.2086
  358MOL0     H48278  11.009   3.223   3.628 -0.4509 -0.7424 -0.2682
  358MOL0     H48279  11.240   3.165   3.599 -0.0860  0.0326  2.4243
  358MOL0     H48280  11.211   3.003   3.603 -3.0876 -1.4440 -1.3365
  358MOL0     H48281  11.192   2.891   3.340  1.8769 -0.2930  1.6566
  358MOL0     H48282  11.130   2.926   3.055 -1.0769  0.1709  1.5916
  358MOL0     H48283  11.095   3.095   3.018 -0.5081 -0.1045 -1.7445
  358MOL0     H48284  11.369   2.979   3.064  0.2792 -1.1225 -2.2799
  358MOL0     H48285  11.276   2.956   2.914 -1.4799  0.2355  0.1513
  358MOL0     H48286  11.338   3.230   3.027  1.6103 -2.1711  1.6261
  358MOL0     H48287  11.273   3.192   2.852  0.9485 -1.6268 -1.3762
  358MOL0     H48288  11.534   3.177   2.977  0.1607 -2.2172  0.7632
  358MOL0     H48289  11.492   3.238   2.820 -1.6338 -0.2407  0.1398
  358MOL0     H48290  11.611   2.826   2.695 -1.3460  0.3137 -1.3483
  358MOL0     H48291  11.827   2.792   2.607  0.6767 -0.2861 -0.7233
  358MOL0     H48292  12.283   2.709   2.653  4.6225 -0.7803 -0.5971
  358MOL0     H48293  12.500   2.732   2.587 -0.5726 -1.1522 -1.6226
  358MOL0     H48294  12.680   2.681   2.426  0.7796 -1.6715 -2.2211
  358MOL0     H48295  12.768   2.761   2.314 -0.1322 -3.1690  2.0165
  358MOL0     H48296  12.754   2.961   2.493  2.5721  0.8866  0.3431
  358MOL0     H48297  12.716   2.834   2.599 -1.5647  0.3405 -0.2093
  358MOL0     H48298  12.914   2.700   2.488  3.3193  0.4488 -1.6643
  358MOL0     H48299  12.965   2.858   2.433  0.5035 -1.8419 -0.1753
  358MOL0     H48300  12.906   2.808   2.731 -0.8357 -1.1296 -0.6321
  358MOL0     H48301  13.003   2.942   2.662 -2.7615  0.4475 -0.8469
  358MOL0     H48302  13.146   2.736   2.579 -1.3482 -0.0252  0.1595
  358MOL0     H48303  13.057   2.650   2.716 -1.6002 -0.0353  0.9612
  358MOL0     H48304  13.190   2.923   2.767  1.4796  0.4321  0.0455
  358MOL0     H48305  13.133   2.809   2.883 -0.6228  1.2876  0.0544
  358MOL0     H48306  13.366   2.741   2.704 -1.2073 -0.0637 -0.0370
  358MOL0     H48307  13.293   2.635   2.820 -1.0700 -2.1183 -4.8742
  358MOL0     H48308  13.509   2.768   2.877 -0.7720 -5.1843 -0.1097
  358MOL0     H48309  13.413   2.919   2.877 -0.5809 -0.5176  1.0933
  358MOL0     H48310  12.379   2.997   2.269  1.9121  1.2764  1.4956
  358MOL0     H48311  12.145   2.988   2.368 -1.5454 -0.1284  2.3737
  358MOL0     H48312  11.949   3.171   2.774 -0.5752 -0.0566  1.7632
  358MOL0     H48313  11.722   3.205   2.859 -0.2372  0.4556 -1.2229
  358MOL0     H48314  10.313   3.110   3.157  0.6368 -0.8194  2.0219
  358MOL0     H48315  10.183   3.138   2.964  1.1177 -0.2399 -0.6322
  358MOL0     H48316   9.813   2.972   2.745  0.5048 -2.7264 -0.8445
  358MOL0     H48317   9.643   3.033   2.578  0.5071  0.3184 -0.0474
  358MOL0     H48318   9.570   3.285   2.452 -0.3060  1.6602 -1.8186
  358MOL0     H48319   9.530   3.108   2.433  2.1686 -0.4053 -1.0417
  358MOL0     H48320   9.532   3.294   2.205 -1.6996  1.5156  0.9083
  358MOL0     H48321   9.379   3.281   2.294 -2.9763 -1.9648 -3.0964
  358MOL0     H48322   9.338   3.065   2.240 -0.1042 -1.0599 -0.5992
  358MOL0     H48323   9.512   3.033   2.213  0.8132 -0.3131  0.0708
  358MOL0     H48324   9.339   3.186   2.016 -0.8217  0.3348  2.0913
  358MOL0     H48325   9.513   3.152   1.998  0.3528  1.5199  1.8694
  358MOL0     H48326   9.342   2.774   1.876 -0.9766 -1.1018  1.5486
  358MOL0     H48327   9.940   3.237   2.353  1.3136 -2.8318 -2.0715
  358MOL0     H48328  10.156   3.253   2.414  0.1367 -1.4646 -1.1530
  358MOL0     H48329  10.197   3.227   2.583  0.2705 -1.2583  0.1269
  358MOL0     H48330  10.209   3.090   2.468 -0.8797 -1.3497  1.0659
  359MOL0     O48331   3.061   1.700   5.782  0.1071  0.6721  0.3050
  359MOL0     C48332   2.960   1.735   5.846 -0.3228 -0.1153 -1.6902
  359MOL0     O48333   2.964   1.806   5.963 -0.7200 -0.1797  0.6246
  359MOL0     C48334   3.072   1.819   6.040  0.0136  0.1738  0.2280
  359MOL0     C48335   3.164   1.721   6.047 -0.5076 -0.3323 -0.3409
  359MOL0     C48336   3.263   1.749   6.137  0.7918 -0.1322 -0.0639
  359MOL0     C48337   3.269   1.854   6.216 -0.2279 -0.0652 -0.9308
  359MOL0     O48338   3.386   1.862   6.293 -0.4786 -0.4645 -0.2982
  359MOL0     C48339   3.413   1.980   6.362  0.3409  0.2225  0.0117
  359MOL0     C48340   3.517   1.950   6.464  0.4933  0.4885 -0.7516
  359MOL0     C48341   3.655   1.917   6.395  0.4950 -0.4930  0.0829
  359MOL0     C48342   3.757   1.898   6.507 -0.1731  0.1417 -0.2326
  359MOL0     C48343   3.901   1.881   6.440 -0.1545  0.1260 -0.3283
  359MOL0     C48344   4.016   1.852   6.543 -0.0046 -0.1053 -1.4111
  359MOL0     C48345   4.149   1.813   6.472  0.6234  0.4752 -0.7414
  359MOL0     C48346   4.203   1.921   6.378 -0.7532 -0.3640  0.1809
  359MOL0     N48347   4.349   1.901   6.366 -0.1580  0.2425 -0.3900
  359MOL0     C48348   4.426   1.908   6.249  0.1656  0.8681  0.0222
  359MOL0     C48349   4.549   1.905   6.296 -0.5399  0.1832 -0.5559
  359MOL0     C48350   4.658   1.877   6.193 -0.2770  0.3823  0.3674
  359MOL0     C48351   4.682   2.002   6.102 -0.0432  0.3882  0.1422
  359MOL0     C48352   4.801   1.968   6.006  0.1045 -0.1142  0.3234
  359MOL0     C48353   4.780   1.853   5.912  0.6388  0.0654  0.4927
  359MOL0     O48354   4.875   1.884   5.806 -0.9604 -0.1535 -0.0531
  359MOL0     C48355   5.006   1.834   5.803  1.0914  0.2698 -0.2890
  359MOL0     C48356   5.083   1.878   5.698  0.8702 -0.3308  0.6394
  359MOL0     C48357   5.212   1.824   5.665  0.2913  0.5095 -0.2646
  359MOL0     C48358   5.261   1.732   5.756 -0.3175  0.3315  0.8403
  359MOL0     C48359   5.401   1.679   5.735 -0.7016 -0.5746  0.2041
  359MOL0     O48360   5.464   1.715   5.624  0.9270  0.0750 -0.7370
  359MOL0     C48361   5.601   1.694   5.600  0.2897  0.3987 -0.9362
  359MOL0     C48362   5.666   1.579   5.630 -0.1275  0.0452 -0.7442
  359MOL0     C48363   5.808   1.569   5.606 -0.6527 -1.4881 -0.4542
  359MOL0     C48364   5.883   1.673   5.550  0.1208 -1.0726 -0.2384
  359MOL0     O48365   6.022   1.684   5.532 -0.2564  0.2206 -0.1125
  359MOL0     C48366   6.100   1.626   5.634 -0.6796  0.4443  0.1425
  359MOL0     C48367   6.253   1.642   5.597 -0.5924 -0.4984  0.0475
  359MOL0     C48368   6.314   1.529   5.508  0.6548 -0.4179 -0.0968
  359MOL0     C48369   6.468   1.559   5.502 -0.5275 -0.0098 -1.0609
  359MOL0     C48370   6.534   1.486   5.385 -0.5473 -0.2346 -0.3765
  359MOL0     C48371   6.690   1.503   5.375 -1.1738  0.5902 -0.0118
  359MOL0     C48372   6.752   1.381   5.318  0.6059  0.8024  0.2710
  359MOL0     C48373   6.880   1.406   5.244  0.5606  0.3796  0.5211
  359MOL0    Cl48374   7.001   1.423   5.357 -0.1072 -0.3168  0.2144
  359MOL0     C48375   5.813   1.786   5.507  1.0410 -0.5071  0.4634
  359MOL0     C48376   5.666   1.795   5.529 -0.0095  0.0419 -0.3103
  359MOL0     O48377   5.450   1.620   5.833 -0.6824  0.9266  0.4775
  359MOL0     C48378   5.187   1.699   5.877 -0.8421 -0.5540  0.1472
  359MOL0     C48379   5.062   1.753   5.901  0.8403  0.8383 -0.3377
  359MOL0     N48380   4.555   1.898   6.431 -0.0193  0.1601  0.2260
  359MOL0     N48381   4.435   1.902   6.475  0.2378  0.0128  0.1008
  359MOL0     C48382   3.180   1.961   6.200 -0.4774  0.9731 -1.0248
  359MOL0     C48383   3.072   1.940   6.115  0.4850 -0.1832  0.2043
  359MOL0     C48384   2.832   1.704   5.792  0.2678  0.2922 -0.3774
  359MOL0     C48385   2.833   1.597   5.694 -0.3940  0.3457 -0.2179
  359MOL0     C48386   2.713   1.559   5.642 -1.0770 -0.2785 -0.4575
  359MOL0     C48387   2.593   1.630   5.673 -0.4126 -0.4295  0.7344
  359MOL0     O48388   2.488   1.607   5.590  0.4779  0.9280 -0.1701
  359MOL0     C48389   2.377   1.548   5.654  0.5588  0.4825 -0.3926
  359MOL0     C48390   2.242   1.566   5.576  0.6515  0.1448 -0.6437
  359MOL0     C48391   2.268   1.532   5.431  0.0342  0.2374  1.0397
  359MOL0     C48392   2.148   1.507   5.342  1.0901 -0.2761  0.9366
  359MOL0     C48393   2.079   1.377   5.376 -0.3041  0.2953  0.2077
  359MOL0     C48394   2.017   1.270   5.384  0.5233  0.5119  0.1741
  359MOL0     C48395   2.593   1.744   5.751  0.8096 -0.4789 -0.1994
  359MOL0     C48396   2.714   1.777   5.820  0.9072  0.2165  1.6723
  359MOL0     C48397   2.711   1.894   5.912 -0.1453  0.8176  0.7723
  359MOL0     H48398   3.147   1.634   5.984 -1.5745  0.5515 -1.3300
  359MOL0     H48399   3.354   1.691   6.154 -0.8733 -2.4284  1.5873
  359MOL0     H48400   3.448   2.056   6.290 -1.9165  1.3879  0.0750
  359MOL0     H48401   3.326   2.023   6.411  0.0415  0.9861 -1.1325
  359MOL0     H48402   3.476   1.875   6.532  0.0007  0.5896 -0.9395
  359MOL0     H48403   3.522   2.045   6.517 -4.7410  0.6143 -0.0392
  359MOL0     H48404   3.688   2.007   6.342  0.9738  0.0089  1.1829
  359MOL0     H48405   3.641   1.834   6.326  0.4869 -0.1810 -0.2923
  359MOL0     H48406   3.747   1.980   6.578  2.7395  0.2774  0.1463
  359MOL0     H48407   3.722   1.807   6.557 -2.9167  1.6187  0.6992
  359MOL0     H48408   3.892   1.802   6.365 -2.9578 -0.0642  0.1116
  359MOL0     H48409   3.933   1.978   6.400 -1.7606  0.0324 -1.9503
  359MOL0     H48410   4.047   1.929   6.614  0.5850 -3.0700  1.8091
  359MOL0     H48411   3.981   1.775   6.612 -0.8255  1.8129  0.4020
  359MOL0     H48412   4.134   1.722   6.413 -1.0031 -0.9112  1.6364
  359MOL0     H48413   4.223   1.797   6.551  0.3175  1.7935 -0.1687
  359MOL0     H48414   4.162   1.907   6.278  0.2696 -1.8712 -0.0659
  359MOL0     H48415   4.178   2.022   6.411 -1.5858  0.2744 -2.1822
  359MOL0     H48416   4.402   1.907   6.143  0.9104  0.8399 -0.1538
  359MOL0     H48417   4.752   1.841   6.235 -0.2268  1.2204  1.0117
  359MOL0     H48418   4.620   1.791   6.137 -0.0560 -0.2173  1.1244
  359MOL0     H48419   4.603   2.029   6.033  0.1869 -0.2924 -0.3989
  359MOL0     H48420   4.711   2.086   6.166 -0.5636 -0.0880  1.0381
  359MOL0     H48421   4.882   1.928   6.067 -0.0906  0.3306  0.8744
  359MOL0     H48422   4.827   2.059   5.950  0.2730 -0.1151  0.4016
  359MOL0     H48423   4.682   1.847   5.864  1.9737  1.8340 -2.8509
  359MOL0     H48424   4.805   1.760   5.962  3.6668  1.0909  1.1174
  359MOL0     H48425   5.032   1.944   5.629 -2.2144 -3.2212 -0.1062
  359MOL0     H48426   5.280   1.862   5.589  1.9328  0.2830  1.0145
  359MOL0     H48427   5.614   1.494   5.672 -0.1929  1.1861  1.6805
  359MOL0     H48428   5.853   1.470   5.609  1.7729 -0.4472  0.2735
  359MOL0     H48429   6.081   1.653   5.738 -1.2972 -2.3188  0.8165
  359MOL0     H48430   6.084   1.518   5.635 -4.4943  0.8579 -1.0411
  359MOL0     H48431   6.267   1.741   5.552  1.4657 -1.0681 -0.6892
  359MOL0     H48432   6.311   1.640   5.690 -1.0182 -2.4313  0.3071
  359MOL0     H48433   6.289   1.431   5.548  1.1973 -0.5951 -0.1729
  359MOL0     H48434   6.264   1.539   5.411 -1.6479  0.0759  1.0888
  359MOL0     H48435   6.510   1.522   5.596 -0.8510  1.6646 -0.2188
  359MOL0     H48436   6.479   1.667   5.487 -2.7941  0.2185 -1.4702
  359MOL0     H48437   6.477   1.507   5.294 -3.0161 -0.7149  0.9487
  359MOL0     H48438   6.498   1.385   5.407 -2.5844  0.8201  1.6813
  359MOL0     H48439   6.711   1.595   5.320  1.4041 -0.5611 -1.0957
  359MOL0     H48440   6.737   1.524   5.472  0.0223  0.9833 -0.6594
  359MOL0     H48441   6.676   1.351   5.245 -0.3399 -1.5166  2.0898
  359MOL0     H48442   6.762   1.295   5.385 -2.1411  0.5389  0.4412
  359MOL0     H48443   6.897   1.318   5.181 -0.2731 -0.0146  0.8344
  359MOL0     H48444   6.874   1.490   5.174 -2.6553 -0.8909 -0.9245
  359MOL0     H48445   5.862   1.875   5.469  4.2830 -0.9494  3.1723
  359MOL0     H48446   5.611   1.886   5.507 -0.0377  0.3445  0.8953
  359MOL0     H48447   5.220   1.630   5.955  2.5595  1.2366  0.4674
  359MOL0     H48448   5.006   1.721   5.989 -2.4807 -0.8666 -2.8549
  359MOL0     H48449   3.181   2.057   6.250  1.7643  1.4871 -1.9511
  359MOL0     H48450   2.986   2.004   6.099 -0.8282 -1.8960  0.0801
  359MOL0     H48451   2.923   1.538   5.680  0.1765 -0.1930  4.1362
  359MOL0     H48452   2.703   1.468   5.583 -0.4282 -1.4111  1.1183
  359MOL0     H48453   2.358   1.591   5.752  0.0683  0.8917 -0.6627
  359MOL0     H48454   2.404   1.442   5.664  4.3334  1.4533  1.4552
  359MOL0     H48455   2.214   1.669   5.601  1.1610 -0.4363  2.7209
  359MOL0     H48456   2.161   1.506   5.618  1.0574  1.2665  1.8993
  359MOL0     H48457   2.333   1.444   5.423 -1.1840 -0.5951 -0.3819
  359MOL0     H48458   2.326   1.608   5.379 -0.9468 -0.0549 -0.5566
  359MOL0     H48459   2.072   1.586   5.356  1.9569  0.4016  1.9765
  359MOL0     H48460   2.173   1.519   5.237 -1.6011  3.6637  0.5031
  359MOL0     H48461   1.954   1.184   5.397  2.1379 -0.5555  1.2039
  359MOL0     H48462   2.507   1.810   5.758 -0.1227 -1.7940  1.4007
  359MOL0     H48463   2.713   1.867   6.017  1.2360  2.2334  1.1560
  359MOL0     H48464   2.803   1.953   5.906 -0.3152  1.0523  0.4327
  359MOL0     H48465   2.625   1.957   5.885 -0.4258  0.0214 -0.2720
  360MOL0     O48466   3.651   4.141   3.120  0.2273  1.4924 -0.0224
  360MOL0     C48467   3.608   4.236   3.067  0.3553 -0.8858 -0.5077
  360MOL0     O48468   3.545   4.238   2.940 -0.6622 -0.0267  1.5631
  360MOL0     C48469   3.536   4.129   2.862  0.3033  0.8078  0.2910
  360MOL0     C48470   3.536   4.138   2.718 -0.5950 -1.2597 -0.0682
  360MOL0     C48471   3.506   4.037   2.631 -0.8495 -0.1025 -1.0140
  360MOL0     C48472   3.440   3.924   2.683 -0.5609  0.3117 -0.9135
  360MOL0     O48473   3.399   3.817   2.610  0.2208  0.0043 -0.4454
  360MOL0     C48474   3.399   3.835   2.465 -0.1523 -0.0325 -0.5480
  360MOL0     C48475   3.379   3.695   2.393 -0.0781 -0.3166 -0.2268
  360MOL0     C48476   3.409   3.708   2.244  0.1474 -0.2625  0.2454
  360MOL0     C48477   3.316   3.803   2.174  1.3927  0.2782 -0.6440
  360MOL0     C48478   3.326   3.785   2.025  0.2941  0.6130 -0.9237
  360MOL0     C48479   3.256   3.649   1.972  0.8347 -0.2671  0.8899
  360MOL0     C48480   3.223   3.644   1.826 -0.5045 -0.9417  0.3856
  360MOL0     C48481   3.149   3.766   1.781 -0.4411  0.4506  0.4361
  360MOL0     N48482   3.237   3.866   1.731  0.6183 -0.7313 -1.3427
  360MOL0     C48483   3.376   3.866   1.728 -0.5016 -0.4307 -0.0222
  360MOL0     C48484   3.401   3.971   1.656 -1.2282  0.0801  0.6372
  360MOL0     C48485   3.538   4.019   1.624  0.1213  0.0647  0.1040
  360MOL0     C48486   3.589   4.109   1.738  0.2638  0.1271  1.1471
  360MOL0     C48487   3.734   4.134   1.699 -0.1899 -0.7177  0.4700
  360MOL0     C48488   3.826   4.176   1.816 -0.5694 -0.2117  0.4370
  360MOL0     O48489   3.958   4.209   1.769 -1.1121 -0.3810  0.1082
  360MOL0     C48490   4.054   4.206   1.863 -0.7293  0.8666 -0.2925
  360MOL0     C48491   4.184   4.208   1.816 -0.2040 -0.1049  0.1565
  360MOL0     C48492   4.293   4.227   1.897  0.6652  0.4591  0.2482
  360MOL0     C48493   4.271   4.229   2.038 -0.2512 -0.1987 -0.1419
  360MOL0     C48494   4.379   4.232   2.142 -0.1591 -0.5137  0.6764
  360MOL0     O48495   4.345   4.244   2.273  0.3195  0.4428  0.0234
  360MOL0     C48496   4.441   4.295   2.358 -0.0733 -0.1544  0.0835
  360MOL0     C48497   4.572   4.343   2.330  0.0417 -0.7196  1.0272
  360MOL0     C48498   4.655   4.378   2.431 -0.3925 -0.5574  0.8654
  360MOL0     C48499   4.617   4.369   2.562  0.9388 -0.6443 -0.7169
  360MOL0     O48500   4.705   4.415   2.660 -0.1171 -0.2726 -0.4318
  360MOL0     C48501   4.651   4.460   2.785  0.5506 -0.6637  0.2753
  360MOL0     C48502   4.762   4.532   2.854 -0.8803 -0.7106 -0.0350
  360MOL0     C48503   4.878   4.453   2.900 -0.1023 -0.6068  0.0984
  360MOL0     C48504   4.966   4.531   3.013 -1.0222 -0.5096 -0.0062
  360MOL0     C48505   5.100   4.449   3.031  1.3348 -0.1680  0.0620
  360MOL0     C48506   5.211   4.531   3.092 -0.5076 -0.7147 -0.0248
  360MOL0     C48507   5.327   4.430   3.124 -0.1284  0.0187 -0.4287
  360MOL0     C48508   5.450   4.498   3.187  0.3808  0.3215  0.5081
  360MOL0    Cl48509   5.539   4.608   3.072  0.1165 -0.1427  0.4717
  360MOL0     C48510   4.493   4.321   2.590 -0.4955  0.5325 -0.5705
  360MOL0     C48511   4.406   4.287   2.488  0.0309  0.0386 -0.0665
  360MOL0     O48512   4.494   4.202   2.098  0.0698 -0.0391 -0.5216
  360MOL0     C48513   4.144   4.213   2.085 -0.1912  0.4261  0.2261
  360MOL0     C48514   4.033   4.208   1.999 -0.5720  0.1761  0.0602
  360MOL0     N48515   3.283   4.023   1.602 -0.4766 -0.5995  0.5698
  360MOL0     N48516   3.188   3.968   1.659 -0.2192 -0.6304 -0.1169
  360MOL0     C48517   3.430   3.907   2.820  0.4456  0.1069  0.0975
  360MOL0     C48518   3.481   4.003   2.908  0.6987 -0.5958  0.0430
  360MOL0     C48519   3.643   4.381   3.111  0.7730  0.0920 -1.3336
  360MOL0     C48520   3.671   4.473   3.019 -0.1128  0.6765  0.3361
  360MOL0     C48521   3.719   4.598   3.055 -0.4633  0.0519 -1.0465
  360MOL0     C48522   3.731   4.633   3.192  0.6204 -1.1308  0.6373
  360MOL0     O48523   3.769   4.766   3.226  0.4811  0.9694 -0.0181
  360MOL0     C48524   3.681   4.864   3.178  0.2763 -0.1336 -0.9341
  360MOL0     C48525   3.537   4.851   3.236 -0.2530  0.4538  0.0777
  360MOL0     C48526   3.444   4.955   3.185  0.8041 -0.1846 -0.4559
  360MOL0     C48527   3.372   4.919   3.049 -0.8242 -0.0726 -0.2299
  360MOL0     C48528   3.305   5.032   2.988  0.2189  0.2711 -0.0506
  360MOL0     C48529   3.263   5.116   2.914  0.1048  0.4911  0.8518
  360MOL0     C48530   3.690   4.544   3.296 -1.0378  1.0028  0.2193
  360MOL0     C48531   3.665   4.405   3.257 -0.6915 -0.0133  0.4648
  360MOL0     C48532   3.644   4.301   3.359  0.5417 -0.9889 -0.3252
  360MOL0     H48533   3.583   4.224   2.670  2.4773 -2.3964  0.6624
  360MOL0     H48534   3.534   4.058   2.529 -1.0733 -0.9864 -1.2653
  360MOL0     H48535   3.325   3.910   2.436 -1.1040 -0.4190  0.7619
  360MOL0     H48536   3.499   3.865   2.433 -0.0098  0.2777  0.1804
  360MOL0     H48537   3.279   3.656   2.414  0.4337 -1.4150  0.3051
  360MOL0     H48538   3.448   3.623   2.438 -1.6037 -1.3634  0.5152
  360MOL0     H48539   3.407   3.603   2.213  0.0570 -1.4203  3.7844
  360MOL0     H48540   3.510   3.747   2.229  0.1676 -0.3942  0.0296
  360MOL0     H48541   3.213   3.778   2.201  0.9773  2.1781 -0.3365
  360MOL0     H48542   3.329   3.909   2.197 -0.6723  0.2604  0.8479
  360MOL0     H48543   3.261   3.863   1.983 -0.5017  0.7404  0.4734
  360MOL0     H48544   3.428   3.786   1.988 -0.1819 -0.6128 -2.3800
  360MOL0     H48545   3.315   3.565   2.009 -0.7193 -1.3349  1.0699
  360MOL0     H48546   3.160   3.639   2.025  1.9640 -2.9788  2.6620
  360MOL0     H48547   3.152   3.562   1.813 -3.0561  1.1865  0.0654
  360MOL0     H48548   3.310   3.630   1.760 -0.4537  2.4419 -0.4447
  360MOL0     H48549   3.082   3.746   1.697 -0.8416  1.6966  0.4339
  360MOL0     H48550   3.086   3.786   1.867 -1.0232 -3.5562  1.1170
  360MOL0     H48551   3.449   3.799   1.772  0.0741 -0.4376 -0.9603
  360MOL0     H48552   3.598   3.928   1.616 -2.3799 -2.0389  2.9863
  360MOL0     H48553   3.534   4.080   1.533  3.3380  0.5649  0.1932
  360MOL0     H48554   3.522   4.195   1.738 -0.3333 -0.1527 -3.1402
  360MOL0     H48555   3.584   4.046   1.828 -2.9276 -1.5770 -0.0644
  360MOL0     H48556   3.742   4.211   1.621 -0.9473 -0.8516  0.2470
  360MOL0     H48557   3.780   4.045   1.657 -0.5495  0.3438 -2.4097
  360MOL0     H48558   3.846   4.090   1.881 -0.6873 -1.0337 -0.5922
  360MOL0     H48559   3.770   4.255   1.868 -0.4824 -0.3940  0.8135
  360MOL0     H48560   4.189   4.191   1.709 -0.9796  1.1459 -0.1022
  360MOL0     H48561   4.396   4.223   1.863  0.7144 -2.6584  0.4682
  360MOL0     H48562   4.602   4.358   2.227  1.8780 -1.6235  1.3770
  360MOL0     H48563   4.751   4.427   2.421 -0.5205 -0.6064 -0.9307
  360MOL0     H48564   4.576   4.539   2.774  0.9163 -0.5731 -2.3539
  360MOL0     H48565   4.616   4.380   2.851 -0.7892  0.9817  1.6320
  360MOL0     H48566   4.803   4.610   2.790 -1.3599  2.9766  3.7043
  360MOL0     H48567   4.723   4.586   2.941  0.6739 -0.4841  0.5409
  360MOL0     H48568   4.848   4.359   2.947  0.8097 -0.4804  0.9604
  360MOL0     H48569   4.937   4.414   2.817  0.2395 -1.1038  0.5724
  360MOL0     H48570   4.908   4.542   3.105  1.0236  0.6627  1.2158
  360MOL0     H48571   4.992   4.630   2.975 -2.8850 -0.2427 -0.6769
  360MOL0     H48572   5.139   4.425   2.932  0.6788  0.4405 -0.3585
  360MOL0     H48573   5.078   4.361   3.092 -0.2033  2.0068  2.8678
  360MOL0     H48574   5.252   4.611   3.029  0.8735 -0.1728  1.4949
  360MOL0     H48575   5.170   4.587   3.177 -1.5722 -1.8850  0.2597
  360MOL0     H48576   5.355   4.360   3.045  0.4326 -0.9264  0.5753
  360MOL0     H48577   5.291   4.356   3.196 -1.1295  0.5322 -0.3850
  360MOL0     H48578   5.417   4.553   3.277  0.7055  1.1676  0.1219
  360MOL0     H48579   5.520   4.427   3.232 -1.0838 -2.8619 -1.9226
  360MOL0     H48580   4.469   4.300   2.694 -0.5735  1.3002 -0.4271
  360MOL0     H48581   4.305   4.251   2.506  0.0406  0.8890  1.8514
  360MOL0     H48582   4.123   4.205   2.191  0.5858 -1.6157  0.2601
  360MOL0     H48583   3.940   4.218   2.054 -0.4347 -2.2558  0.8466
  360MOL0     H48584   3.394   3.810   2.853 -0.7747 -0.6355 -3.0290
  360MOL0     H48585   3.482   3.978   3.014  1.2032  0.0600  0.1970
  360MOL0     H48586   3.675   4.457   2.912  0.4370  1.5118  0.2245
  360MOL0     H48587   3.740   4.669   2.975  1.2547 -0.3412 -0.9809
  360MOL0     H48588   3.661   4.863   3.071 -3.0634  4.5149 -0.6445
  360MOL0     H48589   3.719   4.963   3.205  0.7647 -1.0116  2.0566
  360MOL0     H48590   3.543   4.858   3.345 -0.0978 -1.1672  0.2055
  360MOL0     H48591   3.494   4.753   3.213 -0.2047  0.4171  0.1439
  360MOL0     H48592   3.495   5.051   3.199 -4.0654  2.4323  2.1608
  360MOL0     H48593   3.366   4.961   3.261  1.6337  1.5192  0.3072
  360MOL0     H48594   3.445   4.884   2.975 -0.6006  0.3422 -0.2096
  360MOL0     H48595   3.302   4.836   3.067  1.2175 -2.1406 -1.2926
  360MOL0     H48596   3.239   5.197   2.849  0.1062 -0.5729 -0.5151
  360MOL0     H48597   3.687   4.575   3.400 -0.0423  1.1276  0.2280
  360MOL0     H48598   3.611   4.347   3.452  0.6447  2.6286 -1.9435
  360MOL0     H48599   3.554   4.244   3.336 -1.9548  2.5027  0.0185
  360MOL0     H48600   3.741   4.260   3.391  3.9668  3.8310 -3.1507
  361MOL0     O48601   9.726  10.127   4.752 -0.3093 -0.6989 -0.0122
  361MOL0     C48602   9.760  10.131   4.632 -0.8455  0.0272 -0.2764
  361MOL0     O48603   9.678  10.092   4.525  0.3289 -0.0705  0.3339
  361MOL0     C48604   9.564  10.021   4.543  0.0665  0.6850 -0.8431
  361MOL0     C48605   9.455  10.048   4.629  0.5034 -0.2132  0.0096
  361MOL0     C48606   9.336   9.980   4.612 -0.5850 -0.3981 -0.0300
  361MOL0     C48607   9.331   9.875   4.518  0.0912  0.5398 -0.0369
  361MOL0     O48608   9.220   9.793   4.500  0.0978 -0.5815 -0.7624
  361MOL0     C48609   9.134   9.755   4.597  0.8595  0.3278 -0.2171
  361MOL0     C48610   8.982   9.777   4.573 -0.1967  0.2472  0.9595
  361MOL0     C48611   8.912   9.789   4.700 -0.2421  0.5903  1.0990
  361MOL0     C48612   8.762   9.786   4.681 -0.6309 -0.9112 -0.3011
  361MOL0     C48613   8.704   9.802   4.824 -0.3810  0.0858 -1.0613
  361MOL0     C48614   8.554   9.783   4.817  0.0560  0.7293  0.3503
  361MOL0     C48615   8.494   9.831   4.956 -0.8164 -0.1364  0.6181
  361MOL0     C48616   8.338   9.827   4.970  1.1890  0.4031  0.6807
  361MOL0     N48617   8.298   9.852   5.105  0.2374 -0.0750  0.4437
  361MOL0     C48618   8.282   9.974   5.167  0.1572 -0.2360  0.0910
  361MOL0     C48619   8.274   9.936   5.299  0.2727 -0.8734  0.5871
  361MOL0     C48620   8.264  10.026   5.414  0.2548 -0.4749 -0.5819
  361MOL0     C48621   8.391  10.057   5.498  0.0156 -0.2985 -0.4560
  361MOL0     C48622   8.449   9.928   5.563  1.1937 -0.3066 -0.2641
  361MOL0     C48623   8.556   9.964   5.655  0.1916  0.4878  0.2073
  361MOL0     O48624   8.644   9.843   5.673  0.1509 -0.3877 -0.1143
  361MOL0     C48625   8.760   9.877   5.726 -0.2160 -0.0550  0.1828
  361MOL0     C48626   8.883   9.863   5.652  0.3306  0.0381  0.4425
  361MOL0     C48627   9.006   9.904   5.702  0.1898 -0.0070 -0.0624
  361MOL0     C48628   9.013   9.944   5.835 -0.3686 -0.2316 -0.2733
  361MOL0     C48629   9.145   9.971   5.893 -0.0266  0.7232 -0.8787
  361MOL0     O48630   9.253   9.962   5.809 -0.6159 -0.0351 -0.2320
  361MOL0     C48631   9.381   9.971   5.866 -0.2780  0.5227 -0.5354
  361MOL0     C48632   9.416   9.886   5.979 -0.0682  0.0364 -0.5389
  361MOL0     C48633   9.541   9.900   6.037 -0.0640  0.1570 -0.2559
  361MOL0     C48634   9.633   9.995   5.990  0.2736  1.1135 -0.9533
  361MOL0     O48635   9.758  10.015   6.037 -0.1784 -0.8756  0.0558
  361MOL0     C48636   9.837   9.898   6.072  0.0664 -0.1441 -0.2434
  361MOL0     C48637   9.973   9.946   6.139 -0.8511  0.7732 -0.5819
  361MOL0     C48638  10.052   9.821   6.185 -0.0323 -0.0179 -0.4317
  361MOL0     C48639  10.182   9.860   6.254 -0.6953  0.1878  0.6748
  361MOL0     C48640  10.300   9.893   6.154  0.4899 -0.6084  0.7399
  361MOL0     C48641  10.416   9.942   6.241 -0.0674 -0.6362  0.2719
  361MOL0     C48642  10.525   9.998   6.144 -0.0547  0.4509 -0.4582
  361MOL0     C48643  10.645  10.057   6.214  0.2539  0.2787  0.3508
  361MOL0    Cl48644  10.772  10.057   6.080 -0.0342  0.2637 -0.1157
  361MOL0     C48645   9.600  10.066   5.886 -0.3786 -0.3585  0.3714
  361MOL0     C48646   9.484  10.048   5.815  0.3850 -0.5430  0.0469
  361MOL0     O48647   9.147   9.994   6.016  0.2540 -0.2465  0.1260
  361MOL0     C48648   8.891   9.958   5.914 -0.2329 -0.1376 -0.5164
  361MOL0     C48649   8.763   9.924   5.857 -1.3389 -0.2587 -0.1078
  361MOL0     N48650   8.270   9.800   5.309  0.6697  0.5777  0.1406
  361MOL0     N48651   8.290   9.748   5.194 -0.5177  0.6320  0.6037
  361MOL0     C48652   9.437   9.851   4.435  0.6939  0.2421  1.7666
  361MOL0     C48653   9.552   9.923   4.445 -0.2378 -0.0381  0.5317
  361MOL0     C48654   9.897  10.192   4.600  0.4363  0.0375  0.3926
  361MOL0     C48655   9.978  10.239   4.707 -0.6442  0.1644 -0.1528
  361MOL0     C48656  10.094  10.301   4.689  0.3663 -0.4732  0.0890
  361MOL0     C48657  10.141  10.306   4.556 -0.2982 -0.0064 -0.0651
  361MOL0     O48658  10.261  10.372   4.526 -0.3575 -0.3812  0.0670
  361MOL0     C48659  10.315  10.466   4.623 -0.7564  0.8676 -0.5700
  361MOL0     C48660  10.416  10.535   4.541  0.0977 -0.3108  0.1415
  361MOL0     C48661  10.515  10.621   4.619 -0.3609  0.4973  0.6633
  361MOL0     C48662  10.574  10.739   4.532  0.8339 -0.7514  0.1085
  361MOL0     C48663  10.462  10.832   4.497  0.4007  0.2786  0.5066
  361MOL0     C48664  10.362  10.900   4.459 -0.7321 -0.1484 -0.5395
  361MOL0     C48665  10.079  10.249   4.444  0.8078 -0.1102  0.3657
  361MOL0     C48666   9.951  10.195   4.469 -0.0043 -0.0720  0.0125
  361MOL0     C48667   9.879  10.127   4.355 -0.1369  0.3086  1.2374
  361MOL0     H48668   9.461  10.119   4.711 -2.5423  0.1151  0.0570
  361MOL0     H48669   9.256  10.014   4.676  0.7385  0.5800  1.1787
  361MOL0     H48670   9.156   9.651   4.624  1.5374  0.7943  1.0761
  361MOL0     H48671   9.159   9.822   4.679  0.6114 -0.0423  0.1632
  361MOL0     H48672   8.936   9.700   4.510  1.1839 -0.1567  0.3916
  361MOL0     H48673   8.986   9.873   4.520 -1.3596 -0.1901  0.0439
  361MOL0     H48674   8.947   9.886   4.737  1.0693  0.2995  0.6752
  361MOL0     H48675   8.941   9.715   4.775 -1.0166  1.1956  2.0231
  361MOL0     H48676   8.726   9.867   4.617  0.8592  0.2315  0.2448
  361MOL0     H48677   8.738   9.686   4.644  0.9172 -0.6414 -2.1846
  361MOL0     H48678   8.762   9.737   4.892 -1.9391  1.0904  1.3829
  361MOL0     H48679   8.719   9.902   4.866 -2.8248  0.8046 -1.7571
  361MOL0     H48680   8.507   9.844   4.741 -2.9512  0.5439  1.9273
  361MOL0     H48681   8.534   9.676   4.804 -0.5873  0.6904  1.5226
  361MOL0     H48682   8.511   9.939   4.946 -0.8067 -0.1854  0.0689
  361MOL0     H48683   8.545   9.780   5.039  1.3531  0.9413  0.0231
  361MOL0     H48684   8.291   9.898   4.903  0.7029  1.2608  1.8949
  361MOL0     H48685   8.308   9.727   4.939 -0.2186  1.3358 -1.1034
  361MOL0     H48686   8.297  10.075   5.129  1.4517 -1.5720 -3.3240
  361MOL0     H48687   8.234  10.123   5.374  1.2467 -0.4697 -1.3579
  361MOL0     H48688   8.181   9.991   5.477  1.7723 -1.7185  0.7994
  361MOL0     H48689   8.467  10.093   5.428 -1.8578  2.3986 -1.2979
  361MOL0     H48690   8.371  10.141   5.564  0.4019 -0.3236 -0.3032
  361MOL0     H48691   8.486   9.862   5.484 -0.3696  0.5011 -1.7258
  361MOL0     H48692   8.363   9.886   5.617  0.8343  0.5579 -0.1419
  361MOL0     H48693   8.522  10.004   5.751 -1.8112 -1.1369  0.2468
  361MOL0     H48694   8.623  10.042   5.615 -0.3564  1.5373  1.2767
  361MOL0     H48695   8.877   9.824   5.551 -0.0902 -1.8538  1.1625
  361MOL0     H48696   9.097   9.912   5.644 -0.3667  0.1508 -0.9233
  361MOL0     H48697   9.339   9.826   6.026  1.6010  0.4609  3.0604
  361MOL0     H48698   9.561   9.842   6.126 -3.1685  1.7858  1.6867
  361MOL0     H48699   9.784   9.834   6.143  0.9983 -0.2162  0.4183
  361MOL0     H48700   9.859   9.834   5.986  0.6205 -1.2838  0.7159
  361MOL0     H48701  10.038  10.004   6.074  3.6873  0.6376  3.2956
  361MOL0     H48702   9.943  10.009   6.223  2.6474 -1.5779  2.7730
  361MOL0     H48703   9.999   9.763   6.261  1.6877 -2.8771 -1.2450
  361MOL0     H48704  10.072   9.752   6.102  1.7592  0.8312 -0.7661
  361MOL0     H48705  10.214   9.784   6.325  0.6399 -0.9020 -1.0400
  361MOL0     H48706  10.157   9.952   6.309  0.5236  1.8433 -1.3896
  361MOL0     H48707  10.268   9.966   6.080  1.5484 -2.4963 -1.7296
  361MOL0     H48708  10.335   9.809   6.094  2.9122  0.7432  0.0972
  361MOL0     H48709  10.385  10.019   6.313  0.7629 -0.9033  0.9359
  361MOL0     H48710  10.457   9.864   6.306  0.4967  0.3787  1.1763
  361MOL0     H48711  10.497  10.079   6.076 -1.4417  2.2857  2.0836
  361MOL0     H48712  10.560   9.915   6.083  1.0322  1.7014 -1.6136
  361MOL0     H48713  10.628  10.161   6.247  4.2986  1.0653  0.3936
  361MOL0     H48714  10.671   9.991   6.297  2.6274  2.7148  1.7241
  361MOL0     H48715   9.667  10.143   5.849 -2.5433  1.3899 -0.1598
  361MOL0     H48716   9.459  10.115   5.734 -0.0207 -0.7988 -0.0410
  361MOL0     H48717   8.883   9.984   6.019 -0.3467  0.1011 -0.5839
  361MOL0     H48718   8.669   9.931   5.911 -3.8462 -2.9679 -3.6733
  361MOL0     H48719   9.423   9.787   4.348  0.7614  1.4642  0.8250
  361MOL0     H48720   9.638   9.904   4.381 -0.0287  1.3868  0.3628
  361MOL0     H48721   9.939  10.240   4.809 -1.1191 -1.4699 -0.2851
  361MOL0     H48722  10.139  10.355   4.772  0.0292  0.0611 -0.0674
  361MOL0     H48723  10.367  10.418   4.707 -0.0236  1.5169 -0.6320
  361MOL0     H48724  10.242  10.539   4.658 -1.2063 -0.1168  0.6027
  361MOL0     H48725  10.365  10.607   4.476 -1.1191 -0.2625  1.0980
  361MOL0     H48726  10.470  10.464   4.479  0.0202 -0.6090  0.4158
  361MOL0     H48727  10.603  10.561   4.641  2.5692  3.3048 -2.3271
  361MOL0     H48728  10.461  10.641   4.712 -2.4126 -2.7314  0.3151
  361MOL0     H48729  10.650  10.801   4.580 -1.3317  0.3702  2.3437
  361MOL0     H48730  10.613  10.693   4.441 -3.4491  0.9794 -2.9487
  361MOL0     H48731  10.268  10.944   4.433 -0.5155  0.6091 -0.0828
  361MOL0     H48732  10.120  10.259   4.344 -3.0842 -1.5834 -1.5910
  361MOL0     H48733   9.794  10.191   4.327 -0.0907 -0.9078 -2.2024
  361MOL0     H48734   9.935  10.107   4.263 -1.0730  0.0607  0.7091
  361MOL0     H48735   9.845  10.028   4.386 -1.2294  0.1354 -0.3536
  362MOL0     O48736   5.867  10.525   8.637  0.1301 -0.6372  0.0218
  362MOL0     C48737   5.858  10.438   8.720  0.1605  0.3927 -0.9268
  362MOL0     O48738   5.950  10.405   8.816 -0.5855 -1.2601 -0.3675
  362MOL0     C48739   6.047  10.489   8.862 -0.4870 -0.8779 -0.4831
  362MOL0     C48740   6.119  10.583   8.792 -0.0719 -0.1558  0.6561
  362MOL0     C48741   6.211  10.671   8.852  0.0497 -0.6062  1.2486
  362MOL0     C48742   6.233  10.670   8.988  0.3453 -0.3366 -0.1328
  362MOL0     O48743   6.320  10.755   9.055 -0.5117 -0.5286 -0.1837
  362MOL0     C48744   6.460  10.735   9.031 -0.1732  0.3473  0.7647
  362MOL0     C48745   6.497  10.583   9.058 -0.6259 -0.2752  0.0827
  362MOL0     C48746   6.642  10.535   9.015  0.6414 -0.3618 -0.8655
  362MOL0     C48747   6.655  10.502   8.866  0.0523 -0.3971 -0.3182
  362MOL0     C48748   6.800  10.493   8.815  0.2756 -0.3502 -0.7095
  362MOL0     C48749   6.905  10.447   8.910 -0.2103 -0.7137  0.0448
  362MOL0     C48750   6.892  10.293   8.943 -0.2118  0.4802 -0.0955
  362MOL0     C48751   6.946  10.246   9.076 -0.6917 -0.2566 -0.8940
  362MOL0     N48752   7.091  10.254   9.063  0.5911 -0.1666 -0.0879
  362MOL0     C48753   7.166  10.366   9.104 -0.3026 -0.1161  0.5237
  362MOL0     C48754   7.296  10.338   9.071 -0.0596  0.5702 -0.0406
  362MOL0     C48755   7.416  10.427   9.087  0.4896  0.3617  0.7692
  362MOL0     C48756   7.541  10.383   9.016  0.2393 -0.5695 -0.0085
  362MOL0     C48757   7.664  10.470   9.038  0.2590  0.6836 -0.1888
  362MOL0     C48758   7.785  10.392   8.983 -0.1133 -0.0161  0.1408
  362MOL0     O48759   7.810  10.450   8.852  0.3795  0.3611 -0.4985
  362MOL0     C48760   7.903  10.394   8.766 -0.2896  0.1067  0.2417
  362MOL0     C48761   7.986  10.288   8.801  0.2221 -0.0821 -0.3756
  362MOL0     C48762   8.079  10.245   8.706 -0.9369 -0.5267 -0.1006
  362MOL0     C48763   8.092  10.302   8.585 -0.0270 -0.4806 -0.4535
  362MOL0     C48764   8.188  10.261   8.496 -0.1855  0.0478  0.3610
  362MOL0     O48765   8.166  10.264   8.361 -0.0437 -0.5040 -0.4828
  362MOL0     C48766   8.278  10.250   8.281  0.2314  0.2591 -0.6933
  362MOL0     C48767   8.294  10.140   8.196  1.0254  0.0068  0.2925
  362MOL0     C48768   8.412  10.112   8.114 -0.1154  0.2126  0.1925
  362MOL0     C48769   8.526  10.181   8.134  0.7357 -0.1313 -0.3458
  362MOL0     O48770   8.637  10.135   8.066 -0.2828  0.8768  0.2732
  362MOL0     C48771   8.739  10.089   8.159  0.4447  0.6138 -0.1241
  362MOL0     C48772   8.782   9.957   8.109 -0.3789  0.9302 -0.5402
  362MOL0     C48773   8.686   9.849   8.161 -0.4662  1.0278 -0.0499
  362MOL0     C48774   8.752   9.714   8.136  0.6223 -1.0968 -0.7780
  362MOL0     C48775   8.665   9.613   8.197  0.2851  0.0148  0.7275
  362MOL0     C48776   8.543   9.578   8.119 -0.4284 -0.6569  0.3245
  362MOL0     C48777   8.581   9.496   8.003 -0.2558 -0.0156 -1.1295
  362MOL0     C48778   8.528   9.561   7.877  0.0981  0.2526 -0.0521
  362MOL0    Cl48779   8.549   9.421   7.751 -0.4875  0.0339 -0.6863
  362MOL0     C48780   8.516  10.291   8.219  1.2602  0.4483 -0.5379
  362MOL0     C48781   8.396  10.328   8.288  0.0388  0.5135  0.5857
  362MOL0     O48782   8.294  10.211   8.543  0.4255  0.7474  0.3380
  362MOL0     C48783   8.005  10.411   8.552 -0.6438  0.4435  0.3194
  362MOL0     C48784   7.910  10.448   8.642  0.6717  0.2579  0.3704
  362MOL0     N48785   7.297  10.204   9.032 -0.2898 -0.1577 -0.0203
  362MOL0     N48786   7.184  10.155   9.029  0.1320  0.1271  0.6464
  362MOL0     C48787   6.158  10.587   9.063 -0.4106  1.1032 -0.2993
  362MOL0     C48788   6.068  10.497   9.002  0.9490  0.1144 -0.4520
  362MOL0     C48789   5.755  10.343   8.683  0.3590  0.5060 -0.3677
  362MOL0     C48790   5.789  10.207   8.689  0.5973 -0.0376  0.4387
  362MOL0     C48791   5.718  10.104   8.634  0.3509 -1.0099 -0.0935
  362MOL0     C48792   5.588  10.137   8.591 -0.2558  0.0077  0.1119
  362MOL0     O48793   5.509  10.034   8.540 -0.6161  0.1189  0.2210
  362MOL0     C48794   5.364  10.034   8.538 -0.3760 -0.2235  0.2337
  362MOL0     C48795   5.311   9.942   8.646  0.0541 -0.5733  0.1726
  362MOL0     C48796   5.180   9.894   8.598 -0.3274 -0.7340 -0.5106
  362MOL0     C48797   5.109   9.813   8.704 -0.6152  0.4075  0.7285
  362MOL0     C48798   4.964   9.829   8.668 -0.2057 -0.1488  0.3819
  362MOL0     C48799   4.844   9.824   8.642 -0.7452 -0.0873  0.3797
  362MOL0     C48800   5.543  10.270   8.599  0.1280  0.9469  0.0457
  362MOL0     C48801   5.618  10.372   8.651  0.2189  0.1421 -0.2954
  362MOL0     C48802   5.557  10.513   8.664  0.0300  0.2013 -0.0602
  362MOL0     H48803   6.108  10.585   8.684  0.6195 -0.9489  0.5620
  362MOL0     H48804   6.279  10.726   8.787 -0.0830 -1.3177  0.4887
  362MOL0     H48805   6.471  10.738   8.922  0.2442  0.0082  0.7938
  362MOL0     H48806   6.532  10.806   9.074  0.9915 -1.0856  1.2450
  362MOL0     H48807   6.423  10.515   9.016  0.9522 -1.6379 -0.5982
  362MOL0     H48808   6.499  10.564   9.166  1.8388  0.3493  0.2115
  362MOL0     H48809   6.660  10.444   9.072 -3.3698  1.2922  3.6838
  362MOL0     H48810   6.714  10.610   9.048  0.3377 -0.5726  0.3014
  362MOL0     H48811   6.593  10.414   8.848 -1.2943 -0.0341  2.0508
  362MOL0     H48812   6.614  10.589   8.813  2.6109  2.2375  1.6516
  362MOL0     H48813   6.804  10.433   8.724 -1.3422 -0.3424 -0.8068
  362MOL0     H48814   6.832  10.595   8.792  0.7345 -0.2745  0.2075
  362MOL0     H48815   6.997  10.465   8.855 -1.2196  4.4569 -0.4871
  362MOL0     H48816   6.910  10.497   9.007  1.2113 -0.4787 -0.1362
  362MOL0     H48817   6.936  10.234   8.862 -3.3097 -0.6166 -1.1247
  362MOL0     H48818   6.785  10.271   8.936  0.2682 -1.6391 -2.0826
  362MOL0     H48819   6.906  10.301   9.162  1.8374  2.1304 -1.1152
  362MOL0     H48820   6.917  10.140   9.083 -0.0045 -0.3636  0.9201
  362MOL0     H48821   7.148  10.464   9.146  4.7441  2.7743 -2.9954
  362MOL0     H48822   7.384  10.525   9.051 -2.3635 -1.4890 -2.3384
  362MOL0     H48823   7.427  10.416   9.195  1.4702  0.4913  0.6863
  362MOL0     H48824   7.555  10.275   9.033 -0.0271 -0.8340 -1.3347
  362MOL0     H48825   7.514  10.401   8.912  0.7318  1.6245  0.1934
  362MOL0     H48826   7.663  10.485   9.147  2.0531 -0.3882  0.0087
  362MOL0     H48827   7.644  10.567   8.992  1.5662  0.7643 -0.6353
  362MOL0     H48828   7.745  10.290   8.974 -2.5403  0.8151  0.8389
  362MOL0     H48829   7.863  10.401   9.058 -1.6781  3.1495  1.5609
  362MOL0     H48830   7.974  10.227   8.890  1.1919 -2.3651 -1.7059
  362MOL0     H48831   8.146  10.169   8.744  1.8951  1.7708 -0.1904
  362MOL0     H48832   8.210  10.074   8.174 -0.1002  2.0261 -2.0155
  362MOL0     H48833   8.427  10.029   8.045  3.8307 -3.0055  4.3480
  362MOL0     H48834   8.824  10.157   8.160  1.3901 -0.5030 -1.6520
  362MOL0     H48835   8.701  10.076   8.261  1.6621  2.2300  0.5725
  362MOL0     H48836   8.783   9.949   8.000  0.1670 -3.6979 -0.4362
  362MOL0     H48837   8.883   9.929   8.142 -0.9590 -0.8728 -0.1454
  362MOL0     H48838   8.661   9.866   8.266  3.2969  1.8800  0.8481
  362MOL0     H48839   8.594   9.858   8.101 -0.6944  3.7122  0.5998
  362MOL0     H48840   8.848   9.704   8.188  0.6201  2.7161  0.2687
  362MOL0     H48841   8.758   9.707   8.027 -3.0919 -1.0338 -1.1231
  362MOL0     H48842   8.629   9.659   8.289 -0.7946  0.4910  0.0918
  362MOL0     H48843   8.727   9.528   8.228 -0.5260 -0.8655 -0.0187
  362MOL0     H48844   8.469   9.528   8.182 -1.6843 -1.2630 -1.5359
  362MOL0     H48845   8.501   9.673   8.085 -1.8446 -1.4340 -0.2220
  362MOL0     H48846   8.540   9.395   8.014 -1.6580  0.6796  0.6338
  362MOL0     H48847   8.690   9.489   7.995 -0.2621  1.0013 -2.5908
  362MOL0     H48848   8.421   9.582   7.880 -0.0305 -0.2658  3.3215
  362MOL0     H48849   8.586   9.647   7.843 -0.7005 -0.4663 -3.6147
  362MOL0     H48850   8.599  10.352   8.253  1.8170 -0.5608 -0.0135
  362MOL0     H48851   8.399  10.418   8.349 -0.0912  1.6363 -1.0089
  362MOL0     H48852   8.012  10.450   8.451 -1.9715 -0.2839 -0.0784
  362MOL0     H48853   7.842  10.529   8.617  0.4891  0.1804  0.6162
  362MOL0     H48854   6.190  10.594   9.167  0.0812 -2.2016 -0.1101
  362MOL0     H48855   6.004  10.437   9.066  1.6015  1.2570  1.3466
  362MOL0     H48856   5.888  10.183   8.726  0.3672 -0.8484  0.5502
  362MOL0     H48857   5.752  10.001   8.628 -0.5430 -1.3212 -0.0250
  362MOL0     H48858   5.337   9.998   8.438 -1.7139  0.3196  0.3772
  362MOL0     H48859   5.315  10.130   8.553 -3.1691 -1.5182 -0.0283
  362MOL0     H48860   5.301   9.991   8.743  0.3962  0.4825 -0.3156
  362MOL0     H48861   5.383   9.859   8.652  2.0338  1.1225  1.2894
  362MOL0     H48862   5.188   9.837   8.506 -3.5597 -1.5705 -0.3945
  362MOL0     H48863   5.130   9.987   8.567  1.1856  0.9656  1.7541
  362MOL0     H48864   5.135   9.708   8.689 -1.6066  0.2256  0.2142
  362MOL0     H48865   5.130   9.849   8.805  3.5821  0.6446 -0.0504
  362MOL0     H48866   4.740   9.817   8.616 -1.0443  0.8450  1.2210
  362MOL0     H48867   5.456  10.294   8.539 -1.4017  0.9099  2.1542
  362MOL0     H48868   5.524  10.546   8.565  0.0826  0.8511  0.1338
  362MOL0     H48869   5.474  10.507   8.735 -0.1989 -6.0069 -0.2679
  362MOL0     H48870   5.628  10.586   8.704 -0.2267 -0.6219  2.0315
  363MOL0     O48871   5.700   4.449   0.723  0.2734 -0.1801 -0.1155
  363MOL0     C48872   5.754   4.514   0.632 -0.4145  0.0090 -0.6669
  363MOL0     O48873   5.685   4.558   0.524  0.1767  0.3746 -0.1396
  363MOL0     C48874   5.556   4.507   0.507  0.6782  0.2848 -0.0016
  363MOL0     C48875   5.447   4.529   0.585 -0.7765  0.2968 -0.7200
  363MOL0     C48876   5.321   4.481   0.559  0.4339  0.6685  0.0311
  363MOL0     C48877   5.301   4.403   0.442  0.0814 -0.0278  0.1210
  363MOL0     O48878   5.178   4.366   0.402 -0.2897  0.1873  0.2646
  363MOL0     C48879   5.129   4.266   0.497 -0.0578 -0.7644  0.0079
  363MOL0     C48880   5.006   4.195   0.445 -0.6394 -0.7463 -0.2634
  363MOL0     C48881   4.996   4.073   0.535 -0.4706  0.0267 -0.0278
  363MOL0     C48882   4.906   3.971   0.470  0.7180  0.3707  0.3893
  363MOL0     C48883   4.838   3.874   0.563 -0.2178  0.2996 -0.5903
  363MOL0     C48884   4.753   3.942   0.675 -0.3149  0.3600  0.7229
  363MOL0     C48885   4.645   4.043   0.633  0.1804  0.7164  0.5199
  363MOL0     C48886   4.595   4.139   0.741  0.4343 -0.0571 -0.0946
  363MOL0     N48887   4.686   4.259   0.763 -0.2402  0.0630  0.3224
  363MOL0     C48888   4.660   4.373   0.693 -0.5620  0.3232 -0.0393
  363MOL0     C48889   4.770   4.448   0.717 -0.5483 -0.7154  0.5392
  363MOL0     C48890   4.796   4.588   0.666 -0.2152  0.2671 -0.1314
  363MOL0     C48891   4.934   4.588   0.611 -0.5424  0.7138  0.1654
  363MOL0     C48892   4.957   4.724   0.540 -0.2718 -0.7253  0.4853
  363MOL0     C48893   5.104   4.737   0.487 -0.1284 -0.4319 -0.2482
  363MOL0     O48894   5.202   4.762   0.591  0.3141  1.1666  0.7242
  363MOL0     C48895   5.199   4.878   0.655 -1.0043  0.3443 -0.0631
  363MOL0     C48896   5.123   4.991   0.622  0.0776  0.4320 -0.1479
  363MOL0     C48897   5.138   5.115   0.686 -0.1342 -0.2820  0.9144
  363MOL0     C48898   5.230   5.129   0.794 -0.0247 -0.6638 -0.4594
  363MOL0     C48899   5.249   5.260   0.856  0.3904 -1.3821  0.4889
  363MOL0     O48900   5.375   5.284   0.909  0.0536 -0.5268  0.6585
  363MOL0     C48901   5.405   5.413   0.959 -0.0441  0.8905  0.7109
  363MOL0     C48902   5.397   5.435   1.092 -0.1995 -0.6161 -0.1883
  363MOL0     C48903   5.432   5.552   1.152 -0.2144 -0.1220  0.5271
  363MOL0     C48904   5.470   5.664   1.070  0.1783 -1.0368  0.1651
  363MOL0     O48905   5.501   5.786   1.116 -0.3614  0.7258  0.0304
  363MOL0     C48906   5.520   5.799   1.256 -0.4768 -0.1771  0.0484
  363MOL0     C48907   5.571   5.942   1.297 -0.4552  0.0892  1.1122
  363MOL0     C48908   5.688   5.997   1.204  0.4547 -0.0195 -0.7734
  363MOL0     C48909   5.808   5.906   1.214 -0.2903  0.3349  0.3635
  363MOL0     C48910   5.913   5.966   1.127 -0.0370 -0.3621  1.0044
  363MOL0     C48911   6.055   5.905   1.156  0.4179  1.2119  0.2440
  363MOL0     C48912   6.152   5.917   1.040 -0.4393  0.6410  0.4494
  363MOL0     C48913   6.285   5.847   1.059 -0.1769  0.8409 -1.5891
  363MOL0    Cl48914   6.269   5.677   0.979  0.0494 -0.3966  0.5633
  363MOL0     C48915   5.476   5.646   0.933  0.3847 -0.2370  0.0918
  363MOL0     C48916   5.445   5.519   0.878 -0.2938 -0.4802  0.4103
  363MOL0     O48917   5.156   5.339   0.841 -0.2653 -0.7639  0.4044
  363MOL0     C48918   5.301   5.013   0.833  0.9500 -1.2433 -0.1264
  363MOL0     C48919   5.286   4.892   0.762 -0.2749 -0.7231 -0.7789
  363MOL0     N48920   4.829   4.391   0.828  0.2199 -0.2378  1.3148
  363MOL0     N48921   4.780   4.279   0.857 -1.0189  0.1767 -0.3883
  363MOL0     C48922   5.409   4.368   0.365  0.1442  0.0338  0.6250
  363MOL0     C48923   5.541   4.409   0.401  0.1993  0.3843 -0.8954
  363MOL0     C48924   5.886   4.575   0.642 -0.3885 -0.8330 -0.6105
  363MOL0     C48925   5.935   4.668   0.541  0.2801  0.9395 -0.1830
  363MOL0     C48926   6.064   4.732   0.555  0.0701  0.6487  0.8703
  363MOL0     C48927   6.147   4.708   0.660 -0.1002 -0.0455 -0.2598
  363MOL0     O48928   6.275   4.761   0.681  0.2340 -0.1598 -0.0448
  363MOL0     C48929   6.364   4.761   0.572 -0.1745  0.1274  0.5891
  363MOL0     C48930   6.430   4.889   0.598 -0.0796  0.0936 -0.3331
  363MOL0     C48931   6.523   4.926   0.487 -0.0118  0.4899  1.1681
  363MOL0     C48932   6.587   5.060   0.514 -0.5697  0.4610  0.9681
  363MOL0     C48933   6.680   5.109   0.403  0.0947  0.7106 -1.2427
  363MOL0     C48934   6.769   5.148   0.329  0.1721 -0.0534  0.5593
  363MOL0     C48935   6.095   4.625   0.760 -0.8736 -0.2109  0.4115
  363MOL0     C48936   5.965   4.557   0.758 -0.2502 -0.1481 -0.0330
  363MOL0     C48937   5.932   4.476   0.886 -0.7522 -0.6939  0.8425
  363MOL0     H48938   5.454   4.604   0.663  1.9225  1.7789 -2.2468
  363MOL0     H48939   5.239   4.496   0.628  0.1183 -1.0281  0.0531
  363MOL0     H48940   5.207   4.189   0.498 -0.8682 -1.7280 -2.6550
  363MOL0     H48941   5.106   4.306   0.596 -2.3853  0.4073 -0.9175
  363MOL0     H48942   5.030   4.161   0.344 -0.0250 -2.1540  0.3289
  363MOL0     H48943   4.915   4.256   0.445 -0.4966 -0.5032  1.1190
  363MOL0     H48944   4.959   4.112   0.630  0.5310  1.3745 -0.1655
  363MOL0     H48945   5.091   4.026   0.562 -0.3788  1.4224  2.3739
  363MOL0     H48946   4.835   4.025   0.407  3.5238  2.2924 -1.3864
  363MOL0     H48947   4.969   3.927   0.392  0.0941  0.1182  0.0240
  363MOL0     H48948   4.774   3.804   0.509 -1.1674 -0.9701  2.0370
  363MOL0     H48949   4.918   3.824   0.617  0.3349  0.0965 -1.5761
  363MOL0     H48950   4.709   3.867   0.742  0.2587  0.0596  0.7715
  363MOL0     H48951   4.828   3.986   0.742  1.1141 -1.6032  0.5002
  363MOL0     H48952   4.554   3.982   0.621 -1.4007  2.4963  2.7321
  363MOL0     H48953   4.665   4.103   0.544  2.4769  1.3848  1.4046
  363MOL0     H48954   4.497   4.170   0.705  0.2098 -0.7228 -0.0781
  363MOL0     H48955   4.581   4.082   0.834 -0.2517  1.4523  0.7804
  363MOL0     H48956   4.573   4.394   0.632  1.0550  3.8603 -1.4121
  363MOL0     H48957   4.723   4.617   0.590 -0.1217  1.4562  0.2174
  363MOL0     H48958   4.789   4.652   0.755  3.7041 -1.9671  2.0368
  363MOL0     H48959   5.020   4.576   0.679 -0.0209  2.4211 -0.1422
  363MOL0     H48960   4.943   4.510   0.535  0.7661  0.2736  0.7411
  363MOL0     H48961   4.932   4.799   0.616 -1.3586 -0.8112  0.2156
  363MOL0     H48962   4.888   4.732   0.456  0.6943 -1.2738 -0.3961
  363MOL0     H48963   5.104   4.812   0.407 -0.4741 -1.6457 -1.4233
  363MOL0     H48964   5.118   4.645   0.429 -2.7170  0.5173 -2.6157
  363MOL0     H48965   5.054   4.976   0.539 -0.5598  0.4798  0.3654
  363MOL0     H48966   5.098   5.207   0.644 -1.3165 -1.1379  0.0995
  363MOL0     H48967   5.377   5.350   1.157  0.0505 -1.4139 -1.1275
  363MOL0     H48968   5.434   5.551   1.260  0.1316 -2.6863  0.5462
  363MOL0     H48969   5.422   5.779   1.301 -0.5683 -1.0965 -0.5302
  363MOL0     H48970   5.586   5.715   1.280 -0.7223 -0.3062  0.2881
  363MOL0     H48971   5.480   6.003   1.295 -2.9173 -3.1192 -3.5755
  363MOL0     H48972   5.618   5.931   1.395 -0.2155  1.1453  1.1295
  363MOL0     H48973   5.662   5.990   1.098  2.0293  3.5008 -1.5365
  363MOL0     H48974   5.719   6.099   1.227 -1.4400  0.2542  0.8549
  363MOL0     H48975   5.786   5.804   1.181  1.4136 -0.0532  0.3058
  363MOL0     H48976   5.844   5.909   1.317  1.3855 -0.0678 -0.1829
  363MOL0     H48977   5.922   6.066   1.171 -1.3149 -0.0518  0.6026
  363MOL0     H48978   5.876   5.980   1.025 -1.8758  2.5281  1.9375
  363MOL0     H48979   6.099   5.940   1.249  1.7650 -3.8778  1.8543
  363MOL0     H48980   6.025   5.801   1.171 -3.6006  1.5930 -3.1811
  363MOL0     H48981   6.154   6.026   1.040  1.8408  0.6583  0.9262
  363MOL0     H48982   6.105   5.883   0.947 -0.5207 -0.3272  0.8292
  363MOL0     H48983   6.371   5.903   1.020 -0.6341  2.3813 -0.4769
  363MOL0     H48984   6.300   5.823   1.165  0.5058 -0.0976 -1.8756
  363MOL0     H48985   5.507   5.727   0.867  0.7031 -2.2083 -2.3445
  363MOL0     H48986   5.445   5.511   0.769 -0.7035  0.8243  0.3019
  363MOL0     H48987   5.371   5.008   0.916  2.2080  0.3409 -1.0430
  363MOL0     H48988   5.336   4.805   0.803  0.3756  0.2362  0.5529
  363MOL0     H48989   5.396   4.299   0.282 -1.3270 -1.6450  2.1806
  363MOL0     H48990   5.625   4.379   0.339  0.9103  0.1680  0.1308
  363MOL0     H48991   5.873   4.680   0.453  0.1884 -0.1876 -0.2871
  363MOL0     H48992   6.099   4.794   0.473 -1.8389 -1.0427 -1.3887
  363MOL0     H48993   6.312   4.762   0.475 -1.8056 -0.0286  1.4273
  363MOL0     H48994   6.421   4.669   0.581  1.7641  1.3124  0.8647
  363MOL0     H48995   6.483   4.895   0.693 -1.9776 -0.1889  0.7975
  363MOL0     H48996   6.352   4.966   0.600  2.0277  2.3748 -1.3890
  363MOL0     H48997   6.461   4.935   0.398 -2.7459 -2.2549  2.5996
  363MOL0     H48998   6.597   4.850   0.460 -0.7537 -0.3933  1.5429
  363MOL0     H48999   6.512   5.139   0.519 -1.5303 -0.3538 -0.2661
  363MOL0     H49000   6.645   5.065   0.607 -0.1832 -0.3919  0.7855
  363MOL0     H49001   6.840   5.191   0.262  1.0098 -1.8911  0.2165
  363MOL0     H49002   6.158   4.612   0.847  1.8683  0.7161 -1.3254
  363MOL0     H49003   6.018   4.477   0.954 -0.6820  1.2535  0.7999
  363MOL0     H49004   5.849   4.526   0.938  0.3850  2.7847 -0.3679
  363MOL0     H49005   5.911   4.372   0.862 -2.0348 -1.6761  5.2173
  364MOL0     O49006   0.647   7.740   1.038  0.7767 -0.2760 -0.1126
  364MOL0     C49007   0.614   7.801   0.932 -1.0440  0.2725 -0.4276
  364MOL0     O49008   0.491   7.804   0.878 -0.6479 -0.0652 -0.5302
  364MOL0     C49009   0.384   7.779   0.962 -0.3318  0.3511 -0.4305
  364MOL0     C49010   0.333   7.647   0.979 -0.6058  0.2482  0.8864
  364MOL0     C49011   0.218   7.620   1.059  0.4276  0.1990 -0.1169
  364MOL0     C49012   0.159   7.729   1.127  0.0221 -0.2719 -0.7277
  364MOL0     O49013   0.051   7.722   1.214  0.4037  0.3212 -0.6755
  364MOL0     C49014   0.005   7.585   1.263 -0.6384 -0.4360  1.1361
  364MOL0     C49015  -0.121   7.563   1.180  0.2069  0.1902  0.0338
  364MOL0     C49016  -0.199   7.437   1.232 -0.2434 -0.4015  0.4092
  364MOL0     C49017  -0.348   7.431   1.185 -0.3355  0.0155  0.4567
  364MOL0     C49018  -0.406   7.298   1.225 -0.2401 -0.2620 -0.1376
  364MOL0     C49019  -0.356   7.184   1.141 -0.2791  0.4057  0.9055
  364MOL0     C49020  -0.427   7.191   1.008 -0.1429 -0.1097  0.4442
  364MOL0     C49021  -0.363   7.074   0.928  0.0212 -0.1485  1.0921
  364MOL0     N49022  -0.384   6.936   0.979 -1.1550  0.5032  0.4398
  364MOL0     C49023  -0.501   6.870   0.990 -0.4192  0.0603  0.1441
  364MOL0     C49024  -0.475   6.746   1.025 -0.3510  0.0186 -0.3327
  364MOL0     C49025  -0.571   6.639   1.053  0.7386  0.3927  0.4984
  364MOL0     C49026  -0.608   6.557   0.922  0.4999  0.5360  0.2776
  364MOL0     C49027  -0.724   6.461   0.939  0.7419 -0.2648 -0.4494
  364MOL0     C49028  -0.727   6.340   0.845 -0.6641 -1.2781  1.2377
  364MOL0     O49029  -0.733   6.376   0.704 -0.3420  0.5200  0.5039
  364MOL0     C49030  -0.860   6.363   0.654 -0.3976 -0.0448  0.3244
  364MOL0     C49031  -0.895   6.459   0.559 -0.5632  0.6366 -0.1015
  364MOL0     C49032  -1.019   6.448   0.497  0.3472  0.5715 -0.3691
  364MOL0     C49033  -1.109   6.348   0.522 -0.4459 -0.9329 -0.4355
  364MOL0     C49034  -1.232   6.343   0.442  0.8723  0.6555 -0.2923
  364MOL0     O49035  -1.280   6.459   0.389  0.7978 -0.1891  0.8628
  364MOL0     C49036  -1.402   6.461   0.329  0.6590  0.5795 -0.2041
  364MOL0     C49037  -1.522   6.479   0.394  0.0440 -0.2599  0.1055
  364MOL0     C49038  -1.650   6.483   0.327  0.2403 -0.5161 -0.2820
  364MOL0     C49039  -1.646   6.466   0.185 -0.1817  0.0715 -0.1146
  364MOL0     O49040  -1.749   6.452   0.098 -0.4784  0.2814  0.2137
  364MOL0     C49041  -1.886   6.467   0.135  0.8569  0.4833 -0.0115
  364MOL0     C49042  -1.919   6.316   0.151 -0.6467 -0.0498  0.3807
  364MOL0     C49043  -2.064   6.295   0.189 -0.5154  0.0672 -0.0456
  364MOL0     C49044  -2.128   6.155   0.153 -0.8775  0.0533 -0.1301
  364MOL0     C49045  -2.272   6.165   0.205 -0.0928  0.7867 -0.4833
  364MOL0     C49046  -2.351   6.042   0.153  0.8998 -0.0581  0.8062
  364MOL0     C49047  -2.355   5.918   0.243 -1.7085 -0.0920 -0.4491
  364MOL0     C49048  -2.454   5.811   0.188  0.8820  1.0694  1.0224
  364MOL0    Cl49049  -2.455   5.765   0.010 -0.2228  0.4094  0.3242
  364MOL0     C49050  -1.526   6.446   0.118 -0.8293 -0.2717  0.2563
  364MOL0     C49051  -1.407   6.441   0.192 -0.6974  0.7278 -0.5367
  364MOL0     O49052  -1.289   6.231   0.429  0.0678  0.0987 -0.1514
  364MOL0     C49053  -1.070   6.242   0.617  0.0399 -0.4089  0.4596
  364MOL0     C49054  -0.939   6.245   0.675 -0.8538  0.3227  0.6140
  364MOL0     N49055  -0.338   6.743   1.043  0.0367 -0.0224  0.4182
  364MOL0     N49056  -0.280   6.851   1.006  0.8416 -0.3433  0.4036
  364MOL0     C49057   0.201   7.860   1.102  0.2664 -0.3552 -0.5499
  364MOL0     C49058   0.311   7.881   1.021 -0.3596 -0.1453 -0.1906
  364MOL0     C49059   0.733   7.868   0.859 -0.4401 -0.1405 -0.6249
  364MOL0     C49060   0.862   7.814   0.885  0.2663  0.5495 -0.1871
  364MOL0     C49061   0.975   7.855   0.814 -0.3498 -0.1262 -1.3362
  364MOL0     C49062   0.960   7.951   0.721 -0.2346  0.6332  0.1440
  364MOL0     O49063   1.078   7.995   0.660 -0.0986  0.6614 -0.3484
  364MOL0     C49064   1.089   8.040   0.521  0.7075  0.1888  0.1782
  364MOL0     C49065   1.031   7.943   0.421  0.0596 -0.5675  0.3808
  364MOL0     C49066   1.077   7.979   0.275  0.8381  0.0469 -0.0447
  364MOL0     C49067   1.230   7.941   0.255  0.6324 -0.9068 -0.4575
  364MOL0     C49068   1.267   8.004   0.120  0.2408  0.4313 -0.1539
  364MOL0     C49069   1.297   8.040   0.009 -0.2914  0.1497 -0.4117
  364MOL0     C49070   0.838   8.012   0.700  0.8864  0.0815 -0.7712
  364MOL0     C49071   0.720   7.982   0.777 -0.7613  0.3112  0.4205
  364MOL0     C49072   0.592   8.048   0.737  0.9368 -0.1061 -0.4827
  364MOL0     H49073   0.399   7.567   0.948  0.2475 -0.3833  4.0322
  364MOL0     H49074   0.187   7.516   1.060 -0.1118  0.3170 -1.6953
  364MOL0     H49075   0.083   7.510   1.246 -1.5899 -1.8541  2.7002
  364MOL0     H49076  -0.012   7.585   1.371  2.1870 -0.3353  1.6526
  364MOL0     H49077  -0.098   7.546   1.075  1.1855 -0.1265  0.2879
  364MOL0     H49078  -0.175   7.657   1.191  1.3537  1.1760 -2.2322
  364MOL0     H49079  -0.196   7.438   1.341 -1.8695 -1.1192  0.4888
  364MOL0     H49080  -0.156   7.341   1.203 -1.8118 -0.9783 -0.1013
  364MOL0     H49081  -0.388   7.511   1.249  1.6156 -0.8038  2.8605
  364MOL0     H49082  -0.359   7.450   1.078  0.5651 -0.8654  0.1858
  364MOL0     H49083  -0.366   7.281   1.326  2.5146 -2.6610 -1.4809
  364MOL0     H49084  -0.514   7.314   1.220 -0.3629 -0.3654  1.5928
  364MOL0     H49085  -0.247   7.182   1.125 -0.3216 -3.4477 -0.0458
  364MOL0     H49086  -0.393   7.094   1.190 -1.3482  1.1416  1.4765
  364MOL0     H49087  -0.396   7.284   0.960 -2.7533  1.8128  2.2329
  364MOL0     H49088  -0.536   7.187   1.014 -0.3166  3.4627  1.9439
  364MOL0     H49089  -0.410   7.081   0.829  0.0793  0.7349  1.1225
  364MOL0     H49090  -0.256   7.091   0.913 -0.0999 -0.5751 -0.5328
  364MOL0     H49091  -0.602   6.911   0.985  0.0752  1.3601  0.3463
  364MOL0     H49092  -0.524   6.581   1.133  1.9767  2.5098  1.3897
  364MOL0     H49093  -0.660   6.685   1.098 -0.7243 -1.6146 -0.1774
  364MOL0     H49094  -0.632   6.625   0.840  2.9615 -0.3462 -1.2810
  364MOL0     H49095  -0.520   6.501   0.888  0.2166  1.1227 -1.5112
  364MOL0     H49096  -0.811   6.522   0.911  2.4425  2.4716 -0.2077
  364MOL0     H49097  -0.740   6.424   1.040  0.1232 -1.6915 -1.0491
  364MOL0     H49098  -0.811   6.280   0.880  0.0738 -2.6711  0.7051
  364MOL0     H49099  -0.638   6.276   0.852  0.0155 -0.3072  1.8263
  364MOL0     H49100  -0.810   6.518   0.527 -1.1454  0.3420 -2.3690
  364MOL0     H49101  -1.046   6.526   0.426 -1.8990  2.3361  2.2497
  364MOL0     H49102  -1.516   6.490   0.502  0.8479 -2.1440  0.2860
  364MOL0     H49103  -1.737   6.490   0.391  0.3146  4.4468 -0.3619
  364MOL0     H49104  -1.901   6.527   0.225  2.2440 -0.5450  0.9535
  364MOL0     H49105  -1.936   6.513   0.050 -0.7811  1.3029  1.3395
  364MOL0     H49106  -1.901   6.257   0.060 -0.2766  3.9537 -2.4307
  364MOL0     H49107  -1.852   6.279   0.229 -0.3165  1.2302  0.7300
  364MOL0     H49108  -2.075   6.322   0.294 -2.6826 -1.8824  0.2996
  364MOL0     H49109  -2.127   6.364   0.131 -1.4422 -0.2783  0.5294
  364MOL0     H49110  -2.062   6.077   0.191 -0.5190  1.1338  1.5742
  364MOL0     H49111  -2.132   6.167   0.044 -0.6975  0.6375 -0.0733
  364MOL0     H49112  -2.320   6.256   0.167 -2.3231  0.5395  1.5347
  364MOL0     H49113  -2.272   6.194   0.310  0.2374  1.5180 -0.6794
  364MOL0     H49114  -2.455   6.075   0.148  1.0701  0.6195  1.4441
  364MOL0     H49115  -2.307   6.011   0.058 -2.0665 -2.6167  0.0823
  364MOL0     H49116  -2.376   5.964   0.340  0.2463 -3.4214  1.7394
  364MOL0     H49117  -2.254   5.876   0.239 -1.8394 -0.4346 -0.2338
  364MOL0     H49118  -2.430   5.717   0.238  0.8067  0.4598 -0.0601
  364MOL0     H49119  -2.559   5.837   0.205  0.4121  0.2518 -0.4834
  364MOL0     H49120  -1.521   6.454   0.009  1.2098  2.1351  0.4340
  364MOL0     H49121  -1.316   6.407   0.145 -0.7611 -3.8897  2.0607
  364MOL0     H49122  -1.137   6.160   0.641 -3.2794  1.3058 -2.2129
  364MOL0     H49123  -0.910   6.158   0.734  2.7585  0.3093 -0.9528
  364MOL0     H49124   0.148   7.945   1.144  0.6426 -0.8673  1.0226
  364MOL0     H49125   0.343   7.985   1.026 -2.3500  0.4702  1.6922
  364MOL0     H49126   0.875   7.734   0.958 -0.3761 -1.1936 -1.8737
  364MOL0     H49127   1.073   7.815   0.833 -0.4179  0.6573  1.0005
  364MOL0     H49128   1.197   8.048   0.503  0.8332  0.0096  0.8441
  364MOL0     H49129   1.035   8.133   0.501 -0.5800 -0.9483 -2.0013
  364MOL0     H49130   0.922   7.946   0.421  0.0563 -0.6192  0.7481
  364MOL0     H49131   1.058   7.838   0.437 -1.4772 -1.0649 -0.0699
  364MOL0     H49132   1.051   8.084   0.253  3.6773  0.5914 -1.2130
  364MOL0     H49133   1.029   7.915   0.200  0.6324 -1.2108  1.1235
  364MOL0     H49134   1.307   7.977   0.323  1.9465 -0.7664 -1.9667
  364MOL0     H49135   1.240   7.832   0.253  1.3594 -0.8478 -1.9236
  364MOL0     H49136   1.348   8.082  -0.075  0.9880  3.1844  1.7194
  364MOL0     H49137   0.840   8.096   0.632  2.3120  1.9053  1.3659
  364MOL0     H49138   0.605   8.109   0.647  1.0208  2.0328  0.9000
  364MOL0     H49139   0.510   7.980   0.714 -0.0910  0.2799  1.7050
  364MOL0     H49140   0.550   8.100   0.824 -0.2430 -3.1849  0.9508
  365MOL0     O49141   7.683   6.965   7.167 -0.8227 -0.9445 -0.0818
  365MOL0     C49142   7.648   6.915   7.273  0.5647 -0.1380 -0.1156
  365MOL0     O49143   7.726   6.904   7.387 -0.3907 -0.1918  0.1353
  365MOL0     C49144   7.856   6.941   7.382 -0.2865  0.1977 -0.3687
  365MOL0     C49145   7.900   7.066   7.333  0.0379  0.8277  0.2887
  365MOL0     C49146   8.038   7.086   7.342  0.0799 -1.0442 -0.4948
  365MOL0     C49147   8.137   6.996   7.394  0.3308 -0.2038 -1.2891
  365MOL0     O49148   8.272   7.021   7.401 -0.1982  0.3798 -0.0281
  365MOL0     C49149   8.343   7.115   7.321  0.1263 -0.4544  0.7275
  365MOL0     C49150   8.485   7.055   7.307 -0.1017  0.3404  0.0958
  365MOL0     C49151   8.591   7.152   7.256  0.2141 -0.7392  0.1152
  365MOL0     C49152   8.730   7.083   7.250  0.1513 -0.7601 -0.7078
  365MOL0     C49153   8.829   7.165   7.156  0.2347 -0.2306 -0.6665
  365MOL0     C49154   8.951   7.089   7.102 -0.3342 -0.0183 -0.2508
  365MOL0     C49155   9.054   7.051   7.219 -0.0657  0.0784 -0.3618
  365MOL0     C49156   9.163   7.155   7.234 -0.5548 -0.9087  0.1008
  365MOL0     N49157   9.272   7.165   7.134  0.0901  0.9242 -0.1778
  365MOL0     C49158   9.289   7.277   7.058  0.6802  1.3768  0.1216
  365MOL0     C49159   9.415   7.273   7.020 -0.3976  0.0360 -0.1387
  365MOL0     C49160   9.500   7.360   6.932 -1.0704 -0.3472  0.3379
  365MOL0     C49161   9.581   7.449   7.020 -1.0331 -0.3738  0.1117
  365MOL0     C49162   9.559   7.600   6.992 -0.3626 -0.5767  0.8952
  365MOL0     C49163   9.627   7.641   6.867 -0.2262  1.0531  0.0827
  365MOL0     O49164   9.636   7.782   6.862 -0.1160  0.5727 -0.8244
  365MOL0     C49165   9.753   7.846   6.901  0.2522  0.6778 -0.8762
  365MOL0     C49166   9.870   7.777   6.943 -0.4635 -0.2381  0.5917
  365MOL0     C49167   9.981   7.862   6.963 -0.3978 -0.5365  0.7355
  365MOL0     C49168   9.983   8.000   6.928  0.3264 -0.5662 -0.3858
  365MOL0     C49169  10.107   8.074   6.912 -0.6574 -0.4924  1.1476
  365MOL0     O49170  10.103   8.214   6.905 -0.0828 -1.1081  0.5207
  365MOL0     C49171  10.210   8.294   6.869 -0.4256 -0.2768 -0.1970
  365MOL0     C49172  10.182   8.406   6.788  0.3760  0.3661  1.0844
  365MOL0     C49173  10.280   8.484   6.737 -0.3421 -0.1832  0.3089
  365MOL0     C49174  10.409   8.462   6.784 -0.5174 -1.0000 -0.5706
  365MOL0     O49175  10.527   8.544   6.762 -0.4501 -0.2843 -0.1864
  365MOL0     C49176  10.501   8.659   6.685 -0.0844 -0.0696  0.6631
  365MOL0     C49177  10.626   8.733   6.660  0.0286 -0.0607 -0.1415
  365MOL0     C49178  10.694   8.768   6.795  0.0749 -1.1952  0.0223
  365MOL0     C49179  10.840   8.788   6.774 -0.0717  0.6139  0.3266
  365MOL0     C49180  10.882   8.862   6.904  0.9114 -0.4218  0.1683
  365MOL0     C49181  11.036   8.882   6.917  0.3625 -0.0447 -0.7440
  365MOL0     C49182  11.079   8.977   6.803 -0.9724 -1.2600 -0.9441
  365MOL0     C49183  11.228   9.023   6.802 -0.8277  0.0181  0.3150
  365MOL0    Cl49184  11.280   9.105   6.954  0.3355 -0.2930  0.6149
  365MOL0     C49185  10.447   8.349   6.863 -0.7625 -0.8395 -0.6894
  365MOL0     C49186  10.343   8.268   6.907  0.7134  0.4392  0.8060
  365MOL0     O49187  10.209   8.011   6.913 -0.1086 -0.3748 -0.3867
  365MOL0     C49188   9.861   8.063   6.887 -0.3112 -0.5174 -0.3867
  365MOL0     C49189   9.749   7.983   6.878 -0.0160 -0.2652 -0.0008
  365MOL0     N49190   9.473   7.159   7.083  0.7780 -0.6808 -0.6956
  365MOL0     N49191   9.384   7.094   7.146  0.3293 -0.4378 -0.4065
  365MOL0     C49192   8.091   6.869   7.434  0.5865 -0.6861  0.2236
  365MOL0     C49193   7.947   6.841   7.430 -1.2779  0.0112  0.5069
  365MOL0     C49194   7.514   6.850   7.277 -0.1274  0.0703  0.4720
  365MOL0     C49195   7.506   6.745   7.373  0.2162  0.1734  0.3245
  365MOL0     C49196   7.381   6.677   7.385 -1.1753  0.3614 -0.7360
  365MOL0     C49197   7.266   6.714   7.314  0.5452  0.0536  0.6001
  365MOL0     O49198   7.148   6.646   7.322 -0.2697 -0.4673  0.8888
  365MOL0     C49199   7.159   6.506   7.322 -0.1032 -0.1459  0.1258
  365MOL0     C49200   7.026   6.439   7.340 -0.0319 -0.3197 -0.8961
  365MOL0     C49201   6.968   6.464   7.476  0.4315  0.0903  0.0676
  365MOL0     C49202   6.816   6.427   7.475  0.3066 -0.0772  0.6756
  365MOL0     C49203   6.782   6.426   7.618  0.3598  1.1102 -0.4384
  365MOL0     C49204   6.735   6.424   7.735 -0.8540  0.2393  0.2280
  365MOL0     C49205   7.275   6.821   7.232 -0.3657 -1.3199 -0.2263
  365MOL0     C49206   7.401   6.891   7.213  0.5997 -0.3748  0.4083
  365MOL0     C49207   7.395   7.018   7.131 -0.6809  0.1724  0.0696
  365MOL0     H49208   7.825   7.125   7.283 -0.5182 -1.2766 -1.5291
  365MOL0     H49209   8.086   7.177   7.307  2.2777 -1.1382  1.9946
  365MOL0     H49210   8.300   7.127   7.221  2.9288 -0.1921 -0.5478
  365MOL0     H49211   8.356   7.214   7.365  3.1404 -0.8911  1.0339
  365MOL0     H49212   8.488   6.982   7.227 -0.0594 -0.5889  0.9274
  365MOL0     H49213   8.508   7.007   7.402 -0.8263  1.6378  0.9674
  365MOL0     H49214   8.602   7.235   7.327  2.9161 -1.0408  0.1676
  365MOL0     H49215   8.564   7.191   7.158 -1.9050 -3.4203 -0.4902
  365MOL0     H49216   8.776   7.063   7.347 -0.0331  3.3855  0.3980
  365MOL0     H49217   8.724   6.988   7.196  1.6093 -0.5696 -1.2617
  365MOL0     H49218   8.786   7.200   7.061 -0.6248  2.7976  0.7068
  365MOL0     H49219   8.867   7.257   7.201 -1.6809  0.3787 -0.2078
  365MOL0     H49220   8.923   7.000   7.044 -0.4407  0.0762 -0.3439
  365MOL0     H49221   9.004   7.161   7.040  4.1731 -1.3747  1.6102
  365MOL0     H49222   9.104   6.956   7.198 -1.3617 -0.7937  0.3638
  365MOL0     H49223   9.004   7.027   7.313 -0.1485  2.6062  0.3148
  365MOL0     H49224   9.118   7.255   7.225 -2.8420 -1.7175  1.7472
  365MOL0     H49225   9.214   7.138   7.329 -0.7588  1.4580  0.7080
  365MOL0     H49226   9.215   7.350   7.028 -3.6397 -2.4188  0.3893
  365MOL0     H49227   9.555   7.288   6.870 -0.7328  1.6527 -1.8052
  365MOL0     H49228   9.456   7.421   6.852  1.8488 -0.9575 -1.8997
  365MOL0     H49229   9.560   7.433   7.127  1.9247 -1.4602  0.6245
  365MOL0     H49230   9.685   7.422   7.003  0.3684  3.5925  1.3073
  365MOL0     H49231   9.592   7.660   7.077  0.1866 -0.3368  0.5234
  365MOL0     H49232   9.452   7.619   6.976 -1.1837 -3.7387  1.8768
  365MOL0     H49233   9.569   7.601   6.783 -0.7259 -0.9995  1.3367
  365MOL0     H49234   9.724   7.591   6.858 -0.5317  0.6544 -1.3034
  365MOL0     H49235   9.865   7.679   6.989  2.6833 -0.0532  1.6011
  365MOL0     H49236  10.075   7.813   6.990 -0.3237 -1.5656 -1.2329
  365MOL0     H49237  10.080   8.409   6.751  1.3304 -2.1879 -2.1825
  365MOL0     H49238  10.243   8.571   6.685 -2.6047 -0.7128  0.8777
  365MOL0     H49239  10.461   8.641   6.586 -1.5094  0.8124  1.0509
  365MOL0     H49240  10.420   8.713   6.734 -3.6480 -1.9204 -2.6902
  365MOL0     H49241  10.698   8.679   6.597  1.0476  2.5110 -1.3680
  365MOL0     H49242  10.599   8.829   6.614 -0.3404 -0.6907 -1.2700
  365MOL0     H49243  10.643   8.859   6.827 -1.8242 -0.9571 -3.1907
  365MOL0     H49244  10.675   8.689   6.869  0.0305 -0.9809  0.2417
  365MOL0     H49245  10.879   8.846   6.690  3.3915  3.2701  3.4130
  365MOL0     H49246  10.900   8.696   6.775  0.2702  0.7434 -2.2945
  365MOL0     H49247  10.832   8.821   6.992  2.6402  0.0059  1.4127
  365MOL0     H49248  10.837   8.961   6.893 -0.7944 -1.0271  1.2610
  365MOL0     H49249  11.058   8.913   7.020  1.2642  1.4110 -1.3412
  365MOL0     H49250  11.091   8.790   6.896 -1.9336 -2.0054  1.2858
  365MOL0     H49251  11.011   9.062   6.803  0.3782 -0.0905  0.7839
  365MOL0     H49252  11.057   8.924   6.710 -1.7953 -0.3362 -1.2973
  365MOL0     H49253  11.291   8.934   6.792  1.4587  1.5337  0.6559
  365MOL0     H49254  11.245   9.091   6.718 -1.5808  2.1135  1.7838
  365MOL0     H49255  10.549   8.349   6.902 -0.9773  2.6646  0.2768
  365MOL0     H49256  10.363   8.177   6.964 -1.3625  0.0498  0.9875
  365MOL0     H49257   9.859   8.170   6.868  1.5824 -0.5008 -0.7639
  365MOL0     H49258   9.652   8.020   6.847  0.3950  1.1009  0.3046
  365MOL0     H49259   8.164   6.800   7.474 -0.0780 -0.3820  2.0560
  365MOL0     H49260   7.912   6.743   7.459 -1.1291  0.4091  2.0998
  365MOL0     H49261   7.584   6.708   7.439  0.3482  1.5196  0.9542
  365MOL0     H49262   7.378   6.591   7.451 -1.0651  0.0323 -1.1556
  365MOL0     H49263   7.215   6.466   7.407 -0.6802 -1.8364 -0.2566
  365MOL0     H49264   7.215   6.473   7.235  2.4001 -0.2613  1.6625
  365MOL0     H49265   7.032   6.332   7.319  1.3643 -0.4925  0.2646
  365MOL0     H49266   6.957   6.478   7.265 -1.5705 -4.0960 -1.6934
  365MOL0     H49267   6.965   6.572   7.493 -1.5744 -0.1668  1.7958
  365MOL0     H49268   7.021   6.411   7.557 -0.6213  1.2712  1.5880
  365MOL0     H49269   6.758   6.500   7.419  0.8143  0.7375  1.1865
  365MOL0     H49270   6.812   6.327   7.430  2.1954 -0.2199  0.7154
  365MOL0     H49271   6.685   6.405   7.828 -4.1666 -0.0141 -1.4648
  365MOL0     H49272   7.190   6.842   7.168 -2.4573 -3.5074  1.6668
  365MOL0     H49273   7.453   7.013   7.038  3.4372  1.1970  2.3065
  365MOL0     H49274   7.295   7.058   7.113 -1.2285 -2.4219 -4.1267
  365MOL0     H49275   7.452   7.090   7.190  4.4726 -3.9473  0.8713
  366MOL0     O49276   2.689   4.768   9.666  0.3098  0.1140 -0.3336
  366MOL0     C49277   2.649   4.857   9.589 -0.8940 -0.2848 -0.2583
  366MOL0     O49278   2.512   4.887   9.571  0.2105 -0.7368 -0.2885
  366MOL0     C49279   2.422   4.807   9.645 -1.0467 -0.3536 -0.8209
  366MOL0     C49280   2.390   4.831   9.779 -0.2577 -0.2850  0.5326
  366MOL0     C49281   2.308   4.749   9.845  0.2177  0.1350 -0.1692
  366MOL0     C49282   2.244   4.643   9.787  0.1671 -0.1497  0.0820
  366MOL0     O49283   2.156   4.578   9.870  0.1966  0.7079 -0.1025
  366MOL0     C49284   2.195   4.560  10.007 -0.9511 -0.7421  0.5463
  366MOL0     C49285   2.154   4.425  10.068  0.4058 -0.2134  0.2594
  366MOL0     C49286   2.258   4.314  10.064 -0.2006 -0.8647 -0.0149
  366MOL0     C49287   2.214   4.168  10.093  0.0820  0.4151 -0.1192
  366MOL0     C49288   2.331   4.071  10.105 -0.0774 -0.0653 -0.0145
  366MOL0     C49289   2.288   3.920  10.107  0.0182 -0.4390  0.7649
  366MOL0     C49290   2.403   3.828  10.068  0.0054  0.7679 -0.6627
  366MOL0     C49291   2.519   3.819  10.170 -0.5215  0.0852 -0.0800
  366MOL0     N49292   2.616   3.718  10.131 -0.2838 -0.2728  0.5756
  366MOL0     C49293   2.704   3.727  10.023 -0.3577  0.4897 -0.3073
  366MOL0     C49294   2.795   3.625  10.038 -0.0287 -0.1507  0.1842
  366MOL0     C49295   2.913   3.583   9.958  0.7372 -0.0019 -0.3075
  366MOL0     C49296   3.040   3.648  10.013 -0.3581 -0.7782  1.0451
  366MOL0     C49297   3.037   3.799  10.010  0.4161 -1.2590 -0.2756
  366MOL0     C49298   3.181   3.841   9.977  0.3076  0.0509 -1.0213
  366MOL0     O49299   3.279   3.784  10.068 -0.6345 -0.1454  0.1087
  366MOL0     C49300   3.405   3.768  10.010 -0.7051 -0.6197  0.0313
  366MOL0     C49301   3.497   3.683  10.076  1.3637  0.2173  0.0819
  366MOL0     C49302   3.629   3.661  10.029  0.2384 -0.0922 -0.3160
  366MOL0     C49303   3.678   3.727   9.922  0.0802 -1.0369 -0.0901
  366MOL0     C49304   3.811   3.703   9.878 -0.1400  0.0416 -0.3225
  366MOL0     O49305   3.877   3.608   9.951 -0.6926 -0.5658 -0.1340
  366MOL0     C49306   4.008   3.581   9.924  0.1184  0.1221  0.6272
  366MOL0     C49307   4.028   3.470   9.847 -0.0631 -0.0247  0.8840
  366MOL0     C49308   4.156   3.442   9.806  0.5725 -0.2038 -0.6994
  366MOL0     C49309   4.265   3.524   9.832 -0.3187  0.5539 -1.1711
  366MOL0     O49310   4.388   3.507   9.773 -0.0005  0.2962  0.3956
  366MOL0     C49311   4.402   3.431   9.649 -0.0229  0.7792  0.2648
  366MOL0     C49312   4.546   3.413   9.615 -0.3300  0.4243 -0.6810
  366MOL0     C49313   4.572   3.272   9.549 -1.0874 -0.5922  0.6354
  366MOL0     C49314   4.490   3.231   9.427 -0.2976 -0.8959 -0.5964
  366MOL0     C49315   4.521   3.089   9.381 -0.0924 -0.0397 -0.1384
  366MOL0     C49316   4.451   2.976   9.471 -0.6392 -0.5991 -0.3555
  366MOL0     C49317   4.312   2.964   9.416  0.1033  0.5556 -0.0372
  366MOL0     C49318   4.224   2.938   9.540 -0.3927 -0.4429 -0.3390
  366MOL0    Cl49319   4.208   3.080   9.657 -0.5293  0.2709 -0.1875
  366MOL0     C49320   4.244   3.630   9.919 -0.8961  0.0498 -0.0454
  366MOL0     C49321   4.113   3.661   9.960 -0.0215  0.5453  0.2265
  366MOL0     O49322   3.868   3.764   9.786  0.1072  1.0300 -0.4239
  366MOL0     C49323   3.594   3.818   9.865  0.3670  0.5383  0.8043
  366MOL0     C49324   3.459   3.841   9.907 -0.2048  0.1385  0.6221
  366MOL0     N49325   2.764   3.564  10.155 -0.3444  0.2614 -0.1872
  366MOL0     N49326   2.647   3.608  10.209 -0.4257  0.3019  0.4571
  366MOL0     C49327   2.265   4.607   9.651 -0.1433 -0.2443  1.0579
  366MOL0     C49328   2.360   4.689   9.582 -0.4947  0.8266  1.1819
  366MOL0     C49329   2.761   4.949   9.544  0.6067  0.3264  0.3230
  366MOL0     C49330   2.751   5.085   9.595 -0.7360  0.3029  0.1560
  366MOL0     C49331   2.860   5.169   9.573 -0.0887 -0.1378  0.7882
  366MOL0     C49332   2.976   5.126   9.510  0.5165  0.4280  0.2598
  366MOL0     O49333   3.080   5.219   9.496 -0.8863  0.5562 -0.0769
  366MOL0     C49334   3.198   5.177   9.436  1.0702 -0.2160  0.0609
  366MOL0     C49335   3.316   5.268   9.474 -0.3691 -0.1876  0.6281
  366MOL0     C49336   3.430   5.249   9.375 -0.2552  0.1058  0.3586
  366MOL0     C49337   3.527   5.363   9.392  0.7506 -0.9812 -0.6797
  366MOL0     C49338   3.638   5.368   9.296  0.5144 -0.3088 -0.1380
  366MOL0     C49339   3.704   5.370   9.195  1.0035  0.4487 -0.3444
  366MOL0     C49340   2.985   4.992   9.470  0.3137 -0.3124  0.8385
  366MOL0     C49341   2.880   4.908   9.480 -0.5683  0.2604 -0.7515
  366MOL0     C49342   2.895   4.769   9.444 -0.0694  0.1993 -0.5128
  366MOL0     H49343   2.438   4.896   9.851 -0.5980 -0.5146  0.9730
  366MOL0     H49344   2.291   4.775   9.949 -0.1997  0.0396 -0.2121
  366MOL0     H49345   2.304   4.558  10.010 -0.6557  0.7444 -3.3662
  366MOL0     H49346   2.158   4.643  10.067  1.7778  0.9835  0.0289
  366MOL0     H49347   2.075   4.377  10.009  1.4036 -2.2710  0.5239
  366MOL0     H49348   2.118   4.434  10.171  0.3932  0.6486  0.1853
  366MOL0     H49349   2.332   4.341  10.139  0.8621 -0.9557 -1.0093
  366MOL0     H49350   2.314   4.315   9.970 -1.1323 -3.2582 -0.6537
  366MOL0     H49351   2.151   4.152  10.181 -0.9266  1.1721 -0.6808
  366MOL0     H49352   2.156   4.137  10.006 -0.5503  5.0444 -1.6219
  366MOL0     H49353   2.391   4.088  10.015 -1.2228 -1.4234 -1.1013
  366MOL0     H49354   2.396   4.088  10.191  1.8976 -0.8151 -1.2796
  366MOL0     H49355   2.250   3.910  10.210 -0.6727  1.5851  0.7455
  366MOL0     H49356   2.205   3.892  10.040 -1.0802 -0.6284  2.1486
  366MOL0     H49357   2.449   3.866   9.977  0.5634 -0.0001 -0.7097
  366MOL0     H49358   2.357   3.729  10.055  0.3038  0.1177  2.3699
  366MOL0     H49359   2.569   3.916  10.183 -0.0139 -0.3690  1.6674
  366MOL0     H49360   2.496   3.790  10.273 -1.0807 -0.4786 -0.3540
  366MOL0     H49361   2.707   3.805   9.947  0.1704  0.9057  0.1336
  366MOL0     H49362   2.934   3.477   9.974  2.7632  0.5713  1.3118
  366MOL0     H49363   2.897   3.622   9.857  0.3904  0.9636  0.1068
  366MOL0     H49364   3.061   3.601  10.109 -1.5540 -3.0473  0.2779
  366MOL0     H49365   3.112   3.614   9.939 -0.8030  0.8236 -0.1820
  366MOL0     H49366   2.988   3.836  10.101 -0.3238  0.6882 -1.4018
  366MOL0     H49367   2.978   3.842   9.928  2.0518 -0.1278 -0.9069
  366MOL0     H49368   3.195   3.949   9.988 -2.8444  0.3228  2.1990
  366MOL0     H49369   3.200   3.818   9.872  0.5110  1.9606 -1.4349
  366MOL0     H49370   3.473   3.619  10.160  0.0059 -3.5486 -2.9072
  366MOL0     H49371   3.691   3.588  10.080  0.3138 -3.2507 -4.3788
  366MOL0     H49372   3.947   3.402   9.825  0.8768 -0.8896 -0.0074
  366MOL0     H49373   4.173   3.356   9.742 -3.2222 -1.2392 -0.5783
  366MOL0     H49374   4.351   3.335   9.662 -2.0755  1.4746 -1.9912
  366MOL0     H49375   4.350   3.477   9.565 -1.8469 -2.0945 -0.3480
  366MOL0     H49376   4.591   3.495   9.559  1.2922 -0.3698 -0.6196
  366MOL0     H49377   4.600   3.420   9.710 -1.3047  1.0573 -0.1631
  366MOL0     H49378   4.680   3.270   9.534 -0.9471  1.8919  0.8740
  366MOL0     H49379   4.541   3.197   9.623  1.0306 -2.7927 -0.5781
  366MOL0     H49380   4.518   3.303   9.349  1.7887 -0.2509  0.6691
  366MOL0     H49381   4.385   3.256   9.445  0.6138  3.0294  0.3411
  366MOL0     H49382   4.629   3.077   9.391 -0.2435  0.0175  2.1865
  366MOL0     H49383   4.504   3.088   9.273 -0.8702 -0.3881 -0.0178
  366MOL0     H49384   4.504   2.882   9.452  1.8781  0.9537 -1.6045
  366MOL0     H49385   4.465   3.001   9.576  0.7278 -1.8320 -0.2198
  366MOL0     H49386   4.308   2.877   9.349  2.6374  1.4788 -1.5258
  366MOL0     H49387   4.286   3.051   9.355 -0.2120  1.0796  0.8230
  366MOL0     H49388   4.124   2.906   9.511  0.0470 -3.1570  0.8357
  366MOL0     H49389   4.261   2.850   9.593 -1.7529 -0.9963 -0.2910
  366MOL0     H49390   4.334   3.687   9.939 -2.2608  2.2216  0.2979
  366MOL0     H49391   4.091   3.750  10.019 -2.5657 -1.6752  2.9532
  366MOL0     H49392   3.630   3.872   9.778  2.0768 -1.3295  0.2706
  366MOL0     H49393   3.392   3.906   9.852  0.7241  0.2041 -0.4609
  366MOL0     H49394   2.224   4.521   9.597 -2.7331  0.8615  1.1256
  366MOL0     H49395   2.398   4.676   9.481 -1.5550  0.3898  0.8128
  366MOL0     H49396   2.665   5.115   9.655 -0.9708 -0.2805  0.1213
  366MOL0     H49397   2.858   5.274   9.602 -0.7009 -0.6062  2.5520
  366MOL0     H49398   3.183   5.170   9.328  0.4779 -0.5643  0.1589
  366MOL0     H49399   3.225   5.079   9.477 -0.6299 -1.1857 -1.0247
  366MOL0     H49400   3.351   5.253   9.576 -0.5059 -0.6904  0.6023
  366MOL0     H49401   3.278   5.371   9.473  1.3133  0.5527  3.3729
  366MOL0     H49402   3.383   5.243   9.276 -2.5028 -2.6143  1.4610
  366MOL0     H49403   3.485   5.158   9.399  0.1823  0.0739 -0.7205
  366MOL0     H49404   3.472   5.457   9.398  0.2264 -1.3860  1.9086
  366MOL0     H49405   3.560   5.362   9.496 -3.5375  2.1966  0.9941
  366MOL0     H49406   3.755   5.350   9.103  0.2424 -1.1920 -0.4386
  366MOL0     H49407   3.072   4.944   9.427  0.0185  0.6027 -0.8726
  366MOL0     H49408   2.806   4.719   9.405 -0.6658  2.0933 -1.6905
  366MOL0     H49409   2.975   4.763   9.370 -0.4349  0.9572 -0.9798
  366MOL0     H49410   2.931   4.715   9.533 -1.5356  1.0322  0.6363
  367MOL0     O49411   3.118   5.698   6.245  1.3588  0.0940 -0.4193
  367MOL0     C49412   3.080   5.816   6.258  0.2572  0.1170  0.1978
  367MOL0     O49413   3.091   5.909   6.159  0.2214  0.5190 -0.2416
  367MOL0     C49414   3.172   5.886   6.047  0.1617 -0.1984 -0.6878
  367MOL0     C49415   3.290   5.960   6.020 -0.3861 -0.1844 -0.3916
  367MOL0     C49416   3.371   5.932   5.908 -0.1059  0.9454 -0.9263
  367MOL0     C49417   3.342   5.816   5.834  0.3022 -0.8753 -0.3280
  367MOL0     O49418   3.431   5.784   5.728 -0.0174 -0.5344 -0.4900
  367MOL0     C49419   3.365   5.735   5.611  0.1219 -0.1296  0.4821
  367MOL0     C49420   3.469   5.662   5.524  0.2567  0.0477 -0.8079
  367MOL0     C49421   3.402   5.604   5.402  0.3055 -0.2738  0.1855
  367MOL0     C49422   3.498   5.498   5.336 -0.1081  0.1775 -0.6262
  367MOL0     C49423   3.468   5.483   5.187 -0.0068 -0.5736  0.2882
  367MOL0     C49424   3.535   5.358   5.126 -0.7052  1.1676 -1.3921
  367MOL0     C49425   3.536   5.335   4.969 -0.2728 -0.0081 -0.4635
  367MOL0     C49426   3.568   5.469   4.889  0.3611 -0.8927  0.3150
  367MOL0     N49427   3.701   5.524   4.917  0.4240  0.6211 -0.3899
  367MOL0     C49428   3.741   5.610   5.029  0.1409 -0.5100 -0.0533
  367MOL0     C49429   3.872   5.605   5.032 -1.0849  0.6275 -0.0048
  367MOL0     C49430   3.979   5.660   5.115  0.6779 -0.7520 -0.2062
  367MOL0     C49431   4.018   5.547   5.216  0.2927 -0.0161 -0.1237
  367MOL0     C49432   3.906   5.512   5.316  0.3800  0.3448 -0.2891
  367MOL0     C49433   3.867   5.634   5.394  0.3790  0.5841 -0.0606
  367MOL0     O49434   3.855   5.593   5.529 -0.0450 -0.4753  0.1181
  367MOL0     C49435   3.833   5.687   5.616 -0.4163  0.3929 -0.5639
  367MOL0     C49436   3.848   5.636   5.756 -0.2626 -0.3609  1.0576
  367MOL0     C49437   3.812   5.711   5.863  0.2473  0.1274 -0.9152
  367MOL0     C49438   3.767   5.845   5.849 -0.3027  0.1604  0.3949
  367MOL0     C49439   3.739   5.925   5.966 -1.0088 -0.6374  0.1489
  367MOL0     O49440   3.772   5.883   6.093 -0.5270 -0.0540 -0.2981
  367MOL0     C49441   3.675   5.902   6.193 -0.8198  0.3557 -0.1591
  367MOL0     C49442   3.694   5.996   6.288 -0.8430 -0.1233 -1.1850
  367MOL0     C49443   3.597   6.029   6.394 -0.4695  1.0363  0.6055
  367MOL0     C49444   3.477   5.960   6.402 -0.8457  0.4940 -1.0365
  367MOL0     O49445   3.372   5.971   6.499 -0.8651 -0.4748  0.5520
  367MOL0     C49446   3.371   6.087   6.582  0.8531 -0.6770  0.2117
  367MOL0     C49447   3.316   6.210   6.500  0.3722  1.0436 -0.0442
  367MOL0     C49448   3.193   6.174   6.429  0.1005 -0.7778  0.8972
  367MOL0     C49449   3.152   6.287   6.333  0.4919 -0.3171  0.1844
  367MOL0     C49450   3.081   6.404   6.401 -0.3825 -0.0442  0.2884
  367MOL0     C49451   2.941   6.366   6.451 -1.2233  0.1065  0.8111
  367MOL0     C49452   2.866   6.489   6.477  0.3000 -1.3043  0.3920
  367MOL0     C49453   2.731   6.466   6.543  0.3979  0.6006  0.7044
  367MOL0    Cl49454   2.620   6.388   6.430 -0.3954  0.3266  0.5253
  367MOL0     C49455   3.461   5.856   6.319 -0.3556  0.4123 -0.2687
  367MOL0     C49456   3.556   5.827   6.214  0.2854 -0.2408  0.3296
  367MOL0     O49457   3.688   6.035   5.943 -0.4836 -0.6695 -0.7479
  367MOL0     C49458   3.763   5.897   5.709 -0.8283 -0.9576  0.1104
  367MOL0     C49459   3.797   5.824   5.600 -0.6708  0.3717  0.3948
  367MOL0     N49460   3.906   5.526   4.915 -0.1601 -0.1526 -0.6882
  367MOL0     N49461   3.804   5.462   4.866  0.0835 -0.2257  0.3711
  367MOL0     C49462   3.228   5.740   5.863  0.1788  0.2645  0.1595
  367MOL0     C49463   3.142   5.784   5.963 -0.2400  0.9304 -0.1930
  367MOL0     C49464   2.993   5.851   6.373 -0.6015  0.5545 -0.1203
  367MOL0     C49465   2.887   5.946   6.345 -0.0480 -0.2658  0.5440
  367MOL0     C49466   2.811   5.981   6.457 -0.8094 -0.2759 -0.4510
  367MOL0     C49467   2.830   5.945   6.587  0.1746  0.5376 -0.2242
  367MOL0     O49468   2.737   5.996   6.673  0.1923  0.0199 -0.7041
  367MOL0     C49469   2.759   6.008   6.816  0.0146 -0.9315 -0.3473
  367MOL0     C49470   2.899   6.088   6.842  0.4414 -0.0910 -0.2192
  367MOL0     C49471   2.872   6.238   6.833  0.7821 -0.4747 -0.0820
  367MOL0     C49472   2.838   6.303   6.965  0.5360  0.5185 -0.1358
  367MOL0     C49473   2.786   6.437   6.929 -0.6785 -0.1455  0.5744
  367MOL0     C49474   2.750   6.548   6.900  0.2196 -0.5030 -0.2545
  367MOL0     C49475   2.915   5.832   6.606  0.4040  0.1932  0.1188
  367MOL0     C49476   3.010   5.795   6.506 -0.0131  0.3530 -1.0727
  367MOL0     C49477   3.111   5.686   6.533  0.7631  0.8043 -0.1418
  367MOL0     H49478   3.343   6.016   6.096 -0.3776 -2.5717  1.4870
  367MOL0     H49479   3.468   5.980   5.905 -0.1633  1.3546  1.3875
  367MOL0     H49480   3.284   5.666   5.638 -2.4295  2.0322 -1.0621
  367MOL0     H49481   3.318   5.816   5.554 -4.1335 -2.1167  0.7206
  367MOL0     H49482   3.512   5.580   5.583 -1.9751 -1.3032 -0.9515
  367MOL0     H49483   3.544   5.735   5.492  0.5740 -0.3394 -0.9641
  367MOL0     H49484   3.380   5.684   5.331  1.6302 -0.8021 -0.8651
  367MOL0     H49485   3.309   5.556   5.432 -3.3895  3.4489 -3.9622
  367MOL0     H49486   3.599   5.537   5.352  0.3064 -1.0329 -0.1833
  367MOL0     H49487   3.497   5.405   5.394 -0.6326  0.1629 -0.6541
  367MOL0     H49488   3.360   5.478   5.169  0.6522 -0.9090 -4.9146
  367MOL0     H49489   3.494   5.574   5.134 -0.2505 -0.9761 -0.5411
  367MOL0     H49490   3.641   5.367   5.153 -0.5017 -0.8676 -1.4036
  367MOL0     H49491   3.494   5.277   5.186  0.5927  3.4677  3.0838
  367MOL0     H49492   3.433   5.302   4.949 -0.6442 -0.0652  1.3066
  367MOL0     H49493   3.602   5.249   4.953  3.0895  2.4840 -1.1026
  367MOL0     H49494   3.559   5.454   4.781  0.5211  5.3044 -0.9193
  367MOL0     H49495   3.500   5.552   4.910  1.6392  0.2481  0.0736
  367MOL0     H49496   3.678   5.653   5.107 -0.0203 -0.4971 -0.1895
  367MOL0     H49497   4.061   5.692   5.051 -1.7010  0.2669 -2.9796
  367MOL0     H49498   3.937   5.747   5.166 -0.3067 -2.8039  2.8340
  367MOL0     H49499   4.041   5.456   5.159  0.5401 -1.3593  1.9787
  367MOL0     H49500   4.111   5.577   5.264  0.3355 -0.0740 -0.1707
  367MOL0     H49501   3.943   5.434   5.383 -0.3636 -1.5117 -1.9454
  367MOL0     H49502   3.824   5.456   5.270  0.7941 -0.5881  0.0762
  367MOL0     H49503   3.768   5.663   5.359 -0.4019 -2.6363 -0.8665
  367MOL0     H49504   3.943   5.713   5.388 -1.7237  2.7875  0.9609
  367MOL0     H49505   3.885   5.534   5.759  0.4643 -0.1216  0.5323
  367MOL0     H49506   3.832   5.683   5.966  2.4328  2.5140 -0.6147
  367MOL0     H49507   3.781   6.061   6.291  1.4471 -2.9674 -1.8988
  367MOL0     H49508   3.620   6.108   6.465  1.6884  3.8809 -2.8462
  367MOL0     H49509   3.300   6.062   6.662  2.9518 -1.9882  1.7440
  367MOL0     H49510   3.459   6.114   6.640  0.4801 -1.0720  0.9764
  367MOL0     H49511   3.293   6.289   6.572 -2.0798  1.2715 -0.9786
  367MOL0     H49512   3.392   6.255   6.436 -0.6909  0.6953 -1.5918
  367MOL0     H49513   3.185   6.082   6.371  1.0216  1.2599 -2.8069
  367MOL0     H49514   3.122   6.161   6.511 -0.0595 -3.2655  0.4420
  367MOL0     H49515   3.088   6.250   6.252 -0.8930  0.1177  1.0382
  367MOL0     H49516   3.246   6.321   6.288  2.7021 -1.6587  3.3971
  367MOL0     H49517   3.076   6.490   6.334  0.0224  0.9116  1.4453
  367MOL0     H49518   3.143   6.448   6.480  1.9630 -3.4750  0.5987
  367MOL0     H49519   2.879   6.313   6.378 -2.0011  0.2747  1.3358
  367MOL0     H49520   2.942   6.302   6.539  0.2648  0.8035  1.3425
  367MOL0     H49521   2.860   6.544   6.382  1.2255  3.3590  2.7095
  367MOL0     H49522   2.922   6.568   6.528  0.4358  0.5150 -2.3878
  367MOL0     H49523   2.741   6.414   6.639  1.9179  1.0336  0.8137
  367MOL0     H49524   2.704   6.570   6.563 -0.1845  0.5103  0.3814
  367MOL0     H49525   3.371   5.798   6.307  1.3084 -2.3700 -0.2180
  367MOL0     H49526   3.525   5.746   6.149 -2.1840  1.3252 -0.5755
  367MOL0     H49527   3.737   6.000   5.688  2.9517  0.2453  0.5313
  367MOL0     H49528   3.783   5.875   5.505 -2.8271 -1.0639 -0.1259
  367MOL0     H49529   3.201   5.642   5.824 -0.7637  0.4121  0.4155
  367MOL0     H49530   3.054   5.725   5.988 -0.7534  2.3822  1.6471
  367MOL0     H49531   2.866   5.987   6.246 -4.2023  0.3546  1.4790
  367MOL0     H49532   2.736   6.059   6.450 -0.9039 -0.4233 -1.1292
  367MOL0     H49533   2.767   5.905   6.853 -1.9145 -1.1096 -0.3018
  367MOL0     H49534   2.673   6.058   6.860  1.2359  1.0324 -0.0888
  367MOL0     H49535   2.979   6.064   6.771  0.7972  1.8020 -0.5179
  367MOL0     H49536   2.924   6.048   6.940  0.0406 -3.0260 -1.2178
  367MOL0     H49537   2.790   6.253   6.762 -1.1569 -2.8978  1.4695
  367MOL0     H49538   2.958   6.294   6.795 -0.0076  1.2111  0.5013
  367MOL0     H49539   2.763   6.249   7.025 -0.9321  0.3105 -2.0690
  367MOL0     H49540   2.930   6.313   7.024 -0.1266  1.1468  0.8253
  367MOL0     H49541   2.724   6.648   6.871  1.6944 -0.1755 -0.5279
  367MOL0     H49542   2.917   5.787   6.705 -2.2303  3.3446  1.8107
  367MOL0     H49543   3.096   5.643   6.632 -2.0697  1.4865 -0.1987
  367MOL0     H49544   3.093   5.598   6.469  2.2112 -0.6519  1.3477
  367MOL0     H49545   3.208   5.733   6.520  0.5030  0.9456 -1.8664
  368MOL0     O49546   1.750  10.129   4.928 -0.4437  0.4326 -0.2391
  368MOL0     C49547   1.667  10.183   5.001 -0.0964  0.3692 -0.5903
  368MOL0     O49548   1.692  10.275   5.111 -0.4154  0.1902 -0.2936
  368MOL0     C49549   1.824  10.322   5.113 -0.0419 -0.8387 -0.8293
  368MOL0     C49550   1.862  10.435   5.032  0.8025  0.5533 -0.1154
  368MOL0     C49551   1.988  10.466   5.011 -0.2899  0.4977  0.6014
  368MOL0     C49552   2.090  10.390   5.067 -0.2449  0.1420  0.3460
  368MOL0     O49553   2.212  10.457   5.066 -0.1319 -0.7215  0.7811
  368MOL0     C49554   2.311  10.433   5.163  0.6489 -0.4949  1.0874
  368MOL0     C49555   2.444  10.493   5.108 -0.1933 -0.6162  0.3859
  368MOL0     C49556   2.501  10.413   4.991 -0.2907 -0.2620  0.9337
  368MOL0     C49557   2.629  10.471   4.955  0.4614 -0.4219 -0.6562
  368MOL0     C49558   2.677  10.403   4.827 -0.0989  0.5377  1.5009
  368MOL0     C49559   2.586  10.425   4.704 -0.1972 -0.4578  0.4455
  368MOL0     C49560   2.478  10.314   4.668  1.2960  0.7391 -0.3001
  368MOL0     C49561   2.513  10.218   4.563  0.4212  0.0183  0.1823
  368MOL0     N49562   2.640  10.161   4.587  0.2012  0.0511  0.0726
  368MOL0     C49563   2.743  10.173   4.503  0.7157 -0.1908  0.9207
  368MOL0     C49564   2.801  10.046   4.506 -0.4718 -0.0350 -0.0769
  368MOL0     C49565   2.908   9.985   4.411  0.6629  0.1127  0.2644
  368MOL0     C49566   3.043   9.993   4.476  0.4501 -0.8266 -0.3610
  368MOL0     C49567   3.069   9.898   4.592  0.2893 -0.1804 -0.1662
  368MOL0     C49568   3.220   9.918   4.633 -0.4112  0.3635 -0.5532
  368MOL0     O49569   3.224   9.849   4.760  0.0516 -0.2044 -0.3725
  368MOL0     C49570   3.338   9.847   4.833  0.4414 -0.3192 -0.9280
  368MOL0     C49571   3.450   9.913   4.792  0.0131 -0.1724 -0.3809
  368MOL0     C49572   3.564   9.897   4.864 -1.0883 -0.2293 -0.2753
  368MOL0     C49573   3.571   9.821   4.987  0.1589 -0.2176  0.3523
  368MOL0     C49574   3.698   9.804   5.055  0.0543  0.0984  0.5346
  368MOL0     O49575   3.701   9.776   5.188 -0.0186  1.2116  0.4873
  368MOL0     C49576   3.817   9.784   5.273  0.4053  0.5974 -0.2517
  368MOL0     C49577   3.953   9.829   5.244 -0.9031  0.1412  0.2029
  368MOL0     C49578   4.055   9.806   5.337  1.4474 -0.2416 -0.3496
  368MOL0     C49579   4.030   9.742   5.459 -0.2775  0.1614  0.3063
  368MOL0     O49580   4.139   9.730   5.545 -1.0886 -0.6569 -0.0899
  368MOL0     C49581   4.163   9.602   5.616  0.5981 -0.4677  0.2853
  368MOL0     C49582   4.196   9.495   5.519  0.5997 -0.3752  0.9787
  368MOL0     C49583   4.273   9.383   5.590  0.8723 -0.2413 -0.2047
  368MOL0     C49584   4.262   9.266   5.496 -0.0045 -0.1596  0.1630
  368MOL0     C49585   4.349   9.152   5.544  0.2091  0.0384  0.0878
  368MOL0     C49586   4.386   9.056   5.424  0.5344 -0.1097  0.1937
  368MOL0     C49587   4.476   8.945   5.483 -0.2665  0.5185 -0.1559
  368MOL0     C49588   4.555   8.860   5.385  0.1181 -0.7571  0.2485
  368MOL0    Cl49589   4.625   8.723   5.479  0.0492 -0.5676 -0.1074
  368MOL0     C49590   3.904   9.688   5.478  0.2065  0.3437  0.0405
  368MOL0     C49591   3.797   9.714   5.399 -0.1268  0.1810 -0.8077
  368MOL0     O49592   3.800   9.833   4.990 -0.2956 -0.3149  0.6274
  368MOL0     C49593   3.449   9.774   5.036  0.6465 -0.1363  0.0423
  368MOL0     C49594   3.333   9.791   4.964  0.7966  0.3636  0.0935
  368MOL0     N49595   2.731   9.967   4.601  0.2417  0.1926  0.4938
  368MOL0     N49596   2.642  10.044   4.659 -0.4219  0.0697  0.4986
  368MOL0     C49597   2.065  10.282   5.156 -0.0520 -0.4313 -0.4193
  368MOL0     C49598   1.931  10.247   5.171 -0.3801  0.3679  0.2330
  368MOL0     C49599   1.527  10.137   4.974  0.1260  0.3028  0.5346
  368MOL0     C49600   1.494  10.013   5.021  0.4704  0.1134 -0.2574
  368MOL0     C49601   1.368   9.965   4.987  0.1534 -1.2530 -0.4455
  368MOL0     C49602   1.278  10.032   4.896 -0.4761  0.1947 -0.6652
  368MOL0     O49603   1.161   9.980   4.846  0.0712 -0.1654 -0.3558
  368MOL0     C49604   1.106   9.850   4.905  0.8493 -0.8171  0.6198
  368MOL0     C49605   1.156   9.745   4.799  0.0681  0.0430  0.5252
  368MOL0     C49606   1.085   9.607   4.809 -1.1368 -0.1788  0.6741
  368MOL0     C49607   1.156   9.514   4.709  0.0837  0.6231  0.0687
  368MOL0     C49608   1.084   9.383   4.708 -0.3781  0.3031  0.3428
  368MOL0     C49609   1.050   9.272   4.717 -0.1016 -0.2828 -0.5907
  368MOL0     C49610   1.318  10.146   4.839 -0.1670  0.1855  0.3915
  368MOL0     C49611   1.447  10.194   4.870 -0.5015  0.6996  0.0993
  368MOL0     C49612   1.485  10.330   4.804 -0.1632 -0.9900  1.0315
  368MOL0     H49613   1.792  10.504   4.987  2.1917  0.0196 -3.4960
  368MOL0     H49614   2.025  10.559   4.967 -0.8712  1.7070  2.5159
  368MOL0     H49615   2.300  10.492   5.255  2.0849  1.2566  0.2062
  368MOL0     H49616   2.308  10.325   5.179 -1.0030 -0.8033 -0.9245
  368MOL0     H49617   2.514  10.487   5.192 -2.8707  1.0629  2.9237
  368MOL0     H49618   2.434  10.600   5.089  3.9574 -0.1909 -0.3880
  368MOL0     H49619   2.436  10.417   4.903  0.7626 -0.5422  0.1242
  368MOL0     H49620   2.506  10.305   5.009 -2.2156 -0.4984  0.3121
  368MOL0     H49621   2.641  10.580   4.960  1.1802 -0.4809 -0.9513
  368MOL0     H49622   2.686  10.442   5.043 -0.7196  0.6864  0.5360
  368MOL0     H49623   2.781  10.432   4.807 -0.2844 -0.2569 -0.7796
  368MOL0     H49624   2.694  10.299   4.858  0.9790 -0.0970 -1.0145
  368MOL0     H49625   2.543  10.525   4.714  2.6974  1.2068 -2.1938
  368MOL0     H49626   2.649  10.438   4.616 -0.2753  0.0657  0.4685
  368MOL0     H49627   2.391  10.373   4.635  2.4735  1.9801 -1.2747
  368MOL0     H49628   2.440  10.275   4.763  2.2206  1.9330  0.5963
  368MOL0     H49629   2.448  10.131   4.554  2.0621 -1.1995 -0.4236
  368MOL0     H49630   2.504  10.270   4.467 -2.7460 -0.1629  0.2951
  368MOL0     H49631   2.772  10.253   4.436  0.7113  0.9288  2.2255
  368MOL0     H49632   2.880   9.881   4.390 -4.6721  1.3840 -0.4709
  368MOL0     H49633   2.892  10.034   4.315 -2.1542 -1.8226 -0.3815
  368MOL0     H49634   3.118   9.962   4.402  0.7799  0.9294 -0.8040
  368MOL0     H49635   3.051  10.097   4.507 -0.2889 -0.3860 -1.5791
  368MOL0     H49636   3.057   9.792   4.567 -0.5459 -0.2580  0.5176
  368MOL0     H49637   3.007   9.923   4.679  2.9634  3.8076  0.8807
  368MOL0     H49638   3.238  10.026   4.643 -1.2531  0.3381  1.7985
  368MOL0     H49639   3.292   9.864   4.571 -0.5779 -1.2321  0.5787
  368MOL0     H49640   3.466   9.966   4.698 -0.4775  0.8116  0.0700
  368MOL0     H49641   3.653   9.943   4.822 -1.6941  0.7803 -0.4892
  368MOL0     H49642   3.969   9.871   5.145  1.5564 -1.0520  0.0285
  368MOL0     H49643   4.159   9.837   5.325  1.7928 -1.9132 -2.1894
  368MOL0     H49644   4.251   9.606   5.682  2.1690 -1.9485 -1.5859
  368MOL0     H49645   4.079   9.571   5.680  0.0393 -1.6207 -0.9562
  368MOL0     H49646   4.099   9.461   5.481  0.0098  0.4717  1.6857
  368MOL0     H49647   4.255   9.522   5.431  1.1451 -0.9521  1.1632
  368MOL0     H49648   4.379   9.402   5.611  1.1163 -0.6900 -0.9911
  368MOL0     H49649   4.232   9.360   5.689  2.1714 -0.3018  0.3413
  368MOL0     H49650   4.286   9.300   5.395  0.9415 -2.8927 -0.6090
  368MOL0     H49651   4.156   9.241   5.496 -0.5348  1.9183  0.3301
  368MOL0     H49652   4.300   9.093   5.622  2.3732 -0.7611  0.9327
  368MOL0     H49653   4.440   9.193   5.589 -2.2144  1.0696  4.5524
  368MOL0     H49654   4.297   9.009   5.380 -0.5475  0.9906  1.1520
  368MOL0     H49655   4.432   9.121   5.348 -1.9200  2.3064  0.5856
  368MOL0     H49656   4.414   8.874   5.538  0.4402  1.9095  2.5701
  368MOL0     H49657   4.546   8.995   5.550 -1.4580  0.3107  1.3014
  368MOL0     H49658   4.481   8.825   5.312 -2.7740  2.8921  1.1678
  368MOL0     H49659   4.633   8.919   5.336  0.1766  1.0698  2.4164
  368MOL0     H49660   3.904   9.629   5.569 -0.3239  0.6317  0.2307
  368MOL0     H49661   3.701   9.677   5.433  0.0589  2.0474  2.1344
  368MOL0     H49662   3.454   9.720   5.130  0.6468 -0.5704 -0.2053
  368MOL0     H49663   3.239   9.748   4.996  0.4480 -0.2502 -1.6882
  368MOL0     H49664   2.139  10.219   5.205 -0.3531 -0.5521 -0.1116
  368MOL0     H49665   1.901  10.163   5.233  1.1039 -0.0821  0.3938
  368MOL0     H49666   1.559   9.962   5.091  1.3300  0.4618 -0.7846
  368MOL0     H49667   1.362   9.871   5.042  0.4155 -0.5399  0.8383
  368MOL0     H49668   0.997   9.838   4.898  0.7278 -0.8717  2.2896
  368MOL0     H49669   1.144   9.834   5.006 -2.0276  1.9442  2.3388
  368MOL0     H49670   1.264   9.732   4.806  1.0411  4.4067 -2.4334
  368MOL0     H49671   1.126   9.777   4.698 -2.5206  0.0555  1.2104
  368MOL0     H49672   0.985   9.629   4.769 -0.6787  0.0714 -0.3475
  368MOL0     H49673   1.092   9.571   4.912 -0.5250  0.2562  0.7831
  368MOL0     H49674   1.150   9.553   4.606  0.5518  0.1441 -0.1448
  368MOL0     H49675   1.261   9.501   4.736  0.2287 -1.0022 -1.1323
  368MOL0     H49676   1.009   9.173   4.711 -3.0192  0.8720 -1.9171
  368MOL0     H49677   1.242  10.192   4.776  1.1621 -0.5205 -1.8344
  368MOL0     H49678   1.399  10.362   4.744  0.0050 -3.1163 -0.4639
  368MOL0     H49679   1.523  10.397   4.881  2.4747 -0.5172 -0.5752
  368MOL0     H49680   1.565  10.323   4.731  0.9525 -1.5728  2.2708
  369MOL0     O49681   2.696   9.056   9.917 -0.2321 -0.6449  0.3829
  369MOL0     C49682   2.658   9.106   9.812  0.1714  0.4757  0.1406
  369MOL0     O49683   2.742   9.125   9.706  0.0519  0.6957  0.6055
  369MOL0     C49684   2.858   9.047   9.699  0.3081 -0.0435  0.2552
  369MOL0     C49685   2.972   9.094   9.746  0.2229  0.2178 -0.5684
  369MOL0     C49686   3.093   9.013   9.752 -0.0849 -0.6214 -1.2486
  369MOL0     C49687   3.077   8.882   9.707 -0.7168 -0.9556 -0.4982
  369MOL0     O49688   3.182   8.791   9.716  0.0428 -0.0842  0.1406
  369MOL0     C49689   3.222   8.758   9.850  0.6792 -0.5338 -0.3808
  369MOL0     C49690   3.333   8.652   9.852 -0.1503  0.3482 -0.0504
  369MOL0     C49691   3.462   8.687   9.782 -0.2003 -0.4076  0.1842
  369MOL0     C49692   3.483   8.611   9.652  0.6497 -0.6681 -0.1447
  369MOL0     C49693   3.625   8.630   9.589 -0.3577  0.4804  0.4749
  369MOL0     C49694   3.662   8.771   9.538 -0.8232  0.4574  0.7484
  369MOL0     C49695   3.803   8.774   9.484  0.6638 -0.1957  0.1990
  369MOL0     C49696   3.836   8.908   9.419 -0.0146 -0.4195  0.7412
  369MOL0     N49697   3.969   8.902   9.354  0.1152  0.1298 -0.0691
  369MOL0     C49698   4.020   8.997   9.266 -0.6244 -0.5011 -0.1830
  369MOL0     C49699   4.154   8.978   9.265  0.8322 -1.4187  0.0531
  369MOL0     C49700   4.263   9.055   9.191  1.0494  0.1300  0.3003
  369MOL0     C49701   4.400   9.037   9.234  0.0956  0.7068  0.2904
  369MOL0     C49702   4.488   9.172   9.216  0.1532  0.5405  0.6974
  369MOL0     C49703   4.631   9.134   9.252 -0.2394  0.0439  0.0500
  369MOL0     O49704   4.707   9.212   9.159  0.8498 -1.0521  1.1530
  369MOL0     C49705   4.841   9.206   9.153 -0.2107  0.7930 -0.5064
  369MOL0     C49706   4.914   9.298   9.078  0.5085  0.1165  0.5545
  369MOL0     C49707   5.057   9.302   9.084  0.3712 -0.5048  0.8493
  369MOL0     C49708   5.126   9.213   9.156 -0.3178  0.3906  0.0383
  369MOL0     C49709   5.267   9.208   9.157 -1.0666  0.5840  0.2901
  369MOL0     O49710   5.313   9.121   9.249 -0.5715 -0.2573 -0.3108
  369MOL0     C49711   5.421   9.041   9.222 -0.1440  0.2640  0.7824
  369MOL0     C49712   5.509   9.029   9.327 -0.6493 -0.8981  0.3349
  369MOL0     C49713   5.631   8.961   9.312  0.7315  0.9823  0.2481
  369MOL0     C49714   5.660   8.906   9.188 -0.7891 -0.3452 -0.6930
  369MOL0     O49715   5.787   8.865   9.173 -0.5660 -1.0760 -0.4779
  369MOL0     C49716   5.835   8.822   9.049 -0.2395 -0.5178  0.3797
  369MOL0     C49717   5.959   8.723   9.064  0.7485  0.1706  0.1148
  369MOL0     C49718   6.041   8.742   9.190  0.2099  0.5442 -0.8876
  369MOL0     C49719   6.188   8.732   9.159  0.5922  0.8721  0.1267
  369MOL0     C49720   6.274   8.747   9.283 -0.9654 -0.2860 -0.0777
  369MOL0     C49721   6.427   8.736   9.244 -0.3764 -0.2950  0.5674
  369MOL0     C49722   6.516   8.728   9.368  0.2960 -0.1690 -1.0041
  369MOL0     C49723   6.582   8.587   9.363  0.1201  0.7238  0.0287
  369MOL0    Cl49724   6.682   8.591   9.507 -0.3002 -0.3287 -0.1096
  369MOL0     C49725   5.572   8.917   9.076  0.4632  0.0911  0.8951
  369MOL0     C49726   5.453   8.990   9.092  0.2137 -0.3299 -0.8581
  369MOL0     O49727   5.337   9.278   9.082  0.4406 -0.1383 -0.1890
  369MOL0     C49728   5.054   9.112   9.224  0.0235 -1.3148  0.1255
  369MOL0     C49729   4.917   9.115   9.229  0.5210 -0.1830 -0.9469
  369MOL0     N49730   4.184   8.867   9.346 -0.1595 -0.2625  0.6468
  369MOL0     N49731   4.074   8.824   9.394  0.8109  0.3453  0.3276
  369MOL0     C49732   2.963   8.840   9.645  0.1717 -0.2486  0.5138
  369MOL0     C49733   2.856   8.917   9.651 -0.0918 -0.0363  0.1780
  369MOL0     C49734   2.517   9.109   9.785  0.3069 -0.5718 -0.2423
  369MOL0     C49735   2.470   9.106   9.650 -0.0015 -0.1765  0.2936
  369MOL0     C49736   2.332   9.118   9.619 -0.0551  0.3027 -0.4251
  369MOL0     C49737   2.237   9.126   9.724 -0.2643 -0.3458  0.8583
  369MOL0     O49738   2.106   9.135   9.679 -0.6370  0.3749 -0.2879
  369MOL0     C49739   2.017   9.193   9.774 -0.1893  0.0324  0.9261
  369MOL0     C49740   1.883   9.177   9.702 -0.6890  0.2768  0.4406
  369MOL0     C49741   1.805   9.053   9.749  0.5367 -0.2353 -0.7112
  369MOL0     C49742   1.793   8.959   9.635  0.1775  0.5282  0.6181
  369MOL0     C49743   1.693   9.008   9.536  0.3629 -0.1069  0.9073
  369MOL0     C49744   1.610   9.051   9.457  0.3838 -0.2995 -0.5321
  369MOL0     C49745   2.284   9.130   9.857  0.6782 -0.1253 -0.5643
  369MOL0     C49746   2.421   9.135   9.894  0.7159 -0.7272  0.0898
  369MOL0     C49747   2.457   9.138  10.043  0.1077 -0.0177  0.0409
  369MOL0     H49748   2.956   9.193   9.788 -1.9661 -0.0052 -0.7432
  369MOL0     H49749   3.182   9.051   9.802 -0.2993 -1.0777 -0.5087
  369MOL0     H49750   3.254   8.848   9.902  0.0480 -1.2212  1.2754
  369MOL0     H49751   3.131   8.719   9.897  0.4424  1.5385  1.0051
  369MOL0     H49752   3.306   8.549   9.827  2.6295 -1.5751  3.9383
  369MOL0     H49753   3.355   8.649   9.959 -1.0754 -0.8128  0.1258
  369MOL0     H49754   3.545   8.661   9.849 -0.2894 -0.4867  0.2654
  369MOL0     H49755   3.454   8.794   9.762 -3.0004 -0.8685 -1.6799
  369MOL0     H49756   3.478   8.508   9.689  0.1251 -0.6923 -0.2665
  369MOL0     H49757   3.403   8.626   9.579 -0.8350  0.1559  1.5740
  369MOL0     H49758   3.705   8.605   9.659  2.7951  6.0579 -0.5811
  369MOL0     H49759   3.642   8.566   9.502  0.8523  0.4315  0.7339
  369MOL0     H49760   3.593   8.793   9.456 -0.5038  1.2262  0.6814
  369MOL0     H49761   3.652   8.840   9.622 -1.6247  1.8456 -0.4568
  369MOL0     H49762   3.816   8.697   9.408  1.5857  1.5973 -1.5643
  369MOL0     H49763   3.883   8.765   9.559  0.3381 -3.7826  0.2585
  369MOL0     H49764   3.758   8.936   9.347 -0.6733  0.5499  1.7885
  369MOL0     H49765   3.825   8.989   9.492  0.1081 -0.8015  1.1847
  369MOL0     H49766   3.963   9.080   9.224  1.3153  0.7334 -0.5271
  369MOL0     H49767   4.256   9.045   9.082  1.0480  0.4655  0.2697
  369MOL0     H49768   4.224   9.156   9.206  0.0154 -0.4917  2.1635
  369MOL0     H49769   4.385   9.020   9.341 -0.1753  0.6089  0.2383
  369MOL0     H49770   4.439   8.958   9.169  2.6305  2.8962 -1.0556
  369MOL0     H49771   4.463   9.258   9.278  0.5881  2.7184 -1.9826
  369MOL0     H49772   4.481   9.207   9.113  1.5609  0.3543  0.5224
  369MOL0     H49773   4.646   9.026   9.257 -2.7148 -0.2892  2.0438
  369MOL0     H49774   4.656   9.172   9.351 -1.2924 -1.6727  1.0146
  369MOL0     H49775   4.856   9.377   9.032 -0.0994  1.3912  3.3484
  369MOL0     H49776   5.114   9.384   9.043 -1.3853  0.8565  1.0189
  369MOL0     H49777   5.492   9.080   9.422 -2.2701  2.6565 -1.6614
  369MOL0     H49778   5.693   8.952   9.400 -1.5955  0.7291  1.9662
  369MOL0     H49779   5.759   8.759   9.002  1.7570 -2.1984 -0.7682
  369MOL0     H49780   5.865   8.901   8.979 -1.6174  1.4911  1.9357
  369MOL0     H49781   5.919   8.621   9.057 -0.6006  0.5978  1.0745
  369MOL0     H49782   6.024   8.737   8.977  0.7387 -1.0329 -0.0979
  369MOL0     H49783   6.039   8.844   9.229 -0.3082  0.2883 -0.2443
  369MOL0     H49784   6.013   8.664   9.261 -1.8094  1.2115 -0.9132
  369MOL0     H49785   6.206   8.807   9.081  1.1225  2.0913  1.3831
  369MOL0     H49786   6.210   8.637   9.109  2.2996  1.7737 -0.9387
  369MOL0     H49787   6.241   8.666   9.348 -2.3143 -0.8009 -1.3358
  369MOL0     H49788   6.260   8.843   9.334 -2.4574  0.8253 -2.3966
  369MOL0     H49789   6.447   8.654   9.173  3.8837 -0.1918  1.3885
  369MOL0     H49790   6.456   8.828   9.193  0.1133 -1.2822 -1.0183
  369MOL0     H49791   6.456   8.721   9.459 -0.0707 -1.4633 -1.3227
  369MOL0     H49792   6.588   8.811   9.365  0.0039  0.1009 -4.4914
  369MOL0     H49793   6.507   8.509   9.372  0.1554  0.8623  2.0316
  369MOL0     H49794   6.641   8.570   9.272 -2.0212  0.0126 -1.2933
  369MOL0     H49795   5.605   8.893   8.976  0.1323  0.4606  0.6977
  369MOL0     H49796   5.398   9.017   9.002 -2.0272 -1.3353  0.1425
  369MOL0     H49797   5.099   9.033   9.284  3.6455  1.4168  1.3926
  369MOL0     H49798   4.867   9.047   9.297 -0.1271  1.0936 -0.1077
  369MOL0     H49799   2.949   8.742   9.600 -0.2610 -0.5128  1.2195
  369MOL0     H49800   2.766   8.879   9.602  2.0591 -2.0665 -2.5210
  369MOL0     H49801   2.541   9.085   9.571  2.0240  1.2479  1.6374
  369MOL0     H49802   2.301   9.094   9.518  6.1743 -3.1299 -2.0629
  369MOL0     H49803   2.045   9.297   9.791 -0.8931 -0.0915  3.1274
  369MOL0     H49804   2.018   9.132   9.865 -0.1731 -1.8536 -0.2858
  369MOL0     H49805   1.883   9.183   9.593 -1.6412  1.2696  0.4682
  369MOL0     H49806   1.826   9.267   9.728  1.5187  1.4672  1.4076
  369MOL0     H49807   1.711   9.094   9.787  1.2516  0.2163  0.6501
  369MOL0     H49808   1.854   9.001   9.832  0.3841  1.0242  0.1978
  369MOL0     H49809   1.890   8.942   9.586 -1.3029 -2.6504 -1.4892
  369MOL0     H49810   1.748   8.868   9.676 -0.7253 -0.4008 -2.2108
  369MOL0     H49811   1.550   9.099   9.382  1.2688 -0.3065 -1.2724
  369MOL0     H49812   2.211   9.142   9.936 -1.2253 -0.1318 -2.2602
  369MOL0     H49813   2.541   9.205  10.065 -1.0703  1.5468 -0.0879
  369MOL0     H49814   2.375   9.161  10.111 -1.2432 -3.5130 -0.2146
  369MOL0     H49815   2.491   9.036  10.064 -0.9987 -0.5535 -0.6846
  370MOL0     O49816   5.868  10.741   5.572 -0.2611 -0.6897 -0.1809
  370MOL0     C49817   5.826  10.648   5.638  0.2082 -0.8418  0.6642
  370MOL0     O49818   5.897  10.533   5.680 -0.2086 -0.8500 -0.0490
  370MOL0     C49819   6.022  10.494   5.640 -0.4467 -0.1156  1.1300
  370MOL0     C49820   6.112  10.456   5.739  0.5635 -0.1062  0.7699
  370MOL0     C49821   6.238  10.400   5.698  0.3080  0.6175 -0.3226
  370MOL0     C49822   6.281  10.389   5.571 -0.7386  0.2516  0.8149
  370MOL0     O49823   6.401  10.325   5.532  0.6703 -0.2363 -0.1664
  370MOL0     C49824   6.509  10.324   5.635 -0.5641  0.3644  0.7512
  370MOL0     C49825   6.634  10.254   5.568 -1.5188  0.6597 -0.3836
  370MOL0     C49826   6.712  10.350   5.479 -0.2095 -0.0984 -0.6119
  370MOL0     C49827   6.793  10.267   5.382  0.0836 -0.1191  0.7189
  370MOL0     C49828   6.894  10.351   5.290  0.0028  0.2232 -0.8382
  370MOL0     C49829   6.979  10.262   5.205 -1.0035 -0.1607 -1.2053
  370MOL0     C49830   7.085  10.173   5.280 -0.5455  0.3124  0.1203
  370MOL0     C49831   7.195  10.130   5.181 -0.4844 -0.6355 -1.4642
  370MOL0     N49832   7.307  10.099   5.274 -0.0500  0.2127  0.2239
  370MOL0     C49833   7.325   9.982   5.346 -0.5369 -0.0407  0.7788
  370MOL0     C49834   7.438   9.998   5.412 -0.0809 -0.2432 -0.4601
  370MOL0     C49835   7.495   9.921   5.517  0.2177  0.0025  0.2876
  370MOL0     C49836   7.421   9.950   5.652 -0.1863 -0.3793 -0.8187
  370MOL0     C49837   7.513   9.903   5.773  0.5069  0.4790 -0.5045
  370MOL0     C49838   7.651   9.952   5.774  0.3270 -0.7019 -0.2654
  370MOL0     O49839   7.697   9.936   5.914 -0.0685  0.4305  0.4308
  370MOL0     C49840   7.840   9.964   5.936  0.3138  0.7625  0.9166
  370MOL0     C49841   7.938   9.975   5.836 -0.5716 -1.0830 -0.5628
  370MOL0     C49842   8.075   9.983   5.875 -0.6591  1.1942  1.0254
  370MOL0     C49843   8.113   9.976   6.011 -0.0771 -0.0641  0.1870
  370MOL0     C49844   8.249   9.994   6.058  0.3858 -0.2540 -1.2696
  370MOL0     O49845   8.288   9.961   6.188  0.3206 -0.6279  0.3029
  370MOL0     C49846   8.406  10.017   6.220  0.1871 -1.0572  0.2077
  370MOL0     C49847   8.529   9.973   6.175  0.3849 -0.2485  0.5304
  370MOL0     C49848   8.645  10.043   6.215 -0.3829 -0.3394 -0.2589
  370MOL0     C49849   8.642  10.150   6.303 -0.6461 -0.4637 -0.2923
  370MOL0     O49850   8.754  10.224   6.338 -0.6034  0.0294  0.1856
  370MOL0     C49851   8.887  10.179   6.311  0.2135 -0.2276  0.5153
  370MOL0     C49852   8.994  10.265   6.359 -0.9572 -0.1614 -0.3870
  370MOL0     C49853   9.128  10.226   6.292  0.5672 -0.0986 -0.9338
  370MOL0     C49854   9.237  10.336   6.328  0.2478  0.5232 -0.5345
  370MOL0     C49855   9.373  10.297   6.286 -0.8025  0.3271  0.3404
  370MOL0     C49856   9.468  10.378   6.373 -0.5483 -0.9106  0.0143
  370MOL0     C49857   9.616  10.364   6.341 -0.0599 -0.1417  0.5916
  370MOL0     C49858   9.679  10.226   6.355 -0.4293  0.4457  0.0358
  370MOL0    Cl49859   9.857  10.253   6.351 -0.0248 -0.0694  0.1194
  370MOL0     C49860   8.519  10.187   6.358  0.3891 -0.5802 -0.3036
  370MOL0     C49861   8.400  10.115   6.319  0.1072  0.0457 -0.7576
  370MOL0     O49862   8.320  10.044   5.974 -0.3289  0.4015 -0.2447
  370MOL0     C49863   8.013   9.959   6.112  0.0547  0.7673 -0.3890
  370MOL0     C49864   7.882   9.956   6.074 -0.2301 -0.0737  0.4451
  370MOL0     N49865   7.503  10.107   5.366 -0.3503 -0.5802  0.5044
  370MOL0     N49866   7.422  10.174   5.295  0.5327  0.2608  0.7632
  370MOL0     C49867   6.183  10.421   5.467 -0.2960 -0.4643  0.6998
  370MOL0     C49868   6.055  10.470   5.512 -0.4482 -1.4301 -0.2289
  370MOL0     C49869   5.684  10.661   5.674  0.7658 -0.8099  0.1364
  370MOL0     C49870   5.627  10.560   5.764 -0.0998  0.8894  0.2830
  370MOL0     C49871   5.496  10.562   5.807 -0.8322 -0.7880  0.1799
  370MOL0     C49872   5.403  10.647   5.751 -0.3791  0.2442 -0.4687
  370MOL0     O49873   5.267  10.640   5.785  0.6626  0.3037 -0.4334
  370MOL0     C49874   5.179  10.745   5.748  0.3918 -0.7838  0.0993
  370MOL0     C49875   5.112  10.726   5.607  0.1402 -0.2707 -0.2525
  370MOL0     C49876   4.982  10.648   5.592  1.0350  0.2934 -0.0265
  370MOL0     C49877   4.992  10.522   5.669  0.3539 -0.1055 -0.6536
  370MOL0     C49878   4.934  10.546   5.804  0.0297  0.1834 -0.1639
  370MOL0     C49879   4.885  10.556   5.913 -0.4463 -0.9220 -0.5187
  370MOL0     C49880   5.459  10.727   5.648  0.4699  0.6792  0.4358
  370MOL0     C49881   5.588  10.739   5.615 -0.2973 -0.0477  0.4214
  370MOL0     C49882   5.618  10.806   5.485 -0.3632  0.4298  0.3509
  370MOL0     H49883   6.087  10.471   5.843 -0.6995  3.2508  0.1102
  370MOL0     H49884   6.307  10.355   5.770  1.0994  0.2028 -1.3112
  370MOL0     H49885   6.527  10.424   5.677  1.1994  0.7737 -0.8465
  370MOL0     H49886   6.490  10.248   5.712  0.2056 -2.1497 -1.3867
  370MOL0     H49887   6.595  10.172   5.507 -1.1487 -0.4813  0.8586
  370MOL0     H49888   6.694  10.203   5.644 -2.0875  0.3632 -0.1223
  370MOL0     H49889   6.782  10.407   5.542 -1.5957 -0.0673  0.9571
  370MOL0     H49890   6.643  10.420   5.431  1.3841  0.9326 -1.5032
  370MOL0     H49891   6.854  10.196   5.439 -0.2505 -0.2355  0.9297
  370MOL0     H49892   6.724  10.209   5.320  1.2648 -0.0235 -0.7318
  370MOL0     H49893   6.825  10.419   5.240 -1.7140  1.2901  2.7000
  370MOL0     H49894   6.959  10.418   5.347  2.0112 -0.7970 -1.8301
  370MOL0     H49895   6.917  10.203   5.138 -1.2565 -3.0209  1.3533
  370MOL0     H49896   7.024  10.331   5.133 -2.3229  0.6360 -1.2965
  370MOL0     H49897   7.041  10.081   5.320  0.3235  0.6886  2.0578
  370MOL0     H49898   7.129  10.238   5.356  1.2842 -0.6342 -0.0826
  370MOL0     H49899   7.170  10.043   5.121 -1.9652 -1.0527 -0.3026
  370MOL0     H49900   7.223  10.218   5.122 -1.4844  0.8927  0.2146
  370MOL0     H49901   7.246   9.914   5.373 -0.7893  0.6111  1.7239
  370MOL0     H49902   7.495   9.814   5.494 -0.7214  0.6847 -3.5129
  370MOL0     H49903   7.601   9.945   5.525  0.2657 -0.1809  0.2009
  370MOL0     H49904   7.403  10.057   5.663  1.7880 -0.0093 -0.9610
  370MOL0     H49905   7.331   9.891   5.675  1.2297 -2.6873 -0.8839
  370MOL0     H49906   7.505   9.795   5.790 -2.0679  0.6290 -0.3085
  370MOL0     H49907   7.469   9.944   5.864  0.1469 -2.1601  0.6088
  370MOL0     H49908   7.651  10.058   5.749  0.1901 -1.2839 -3.0592
  370MOL0     H49909   7.713   9.894   5.706 -0.5021 -1.8604 -0.0598
  370MOL0     H49910   7.926   9.993   5.729  4.3344  2.5640 -0.8422
  370MOL0     H49911   8.149  10.001   5.798  1.0019 -0.6467  2.1167
  370MOL0     H49912   8.527   9.902   6.093 -0.5489  1.9087 -1.4342
  370MOL0     H49913   8.741  10.018   6.169  0.5737  0.7945  1.0419
  370MOL0     H49914   8.901  10.075   6.342 -1.4269 -0.8140 -0.6133
  370MOL0     H49915   8.896  10.188   6.203  0.9743  1.0069  0.6591
  370MOL0     H49916   8.969  10.371   6.343 -2.6717  0.0433  2.8224
  370MOL0     H49917   8.998  10.268   6.468 -5.0764 -0.6956 -0.0426
  370MOL0     H49918   9.167  10.135   6.338  2.0645  0.3335 -1.2975
  370MOL0     H49919   9.119  10.212   6.184  0.3995  1.0461 -1.0808
  370MOL0     H49920   9.236  10.335   6.438  0.8592 -2.1221 -0.4749
  370MOL0     H49921   9.221  10.444   6.320 -1.7238  0.5203  1.9029
  370MOL0     H49922   9.386  10.325   6.181 -0.8043 -5.1441 -1.4130
  370MOL0     H49923   9.397  10.193   6.307 -4.0534 -0.6259 -0.1641
  370MOL0     H49924   9.437  10.482   6.372  0.4443 -0.5952  0.4608
  370MOL0     H49925   9.453  10.341   6.475  0.0540 -1.0640  0.0500
  370MOL0     H49926   9.684  10.430   6.396  0.5381 -2.0870  2.3123
  370MOL0     H49927   9.618  10.389   6.235 -0.0063  1.5871  0.9590
  370MOL0     H49928   9.650  10.201   6.458  2.9277 -2.4322  0.4915
  370MOL0     H49929   9.646  10.151   6.283 -3.9150  2.4794 -0.7365
  370MOL0     H49930   8.505  10.279   6.414 -0.7894 -1.7155  1.3747
  370MOL0     H49931   8.306  10.154   6.357  0.2151  0.4087 -0.8571
  370MOL0     H49932   8.031   9.939   6.217  1.4507 -2.3875 -1.0976
  370MOL0     H49933   7.805   9.954   6.150 -2.1185  2.8465 -1.1979
  370MOL0     H49934   6.205  10.408   5.361 -0.5853  3.4181  0.0181
  370MOL0     H49935   5.988  10.504   5.433 -2.8906  0.5021  2.4781
  370MOL0     H49936   5.702  10.503   5.817 -0.0603 -0.7779 -1.4693
  370MOL0     H49937   5.457  10.497   5.885 -0.6627 -1.8324 -0.5810
  370MOL0     H49938   5.238  10.837   5.754  2.3917 -2.0015  0.4788
  370MOL0     H49939   5.105  10.767   5.824  1.4261  3.2160  0.1418
  370MOL0     H49940   5.187  10.678   5.543  0.4674 -0.7408  0.4700
  370MOL0     H49941   5.087  10.813   5.545 -0.8105 -2.4518 -3.1870
  370MOL0     H49942   4.949  10.636   5.488 -0.3466 -0.6262  0.4943
  370MOL0     H49943   4.913  10.723   5.632 -2.2294 -1.7877 -1.3198
  370MOL0     H49944   4.928  10.451   5.617 -3.1004  0.9715  1.7335
  370MOL0     H49945   5.095  10.484   5.674 -0.2252 -1.5888  2.6666
  370MOL0     H49946   4.830  10.550   6.005 -0.9534 -2.1962 -0.8787
  370MOL0     H49947   5.389  10.784   5.588  2.0465 -0.4775 -2.7432
  370MOL0     H49948   5.526  10.853   5.449 -0.8318 -1.7525 -1.5857
  370MOL0     H49949   5.692  10.882   5.509  1.6170 -2.2484  3.5336
  370MOL0     H49950   5.653  10.728   5.416 -1.1464  0.8932 -0.5997
  371MOL0     O49951   3.744   0.078   5.535  0.8765  0.3305  1.1063
  371MOL0     C49952   3.683  -0.014   5.598 -0.4115 -0.3008 -0.5447
  371MOL0     O49953   3.757  -0.114   5.658  0.0873  1.2389  0.5065
  371MOL0     C49954   3.888  -0.127   5.614  0.3391  1.0027 -0.4324
  371MOL0     C49955   3.942  -0.249   5.565  0.1844  0.1884  0.3767
  371MOL0     C49956   4.083  -0.272   5.549 -0.6378  0.9322  0.7849
  371MOL0     C49957   4.179  -0.167   5.573  0.3495 -0.2437 -0.4126
  371MOL0     O49958   4.310  -0.196   5.542  0.0882  0.4352  0.2662
  371MOL0     C49959   4.394  -0.082   5.535  0.5203 -0.3331  0.2331
  371MOL0     C49960   4.534  -0.119   5.495  0.5602 -1.3373 -0.3857
  371MOL0     C49961   4.619   0.005   5.476 -0.1188  0.1112 -0.3626
  371MOL0     C49962   4.706   0.002   5.342  1.6516  0.7029  0.5493
  371MOL0     C49963   4.803   0.122   5.315  0.2332 -0.9938  0.7516
  371MOL0     C49964   4.734   0.254   5.317  0.0523 -0.9816 -0.8446
  371MOL0     C49965   4.789   0.379   5.247  0.0597 -0.0577 -1.1176
  371MOL0     C49966   4.904   0.443   5.315 -0.4812 -0.5496  0.1626
  371MOL0     N49967   5.009   0.344   5.332 -0.4846  0.2168  0.3463
  371MOL0     C49968   5.074   0.261   5.237  0.3824  1.2820 -1.4296
  371MOL0     C49969   5.166   0.195   5.311 -0.2088  0.9173  0.1423
  371MOL0     C49970   5.263   0.097   5.254  0.5077  0.1499 -0.7487
  371MOL0     C49971   5.391   0.098   5.330 -0.6644 -0.0645 -0.0871
  371MOL0     C49972   5.472   0.235   5.309 -0.5350  0.6782  1.0115
  371MOL0     C49973   5.627   0.235   5.333  0.0347  0.5093  0.4712
  371MOL0     O49974   5.693   0.153   5.244  0.0639 -0.2582  0.3872
  371MOL0     C49975   5.814   0.103   5.280  0.5778  0.6000 -0.0801
  371MOL0     C49976   5.886   0.132   5.398 -0.7017  0.1436 -0.5417
  371MOL0     C49977   6.020   0.084   5.417  0.5173 -0.1772  0.6425
  371MOL0     C49978   6.068   0.001   5.321 -0.4451  1.1012  0.5746
  371MOL0     C49979   6.196  -0.058   5.342 -1.8436 -0.2379  0.2196
  371MOL0     O49980   6.283   0.019   5.420  0.1061  0.0762  0.0344
  371MOL0     C49981   6.406  -0.014   5.444  0.4917 -0.0961 -0.2945
  371MOL0     C49982   6.495   0.090   5.433  0.8922  0.5784  1.1150
  371MOL0     C49983   6.625   0.077   5.450 -0.9716  0.0559 -0.2257
  371MOL0     C49984   6.685  -0.050   5.483  0.3911 -0.2835  0.1346
  371MOL0     O49985   6.819  -0.081   5.495 -0.4907 -0.3817 -0.3846
  371MOL0     C49986   6.918   0.011   5.457  0.3765 -0.2180  1.0012
  371MOL0     C49987   7.053  -0.058   5.466  0.4410 -0.3209 -0.4302
  371MOL0     C49988   7.096  -0.139   5.344  0.5897  0.0278  0.5551
  371MOL0     C49989   7.169  -0.263   5.379  0.6819  0.1556 -0.3819
  371MOL0     C49990   7.085  -0.389   5.380 -0.1690  1.2524 -0.1420
  371MOL0     C49991   6.974  -0.384   5.484  0.2894 -0.1165 -0.2610
  371MOL0     C49992   6.904  -0.518   5.507 -0.8394 -0.4194 -1.4665
  371MOL0     C49993   6.894  -0.575   5.652  0.0433  0.2177  0.4284
  371MOL0    Cl49994   6.806  -0.733   5.647  0.4288 -0.2374  0.5739
  371MOL0     C49995   6.599  -0.158   5.502  0.2581 -0.2308  0.7112
  371MOL0     C49996   6.460  -0.136   5.485 -0.4655  0.3996  0.4617
  371MOL0     O49997   6.233  -0.152   5.265 -0.2779  0.2078  0.4267
  371MOL0     C49998   5.992  -0.034   5.214 -0.3309 -0.0429  0.5140
  371MOL0     C49999   5.868   0.020   5.185 -0.1770  0.0715 -0.0440
  371MOL0     N50000   5.151   0.223   5.445  0.3061  0.1343 -0.4248
  371MOL0     N50001   5.062   0.315   5.451  0.1771 -0.5713  0.5706
  371MOL0     C50002   4.129  -0.042   5.626 -0.8394  0.0524  0.2895
  371MOL0     C50003   3.988  -0.031   5.653  0.4578 -0.1066  0.2274
  371MOL0     C50004   3.532  -0.030   5.578  0.0286  0.2928  0.6846
  371MOL0     C50005   3.481  -0.161   5.586 -1.3524 -0.2620 -0.1695
  371MOL0     C50006   3.351  -0.196   5.552 -0.5190 -0.4686  0.3040
  371MOL0     C50007   3.267  -0.089   5.517  0.0181 -0.0654 -0.2157
  371MOL0     O50008   3.130  -0.110   5.491 -0.4471 -0.6050  0.7157
  371MOL0     C50009   3.068  -0.229   5.548 -0.7030 -0.6957  0.3106
  371MOL0     C50010   2.917  -0.230   5.534 -0.5140  0.6440 -0.3730
  371MOL0     C50011   2.860  -0.359   5.595  0.3352 -0.2336  0.7318
  371MOL0     C50012   2.716  -0.380   5.554 -0.2841  0.8217 -0.3452
  371MOL0     C50013   2.627  -0.260   5.561 -0.4963  0.0684 -0.8303
  371MOL0     C50014   2.564  -0.155   5.588 -0.9047  1.0357  0.3948
  371MOL0     C50015   3.315   0.042   5.502 -0.0614  1.5130  0.0879
  371MOL0     C50016   3.448   0.070   5.529  0.0329  0.1640  0.4714
  371MOL0     C50017   3.501   0.208   5.497  0.1586 -0.1657  0.2902
  371MOL0     H50018   3.865  -0.321   5.541 -0.5037  0.1708  2.4336
  371MOL0     H50019   4.125  -0.359   5.500 -0.9865  1.6270 -0.7887
  371MOL0     H50020   4.347  -0.009   5.469  0.5234 -1.5194 -1.1095
  371MOL0     H50021   4.398  -0.043   5.638 -1.2393 -4.8451  2.2772
  371MOL0     H50022   4.535  -0.167   5.396  2.2063 -2.4338  0.1019
  371MOL0     H50023   4.568  -0.185   5.576 -1.1359 -0.4142  1.1247
  371MOL0     H50024   4.691   0.015   5.557  1.0363 -3.1226 -0.8460
  371MOL0     H50025   4.563   0.099   5.475 -0.4768 -0.0419  1.4050
  371MOL0     H50026   4.767  -0.089   5.333  0.3458 -0.1668  0.1024
  371MOL0     H50027   4.634   0.011   5.260  0.3058 -1.4043  1.4144
  371MOL0     H50028   4.877   0.130   5.395  0.5651 -0.8938  0.4364
  371MOL0     H50029   4.860   0.111   5.222 -0.9545 -1.8484  0.1055
  371MOL0     H50030   4.630   0.248   5.285 -0.2076  2.0585 -0.8613
  371MOL0     H50031   4.721   0.277   5.423  0.8114  3.8626 -1.5776
  371MOL0     H50032   4.719   0.459   5.223  1.8547  0.9949 -3.1639
  371MOL0     H50033   4.819   0.343   5.148  0.2663 -0.0948 -1.0406
  371MOL0     H50034   4.937   0.515   5.240 -1.3478 -0.8637 -0.5399
  371MOL0     H50035   4.876   0.490   5.410  1.1458  1.6805 -0.3663
  371MOL0     H50036   5.045   0.244   5.134 -0.9204  0.9684 -1.0259
  371MOL0     H50037   5.208   0.002   5.258 -1.6144  1.3623  0.6301
  371MOL0     H50038   5.280   0.130   5.151  3.4397  0.4184 -0.2602
  371MOL0     H50039   5.375   0.088   5.438 -1.6949  0.6297 -0.1588
  371MOL0     H50040   5.448   0.009   5.304 -1.6999 -0.1766 -2.1689
  371MOL0     H50041   5.429   0.319   5.364  2.3613  2.8432  0.1888
  371MOL0     H50042   5.447   0.266   5.208 -1.1984  0.8858  1.2350
  371MOL0     H50043   5.645   0.200   5.435  1.9692 -0.7167 -0.2505
  371MOL0     H50044   5.661   0.338   5.323  3.9866 -0.7348 -0.3854
  371MOL0     H50045   5.861   0.198   5.480  1.2605 -3.0244  2.9066
  371MOL0     H50046   6.084   0.112   5.501 -0.4696  2.6416  0.5815
  371MOL0     H50047   6.448   0.184   5.405  0.8206  0.6165  1.3610
  371MOL0     H50048   6.690   0.161   5.430  0.9222 -1.5450 -1.2108
  371MOL0     H50049   6.900   0.049   5.356  0.3846  0.4965  1.2650
  371MOL0     H50050   6.921   0.092   5.530 -0.1951  0.4785  0.2728
  371MOL0     H50051   7.137   0.012   5.468 -0.6927  1.1976 -2.5218
  371MOL0     H50052   7.058  -0.119   5.557  1.2508  2.5923  1.6140
  371MOL0     H50053   7.000  -0.159   5.294  0.3824  2.2925 -0.0361
  371MOL0     H50054   7.150  -0.062   5.288 -0.9411  0.1902 -0.7770
  371MOL0     H50055   7.212  -0.252   5.479 -3.5128  1.5226  1.4868
  371MOL0     H50056   7.258  -0.260   5.316  1.4718  0.6437  0.7107
  371MOL0     H50057   7.146  -0.473   5.413 -1.6734  0.3473  0.4853
  371MOL0     H50058   7.055  -0.421   5.280  1.6602 -3.4201  0.5571
  371MOL0     H50059   7.007  -0.336   5.576  2.1498  1.6517 -1.7567
  371MOL0     H50060   6.888  -0.331   5.442 -2.1075 -2.3900  1.4511
  371MOL0     H50061   6.937  -0.590   5.432 -1.8206 -2.4799 -0.0260
  371MOL0     H50062   6.802  -0.507   5.467 -0.8305  1.3859 -1.0937
  371MOL0     H50063   6.990  -0.595   5.701  0.3568 -1.2071 -0.6984
  371MOL0     H50064   6.839  -0.501   5.711  0.8102 -0.8576  2.6210
  371MOL0     H50065   6.643  -0.253   5.530  0.2357 -0.6935 -0.7350
  371MOL0     H50066   6.391  -0.219   5.490 -1.7082  0.7910 -4.5367
  371MOL0     H50067   6.022  -0.101   5.134 -2.7974  0.6279 -1.0715
  371MOL0     H50068   5.816  -0.004   5.092 -0.7898  3.2070 -0.6210
  371MOL0     H50069   4.202   0.032   5.657  0.4597 -1.5877  1.3946
  371MOL0     H50070   3.963   0.069   5.687  0.1023 -0.3987  0.8266
  371MOL0     H50071   3.553  -0.242   5.592  0.4173  0.6368 -4.8872
  371MOL0     H50072   3.322  -0.300   5.539 -0.5637 -0.4115 -0.0530
  371MOL0     H50073   3.086  -0.245   5.654  0.7252  3.1049  0.7842
  371MOL0     H50074   3.101  -0.315   5.489 -2.9937 -1.1702 -0.3754
  371MOL0     H50075   2.891  -0.235   5.428 -0.2622  1.5339 -0.4795
  371MOL0     H50076   2.880  -0.140   5.584 -1.1698  0.1144  0.1347
  371MOL0     H50077   2.877  -0.352   5.702  0.2129  2.8427  0.6435
  371MOL0     H50078   2.913  -0.443   5.550 -0.4294 -0.3705  0.0678
  371MOL0     H50079   2.725  -0.405   5.448  5.8252  0.7533 -0.1647
  371MOL0     H50080   2.664  -0.461   5.606  0.5030 -0.4693 -1.5235
  371MOL0     H50081   2.509  -0.064   5.604  2.0824  3.5091 -2.0122
  371MOL0     H50082   3.243   0.116   5.471 -1.3597  0.8608  1.3807
  371MOL0     H50083   3.566   0.205   5.409 -2.5364  0.5018 -1.8657
  371MOL0     H50084   3.414   0.273   5.486  0.8022  0.5845 -0.5037
  371MOL0     H50085   3.559   0.262   5.572  5.2741 -3.5001 -0.7835
  372MOL0     O50086   6.512   5.155   8.993 -0.3482 -0.9808 -0.0563
  372MOL0     C50087   6.450   5.109   9.086  0.3284  1.1488 -0.1892
  372MOL0     O50088   6.467   5.153   9.217  0.4918 -0.0397  0.5180
  372MOL0     C50089   6.547   5.258   9.235  0.4286 -0.3679 -0.0180
  372MOL0     C50090   6.511   5.383   9.185  0.1408  1.0462 -0.3210
  372MOL0     C50091   6.600   5.489   9.199 -0.8754  0.1971 -0.4093
  372MOL0     C50092   6.722   5.476   9.273 -0.1124 -0.7495 -0.1838
  372MOL0     O50093   6.789   5.594   9.289 -0.0555  0.3452  0.0641
  372MOL0     C50094   6.926   5.601   9.316 -0.3228 -0.3890  0.1327
  372MOL0     C50095   6.957   5.743   9.360 -0.2051  0.1869 -0.5567
  372MOL0     C50096   7.104   5.770   9.368 -0.3804 -0.0670  0.2794
  372MOL0     C50097   7.152   5.778   9.512 -0.1272 -0.2371 -0.3236
  372MOL0     C50098   7.303   5.749   9.516  0.4620  1.0975 -0.3000
  372MOL0     C50099   7.396   5.852   9.461  0.2265  0.4725 -0.2679
  372MOL0     C50100   7.538   5.802   9.452 -0.0502  0.0202  0.1165
  372MOL0     C50101   7.627   5.868   9.353  0.7570  0.7053  0.3114
  372MOL0     N50102   7.650   6.007   9.381 -0.1087  0.0694  0.2628
  372MOL0     C50103   7.728   6.082   9.298  0.0431 -0.0400 -0.2009
  372MOL0     C50104   7.739   6.194   9.364 -1.3336 -0.4347  0.2638
  372MOL0     C50105   7.847   6.292   9.314  0.7658  0.0603  0.5755
  372MOL0     C50106   7.991   6.257   9.332 -0.1787 -0.0146 -1.0934
  372MOL0     C50107   8.030   6.260   9.482  0.2102  0.3990 -0.4762
  372MOL0     C50108   8.145   6.164   9.523 -0.0729 -0.2009  0.0592
  372MOL0     O50109   8.274   6.207   9.466  0.1338 -0.5064 -0.9591
  372MOL0     C50110   8.401   6.170   9.519 -0.2403 -0.3686 -0.0089
  372MOL0     C50111   8.433   6.050   9.585  0.2464 -0.0495  0.2953
  372MOL0     C50112   8.568   6.014   9.595 -0.1431  0.0036 -0.9988
  372MOL0     C50113   8.672   6.095   9.558 -0.1289  0.1557  0.0988
  372MOL0     C50114   8.811   6.050   9.574 -0.3815 -0.6063 -0.1655
  372MOL0     O50115   8.905   6.140   9.582 -0.0104  0.5171  1.1009
  372MOL0     C50116   9.033   6.106   9.615  1.0702  0.6447 -0.0524
  372MOL0     C50117   9.069   6.003   9.708  0.2470  0.1078 -0.1288
  372MOL0     C50118   9.208   5.969   9.719 -0.0915  0.1949 -0.1699
  372MOL0     C50119   9.306   6.037   9.640 -0.2230 -0.5531 -0.0482
  372MOL0     O50120   9.441   6.015   9.641  0.2723 -0.4240  0.2151
  372MOL0     C50121   9.505   5.934   9.736 -0.7956 -0.6444  0.2272
  372MOL0     C50122   9.654   5.912   9.705 -0.1675  0.9721  0.0276
  372MOL0     C50123   9.705   5.787   9.782  0.1632 -0.3423  0.1236
  372MOL0     C50124   9.855   5.756   9.756  1.1906  0.2034  0.2611
  372MOL0     C50125   9.899   5.643   9.850 -0.3495 -0.6817 -0.3201
  372MOL0     C50126  10.027   5.583   9.779 -0.5490 -0.3820  0.4263
  372MOL0     C50127  10.097   5.458   9.855  0.0535  0.7261 -0.5847
  372MOL0     C50128  10.209   5.407   9.768  0.1446  0.3825  0.5426
  372MOL0    Cl50129  10.299   5.307   9.880 -0.8241  0.6507  0.4241
  372MOL0     C50130   9.269   6.132   9.556  0.8292 -0.1023  0.5769
  372MOL0     C50131   9.135   6.172   9.550 -0.0050 -0.4927 -0.2204
  372MOL0     O50132   8.828   5.932   9.567  0.4684 -0.0282 -0.1666
  372MOL0     C50133   8.633   6.222   9.508  0.2443 -0.7126 -0.4931
  372MOL0     C50134   8.497   6.252   9.482  0.5105  0.8560  0.7803
  372MOL0     N50135   7.681   6.189   9.490 -0.2523 -0.5083 -0.3872
  372MOL0     N50136   7.633   6.068   9.503  0.0045  0.1821  0.9085
  372MOL0     C50137   6.756   5.350   9.326  0.4413 -0.0334  0.2669
  372MOL0     C50138   6.668   5.240   9.303  1.4937 -0.0699 -0.4755
  372MOL0     C50139   6.362   4.988   9.056 -0.2966  0.3200 -0.0827
  372MOL0     C50140   6.353   4.931   8.928 -0.5118  0.3578 -0.1894
  372MOL0     C50141   6.260   4.833   8.892 -0.2661 -0.0823 -0.8753
  372MOL0     C50142   6.172   4.788   8.988 -1.0206 -0.4475 -1.0198
  372MOL0     O50143   6.086   4.684   8.969  0.4434  0.2525 -0.1706
  372MOL0     C50144   6.128   4.561   8.910 -0.2195  1.2474  0.2767
  372MOL0     C50145   6.224   4.486   9.004  0.2176  0.2726 -1.1734
  372MOL0     C50146   6.152   4.409   9.119 -0.2523  0.3751  1.5852
  372MOL0     C50147   6.238   4.388   9.242 -0.8574 -0.2086  0.1540
  372MOL0     C50148   6.173   4.349   9.373  0.1903 -0.3239  0.4286
  372MOL0     C50149   6.117   4.310   9.474 -0.5498  0.2281  0.5092
  372MOL0     C50150   6.167   4.849   9.118 -0.3683 -0.9255 -0.3372
  372MOL0     C50151   6.265   4.946   9.158  0.4651 -0.2818 -0.5302
  372MOL0     C50152   6.255   5.006   9.298  0.0047 -0.3178 -0.6877
  372MOL0     H50153   6.411   5.388   9.143 -0.8967 -0.5532  1.8167
  372MOL0     H50154   6.579   5.580   9.144  1.6556  1.3183  0.3140
  372MOL0     H50155   6.959   5.528   9.390  0.2116 -0.3270 -0.0397
  372MOL0     H50156   6.981   5.582   9.223 -0.2087  1.0670 -0.1351
  372MOL0     H50157   6.902   5.766   9.451 -2.6037 -0.3647 -1.7937
  372MOL0     H50158   6.921   5.817   9.287  0.0200 -0.6623 -1.5622
  372MOL0     H50159   7.135   5.863   9.320  1.3937 -0.7285  0.0709
  372MOL0     H50160   7.143   5.681   9.318 -1.2651 -0.8962  1.0244
  372MOL0     H50161   7.136   5.875   9.559  2.6981  0.3749 -0.4569
  372MOL0     H50162   7.109   5.694   9.568  3.9055 -1.6640  1.0347
  372MOL0     H50163   7.331   5.721   9.618  1.1180 -0.2295 -0.8047
  372MOL0     H50164   7.313   5.647   9.476 -2.9176  1.0787 -1.3501
  372MOL0     H50165   7.354   5.886   9.366 -2.2102  2.4430  1.3850
  372MOL0     H50166   7.392   5.937   9.530 -2.4237 -0.7189  1.2057
  372MOL0     H50167   7.533   5.695   9.430  0.1259  0.0733 -0.1837
  372MOL0     H50168   7.580   5.812   9.553  2.1858 -2.1195 -0.5098
  372MOL0     H50169   7.720   5.812   9.369 -0.9029 -1.7691  2.0996
  372MOL0     H50170   7.592   5.859   9.250 -1.0963 -0.2761  0.9852
  372MOL0     H50171   7.778   6.047   9.208 -1.8646  1.5826 -1.9773
  372MOL0     H50172   7.834   6.302   9.206 -0.1749  2.8424  0.8500
  372MOL0     H50173   7.836   6.393   9.355 -0.5946 -0.3456  1.2765
  372MOL0     H50174   8.001   6.155   9.292 -0.6921 -0.2085 -0.7390
  372MOL0     H50175   8.061   6.322   9.280  1.8275 -0.0260  1.3550
  372MOL0     H50176   7.951   6.228   9.550  1.1570  1.8645  1.4100
  372MOL0     H50177   8.055   6.363   9.508  0.5116 -0.0191  0.9706
  372MOL0     H50178   8.119   6.059   9.505  1.2794 -0.6092  0.3913
  372MOL0     H50179   8.147   6.182   9.631  1.3996  2.8345 -0.3710
  372MOL0     H50180   8.343   5.997   9.614 -0.6602  1.0878 -0.3632
  372MOL0     H50181   8.581   5.912   9.631  0.9335  1.5312  3.6465
  372MOL0     H50182   8.992   5.957   9.769  0.8904  0.4212  0.9349
  372MOL0     H50183   9.243   5.901   9.796  0.3446 -0.9091 -1.2993
  372MOL0     H50184   9.490   5.964   9.840  1.2193 -2.9661  1.3117
  372MOL0     H50185   9.459   5.836   9.721  1.4603 -1.9575  1.3471
  372MOL0     H50186   9.677   5.899   9.599  2.2047 -1.5671  0.7327
  372MOL0     H50187   9.706   6.001   9.742 -0.4600  2.3558 -2.6553
  372MOL0     H50188   9.682   5.804   9.888  2.2345 -0.0234  0.5822
  372MOL0     H50189   9.645   5.697   9.769  1.7395 -1.7893  2.1802
  372MOL0     H50190   9.915   5.848   9.746  1.0364  0.7584  3.4478
  372MOL0     H50191   9.862   5.723   9.652  2.3876 -0.7495  0.6329
  372MOL0     H50192   9.814   5.575   9.841  0.1941 -1.3425 -0.5669
  372MOL0     H50193   9.914   5.676   9.953  1.0411 -0.1188 -0.6822
  372MOL0     H50194   9.992   5.540   9.684 -0.4064 -0.9167  0.6085
  372MOL0     H50195  10.095   5.666   9.762 -0.8670 -0.3499 -0.7363
  372MOL0     H50196  10.032   5.373   9.875 -0.1922  1.1120  0.2898
  372MOL0     H50197  10.134   5.478   9.956 -2.6982 -5.3320  2.1132
  372MOL0     H50198  10.170   5.345   9.687  1.3791 -0.0885  0.2812
  372MOL0     H50199  10.261   5.490   9.720  2.2667 -2.0540 -1.6796
  372MOL0     H50200   9.343   6.187   9.499 -3.1161  1.3126 -3.9049
  372MOL0     H50201   9.107   6.265   9.502 -1.0072 -1.7726 -2.2715
  372MOL0     H50202   8.702   6.301   9.481 -0.2595 -0.2670 -0.4960
  372MOL0     H50203   8.473   6.349   9.438  1.8155  0.9456  0.2282
  372MOL0     H50204   6.843   5.338   9.389  0.5194 -3.0561 -0.2555
  372MOL0     H50205   6.693   5.139   9.331 -0.6238 -1.3313 -2.6732
  372MOL0     H50206   6.432   4.957   8.859  0.6708 -1.8558  0.2286
  372MOL0     H50207   6.264   4.800   8.788  3.5559  3.3217 -2.0771
  372MOL0     H50208   6.197   4.571   8.825 -1.2717 -0.1729 -0.7804
  372MOL0     H50209   6.040   4.499   8.892  0.8313 -2.0232  4.7470
  372MOL0     H50210   6.293   4.554   9.055  1.0083 -1.0567 -0.4209
  372MOL0     H50211   6.292   4.418   8.952  0.1197 -0.7735  0.0125
  372MOL0     H50212   6.126   4.313   9.073 -0.3243  0.7911  0.7325
  372MOL0     H50213   6.059   4.463   9.140 -0.9194  0.8076 -1.8975
  372MOL0     H50214   6.315   4.313   9.223  0.1512  0.5688  1.0520
  372MOL0     H50215   6.285   4.483   9.270 -0.4095 -0.0160 -1.1696
  372MOL0     H50216   6.050   4.291   9.556 -0.6612  1.8540  0.8267
  372MOL0     H50217   6.096   4.795   9.179  1.1078  0.3186  2.6696
  372MOL0     H50218   6.338   5.002   9.368 -2.5090  0.6333  2.5963
  372MOL0     H50219   6.229   5.112   9.286 -2.0804 -0.7419 -0.3837
  372MOL0     H50220   6.165   4.969   9.348  1.1948  1.8114  3.4032
  373MOL0     O50221   7.868   2.726   1.295 -0.2187 -0.0651  0.6823
  373MOL0     C50222   7.764   2.778   1.273 -0.5056 -0.6956  0.4845
  373MOL0     O50223   7.754   2.901   1.213 -0.0901  0.2064  0.4216
  373MOL0     C50224   7.863   2.967   1.168 -0.6551 -0.0750 -0.4259
  373MOL0     C50225   7.968   3.023   1.253  0.9777  1.1265 -0.5074
  373MOL0     C50226   8.084   3.078   1.193  0.1147  0.5995 -0.1815
  373MOL0     C50227   8.097   3.081   1.052 -0.5871  0.2509  0.1696
  373MOL0     O50228   8.201   3.122   0.978 -0.7983  0.0254 -0.3023
  373MOL0     C50229   8.314   3.199   1.051  1.0062 -0.5841  0.6139
  373MOL0     C50230   8.408   3.261   0.947 -1.0352  0.5595 -0.4674
  373MOL0     C50231   8.526   3.344   1.015  0.6354  0.5233 -0.2018
  373MOL0     C50232   8.592   3.422   0.902  1.0505  1.3857 -0.5077
  373MOL0     C50233   8.705   3.505   0.972 -0.8123  0.4447 -0.8682
  373MOL0     C50234   8.828   3.425   0.998  0.1312 -0.0062 -0.3736
  373MOL0     C50235   8.955   3.507   1.011 -0.5879  0.2153 -0.0004
  373MOL0     C50236   9.084   3.420   1.010  0.1841 -0.3372 -0.2527
  373MOL0     N50237   9.117   3.357   0.879  0.1470 -0.4962 -0.1326
  373MOL0     C50238   9.124   3.423   0.755  0.2942  0.7186  0.1280
  373MOL0     C50239   9.176   3.348   0.666  0.3093  0.3217 -0.2133
  373MOL0     C50240   9.209   3.375   0.522  0.3831 -0.1601  0.7422
  373MOL0     C50241   9.350   3.346   0.480 -0.8694  0.2281  0.2795
  373MOL0     C50242   9.374   3.378   0.324 -0.8565  0.3681 -0.0585
  373MOL0     C50243   9.522   3.334   0.290  0.7045 -0.5886  0.2809
  373MOL0     O50244   9.527   3.194   0.294  0.1909  0.3250  0.1797
  373MOL0     C50245   9.650   3.142   0.291 -0.3932  0.0559  0.1062
  373MOL0     C50246   9.769   3.192   0.245  0.8194 -0.1835 -0.0260
  373MOL0     C50247   9.884   3.121   0.240  0.2048  0.3845 -0.6833
  373MOL0     C50248   9.886   2.989   0.285 -0.5138 -0.4421 -0.3273
  373MOL0     C50249  10.019   2.927   0.298  0.0997 -0.0749  0.2802
  373MOL0     O50250  10.102   2.957   0.189 -0.2180  0.4041  0.0972
  373MOL0     C50251  10.237   2.946   0.210 -0.4646  0.3182  0.7303
  373MOL0     C50252  10.320   3.061   0.246 -0.5389 -0.2675  0.2104
  373MOL0     C50253  10.458   3.051   0.242 -0.1815 -0.1720 -0.2611
  373MOL0     C50254  10.521   2.932   0.218 -0.0006 -0.1505  0.5120
  373MOL0     O50255  10.656   2.929   0.228 -0.6433  0.2249  0.5949
  373MOL0     C50256  10.718   2.855   0.124 -0.6011 -0.2415 -0.7357
  373MOL0     C50257  10.829   2.932   0.068  0.5898  0.0626  0.5988
  373MOL0     C50258  10.946   2.843   0.010  0.0311  0.1340 -0.1886
  373MOL0     C50259  11.060   2.932  -0.053 -0.0255  0.6968  0.5669
  373MOL0     C50260  11.192   2.847  -0.078  0.2824 -0.1133  0.0670
  373MOL0     C50261  11.168   2.738  -0.195  0.7399  0.1762 -0.5672
  373MOL0     C50262  11.132   2.807  -0.330 -0.2539  0.3975  0.0664
  373MOL0     C50263  11.180   2.722  -0.456  0.8041 -0.0038  0.2728
  373MOL0    Cl50264  11.314   2.808  -0.537 -0.6224  0.5482  0.4324
  373MOL0     C50265  10.441   2.814   0.202 -0.6838 -0.0297 -0.3828
  373MOL0     C50266  10.298   2.826   0.186 -0.3725  0.6029 -0.9970
  373MOL0     O50267  10.042   2.841   0.383 -0.5582  0.4854 -0.5997
  373MOL0     C50268   9.777   2.928   0.340 -0.3083  0.2239 -0.3610
  373MOL0     C50269   9.659   3.005   0.335 -0.2341  0.4891  0.6336
  373MOL0     N50270   9.179   3.220   0.732  0.0637  0.0936  0.4492
  373MOL0     N50271   9.132   3.227   0.851 -0.9935 -0.0331  0.9186
  373MOL0     C50272   7.989   3.027   0.983 -0.1541 -0.5530 -0.2149
  373MOL0     C50273   7.877   2.973   1.033 -0.5211 -0.0139 -0.1418
  373MOL0     C50274   7.642   2.712   1.307  0.7104  0.5096 -0.2378
  373MOL0     C50275   7.520   2.777   1.263  0.6910 -0.6803  0.0064
  373MOL0     C50276   7.397   2.717   1.298 -0.0742  0.0892 -0.2940
  373MOL0     C50277   7.393   2.588   1.361 -0.5280 -0.1713  0.3799
  373MOL0     O50278   7.262   2.544   1.366  0.6434 -0.1492 -0.3260
  373MOL0     C50279   7.235   2.448   1.466  0.1483 -0.4687  0.6019
  373MOL0     C50280   7.257   2.503   1.608  0.0817 -0.2072  0.0477
  373MOL0     C50281   7.225   2.390   1.707 -0.7150 -0.0566  0.2454
  373MOL0     C50282   7.086   2.329   1.708  0.3519  1.5503  0.6030
  373MOL0     C50283   7.090   2.197   1.782 -0.1013 -0.5580 -0.0256
  373MOL0     C50284   7.087   2.109   1.863  0.1591  0.1697  0.3149
  373MOL0     C50285   7.510   2.528   1.405  0.7263  0.7536 -0.0630
  373MOL0     C50286   7.628   2.586   1.372  1.1657 -0.7794 -0.5182
  373MOL0     C50287   7.737   2.506   1.447  0.8645  0.5992  0.4345
  373MOL0     H50288   7.954   3.017   1.360 -3.3143  1.4564 -0.8694
  373MOL0     H50289   8.173   3.106   1.247  0.7344 -0.4131 -0.6448
  373MOL0     H50290   8.262   3.274   1.111 -2.1346 -0.7616 -1.6500
  373MOL0     H50291   8.356   3.126   1.121 -3.7402 -1.7168  2.6917
  373MOL0     H50292   8.358   3.327   0.876  2.3206  0.9545 -2.6743
  373MOL0     H50293   8.459   3.186   0.886 -1.4411  0.8958 -1.2306
  373MOL0     H50294   8.606   3.295   1.072  0.1744  1.6620  1.5005
  373MOL0     H50295   8.475   3.416   1.080 -0.1025  0.2201 -0.4495
  373MOL0     H50296   8.634   3.355   0.826  0.5145  2.0574 -1.4109
  373MOL0     H50297   8.517   3.482   0.850 -0.2211 -1.2808 -1.9885
  373MOL0     H50298   8.740   3.586   0.908  0.7041  1.1645  0.7623
  373MOL0     H50299   8.669   3.538   1.070  1.2339 -2.5051  1.0392
  373MOL0     H50300   8.819   3.376   1.095  0.8159 -2.0827 -1.3137
  373MOL0     H50301   8.831   3.344   0.925  2.7454 -0.8437  0.5679
  373MOL0     H50302   8.948   3.582   1.090 -0.6746  1.7040 -1.3899
  373MOL0     H50303   8.957   3.569   0.921  1.0834 -0.5755 -0.5356
  373MOL0     H50304   9.164   3.490   1.035 -1.4817  1.4404  0.3067
  373MOL0     H50305   9.083   3.347   1.092 -0.0599  0.6340  0.6353
  373MOL0     H50306   9.079   3.519   0.730 -2.1296 -0.3483  0.1122
  373MOL0     H50307   9.139   3.318   0.461 -1.7887  1.5875  1.4861
  373MOL0     H50308   9.182   3.479   0.504  0.8325 -0.2711 -0.6670
  373MOL0     H50309   9.423   3.397   0.544  2.1405 -0.4742 -2.3067
  373MOL0     H50310   9.358   3.237   0.493 -2.2212  0.1501  0.5825
  373MOL0     H50311   9.359   3.483   0.299 -0.8558  0.5508  0.6832
  373MOL0     H50312   9.305   3.332   0.253 -1.3316  2.4191 -0.9941
  373MOL0     H50313   9.587   3.374   0.367  1.4630  0.7492 -1.0024
  373MOL0     H50314   9.547   3.359   0.186  0.3412 -1.5502 -0.0465
  373MOL0     H50315   9.763   3.296   0.212 -1.2188 -0.0317  0.6935
  373MOL0     H50316   9.974   3.181   0.227  1.6098 -1.4520  0.0677
  373MOL0     H50317  10.276   3.157   0.269  1.0943  1.0114 -1.6627
  373MOL0     H50318  10.507   3.148   0.245  0.5264 -0.5303 -0.1925
  373MOL0     H50319  10.763   2.769   0.174  0.5338  1.6265  1.6104
  373MOL0     H50320  10.652   2.817   0.045 -2.1288 -1.0572  0.8802
  373MOL0     H50321  10.787   2.978  -0.021  0.4260 -2.0393 -0.4687
  373MOL0     H50322  10.869   3.013   0.131  0.6440 -1.1790  2.2172
  373MOL0     H50323  10.970   2.774   0.091 -4.6762  0.2728  1.6105
  373MOL0     H50324  10.915   2.783  -0.076  2.9937 -1.1333 -0.5025
  373MOL0     H50325  11.085   3.015   0.013 -2.2902  0.7453  1.4670
  373MOL0     H50326  11.029   2.978  -0.147 -2.3951 -1.2632  0.2652
  373MOL0     H50327  11.205   2.797   0.019 -1.5683 -0.0146  0.4175
  373MOL0     H50328  11.280   2.909  -0.096  1.2883 -0.8805  2.0232
  373MOL0     H50329  11.258   2.676  -0.193 -1.6187 -3.5640  0.8967
  373MOL0     H50330  11.093   2.669  -0.157  3.2534 -2.0434  0.6995
  373MOL0     H50331  11.175   2.908  -0.332  2.4370 -0.6824 -0.5152
  373MOL0     H50332  11.025   2.826  -0.337 -1.0535 -3.6158 -1.0249
  373MOL0     H50333  11.202   2.618  -0.433 -2.5509 -0.4873  1.9291
  373MOL0     H50334  11.096   2.722  -0.525  0.4135  3.2517  0.6025
  373MOL0     H50335  10.488   2.716   0.200  2.0410  1.1105  1.4376
  373MOL0     H50336  10.228   2.745   0.170 -0.8002  1.0856 -1.6551
  373MOL0     H50337   9.802   2.825   0.364 -2.3140  0.0288  1.1326
  373MOL0     H50338   9.575   2.951   0.378 -1.4101  1.9976  0.3117
  373MOL0     H50339   8.002   3.027   0.875  2.0275 -0.5113  0.0101
  373MOL0     H50340   7.806   2.931   0.964 -1.5434 -0.5207  1.1724
  373MOL0     H50341   7.528   2.876   1.220 -0.7572 -1.1442 -1.4269
  373MOL0     H50342   7.300   2.764   1.285 -0.5044 -0.5347  0.5770
  373MOL0     H50343   7.290   2.354   1.451 -3.1376 -2.2073 -1.7734
  373MOL0     H50344   7.130   2.421   1.453  0.2726 -1.8275  2.0389
  373MOL0     H50345   7.188   2.587   1.621 -0.1233 -0.4997  0.8648
  373MOL0     H50346   7.360   2.539   1.620 -1.1006  3.0215  1.6986
  373MOL0     H50347   7.231   2.430   1.809 -1.7342 -3.5602  1.8373
  373MOL0     H50348   7.308   2.318   1.702 -0.0441  0.6108  1.3579
  373MOL0     H50349   7.011   2.381   1.767 -3.8249 -1.8663 -1.0789
  373MOL0     H50350   7.050   2.296   1.609  3.7868  2.1529 -0.9879
  373MOL0     H50351   7.063   2.043   1.944 -2.4716  1.6845  0.8990
  373MOL0     H50352   7.507   2.429   1.449  1.8606  0.7986  0.1666
  373MOL0     H50353   7.771   2.567   1.530  3.1100  0.7744 -0.5512
  373MOL0     H50354   7.702   2.408   1.483  0.1802  0.4899 -0.4661
  373MOL0     H50355   7.818   2.485   1.377 -0.0760  0.6771 -0.7082
  374MOL0     O50356  10.363   2.734   7.656 -0.2049 -0.3633 -0.9359
  374MOL0     C50357  10.369   2.829   7.735  0.2334  0.5011 -0.2019
  374MOL0     O50358  10.478   2.909   7.749 -0.3390  0.1304 -0.4465
  374MOL0     C50359  10.589   2.893   7.672  0.3347 -0.7905  0.1018
  374MOL0     C50360  10.714   2.889   7.735  0.4284  0.6389 -0.1971
  374MOL0     C50361  10.829   2.861   7.658 -0.4474  0.0172  0.1217
  374MOL0     C50362  10.822   2.835   7.517 -1.1622 -0.2812 -0.3934
  374MOL0     O50363  10.941   2.826   7.437  0.8414  0.0055 -0.2337
  374MOL0     C50364  11.064   2.802   7.502  0.2287 -0.2731 -0.5624
  374MOL0     C50365  11.131   2.935   7.529  0.4023  0.4413 -0.1645
  374MOL0     C50366  11.261   2.896   7.611  0.3929 -0.4091  0.6147
  374MOL0     C50367  11.360   3.016   7.645  0.8570 -1.2127 -0.9956
  374MOL0     C50368  11.482   2.955   7.719  0.5976  0.3239 -0.7811
  374MOL0     C50369  11.587   2.894   7.634 -0.6140 -0.9273 -0.2220
  374MOL0     C50370  11.691   2.815   7.724  0.5637 -0.6548  0.5915
  374MOL0     C50371  11.832   2.856   7.685 -1.0384  0.7047  0.5820
  374MOL0     N50372  11.924   2.743   7.712 -0.2586 -0.6805  0.4178
  374MOL0     C50373  11.955   2.682   7.830  0.2745 -0.7678 -0.4885
  374MOL0     C50374  12.049   2.595   7.800 -0.5755 -0.0633 -0.0414
  374MOL0     C50375  12.119   2.508   7.904  0.1921  0.2295 -0.0429
  374MOL0     C50376  12.199   2.604   7.992 -0.3882  0.1877  0.0440
  374MOL0     C50377  12.288   2.713   7.931  0.1833 -1.1042  0.1120
  374MOL0     C50378  12.409   2.654   7.861 -0.5509 -0.7312 -0.7575
  374MOL0     O50379  12.481   2.777   7.814 -0.4298  0.1963 -0.2808
  374MOL0     C50380  12.611   2.757   7.772  0.1001  0.9964 -0.6052
  374MOL0     C50381  12.681   2.870   7.746 -1.1675 -0.6476 -0.3957
  374MOL0     C50382  12.806   2.868   7.671 -0.0102 -0.1450  0.5788
  374MOL0     C50383  12.865   2.744   7.643  0.0331 -0.9245 -0.2824
  374MOL0     C50384  12.996   2.736   7.563  0.3539  0.2485 -0.5504
  374MOL0     O50385  13.065   2.618   7.548  0.1689  0.4392 -0.2956
  374MOL0     C50386  13.196   2.618   7.506 -0.9775 -0.0610 -0.6194
  374MOL0     C50387  13.231   2.530   7.412  0.2155 -0.2943  0.1856
  374MOL0     C50388  13.351   2.527   7.351  0.1761 -0.4433 -0.8384
  374MOL0     C50389  13.454   2.620   7.395 -0.7661  0.0804  0.1545
  374MOL0     O50390  13.570   2.616   7.331 -0.6825 -0.4973 -0.4814
  374MOL0     C50391  13.661   2.519   7.382  0.6250 -0.7314 -0.3182
  374MOL0     C50392  13.727   2.462   7.257  0.5521 -0.0168 -0.0874
  374MOL0     C50393  13.853   2.380   7.266  0.3174 -0.8322 -0.4591
  374MOL0     C50394  13.889   2.313   7.129 -1.3026 -0.0279 -0.5761
  374MOL0     C50395  14.009   2.380   7.061  0.7017 -0.3936 -0.9435
  374MOL0     C50396  14.030   2.307   6.932  0.2940 -0.3213  0.3888
  374MOL0     C50397  14.160   2.352   6.853 -0.4526  1.0949 -0.0680
  374MOL0     C50398  14.186   2.261   6.741  0.6641  0.7056 -0.8512
  374MOL0    Cl50399  14.218   2.092   6.785  0.1884  0.4052  0.0633
  374MOL0     C50400  13.415   2.713   7.494 -0.2410 -1.0624  0.7093
  374MOL0     C50401  13.289   2.709   7.555 -0.6972 -0.1595 -0.6403
  374MOL0     O50402  13.026   2.839   7.508 -0.3544  0.1374  0.3194
  374MOL0     C50403  12.797   2.627   7.679 -0.5171 -0.3321  0.0737
  374MOL0     C50404  12.669   2.636   7.742 -0.1247 -0.0355  1.2350
  374MOL0     N50405  12.074   2.591   7.663  0.3724  1.0651 -0.0725
  374MOL0     N50406  12.002   2.688   7.616  0.1170 -0.7650  0.0900
  374MOL0     C50407  10.703   2.853   7.460  0.4752  0.8777 -0.6033
  374MOL0     C50408  10.579   2.880   7.534 -0.8497  0.4583  0.5884
  374MOL0     C50409  10.249   2.856   7.821  1.0037  0.6505  0.1329
  374MOL0     C50410  10.130   2.791   7.796 -0.0169  0.7475  0.9469
  374MOL0     C50411  10.014   2.822   7.866  0.2710 -0.1470  0.6128
  374MOL0     C50412  10.022   2.917   7.968 -0.3165  0.0797  0.3622
  374MOL0     O50413   9.914   2.939   8.052 -0.1439 -0.6753  0.7434
  374MOL0     C50414   9.782   2.892   8.023 -0.2670  0.3593  0.0518
  374MOL0     C50415   9.767   2.751   8.069  0.2554  0.2729 -0.5009
  374MOL0     C50416   9.772   2.741   8.222  0.3345  1.6783 -0.3290
  374MOL0     C50417   9.749   2.599   8.272  0.1268 -0.3767  0.2431
  374MOL0     C50418   9.614   2.552   8.229 -0.7702  0.2059 -0.1180
  374MOL0     C50419   9.520   2.485   8.197  0.3040  0.6621  0.2433
  374MOL0     C50420  10.137   2.975   8.000  0.0874 -0.3874 -0.2097
  374MOL0     C50421  10.251   2.944   7.933 -0.7183  0.6448  1.0946
  374MOL0     C50422  10.380   3.013   7.984  0.4124  0.3007 -0.7061
  374MOL0     H50423  10.725   2.912   7.840  1.2806 -1.3375  0.1991
  374MOL0     H50424  10.922   2.859   7.714 -1.6408  4.2223  2.6436
  374MOL0     H50425  11.054   2.745   7.595  2.4334  1.7797  1.0479
  374MOL0     H50426  11.127   2.750   7.430 -0.6286  1.5350 -2.7504
  374MOL0     H50427  11.073   3.008   7.586 -0.4027 -1.4168  1.5163
  374MOL0     H50428  11.162   2.977   7.433  0.8122 -0.9500 -0.6588
  374MOL0     H50429  11.314   2.826   7.546  2.3840 -1.2331  3.0106
  374MOL0     H50430  11.239   2.849   7.707  4.3619 -3.5191  0.2467
  374MOL0     H50431  11.400   3.073   7.560  2.6951 -1.0805 -0.0819
  374MOL0     H50432  11.306   3.090   7.706 -0.1904 -1.6116 -1.4150
  374MOL0     H50433  11.525   3.038   7.775 -1.3662  2.7782 -2.6429
  374MOL0     H50434  11.447   2.870   7.778 -2.4550 -0.3575 -3.2916
  374MOL0     H50435  11.533   2.823   7.571  0.5213 -2.7062  0.7222
  374MOL0     H50436  11.636   2.962   7.564  1.8051 -0.6096  1.6427
  374MOL0     H50437  11.677   2.708   7.703 -0.4468 -0.2591 -0.9455
  374MOL0     H50438  11.666   2.829   7.830 -1.8730 -1.0616  0.1417
  374MOL0     H50439  11.836   2.885   7.579 -0.5731  0.2005  0.4606
  374MOL0     H50440  11.874   2.937   7.746 -2.4993  2.3964 -0.5466
  374MOL0     H50441  11.917   2.686   7.932  1.5697 -1.0549  0.0274
  374MOL0     H50442  12.052   2.444   7.962  1.2055  0.0377  0.9732
  374MOL0     H50443  12.190   2.439   7.858  1.8494  1.3797  0.6606
  374MOL0     H50444  12.127   2.647   8.062 -0.4333 -1.7108  1.2491
  374MOL0     H50445  12.259   2.540   8.057 -2.6224 -1.9543  0.1657
  374MOL0     H50446  12.317   2.791   8.002 -2.8431  0.7769 -0.5138
  374MOL0     H50447  12.238   2.772   7.853  1.6147  0.4522  0.3193
  374MOL0     H50448  12.384   2.594   7.774  0.4934 -2.4107  0.0518
  374MOL0     H50449  12.469   2.595   7.931 -1.4644  1.5091  2.1342
  374MOL0     H50450  12.644   2.968   7.773 -0.2764 -0.3016 -0.3986
  374MOL0     H50451  12.847   2.962   7.636  2.8771 -0.9851  1.4792
  374MOL0     H50452  13.146   2.473   7.377 -2.2193  1.9458  2.0682
  374MOL0     H50453  13.348   2.466   7.261  1.9165  2.1898 -2.8298
  374MOL0     H50454  13.743   2.566   7.437 -0.6727  0.7767  0.4317
  374MOL0     H50455  13.616   2.442   7.446 -1.2352 -1.0296 -1.9067
  374MOL0     H50456  13.654   2.408   7.196  0.1635 -1.4991  1.6061
  374MOL0     H50457  13.763   2.545   7.195  1.9071 -1.9136 -1.9600
  374MOL0     H50458  13.932   2.446   7.301  1.4335 -1.9344 -0.8167
  374MOL0     H50459  13.828   2.298   7.334  1.2297  0.7139  1.8304
  374MOL0     H50460  13.816   2.314   7.048  0.7141  0.6503 -2.4920
  374MOL0     H50461  13.897   2.204   7.140 -0.8460  0.0404 -0.1948
  374MOL0     H50462  14.095   2.373   7.130 -1.2037 -0.9601  1.5320
  374MOL0     H50463  13.977   2.483   7.045  1.4791  0.3972  1.9370
  374MOL0     H50464  14.021   2.200   6.956 -1.6386  0.1850  2.1164
  374MOL0     H50465  13.942   2.320   6.868  0.5341  0.9671  0.2917
  374MOL0     H50466  14.241   2.350   6.927 -2.0638 -0.4513  1.7642
  374MOL0     H50467  14.163   2.454   6.814 -0.5393  0.2584 -2.3973
  374MOL0     H50468  14.096   2.250   6.679 -1.6152  1.4116  2.0860
  374MOL0     H50469  14.280   2.291   6.694  0.7894  0.2907 -0.8646
  374MOL0     H50470  13.493   2.788   7.509 -2.5376  1.8094 -0.7737
  374MOL0     H50471  13.260   2.766   7.642  0.3654  0.3773 -0.6196
  374MOL0     H50472  12.851   2.537   7.653  0.7403  0.5513 -0.4366
  374MOL0     H50473  12.607   2.547   7.748 -0.8741  0.3224 -0.4544
  374MOL0     H50474  10.701   2.844   7.352 -0.7909 -0.2067 -0.5070
  374MOL0     H50475  10.486   2.887   7.478  0.1496  2.6872 -0.9091
  374MOL0     H50476  10.133   2.729   7.706  1.9106  1.1921  0.6625
  374MOL0     H50477   9.917   2.783   7.837 -0.1808  0.4083  1.3533
  374MOL0     H50478   9.752   2.914   7.920 -0.9208  5.3308  1.0709
  374MOL0     H50479   9.720   2.961   8.081  0.6292 -0.1549  1.6686
  374MOL0     H50480   9.842   2.678   8.037  0.4871  1.0223 -1.7462
  374MOL0     H50481   9.682   2.700   8.022  1.3580 -3.4959  1.2120
  374MOL0     H50482   9.703   2.810   8.272  0.1642  2.5173 -1.6613
  374MOL0     H50483   9.871   2.777   8.249  0.1672  0.6547  1.8840
  374MOL0     H50484   9.829   2.532   8.241  0.1703 -0.7195  1.0586
  374MOL0     H50485   9.734   2.594   8.380 -1.2432 -0.5776  0.0585
  374MOL0     H50486   9.429   2.439   8.163 -0.4422  1.5041  1.0391
  374MOL0     H50487  10.127   3.035   8.090  2.0344  1.5269 -1.1807
  374MOL0     H50488  10.362   3.052   8.085 -0.0451  0.5129 -0.8622
  374MOL0     H50489  10.462   2.943   8.000 -0.4781 -0.6632 -0.3025
  374MOL0     H50490  10.408   3.104   7.929 -1.7491  0.4016 -1.7675
  375MOL0     O50491   9.430   3.389  11.314 -0.2944 -0.4307  0.7135
  375MOL0     C50492   9.470   3.350  11.201 -0.1211  0.8398  0.4490
  375MOL0     O50493   9.464   3.217  11.160  0.2388 -0.2404 -0.4719
  375MOL0     C50494   9.405   3.135  11.251  0.7244 -0.8706  1.0148
  375MOL0     C50495   9.276   3.099  11.217 -0.0783  0.6784  0.2415
  375MOL0     C50496   9.195   3.022  11.304 -0.2713  0.1701  0.8518
  375MOL0     C50497   9.248   2.977  11.419  0.2345 -0.9109  0.4476
  375MOL0     O50498   9.163   2.902  11.500 -0.4195 -0.2411 -0.3640
  375MOL0     C50499   9.170   2.944  11.638  0.1753  1.1130 -0.1916
  375MOL0     C50500   9.117   3.084  11.675  0.1585 -0.4141 -0.4060
  375MOL0     C50501   8.979   3.107  11.610  0.0724  0.2960 -0.5510
  375MOL0     C50502   8.857   3.046  11.690 -0.4039  0.4463 -0.1065
  375MOL0     C50503   8.828   3.103  11.834  0.2445  0.6633  0.4162
  375MOL0     C50504   8.792   3.250  11.818  0.6108  0.8700  0.0929
  375MOL0     C50505   8.743   3.313  11.957  0.0746 -0.4952 -0.0082
  375MOL0     C50506   8.670   3.443  11.944 -0.0882 -0.0405  0.0133
  375MOL0     N50507   8.760   3.554  11.936  0.1337 -0.1122  0.2790
  375MOL0     C50508   8.819   3.593  11.818 -0.0828 -0.2270 -0.4177
  375MOL0     C50509   8.900   3.691  11.860 -0.1559  0.5171 -0.6338
  375MOL0     C50510   8.987   3.792  11.771  0.3001  0.6558 -0.5856
  375MOL0     C50511   8.903   3.871  11.670  0.7263  0.0130 -0.6011
  375MOL0     C50512   8.983   3.914  11.544 -1.6572 -0.1224  0.0869
  375MOL0     C50513   9.114   3.981  11.578 -1.2544  0.2326  0.1950
  375MOL0     O50514   9.204   4.018  11.467 -0.2442  0.2869  0.3376
  375MOL0     C50515   9.322   3.940  11.467  0.0481 -0.0171  1.0196
  375MOL0     C50516   9.439   4.001  11.427  0.1019  0.0534 -0.6500
  375MOL0     C50517   9.562   3.934  11.408 -0.0589 -0.8051 -0.3424
  375MOL0     C50518   9.565   3.792  11.412 -0.8945  0.1177  0.4293
  375MOL0     C50519   9.698   3.713  11.385  0.1493 -0.5021  0.7189
  375MOL0     O50520   9.696   3.581  11.417 -0.2771 -0.3323 -0.1975
  375MOL0     C50521   9.808   3.490  11.397  0.0664 -0.3169 -0.1585
  375MOL0     C50522   9.941   3.529  11.410  0.4490  0.6977  0.3091
  375MOL0     C50523  10.047   3.435  11.392 -0.2196 -1.0116  0.9664
  375MOL0     C50524  10.014   3.302  11.357 -0.6451 -0.7164 -0.7675
  375MOL0     O50525  10.130   3.233  11.338 -0.6208 -0.1882 -0.7732
  375MOL0     C50526  10.102   3.099  11.303 -0.5013  0.6138 -0.3737
  375MOL0     C50527  10.242   3.040  11.280 -0.9422 -0.0811 -0.5609
  375MOL0     C50528  10.221   2.902  11.241  0.1263  0.2594  0.7610
  375MOL0     C50529  10.366   2.836  11.237 -0.1307 -0.4994 -0.8752
  375MOL0     C50530  10.384   2.695  11.201 -0.1249  0.3427  0.2754
  375MOL0     C50531  10.531   2.656  11.193 -0.0733  0.2094  0.5152
  375MOL0     C50532  10.606   2.717  11.071 -0.5709 -0.3506  0.0828
  375MOL0     C50533  10.745   2.636  11.075 -0.1692  0.6224  0.1483
  375MOL0    Cl50534  10.832   2.702  10.925 -0.3752  0.2675 -0.1026
  375MOL0     C50535   9.885   3.256  11.354 -0.1134 -0.2634  0.2114
  375MOL0     C50536   9.781   3.353  11.372  0.3315  0.7102 -0.0801
  375MOL0     O50537   9.795   3.775  11.354  0.2128 -0.7380 -0.2309
  375MOL0     C50538   9.447   3.729  11.454 -0.2312  0.0682  0.5154
  375MOL0     C50539   9.331   3.797  11.489 -0.3949  0.2176 -0.3233
  375MOL0     N50540   8.887   3.711  11.994  0.5343  0.3954 -0.3817
  375MOL0     N50541   8.796   3.639  12.044 -0.3326  0.9251  0.2424
  375MOL0     C50542   9.383   3.014  11.448 -0.2067  0.0411  0.8091
  375MOL0     C50543   9.455   3.094  11.367  0.4886  0.2866  0.1907
  375MOL0     C50544   9.512   3.449  11.105 -0.0490  0.0824  0.9896
  375MOL0     C50545   9.462   3.577  11.115 -0.7704  0.0349  0.5222
  375MOL0     C50546   9.493   3.659  11.009 -0.3743  0.3999 -0.2330
  375MOL0     C50547   9.584   3.625  10.904  0.0755  0.2708  0.1201
  375MOL0     O50548   9.626   3.714  10.806  0.6319 -0.1607 -0.2929
  375MOL0     C50549   9.609   3.856  10.821 -0.0559  0.8452  0.4865
  375MOL0     C50550   9.732   3.923  10.877 -0.1223  0.4255 -0.1295
  375MOL0     C50551   9.733   3.919  11.038 -0.8575  0.4303  1.1068
  375MOL0     C50552   9.791   4.039  11.103 -0.6490 -0.5700 -0.3883
  375MOL0     C50553   9.717   4.165  11.072  0.6077 -0.0916 -0.0391
  375MOL0     C50554   9.656   4.269  11.045 -0.6082  0.7558  0.3928
  375MOL0     C50555   9.640   3.496  10.906  0.5622 -0.8440 -0.3749
  375MOL0     C50556   9.612   3.408  11.008  0.2222 -0.0402  0.5630
  375MOL0     C50557   9.702   3.286  11.017 -0.8300  0.6494 -0.3571
  375MOL0     H50558   9.238   3.134  11.121  2.4764 -1.2808 -1.6421
  375MOL0     H50559   9.090   3.008  11.280 -0.1788 -0.2458  0.6756
  375MOL0     H50560   9.113   2.874  11.699  2.0930 -0.0477  0.3452
  375MOL0     H50561   9.271   2.917  11.669 -1.4681 -2.1062  3.0877
  375MOL0     H50562   9.185   3.166  11.650 -0.2642  0.4823  1.2532
  375MOL0     H50563   9.117   3.103  11.782 -1.4421  1.2752 -0.6568
  375MOL0     H50564   8.970   3.060  11.512 -1.8543 -0.9603  0.1601
  375MOL0     H50565   8.980   3.216  11.599  1.2743  0.3567 -0.0323
  375MOL0     H50566   8.778   3.035  11.615 -1.5134  1.3922  0.8759
  375MOL0     H50567   8.891   2.945  11.711 -1.6294  0.3581  1.6271
  375MOL0     H50568   8.749   3.046  11.883  1.2745 -0.7096  0.5442
  375MOL0     H50569   8.920   3.108  11.894  0.7793  2.0322 -0.4635
  375MOL0     H50570   8.883   3.297  11.778  0.9320 -1.2092 -1.8191
  375MOL0     H50571   8.714   3.251  11.741 -1.6430 -0.1488  2.2400
  375MOL0     H50572   8.831   3.330  12.021 -1.8420  0.3422  2.5845
  375MOL0     H50573   8.672   3.238  11.993 -2.7828  0.8869 -2.4082
  375MOL0     H50574   8.601   3.441  11.859  1.0016  2.9141 -1.0957
  375MOL0     H50575   8.606   3.466  12.030  1.1376 -0.6604  1.1213
  375MOL0     H50576   8.811   3.559  11.715 -1.4630 -2.2510  0.2919
  375MOL0     H50577   9.044   3.859  11.836 -0.3377 -0.7737  1.5317
  375MOL0     H50578   9.066   3.733  11.724  0.5002 -0.1761  0.7438
  375MOL0     H50579   8.826   3.808  11.625  0.8391  0.2682 -1.1567
  375MOL0     H50580   8.857   3.962  11.708  1.5251 -0.0287  0.5441
  375MOL0     H50581   8.923   3.981  11.481  0.6277  1.1276 -0.9061
  375MOL0     H50582   9.008   3.827  11.483 -1.7030 -1.0044  1.2887
  375MOL0     H50583   9.161   3.931  11.662 -0.3484  0.0278 -0.4179
  375MOL0     H50584   9.088   4.078  11.621 -0.8884  0.3789  0.0834
  375MOL0     H50585   9.429   4.108  11.412 -0.4577 -0.1957 -2.2488
  375MOL0     H50586   9.647   3.996  11.383 -2.9965  2.9814 -1.8951
  375MOL0     H50587   9.982   3.629  11.425  2.8877 -0.4308  1.6993
  375MOL0     H50588  10.149   3.469  11.404 -0.0617 -0.9857 -0.3297
  375MOL0     H50589  10.043   3.047  11.379  0.9547  1.2999  1.3082
  375MOL0     H50590  10.039   3.080  11.216  0.1764 -0.6487 -0.6198
  375MOL0     H50591  10.285   3.098  11.197 -0.8045  0.8473  0.1344
  375MOL0     H50592  10.307   3.051  11.368 -1.5578  0.9427 -0.2165
  375MOL0     H50593  10.169   2.844  11.317  0.1331 -0.5022  0.1969
  375MOL0     H50594  10.187   2.894  11.137 -0.7926  3.5304  0.6831
  375MOL0     H50595  10.423   2.847  11.330 -0.9797  0.8751 -0.4880
  375MOL0     H50596  10.412   2.911  11.171 -1.6738  2.7455  1.4444
  375MOL0     H50597  10.343   2.685  11.100  2.5996 -0.9986 -0.7851
  375MOL0     H50598  10.324   2.639  11.273  0.0820 -0.2567 -0.0136
  375MOL0     H50599  10.581   2.683  11.286 -1.5538  1.9597  0.8591
  375MOL0     H50600  10.528   2.546  11.191  1.5254  0.1140  1.6370
  375MOL0     H50601  10.626   2.821  11.096 -0.2638 -0.3939  0.0136
  375MOL0     H50602  10.552   2.701  10.977  1.2015 -1.3085 -0.8274
  375MOL0     H50603  10.809   2.633  11.163  0.2239  1.2173 -0.1097
  375MOL0     H50604  10.720   2.530  11.070 -2.0171  0.9703  1.0286
  375MOL0     H50605   9.854   3.159  11.316 -0.1776 -0.0322 -0.3275
  375MOL0     H50606   9.673   3.341  11.378 -0.2122  3.8073 -1.6101
  375MOL0     H50607   9.458   3.621  11.461  1.6470  0.3569  3.5178
  375MOL0     H50608   9.248   3.727  11.497  1.0832 -2.3658 -4.5173
  375MOL0     H50609   9.417   2.978  11.545  0.1229 -1.9827 -0.0052
  375MOL0     H50610   9.560   3.117  11.385  0.5996 -0.3110  0.3322
  375MOL0     H50611   9.387   3.611  11.186  1.0211  3.2722  1.0994
  375MOL0     H50612   9.449   3.758  11.018  1.8060  1.8918 -3.6392
  375MOL0     H50613   9.519   3.894  10.870 -0.7779  1.2478 -1.0798
  375MOL0     H50614   9.602   3.900  10.721 -2.3533 -1.2148 -0.3307
  375MOL0     H50615   9.725   4.028  10.847  1.7642 -0.1568 -3.0123
  375MOL0     H50616   9.821   3.875  10.834 -0.5535  1.7888 -2.7393
  375MOL0     H50617   9.787   3.827  11.062  2.2967  1.9680  0.4157
  375MOL0     H50618   9.628   3.920  11.070 -1.3694  2.4517 -0.3835
  375MOL0     H50619   9.794   4.032  11.212  2.6467 -0.5279 -0.3944
  375MOL0     H50620   9.897   4.046  11.078 -1.2275  2.4317 -2.5232
  375MOL0     H50621   9.622   4.369  11.022  2.2179  1.6504 -0.2580
  375MOL0     H50622   9.717   3.476  10.832  2.8036  2.4103  0.8494
  375MOL0     H50623   9.698   3.254  11.122  0.1263  2.8680  0.4152
  375MOL0     H50624   9.666   3.212  10.944  1.2242  0.8423 -1.6254
  375MOL0     H50625   9.810   3.294  11.000 -0.1797 -0.2631  2.6726
  376MOL0     O50626   3.552   1.080   9.986 -0.5134 -0.9443  0.3971
  376MOL0     C50627   3.535   0.956  10.009 -0.0938 -1.0662  0.4762
  376MOL0     O50628   3.623   0.875  10.081 -0.0979 -0.0367 -0.5320
  376MOL0     C50629   3.746   0.927  10.105  0.3603 -0.6133  0.0868
  376MOL0     C50630   3.776   0.999  10.228 -0.5818 -0.2267  0.2636
  376MOL0     C50631   3.907   1.033  10.263  0.5695 -0.1258 -0.0917
  376MOL0     C50632   4.012   0.995  10.187 -0.8660 -1.4236  0.1393
  376MOL0     O50633   4.140   1.042  10.227 -0.4118  0.6911  0.3735
  376MOL0     C50634   4.238   1.032  10.116  0.1368 -1.2060 -0.5747
  376MOL0     C50635   4.348   1.120  10.170 -0.5999 -0.3330  0.0495
  376MOL0     C50636   4.479   1.099  10.096  0.1874  0.2871 -0.0422
  376MOL0     C50637   4.604   1.138  10.174  0.1499  0.5313  0.6851
  376MOL0     C50638   4.729   1.067  10.125  1.1332 -0.4188 -0.3864
  376MOL0     C50639   4.847   1.123  10.213  0.3517  0.2598  0.3041
  376MOL0     C50640   4.967   1.171  10.122  0.4328 -1.2178 -1.3675
  376MOL0     C50641   5.024   1.044  10.062  0.2104  0.5108 -0.4933
  376MOL0     N50642   5.159   1.057  10.028 -0.7739 -0.0515  0.4243
  376MOL0     C50643   5.214   1.144   9.935  0.2323  0.7618  0.2216
  376MOL0     C50644   5.350   1.128   9.954  0.1846 -0.0161  1.2870
  376MOL0     C50645   5.458   1.209   9.878  0.0597  0.3119 -0.6398
  376MOL0     C50646   5.441   1.201   9.723 -0.4044  0.5718  0.7116
  376MOL0     C50647   5.545   1.300   9.668  0.0433  0.2967  0.0143
  376MOL0     C50648   5.581   1.302   9.524  0.4716  0.9843  0.1075
  376MOL0     O50649   5.596   1.168   9.468  0.7530 -0.2934 -0.1539
  376MOL0     C50650   5.718   1.111   9.466  0.3480  0.5662  0.7534
  376MOL0     C50651   5.842   1.186   9.464 -0.5593  0.0335  0.5124
  376MOL0     C50652   5.958   1.116   9.447 -0.1815  0.3569 -0.2573
  376MOL0     C50653   5.969   0.981   9.426  0.5058 -0.8263  0.9916
  376MOL0     C50654   6.097   0.921   9.397  0.0020  0.1995  0.3225
  376MOL0     O50655   6.202   1.007   9.376  0.1836  0.1121 -0.2596
  376MOL0     C50656   6.329   0.957   9.359 -0.2239 -0.3333 -0.0187
  376MOL0     C50657   6.416   1.030   9.276 -0.9025  0.0039 -0.5628
  376MOL0     C50658   6.551   0.982   9.251 -0.1754  0.4469 -0.4858
  376MOL0     C50659   6.583   0.857   9.300 -0.1500 -0.5425  0.2855
  376MOL0     O50660   6.704   0.794   9.256  0.4375  0.6764  0.2617
  376MOL0     C50661   6.806   0.807   9.362  0.6709 -0.5358  0.9751
  376MOL0     C50662   6.938   0.752   9.319  0.1287  0.5764  0.9749
  376MOL0     C50663   6.932   0.598   9.294  0.3574  0.5899 -1.0036
  376MOL0     C50664   7.042   0.518   9.358  0.1938  0.7061  0.2675
  376MOL0     C50665   7.059   0.378   9.304  0.3966  0.2724  0.3132
  376MOL0     C50666   7.151   0.303   9.392  0.3682 -0.1437  0.9007
  376MOL0     C50667   7.158   0.151   9.364 -0.5770  1.3333 -0.2298
  376MOL0     C50668   7.048   0.070   9.445 -0.3768 -0.2515 -0.5449
  376MOL0    Cl50669   6.873   0.086   9.377 -0.0755  0.0426 -0.2934
  376MOL0     C50670   6.497   0.780   9.371  0.2891  0.0765 -0.9132
  376MOL0     C50671   6.373   0.834   9.412  1.0192  0.1841  0.2457
  376MOL0     O50672   6.095   0.797   9.379 -0.1971 -0.3545 -0.2582
  376MOL0     C50673   5.848   0.908   9.424 -0.0133 -0.1845 -0.3759
  376MOL0     C50674   5.730   0.975   9.443 -0.2774 -0.0802 -0.2519
  376MOL0     N50675   5.375   1.021  10.040  0.4341  0.1929  0.1837
  376MOL0     N50676   5.258   0.982  10.083  0.7787 -0.4687  0.3649
  376MOL0     C50677   3.987   0.913  10.077 -0.3947  0.9995  0.1281
  376MOL0     C50678   3.857   0.879  10.033 -0.4957 -0.6622 -0.6588
  376MOL0     C50679   3.399   0.893   9.974  0.8733  0.3455 -0.7409
  376MOL0     C50680   3.374   0.760  10.009 -0.3700 -0.2466 -0.4461
  376MOL0     C50681   3.249   0.696   9.984  0.2857 -0.4310  0.3267
  376MOL0     C50682   3.143   0.768   9.933  0.3681  0.0904  0.0527
  376MOL0     O50683   3.016   0.719   9.913  0.5323  0.2898 -0.4916
  376MOL0     C50684   2.946   0.689  10.038  0.2787 -0.0517 -0.0733
  376MOL0     C50685   2.801   0.682   9.999  0.2112  0.6127  0.9958
  376MOL0     C50686   2.707   0.669  10.119  0.1168 -0.7241  0.0045
  376MOL0     C50687   2.571   0.604  10.093  0.2790 -0.0959  0.6699
  376MOL0     C50688   2.458   0.681  10.146 -0.2167  0.2756 -0.9252
  376MOL0     C50689   2.374   0.747  10.197  0.0641  0.3227 -0.1298
  376MOL0     C50690   3.165   0.900   9.896 -1.0611 -0.5737  0.7210
  376MOL0     C50691   3.294   0.959   9.903  0.1116  0.1044 -0.2277
  376MOL0     C50692   3.317   1.091   9.826 -0.3339 -0.2525  0.0777
  376MOL0     H50693   3.694   1.015  10.297 -1.1157  3.0306 -0.9883
  376MOL0     H50694   3.924   1.086  10.356  0.7925 -0.8788  0.3012
  376MOL0     H50695   4.269   0.927  10.116 -0.1790 -1.3041 -1.5035
  376MOL0     H50696   4.199   1.071  10.022 -4.3367  1.8539  2.1266
  376MOL0     H50697   4.364   1.105  10.277  1.7171 -1.4450 -0.3935
  376MOL0     H50698   4.325   1.227  10.162  0.6044 -0.0500  0.2433
  376MOL0     H50699   4.478   1.169  10.013  0.8050  0.1465 -0.1713
  376MOL0     H50700   4.484   0.994  10.067 -0.8887 -0.4257  2.0886
  376MOL0     H50701   4.611   1.247  10.179 -0.0733  0.5411  0.7591
  376MOL0     H50702   4.586   1.113  10.279 -2.0805  0.3924  0.3158
  376MOL0     H50703   4.707   0.961  10.137 -4.3782  0.5916  1.6586
  376MOL0     H50704   4.735   1.097  10.020 -0.7228  0.2251 -0.3458
  376MOL0     H50705   4.804   1.204  10.273  1.9108  0.8904  0.6053
  376MOL0     H50706   4.886   1.044  10.277  0.1095 -1.3916 -1.4858
  376MOL0     H50707   5.037   1.217  10.193 -1.9813  0.6600 -0.0698
  376MOL0     H50708   4.937   1.254  10.057 -3.3516 -1.0850  0.2803
  376MOL0     H50709   5.019   0.957  10.128  3.5432 -0.4484 -1.3480
  376MOL0     H50710   4.952   1.021   9.983  0.6549 -0.2751 -0.6730
  376MOL0     H50711   5.162   1.202   9.860 -1.2946 -0.5546  0.2127
  376MOL0     H50712   5.459   1.313   9.913  1.6369 -0.3995  1.7048
  376MOL0     H50713   5.555   1.170   9.909 -0.2688 -1.3603 -1.6157
  376MOL0     H50714   5.460   1.100   9.684 -0.5926  1.6112 -2.3300
  376MOL0     H50715   5.340   1.223   9.687 -0.0165 -0.5297 -1.1785
  376MOL0     H50716   5.640   1.284   9.718  0.0130 -1.6593 -0.4629
  376MOL0     H50717   5.505   1.399   9.693  0.6930  0.2329  1.3962
  376MOL0     H50718   5.665   1.372   9.520  2.8307 -1.5974  1.1643
  376MOL0     H50719   5.492   1.345   9.477 -0.2154  0.2597  0.7190
  376MOL0     H50720   5.858   1.293   9.466  0.1030 -0.0725  1.2701
  376MOL0     H50721   6.050   1.174   9.454 -1.1189  1.6893  1.9994
  376MOL0     H50722   6.365   1.120   9.245 -1.8782  0.4690  2.0641
  376MOL0     H50723   6.630   1.046   9.214  1.2285 -0.0919  1.3791
  376MOL0     H50724   6.825   0.914   9.377  0.3054 -0.1875 -0.8624
  376MOL0     H50725   6.777   0.753   9.453 -1.6712  1.1886  1.3675
  376MOL0     H50726   6.971   0.810   9.231 -1.4056  2.6001  1.6602
  376MOL0     H50727   6.997   0.783   9.406  2.0227  0.6481 -0.2576
  376MOL0     H50728   6.838   0.566   9.339 -1.0487  1.1868 -3.3221
  376MOL0     H50729   6.923   0.577   9.187  1.4416 -1.1497 -0.7980
  376MOL0     H50730   7.038   0.521   9.468 -0.5155 -1.2116  0.3353
  376MOL0     H50731   7.129   0.574   9.323 -1.2633  2.8080 -0.2016
  376MOL0     H50732   7.097   0.387   9.202 -3.7532  0.9643 -1.3694
  376MOL0     H50733   6.956   0.340   9.304 -0.5504  2.6616 -0.4434
  376MOL0     H50734   7.255   0.330   9.371  1.3401 -3.3065  1.1038
  376MOL0     H50735   7.135   0.313   9.500 -0.7922 -1.1957  0.8429
  376MOL0     H50736   7.258   0.121   9.398 -1.5575 -0.6963  1.0309
  376MOL0     H50737   7.147   0.126   9.258  2.5341 -0.7147 -0.2012
  376MOL0     H50738   7.071  -0.037   9.445 -0.2627 -0.2384  0.4636
  376MOL0     H50739   7.042   0.089   9.552 -0.3545 -0.3639 -0.5232
  376MOL0     H50740   6.526   0.680   9.398  0.6007 -0.7931 -4.0505
  376MOL0     H50741   6.302   0.768   9.461 -1.0569  0.3111 -2.3595
  376MOL0     H50742   5.842   0.801   9.407 -1.3014 -0.0287 -1.0312
  376MOL0     H50743   5.636   0.920   9.443  0.1304 -0.7853 -0.0018
  376MOL0     H50744   4.070   0.879  10.015  1.7434 -1.7881  4.0612
  376MOL0     H50745   3.843   0.809   9.952  1.4231 -0.3480 -1.3294
  376MOL0     H50746   3.447   0.701  10.062  2.1556  1.0456 -2.2724
  376MOL0     H50747   3.228   0.598  10.026  1.1357 -0.2626  1.1746
  376MOL0     H50748   2.941   0.772  10.110 -2.7620  0.9216 -1.2401
  376MOL0     H50749   2.982   0.599  10.088  0.2010  0.2742  0.5798
  376MOL0     H50750   2.790   0.602   9.925  1.9301  0.5380  0.7849
  376MOL0     H50751   2.764   0.770   9.947 -2.3460 -1.0636 -0.2650
  376MOL0     H50752   2.700   0.772  10.157 -0.2514 -1.4203  1.9082
  376MOL0     H50753   2.743   0.603  10.198 -0.5140  0.8622  1.7084
  376MOL0     H50754   2.559   0.604   9.984 -1.1981 -0.0409  0.8011
  376MOL0     H50755   2.555   0.500  10.122 -3.5834 -0.0109 -0.5880
  376MOL0     H50756   2.289   0.786  10.249 -1.5412 -2.1492 -0.7132
  376MOL0     H50757   3.077   0.942   9.848 -1.1238 -1.2305  0.2409
  376MOL0     H50758   3.413   1.085   9.773 -0.6722 -2.3229 -0.3953
  376MOL0     H50759   3.234   1.117   9.761  2.3416  3.1550 -2.3602
  376MOL0     H50760   3.331   1.177   9.891 -2.6221  1.0617 -1.0710
  377MOL0     O50761   7.870   2.569   7.396 -0.2336 -0.0927  0.7183
  377MOL0     C50762   7.912   2.633   7.489 -0.0127  0.3176 -0.2001
  377MOL0     O50763   7.986   2.739   7.476 -0.1762 -0.3660  0.2088
  377MOL0     C50764   7.999   2.799   7.360  0.8518  0.3308  0.1661
  377MOL0     C50765   7.912   2.904   7.319  0.7878  0.0574  0.0212
  377MOL0     C50766   7.958   2.979   7.207  0.5883  0.5152 -0.0470
  377MOL0     C50767   8.087   2.966   7.153 -0.2587  0.5397  0.3086
  377MOL0     O50768   8.129   3.052   7.052  0.6203 -0.1086 -0.5366
  377MOL0     C50769   8.159   2.983   6.925  0.0445  0.9584  0.1554
  377MOL0     C50770   8.231   3.075   6.826  0.3444 -0.4682 -0.4344
  377MOL0     C50771   8.294   3.011   6.711  0.0299 -0.4516  0.0478
  377MOL0     C50772   8.299   3.116   6.596 -1.2192  0.5370 -1.2075
  377MOL0     C50773   8.355   3.050   6.466 -0.8240  0.3211  0.1200
  377MOL0     C50774   8.387   3.155   6.360  0.4202 -0.2078 -0.2629
  377MOL0     C50775   8.392   3.100   6.221  0.9394 -0.6429  0.2267
  377MOL0     C50776   8.522   3.039   6.167 -1.1330  0.1993 -0.3428
  377MOL0     N50777   8.511   3.009   6.023 -0.9008  0.2329  0.8160
  377MOL0     C50778   8.476   3.103   5.918 -0.6143  0.4946 -1.0541
  377MOL0     C50779   8.484   3.025   5.811  0.2702  0.3111  0.9048
  377MOL0     C50780   8.455   3.063   5.664 -0.4600 -0.6345  0.2133
  377MOL0     C50781   8.560   3.165   5.616 -0.6176  0.1009 -0.4016
  377MOL0     C50782   8.550   3.185   5.470 -0.3078 -0.0528  0.7810
  377MOL0     C50783   8.694   3.233   5.430 -0.2648 -0.6778  1.4825
  377MOL0     O50784   8.713   3.256   5.288 -0.2210  0.3834  0.5167
  377MOL0     C50785   8.835   3.309   5.252 -0.4987  0.3062 -1.1520
  377MOL0     C50786   8.852   3.333   5.112  0.6400  0.0110 -0.4936
  377MOL0     C50787   8.968   3.404   5.067 -0.0940  0.0010  0.4578
  377MOL0     C50788   9.068   3.441   5.159 -1.1873 -0.4590 -0.4063
  377MOL0     C50789   9.197   3.502   5.107  0.1360 -0.4555 -0.8044
  377MOL0     O50790   9.308   3.479   5.182 -0.4002 -0.0474 -0.1409
  377MOL0     C50791   9.431   3.532   5.145 -0.3801  1.1200  1.1749
  377MOL0     C50792   9.447   3.662   5.096 -0.4300  0.6862  0.3603
  377MOL0     C50793   9.578   3.720   5.091 -0.4140 -0.0172 -0.5125
  377MOL0     C50794   9.691   3.638   5.105 -0.2884 -0.2102 -0.5699
  377MOL0     O50795   9.817   3.696   5.104  0.0514 -0.2528 -0.4202
  377MOL0     C50796   9.917   3.617   5.033 -0.0620  0.0115 -1.0169
  377MOL0     C50797  10.039   3.721   5.019 -0.1151 -0.1752  0.4324
  377MOL0     C50798  10.140   3.692   4.898 -0.3395 -0.1347  0.6557
  377MOL0     C50799  10.228   3.572   4.919  0.4083 -0.3511  0.0176
  377MOL0     C50800  10.326   3.572   5.033  0.2566  0.4878  0.3380
  377MOL0     C50801  10.406   3.701   5.038  0.3191 -0.5108  0.3299
  377MOL0     C50802  10.493   3.714   4.916 -0.2133 -0.0832  1.1028
  377MOL0     C50803  10.554   3.854   4.925  0.2631  0.2976 -0.1966
  377MOL0    Cl50804  10.696   3.856   4.817 -0.6067 -0.0483 -0.2829
  377MOL0     C50805   9.670   3.502   5.135 -0.3524 -1.2670 -0.4373
  377MOL0     C50806   9.544   3.449   5.165 -0.0267  0.3756 -0.0046
  377MOL0     O50807   9.188   3.573   5.001 -0.4020  0.0238  0.9226
  377MOL0     C50808   9.052   3.403   5.297 -1.2956  0.1982  0.2255
  377MOL0     C50809   8.939   3.345   5.342  0.4855  0.2786  0.1173
  377MOL0     N50810   8.527   2.892   5.847  0.2719 -0.4764  0.3030
  377MOL0     N50811   8.532   2.887   5.973 -0.2943 -0.3780 -0.1759
  377MOL0     C50812   8.176   2.869   7.210  0.3633  1.3614 -1.1347
  377MOL0     C50813   8.128   2.778   7.310 -0.3703  0.1418  0.0826
  377MOL0     C50814   7.875   2.593   7.623 -0.0921  0.3205 -0.1858
  377MOL0     C50815   7.945   2.655   7.733  0.0973  0.0784 -0.4220
  377MOL0     C50816   7.917   2.619   7.866  0.2302  0.6250 -0.1955
  377MOL0     C50817   7.829   2.515   7.895  0.1411 -0.1536  0.0675
  377MOL0     O50818   7.804   2.477   8.026  0.3555 -0.0897  0.6809
  377MOL0     C50819   7.701   2.387   8.059 -0.2018 -0.4615 -0.4081
  377MOL0     C50820   7.555   2.453   8.051  0.5496 -0.6261 -0.1291
  377MOL0     C50821   7.452   2.348   8.106  0.1220  0.1249 -0.0400
  377MOL0     C50822   7.318   2.342   8.028 -0.1044 -0.5328  0.1125
  377MOL0     C50823   7.264   2.478   8.015 -0.3399  0.2187 -0.3366
  377MOL0     C50824   7.219   2.587   7.992  0.3334 -0.0060 -0.3254
  377MOL0     C50825   7.770   2.450   7.786  1.0256 -0.3264  0.4597
  377MOL0     C50826   7.788   2.482   7.650 -0.1688  0.2905  0.3077
  377MOL0     C50827   7.712   2.404   7.549 -0.2205  0.5911 -0.0512
  377MOL0     H50828   7.816   2.934   7.360 -1.3421 -1.7007 -3.2051
  377MOL0     H50829   7.911   3.063   7.156 -0.5142 -1.3528 -2.3102
  377MOL0     H50830   8.216   2.892   6.948 -2.9337 -1.0280  0.1908
  377MOL0     H50831   8.062   2.945   6.893  0.8401  0.6644 -2.0454
  377MOL0     H50832   8.315   3.113   6.884  0.5826  1.5686 -1.9894
  377MOL0     H50833   8.174   3.164   6.798 -0.4046 -0.9607 -0.5073
  377MOL0     H50834   8.233   2.925   6.682  1.3078 -1.3702  0.0083
  377MOL0     H50835   8.397   2.975   6.721  0.0241  0.0804  2.7201
  377MOL0     H50836   8.198   3.142   6.562 -3.0329 -0.6636  2.7366
  377MOL0     H50837   8.367   3.194   6.633  0.1420 -2.3384  3.0933
  377MOL0     H50838   8.443   2.985   6.480 -2.6217 -1.8109  2.5338
  377MOL0     H50839   8.288   2.978   6.417 -2.2400  0.0598  2.2910
  377MOL0     H50840   8.314   3.237   6.363 -0.8249 -1.2886 -0.3137
  377MOL0     H50841   8.485   3.194   6.389  0.6332 -1.4686  0.8040
  377MOL0     H50842   8.356   3.184   6.160 -2.4242 -0.1530  2.6563
  377MOL0     H50843   8.312   3.027   6.208 -0.9454  0.5532  3.8754
  377MOL0     H50844   8.591   3.124   6.169 -1.1691  0.2324  2.2263
  377MOL0     H50845   8.569   2.961   6.227  0.4656  0.7650 -0.8042
  377MOL0     H50846   8.445   3.207   5.927 -0.1892  0.5498 -0.0440
  377MOL0     H50847   8.461   2.969   5.608 -4.1536 -1.7994  1.4748
  377MOL0     H50848   8.355   3.098   5.636  1.1361  1.6904 -3.4310
  377MOL0     H50849   8.560   3.262   5.667  1.1920  0.7146 -1.4255
  377MOL0     H50850   8.656   3.124   5.649 -2.4980 -2.3517  2.5422
  377MOL0     H50851   8.471   3.259   5.453  3.1531  3.5283 -1.8227
  377MOL0     H50852   8.520   3.094   5.418 -3.3465  1.8018 -1.0137
  377MOL0     H50853   8.771   3.164   5.466  1.9052  0.1516 -1.1430
  377MOL0     H50854   8.703   3.330   5.481  0.4193  1.0929 -1.6686
  377MOL0     H50855   8.768   3.312   5.046  0.0039 -0.4677  0.4581
  377MOL0     H50856   8.978   3.415   4.960 -1.5864  2.2552  0.5068
  377MOL0     H50857   9.363   3.728   5.074  1.5093  2.9868 -0.5700
  377MOL0     H50858   9.585   3.826   5.072 -2.1983  0.7866  2.5621
  377MOL0     H50859   9.950   3.528   5.086  1.7255  0.8296 -0.6837
  377MOL0     H50860   9.867   3.599   4.938 -2.8580  4.0354 -0.5514
  377MOL0     H50861   9.989   3.812   4.984  2.0806  0.8590 -0.1996
  377MOL0     H50862  10.095   3.734   5.112 -3.6435 -1.4704  2.9222
  377MOL0     H50863  10.083   3.673   4.807 -2.0565  2.6085  1.0571
  377MOL0     H50864  10.202   3.780   4.881 -1.0572 -0.2575 -3.6215
  377MOL0     H50865  10.283   3.547   4.828  0.6423 -0.1208  0.0919
  377MOL0     H50866  10.154   3.494   4.939  1.6251 -1.4428  0.4189
  377MOL0     H50867  10.403   3.495   5.021  1.9103  1.5399  3.0883
  377MOL0     H50868  10.276   3.543   5.126 -0.3470 -2.0547 -0.7073
  377MOL0     H50869  10.348   3.791   5.058  1.2752  0.4589 -1.0104
  377MOL0     H50870  10.473   3.695   5.125  0.6665 -0.0596  0.0986
  377MOL0     H50871  10.438   3.714   4.822  0.6726  0.9180  0.5747
  377MOL0     H50872  10.562   3.630   4.905 -3.0305 -2.2312 -2.5008
  377MOL0     H50873  10.474   3.923   4.898 -1.3337 -1.1371  0.6638
  377MOL0     H50874  10.581   3.873   5.029 -0.4204 -0.8976  0.2249
  377MOL0     H50875   9.760   3.443   5.148  0.4195 -0.0095  0.1256
  377MOL0     H50876   9.537   3.347   5.203  2.2962  0.0300 -0.3987
  377MOL0     H50877   9.139   3.408   5.363 -0.8370  1.4426 -0.4240
  377MOL0     H50878   8.930   3.340   5.450 -0.8066  1.2180  0.0665
  377MOL0     H50879   8.276   2.873   7.167  0.7619  0.1258 -0.3618
  377MOL0     H50880   8.192   2.711   7.367 -3.1262 -3.0183 -0.2047
  377MOL0     H50881   8.022   2.727   7.711  0.9803 -0.8577 -0.4551
  377MOL0     H50882   7.963   2.654   7.958 -0.9144 -3.6525  2.2857
  377MOL0     H50883   7.724   2.370   8.165  2.9672  0.9153 -0.7444
  377MOL0     H50884   7.709   2.285   8.020  2.2117  0.1098 -1.5589
  377MOL0     H50885   7.533   2.475   7.946 -0.5411 -1.1571 -0.0323
  377MOL0     H50886   7.541   2.547   8.105 -0.0402  0.4464 -2.0736
  377MOL0     H50887   7.437   2.364   8.213 -1.3584  1.7591 -0.4420
  377MOL0     H50888   7.493   2.247   8.101 -0.3909 -0.1889  1.5268
  377MOL0     H50889   7.340   2.309   7.926  1.6757  0.2613  0.2024
  377MOL0     H50890   7.244   2.280   8.080  1.4168  0.3741  3.6586
  377MOL0     H50891   7.192   2.689   7.977  1.9925  0.3738 -1.0397
  377MOL0     H50892   7.689   2.381   7.805 -3.6196  4.6954  1.5317
  377MOL0     H50893   7.781   2.343   7.490 -0.6716 -0.6556  0.6916
  377MOL0     H50894   7.630   2.344   7.589  1.2738 -1.8198 -0.3888
  377MOL0     H50895   7.661   2.476   7.484  0.4481 -1.8594 -3.5813
  378MOL0     O50896   8.802   3.408   4.297  0.1189  0.4143 -0.1682
  378MOL0     C50897   8.771   3.291   4.266 -0.0312 -0.3809  0.4138
  378MOL0     O50898   8.642   3.250   4.243 -1.0277 -0.2065 -0.1279
  378MOL0     C50899   8.549   3.349   4.246  1.1255 -0.1034  0.8945
  378MOL0     C50900   8.492   3.387   4.369 -0.2924  0.0109  0.2550
  378MOL0     C50901   8.386   3.483   4.374 -1.1172  0.1927 -0.0159
  378MOL0     C50902   8.335   3.547   4.262 -0.6326 -0.8206  0.7330
  378MOL0     O50903   8.223   3.625   4.274  0.1681  0.3054  0.0081
  378MOL0     C50904   8.169   3.690   4.158 -0.3445  0.1101 -1.0437
  378MOL0     C50905   8.069   3.800   4.206  0.0894  0.0009 -0.3532
  378MOL0     C50906   8.113   3.910   4.309 -0.1531 -0.4532 -0.2957
  378MOL0     C50907   8.129   4.055   4.259 -0.0377 -0.4482  0.1263
  378MOL0     C50908   8.144   4.169   4.361 -0.4418  1.0856  0.5816
  378MOL0     C50909   8.043   4.174   4.483 -0.8898  0.0488 -0.6759
  378MOL0     C50910   8.050   4.309   4.554  0.9650  0.1187 -0.9324
  378MOL0     C50911   7.948   4.403   4.501 -0.4035  0.3394 -0.1690
  378MOL0     N50912   7.960   4.528   4.577  0.0865 -0.6873 -0.6938
  378MOL0     C50913   8.023   4.643   4.527  0.1222  0.0371 -0.0616
  378MOL0     C50914   7.992   4.741   4.611 -0.5213 -0.0616 -0.1680
  378MOL0     C50915   8.023   4.886   4.621 -0.1099  0.5347 -0.4240
  378MOL0     C50916   8.092   4.920   4.762 -0.4333 -0.0319  0.7982
  378MOL0     C50917   8.174   5.050   4.746 -0.4590 -0.0092  0.1833
  378MOL0     C50918   8.208   5.105   4.890 -0.1841 -0.0376  0.2858
  378MOL0     O50919   8.274   5.233   4.888 -0.0649  0.5015  0.1800
  378MOL0     C50920   8.409   5.237   4.878 -0.0585  0.6927  0.0752
  378MOL0     C50921   8.499   5.143   4.936  0.5676  0.2606  0.3641
  378MOL0     C50922   8.635   5.171   4.928 -1.1033  0.5511  0.1772
  378MOL0     C50923   8.691   5.271   4.842  0.1440  0.1109  0.3657
  378MOL0     C50924   8.828   5.290   4.818 -0.2075 -0.8336  0.3044
  378MOL0     O50925   8.907   5.250   4.914  0.2671  0.3594 -0.2742
  378MOL0     C50926   9.039   5.269   4.902  0.5363 -0.4252  0.6385
  378MOL0     C50927   9.108   5.188   4.813 -0.7442 -0.3973 -0.2745
  378MOL0     C50928   9.240   5.210   4.783  0.2981 -0.1342  0.6986
  378MOL0     C50929   9.309   5.323   4.829  0.3708  0.7021 -0.1717
  378MOL0     O50930   9.442   5.365   4.805  0.0277  0.9836 -0.9601
  378MOL0     C50931   9.540   5.273   4.755 -0.2405 -0.6634  0.5579
  378MOL0     C50932   9.570   5.179   4.861 -0.5460 -0.0429  0.8396
  378MOL0     C50933   9.702   5.093   4.822  1.3716 -0.0838 -0.4240
  378MOL0     C50934   9.741   5.012   4.948 -0.4744 -0.2016  0.1388
  378MOL0     C50935   9.881   4.950   4.935 -0.2119 -0.1775 -0.1107
  378MOL0     C50936   9.889   4.857   4.810 -0.3359  0.3052 -0.3807
  378MOL0     C50937  10.017   4.769   4.802 -0.7201 -0.1134 -0.0341
  378MOL0     C50938  10.147   4.848   4.839 -0.3229 -0.5963 -0.6682
  378MOL0    Cl50939  10.303   4.773   4.800 -0.0793 -0.0345 -0.1383
  378MOL0     C50940   9.242   5.405   4.918  0.0917 -0.1896  0.3093
  378MOL0     C50941   9.109   5.377   4.961 -0.4420 -0.3273  0.2293
  378MOL0     O50942   8.862   5.363   4.718 -0.4252 -0.4758 -0.3633
  378MOL0     C50943   8.597   5.355   4.774 -0.8870  0.8831  0.1174
  378MOL0     C50944   8.464   5.336   4.794  0.3727 -0.5289 -1.1569
  378MOL0     N50945   7.921   4.684   4.709 -0.4871 -1.3469 -0.0011
  378MOL0     N50946   7.903   4.561   4.687  1.0091 -0.7230 -0.9620
  378MOL0     C50947   8.403   3.518   4.141 -0.3570  0.2288  1.2414
  378MOL0     C50948   8.502   3.415   4.125 -0.1878 -0.2043 -0.0672
  378MOL0     C50949   8.868   3.177   4.258 -0.1316 -0.0721  0.3515
  378MOL0     C50950   8.822   3.047   4.232  0.3765  0.6311  0.4852
  378MOL0     C50951   8.893   2.932   4.251  0.1742 -0.3370  0.6360
  378MOL0     C50952   9.033   2.939   4.244 -0.0210 -0.1860 -0.7545
  378MOL0     O50953   9.121   2.823   4.237  0.1672 -0.7759 -0.3836
  378MOL0     C50954   9.073   2.696   4.196  0.3915  0.7236 -0.8959
  378MOL0     C50955   9.042   2.680   4.052  0.9850  0.5849 -0.8284
  378MOL0     C50956   9.166   2.675   3.959  1.0285  0.7576 -0.8196
  378MOL0     C50957   9.133   2.616   3.818  0.9179 -0.6940 -0.0308
  378MOL0     C50958   9.039   2.708   3.752  0.8249 -0.3037  0.0343
  378MOL0     C50959   8.962   2.794   3.718 -0.1339  0.1190  1.0479
  378MOL0     C50960   9.095   3.066   4.256 -0.2433  0.0742  1.0059
  378MOL0     C50961   9.010   3.179   4.267 -0.4026  0.7825  0.1160
  378MOL0     C50962   9.080   3.315   4.270  0.1305  0.0005  0.1738
  378MOL0     H50963   8.524   3.335   4.459  0.2923  0.2331  0.1840
  378MOL0     H50964   8.333   3.510   4.464  0.7501  0.0145  1.1881
  378MOL0     H50965   8.242   3.744   4.098 -1.9711  2.1697 -1.2794
  378MOL0     H50966   8.115   3.615   4.100 -0.5920 -0.0900 -0.5637
  378MOL0     H50967   7.985   3.747   4.252  0.7933  1.7332  3.2550
  378MOL0     H50968   8.044   3.861   4.119 -0.1477  0.0013 -0.2848
  378MOL0     H50969   8.212   3.872   4.338 -1.6662 -4.7530 -0.0281
  378MOL0     H50970   8.051   3.910   4.399  3.0936 -3.6536  2.2483
  378MOL0     H50971   8.216   4.064   4.193 -0.4610 -2.1150 -0.7147
  378MOL0     H50972   8.043   4.086   4.200  2.8424  2.3054 -3.1014
  378MOL0     H50973   8.244   4.158   4.404 -0.0305  1.7322 -0.1937
  378MOL0     H50974   8.142   4.264   4.307  0.2739 -0.4872 -2.4220
  378MOL0     H50975   7.940   4.159   4.450 -0.5923 -0.4172 -1.4127
  378MOL0     H50976   8.080   4.103   4.559  1.6034  1.2664 -0.6368
  378MOL0     H50977   8.149   4.354   4.543  1.0965 -0.6608 -3.6415
  378MOL0     H50978   8.031   4.299   4.662 -0.5299  0.1501 -1.1746
  378MOL0     H50979   7.973   4.433   4.399 -0.2443  0.2348 -0.1615
  378MOL0     H50980   7.848   4.359   4.499  0.3142 -1.6968 -4.9287
  378MOL0     H50981   8.090   4.642   4.441  4.4282 -0.2174  2.9435
  378MOL0     H50982   8.085   4.908   4.535  2.2029  0.3090  1.0998
  378MOL0     H50983   7.926   4.935   4.611 -1.0134 -0.8930  0.7365
  378MOL0     H50984   8.017   4.941   4.840  0.0623  0.2722  1.2002
  378MOL0     H50985   8.161   4.839   4.786  1.6106  1.3908 -0.0223
  378MOL0     H50986   8.122   5.125   4.685  2.9905  0.2103 -2.7970
  378MOL0     H50987   8.266   5.012   4.700 -0.1006  0.7219  0.2776
  378MOL0     H50988   8.262   5.030   4.949  0.3403  1.2491  1.4831
  378MOL0     H50989   8.115   5.122   4.945  0.5026 -0.1811  1.5343
  378MOL0     H50990   8.462   5.067   5.003  1.4536 -0.2527  0.2835
  378MOL0     H50991   8.701   5.105   4.985 -0.6405  1.1505  0.3418
  378MOL0     H50992   9.060   5.106   4.761 -0.1172 -0.6297 -0.5026
  378MOL0     H50993   9.285   5.123   4.735 -3.7243 -2.6466  0.9800
  378MOL0     H50994   9.520   5.237   4.653  0.8746  1.0966 -0.3266
  378MOL0     H50995   9.623   5.339   4.729 -1.5985  0.3566 -1.5386
  378MOL0     H50996   9.590   5.237   4.951  2.5585 -0.9001  0.8376
  378MOL0     H50997   9.491   5.109   4.888 -0.6888  0.2368  1.1532
  378MOL0     H50998   9.694   5.032   4.732  3.2419  0.3622 -0.9561
  378MOL0     H50999   9.781   5.166   4.801  0.2064  1.2598 -0.2979
  378MOL0     H51000   9.671   4.931   4.967  0.5858 -1.1976 -0.1141
  378MOL0     H51001   9.738   5.080   5.034  1.4674 -0.6042  0.5712
  378MOL0     H51002   9.906   4.894   5.025  2.0379  2.1827  0.8572
  378MOL0     H51003   9.967   5.018   4.938 -0.2026 -0.0904 -1.4292
  378MOL0     H51004   9.793   4.803   4.814 -2.8823  4.4800  1.4828
  378MOL0     H51005   9.896   4.922   4.722  6.9705 -2.2664 -2.4126
  378MOL0     H51006  10.032   4.723   4.704 -2.5869  0.0702 -0.4426
  378MOL0     H51007  10.005   4.690   4.876  0.9570 -0.7764 -0.4241
  378MOL0     H51008  10.147   4.948   4.794 -0.7679  0.9644  2.4579
  378MOL0     H51009  10.146   4.865   4.948 -3.6529 -0.1398 -0.6763
  378MOL0     H51010   9.292   5.500   4.929  1.0717 -0.2570 -2.6235
  378MOL0     H51011   9.049   5.446   5.020 -0.9298  0.6180 -1.3165
  378MOL0     H51012   8.634   5.431   4.707  1.6541 -2.2397 -2.3910
  378MOL0     H51013   8.399   5.406   4.742 -1.5625 -1.4101 -0.0241
  378MOL0     H51014   8.371   3.560   4.047  1.0878 -2.2851 -0.4804
  378MOL0     H51015   8.556   3.389   4.034  1.6729  1.8460  0.3762
  378MOL0     H51016   8.719   3.029   4.205  0.0495 -1.2568  2.7114
  378MOL0     H51017   8.836   2.840   4.241  0.2442 -0.2376 -0.9367
  378MOL0     H51018   8.993   2.673   4.268  3.2762 -0.0780  2.3639
  378MOL0     H51019   9.141   2.613   4.217 -1.5514 -0.8821 -0.5893
  378MOL0     H51020   8.988   2.769   4.017  0.3954  1.2460  1.5654
  378MOL0     H51021   8.969   2.600   4.041 -1.3757  2.2764  1.4177
  378MOL0     H51022   9.249   2.616   3.999  1.9871  2.6613  0.1508
  378MOL0     H51023   9.205   2.777   3.949 -1.1878  1.7709  0.1232
  378MOL0     H51024   9.225   2.617   3.759  1.5340 -1.6626  0.8899
  378MOL0     H51025   9.084   2.518   3.818 -1.7556  0.4480  3.1651
  378MOL0     H51026   8.877   2.851   3.684  1.0530  1.2381 -0.1994
  378MOL0     H51027   9.203   3.062   4.261 -0.3153 -0.7598  2.1180
  378MOL0     H51028   9.182   3.296   4.304 -0.4731 -3.9649  0.2889
  378MOL0     H51029   9.073   3.351   4.167  1.8996 -1.0953 -0.3771
  378MOL0     H51030   9.030   3.383   4.339 -0.9044 -2.6099  2.1689
  379MOL0     O51031  10.541   5.056   7.909  0.4813 -0.2127 -0.2108
  379MOL0     C51032  10.531   5.039   7.784 -0.3048 -0.5806 -0.2209
  379MOL0     O51033  10.635   5.045   7.693  0.2978 -0.3925  0.1000
  379MOL0     C51034  10.769   5.053   7.731 -0.1893 -0.0615  0.1545
  379MOL0     C51035  10.815   5.141   7.832 -1.6381  0.2789 -1.0064
  379MOL0     C51036  10.956   5.149   7.854  0.8776  0.3936  1.1474
  379MOL0     C51037  11.061   5.088   7.781  0.1671  0.3689  0.4698
  379MOL0     O51038  11.191   5.097   7.826 -0.2551 -0.0982 -0.4252
  379MOL0     C51039  11.287   4.998   7.792 -0.2430  0.6101  0.7598
  379MOL0     C51040  11.425   5.052   7.804 -0.7797  0.2388 -0.1922
  379MOL0     C51041  11.535   4.944   7.798  0.2593  0.0047  0.1782
  379MOL0     C51042  11.668   5.008   7.776 -0.0152  0.6217 -0.7389
  379MOL0     C51043  11.706   5.101   7.891  0.4985  0.2975  0.0308
  379MOL0     C51044  11.853   5.091   7.921 -0.6259 -0.7915 -0.2440
  379MOL0     C51045  11.871   5.135   8.063  0.0797  0.8355 -0.4636
  379MOL0     C51046  12.016   5.137   8.105 -0.4281 -0.3614 -0.1321
  379MOL0     N51047  12.084   5.249   8.035  0.1489 -0.0393 -0.1121
  379MOL0     C51048  12.059   5.380   8.028 -0.4093 -0.1140 -0.0021
  379MOL0     C51049  12.177   5.440   7.986  1.0738  1.0983 -0.4818
  379MOL0     C51050  12.200   5.583   7.954 -0.6298  0.6250  0.4036
  379MOL0     C51051  12.221   5.663   8.079 -0.3806  0.2631 -0.1568
  379MOL0     C51052  12.361   5.659   8.132 -0.1479 -0.3220  0.0812
  379MOL0     C51053  12.388   5.763   8.233 -0.0239  0.2515 -0.0541
  379MOL0     O51054  12.493   5.850   8.192 -0.1856  0.5575 -0.7608
  379MOL0     C51055  12.624   5.798   8.180 -0.1311 -0.2689  0.5514
  379MOL0     C51056  12.668   5.666   8.222 -0.1754 -0.7635 -0.3376
  379MOL0     C51057  12.795   5.617   8.200  0.8513 -0.3412  0.9898
  379MOL0     C51058  12.894   5.695   8.129 -0.1420 -0.0636 -0.8461
  379MOL0     C51059  13.033   5.650   8.114 -0.0496 -0.1410  0.8434
  379MOL0     O51060  13.088   5.577   8.211  0.5859 -0.4396  0.8457
  379MOL0     C51061  13.220   5.553   8.206 -0.4110  0.7981  0.5116
  379MOL0     C51062  13.262   5.442   8.126  0.3492 -0.8311  0.7951
  379MOL0     C51063  13.399   5.427   8.108  0.3355 -0.3237  1.6425
  379MOL0     C51064  13.487   5.513   8.178  0.6492 -0.9496 -0.6255
  379MOL0     O51065  13.621   5.515   8.167 -0.1841 -0.4441  0.4269
  379MOL0     C51066  13.675   5.386   8.146 -1.1360 -0.8020 -0.7060
  379MOL0     C51067  13.823   5.402   8.187  0.7552 -0.2919 -0.1482
  379MOL0     C51068  13.890   5.257   8.180  0.6301  0.0154  0.9916
  379MOL0     C51069  14.016   5.263   8.265  0.3895  0.9952 -0.5229
  379MOL0     C51070  14.109   5.139   8.250  0.1003 -1.0038 -0.8762
  379MOL0     C51071  14.251   5.156   8.330  0.6403  0.3088  0.3483
  379MOL0     C51072  14.334   5.034   8.306 -0.4103 -0.7024 -0.4692
  379MOL0     C51073  14.486   5.046   8.357 -0.1347 -0.1429 -0.2044
  379MOL0    Cl51074  14.583   4.897   8.315 -0.2696  0.5185  0.1864
  379MOL0     C51075  13.438   5.622   8.255 -0.2735  0.0627 -0.4995
  379MOL0     C51076  13.297   5.637   8.274 -0.3987 -0.4966  0.1310
  379MOL0     O51077  13.087   5.684   8.012  0.4055  1.0092  0.5114
  379MOL0     C51078  12.856   5.827   8.095  0.1321  0.1151  0.3207
  379MOL0     C51079  12.727   5.872   8.117  0.1842  0.4688  0.5825
  379MOL0     N51080  12.246   5.344   7.929 -0.0684  0.6016 -0.3288
  379MOL0     N51081  12.196   5.228   7.959 -0.2503 -0.2779 -0.2939
  379MOL0     C51082  11.014   5.012   7.676 -0.3338 -0.0016  0.0085
  379MOL0     C51083  10.876   4.998   7.652  0.2153 -0.1636  0.1282
  379MOL0     C51084  10.411   4.994   7.730 -0.3415 -0.3962  0.7671
  379MOL0     C51085  10.410   4.948   7.595  0.4037  0.7175  0.2233
  379MOL0     C51086  10.290   4.901   7.533  0.6295  0.5242  0.0662
  379MOL0     C51087  10.167   4.912   7.599 -0.6421 -0.8203  0.2006
  379MOL0     O51088  10.046   4.885   7.536 -0.8141 -0.2402  0.5848
  379MOL0     C51089  10.034   4.819   7.407 -0.0518  0.2373  0.7991
  379MOL0     C51090   9.894   4.819   7.355  0.3032  0.9852  0.4325
  379MOL0     C51091   9.843   4.963   7.343 -0.0333  0.2338 -0.1368
  379MOL0     C51092   9.711   4.954   7.275  0.0661 -0.4011 -0.4814
  379MOL0     C51093   9.633   5.078   7.301  0.0311  1.1697  0.2238
  379MOL0     C51094   9.587   5.178   7.343  0.6171 -0.7208 -0.1661
  379MOL0     C51095  10.164   4.965   7.728  0.2945 -0.6339 -0.1640
  379MOL0     C51096  10.278   5.023   7.786 -0.3062 -0.7409  0.3837
  379MOL0     C51097  10.256   5.118   7.905 -0.4246 -0.1834  0.9443
  379MOL0     H51098  10.738   5.192   7.888 -1.3322  0.2529 -0.5583
  379MOL0     H51099  10.986   5.219   7.931 -2.3855  2.0063  1.1097
  379MOL0     H51100  11.270   4.924   7.870 -0.6631 -1.4453 -1.1650
  379MOL0     H51101  11.278   4.957   7.690  1.2714  1.4695  0.2341
  379MOL0     H51102  11.435   5.115   7.893 -0.5739 -1.2023  0.8339
  379MOL0     H51103  11.445   5.110   7.714  0.0724  1.9603  1.0382
  379MOL0     H51104  11.505   4.874   7.719  0.1574  2.1506 -1.7846
  379MOL0     H51105  11.526   4.885   7.890  0.6203 -0.0708  0.1673
  379MOL0     H51106  11.748   4.938   7.748 -0.1883  1.2218 -2.9079
  379MOL0     H51107  11.657   5.071   7.688 -0.9366 -2.5982 -3.1160
  379MOL0     H51108  11.675   5.204   7.874 -0.9134  0.2108  1.8270
  379MOL0     H51109  11.645   5.076   7.978 -1.3696 -0.6337 -1.4680
  379MOL0     H51110  11.884   4.987   7.903  1.4406  0.2315 -3.3089
  379MOL0     H51111  11.913   5.144   7.847  0.3282 -0.3408  0.8326
  379MOL0     H51112  11.810   5.068   8.125 -0.7810 -0.2231 -2.3457
  379MOL0     H51113  11.835   5.238   8.071 -0.5050  0.6673 -0.8574
  379MOL0     H51114  12.042   5.152   8.210  2.0616  3.4084 -1.0878
  379MOL0     H51115  12.052   5.038   8.078 -2.1742 -0.5863 -1.8263
  379MOL0     H51116  11.975   5.439   8.062  1.4502  3.0447 -0.4939
  379MOL0     H51117  12.294   5.579   7.897 -1.0083 -0.3246 -0.1759
  379MOL0     H51118  12.117   5.617   7.892  1.5383  1.4262 -2.2578
  379MOL0     H51119  12.214   5.766   8.045  0.1680  0.3789  0.0776
  379MOL0     H51120  12.151   5.633   8.158  3.4709  0.6156  3.8205
  379MOL0     H51121  12.430   5.673   8.048 -0.0241 -1.8678 -0.0969
  379MOL0     H51122  12.390   5.562   8.175 -0.7241  0.3767  2.1968
  379MOL0     H51123  12.415   5.713   8.326  1.0412 -1.5991 -1.2666
  379MOL0     H51124  12.295   5.810   8.265 -0.9114 -2.6452  2.0450
  379MOL0     H51125  12.602   5.610   8.288 -1.2053  2.4253  1.6096
  379MOL0     H51126  12.820   5.517   8.234  0.8713 -0.8246 -0.3903
  379MOL0     H51127  13.195   5.367   8.086  3.0366 -2.9280 -0.1377
  379MOL0     H51128  13.439   5.350   8.041  3.2605  1.0710  1.5950
  379MOL0     H51129  13.625   5.340   8.232 -0.3913  2.0555  1.4001
  379MOL0     H51130  13.667   5.342   8.047  0.1867 -0.7842 -0.8393
  379MOL0     H51131  13.874   5.472   8.120  1.3442 -1.9616 -1.5246
  379MOL0     H51132  13.829   5.443   8.288 -3.4451 -2.0796  1.0418
  379MOL0     H51133  13.823   5.177   8.211  1.2499 -0.4611  1.1009
  379MOL0     H51134  13.917   5.226   8.079  0.7975 -2.7759  1.8356
  379MOL0     H51135  13.988   5.287   8.368  1.7643  1.4353 -0.2424
  379MOL0     H51136  14.062   5.351   8.220  0.8527  1.1826  0.3032
  379MOL0     H51137  14.119   5.112   8.145 -2.5402  1.0489 -1.7787
  379MOL0     H51138  14.052   5.061   8.300  2.4725 -2.3245 -0.0648
  379MOL0     H51139  14.315   5.240   8.303  1.4404 -1.1699 -2.7999
  379MOL0     H51140  14.216   5.169   8.433 -2.5802 -0.8017 -0.4743
  379MOL0     H51141  14.328   5.017   8.198  0.6041  0.6515 -0.7638
  379MOL0     H51142  14.287   4.944   8.348 -0.1702 -0.9230 -0.6716
  379MOL0     H51143  14.527   5.140   8.320 -0.7137  0.8598  1.5726
  379MOL0     H51144  14.485   5.053   8.467  1.5922  0.9759 -0.2201
  379MOL0     H51145  13.514   5.684   8.302  1.3621 -0.5429 -2.2082
  379MOL0     H51146  13.250   5.716   8.331 -0.0561  0.4010 -0.7877
  379MOL0     H51147  12.912   5.899   8.036  0.0795  2.7916  3.2748
  379MOL0     H51148  12.684   5.959   8.067 -1.8094 -1.2763 -0.8838
  379MOL0     H51149  11.085   4.967   7.608 -0.1891 -0.5419  0.5041
  379MOL0     H51150  10.838   4.938   7.570 -3.0229  0.6010  0.9290
  379MOL0     H51151  10.503   4.957   7.540  0.1114  1.1865 -0.2050
  379MOL0     H51152  10.284   4.863   7.431 -0.8901 -2.1684  1.0445
  379MOL0     H51153  10.080   4.720   7.406  0.9072  0.6696  1.2223
  379MOL0     H51154  10.096   4.869   7.333  0.7516 -0.5042  0.9526
  379MOL0     H51155   9.828   4.759   7.418 -2.5529  1.5496 -1.7905
  379MOL0     H51156   9.897   4.770   7.257  0.5239 -0.8237  1.3171
  379MOL0     H51157   9.923   5.011   7.287  1.3992 -0.1175  1.5353
  379MOL0     H51158   9.843   5.011   7.441 -0.2322 -1.9747  1.0014
  379MOL0     H51159   9.722   4.926   7.170  0.6754 -0.7526 -0.3347
  379MOL0     H51160   9.658   4.869   7.319 -1.1417  0.9241  0.7012
  379MOL0     H51161   9.556   5.279   7.360  0.3340 -1.1568  2.3517
  379MOL0     H51162  10.069   4.984   7.776  1.4793  1.2359  1.6120
  379MOL0     H51163  10.332   5.197   7.898  0.6839 -1.2735  0.3399
  379MOL0     H51164  10.162   5.173   7.907 -0.3617  0.1121 -1.2212
  379MOL0     H51165  10.270   5.053   7.992  0.5720 -3.7550 -1.6518
  380MOL0     O51166   3.899   1.288   0.372  0.0262 -0.3827 -0.1829
  380MOL0     C51167   3.927   1.363   0.467 -0.1268  0.9802  0.2477
  380MOL0     O51168   3.837   1.449   0.529  0.1503 -0.6133  0.0302
  380MOL0     C51169   3.718   1.475   0.464 -0.0800  0.4993 -0.3516
  380MOL0     C51170   3.703   1.550   0.346  0.1772  0.0625 -0.9662
  380MOL0     C51171   3.585   1.565   0.274  0.2059 -0.1156  0.1566
  380MOL0     C51172   3.474   1.506   0.331 -0.7677  0.0502 -0.3493
  380MOL0     O51173   3.369   1.493   0.248  0.0377 -0.4281  0.1643
  380MOL0     C51174   3.275   1.595   0.256  0.1782 -0.8865 -0.2026
  380MOL0     C51175   3.150   1.549   0.334 -0.5275 -0.2673 -0.5086
  380MOL0     C51176   3.066   1.451   0.255 -0.9075  0.4019 -0.3107
  380MOL0     C51177   2.929   1.429   0.317  0.6258  0.2833 -0.0259
  380MOL0     C51178   2.877   1.303   0.249 -0.6300  0.4351 -0.8192
  380MOL0     C51179   2.716   1.319   0.235 -0.0824 -0.1260 -0.5342
  380MOL0     C51180   2.653   1.226   0.132  0.5553 -0.2372  1.2837
  380MOL0     C51181   2.508   1.205   0.173 -0.2698 -0.0793  0.6596
  380MOL0     N51182   2.443   1.129   0.069  0.3168  0.5808 -0.2052
  380MOL0     C51183   2.457   0.987   0.058 -0.5606  0.6808  0.8135
  380MOL0     C51184   2.384   0.960  -0.051  0.5269  0.5359  0.3564
  380MOL0     C51185   2.347   0.822  -0.097  0.2351 -0.3564  0.4614
  380MOL0     C51186   2.467   0.730  -0.129  0.2297  0.0909 -0.9008
  380MOL0     C51187   2.427   0.581  -0.149 -0.1551  0.4954 -0.0895
  380MOL0     C51188   2.334   0.562  -0.283  0.5683 -0.0089 -0.3236
  380MOL0     O51189   2.245   0.454  -0.252 -0.3431 -0.7292 -0.0210
  380MOL0     C51190   2.154   0.416  -0.344  0.4860  0.3088 -0.5512
  380MOL0     C51191   2.143   0.468  -0.474 -0.3462 -0.4659 -0.3270
  380MOL0     C51192   2.040   0.413  -0.552  0.0207 -0.0067  0.0087
  380MOL0     C51193   1.952   0.313  -0.515 -0.9626  0.5315 -0.5990
  380MOL0     C51194   1.827   0.284  -0.590  0.1972 -0.0662 -0.0075
  380MOL0     O51195   1.801   0.373  -0.690  0.2535 -0.9673 -0.6192
  380MOL0     C51196   1.699   0.342  -0.777 -0.1143  0.2519  1.0943
  380MOL0     C51197   1.581   0.412  -0.767  0.0336 -0.1820 -0.3966
  380MOL0     C51198   1.480   0.378  -0.854  0.0616 -0.0575 -0.8717
  380MOL0     C51199   1.485   0.272  -0.947 -0.8131  0.0831 -0.3769
  380MOL0     O51200   1.386   0.239  -1.037 -0.6091 -0.1436 -0.0150
  380MOL0     C51201   1.252   0.297  -1.016 -0.1200  0.2753  0.0852
  380MOL0     C51202   1.160   0.251  -1.120 -0.3400 -0.3757  0.5305
  380MOL0     C51203   1.026   0.314  -1.107 -0.0126 -0.7275  0.0428
  380MOL0     C51204   0.922   0.281  -1.217 -0.4461 -0.0642 -1.2873
  380MOL0     C51205   0.780   0.275  -1.158 -1.0624  0.4677  0.6817
  380MOL0     C51206   0.681   0.224  -1.259 -0.2362  0.0667 -0.5169
  380MOL0     C51207   0.539   0.287  -1.221  0.2452 -0.0929  0.1646
  380MOL0     C51208   0.441   0.200  -1.299  0.0107  0.0315  0.2807
  380MOL0    Cl51209   0.283   0.279  -1.320  0.3608  0.5091 -0.2154
  380MOL0     C51210   1.597   0.196  -0.949  0.8363 -0.7730 -0.1334
  380MOL0     C51211   1.708   0.231  -0.873 -0.2981  0.0528 -0.3954
  380MOL0     O51212   1.757   0.191  -0.562 -0.3960  0.4841 -0.2818
  380MOL0     C51213   1.974   0.255  -0.392 -0.5446 -0.3143  0.3976
  380MOL0     C51214   2.077   0.298  -0.312  0.2820 -0.6448 -0.0306
  380MOL0     N51215   2.340   1.085  -0.111  0.3264  0.5627 -0.3712
  380MOL0     N51216   2.372   1.184  -0.041  0.6487  0.4988 -0.3597
  380MOL0     C51217   3.487   1.446   0.454  0.9771  0.1278  0.1914
  380MOL0     C51218   3.602   1.421   0.523  0.1080 -0.3178 -0.2368
  380MOL0     C51219   4.060   1.351   0.529 -0.6357  0.1484  0.8052
  380MOL0     C51220   4.105   1.443   0.628 -1.1582 -0.1218 -0.5191
  380MOL0     C51221   4.207   1.410   0.714 -1.0381  0.3342 -0.3970
  380MOL0     C51222   4.289   1.300   0.680  0.4882 -0.7341 -0.5634
  380MOL0     O51223   4.398   1.263   0.751  0.3751  0.3218  0.6267
  380MOL0     C51224   4.382   1.245   0.893  0.4204  0.3501 -0.4876
  380MOL0     C51225   4.400   1.095   0.925  0.1706  0.6888 -0.0950
  380MOL0     C51226   4.530   1.032   0.867  0.2289 -0.2565 -0.3165
  380MOL0     C51227   4.549   0.895   0.929  0.2758  0.5192 -0.0805
  380MOL0     C51228   4.656   0.815   0.869  0.0447 -0.2843  0.3027
  380MOL0     C51229   4.748   0.756   0.808  0.0704 -0.1872 -0.3891
  380MOL0     C51230   4.268   1.230   0.569  0.3284  0.2222 -0.0864
  380MOL0     C51231   4.152   1.246   0.496  0.4953  0.7374  0.1711
  380MOL0     C51232   4.137   1.165   0.373 -0.6641 -0.0387 -1.6283
  380MOL0     H51233   3.794   1.584   0.298 -0.0071 -0.8202 -1.9706
  380MOL0     H51234   3.589   1.606   0.173 -1.3086  3.0225  1.2302
  380MOL0     H51235   3.305   1.692   0.298 -1.6485 -0.7944  1.0121
  380MOL0     H51236   3.245   1.622   0.155 -0.8605 -0.5004  0.1914
  380MOL0     H51237   3.102   1.645   0.354 -0.3257 -0.4598  1.0519
  380MOL0     H51238   3.179   1.515   0.434 -2.4940  2.7236  1.2498
  380MOL0     H51239   3.126   1.363   0.277 -1.6791  0.4392  2.3787
  380MOL0     H51240   3.071   1.466   0.147  0.7786 -0.9956 -0.4794
  380MOL0     H51241   2.947   1.409   0.423 -1.1315  0.7443  0.3913
  380MOL0     H51242   2.859   1.509   0.293  0.3715  0.2195  0.4939
  380MOL0     H51243   2.922   1.284   0.151 -1.1917 -0.2800 -0.9475
  380MOL0     H51244   2.915   1.219   0.308 -0.6648 -0.6188 -2.2443
  380MOL0     H51245   2.669   1.292   0.330 -0.1897  0.6805 -0.3585
  380MOL0     H51246   2.693   1.422   0.209  6.3341  1.4954 -1.5503
  380MOL0     H51247   2.705   1.130   0.127 -0.1702 -0.6003  0.4559
  380MOL0     H51248   2.649   1.284   0.039 -1.1964  1.1016  2.1335
  380MOL0     H51249   2.505   1.154   0.270  3.6547 -3.0073 -0.5466
  380MOL0     H51250   2.464   1.304   0.193  1.3145  0.5908  0.9448
  380MOL0     H51251   2.502   0.913   0.123  1.8137 -0.8265 -2.2599
  380MOL0     H51252   2.274   0.780  -0.027 -0.2934 -1.1621 -0.5569
  380MOL0     H51253   2.298   0.832  -0.194  0.7995  2.0843  0.3696
  380MOL0     H51254   2.514   0.781  -0.214 -0.2556  0.9840 -0.6468
  380MOL0     H51255   2.527   0.718  -0.038  0.2293 -0.7898 -1.0136
  380MOL0     H51256   2.376   0.549  -0.057  1.7043  0.2883  0.9139
  380MOL0     H51257   2.516   0.518  -0.148  1.0017  2.0649 -0.6305
  380MOL0     H51258   2.396   0.542  -0.370 -1.7112 -0.3548 -1.9482
  380MOL0     H51259   2.278   0.655  -0.296 -0.5201 -0.6670 -0.4720
  380MOL0     H51260   2.195   0.549  -0.524 -1.5768 -0.0558 -0.9727
  380MOL0     H51261   2.036   0.462  -0.649 -1.9109 -1.5166 -0.7396
  380MOL0     H51262   1.559   0.498  -0.706  0.7437  0.0282 -0.4226
  380MOL0     H51263   1.397   0.447  -0.849 -1.3396 -1.7559  0.5534
  380MOL0     H51264   1.223   0.260  -0.918  1.5741 -2.1662 -0.2739
  380MOL0     H51265   1.262   0.406  -1.025  0.1999  0.0795 -3.7481
  380MOL0     H51266   1.204   0.273  -1.218 -0.6141 -1.3196  0.1732
  380MOL0     H51267   1.151   0.142  -1.110  0.1756 -0.9473 -3.4469
  380MOL0     H51268   0.981   0.261  -1.023  0.2798 -1.1611 -0.0737
  380MOL0     H51269   1.024   0.423  -1.095  0.5091 -0.8771  1.7190
  380MOL0     H51270   0.949   0.183  -1.256 -1.4573  0.1346 -2.5419
  380MOL0     H51271   0.919   0.354  -1.298 -0.2685  1.0651 -0.3067
  380MOL0     H51272   0.740   0.369  -1.119 -2.7477  0.2423 -0.3548
  380MOL0     H51273   0.766   0.202  -1.078  1.3318 -1.1798 -0.3050
  380MOL0     H51274   0.711   0.246  -1.362  1.5923 -3.0745 -0.8111
  380MOL0     H51275   0.675   0.115  -1.258  0.9329 -0.0266 -1.0697
  380MOL0     H51276   0.528   0.388  -1.261  3.6592  1.2062  2.1111
  380MOL0     H51277   0.520   0.300  -1.114  2.8722 -0.9830  0.8197
  380MOL0     H51278   0.483   0.181  -1.399 -0.1046  0.9422  0.0488
  380MOL0     H51279   0.428   0.109  -1.241  2.3321 -1.0959 -0.8184
  380MOL0     H51280   1.601   0.107  -1.011  1.6106 -2.3964  2.1355
  380MOL0     H51281   1.790   0.160  -0.873  0.0164  0.3788 -2.0237
  380MOL0     H51282   1.914   0.176  -0.348  0.0260 -0.9495  0.0548
  380MOL0     H51283   2.099   0.250  -0.218 -0.9667  0.3870  0.8251
  380MOL0     H51284   3.395   1.404   0.493  2.0131 -1.2037  1.2755
  380MOL0     H51285   3.596   1.360   0.613 -0.1381  1.1031  0.7359
  380MOL0     H51286   4.049   1.529   0.662  0.4351  1.7374 -2.2742
  380MOL0     H51287   4.209   1.473   0.802  3.0353 -3.2132  2.4805
  380MOL0     H51288   4.283   1.278   0.923  0.5793  2.7429 -2.2677
  380MOL0     H51289   4.463   1.292   0.951  0.8379 -0.5372 -0.3406
  380MOL0     H51290   4.322   1.030   0.884 -0.0745  1.1573 -0.3829
  380MOL0     H51291   4.414   1.082   1.033 -0.4755  2.0700  0.1648
  380MOL0     H51292   4.618   1.092   0.893 -0.3023 -0.6280  2.7052
  380MOL0     H51293   4.522   1.032   0.758  2.4962  2.6885 -0.6124
  380MOL0     H51294   4.581   0.903   1.034  2.2078 -0.8126 -0.5150
  380MOL0     H51295   4.453   0.843   0.923  1.3239 -1.6468  0.8209
  380MOL0     H51296   4.817   0.694   0.754 -1.3156 -0.6015 -1.7433
  380MOL0     H51297   4.347   1.160   0.546 -0.4561 -1.2531  1.4509
  380MOL0     H51298   4.056   1.094   0.393 -0.3475 -0.5587 -2.1497
  380MOL0     H51299   4.112   1.230   0.288  1.7750  0.1984 -2.2316
  380MOL0     H51300   4.229   1.106   0.365 -1.8395 -2.7440  2.0228
  381MOL0     O51301   6.011   8.813   1.469 -0.5654  0.1456  0.5511
  381MOL0     C51302   5.945   8.907   1.414 -0.7647 -0.8646 -0.3141
  381MOL0     O51303   5.971   8.986   1.309  0.0486  0.5170  0.5172
  381MOL0     C51304   6.097   9.006   1.257 -0.9304  0.5106 -0.4454
  381MOL0     C51305   6.215   9.006   1.341 -0.2170 -1.3163  0.3751
  381MOL0     C51306   6.342   9.019   1.276  0.5781  0.4107 -1.2432
  381MOL0     C51307   6.350   9.054   1.146  0.2030 -0.3545  0.4618
  381MOL0     O51308   6.466   9.074   1.075 -0.0420  0.5590  0.5774
  381MOL0     C51309   6.587   9.025   1.125 -0.3598  0.0097 -0.4889
  381MOL0     C51310   6.682   9.008   1.008  0.1275  0.0520 -0.2927
  381MOL0     C51311   6.799   8.924   1.054 -0.6636 -0.0442 -0.0144
  381MOL0     C51312   6.862   8.976   1.189 -0.6068  1.2029  0.8975
  381MOL0     C51313   7.006   8.918   1.205  0.3024  0.6397 -0.1006
  381MOL0     C51314   7.112   8.963   1.106 -0.3301 -0.3150 -0.4458
  381MOL0     C51315   7.261   8.944   1.158  0.6637 -0.2936 -0.2133
  381MOL0     C51316   7.356   8.949   1.038 -0.1088  0.7462 -0.4618
  381MOL0     N51317   7.480   8.878   1.083 -0.4287 -0.0773  0.4135
  381MOL0     C51318   7.558   8.909   1.186  0.9147 -0.5489  0.1711
  381MOL0     C51319   7.662   8.824   1.178  0.5724  0.2224  0.2449
  381MOL0     C51320   7.773   8.812   1.284  0.0324 -0.1898 -0.2189
  381MOL0     C51321   7.904   8.885   1.251  0.0843  0.0131  0.5766
  381MOL0     C51322   7.890   9.037   1.267  0.1167  0.1591  0.4486
  381MOL0     C51323   8.022   9.113   1.247 -0.0846  0.2158 -0.2039
  381MOL0     O51324   8.099   9.074   1.362  0.1429 -0.4631  0.1169
  381MOL0     C51325   8.201   9.160   1.387 -0.3419 -0.1019  0.9296
  381MOL0     C51326   8.278   9.225   1.287  0.4671 -0.3503 -0.0767
  381MOL0     C51327   8.384   9.311   1.327 -1.0815  1.0295 -0.1321
  381MOL0     C51328   8.419   9.317   1.462  0.0845  0.9048  0.2111
  381MOL0     C51329   8.556   9.364   1.501 -0.0721  0.6430 -0.0287
  381MOL0     O51330   8.632   9.404   1.395 -0.1792  0.2540  0.4494
  381MOL0     C51331   8.735   9.482   1.428 -0.6098  0.8251 -0.2111
  381MOL0     C51332   8.723   9.613   1.475  0.1831 -0.4909 -0.7774
  381MOL0     C51333   8.834   9.694   1.478 -0.7759 -0.9501  0.3213
  381MOL0     C51334   8.960   9.647   1.426  0.9688  0.5314 -0.4167
  381MOL0     O51335   9.044   9.750   1.414 -0.5051  0.0323 -0.3127
  381MOL0     C51336   9.188   9.726   1.410 -0.4346 -0.2975  0.1657
  381MOL0     C51337   9.264   9.828   1.316 -0.7033  0.8727 -0.5477
  381MOL0     C51338   9.261   9.974   1.369 -0.3267  0.0800 -0.5051
  381MOL0     C51339   9.330  10.062   1.262  0.2558  0.2550 -0.5813
  381MOL0     C51340   9.286  10.209   1.277  0.3338  0.4187  0.4278
  381MOL0     C51341   9.375  10.297   1.190  0.2343 -0.2632 -0.5624
  381MOL0     C51342   9.350  10.447   1.223 -0.2428  0.6212  0.2267
  381MOL0     C51343   9.468  10.510   1.298 -0.0555 -0.1828 -0.5783
  381MOL0    Cl51344   9.439  10.683   1.283  0.0713 -0.3155 -0.3043
  381MOL0     C51345   8.969   9.517   1.387  0.6907 -0.7594  0.5039
  381MOL0     C51346   8.862   9.436   1.387  0.3270 -0.4201 -0.4771
  381MOL0     O51347   8.594   9.371   1.619 -0.1282 -0.4996 -0.4819
  381MOL0     C51348   8.339   9.259   1.559  0.1385 -0.2272 -0.1132
  381MOL0     C51349   8.229   9.179   1.519 -0.0398 -0.1456 -0.6455
  381MOL0     N51350   7.633   8.734   1.077  0.0717  0.4116  0.4915
  381MOL0     N51351   7.529   8.764   1.019  0.7708 -0.0299  0.0633
  381MOL0     C51352   6.235   9.057   1.072  0.4770 -0.4843  1.1592
  381MOL0     C51353   6.110   9.038   1.128 -0.7153  0.0556  0.9790
  381MOL0     C51354   5.808   8.917   1.458  0.1331 -0.0270 -0.9434
  381MOL0     C51355   5.744   8.797   1.484  1.1390  0.0993  0.0538
  381MOL0     C51356   5.614   8.796   1.543 -0.4489  0.7753  0.5981
  381MOL0     C51357   5.546   8.914   1.566  0.1424 -0.6001 -0.1180
  381MOL0     O51358   5.422   8.910   1.637 -1.0625  0.0245  0.3293
  381MOL0     C51359   5.330   9.018   1.622 -0.3435  0.5221  0.6089
  381MOL0     C51360   5.191   8.956   1.648 -0.8956  1.3969  0.1192
  381MOL0     C51361   5.081   9.058   1.623  0.3121  0.4959 -0.0082
  381MOL0     C51362   4.946   8.971   1.626  0.0045 -0.3693 -0.4943
  381MOL0     C51363   4.835   9.069   1.640 -0.4007 -0.4592 -0.0064
  381MOL0     C51364   4.747   9.155   1.651  0.0086 -0.4883 -0.1796
  381MOL0     C51365   5.615   9.030   1.544 -0.6157 -1.3811  0.6423
  381MOL0     C51366   5.745   9.037   1.489  0.3635  0.0783 -0.2860
  381MOL0     C51367   5.809   9.170   1.457 -0.1905  0.3964 -0.3247
  381MOL0     H51368   6.214   8.986   1.447 -0.4025 -0.7426  0.4845
  381MOL0     H51369   6.424   9.006   1.347 -1.5324  0.3922  1.3442
  381MOL0     H51370   6.612   9.094   1.206 -2.7150  0.0590  0.2679
  381MOL0     H51371   6.560   8.925   1.160 -2.9140  0.0118 -2.1656
  381MOL0     H51372   6.718   9.108   0.982  3.4641 -0.7640  0.7648
  381MOL0     H51373   6.626   8.967   0.923 -2.2777  2.6797 -0.1433
  381MOL0     H51374   6.882   8.918   0.984 -1.1100 -3.0085 -0.3895
  381MOL0     H51375   6.775   8.818   1.057 -0.0840 -0.1610  1.3802
  381MOL0     H51376   6.849   9.084   1.191 -0.6186  1.2297 -0.1143
  381MOL0     H51377   6.805   8.926   1.268 -1.4169 -0.6594 -0.7681
  381MOL0     H51378   7.051   8.936   1.303  2.5636  0.2589 -1.0025
  381MOL0     H51379   7.000   8.809   1.196 -0.7237  0.8240 -2.7088
  381MOL0     H51380   7.102   8.905   1.014  0.8004  0.0371 -0.8022
  381MOL0     H51381   7.092   9.066   1.077 -2.2986 -0.3646  0.5435
  381MOL0     H51382   7.261   8.846   1.208 -3.8262 -0.2856  0.1920
  381MOL0     H51383   7.292   9.016   1.235  1.6320 -0.6969 -0.2040
  381MOL0     H51384   7.321   8.908   0.943  2.9589  1.7405 -2.1575
  381MOL0     H51385   7.375   9.054   1.015  4.7417 -0.4545 -3.3755
  381MOL0     H51386   7.535   8.977   1.268 -3.6220 -2.4244  0.7248
  381MOL0     H51387   7.735   8.852   1.379  1.1562  2.4891 -0.7801
  381MOL0     H51388   7.800   8.707   1.294 -0.1651 -0.2640 -0.4756
  381MOL0     H51389   7.977   8.848   1.323  0.0089 -2.9352 -0.7125
  381MOL0     H51390   7.947   8.856   1.154  2.6502 -1.0864  1.9373
  381MOL0     H51391   7.841   9.053   1.364  0.3709  0.7715  0.4838
  381MOL0     H51392   7.822   9.076   1.191  1.0913  2.3322  0.6199
  381MOL0     H51393   8.003   9.221   1.239  0.2927  0.3095  0.1112
  381MOL0     H51394   8.086   9.084   1.163  0.9462  1.7944 -0.0134
  381MOL0     H51395   8.259   9.213   1.181 -1.2258  1.4515 -0.0489
  381MOL0     H51396   8.449   9.366   1.260  2.1107  0.9585  2.5767
  381MOL0     H51397   8.629   9.650   1.517  0.9217  1.4786 -0.7318
  381MOL0     H51398   8.823   9.799   1.506  1.9865  0.2491 -2.5150
  381MOL0     H51399   9.227   9.739   1.511  0.2392  1.2223 -0.2695
  381MOL0     H51400   9.212   9.633   1.356 -2.4753 -1.3069  0.9069
  381MOL0     H51401   9.368   9.793   1.316 -1.0102 -0.5998  3.6370
  381MOL0     H51402   9.226   9.832   1.213 -1.7209 -2.5741 -0.4489
  381MOL0     H51403   9.156  10.002   1.380  0.7927  4.5653  0.9156
  381MOL0     H51404   9.317   9.983   1.463  0.5255 -1.3902 -0.8530
  381MOL0     H51405   9.292  10.027   1.165 -0.7691  0.5360 -0.2886
  381MOL0     H51406   9.438  10.047   1.266  0.1246 -0.8998 -0.9236
  381MOL0     H51407   9.306  10.224   1.383 -0.3723  1.4087  0.4314
  381MOL0     H51408   9.181  10.223   1.250  0.5191 -0.6348 -0.9318
  381MOL0     H51409   9.480  10.271   1.205  0.3892  0.3962 -0.4633
  381MOL0     H51410   9.347  10.278   1.086  2.3172  0.3721 -1.2912
  381MOL0     H51411   9.259  10.472   1.279  0.7494  0.5679  1.9194
  381MOL0     H51412   9.343  10.495   1.125  0.6339 -2.2830 -1.3615
  381MOL0     H51413   9.482  10.473   1.400 -0.3264  0.3152 -0.3564
  381MOL0     H51414   9.564  10.481   1.254  1.4509  0.4092  2.1147
  381MOL0     H51415   9.064   9.468   1.368  1.5681  1.7259 -2.3414
  381MOL0     H51416   8.862   9.333   1.354 -1.5553  0.4051 -3.4733
  381MOL0     H51417   8.366   9.272   1.663  1.5667  3.1392 -0.7499
  381MOL0     H51418   8.163   9.132   1.591 -0.7141  2.2139  0.3323
  381MOL0     H51419   6.254   9.049   0.965 -1.9891  0.6831  0.5691
  381MOL0     H51420   6.018   9.040   1.070 -0.4839  1.7095  0.6144
  381MOL0     H51421   5.786   8.698   1.467 -1.5231 -1.0146 -0.5002
  381MOL0     H51422   5.575   8.700   1.576 -0.8430  0.6514 -0.2031
  381MOL0     H51423   5.329   9.067   1.524  2.2879  0.8673  0.6958
  381MOL0     H51424   5.353   9.097   1.694 -2.1532  0.9819  0.7330
  381MOL0     H51425   5.193   8.918   1.751 -1.0402  0.5104 -0.1993
  381MOL0     H51426   5.169   8.875   1.578 -3.4338  1.2956  0.9195
  381MOL0     H51427   5.091   9.103   1.524  3.1661 -2.5271 -1.2759
  381MOL0     H51428   5.090   9.116   1.715  2.5811 -3.7798  2.7790
  381MOL0     H51429   4.932   8.913   1.534 -0.8580  1.2223 -1.4050
  381MOL0     H51430   4.932   8.905   1.713 -0.9141  0.0862 -0.2816
  381MOL0     H51431   4.695   9.249   1.656 -0.8968 -0.5481 -4.4752
  381MOL0     H51432   5.564   9.121   1.576  1.4936 -0.2149  0.8627
  381MOL0     H51433   5.749   9.254   1.492 -1.9238 -1.7252  2.2155
  381MOL0     H51434   5.903   9.192   1.507  1.0283  2.2878 -3.1953
  381MOL0     H51435   5.832   9.185   1.351  2.0354  3.1414  0.4504
  382MOL0     O51436   3.046   4.132   3.624  0.3691 -0.2685 -0.5946
  382MOL0     C51437   2.989   4.138   3.733  0.4870 -0.0813 -1.1743
  382MOL0     O51438   3.044   4.189   3.850 -0.4632 -0.2198 -0.5758
  382MOL0     C51439   3.170   4.226   3.826  0.7644  0.5996  0.0982
  382MOL0     C51440   3.191   4.357   3.839  0.6552  0.4475  0.4621
  382MOL0     C51441   3.313   4.418   3.815 -0.2558 -0.8037 -0.0687
  382MOL0     C51442   3.424   4.338   3.782  0.0737  0.3233  0.2724
  382MOL0     O51443   3.542   4.403   3.759 -0.3725 -0.4218 -0.8016
  382MOL0     C51444   3.628   4.402   3.876 -0.1939 -0.9404 -1.3924
  382MOL0     C51445   3.748   4.506   3.871  0.5807 -0.0033 -0.0832
  382MOL0     C51446   3.847   4.454   3.766 -0.2074 -0.8550  0.3134
  382MOL0     C51447   3.914   4.557   3.674 -0.1004 -0.6067 -0.1337
  382MOL0     C51448   4.043   4.525   3.590 -0.2365  0.7613  0.4872
  382MOL0     C51449   4.016   4.411   3.489  0.3784 -0.0372  0.1762
  382MOL0     C51450   4.085   4.442   3.359  0.5913 -0.1595  0.4471
  382MOL0     C51451   4.039   4.327   3.260  0.9859  0.9680  1.1404
  382MOL0     N51452   4.087   4.332   3.118  0.4938  0.1505 -0.1278
  382MOL0     C51453   4.052   4.437   3.033 -0.7692 -0.8417 -0.7025
  382MOL0     C51454   4.141   4.423   2.930 -0.6293 -0.7766 -0.4456
  382MOL0     C51455   4.169   4.525   2.818  1.0042  0.1693  0.2463
  382MOL0     C51456   4.127   4.474   2.682 -0.1750 -0.5175 -0.1024
  382MOL0     C51457   3.990   4.392   2.690 -0.3682 -0.2491 -0.6406
  382MOL0     C51458   3.938   4.356   2.551  0.9461 -0.0254 -0.5631
  382MOL0     O51459   3.816   4.288   2.583 -0.1276 -0.5382 -0.2845
  382MOL0     C51460   3.792   4.191   2.491  0.4220  0.1222  0.3617
  382MOL0     C51461   3.683   4.208   2.401  0.7571  0.3074 -0.2330
  382MOL0     C51462   3.667   4.122   2.287  0.7719  0.5448 -0.4798
  382MOL0     C51463   3.755   4.013   2.265  0.4347 -0.1428 -0.0737
  382MOL0     C51464   3.731   3.923   2.150  0.5630  0.5055 -0.0403
  382MOL0     O51465   3.843   3.856   2.096  0.5237 -0.7230  0.2882
  382MOL0     C51466   3.814   3.777   1.983 -0.7607  0.3133  0.1010
  382MOL0     C51467   3.856   3.815   1.850 -0.0667 -0.3120  0.0482
  382MOL0     C51468   3.821   3.732   1.744 -0.3257  0.3031  0.3516
  382MOL0     C51469   3.767   3.607   1.769 -0.5932  0.3857  1.1232
  382MOL0     O51470   3.750   3.521   1.666  0.3164  0.0262 -0.3326
  382MOL0     C51471   3.611   3.490   1.641  0.0865  0.9923 -0.4792
  382MOL0     C51472   3.587   3.344   1.589 -0.1200 -0.3226  0.2297
  382MOL0     C51473   3.676   3.328   1.455  0.6818 -0.1354 -0.5106
  382MOL0     C51474   3.717   3.182   1.429  1.0089  0.3672  0.1242
  382MOL0     C51475   3.699   3.153   1.274 -0.0414  0.4995 -0.3033
  382MOL0     C51476   3.806   3.052   1.220 -0.6076 -0.1582  0.0109
  382MOL0     C51477   3.801   3.052   1.061 -0.0962 -0.4377 -0.5887
  382MOL0     C51478   3.851   2.915   1.009  0.1766 -1.0707 -0.3551
  382MOL0    Cl51479   4.003   2.868   1.074 -0.1125  0.1154 -0.2506
  382MOL0     C51480   3.720   3.574   1.895  0.6499  0.0832 -1.1521
  382MOL0     C51481   3.749   3.659   2.001 -0.8817 -1.6511 -0.5486
  382MOL0     O51482   3.620   3.924   2.091 -0.4581  0.0372 -0.4268
  382MOL0     C51483   3.861   3.999   2.360  0.1837 -0.2380  0.1892
  382MOL0     C51484   3.873   4.082   2.469  0.3270  0.3730 -0.9433
  382MOL0     N51485   4.231   4.329   2.961 -0.1085  0.2865 -0.0691
  382MOL0     N51486   4.200   4.276   3.074  0.5556  0.5864 -0.3862
  382MOL0     C51487   3.401   4.199   3.770 -0.0583  0.0969  0.5724
  382MOL0     C51488   3.275   4.133   3.793 -0.2799 -0.1954  0.1499
  382MOL0     C51489   2.870   4.057   3.743 -0.2599 -0.3984  0.9338
  382MOL0     C51490   2.801   4.038   3.626  0.7184  0.3030 -0.6736
  382MOL0     C51491   2.669   3.987   3.616  0.5162  0.4712 -0.2155
  382MOL0     C51492   2.603   3.948   3.737  0.4541  0.7155  1.0863
  382MOL0     O51493   2.471   3.914   3.713 -0.2195  0.2949 -0.0113
  382MOL0     C51494   2.393   3.895   3.829  0.0818 -0.4338  0.8037
  382MOL0     C51495   2.274   3.815   3.793  0.5785  0.1454 -0.5681
  382MOL0     C51496   2.159   3.911   3.750 -0.1503 -0.1947  0.0255
  382MOL0     C51497   2.058   3.948   3.872 -0.2422  0.4095  0.4985
  382MOL0     C51498   2.137   4.037   3.956  0.3845 -0.0311 -0.1200
  382MOL0     C51499   2.174   4.119   4.037 -0.3919 -0.3738  0.2398
  382MOL0     C51500   2.678   3.956   3.858  0.0604  0.4264  0.3754
  382MOL0     C51501   2.803   4.021   3.858  0.4202 -0.2439 -0.3604
  382MOL0     C51502   2.872   4.036   3.994  0.5422 -0.1079 -0.7045
  382MOL0     H51503   3.104   4.421   3.852  0.3101 -0.1022  0.8611
  382MOL0     H51504   3.327   4.526   3.819 -0.3146 -0.8244  0.7914
  382MOL0     H51505   3.560   4.447   3.949 -1.2676 -1.6370 -1.9359
  382MOL0     H51506   3.659   4.302   3.910  1.2389 -0.4414 -1.1525
  382MOL0     H51507   3.793   4.512   3.970 -1.8830 -2.4070  1.3387
  382MOL0     H51508   3.698   4.595   3.832 -0.4493  0.4519  2.1750
  382MOL0     H51509   3.813   4.371   3.703  0.3642 -0.7537 -0.1357
  382MOL0     H51510   3.932   4.414   3.823  1.8630 -0.5595 -2.3337
  382MOL0     H51511   3.842   4.608   3.610 -0.6439 -0.5888  0.4784
  382MOL0     H51512   3.939   4.645   3.734 -1.6617  0.0858 -0.4568
  382MOL0     H51513   4.080   4.614   3.538 -0.7376  0.2704 -0.7539
  382MOL0     H51514   4.126   4.496   3.656  1.7023  0.0204 -2.0905
  382MOL0     H51515   4.059   4.326   3.543  2.0078  0.8165  0.2894
  382MOL0     H51516   3.908   4.400   3.472  0.7774 -3.1910 -0.8341
  382MOL0     H51517   4.192   4.433   3.378  0.6027  0.5038  0.7390
  382MOL0     H51518   4.059   4.545   3.331 -1.0304 -0.5272  0.5083
  382MOL0     H51519   4.066   4.233   3.309 -0.5998  0.0312  0.3499
  382MOL0     H51520   3.931   4.326   3.244  1.0886  3.4908 -0.1664
  382MOL0     H51521   3.975   4.509   3.058  0.1641  0.5121 -1.5405
  382MOL0     H51522   4.117   4.618   2.842 -0.1188  0.1851 -1.9639
  382MOL0     H51523   4.275   4.545   2.801  0.5135  2.0144 -1.0113
  382MOL0     H51524   4.124   4.559   2.614 -0.5213 -0.2870  0.2019
  382MOL0     H51525   4.203   4.403   2.648 -1.3039 -1.3231 -1.0427
  382MOL0     H51526   3.915   4.455   2.738 -0.6082 -0.3701 -0.8555
  382MOL0     H51527   4.014   4.304   2.751  2.0025  1.1944  0.6645
  382MOL0     H51528   4.014   4.300   2.496 -0.8472 -2.8174 -0.4083
  382MOL0     H51529   3.922   4.444   2.489 -0.7466  0.3425  0.3304
  382MOL0     H51530   3.608   4.282   2.427 -0.4865 -2.2135  4.7063
  382MOL0     H51531   3.589   4.133   2.213  2.4832  2.1702 -2.1432
  382MOL0     H51532   3.915   3.905   1.842 -3.7773  2.3560 -0.0235
  382MOL0     H51533   3.847   3.765   1.644  0.2037 -0.4108  0.2462
  382MOL0     H51534   3.554   3.491   1.734 -0.4051 -0.5621 -0.7254
  382MOL0     H51535   3.583   3.563   1.564 -0.4742  0.4654 -0.7852
  382MOL0     H51536   3.629   3.271   1.659  1.0549  0.0489 -0.0587
  382MOL0     H51537   3.486   3.317   1.556  1.0323 -2.5649 -1.7343
  382MOL0     H51538   3.613   3.370   1.376 -4.3795  1.3558  3.7724
  382MOL0     H51539   3.768   3.387   1.454  0.6006 -0.0172 -1.7026
  382MOL0     H51540   3.641   3.125   1.484  2.1390  0.1457  1.5314
  382MOL0     H51541   3.816   3.161   1.471 -0.2372  0.9405  3.7054
  382MOL0     H51542   3.715   3.238   1.207  1.3669 -1.4916 -2.6899
  382MOL0     H51543   3.600   3.112   1.250 -0.2416  0.1225  1.0620
  382MOL0     H51544   3.909   3.084   1.240 -0.6795  0.6514 -0.8036
  382MOL0     H51545   3.785   2.959   1.273  1.2493  0.1673  1.4285
  382MOL0     H51546   3.868   3.121   1.011  0.1900 -0.3062 -0.0320
  382MOL0     H51547   3.706   3.069   1.009 -0.2829  0.5548  0.0512
  382MOL0     H51548   3.769   2.847   1.033 -0.1658 -0.9482 -1.1530
  382MOL0     H51549   3.856   2.923   0.900 -0.6781 -1.0494 -0.4058
  382MOL0     H51550   3.671   3.481   1.920 -0.9661  1.2574  0.2513
  382MOL0     H51551   3.718   3.626   2.100  2.5327 -0.1509  1.1906
  382MOL0     H51552   3.929   3.915   2.351 -1.6389 -1.6616 -0.7627
  382MOL0     H51553   3.959   4.072   2.535 -2.0707  0.5584  2.4788
  382MOL0     H51554   3.485   4.133   3.752 -1.2094 -1.8771  1.9860
  382MOL0     H51555   3.259   4.026   3.785 -1.4015 -0.1643  1.4478
  382MOL0     H51556   2.843   4.083   3.537  2.3912 -0.5687 -0.3593
  382MOL0     H51557   2.602   3.997   3.531 -0.9301  0.7085  0.9210
  382MOL0     H51558   2.357   3.991   3.868 -1.1329 -0.2381 -0.7289
  382MOL0     H51559   2.452   3.835   3.899 -2.7921 -4.2309  0.2805
  382MOL0     H51560   2.226   3.768   3.879 -1.1726  0.7569 -1.1786
  382MOL0     H51561   2.291   3.737   3.717 -2.3689 -0.4435 -0.7346
  382MOL0     H51562   2.119   3.842   3.675  1.3222 -0.8629 -0.1786
  382MOL0     H51563   2.190   4.008   3.709  1.8664 -0.3164  1.1309
  382MOL0     H51564   1.964   3.990   3.835  0.9996  1.0744 -2.1804
  382MOL0     H51565   2.029   3.861   3.932  0.5941  0.9089  1.6576
  382MOL0     H51566   2.249   4.180   4.083  0.2079  0.9931 -2.3372
  382MOL0     H51567   2.631   3.932   3.953 -0.5979  0.8930  0.1728
  382MOL0     H51568   2.852   4.137   4.032 -2.9317 -1.6117  2.0573
  382MOL0     H51569   2.826   3.972   4.070 -1.4437 -0.8275 -2.4141
  382MOL0     H51570   2.979   4.015   3.995  2.0778  3.9119  7.5812
  383MOL0     O51571   7.920   0.327   4.370  0.3737 -0.2894 -0.4723
  383MOL0     C51572   7.869   0.410   4.295 -0.0507 -0.3640 -0.1202
  383MOL0     O51573   7.924   0.534   4.266 -1.0459  0.5278  0.3269
  383MOL0     C51574   8.060   0.558   4.301 -0.7865 -0.0649  0.0428
  383MOL0     C51575   8.163   0.471   4.265 -0.0925 -0.5878 -0.3196
  383MOL0     C51576   8.297   0.499   4.286  0.4226  0.1924  0.5687
  383MOL0     C51577   8.328   0.617   4.361  0.0860 -0.8285 -0.5377
  383MOL0     O51578   8.452   0.652   4.391  0.2642 -0.1409  0.4321
  383MOL0     C51579   8.542   0.660   4.276 -0.1409  0.4207 -0.1481
  383MOL0     C51580   8.505   0.766   4.174  0.2526  0.5429  0.1035
  383MOL0     C51581   8.546   0.898   4.238  0.5895  0.2426  0.3730
  383MOL0     C51582   8.600   1.004   4.142  1.2275  0.1074  0.1264
  383MOL0     C51583   8.648   1.127   4.218 -0.1799 -1.1692 -0.7587
  383MOL0     C51584   8.724   1.231   4.135 -0.4901  0.6522  0.3233
  383MOL0     C51585   8.638   1.299   4.025  0.4485 -0.2750 -0.4284
  383MOL0     C51586   8.706   1.431   3.988 -0.3115  0.3750 -0.0315
  383MOL0     N51587   8.687   1.477   3.849  1.1977 -0.4130 -0.1873
  383MOL0     C51588   8.735   1.405   3.744 -0.8739  0.0273  0.4138
  383MOL0     C51589   8.665   1.456   3.638 -1.1560 -0.3802 -0.0469
  383MOL0     C51590   8.712   1.430   3.499 -0.4251 -0.1817 -0.4864
  383MOL0     C51591   8.797   1.541   3.460 -0.9083 -0.1147  0.3818
  383MOL0     C51592   8.836   1.512   3.315  0.5290  0.0375  0.7628
  383MOL0     C51593   8.874   1.638   3.248 -0.7689 -0.3077  0.2340
  383MOL0     O51594   8.850   1.620   3.109  0.3997  0.2461  0.3688
  383MOL0     C51595   8.928   1.683   3.012  0.5155 -0.4272 -0.3522
  383MOL0     C51596   9.028   1.787   3.032 -0.1470 -0.5169 -0.2412
  383MOL0     C51597   9.125   1.810   2.926  0.1686 -0.2970 -0.0516
  383MOL0     C51598   9.116   1.749   2.805  0.1221 -0.1526 -0.4508
  383MOL0     C51599   9.208   1.770   2.692 -0.5095  0.7466  0.2608
  383MOL0     O51600   9.211   1.684   2.583  0.0655 -0.2834  0.0451
  383MOL0     C51601   9.314   1.700   2.490  0.4050 -0.0325  0.2587
  383MOL0     C51602   9.335   1.818   2.418 -1.3046  0.0909  0.0273
  383MOL0     C51603   9.432   1.824   2.310 -0.6498 -0.3918  1.1037
  383MOL0     C51604   9.482   1.706   2.271  0.1746 -0.4955  0.0303
  383MOL0     O51605   9.568   1.704   2.166 -0.1218 -0.3318  0.6037
  383MOL0     C51606   9.551   1.603   2.072  0.2242  0.0754  0.1055
  383MOL0     C51607   9.573   1.660   1.934 -1.3813  0.4800 -0.4080
  383MOL0     C51608   9.524   1.803   1.911  1.0777 -0.0483 -0.4089
  383MOL0     C51609   9.373   1.814   1.935  0.5242 -0.3634  0.2328
  383MOL0     C51610   9.329   1.963   1.930  0.5630  0.5361 -0.7568
  383MOL0     C51611   9.171   1.988   1.961  0.6359 -0.1425  0.4083
  383MOL0     C51612   9.145   2.136   1.944 -0.0028  0.0425  0.4317
  383MOL0     C51613   9.002   2.172   1.998 -0.6002 -0.0318 -0.2487
  383MOL0    Cl51614   8.993   2.342   1.972 -0.1905 -0.2601  0.8257
  383MOL0     C51615   9.450   1.578   2.332  0.5276 -0.1109 -0.2950
  383MOL0     C51616   9.378   1.581   2.450 -0.2160 -0.2623 -0.9480
  383MOL0     O51617   9.292   1.857   2.704 -0.4382  0.3449  0.0674
  383MOL0     C51618   9.008   1.660   2.792 -0.6673  0.3934 -0.0051
  383MOL0     C51619   8.917   1.619   2.887 -0.0565  0.0678 -0.6138
  383MOL0     N51620   8.568   1.544   3.674 -0.2877 -0.1194 -0.1403
  383MOL0     N51621   8.591   1.564   3.803  0.4412 -0.0939 -0.3609
  383MOL0     C51622   8.229   0.707   4.402 -0.6459 -0.3572 -0.9091
  383MOL0     C51623   8.095   0.679   4.368 -0.1781 -0.1214  0.4839
  383MOL0     C51624   7.738   0.391   4.241 -0.5453 -0.0934  0.0946
  383MOL0     C51625   7.713   0.268   4.190  1.3374  0.4089  0.5637
  383MOL0     C51626   7.576   0.237   4.148 -1.1392 -0.3004 -0.1284
  383MOL0     C51627   7.471   0.320   4.168  0.7491  0.3191  0.1047
  383MOL0     O51628   7.338   0.287   4.139  0.1482 -0.1924 -0.5265
  383MOL0     C51629   7.268   0.195   4.228 -0.2930  0.0257 -0.1742
  383MOL0     C51630   7.126   0.168   4.184  0.4599 -0.0657  0.8716
  383MOL0     C51631   7.023   0.207   4.298 -0.0117 -0.3205  0.2381
  383MOL0     C51632   6.874   0.184   4.264 -0.5290  0.3791  0.9933
  383MOL0     C51633   6.795   0.249   4.374 -0.2507 -0.0702  0.4640
  383MOL0     C51634   6.733   0.308   4.464  0.1971  0.7576 -0.2230
  383MOL0     C51635   7.496   0.449   4.212 -0.2760  0.1105 -0.4753
  383MOL0     C51636   7.633   0.483   4.251  0.0864 -0.2094  0.1847
  383MOL0     C51637   7.651   0.618   4.319  0.8399 -0.2516 -0.7156
  383MOL0     H51638   8.133   0.385   4.206  1.4151 -1.7694  0.5850
  383MOL0     H51639   8.364   0.421   4.249 -1.5530 -1.9080  1.1794
  383MOL0     H51640   8.643   0.663   4.317  0.1700 -0.9030 -0.7580
  383MOL0     H51641   8.527   0.564   4.226 -1.4365  1.2829 -1.5096
  383MOL0     H51642   8.404   0.765   4.132  1.2425  0.9403 -2.5008
  383MOL0     H51643   8.563   0.745   4.084 -1.8996  0.8812 -1.4352
  383MOL0     H51644   8.623   0.878   4.312  1.5274  1.7712 -0.1346
  383MOL0     H51645   8.452   0.940   4.275 -0.7375 -1.3377 -1.0142
  383MOL0     H51646   8.673   0.966   4.071 -1.1379 -0.9642 -1.8859
  383MOL0     H51647   8.520   1.040   4.077  2.5261  3.1239  0.0630
  383MOL0     H51648   8.564   1.165   4.277 -2.0023 -0.1200 -3.8045
  383MOL0     H51649   8.717   1.082   4.290 -1.0970 -5.8522 -2.4063
  383MOL0     H51650   8.757   1.311   4.202  0.4990 -0.0481  0.6852
  383MOL0     H51651   8.812   1.185   4.089 -1.5285  0.1917 -1.3118
  383MOL0     H51652   8.539   1.315   4.069  0.0050 -0.2760 -1.4052
  383MOL0     H51653   8.619   1.243   3.933  0.7575  4.8456 -4.0576
  383MOL0     H51654   8.691   1.520   4.049  1.0494  1.8280 -1.7014
  383MOL0     H51655   8.814   1.412   3.989 -0.4641 -0.7736 -1.4095
  383MOL0     H51656   8.812   1.330   3.731 -2.8019 -2.0389  0.3481
  383MOL0     H51657   8.758   1.332   3.478  1.2680  0.6716 -0.9312
  383MOL0     H51658   8.626   1.423   3.432 -1.3144  1.6187  0.4071
  383MOL0     H51659   8.747   1.639   3.463  0.5306  0.6321  1.7599
  383MOL0     H51660   8.890   1.561   3.514  0.3731  1.4363 -2.1712
  383MOL0     H51661   8.746   1.475   3.265  0.4508 -2.0066  2.3248
  383MOL0     H51662   8.927   1.452   3.304  0.2966 -0.2546  0.4222
  383MOL0     H51663   8.982   1.653   3.256 -0.5038 -2.4440  1.5161
  383MOL0     H51664   8.816   1.725   3.279 -1.7259 -1.6739  2.5937
  383MOL0     H51665   9.055   1.829   3.128  1.5511 -0.4217 -0.7290
  383MOL0     H51666   9.203   1.883   2.941  0.1311 -0.5573  1.6073
  383MOL0     H51667   9.292   1.914   2.442  2.1516  2.0770 -1.0409
  383MOL0     H51668   9.439   1.906   2.240 -0.3822 -1.8640 -0.6622
  383MOL0     H51669   9.626   1.526   2.094  0.4389  0.5131  0.9625
  383MOL0     H51670   9.452   1.556   2.076  0.5034 -0.4626  1.0477
  383MOL0     H51671   9.678   1.662   1.903 -2.4722 -0.0945 -4.9330
  383MOL0     H51672   9.529   1.593   1.859  0.6012  0.6159 -1.7758
  383MOL0     H51673   9.583   1.863   1.981  4.2744 -3.0486 -0.3015
  383MOL0     H51674   9.556   1.831   1.810  3.9208 -0.6407  0.2441
  383MOL0     H51675   9.358   1.790   2.040  1.0783 -2.6544 -0.1528
  383MOL0     H51676   9.309   1.755   1.868 -0.6790  0.0898  0.9656
  383MOL0     H51677   9.357   2.001   1.831  0.6928 -1.7925 -1.6761
  383MOL0     H51678   9.378   2.021   2.010  0.9867  0.5518 -1.0257
  383MOL0     H51679   9.118   1.937   1.880 -1.1307  4.5132 -1.7280
  383MOL0     H51680   9.140   1.952   2.059 -0.6930 -0.6722 -0.1751
  383MOL0     H51681   9.144   2.175   1.842 -4.0326 -0.5319  0.0931
  383MOL0     H51682   9.223   2.188   2.001  0.0661 -0.4929  0.8307
  383MOL0     H51683   8.913   2.119   1.960 -2.5412  2.3841  0.6503
  383MOL0     H51684   9.000   2.148   2.104 -4.6785  0.8284  0.0540
  383MOL0     H51685   9.505   1.493   2.293  1.0449 -0.1990  0.6137
  383MOL0     H51686   9.353   1.492   2.508  1.5575  0.7885  1.5840
  383MOL0     H51687   8.980   1.605   2.703  0.2030 -1.8394  1.0286
  383MOL0     H51688   8.838   1.546   2.876 -1.3028  0.5772  3.3375
  383MOL0     H51689   8.250   0.791   4.467 -1.7300 -0.1007 -0.8580
  383MOL0     H51690   8.021   0.754   4.393  0.0556 -0.2339  1.5544
  383MOL0     H51691   7.793   0.199   4.169 -0.7582 -1.4723 -1.9047
  383MOL0     H51692   7.549   0.140   4.106 -2.2236  0.3748 -1.0339
  383MOL0     H51693   7.282   0.236   4.328  1.0419 -0.1315 -0.2841
  383MOL0     H51694   7.320   0.100   4.214  0.7328  0.9642 -4.0482
  383MOL0     H51695   7.113   0.063   4.156  3.5389 -1.4606  3.9761
  383MOL0     H51696   7.107   0.238   4.102  2.2558 -1.8182 -1.1660
  383MOL0     H51697   7.039   0.314   4.313  2.5718 -0.1967 -2.5202
  383MOL0     H51698   7.049   0.157   4.392  0.7448  1.0532  0.7841
  383MOL0     H51699   6.847   0.224   4.166  1.5802 -2.2535 -0.8114
  383MOL0     H51700   6.851   0.077   4.264 -0.2672  0.3171  0.5466
  383MOL0     H51701   6.669   0.364   4.530  0.5872  0.5873  0.3029
  383MOL0     H51702   7.414   0.518   4.230  1.4938  2.1839  0.0966
  383MOL0     H51703   7.733   0.617   4.391  1.2183 -0.4545 -1.1486
  383MOL0     H51704   7.660   0.701   4.249 -2.3166  2.5934  1.8818
  383MOL0     H51705   7.561   0.643   4.376  0.0437  0.7077 -2.3330
  384MOL0     O51706   4.259   7.656   6.621  0.2363 -0.5317  0.4819
  384MOL0     C51707   4.246   7.584   6.522  0.8970  0.3848 -0.1639
  384MOL0     O51708   4.343   7.577   6.423  1.2312  0.3737 -0.0292
  384MOL0     C51709   4.479   7.604   6.435  0.0489 -0.0029  0.7631
  384MOL0     C51710   4.558   7.644   6.324  0.0372 -0.5068 -0.1765
  384MOL0     C51711   4.701   7.654   6.334 -0.0626  0.5665 -0.0971
  384MOL0     C51712   4.761   7.600   6.453 -0.5300  0.0157 -0.6772
  384MOL0     O51713   4.896   7.583   6.482  1.1376  0.8954 -0.4780
  384MOL0     C51714   4.989   7.616   6.385  0.1683  0.0769  0.2751
  384MOL0     C51715   5.014   7.512   6.272  0.1404 -0.6590 -0.0656
  384MOL0     C51716   5.136   7.550   6.180  0.2585  0.0333 -0.5543
  384MOL0     C51717   5.279   7.535   6.237 -0.4120  0.7407 -0.8673
  384MOL0     C51718   5.386   7.557   6.132 -0.4973 -0.7672  0.0485
  384MOL0     C51719   5.521   7.502   6.187 -0.2509 -0.6196 -0.5500
  384MOL0     C51720   5.593   7.580   6.291 -1.0676  0.5912  1.2829
  384MOL0     C51721   5.730   7.515   6.332 -0.4848 -0.4746  0.2346
  384MOL0     N51722   5.722   7.368   6.347  0.3407 -0.3217  0.5500
  384MOL0     C51723   5.653   7.307   6.451  0.1245  0.8990  1.4415
  384MOL0     C51724   5.685   7.175   6.439  0.2646 -0.1223 -0.0985
  384MOL0     C51725   5.627   7.061   6.517  0.2408  0.0421  0.7922
  384MOL0     C51726   5.611   7.096   6.669  0.2308  0.5102  0.3842
  384MOL0     C51727   5.570   6.973   6.746 -0.5081  0.5544  0.2168
  384MOL0     C51728   5.519   7.003   6.886  0.6079 -0.1667 -0.5994
  384MOL0     O51729   5.637   7.032   6.974 -0.4709  0.3962  0.7057
  384MOL0     C51730   5.704   6.921   7.036 -0.5637  0.2938 -0.1894
  384MOL0     C51731   5.659   6.788   7.041 -0.2805  0.8499  0.0473
  384MOL0     C51732   5.726   6.695   7.123  0.1988  0.2148 -0.1173
  384MOL0     C51733   5.835   6.741   7.196 -0.0607  0.1354 -0.0087
  384MOL0     C51734   5.908   6.646   7.280 -0.0522  0.3197 -0.5172
  384MOL0     O51735   6.023   6.689   7.349 -0.2173 -0.0021  0.3539
  384MOL0     C51736   6.093   6.609   7.433 -0.6069  0.2710 -0.7171
  384MOL0     C51737   6.031   6.551   7.548 -0.8797  0.8436 -0.1914
  384MOL0     C51738   6.101   6.476   7.648 -0.0018 -1.0374  0.6468
  384MOL0     C51739   6.241   6.472   7.643  0.0083  0.0702  0.8508
  384MOL0     O51740   6.299   6.419   7.755 -0.1226  0.7495  0.4619
  384MOL0     C51741   6.308   6.275   7.774  1.0606 -0.0675 -0.2952
  384MOL0     C51742   6.444   6.215   7.745  0.6044 -0.1321 -0.3620
  384MOL0     C51743   6.498   6.219   7.599 -0.3965 -0.0793  0.3519
  384MOL0     C51744   6.423   6.119   7.514  0.3777  0.9797  0.5628
  384MOL0     C51745   6.431   5.958   7.531 -0.1448 -1.0057 -0.1888
  384MOL0     C51746   6.582   5.933   7.493 -0.3210  0.3483  0.4387
  384MOL0     C51747   6.619   5.782   7.502  0.1199  0.4319 -0.0083
  384MOL0     C51748   6.572   5.694   7.383 -0.0763  0.5582 -0.9435
  384MOL0    Cl51749   6.619   5.529   7.420 -0.0039 -0.0632  0.1928
  384MOL0     C51750   6.306   6.556   7.542 -0.1989  0.8053 -0.3562
  384MOL0     C51751   6.228   6.618   7.437 -0.2392  0.3753 -1.4086
  384MOL0     O51752   5.883   6.527   7.261  0.6356  0.0038  0.2226
  384MOL0     C51753   5.884   6.874   7.193  0.1798  0.0974 -0.1520
  384MOL0     C51754   5.814   6.960   7.117 -0.4425  0.4572  0.0765
  384MOL0     N51755   5.772   7.160   6.329  0.0283 -0.1358  0.8333
  384MOL0     N51756   5.792   7.278   6.268  0.9594 -0.2950 -0.4306
  384MOL0     C51757   4.680   7.563   6.562 -0.4704 -0.0079 -0.4208
  384MOL0     C51758   4.542   7.573   6.555  0.2208  0.3635 -0.9330
  384MOL0     C51759   4.111   7.529   6.498  0.3462  0.0955 -0.7564
  384MOL0     C51760   4.010   7.547   6.590  0.9216  0.0823 -0.2137
  384MOL0     C51761   3.874   7.510   6.559  0.4383  0.2159 -0.0037
  384MOL0     C51762   3.834   7.451   6.440  0.4691  0.3716 -0.5677
  384MOL0     O51763   3.704   7.402   6.427  0.6310 -0.6930  0.1107
  384MOL0     C51764   3.664   7.376   6.294 -0.1056  0.7757 -0.2852
  384MOL0     C51765   3.507   7.389   6.283 -1.0941  0.1770  0.0405
  384MOL0     C51766   3.447   7.505   6.356 -0.0875 -0.5834 -0.2842
  384MOL0     C51767   3.297   7.497   6.341 -0.5415 -0.3599 -0.0204
  384MOL0     C51768   3.221   7.611   6.392 -0.1681  0.0879  0.3627
  384MOL0     C51769   3.153   7.703   6.435  0.0286 -0.3743  0.4613
  384MOL0     C51770   3.934   7.441   6.344 -1.1378  0.7784  0.1130
  384MOL0     C51771   4.068   7.480   6.369 -0.2005  0.2289 -0.0290
  384MOL0     C51772   4.153   7.487   6.239 -0.2819  0.3438 -1.2497
  384MOL0     H51773   4.520   7.660   6.223  1.6098 -4.3824 -1.5938
  384MOL0     H51774   4.753   7.693   6.247  0.1854  1.4620  0.4388
  384MOL0     H51775   4.959   7.707   6.331 -0.4494  0.7349  1.6880
  384MOL0     H51776   5.090   7.633   6.425  1.2460  2.0800 -2.8934
  384MOL0     H51777   4.920   7.498   6.219 -0.9624 -0.5182  1.7486
  384MOL0     H51778   5.022   7.419   6.330  0.0952  0.4675  1.8451
  384MOL0     H51779   5.128   7.656   6.157 -2.5175 -0.0546 -0.3056
  384MOL0     H51780   5.132   7.495   6.086  1.7618 -0.7806 -0.1848
  384MOL0     H51781   5.297   7.590   6.330  2.5415 -0.2106 -0.8012
  384MOL0     H51782   5.279   7.430   6.265 -1.8293  0.3872 -2.0915
  384MOL0     H51783   5.363   7.504   6.039 -0.7147  1.7667 -1.4079
  384MOL0     H51784   5.389   7.663   6.108 -3.2430 -0.5899  0.1730
  384MOL0     H51785   5.501   7.402   6.227 -1.2295  0.9874  3.4636
  384MOL0     H51786   5.582   7.500   6.097  2.5414 -0.2244  1.2175
  384MOL0     H51787   5.541   7.585   6.387 -0.6795 -3.9990  1.9633
  384MOL0     H51788   5.620   7.680   6.257  1.3129 -0.6205 -0.7796
  384MOL0     H51789   5.808   7.546   6.262  0.7481 -1.7811  1.0069
  384MOL0     H51790   5.764   7.553   6.429 -0.8425 -1.3494  0.7081
  384MOL0     H51791   5.591   7.353   6.527  0.1976  0.2360  1.9094
  384MOL0     H51792   5.536   7.019   6.474  0.3595 -0.5715  1.1261
  384MOL0     H51793   5.712   6.992   6.510 -0.3875 -0.7543  0.8175
  384MOL0     H51794   5.711   7.132   6.696  0.8310  0.1145 -1.1746
  384MOL0     H51795   5.544   7.180   6.691  2.7813  1.8182  4.0668
  384MOL0     H51796   5.645   6.895   6.733 -1.4254  0.1006 -3.5082
  384MOL0     H51797   5.485   6.925   6.695  0.4038 -0.2864 -0.5442
  384MOL0     H51798   5.449   6.925   6.918 -2.0619  1.9470 -0.9525
  384MOL0     H51799   5.455   7.090   6.869  0.6457 -0.1145 -0.4720
  384MOL0     H51800   5.569   6.765   6.985  0.8353  1.6467 -2.2207
  384MOL0     H51801   5.693   6.593   7.135  2.1630 -0.2907  1.4534
  384MOL0     H51802   5.923   6.542   7.559 -0.8261  0.2629 -0.1127
  384MOL0     H51803   6.039   6.439   7.729 -0.7360  1.2867  1.2359
  384MOL0     H51804   6.275   6.245   7.873 -0.5146  1.9335 -0.1568
  384MOL0     H51805   6.240   6.229   7.702  0.7182 -0.5272  0.3169
  384MOL0     H51806   6.520   6.265   7.805  0.9258 -0.6628 -0.3221
  384MOL0     H51807   6.433   6.110   7.771 -5.3079  0.1502 -0.3200
  384MOL0     H51808   6.501   6.321   7.559  1.3674  2.8501  6.6660
  384MOL0     H51809   6.603   6.188   7.599 -0.0807  0.9136  1.5343
  384MOL0     H51810   6.441   6.150   7.411 -0.8645  1.5342  0.4931
  384MOL0     H51811   6.314   6.129   7.525  0.0324 -0.5761 -0.9654
  384MOL0     H51812   6.359   5.907   7.467 -0.0763  0.2945 -1.3401
  384MOL0     H51813   6.411   5.935   7.637  3.8834  1.6742  1.3967
  384MOL0     H51814   6.606   5.943   7.386 -2.9658 -2.1363 -0.5225
  384MOL0     H51815   6.655   5.995   7.546 -0.7524 -0.0304  1.4867
  384MOL0     H51816   6.578   5.752   7.598  0.0209  2.3873  0.5887
  384MOL0     H51817   6.728   5.787   7.498  0.1336 -0.4578 -2.0314
  384MOL0     H51818   6.463   5.696   7.373 -0.2506 -2.7071 -0.9752
  384MOL0     H51819   6.608   5.730   7.286  2.0057  1.9303  0.2813
  384MOL0     H51820   6.411   6.568   7.566 -0.7392  1.0596  2.1855
  384MOL0     H51821   6.277   6.671   7.356  2.2570  0.5255  0.1097
  384MOL0     H51822   5.977   6.911   7.234  0.7137 -0.3601 -0.9186
  384MOL0     H51823   5.859   7.058   7.110  0.1919  0.1525 -0.2118
  384MOL0     H51824   4.718   7.538   6.660 -3.4723  2.8131  1.6738
  384MOL0     H51825   4.477   7.559   6.640  0.6083  3.6231  0.0064
  384MOL0     H51826   4.031   7.584   6.690  0.2727  2.5367 -0.9004
  384MOL0     H51827   3.797   7.511   6.635 -0.9540  0.8656 -1.3699
  384MOL0     H51828   3.691   7.272   6.274 -1.1013 -0.4283  3.6668
  384MOL0     H51829   3.709   7.443   6.221  0.1420  0.8493 -0.0653
  384MOL0     H51830   3.456   7.301   6.324 -0.7656 -0.7056 -1.3519
  384MOL0     H51831   3.493   7.394   6.174 -2.0001 -1.4135  0.0486
  384MOL0     H51832   3.479   7.598   6.309 -0.7266 -1.8839 -3.5425
  384MOL0     H51833   3.475   7.518   6.461  0.0132  0.9983 -0.4758
  384MOL0     H51834   3.284   7.495   6.233  1.8174  1.5945 -0.4261
  384MOL0     H51835   3.250   7.408   6.384 -0.2423  1.3798  4.5321
  384MOL0     H51836   3.104   7.780   6.493  0.8475 -1.0858  2.1644
  384MOL0     H51837   3.905   7.396   6.250  0.9311  0.6037 -0.4992
  384MOL0     H51838   4.178   7.589   6.208  1.8521  0.6888  1.2083
  384MOL0     H51839   4.253   7.442   6.249  0.3427  0.8245 -4.2151
  384MOL0     H51840   4.102   7.441   6.154 -0.2390 -3.1557  0.4275
  385MOL0     O51841   8.085   1.978  11.000  0.4259  0.4400 -0.6620
  385MOL0     C51842   8.075   2.086  11.065 -0.8511  0.1661  0.2585
  385MOL0     O51843   8.162   2.185  11.041  0.4033 -0.3457  0.7009
  385MOL0     C51844   8.225   2.202  10.915  0.3986  0.3102 -0.2475
  385MOL0     C51845   8.279   2.104  10.833 -0.3969  0.2065 -0.8191
  385MOL0     C51846   8.328   2.130  10.703 -0.7081 -0.8449 -0.1484
  385MOL0     C51847   8.338   2.265  10.660 -0.1397 -0.2165  0.3313
  385MOL0     O51848   8.388   2.301  10.531  0.0448  0.5070  0.8008
  385MOL0     C51849   8.331   2.249  10.411 -0.7148  0.9620 -0.4394
  385MOL0     C51850   8.311   2.357  10.306 -0.1840 -0.1168 -0.6750
  385MOL0     C51851   8.450   2.396  10.254 -0.3173  0.2293 -0.2250
  385MOL0     C51852   8.524   2.286  10.178 -0.2437 -0.5706  0.1870
  385MOL0     C51853   8.649   2.348  10.108 -0.2296  0.6666  0.1800
  385MOL0     C51854   8.755   2.235  10.064 -0.1473 -0.7845  0.0570
  385MOL0     C51855   8.884   2.311  10.023 -0.3976  0.5470 -0.3976
  385MOL0     C51856   8.981   2.206   9.983 -0.6803  0.3142  0.1649
  385MOL0     N51857   9.079   2.264   9.883 -0.2410 -0.3132 -0.2134
  385MOL0     C51858   9.091   2.225   9.763 -0.6245  0.0958  0.3223
  385MOL0     C51859   9.186   2.307   9.700  0.3825  0.2214 -0.9659
  385MOL0     C51860   9.252   2.291   9.570  0.3577  0.0338  0.2690
  385MOL0     C51861   9.249   2.403   9.474  0.5925 -0.4372  0.3207
  385MOL0     C51862   9.367   2.503   9.477  0.1991 -0.1388 -0.0041
  385MOL0     C51863   9.485   2.460   9.389 -0.4673 -0.7675  0.1280
  385MOL0     O51864   9.565   2.580   9.380  0.1104 -0.5476 -0.5672
  385MOL0     C51865   9.626   2.587   9.252 -0.6480  0.4063  0.1638
  385MOL0     C51866   9.562   2.664   9.152 -0.0374 -0.5373 -0.7910
  385MOL0     C51867   9.629   2.702   9.038 -0.4189  0.2418  0.1954
  385MOL0     C51868   9.750   2.640   9.005  0.0226 -0.3555  0.0169
  385MOL0     C51869   9.809   2.675   8.870 -0.1984  0.0577  0.0279
  385MOL0     O51870   9.945   2.637   8.862 -0.9625 -0.3205 -0.0736
  385MOL0     C51871  10.002   2.641   8.732  0.7851 -0.2998 -0.7471
  385MOL0     C51872  10.078   2.524   8.699  0.3749 -1.0677  0.0358
  385MOL0     C51873  10.154   2.526   8.577 -0.2764  0.2511  0.3804
  385MOL0     C51874  10.150   2.643   8.493  0.4910  1.0072 -0.2436
  385MOL0     O51875  10.203   2.644   8.371  0.2274 -0.0608  0.2566
  385MOL0     C51876  10.326   2.568   8.362 -0.0338 -0.3930  0.5104
  385MOL0     C51877  10.399   2.583   8.229 -0.4053 -0.7185  0.3566
  385MOL0     C51878  10.323   2.510   8.118  1.0228  0.1197  0.7728
  385MOL0     C51879  10.399   2.517   7.981 -0.0613 -0.2324  0.4999
  385MOL0     C51880  10.552   2.500   8.005 -0.3466 -0.0821 -0.0101
  385MOL0     C51881  10.631   2.483   7.872 -0.1751 -0.3557  0.0156
  385MOL0     C51882  10.771   2.514   7.864 -0.3811 -0.1643  0.1487
  385MOL0     C51883  10.813   2.504   7.718 -0.6312 -0.1556 -0.1171
  385MOL0    Cl51884  10.986   2.499   7.727 -0.1708 -0.0141  0.3945
  385MOL0     C51885  10.065   2.741   8.524  0.4499 -1.5170  0.1785
  385MOL0     C51886   9.987   2.747   8.640  0.3419  0.4380  0.2784
  385MOL0     O51887   9.734   2.730   8.788  0.2306  0.1517 -0.1628
  385MOL0     C51888   9.806   2.545   9.092 -0.1736  0.3593 -0.4910
  385MOL0     C51889   9.759   2.532   9.225 -0.0759  0.2133  0.2751
  385MOL0     N51890   9.223   2.404   9.794  0.4628 -0.0425 -0.4211
  385MOL0     N51891   9.159   2.372   9.910 -0.2455  0.7527 -0.4222
  385MOL0     C51892   8.300   2.365  10.748  0.1137  0.3024  0.0490
  385MOL0     C51893   8.235   2.336  10.866  0.2984 -0.1404  1.2802
  385MOL0     C51894   8.018   2.072  11.195 -0.0157  0.8447  0.0568
  385MOL0     C51895   8.057   1.965  11.278  0.0904 -0.5266  1.1860
  385MOL0     C51896   7.999   1.952  11.404  0.5578 -0.0040 -0.0544
  385MOL0     C51897   7.896   2.038  11.451 -0.3219 -0.1549 -0.5693
  385MOL0     O51898   7.846   2.025  11.584  0.2599  0.1278  0.5394
  385MOL0     C51899   7.740   2.107  11.627 -0.1516  1.0447 -0.9278
  385MOL0     C51900   7.606   2.056  11.589  1.2250  0.2212  1.1066
  385MOL0     C51901   7.549   1.960  11.692  0.3617 -0.0118 -0.1553
  385MOL0     C51902   7.616   1.820  11.700  0.4896  0.1396  0.1454
  385MOL0     C51903   7.545   1.728  11.781  0.1574  0.7808 -0.0500
  385MOL0     C51904   7.486   1.644  11.843  0.3765  0.4523  0.4664
  385MOL0     C51905   7.864   2.148  11.370 -0.4592  0.4481  0.1577
  385MOL0     C51906   7.924   2.166  11.246  0.0228  0.1441  0.7094
  385MOL0     C51907   7.872   2.291  11.173 -0.1102 -0.9172 -0.2006
  385MOL0     H51908   8.273   2.002  10.870 -1.0001  0.3150 -0.5937
  385MOL0     H51909   8.359   2.048  10.639  2.1948  1.6803 -2.2877
  385MOL0     H51910   8.410   2.181  10.381 -1.5587  0.3036 -1.2107
  385MOL0     H51911   8.241   2.190  10.433  0.2419  0.2646  1.9741
  385MOL0     H51912   8.263   2.445  10.348  0.5939  1.3862 -2.7440
  385MOL0     H51913   8.247   2.324  10.224  1.3209 -1.5718 -1.3467
  385MOL0     H51914   8.513   2.450  10.325 -0.9915  0.0130  0.5601
  385MOL0     H51915   8.427   2.474  10.181 -0.2971 -1.5552 -2.2433
  385MOL0     H51916   8.554   2.205  10.245 -0.9764  0.3269  1.6617
  385MOL0     H51917   8.449   2.253  10.106 -0.5968 -0.4869  0.5105
  385MOL0     H51918   8.619   2.408  10.021  0.2177  0.8871  0.1717
  385MOL0     H51919   8.695   2.411  10.185 -0.0231  0.1871  0.4489
  385MOL0     H51920   8.776   2.162  10.142  2.0001 -0.7645 -0.4276
  385MOL0     H51921   8.717   2.178   9.979 -0.2366 -0.2702 -0.2552
  385MOL0     H51922   8.933   2.366  10.103 -0.5332  2.4932 -1.5981
  385MOL0     H51923   8.864   2.388   9.948 -1.5567  0.9010  0.2481
  385MOL0     H51924   9.046   2.163  10.059 -0.9501 -1.3257 -0.4833
  385MOL0     H51925   8.927   2.126   9.931 -1.1377 -0.3140  1.5552
  385MOL0     H51926   9.048   2.135   9.719  1.5456 -0.6550 -0.3974
  385MOL0     H51927   9.358   2.278   9.597  0.2637  1.1274  1.2509
  385MOL0     H51928   9.230   2.190   9.533  2.5644 -2.5024  4.8825
  385MOL0     H51929   9.229   2.362   9.374 -2.6654 -3.2898  1.9344
  385MOL0     H51930   9.155   2.455   9.494 -0.0580 -1.1960 -0.6310
  385MOL0     H51931   9.397   2.516   9.582  2.0887  1.0543 -0.6460
  385MOL0     H51932   9.331   2.601   9.445 -1.6578  0.7725  4.2264
  385MOL0     H51933   9.444   2.416   9.297  1.3364 -2.0638 -0.1065
  385MOL0     H51934   9.546   2.381   9.433  1.4333  0.0019 -1.0090
  385MOL0     H51935   9.459   2.689   9.177  0.8639  0.7324  2.1461
  385MOL0     H51936   9.582   2.769   8.967  0.7684 -1.0448 -1.9361
  385MOL0     H51937  10.075   2.435   8.760  1.8703 -1.4594 -0.4076
  385MOL0     H51938  10.226   2.445   8.573  0.6858  1.1406 -1.0905
  385MOL0     H51939  10.394   2.580   8.447  1.4916 -1.1823 -0.5456
  385MOL0     H51940  10.298   2.462   8.356  0.1712 -0.5420  1.8377
  385MOL0     H51941  10.419   2.690   8.219 -0.6937 -0.6951  0.0280
  385MOL0     H51942  10.496   2.534   8.238  1.9226  2.5014 -3.6989
  385MOL0     H51943  10.300   2.409   8.152 -4.3843 -0.0067 -2.2146
  385MOL0     H51944  10.228   2.563   8.108  1.4177  0.8453  0.7362
  385MOL0     H51945  10.371   2.608   7.928  0.7997 -0.5836 -0.6000
  385MOL0     H51946  10.368   2.439   7.911 -0.7466  0.9527 -0.5546
  385MOL0     H51947  10.570   2.410   8.064  0.4981  0.8807  1.2504
  385MOL0     H51948  10.603   2.584   8.054 -0.6149  0.1983 -0.2038
  385MOL0     H51949  10.616   2.382   7.833  2.7033 -1.0565  0.4545
  385MOL0     H51950  10.571   2.555   7.817 -1.4424 -1.1609  0.3092
  385MOL0     H51951  10.823   2.448   7.933  0.0610  1.4692  1.4298
  385MOL0     H51952  10.788   2.617   7.897 -0.0264 -0.8903  2.3527
  385MOL0     H51953  10.780   2.406   7.681  1.9647 -2.4706  3.0202
  385MOL0     H51954  10.772   2.585   7.657 -1.6814 -0.0001  0.7682
  385MOL0     H51955  10.068   2.830   8.463  1.9033 -0.4709  1.6831
  385MOL0     H51956   9.937   2.835   8.679  1.6261  0.2733  2.4627
  385MOL0     H51957   9.897   2.497   9.059 -1.3903 -1.6840 -1.0545
  385MOL0     H51958   9.818   2.484   9.302  1.0188  3.4654  1.6247
  385MOL0     H51959   8.316   2.467  10.716  0.5871 -0.0587 -0.8911
  385MOL0     H51960   8.185   2.424  10.904 -0.6317 -1.3901  3.1741
  385MOL0     H51961   8.143   1.903  11.253 -0.1869  0.4901 -3.2587
  385MOL0     H51962   8.042   1.878  11.471  2.4109 -0.2106 -1.3877
  385MOL0     H51963   7.753   2.207  11.583  1.1588  1.2062 -0.2281
  385MOL0     H51964   7.746   2.113  11.736 -3.7154  1.7794 -0.6553
  385MOL0     H51965   7.614   2.021  11.485  2.5369 -0.0614  1.2902
  385MOL0     H51966   7.536   2.140  11.585 -0.3239 -1.0189  0.7653
  385MOL0     H51967   7.444   1.943  11.663  0.1537  1.2660 -0.2116
  385MOL0     H51968   7.550   2.004  11.792  2.0739  0.6877 -0.4480
  385MOL0     H51969   7.607   1.777  11.600  2.8361 -0.9807  0.3535
  385MOL0     H51970   7.719   1.825  11.737 -0.7614 -3.1023  5.0296
  385MOL0     H51971   7.426   1.572  11.895  0.1651 -0.8986 -1.5101
  385MOL0     H51972   7.784   2.214  11.401 -0.1855  0.9080 -0.1201
  385MOL0     H51973   7.951   2.363  11.194  0.4264 -1.6565  0.3354
  385MOL0     H51974   7.855   2.277  11.066 -0.5798  3.9868 -1.0108
  385MOL0     H51975   7.781   2.328  11.222  0.3659  0.4541 -0.2905
  386MOL0     O51976   6.962   3.271   3.905  0.3799  0.4898  0.6096
  386MOL0     C51977   6.893   3.167   3.876  0.2457  0.4039 -0.6529
  386MOL0     O51978   6.938   3.069   3.791 -0.7099 -0.3458 -0.3604
  386MOL0     C51979   7.066   3.080   3.731  0.6815  0.0854 -0.0915
  386MOL0     C51980   7.070   3.072   3.597 -0.9916 -0.4355  0.2455
  386MOL0     C51981   7.190   3.095   3.531 -0.4806 -0.0609 -0.0629
  386MOL0     C51982   7.312   3.101   3.601 -0.9052  0.0097 -0.0914
  386MOL0     O51983   7.443   3.078   3.548 -0.4570 -0.0704  0.2971
  386MOL0     C51984   7.464   3.120   3.410  0.7051 -0.6895  0.0604
  386MOL0     C51985   7.622   3.108   3.386  0.4505  0.4088 -0.5786
  386MOL0     C51986   7.661   3.138   3.240 -0.2762 -0.1441  0.4927
  386MOL0     C51987   7.668   3.287   3.219  0.6592 -0.1018 -0.6764
  386MOL0     C51988   7.756   3.319   3.108 -0.0859 -0.0067  0.6053
  386MOL0     C51989   7.704   3.258   2.968 -0.6780 -1.1887 -1.0093
  386MOL0     C51990   7.798   3.317   2.861 -0.3243  0.0459  0.4934
  386MOL0     C51991   7.754   3.281   2.716 -0.6520 -0.3834 -1.0760
  386MOL0     N51992   7.841   3.339   2.620  0.0744  0.0196 -0.1162
  386MOL0     C51993   7.918   3.265   2.534 -0.9137 -0.0518  0.2418
  386MOL0     C51994   7.995   3.350   2.463  0.3035 -0.8862  0.0710
  386MOL0     C51995   8.100   3.319   2.363  0.5788 -0.7306  0.3896
  386MOL0     C51996   8.241   3.322   2.424  0.6074  1.1617  1.5317
  386MOL0     C51997   8.344   3.279   2.326  0.8779  0.0214 -0.2469
  386MOL0     C51998   8.362   3.133   2.327 -0.5912  0.4541  0.6225
  386MOL0     O51999   8.488   3.094   2.254  0.9530  0.5987 -0.1064
  386MOL0     C52000   8.620   3.124   2.296 -0.0126  0.4791  0.8598
  386MOL0     C52001   8.647   3.182   2.420 -0.2632 -0.0731 -0.7947
  386MOL0     C52002   8.783   3.217   2.444  1.1189 -0.1634  0.3413
  386MOL0     C52003   8.891   3.184   2.359  1.0310 -0.6553 -0.3709
  386MOL0     C52004   9.032   3.199   2.400 -1.1937 -0.8666  0.6888
  386MOL0     O52005   9.052   3.296   2.493 -0.5158  0.2586  0.0844
  386MOL0     C52006   9.181   3.310   2.546  0.0320 -0.4654  0.6822
  386MOL0     C52007   9.226   3.436   2.584  0.9059 -0.1887 -0.1685
  386MOL0     C52008   9.340   3.454   2.664  0.5712  0.2001 -0.2967
  386MOL0     C52009   9.418   3.350   2.713  1.1468 -0.4820  0.3974
  386MOL0     O52010   9.514   3.386   2.799 -0.0705  0.4575 -0.4373
  386MOL0     C52011   9.647   3.333   2.761  0.2394  0.4651 -0.4110
  386MOL0     C52012   9.738   3.426   2.840 -0.1370  0.4821  0.5804
  386MOL0     C52013   9.872   3.364   2.836  0.4198 -0.1563 -0.2812
  386MOL0     C52014   9.953   3.398   2.966 -0.4875 -0.9838  0.8366
  386MOL0     C52015  10.047   3.525   2.964  0.7218 -0.6021  0.2409
  386MOL0     C52016  10.079   3.565   3.105  0.6912 -0.2008 -0.2008
  386MOL0     C52017  10.181   3.680   3.108 -0.2552  0.9662 -0.5511
  386MOL0     C52018  10.322   3.618   3.136 -0.1904 -0.2242  0.3488
  386MOL0    Cl52019  10.443   3.732   3.153  0.1143  0.0720 -0.5344
  386MOL0     C52020   9.375   3.216   2.678  0.5152 -0.6066 -0.5942
  386MOL0     C52021   9.260   3.203   2.593  0.6561  1.3813 -0.3101
  386MOL0     O52022   9.125   3.131   2.345  0.7326 -0.3293  0.1749
  386MOL0     C52023   8.863   3.114   2.244  0.3693 -0.2282  0.9062
  386MOL0     C52024   8.728   3.095   2.202  0.3651 -0.0304 -0.0628
  386MOL0     N52025   7.959   3.476   2.509  0.0675  0.0321 -0.2219
  386MOL0     N52026   7.868   3.465   2.600  0.0405 -0.5601 -0.2412
  386MOL0     C52027   7.305   3.106   3.739  0.2932  0.3870 -0.8016
  386MOL0     C52028   7.188   3.103   3.801  0.5378 -0.1276 -0.5519
  386MOL0     C52029   6.760   3.169   3.933 -0.2240 -1.2917 -0.7864
  386MOL0     C52030   6.680   3.069   3.874 -0.3202  0.0349 -0.8532
  386MOL0     C52031   6.546   3.050   3.905  0.3839 -0.4454  0.1361
  386MOL0     C52032   6.480   3.132   4.000 -0.0898 -0.5282 -0.5222
  386MOL0     O52033   6.343   3.115   4.024 -0.3443 -0.1364  0.0057
  386MOL0     C52034   6.287   3.175   4.137  0.8925 -0.3056 -0.2637
  386MOL0     C52035   6.163   3.109   4.192  0.1011 -0.6500  0.1362
  386MOL0     C52036   6.029   3.146   4.122 -1.1152 -0.0053 -0.5077
  386MOL0     C52037   5.919   3.056   4.175 -0.2222 -1.0066  0.3646
  386MOL0     C52038   5.884   3.075   4.311 -0.0237  0.2685  0.2164
  386MOL0     C52039   5.863   3.108   4.429 -0.3389  0.5327  0.8101
  386MOL0     C52040   6.565   3.221   4.072  0.0910  0.3677  0.2750
  386MOL0     C52041   6.697   3.249   4.038 -0.6301  0.1692  0.3489
  386MOL0     C52042   6.768   3.378   4.092 -0.6871  0.9607 -0.5420
  386MOL0     H52043   6.981   3.053   3.537  0.6564 -1.8631 -1.9118
  386MOL0     H52044   7.191   3.096   3.422 -0.1953  0.1660 -0.0597
  386MOL0     H52045   7.411   3.064   3.333  0.6525 -2.6415  1.4388
  386MOL0     H52046   7.432   3.223   3.394  0.4731 -1.0097 -1.6741
  386MOL0     H52047   7.641   3.002   3.402 -0.0926  0.1372 -1.6412
  386MOL0     H52048   7.682   3.171   3.453  0.5580 -1.2618  0.9545
  386MOL0     H52049   7.586   3.095   3.174 -2.1226 -0.2843  2.5805
  386MOL0     H52050   7.760   3.093   3.228 -1.1001 -1.9016  0.0463
  386MOL0     H52051   7.567   3.321   3.193  0.9335 -0.1357 -1.8080
  386MOL0     H52052   7.707   3.334   3.310 -1.8202  1.9247 -0.5532
  386MOL0     H52053   7.756   3.428   3.101  2.5102  0.0641  0.5722
  386MOL0     H52054   7.858   3.288   3.133  0.2389  0.2457 -0.3653
  386MOL0     H52055   7.719   3.150   2.981 -2.1794 -1.3946 -0.8235
  386MOL0     H52056   7.599   3.280   2.949 -0.5859  0.5029  0.2362
  386MOL0     H52057   7.901   3.280   2.869  0.2409  0.7442 -2.4225
  386MOL0     H52058   7.798   3.426   2.875 -1.4707 -0.1785  2.5759
  386MOL0     H52059   7.756   3.172   2.717 -1.8750 -0.4488  1.0631
  386MOL0     H52060   7.652   3.320   2.708 -1.2232 -1.7470 -0.6671
  386MOL0     H52061   7.930   3.157   2.536  0.6930  0.1038  0.8767
  386MOL0     H52062   8.098   3.218   2.319  0.6901 -0.0978 -1.1247
  386MOL0     H52063   8.088   3.395   2.286 -0.7691 -1.7299 -0.4431
  386MOL0     H52064   8.264   3.421   2.465 -2.6559  1.2821  3.3874
  386MOL0     H52065   8.233   3.252   2.507 -1.8711 -0.2766  0.1871
  386MOL0     H52066   8.434   3.328   2.364 -1.1016  1.3124  3.1774
  386MOL0     H52067   8.326   3.317   2.225 -0.3253  1.1385  0.3772
  386MOL0     H52068   8.290   3.080   2.265  1.7410 -1.4529 -0.6390
  386MOL0     H52069   8.365   3.100   2.431  1.4308  1.3448  0.8990
  386MOL0     H52070   8.579   3.218   2.496  3.9118  1.9077  2.3917
  386MOL0     H52071   8.806   3.256   2.543  1.2415 -0.9537  0.6285
  386MOL0     H52072   9.152   3.511   2.557 -2.3579 -1.7076  3.6188
  386MOL0     H52073   9.364   3.554   2.696  0.0892 -0.0256  0.8182
  386MOL0     H52074   9.658   3.228   2.788 -4.2887 -1.2343 -3.7794
  386MOL0     H52075   9.656   3.346   2.652  1.0736 -0.7349 -0.4997
  386MOL0     H52076   9.743   3.532   2.816  1.0630  0.6338  1.3563
  386MOL0     H52077   9.709   3.414   2.945 -0.8621 -2.3462  0.1530
  386MOL0     H52078   9.861   3.256   2.841 -0.1972 -0.0606  0.7985
  386MOL0     H52079   9.934   3.392   2.750  3.5266 -0.2080  1.7827
  386MOL0     H52080  10.023   3.317   2.986 -0.5396 -1.3544 -0.4099
  386MOL0     H52081   9.887   3.402   3.054  0.7128  3.5614  1.8050
  386MOL0     H52082   9.999   3.609   2.913 -0.2342 -1.3027 -0.0476
  386MOL0     H52083  10.140   3.501   2.911 -0.4259 -4.0923 -0.4970
  386MOL0     H52084   9.992   3.608   3.157  0.6945 -0.5454  0.0957
  386MOL0     H52085  10.121   3.481   3.161 -0.8483 -1.7547 -1.3007
  386MOL0     H52086  10.161   3.753   3.188  2.7317  1.7500 -0.4081
  386MOL0     H52087  10.179   3.737   3.015  0.6369  0.2479 -1.0234
  386MOL0     H52088  10.337   3.556   3.224  0.4520 -1.0914 -0.3476
  386MOL0     H52089  10.347   3.554   3.051 -1.5772  0.5103 -0.6477
  386MOL0     H52090   9.423   3.130   2.723 -0.1268 -0.5814  0.1376
  386MOL0     H52091   9.233   3.099   2.578 -0.2350  1.6842 -0.8590
  386MOL0     H52092   8.948   3.072   2.191  0.0206  2.0790 -1.7168
  386MOL0     H52093   8.700   3.056   2.105  0.6606 -0.1742 -0.0889
  386MOL0     H52094   7.395   3.111   3.798 -1.4153  1.4635  1.8982
  386MOL0     H52095   7.176   3.114   3.908 -0.4640 -1.9278 -0.4441
  386MOL0     H52096   6.712   2.997   3.800 -1.3262 -3.0387  1.4888
  386MOL0     H52097   6.487   2.972   3.857  0.7972 -1.8690  1.7823
  386MOL0     H52098   6.259   3.277   4.111  0.1629 -0.7251 -1.1648
  386MOL0     H52099   6.357   3.187   4.221 -0.4991  0.8339  0.7852
  386MOL0     H52100   6.159   3.137   4.297  4.2778  1.4316 -0.0062
  386MOL0     H52101   6.192   3.005   4.175 -0.4713 -0.6435 -1.0092
  386MOL0     H52102   6.058   3.128   4.018  3.8390  2.0857  0.2649
  386MOL0     H52103   6.001   3.251   4.131 -1.5831 -0.2843  2.3403
  386MOL0     H52104   5.831   3.073   4.112 -0.1925  3.7314  1.2699
  386MOL0     H52105   5.944   2.951   4.155 -2.5409 -0.9767 -3.7656
  386MOL0     H52106   5.832   3.127   4.530  0.5734 -1.3206  1.4891
  386MOL0     H52107   6.514   3.277   4.150 -0.4561  3.6661 -2.2488
  386MOL0     H52108   6.693   3.422   4.159 -2.5610 -2.0993 -0.4304
  386MOL0     H52109   6.850   3.339   4.153 -1.5929 -2.7598 -1.4277
  386MOL0     H52110   6.806   3.444   4.014  1.8120 -0.9272 -1.0489
  387MOL0     O52111   8.817   1.120   9.435  0.7113 -0.4185 -0.2717
  387MOL0     C52112   8.799   1.033   9.521  0.5128 -0.6409  0.1564
  387MOL0     O52113   8.683   1.029   9.596 -0.4556 -0.0001 -0.2288
  387MOL0     C52114   8.563   1.082   9.537  0.9610 -0.3778  0.2255
  387MOL0     C52115   8.515   1.060   9.405  0.1196  0.5797 -0.5556
  387MOL0     C52116   8.399   1.102   9.365  0.3863  0.0601 -0.0155
  387MOL0     C52117   8.312   1.174   9.451  0.7745  1.0577  0.1011
  387MOL0     O52118   8.193   1.223   9.400  0.0347 -0.1215 -0.2205
  387MOL0     C52119   8.188   1.369   9.406  1.0792 -0.3963  0.4518
  387MOL0     C52120   8.100   1.421   9.296  0.5234 -0.2044  0.7679
  387MOL0     C52121   8.158   1.409   9.150  0.3548 -0.2857 -0.4644
  387MOL0     C52122   8.058   1.333   9.059 -0.3745  0.4562 -0.2676
  387MOL0     C52123   7.970   1.431   8.976  0.0795 -0.2065  0.3997
  387MOL0     C52124   7.889   1.543   9.042  0.1171  0.3028 -0.0487
  387MOL0     C52125   7.766   1.495   9.124 -0.8451 -0.0375  0.3298
  387MOL0     C52126   7.714   1.615   9.206  0.7698  0.7123 -0.7406
  387MOL0     N52127   7.807   1.687   9.289  0.1456  0.3817  0.4915
  387MOL0     C52128   7.867   1.640   9.404  0.2721 -0.1473 -0.4089
  387MOL0     C52129   7.942   1.743   9.458 -0.1866 -0.4575  0.7230
  387MOL0     C52130   8.033   1.717   9.567 -0.4083  0.7229 -0.4922
  387MOL0     C52131   8.175   1.732   9.515 -0.1940 -0.9353 -0.3112
  387MOL0     C52132   8.271   1.706   9.635 -0.3561 -0.5685 -0.4171
  387MOL0     C52133   8.421   1.730   9.600 -0.2036  0.3159  0.9032
  387MOL0     O52134   8.461   1.627   9.504 -0.1562  0.3432  0.0174
  387MOL0     C52135   8.596   1.592   9.490  0.0450  0.1997  0.1626
  387MOL0     C52136   8.632   1.470   9.431  0.2265 -0.3041 -0.1085
  387MOL0     C52137   8.766   1.447   9.412 -0.2291  0.6947  0.8662
  387MOL0     C52138   8.873   1.531   9.454  0.0877 -0.0736 -0.7026
  387MOL0     C52139   9.016   1.510   9.432  0.1925 -0.1290 -0.4483
  387MOL0     O52140   9.110   1.577   9.505  0.8826 -0.1737  0.1218
  387MOL0     C52141   9.242   1.575   9.470 -0.1314 -0.6897  0.4910
  387MOL0     C52142   9.344   1.570   9.566 -0.1965  0.5332 -0.0942
  387MOL0     C52143   9.482   1.564   9.536 -0.3341 -0.7197  0.1111
  387MOL0     C52144   9.525   1.566   9.401 -0.1698  0.3463  0.0912
  387MOL0     O52145   9.650   1.562   9.349  0.1523 -0.2599  0.2745
  387MOL0     C52146   9.738   1.650   9.427  0.5878 -0.9195  0.3737
  387MOL0     C52147   9.884   1.641   9.377 -0.2723 -0.8081 -0.0452
  387MOL0     C52148   9.952   1.503   9.378 -0.1875  0.4852  0.5734
  387MOL0     C52149  10.086   1.499   9.291  0.4510 -0.1023 -0.9307
  387MOL0     C52150  10.204   1.550   9.377  0.6938 -0.8488  0.0616
  387MOL0     C52151  10.338   1.546   9.300  0.3724 -0.3525  0.2038
  387MOL0     C52152  10.334   1.560   9.144  0.0146  0.4468 -0.1759
  387MOL0     C52153  10.468   1.587   9.071  0.9416  0.0416  0.0766
  387MOL0    Cl52154  10.506   1.741   9.126  0.1746 -0.3003 -0.3695
  387MOL0     C52155   9.423   1.576   9.309 -0.9498 -0.1753 -0.5466
  387MOL0     C52156   9.286   1.582   9.343  0.2552 -0.2925  0.5960
  387MOL0     O52157   9.043   1.422   9.354 -0.8079  1.1350  0.2746
  387MOL0     C52158   8.829   1.651   9.511 -0.1603 -0.4347 -0.3226
  387MOL0     C52159   8.700   1.691   9.519  0.2494 -0.1698 -0.7135
  387MOL0     N52160   7.935   1.849   9.368  0.1049  0.5786 -0.4499
  387MOL0     N52161   7.852   1.816   9.274  0.1444 -0.0507  0.4279
  387MOL0     C52162   8.355   1.190   9.583  1.0045 -0.0478  0.6181
  387MOL0     C52163   8.480   1.152   9.623 -0.2479 -0.1574 -0.3867
  387MOL0     C52164   8.917   0.945   9.559  1.0163 -0.4154 -1.0050
  387MOL0     C52165   8.877   0.836   9.641  0.1436  0.2841 -0.1059
  387MOL0     C52166   8.973   0.765   9.709 -0.5565  0.0201  0.0341
  387MOL0     C52167   9.115   0.782   9.661  0.1727 -0.4939  0.1284
  387MOL0     O52168   9.226   0.701   9.699 -0.2119 -0.6252  0.5223
  387MOL0     C52169   9.196   0.593   9.794 -0.0195 -0.3555  0.3890
  387MOL0     C52170   9.328   0.557   9.857 -0.2825  0.0934  0.0076
  387MOL0     C52171   9.446   0.506   9.768 -0.4594  0.3281 -0.4701
  387MOL0     C52172   9.417   0.390   9.680  0.4877  0.4384 -0.2181
  387MOL0     C52173   9.411   0.269   9.757 -0.4964 -0.4862  0.3215
  387MOL0     C52174   9.420   0.154   9.795  0.0285 -0.2028 -0.3466
  387MOL0     C52175   9.148   0.883   9.572  0.9294  0.0874  0.1434
  387MOL0     C52176   9.049   0.968   9.518 -1.2004  0.7429 -0.5519
  387MOL0     C52177   9.101   1.075   9.423  0.5775 -0.9122  0.3780
  387MOL0     H52178   8.574   1.007   9.331  0.4209  2.1834 -1.5045
  387MOL0     H52179   8.365   1.090   9.263 -0.1153  0.0468  0.1511
  387MOL0     H52180   8.159   1.415   9.501 -0.9086 -1.5718  0.4678
  387MOL0     H52181   8.288   1.403   9.376  0.3676 -0.0683 -1.7835
  387MOL0     H52182   8.086   1.528   9.315 -1.5222 -0.9504  4.1606
  387MOL0     H52183   7.997   1.389   9.314  1.2125 -0.9886  3.8202
  387MOL0     H52184   8.245   1.345   9.169  0.9753  1.0696  1.5598
  387MOL0     H52185   8.198   1.500   9.106  3.8856 -2.0562 -1.3112
  387MOL0     H52186   8.127   1.275   8.996  0.0405  0.6427  0.0096
  387MOL0     H52187   7.995   1.272   9.123 -0.8939  1.8198  0.5436
  387MOL0     H52188   8.044   1.472   8.906  2.1575 -2.9032  0.8739
  387MOL0     H52189   7.901   1.371   8.916 -1.6526  2.2336 -0.1952
  387MOL0     H52190   7.957   1.613   9.093 -0.2252  3.4050 -3.4047
  387MOL0     H52191   7.851   1.614   8.967 -0.4319 -0.2086 -0.2596
  387MOL0     H52192   7.818   1.426   9.191  0.2903 -0.7398 -1.1984
  387MOL0     H52193   7.697   1.435   9.065 -0.3276  1.3017 -1.7508
  387MOL0     H52194   7.673   1.692   9.141  2.0056  2.2228  0.1929
  387MOL0     H52195   7.642   1.570   9.275  0.9320 -0.6061 -1.3838
  387MOL0     H52196   7.856   1.542   9.450  0.2402 -0.2338 -0.5963
  387MOL0     H52197   8.008   1.789   9.646 -1.0969 -0.2147  0.1741
  387MOL0     H52198   8.031   1.616   9.608 -0.1130  0.9396  0.0798
  387MOL0     H52199   8.207   1.667   9.434  1.0702  1.7938 -2.1569
  387MOL0     H52200   8.175   1.838   9.489  1.5907 -0.0973  2.6292
  387MOL0     H52201   8.258   1.601   9.660 -1.7838 -0.3791 -0.2702
  387MOL0     H52202   8.256   1.789   9.705  0.7661  1.3206 -2.2482
  387MOL0     H52203   8.459   1.735   9.703  0.1571  0.0796  0.7842
  387MOL0     H52204   8.455   1.827   9.563  0.7044  0.0529  1.0200
  387MOL0     H52205   8.553   1.400   9.407  0.1625 -1.9201  4.0057
  387MOL0     H52206   8.780   1.351   9.363  0.7606  1.3729 -0.2502
  387MOL0     H52207   9.308   1.551   9.666  1.0448  0.3936  0.3525
  387MOL0     H52208   9.543   1.558   9.626  0.2213 -2.6950 -0.3384
  387MOL0     H52209   9.695   1.749   9.406 -2.9328 -2.7009 -1.7127
  387MOL0     H52210   9.740   1.628   9.534 -1.6081  1.3314  1.0012
  387MOL0     H52211   9.905   1.680   9.277  1.1552 -2.5907 -0.5044
  387MOL0     H52212   9.947   1.697   9.447  0.6205  1.2056 -2.3013
  387MOL0     H52213   9.973   1.471   9.480  2.2659  1.5463  0.4718
  387MOL0     H52214   9.874   1.441   9.333  1.0649  0.8012 -2.2522
  387MOL0     H52215  10.069   1.552   9.197 -0.1624  1.5392  0.0734
  387MOL0     H52216  10.112   1.399   9.255 -0.2114 -0.3518 -0.7252
  387MOL0     H52217  10.208   1.495   9.472 -0.2134  0.2630  0.7729
  387MOL0     H52218  10.180   1.652   9.407 -0.2515 -1.3215  1.0271
  387MOL0     H52219  10.402   1.621   9.347 -3.2987  1.5519  2.6352
  387MOL0     H52220  10.388   1.450   9.311  1.8450  0.4255  0.5330
  387MOL0     H52221  10.264   1.638   9.114 -0.9996  0.6995  2.5807
  387MOL0     H52222  10.304   1.461   9.108 -2.4415  1.0706  0.0446
  387MOL0     H52223  10.528   1.501   9.100  3.6131  3.1478  5.2860
  387MOL0     H52224  10.445   1.594   8.964 -0.3708  0.8125  0.3832
  387MOL0     H52225   9.458   1.572   9.207  0.8320 -1.8395  0.0590
  387MOL0     H52226   9.206   1.578   9.269 -3.7388 -1.0076  4.5478
  387MOL0     H52227   8.901   1.720   9.554 -2.8533  3.3620 -1.4081
  387MOL0     H52228   8.671   1.784   9.566  0.0782 -0.8341  0.5303
  387MOL0     H52229   8.297   1.236   9.662 -0.0426 -2.3083  1.2716
  387MOL0     H52230   8.522   1.159   9.723  1.2437 -2.6289 -0.7298
  387MOL0     H52231   8.771   0.832   9.665  0.6013  2.2420  2.7219
  387MOL0     H52232   8.934   0.683   9.769 -1.1616 -0.0209 -0.4121
  387MOL0     H52233   9.154   0.506   9.743  1.7251 -2.0023  1.6129
  387MOL0     H52234   9.130   0.621   9.877  0.6426 -1.6227  1.3775
  387MOL0     H52235   9.308   0.467   9.917  0.8993 -0.0062  0.2761
  387MOL0     H52236   9.352   0.637   9.928 -0.0903 -0.9637  1.1638
  387MOL0     H52237   9.526   0.486   9.839  3.1143  4.2968 -2.9229
  387MOL0     H52238   9.487   0.587   9.707 -1.3416  0.2592 -1.1953
  387MOL0     H52239   9.325   0.403   9.622  0.2570  1.3745  0.3330
  387MOL0     H52240   9.499   0.382   9.608 -0.8328 -2.7991 -1.5209
  387MOL0     H52241   9.436   0.058   9.839 -0.3128  0.4149  1.2013
  387MOL0     H52242   9.253   0.910   9.569  0.6959  1.0471  0.3088
  387MOL0     H52243   9.210   1.078   9.430  0.6958  1.4901 -1.2952
  387MOL0     H52244   9.072   1.053   9.319  1.5957 -2.5989  0.4099
  387MOL0     H52245   9.063   1.175   9.446  0.1029 -0.6772 -1.2948
  388MOL0     O52246  10.682   1.722  11.382 -0.3028  0.4153  0.2170
  388MOL0     C52247  10.605   1.807  11.337  0.1898 -0.4665 -0.1831
  388MOL0     O52248  10.617   1.857  11.215 -0.7889 -0.1627 -0.4603
  388MOL0     C52249  10.730   1.813  11.142 -0.4365 -0.6163 -0.9049
  388MOL0     C52250  10.862   1.870  11.152  0.5619  0.6646 -0.3223
  388MOL0     C52251  10.979   1.809  11.085  0.3591  0.5759 -0.8948
  388MOL0     C52252  10.969   1.700  11.007  0.4826  0.5116 -0.1183
  388MOL0     O52253  11.081   1.661  10.945  0.2401  0.4614  0.5884
  388MOL0     C52254  11.062   1.566  10.841 -0.2636 -0.1232  0.3661
  388MOL0     C52255  11.197   1.520  10.782  0.1970 -0.5342  0.3448
  388MOL0     C52256  11.181   1.396  10.699  0.2258  0.3612  0.7388
  388MOL0     C52257  11.314   1.351  10.651  0.0259 -0.6212 -0.5089
  388MOL0     C52258  11.291   1.210  10.585 -0.0973  0.2533 -0.1480
  388MOL0     C52259  11.425   1.145  10.536 -0.1520 -0.1027 -0.0928
  388MOL0     C52260  11.401   1.007  10.476 -0.1159 -0.4805  0.4427
  388MOL0     C52261  11.529   0.936  10.451  0.0983  0.7614  0.4150
  388MOL0     N52262  11.506   0.811  10.375  1.1964  0.1531  0.5748
  388MOL0     C52263  11.436   0.805  10.255  0.2169 -1.0113  0.6161
  388MOL0     C52264  11.434   0.671  10.229 -0.2264 -1.1286  0.2301
  388MOL0     C52265  11.368   0.609  10.117  0.2860 -0.8459 -0.2124
  388MOL0     C52266  11.409   0.459  10.077 -0.0983  0.0293 -0.3670
  388MOL0     C52267  11.372   0.415   9.939 -0.2596  0.2645  0.2020
  388MOL0     C52268  11.426   0.271   9.920  0.3433 -0.0898  0.4251
  388MOL0     O52269  11.338   0.192   9.846 -0.2214  0.5968  0.2214
  388MOL0     C52270  11.358   0.056   9.849 -0.8965 -0.4092 -1.0060
  388MOL0     C52271  11.455  -0.016   9.772 -0.1290 -0.4696 -0.5451
  388MOL0     C52272  11.472  -0.158   9.791  0.1600 -0.1627 -0.1037
  388MOL0     C52273  11.400  -0.237   9.886 -0.2403  0.3614  0.3868
  388MOL0     C52274  11.413  -0.384   9.892  0.2955 -0.2790 -0.2870
  388MOL0     O52275  11.310  -0.449   9.952 -0.3768 -0.9089 -0.0816
  388MOL0     C52276  11.274  -0.579   9.925  0.2267  0.4713  0.2120
  388MOL0     C52277  11.267  -0.634   9.795 -0.0536 -0.5216 -0.0322
  388MOL0     C52278  11.217  -0.765   9.780 -0.2493 -0.9766  0.0716
  388MOL0     C52279  11.172  -0.839   9.894 -0.0453 -0.5126 -0.2128
  388MOL0     O52280  11.107  -0.957   9.862 -0.3408 -1.3848 -0.4124
  388MOL0     C52281  11.141  -1.065   9.947  0.0101 -0.3719  1.3340
  388MOL0     C52282  11.107  -1.196   9.882 -0.1955  1.0955  0.1514
  388MOL0     C52283  10.961  -1.232   9.861  0.4657  0.6062 -0.0886
  388MOL0     C52284  10.948  -1.353   9.775 -0.4900 -0.2582 -0.3309
  388MOL0     C52285  10.810  -1.416   9.779  0.1579 -0.2132 -0.4959
  388MOL0     C52286  10.801  -1.515   9.661 -0.7081  0.4769  0.4591
  388MOL0     C52287  10.894  -1.639   9.671 -0.0343 -0.0981 -0.3616
  388MOL0     C52288  10.874  -1.733   9.797  0.2687  0.1907  0.2255
  388MOL0    Cl52289  10.703  -1.796   9.810  0.1156 -0.3789  0.0183
  388MOL0     C52290  11.184  -0.786  10.029 -0.6245  0.3475  0.1632
  388MOL0     C52291  11.236  -0.654  10.039 -0.5609  0.0309 -0.2622
  388MOL0     O52292  11.493  -0.443   9.822  0.5043  0.2915 -0.0297
  388MOL0     C52293  11.304  -0.162   9.969  0.5642  1.2259  0.0343
  388MOL0     C52294  11.296  -0.021   9.953  1.2321 -0.4819  0.2635
  388MOL0     N52295  11.512   0.602  10.322  0.0223  0.2579 -0.4897
  388MOL0     N52296  11.565   0.690  10.403  0.0943  0.1179  0.0003
  388MOL0     C52297  10.835   1.655  10.989  0.4707  0.5817 -0.2326
  388MOL0     C52298  10.719   1.703  11.056  0.1845  0.0911 -0.8405
  388MOL0     C52299  10.503   1.877  11.419 -0.2526  0.0149 -0.3372
  388MOL0     C52300  10.373   1.903  11.362 -0.4803 -0.3179  0.3862
  388MOL0     C52301  10.265   1.955  11.435 -0.1481  0.0300  0.2414
  388MOL0     C52302  10.278   1.977  11.576  0.0789 -0.1117  0.5130
  388MOL0     O52303  10.176   2.019  11.662  0.4831  0.1372  0.7580
  388MOL0     C52304  10.054   2.061  11.613  0.0526 -0.4460  0.4795
  388MOL0     C52305   9.982   2.113  11.738 -0.4699  0.2250  0.5716
  388MOL0     C52306   9.908   2.004  11.825 -0.0106  1.3824 -0.3579
  388MOL0     C52307   9.841   2.059  11.959 -0.0168 -0.9444  0.2423
  388MOL0     C52308   9.710   2.121  11.924 -0.5781 -0.0409 -0.9251
  388MOL0     C52309   9.608   2.176  11.895 -0.2075  0.0386  0.7233
  388MOL0     C52310  10.404   1.937  11.631  0.4077 -0.5489 -0.4355
  388MOL0     C52311  10.520   1.896  11.561  0.4883 -0.1358 -0.7069
  388MOL0     C52312  10.653   1.870  11.636 -0.5627  0.2057 -0.3261
  388MOL0     H52313  10.875   1.950  11.223  1.7569 -0.4156  0.7275
  388MOL0     H52314  11.078   1.847  11.110  0.7744 -1.4337  0.7195
  388MOL0     H52315  11.014   1.480  10.888 -1.5067  0.3118 -0.0907
  388MOL0     H52316  10.991   1.604  10.768 -3.0731 -1.0684  2.4521
  388MOL0     H52317  11.256   1.489  10.869 -0.8063  2.1425  2.1282
  388MOL0     H52318  11.239   1.601  10.722 -1.5945  1.4293  1.5758
  388MOL0     H52319  11.127   1.428  10.610  1.2090 -0.5797 -0.2240
  388MOL0     H52320  11.130   1.312  10.747 -1.1551  2.4157  3.1236
  388MOL0     H52321  11.353   1.423  10.578  0.0111  0.5448  0.6055
  388MOL0     H52322  11.385   1.346  10.734  0.2665  0.7347 -0.6087
  388MOL0     H52323  11.234   1.141  10.647  1.1005  0.7026  1.5320
  388MOL0     H52324  11.216   1.230  10.508 -0.3742 -1.8723 -0.4786
  388MOL0     H52325  11.485   1.213  10.475 -2.0628  1.7994  0.0471
  388MOL0     H52326  11.473   1.118  10.631 -0.8200  1.6503  0.7855
  388MOL0     H52327  11.336   1.016  10.388  0.9034 -0.1170 -0.2948
  388MOL0     H52328  11.359   0.943  10.554  1.4042  2.0212  3.5452
  388MOL0     H52329  11.599   0.995  10.390  0.1892  1.6572  1.3629
  388MOL0     H52330  11.588   0.911  10.540  0.0128 -0.8864  0.0379
  388MOL0     H52331  11.379   0.878  10.199  0.0603 -0.7413  1.1212
  388MOL0     H52332  11.261   0.613  10.140  0.3793 -0.0883  0.0924
  388MOL0     H52333  11.381   0.672  10.029 -0.9575 -0.2821 -0.0190
  388MOL0     H52334  11.516   0.454  10.098 -0.2300 -0.7123  0.1411
  388MOL0     H52335  11.359   0.397  10.152 -0.4616  0.5825 -0.1381
  388MOL0     H52336  11.415   0.483   9.865 -1.4490  1.9224  0.9687
  388MOL0     H52337  11.266   0.395   9.922 -0.2531 -2.7344  2.6509
  388MOL0     H52338  11.444   0.225  10.018 -0.3689 -1.1862  0.0495
  388MOL0     H52339  11.523   0.278   9.869  2.1561 -0.2325  3.5818
  388MOL0     H52340  11.508   0.036   9.692  0.7430  1.2627  1.0874
  388MOL0     H52341  11.544  -0.211   9.729  3.9971  1.7391  2.3135
  388MOL0     H52342  11.293  -0.586   9.701  0.0693  1.2097  0.8434
  388MOL0     H52343  11.206  -0.797   9.677  0.2955  2.0548 -1.0388
  388MOL0     H52344  11.244  -1.077   9.982  0.4936 -0.8283 -0.1482
  388MOL0     H52345  11.082  -1.057  10.038 -2.7478  1.3339 -0.4742
  388MOL0     H52346  11.158  -1.194   9.785 -0.3644  1.3453  0.0645
  388MOL0     H52347  11.148  -1.285   9.931 -3.3485 -1.3905 -1.3119
  388MOL0     H52348  10.915  -1.248   9.959 -2.1942 -2.6159 -1.6586
  388MOL0     H52349  10.896  -1.156   9.816  0.1310 -0.7820 -2.0826
  388MOL0     H52350  11.028  -1.426   9.787 -2.1955 -1.8098  3.0243
  388MOL0     H52351  10.960  -1.312   9.674  1.2204  0.1885  0.0104
  388MOL0     H52352  10.733  -1.339   9.776 -2.9304 -3.0939 -0.6686
  388MOL0     H52353  10.806  -1.464   9.878  1.3207  0.8248  0.0923
  388MOL0     H52354  10.700  -1.556   9.651  0.4867 -2.0528 -3.6901
  388MOL0     H52355  10.839  -1.458   9.576  0.4403  0.8559  1.2099
  388MOL0     H52356  10.997  -1.604   9.666 -0.0012  0.0127  0.9701
  388MOL0     H52357  10.876  -1.691   9.576 -1.1653  0.6564 -0.5897
  388MOL0     H52358  10.947  -1.813   9.783  0.3696 -0.1727  2.4572
  388MOL0     H52359  10.901  -1.672   9.884  2.4955  1.1795 -1.0716
  388MOL0     H52360  11.152  -0.838  10.118  0.3671 -2.7222 -1.1123
  388MOL0     H52361  11.257  -0.605  10.134 -2.6977 -0.7692  0.6772
  388MOL0     H52362  11.267  -0.201  10.063  0.8877 -0.7970 -0.6244
  388MOL0     H52363  11.234   0.033  10.023  1.0492  0.9121 -0.9310
  388MOL0     H52364  10.802   1.583  10.916 -3.8747  1.2785  0.7730
  388MOL0     H52365  10.625   1.654  11.034  0.1011  0.2451 -0.8318
  388MOL0     H52366  10.349   1.898  11.256  2.0134 -2.1519 -0.1820
  388MOL0     H52367  10.167   1.979  11.395 -0.9647 -0.1782  2.0272
  388MOL0     H52368  10.004   1.977  11.565  1.3828 -0.4263 -1.0362
  388MOL0     H52369  10.059   2.146  11.544  1.2596  0.6745  1.8796
  388MOL0     H52370   9.902   2.184  11.714 -0.1993  0.7351  1.1281
  388MOL0     H52371  10.051   2.174  11.797 -0.2208 -1.5787  2.2521
  388MOL0     H52372   9.980   1.931  11.863 -1.5595 -0.0723 -0.0419
  388MOL0     H52373   9.843   1.934  11.771  2.8595 -1.7303 -0.1312
  388MOL0     H52374   9.835   1.971  12.024  1.4285 -1.8346 -0.7449
  388MOL0     H52375   9.900   2.143  11.998  0.3661 -2.1551  2.4285
  388MOL0     H52376   9.519   2.220  11.853 -3.0947 -3.6002  2.4256
  388MOL0     H52377  10.406   1.934  11.739 -2.3473 -1.0562 -0.3151
  388MOL0     H52378  10.665   1.763  11.656 -0.4043  0.3438  0.3221
  388MOL0     H52379  10.735   1.894  11.568 -0.1285  0.9485  0.4400
  388MOL0     H52380  10.653   1.924  11.731  1.1924 -0.1375 -0.0961
  389MOL0     O52381   5.518   1.239   0.072 -0.5514  0.3881 -0.3995
  389MOL0     C52382   5.524   1.178   0.178  0.8684  0.2104  0.1811
  389MOL0     O52383   5.612   1.199   0.276  0.6754  0.4517 -0.6169
  389MOL0     C52384   5.732   1.263   0.241  0.5851  0.5512 -0.9930
  389MOL0     C52385   5.785   1.340   0.351 -0.1637  0.5112 -0.2949
  389MOL0     C52386   5.895   1.423   0.328  0.4480  0.5413 -0.0771
  389MOL0     C52387   5.946   1.440   0.195  0.5151 -0.3903 -0.6902
  389MOL0     O52388   6.049   1.531   0.172  0.3874  0.3902  0.4733
  389MOL0     C52389   6.124   1.578   0.287 -0.3948  0.4853 -0.1360
  389MOL0     C52390   6.259   1.635   0.253  0.2355  1.0280  0.0967
  389MOL0     C52391   6.266   1.748   0.160  0.4875  0.0688 -0.4164
  389MOL0     C52392   6.411   1.779   0.123 -0.0531  0.7333  0.5807
  389MOL0     C52393   6.448   1.868   0.008 -0.2904 -0.4125 -0.4059
  389MOL0     C52394   6.608   1.889   0.010 -0.0451 -0.0987  0.3217
  389MOL0     C52395   6.663   1.960  -0.115  0.0356 -0.2722  0.5178
  389MOL0     C52396   6.816   1.969  -0.083  0.2258 -0.5888 -0.4224
  389MOL0     N52397   6.880   2.047  -0.190 -1.2611  0.3574  0.9185
  389MOL0     C52398   6.880   2.177  -0.197 -0.3306 -0.8577  0.6352
  389MOL0     C52399   6.894   2.210  -0.327 -0.2109 -0.3228  0.2771
  389MOL0     C52400   6.899   2.354  -0.373 -1.0683  0.2897 -0.1855
  389MOL0     C52401   7.041   2.410  -0.399  0.7098  0.6868  0.1799
  389MOL0     C52402   7.023   2.546  -0.473  0.0696  0.2044 -0.7656
  389MOL0     C52403   7.159   2.585  -0.544  0.3585 -0.3927 -0.5110
  389MOL0     O52404   7.260   2.603  -0.443  0.2767  0.0214 -0.3717
  389MOL0     C52405   7.355   2.698  -0.477 -0.2697  0.5510 -0.4161
  389MOL0     C52406   7.439   2.678  -0.588 -0.1518  0.1103  0.2385
  389MOL0     C52407   7.544   2.768  -0.611 -0.4384  0.6206 -0.8812
  389MOL0     C52408   7.554   2.880  -0.530 -0.2452 -0.9888 -0.1763
  389MOL0     C52409   7.662   2.978  -0.568  0.0038  1.3269  0.3768
  389MOL0     O52410   7.704   2.986  -0.699 -0.1345  0.2651  0.4465
  389MOL0     C52411   7.798   3.072  -0.738  0.5369  0.2893  0.3017
  389MOL0     C52412   7.926   3.021  -0.738 -0.9246  0.3284  0.1872
  389MOL0     C52413   8.034   3.095  -0.792  0.4297 -0.2070  0.4356
  389MOL0     C52414   8.002   3.230  -0.828  0.7236  0.4510  0.0094
  389MOL0     O52415   8.092   3.317  -0.883 -0.8009  0.5603 -0.0066
  389MOL0     C52416   8.209   3.263  -0.952  0.3524 -0.2255 -0.1130
  389MOL0     C52417   8.167   3.217  -1.092  0.3030  1.3325  1.2012
  389MOL0     C52418   8.148   3.334  -1.186 -0.0498  0.0690 -0.2311
  389MOL0     C52419   8.076   3.294  -1.314 -0.6483  0.4010 -0.4572
  389MOL0     C52420   8.063   3.409  -1.412  0.6080  0.5059  0.1131
  389MOL0     C52421   7.979   3.526  -1.376  0.2867 -0.0809  0.3394
  389MOL0     C52422   7.831   3.502  -1.351  0.0738  0.8330  0.1373
  389MOL0     C52423   7.773   3.565  -1.227 -0.2762  0.4232 -0.6286
  389MOL0    Cl52424   7.810   3.728  -1.197  0.4166  0.1394  0.0950
  389MOL0     C52425   7.870   3.283  -0.808  0.1982  0.1934 -0.6292
  389MOL0     C52426   7.770   3.203  -0.766 -0.3705 -0.6187  1.3423
  389MOL0     O52427   7.700   3.048  -0.485  0.0273 -0.5417 -1.0503
  389MOL0     C52428   7.478   2.900  -0.415  0.8394  0.7730  0.9241
  389MOL0     C52429   7.371   2.807  -0.395 -0.3848 -0.9822 -0.7402
  389MOL0     N52430   6.913   2.101  -0.403 -0.2253  0.0903  0.2604
  389MOL0     N52431   6.900   2.006  -0.319 -0.2421  0.2517 -0.3755
  389MOL0     C52432   5.891   1.367   0.095 -0.3830  0.8517 -0.0229
  389MOL0     C52433   5.793   1.268   0.114  0.4121 -0.1734 -1.0049
  389MOL0     C52434   5.409   1.081   0.195  0.2276 -0.4620  0.7207
  389MOL0     C52435   5.448   0.946   0.238 -0.4222 -1.1551 -0.3884
  389MOL0     C52436   5.353   0.846   0.249  0.2932 -0.2207  0.9011
  389MOL0     C52437   5.219   0.872   0.234  0.2205  0.1086 -0.2711
  389MOL0     O52438   5.135   0.766   0.257  0.0180  0.8784 -0.1438
  389MOL0     C52439   4.995   0.799   0.259  0.6632  0.4550  0.4472
  389MOL0     C52440   4.935   0.682   0.336 -0.3406  0.6711  0.0259
  389MOL0     C52441   4.794   0.704   0.387 -0.3436 -0.5729 -0.4717
  389MOL0     C52442   4.695   0.719   0.275  0.2609  1.4949  0.5327
  389MOL0     C52443   4.570   0.762   0.346 -0.5712  0.5942 -0.3755
  389MOL0     C52444   4.479   0.814   0.412  0.1989 -0.1752 -0.2395
  389MOL0     C52445   5.176   1.006   0.206  0.5369  1.0165  0.8871
  389MOL0     C52446   5.274   1.108   0.174  0.8605  0.1926  0.4190
  389MOL0     C52447   5.226   1.234   0.124  0.0116  0.3143 -0.3889
  389MOL0     H52448   5.738   1.326   0.448  0.9128  1.4438  0.3818
  389MOL0     H52449   5.940   1.484   0.406  2.0389  1.1489 -1.4082
  389MOL0     H52450   6.065   1.659   0.329 -1.0226  0.8451 -1.6373
  389MOL0     H52451   6.151   1.498   0.357  1.0993  1.4527  0.4505
  389MOL0     H52452   6.321   1.552   0.218 -1.0384 -0.7871  1.8809
  389MOL0     H52453   6.299   1.663   0.351  0.6613 -2.9618  1.2374
  389MOL0     H52454   6.220   1.834   0.210  2.4298  0.8745  0.0788
  389MOL0     H52455   6.215   1.729   0.065  4.5131  0.0541 -2.7746
  389MOL0     H52456   6.457   1.812   0.217 -2.6843  1.8070  1.5793
  389MOL0     H52457   6.451   1.679   0.106 -0.9763 -0.2236  3.3556
  389MOL0     H52458   6.411   1.828  -0.086 -2.1998 -0.3726  0.2934
  389MOL0     H52459   6.397   1.960   0.035  2.5045  0.8161  1.0682
  389MOL0     H52460   6.632   1.948   0.098  2.6089  1.2176 -1.1606
  389MOL0     H52461   6.662   1.795   0.021  1.9486  0.4221 -3.3303
  389MOL0     H52462   6.625   2.062  -0.126  1.3876  0.1227 -0.7251
  389MOL0     H52463   6.635   1.907  -0.206 -1.0506  0.3107  0.4954
  389MOL0     H52464   6.838   2.016   0.013  1.6145 -2.3740  0.2006
  389MOL0     H52465   6.853   1.866  -0.079 -0.4146 -0.8555 -1.1123
  389MOL0     H52466   6.860   2.252  -0.121  0.5889  0.2814 -0.2087
  389MOL0     H52467   6.850   2.358  -0.471 -1.9316 -0.2566  0.2160
  389MOL0     H52468   6.837   2.413  -0.304 -2.9238 -1.0330 -0.6494
  389MOL0     H52469   7.091   2.429  -0.303 -0.0056  0.9360  0.5100
  389MOL0     H52470   7.094   2.349  -0.473 -1.3517  1.6779 -2.2720
  389MOL0     H52471   7.011   2.633  -0.408  0.8593 -1.0750  1.1609
  389MOL0     H52472   6.943   2.537  -0.547  0.4385 -2.2433 -0.9725
  389MOL0     H52473   7.152   2.670  -0.613  0.7898 -0.2816 -0.4218
  389MOL0     H52474   7.187   2.495  -0.600  0.1567  0.5415 -2.1809
  389MOL0     H52475   7.424   2.584  -0.640  0.1988  0.2186 -0.0648
  389MOL0     H52476   7.602   2.748  -0.700 -3.0560 -2.2735 -2.1125
  389MOL0     H52477   7.937   2.916  -0.713 -0.6207 -0.7661 -3.8985
  389MOL0     H52478   8.133   3.056  -0.814  0.0525 -0.4475 -0.9243
  389MOL0     H52479   8.286   3.340  -0.953 -2.7321  3.2284  1.8669
  389MOL0     H52480   8.254   3.181  -0.896 -1.0666  0.3202  1.9666
  389MOL0     H52481   8.232   3.142  -1.137  1.9722  3.0274  0.6683
  389MOL0     H52482   8.070   3.170  -1.073  1.9019 -1.7795  2.3871
  389MOL0     H52483   8.082   3.398  -1.127 -0.6216 -1.3781  0.7616
  389MOL0     H52484   8.243   3.386  -1.201 -0.6786  1.4309  0.3699
  389MOL0     H52485   7.975   3.255  -1.300  0.7327 -3.2313  0.7234
  389MOL0     H52486   8.126   3.215  -1.370  0.2354  0.2434  0.5274
  389MOL0     H52487   8.042   3.381  -1.515 -0.0735  2.0872 -0.2191
  389MOL0     H52488   8.166   3.446  -1.416  0.7974  0.5811  3.0168
  389MOL0     H52489   8.020   3.574  -1.286 -1.5872  1.9861  0.1730
  389MOL0     H52490   7.983   3.607  -1.449 -0.2304  2.8719  3.3161
  389MOL0     H52491   7.802   3.396  -1.347  0.1532  0.8451  1.2884
  389MOL0     H52492   7.783   3.543  -1.441 -3.2833  0.7255  1.7208
  389MOL0     H52493   7.665   3.553  -1.237 -0.3137  0.5528 -0.3980
  389MOL0     H52494   7.802   3.506  -1.139  0.0975 -0.2546 -1.1985
  389MOL0     H52495   7.842   3.386  -0.828  1.3910  0.2300 -2.3369
  389MOL0     H52496   7.671   3.247  -0.754 -0.2239 -0.3574  1.6058
  389MOL0     H52497   7.487   2.984  -0.346  1.7053  0.0323  1.7436
  389MOL0     H52498   7.317   2.834  -0.305 -0.5410  0.7177 -1.2985
  389MOL0     H52499   5.919   1.376  -0.010 -4.2763  2.3090 -1.1205
  389MOL0     H52500   5.750   1.204   0.038  1.4460 -1.4479 -0.5486
  389MOL0     H52501   5.551   0.921   0.259 -1.1342 -1.9096  2.6649
  389MOL0     H52502   5.385   0.745   0.276 -1.7902 -1.4151 -0.7797
  389MOL0     H52503   4.966   0.806   0.154  2.0265  2.2777  0.1454
  389MOL0     H52504   4.969   0.886   0.320  1.1732 -0.8113  2.6092
  389MOL0     H52505   4.991   0.651   0.426 -0.7832 -2.9124 -0.7794
  389MOL0     H52506   4.927   0.596   0.269  2.4825 -0.0075  0.4263
  389MOL0     H52507   4.800   0.795   0.447  1.5748  1.8794 -3.9927
  389MOL0     H52508   4.767   0.619   0.449 -9.0059  0.6529 -1.4225
  389MOL0     H52509   4.719   0.803   0.210 -2.7377  2.9176  1.1064
  389MOL0     H52510   4.670   0.626   0.223 -1.6795  2.1014  0.3091
  389MOL0     H52511   4.393   0.858   0.457  1.0749  0.0628  1.2966
  389MOL0     H52512   5.070   1.030   0.209 -0.8185 -3.8815  0.8190
  389MOL0     H52513   5.293   1.313   0.160  1.3564 -1.3395  0.9174
  389MOL0     H52514   5.218   1.230   0.015  0.3239 -5.0730 -0.4898
  389MOL0     H52515   5.128   1.247   0.170 -0.4260  1.4183 -1.5761
  390MOL0     O52516  11.313   4.251   8.560  0.4289  0.9266  0.0587
  390MOL0     C52517  11.371   4.334   8.492  0.2955  0.8046  0.4854
  390MOL0     O52518  11.310   4.398   8.384 -0.4553  0.3164 -0.5687
  390MOL0     C52519  11.184   4.378   8.355  0.8085  0.5584  0.0280
  390MOL0     C52520  11.144   4.260   8.285  0.1750 -0.4959  0.2926
  390MOL0     C52521  11.005   4.234   8.258 -0.4080 -0.3021 -0.6134
  390MOL0     C52522  10.907   4.322   8.306 -0.4270  0.0029 -0.1729
  390MOL0     O52523  10.768   4.299   8.304 -0.3868  0.1614  0.3546
  390MOL0     C52524  10.665   4.400   8.327  0.2328  0.3309  0.3765
  390MOL0     C52525  10.535   4.323   8.357  0.2587  0.1357  0.1453
  390MOL0     C52526  10.504   4.221   8.244  0.2199  0.3836  1.1083
  390MOL0     C52527  10.377   4.148   8.282  0.4393 -0.0721 -0.1199
  390MOL0     C52528  10.320   4.082   8.159 -0.6969  0.1688  0.1611
  390MOL0     C52529  10.395   3.980   8.096 -0.0574  0.0947  0.0172
  390MOL0     C52530  10.319   3.906   7.991 -0.5295 -0.4216  0.9410
  390MOL0     C52531  10.398   3.791   7.934  0.3809  0.2803 -0.2954
  390MOL0     N52532  10.533   3.822   7.883  0.9704 -0.4335  0.1375
  390MOL0     C52533  10.647   3.816   7.950 -0.3411 -0.3370 -0.3959
  390MOL0     C52534  10.749   3.833   7.863  0.1175 -0.1014 -0.3409
  390MOL0     C52535  10.897   3.842   7.903  0.8338  0.3410  0.4709
  390MOL0     C52536  10.933   3.952   7.996  0.7536 -0.0145 -0.1109
  390MOL0     C52537  10.893   4.088   7.929 -0.1847  1.1159 -0.6617
  390MOL0     C52538  10.992   4.123   7.818  0.1235 -0.6035 -0.8184
  390MOL0     O52539  11.126   4.128   7.859 -0.0254 -0.3960 -0.2676
  390MOL0     C52540  11.229   4.140   7.757 -0.9398 -0.0592  0.7295
  390MOL0     C52541  11.227   4.152   7.613 -0.0012 -0.3515  0.9103
  390MOL0     C52542  11.346   4.151   7.532  0.3464  1.2840  0.6817
  390MOL0     C52543  11.469   4.134   7.589 -0.8054 -0.0675  0.1538
  390MOL0     C52544  11.594   4.148   7.510 -1.0503  0.0671 -0.5556
  390MOL0     O52545  11.716   4.112   7.575  0.4135  0.0913  0.8325
  390MOL0     C52546  11.837   4.087   7.509 -0.1020  1.5472 -0.6127
  390MOL0     C52547  11.885   4.148   7.395  0.4637 -0.5745  0.0269
  390MOL0     C52548  11.998   4.113   7.326 -0.8684 -0.2073 -0.7372
  390MOL0     C52549  12.082   4.012   7.372 -0.1470  0.5549 -0.0554
  390MOL0     O52550  12.210   3.991   7.314  0.2550 -0.7706 -0.4129
  390MOL0     C52551  12.275   3.870   7.335 -0.4179  0.3658 -0.1074
  390MOL0     C52552  12.399   3.884   7.431  0.4796  0.0140 -0.2652
  390MOL0     C52553  12.513   3.956   7.364 -0.5250  0.0288 -0.5086
  390MOL0     C52554  12.630   3.973   7.466  0.7334  0.0180  0.8269
  390MOL0     C52555  12.742   3.886   7.424 -0.6033 -0.4820  0.5041
  390MOL0     C52556  12.828   3.955   7.308  0.1346  0.6727 -1.1061
  390MOL0     C52557  12.875   4.102   7.334 -1.2597 -0.1909 -0.4229
  390MOL0     C52558  12.928   4.132   7.472  0.3317 -0.2947 -0.2674
  390MOL0    Cl52559  13.100   4.086   7.497  0.2673  0.6299 -0.3756
  390MOL0     C52560  12.035   3.939   7.492 -0.1621  0.3175 -1.7905
  390MOL0     C52561  11.912   3.972   7.558  0.7652  0.5729  0.5299
  390MOL0     O52562  11.590   4.193   7.398 -0.4695  0.9478 -0.3573
  390MOL0     C52563  11.470   4.119   7.731 -0.8795  0.0329  0.7941
  390MOL0     C52564  11.359   4.125   7.813  0.4578  0.5281 -0.4279
  390MOL0     N52565  10.697   3.848   7.739 -0.7230 -0.1656  0.2704
  390MOL0     N52566  10.565   3.848   7.751  0.1939  0.0870  0.3205
  390MOL0     C52567  10.951   4.435   8.372 -0.4561 -0.1481  0.1926
  390MOL0     C52568  11.083   4.463   8.394 -0.4168  0.7865 -0.1119
  390MOL0     C52569  11.512   4.364   8.517 -1.4232 -0.9139  0.1189
  390MOL0     C52570  11.563   4.487   8.472 -0.0204 -0.3018 -0.2623
  390MOL0     C52571  11.688   4.537   8.500 -0.5292 -0.1688 -0.9792
  390MOL0     C52572  11.768   4.471   8.587 -0.3062  0.3208  0.7670
  390MOL0     O52573  11.896   4.497   8.637  0.3883  0.6936  0.5288
  390MOL0     C52574  11.973   4.599   8.576  0.0027  0.0290 -0.4880
  390MOL0     C52575  12.129   4.574   8.606  0.4845 -1.1794 -0.3822
  390MOL0     C52576  12.161   4.585   8.751 -0.0194  0.0289  0.0901
  390MOL0     C52577  12.308   4.542   8.775  0.3765 -0.4152 -0.8038
  390MOL0     C52578  12.404   4.635   8.715  0.2594 -0.2415  0.0982
  390MOL0     C52579  12.495   4.710   8.678 -0.0415 -0.1779  0.6506
  390MOL0     C52580  11.730   4.342   8.626  0.0032 -0.7257  0.3078
  390MOL0     C52581  11.606   4.284   8.594 -0.2152 -0.2097 -0.2857
  390MOL0     C52582  11.585   4.134   8.643 -0.0659 -0.2324 -1.2311
  390MOL0     H52583  11.213   4.179   8.263 -1.2370 -2.0250  1.2481
  390MOL0     H52584  10.991   4.140   8.207 -0.1919 -1.6837  1.7226
  390MOL0     H52585  10.684   4.456   8.419 -2.1304  2.4706 -0.3349
  390MOL0     H52586  10.648   4.459   8.237 -1.4014 -0.4029  0.1575
  390MOL0     H52587  10.461   4.400   8.380  1.8749  1.2094  2.0481
  390MOL0     H52588  10.547   4.270   8.452  1.5259  1.7475  0.9258
  390MOL0     H52589  10.585   4.150   8.230 -0.8741 -0.5794 -0.7599
  390MOL0     H52590  10.495   4.285   8.156  0.1492 -0.4194  0.5171
  390MOL0     H52591  10.393   4.073   8.360 -0.0770  0.0455  0.1035
  390MOL0     H52592  10.309   4.225   8.320  0.5191  0.6274 -1.3292
  390MOL0     H52593  10.222   4.043   8.189 -1.4729 -0.4047 -2.7862
  390MOL0     H52594  10.316   4.150   8.073  0.3658  0.7261  0.5332
  390MOL0     H52595  10.486   4.017   8.049  0.5609  0.2875  1.3218
  390MOL0     H52596  10.419   3.903   8.170 -2.7159 -0.6130  0.2592
  390MOL0     H52597  10.298   3.962   7.899 -1.1001 -1.3586  0.4860
  390MOL0     H52598  10.219   3.870   8.018 -1.0134  0.0028 -0.2201
  390MOL0     H52599  10.406   3.719   8.016  2.2647  0.8176  0.0268
  390MOL0     H52600  10.342   3.746   7.851 -0.9677  3.5394 -1.3158
  390MOL0     H52601  10.661   3.803   8.057  0.8216 -1.7120 -0.6915
  390MOL0     H52602  10.922   3.747   7.951 -2.9127  0.6392  3.4963
  390MOL0     H52603  10.962   3.864   7.817  2.1234  2.0940  1.8273
  390MOL0     H52604  10.870   3.935   8.084 -1.1825  0.7510 -1.2925
  390MOL0     H52605  11.038   3.950   8.029  0.5550 -0.0895  0.5381
  390MOL0     H52606  10.883   4.170   8.002 -1.0056  0.5736 -0.1578
  390MOL0     H52607  10.795   4.089   7.881 -1.0663  3.1361  0.9750
  390MOL0     H52608  10.970   4.222   7.777  1.8087  0.4030  0.6044
  390MOL0     H52609  10.985   4.052   7.735  2.3179  0.3301 -1.8806
  390MOL0     H52610  11.141   4.162   7.547 -1.4995  0.8976  2.9324
  390MOL0     H52611  11.341   4.148   7.424 -0.1077  3.5149  0.5946
  390MOL0     H52612  11.836   4.237   7.357  0.5711 -0.3562  0.3926
  390MOL0     H52613  12.043   4.156   7.237  0.9078  3.5129  1.7003
  390MOL0     H52614  12.206   3.799   7.380 -1.0408  0.6053 -0.6765
  390MOL0     H52615  12.313   3.829   7.242 -1.1595  0.2106 -0.3457
  390MOL0     H52616  12.376   3.929   7.529  0.4888 -1.3323  0.3796
  390MOL0     H52617  12.427   3.785   7.469 -2.6297 -0.3439  1.4138
  390MOL0     H52618  12.547   3.904   7.274  1.0389  1.0030 -0.5223
  390MOL0     H52619  12.490   4.059   7.336  2.4786  0.7255 -0.6902
  390MOL0     H52620  12.592   3.944   7.564  0.0953 -1.6812  0.1164
  390MOL0     H52621  12.662   4.077   7.465  1.2140 -0.0841 -1.9964
  390MOL0     H52622  12.706   3.787   7.396  1.6663 -1.0090 -0.7667
  390MOL0     H52623  12.803   3.860   7.511 -0.8595 -0.0838  0.8066
  390MOL0     H52624  12.912   3.893   7.277  1.1906  1.4423  0.1183
  390MOL0     H52625  12.768   3.956   7.217  0.0788  0.6533 -1.0698
  390MOL0     H52626  12.793   4.170   7.311 -1.3715  0.3901  1.5142
  390MOL0     H52627  12.952   4.130   7.263 -1.0325  2.7387  0.8551
  390MOL0     H52628  12.936   4.241   7.480  0.5841  0.0320 -3.6797
  390MOL0     H52629  12.860   4.103   7.553  0.1636  0.1881 -0.2263
  390MOL0     H52630  12.096   3.858   7.531  0.4061  0.8092 -1.6451
  390MOL0     H52631  11.869   3.924   7.645 -1.0816 -3.0694 -2.1201
  390MOL0     H52632  11.571   4.126   7.771  0.4126  0.7368 -2.3236
  390MOL0     H52633  11.377   4.128   7.920  0.8623  1.4224 -0.5078
  390MOL0     H52634  10.881   4.510   8.408  0.7635  1.0170  0.1899
  390MOL0     H52635  11.119   4.549   8.450  0.6743  1.2557 -1.4621
  390MOL0     H52636  11.485   4.555   8.439  2.2817  2.9775  0.4698
  390MOL0     H52637  11.718   4.635   8.465  2.8084 -0.7645 -0.1043
  390MOL0     H52638  11.951   4.692   8.629  0.0071 -0.3557  0.1983
  390MOL0     H52639  11.953   4.607   8.469 -0.4069  0.6540 -0.3684
  390MOL0     H52640  12.189   4.641   8.543 -0.7172  0.7083  0.3653
  390MOL0     H52641  12.153   4.470   8.584  0.5442 -1.7171  1.9710
  390MOL0     H52642  12.091   4.517   8.801  1.5083 -2.5088 -1.0086
  390MOL0     H52643  12.148   4.686   8.792  3.5223  0.1963  1.1578
  390MOL0     H52644  12.324   4.537   8.883 -3.0923 -0.0697 -0.1840
  390MOL0     H52645  12.324   4.443   8.729  3.1590 -0.2469 -0.4085
  390MOL0     H52646  12.570   4.775   8.637  1.8734 -2.2101  0.7337
  390MOL0     H52647  11.795   4.277   8.683 -2.7817 -2.7546  1.4437
  390MOL0     H52648  11.508   4.088   8.580 -1.1178  0.5928 -0.5919
  390MOL0     H52649  11.677   4.077   8.654 -0.8029 -1.4243 -1.1305
  390MOL0     H52650  11.541   4.155   8.740 -0.8876 -1.1649 -1.3949
  391MOL0     O52651   6.791   7.848   3.583  0.3521 -0.4264  0.5235
  391MOL0     C52652   6.820   7.731   3.597 -0.2215 -0.3365 -0.1972
  391MOL0     O52653   6.789   7.641   3.503  0.3114  0.2247  0.3822
  391MOL0     C52654   6.705   7.666   3.393 -0.5724  0.9188  0.5165
  391MOL0     C52655   6.743   7.709   3.267 -0.2252 -0.7099  0.5381
  391MOL0     C52656   6.650   7.750   3.169 -0.0797  0.0933  0.1718
  391MOL0     C52657   6.519   7.740   3.193  1.1135  0.0620 -0.2624
  391MOL0     O52658   6.419   7.747   3.106 -0.4640 -0.7717  0.3650
  391MOL0     C52659   6.439   7.755   2.971 -0.3403 -0.1549  0.5592
  391MOL0     C52660   6.326   7.820   2.900  0.7101 -0.4432 -1.2481
  391MOL0     C52661   6.360   7.816   2.751  0.4950 -0.0674  0.3083
  391MOL0     C52662   6.246   7.865   2.665  1.5891 -0.4186  0.4762
  391MOL0     C52663   6.303   7.914   2.535  0.8699 -0.5296 -1.0776
  391MOL0     C52664   6.194   7.965   2.438  0.3164  0.2450 -1.4297
  391MOL0     C52665   6.247   7.965   2.291  0.5680 -0.5472 -1.8604
  391MOL0     C52666   6.190   8.086   2.216  0.2018  0.3799 -0.0076
  391MOL0     N52667   6.057   8.053   2.160  0.3449  0.3948 -0.7055
  391MOL0     C52668   5.939   8.036   2.234  0.4780  0.5827  0.2275
  391MOL0     C52669   5.843   8.016   2.142  0.2848  0.3643 -0.2039
  391MOL0     C52670   5.698   8.016   2.175 -0.4941  0.0735  0.3703
  391MOL0     C52671   5.664   7.911   2.285  0.5179 -0.4480 -0.7199
  391MOL0     C52672   5.708   7.772   2.257  0.3425 -1.3619 -0.0675
  391MOL0     C52673   5.610   7.706   2.158  0.2681 -1.1033 -0.6896
  391MOL0     O52674   5.624   7.558   2.164 -0.1401 -0.4333  0.7189
  391MOL0     C52675   5.707   7.491   2.078 -0.5121  0.3883  0.1664
  391MOL0     C52676   5.697   7.525   1.935  1.1202 -0.2505 -0.1787
  391MOL0     C52677   5.783   7.464   1.846  0.4672 -0.4861 -0.4997
  391MOL0     C52678   5.871   7.364   1.890 -1.2253  0.0422  0.1985
  391MOL0     C52679   5.958   7.289   1.792  0.5367 -0.6110  0.5685
  391MOL0     O52680   6.031   7.194   1.849 -0.0844  0.7024  0.3690
  391MOL0     C52681   6.119   7.129   1.767  0.2573 -0.7645  0.5776
  391MOL0     C52682   6.124   6.996   1.810  0.4116  1.3624 -0.2825
  391MOL0     C52683   6.193   6.902   1.731  0.6151 -0.3556  0.7334
  391MOL0     C52684   6.247   6.942   1.611  0.5219 -0.8166 -0.6539
  391MOL0     O52685   6.308   6.843   1.538 -1.0075  0.4958  0.3664
  391MOL0     C52686   6.423   6.880   1.464  0.2704  0.5033 -0.0940
  391MOL0     C52687   6.530   6.755   1.443 -1.2788  0.5919  0.2087
  391MOL0     C52688   6.561   6.687   1.577  0.8579  0.7774  0.5109
  391MOL0     C52689   6.627   6.774   1.674 -0.6999 -0.2371  0.1873
  391MOL0     C52690   6.668   6.681   1.803 -0.7829 -0.1004  0.2840
  391MOL0     C52691   6.556   6.643   1.891 -0.8959 -0.2604 -0.5344
  391MOL0     C52692   6.479   6.753   1.963  0.4257  0.0587 -0.3605
  391MOL0     C52693   6.357   6.695   2.032  0.0863  0.0742  0.7163
  391MOL0    Cl52694   6.287   6.826   2.133  0.2846  0.3288  0.2105
  391MOL0     C52695   6.275   7.075   1.589  0.4227  0.2781  1.1039
  391MOL0     C52696   6.206   7.171   1.666  1.1854 -0.2981 -0.4651
  391MOL0     O52697   5.952   7.317   1.665 -0.4516 -0.4269 -1.1888
  391MOL0     C52698   5.874   7.325   2.025 -0.7434  0.2130  0.1139
  391MOL0     C52699   5.804   7.395   2.118  0.2991 -0.2109 -0.7720
  391MOL0     N52700   5.894   8.035   2.018 -0.0500 -0.3217 -0.7415
  391MOL0     N52701   6.022   8.047   2.025  0.0125  0.2154 -0.6350
  391MOL0     C52702   6.478   7.679   3.318  0.2141 -0.0409  0.5588
  391MOL0     C52703   6.569   7.652   3.419 -0.6247 -0.4127  0.3816
  391MOL0     C52704   6.876   7.686   3.726  0.3989  0.4349 -0.0892
  391MOL0     C52705   6.875   7.553   3.747  0.2354  0.0547  0.3522
  391MOL0     C52706   6.902   7.501   3.879  0.3319  0.6593  0.2393
  391MOL0     C52707   6.953   7.574   3.985 -0.6000  0.1099  0.0367
  391MOL0     O52708   6.999   7.521   4.101 -0.1415 -0.0082 -0.0994
  391MOL0     C52709   7.033   7.378   4.099  0.0605  0.0258 -0.7467
  391MOL0     C52710   7.144   7.340   4.008  0.7197  0.2027  0.7300
  391MOL0     C52711   7.261   7.435   4.012 -0.7248 -0.1263  0.1474
  391MOL0     C52712   7.371   7.404   3.915 -0.5769  0.5027  0.7539
  391MOL0     C52713   7.493   7.488   3.910  0.2037  0.2839 -0.1493
  391MOL0     C52714   7.592   7.552   3.904  0.5756  0.0442  1.0650
  391MOL0     C52715   6.954   7.710   3.963 -0.1780 -0.7302  0.8058
  391MOL0     C52716   6.920   7.772   3.840  0.5418 -1.3254  1.0428
  391MOL0     C52717   6.921   7.921   3.837 -0.2039  0.5556 -0.1787
  391MOL0     H52718   6.848   7.714   3.239 -0.8827  0.8022 -1.9131
  391MOL0     H52719   6.688   7.787   3.074 -3.1430  0.3085 -1.0649
  391MOL0     H52720   6.536   7.799   2.946  0.3807 -1.2958  1.2242
  391MOL0     H52721   6.450   7.650   2.942 -0.9742 -0.1205  0.1746
  391MOL0     H52722   6.323   7.921   2.943  0.4608  1.4349 -5.2613
  391MOL0     H52723   6.228   7.771   2.899  1.1796 -1.5092  0.3527
  391MOL0     H52724   6.381   7.712   2.727  0.3026 -0.3817  1.4215
  391MOL0     H52725   6.444   7.881   2.724 -1.3996  2.0292 -0.9414
  391MOL0     H52726   6.175   7.793   2.623  0.2470  1.8098 -1.3256
  391MOL0     H52727   6.196   7.953   2.705  2.2098  1.0597 -1.7868
  391MOL0     H52728   6.378   7.991   2.551 -1.2214  1.3601  0.2006
  391MOL0     H52729   6.342   7.818   2.499  0.0042 -1.3729  0.1348
  391MOL0     H52730   6.100   7.910   2.443 -0.5180  1.5838 -1.9738
  391MOL0     H52731   6.174   8.067   2.470 -1.7267 -0.6608  0.3915
  391MOL0     H52732   6.225   7.867   2.248 -0.8885 -1.8792  1.5420
  391MOL0     H52733   6.355   7.982   2.297  0.3142  1.4950 -2.1899
  391MOL0     H52734   6.189   8.182   2.269 -1.9916  0.3130  0.1370
  391MOL0     H52735   6.256   8.105   2.130  0.2554 -0.3790 -0.1395
  391MOL0     H52736   5.912   8.040   2.339  1.8141 -0.6975  0.6427
  391MOL0     H52737   5.685   8.116   2.219  2.2783  0.2877  0.9299
  391MOL0     H52738   5.632   8.001   2.090 -0.2621 -0.7105  0.3213
  391MOL0     H52739   5.722   7.943   2.373 -1.2024 -0.0032  0.2963
  391MOL0     H52740   5.562   7.912   2.323  1.0613 -2.0787  0.9570
  391MOL0     H52741   5.711   7.732   2.359 -2.9148  0.0674  0.7463
  391MOL0     H52742   5.814   7.770   2.232  0.7744  1.9807  0.9237
  391MOL0     H52743   5.623   7.754   2.060  1.3023  1.4057  0.5897
  391MOL0     H52744   5.517   7.743   2.201  1.6274  1.7560  0.0347
  391MOL0     H52745   5.625   7.600   1.906 -0.4654 -1.4335  0.5693
  391MOL0     H52746   5.771   7.499   1.744  1.3447  1.9400  0.1693
  391MOL0     H52747   6.078   6.960   1.901 -1.1033  1.1462 -1.1018
  391MOL0     H52748   6.198   6.799   1.764 -0.7259 -1.2536 -1.6447
  391MOL0     H52749   6.382   6.920   1.370  0.2660  0.7574  0.0135
  391MOL0     H52750   6.481   6.963   1.506 -1.0308  1.8421 -0.8063
  391MOL0     H52751   6.490   6.671   1.385  0.4814 -2.1334  2.6732
  391MOL0     H52752   6.619   6.793   1.392 -1.4734  1.1513  0.2757
  391MOL0     H52753   6.465   6.657   1.620 -0.4242  0.8527 -2.1086
  391MOL0     H52754   6.622   6.599   1.558 -1.4886 -0.7720 -0.3360
  391MOL0     H52755   6.558   6.852   1.709 -0.9391  0.0473 -0.8854
  391MOL0     H52756   6.720   6.811   1.632 -2.1457  0.6963 -2.4470
  391MOL0     H52757   6.741   6.731   1.867  0.7086 -1.3408 -0.3720
  391MOL0     H52758   6.715   6.590   1.762  2.9064  2.1206 -0.9265
  391MOL0     H52759   6.479   6.591   1.834 -1.4959  2.1133 -2.0469
  391MOL0     H52760   6.595   6.566   1.957  1.1765 -0.0603 -1.4667
  391MOL0     H52761   6.452   6.821   1.883  1.7236  0.9021 -0.1151
  391MOL0     H52762   6.560   6.793   2.025 -0.4317 -0.0068  0.8298
  391MOL0     H52763   6.272   6.670   1.967 -0.1247  1.3713  0.4549
  391MOL0     H52764   6.370   6.601   2.086 -3.0183 -1.1365 -0.4124
  391MOL0     H52765   6.342   7.110   1.511 -2.2242 -2.0388 -2.5178
  391MOL0     H52766   6.211   7.275   1.635  1.7452 -0.5281 -1.2087
  391MOL0     H52767   5.946   7.256   2.070  0.5580  2.1201  1.1337
  391MOL0     H52768   5.818   7.380   2.224 -1.7970  0.5661 -0.3311
  391MOL0     H52769   6.376   7.654   3.343  0.1343 -2.2789 -1.6193
  391MOL0     H52770   6.547   7.615   3.519  2.1656 -2.7166  0.2804
  391MOL0     H52771   6.825   7.496   3.670  0.0898  1.7638 -0.8639
  391MOL0     H52772   6.890   7.396   3.900  0.0754  0.6033 -0.1738
  391MOL0     H52773   6.950   7.311   4.074  0.6057  0.0958 -2.8979
  391MOL0     H52774   7.069   7.351   4.199 -3.0916 -3.1864 -0.2845
  391MOL0     H52775   7.114   7.335   3.903  1.5519 -0.1826  0.5002
  391MOL0     H52776   7.169   7.235   4.026 -0.9028 -1.5393 -5.1423
  391MOL0     H52777   7.300   7.437   4.114  0.3172  0.1875 -0.2362
  391MOL0     H52778   7.241   7.541   3.995  2.2387  0.4637 -0.2753
  391MOL0     H52779   7.409   7.304   3.935 -1.7175 -0.4934 -1.6300
  391MOL0     H52780   7.328   7.398   3.814  1.8423  0.2155 -0.3416
  391MOL0     H52781   7.683   7.604   3.924  0.9845  0.1201 -0.8552
  391MOL0     H52782   6.991   7.758   4.053  0.2939  0.6527 -0.0872
  391MOL0     H52783   6.820   7.964   3.838  0.2889  1.7410  0.5711
  391MOL0     H52784   6.974   7.953   3.927 -0.7227 -0.1782  0.3990
  391MOL0     H52785   6.973   7.950   3.746 -0.2303 -1.0905 -0.7491
  392MOL0     O52786   3.372   9.250   8.999 -0.1195 -0.5552 -0.3243
  392MOL0     C52787   3.421   9.211   8.890  0.2711  0.4028 -0.0663
  392MOL0     O52788   3.549   9.158   8.882 -0.1880  0.4961 -0.6826
  392MOL0     C52789   3.654   9.201   8.962 -1.1955 -0.6270  1.1759
  392MOL0     C52790   3.657   9.307   9.051  0.3670  0.2644  0.1455
  392MOL0     C52791   3.774   9.347   9.108  0.1754 -0.6142 -0.4756
  392MOL0     C52792   3.891   9.275   9.091 -0.6135 -0.7585 -0.0805
  392MOL0     O52793   4.010   9.293   9.153 -0.3648 -0.4211 -0.0105
  392MOL0     C52794   4.031   9.430   9.205 -0.1366  0.0561  0.2795
  392MOL0     C52795   4.180   9.447   9.212 -0.3042 -0.2756  0.9181
  392MOL0     C52796   4.233   9.500   9.073 -0.0016  0.2326 -1.3127
  392MOL0     C52797   4.375   9.542   9.092 -0.9066 -0.4024  0.5777
  392MOL0     C52798   4.464   9.533   8.974  0.7266  0.5876 -0.0492
  392MOL0     C52799   4.591   9.591   8.987 -0.5129 -0.5070 -0.5830
  392MOL0     C52800   4.603   9.724   9.076  0.7774  0.0909 -0.7356
  392MOL0     C52801   4.719   9.814   9.036  0.2059 -0.1907  0.4367
  392MOL0     N52802   4.845   9.754   9.084  0.2815 -0.4016 -0.2786
  392MOL0     C52803   4.867   9.714   9.217 -0.3166  0.8416  0.1992
  392MOL0     C52804   4.988   9.658   9.208 -0.0309  0.8766 -0.1524
  392MOL0     C52805   5.051   9.588   9.329  0.4330 -0.1593  0.3920
  392MOL0     C52806   5.203   9.546   9.314 -0.4536  1.1372  0.4609
  392MOL0     C52807   5.272   9.535   9.445  1.2101 -0.1848 -0.1589
  392MOL0     C52808   5.409   9.471   9.415  0.3226  0.2620 -0.5994
  392MOL0     O52809   5.502   9.557   9.338 -0.1629 -0.4244 -0.1842
  392MOL0     C52810   5.616   9.485   9.315  0.5166  0.9987  0.4489
  392MOL0     C52811   5.727   9.539   9.376 -0.5950 -0.1631 -0.6430
  392MOL0     C52812   5.852   9.475   9.375 -0.2519  0.3293  0.0106
  392MOL0     C52813   5.875   9.347   9.313  0.9279  0.2710  0.6231
  392MOL0     C52814   6.003   9.287   9.318  0.4540 -0.0209  0.1154
  392MOL0     O52815   6.094   9.344   9.401 -0.0273 -0.0222 -0.6685
  392MOL0     C52816   6.222   9.286   9.425  0.6989  0.1792 -0.3070
  392MOL0     C52817   6.329   9.379   9.447 -0.3771 -0.4433  0.0980
  392MOL0     C52818   6.455   9.342   9.497  0.5826 -0.2081 -0.6865
  392MOL0     C52819   6.484   9.207   9.521  0.2375 -0.3493  0.4697
  392MOL0     O52820   6.609   9.180   9.577  0.0877 -0.1112  0.2824
  392MOL0     C52821   6.636   9.051   9.643  0.0267  0.0822  1.0473
  392MOL0     C52822   6.779   9.048   9.701 -0.6821  1.0011 -0.1825
  392MOL0     C52823   6.869   8.926   9.675 -0.0262  0.8999  0.1539
  392MOL0     C52824   7.015   8.965   9.716  0.3094 -0.3665  0.2275
  392MOL0     C52825   7.112   8.853   9.693 -1.0741  0.3033 -0.8720
  392MOL0     C52826   7.257   8.888   9.750 -0.1668  0.0111  0.1732
  392MOL0     C52827   7.310   9.012   9.673 -0.6888 -0.0395 -1.0339
  392MOL0     C52828   7.463   9.006   9.661 -0.5305  0.8514 -0.3844
  392MOL0    Cl52829   7.508   9.138   9.554 -0.0391 -0.0827 -0.3128
  392MOL0     C52830   6.385   9.109   9.493  0.0042 -0.5310  0.2057
  392MOL0     C52831   6.253   9.151   9.445 -0.4034 -0.2696 -0.2275
  392MOL0     O52832   6.025   9.189   9.246 -0.6281  0.5487  0.0231
  392MOL0     C52833   5.762   9.291   9.252 -0.1643 -1.1641 -0.1811
  392MOL0     C52834   5.637   9.359   9.251 -0.1614 -0.1428  0.8011
  392MOL0     N52835   5.034   9.666   9.077 -0.2896  0.2853 -0.3466
  392MOL0     N52836   4.955   9.731   9.011 -0.5310  0.4534  0.1292
  392MOL0     C52837   3.894   9.166   9.001  0.2204 -0.2790  0.1794
  392MOL0     C52838   3.777   9.131   8.940  0.7750  0.1152  0.0229
  392MOL0     C52839   3.334   9.198   8.771  0.1883 -0.2164  0.5062
  392MOL0     C52840   3.403   9.237   8.650 -0.6327  0.2954  0.0320
  392MOL0     C52841   3.339   9.244   8.525 -0.3736  0.6510 -0.1530
  392MOL0     C52842   3.196   9.221   8.518 -0.5523 -0.8738  0.6836
  392MOL0     O52843   3.122   9.224   8.401  0.2098  0.5728  0.5544
  392MOL0     C52844   3.125   9.103   8.324 -0.6342  0.1881 -0.1490
  392MOL0     C52845   3.252   9.034   8.280  0.3009 -0.6047 -0.3880
  392MOL0     C52846   3.212   8.918   8.193  0.5606  1.1432 -0.3225
  392MOL0     C52847   3.340   8.871   8.122 -0.1398 -0.3600  0.4451
  392MOL0     C52848   3.330   8.741   8.056  0.4904 -0.0086 -0.2722
  392MOL0     C52849   3.308   8.644   7.987 -0.1256 -0.7217  0.4066
  392MOL0     C52850   3.136   9.209   8.635 -0.1270 -0.1524 -1.1931
  392MOL0     C52851   3.189   9.194   8.761 -0.2893 -0.1001 -0.1756
  392MOL0     C52852   3.103   9.144   8.876  0.4921 -0.3137 -1.1107
  392MOL0     H52853   3.563   9.358   9.068 -0.6219 -2.1141  2.6013
  392MOL0     H52854   3.768   9.436   9.170  1.0527  0.5956 -2.0564
  392MOL0     H52855   3.983   9.505   9.142  4.4357  1.6786 -1.7220
  392MOL0     H52856   3.990   9.444   9.305 -4.3246 -0.8925 -1.0970
  392MOL0     H52857   4.227   9.358   9.257 -1.7904 -1.6748 -0.1584
  392MOL0     H52858   4.190   9.531   9.281  0.8140 -0.1930  0.6733
  392MOL0     H52859   4.171   9.586   9.045 -1.0017  0.0933  0.3398
  392MOL0     H52860   4.221   9.427   8.993  0.5104 -1.7025  0.3003
  392MOL0     H52861   4.370   9.642   9.136 -0.2564  0.7746 -1.8582
  392MOL0     H52862   4.432   9.483   9.164  1.2524 -0.2469 -0.9151
  392MOL0     H52863   4.476   9.427   8.946  1.9178  0.5384  0.5820
  392MOL0     H52864   4.430   9.575   8.879  5.0981 -1.5714 -2.8633
  392MOL0     H52865   4.663   9.520   9.027  2.5998  2.8268  0.3061
  392MOL0     H52866   4.630   9.612   8.886 -0.5982  2.6607 -0.0792
  392MOL0     H52867   4.609   9.679   9.175 -0.3697  2.6939  0.6410
  392MOL0     H52868   4.513   9.786   9.071  0.9360  0.2641 -3.4679
  392MOL0     H52869   4.716   9.852   8.933  0.9781  3.5586  1.6177
  392MOL0     H52870   4.695   9.904   9.094 -1.5758  0.0647 -0.5967
  392MOL0     H52871   4.795   9.708   9.298 -0.9464 -0.8686 -0.4478
  392MOL0     H52872   5.039   9.662   9.409  1.1261  2.7858 -2.0386
  392MOL0     H52873   4.982   9.506   9.353 -1.5228  1.5943  1.0786
  392MOL0     H52874   5.198   9.452   9.259  0.7154  0.4837  1.4431
  392MOL0     H52875   5.268   9.615   9.259  0.5825 -0.5009 -0.4191
  392MOL0     H52876   5.211   9.466   9.504 -1.0549  2.6142  1.0173
  392MOL0     H52877   5.275   9.635   9.490  0.7134 -0.9509  1.6851
  392MOL0     H52878   5.385   9.385   9.352  0.2652 -0.3616  0.2672
  392MOL0     H52879   5.449   9.444   9.513  1.7851 -1.1971 -1.5423
  392MOL0     H52880   5.726   9.632   9.431  0.4376 -0.9186  0.7159
  392MOL0     H52881   5.932   9.526   9.428 -0.9839 -1.3709  2.9871
  392MOL0     H52882   6.317   9.485   9.428 -5.3531 -0.0919  3.3694
  392MOL0     H52883   6.518   9.427   9.518  1.0970 -1.2990  2.8616
  392MOL0     H52884   6.564   9.047   9.725  0.9700 -0.9197  1.8700
  392MOL0     H52885   6.624   8.960   9.583 -1.5376 -1.5955  3.6769
  392MOL0     H52886   6.839   9.136   9.674  2.0507  0.1923  2.6701
  392MOL0     H52887   6.769   9.071   9.807  0.2850 -0.9379  0.3624
  392MOL0     H52888   6.835   8.833   9.722 -0.3917  1.8815  1.9454
  392MOL0     H52889   6.868   8.898   9.569  0.7731 -3.2003  1.0284
  392MOL0     H52890   7.011   9.004   9.818  3.3439  3.4619 -0.8626
  392MOL0     H52891   7.048   9.050   9.656 -1.1143 -0.1704 -0.3118
  392MOL0     H52892   7.127   8.821   9.590 -2.0132 -2.0710 -0.3365
  392MOL0     H52893   7.073   8.765   9.746 -1.3259  0.6218 -0.5237
  392MOL0     H52894   7.262   8.898   9.859 -0.3469  1.1017  0.0880
  392MOL0     H52895   7.332   8.810   9.731  1.0755  1.7330 -2.6403
  392MOL0     H52896   7.281   9.103   9.725  0.6437 -0.2061  0.0637
  392MOL0     H52897   7.265   9.012   9.573 -2.2689 -1.0698 -0.3568
  392MOL0     H52898   7.518   9.026   9.753 -0.8554  1.9571 -0.4237
  392MOL0     H52899   7.488   8.915   9.605 -1.6778  0.0262  0.3791
  392MOL0     H52900   6.399   9.004   9.512 -2.6640 -1.1491 -0.8247
  392MOL0     H52901   6.178   9.078   9.416 -1.2208  1.1354 -1.8111
  392MOL0     H52902   5.786   9.209   9.184  0.8944 -0.8295 -0.2290
  392MOL0     H52903   5.552   9.313   9.201  0.0855  0.0671  0.1668
  392MOL0     H52904   3.987   9.120   8.969 -1.4143 -2.8733 -1.1211
  392MOL0     H52905   3.777   9.042   8.878  0.0367 -0.7173  1.1712
  392MOL0     H52906   3.512   9.234   8.646 -0.6787 -0.5478 -2.1786
  392MOL0     H52907   3.390   9.282   8.437  0.0621  1.3426  0.3919
  392MOL0     H52908   3.056   9.116   8.240  0.9448 -1.7926 -1.8813
  392MOL0     H52909   3.086   9.020   8.385 -1.0808 -1.0736 -2.0464
  392MOL0     H52910   3.310   9.002   8.367  1.4144  0.6820 -0.6284
  392MOL0     H52911   3.315   9.101   8.221  0.8260 -2.5584 -2.1544
  392MOL0     H52912   3.144   8.943   8.111  0.7592 -0.6614 -1.1118
  392MOL0     H52913   3.159   8.838   8.245  0.7462  1.6997  0.7389
  392MOL0     H52914   3.364   8.939   8.040  1.5946  0.1514  1.3113
  392MOL0     H52915   3.433   8.867   8.180 -0.5094 -0.8214  1.0093
  392MOL0     H52916   3.274   8.568   7.919  0.9664 -0.4043 -0.5245
  392MOL0     H52917   3.028   9.217   8.629 -0.0225  4.2503 -0.6470
  392MOL0     H52918   3.120   9.189   8.975  0.0667  0.2352 -1.2843
  392MOL0     H52919   2.996   9.160   8.860 -0.4588 -2.5314  2.0612
  392MOL0     H52920   3.117   9.037   8.893  0.4243  0.1580  2.7538
  393MOL0     O52921   0.974  10.012   3.284  0.4709  0.3661  0.5100
  393MOL0     C52922   0.893  10.002   3.378  1.4150  0.6791  0.1166
  393MOL0     O52923   0.920  10.021   3.508  0.2724 -0.6832 -0.2030
  393MOL0     C52924   1.045  10.046   3.554 -0.1552  0.1470  0.5094
  393MOL0     C52925   1.064  10.168   3.615 -0.8962  0.4807  0.4128
  393MOL0     C52926   1.193  10.208   3.650  0.2069 -0.2902  0.5456
  393MOL0     C52927   1.307  10.127   3.614  0.4947 -0.0260 -2.0083
  393MOL0     O52928   1.431  10.186   3.627  0.1557 -0.1544 -0.5304
  393MOL0     C52929   1.545  10.103   3.635 -0.2531 -0.2947  0.1760
  393MOL0     C52930   1.649  10.186   3.710  0.6183  0.1692 -0.4288
  393MOL0     C52931   1.718  10.289   3.623 -0.3114 -0.2758  1.1897
  393MOL0     C52932   1.838  10.355   3.705 -0.1886  0.1627 -0.4840
  393MOL0     C52933   1.882  10.470   3.628 -0.5357  0.5490  0.4023
  393MOL0     C52934   1.969  10.422   3.511 -0.0585  0.1362  0.0571
  393MOL0     C52935   2.060  10.527   3.444  0.4489  0.0426 -0.5070
  393MOL0     C52936   2.154  10.603   3.544  0.5187  0.3643  0.5000
  393MOL0     N52937   2.243  10.510   3.619  0.4403 -0.1755 -0.5093
  393MOL0     C52938   2.299  10.402   3.562  0.6487  0.6759 -1.5444
  393MOL0     C52939   2.363  10.336   3.665  0.4306  0.0700 -0.7118
  393MOL0     C52940   2.447  10.214   3.656  0.2801 -0.6548 -0.4469
  393MOL0     C52941   2.405  10.116   3.767  0.2889 -0.4787 -0.2518
  393MOL0     C52942   2.466   9.973   3.743 -0.1958 -0.5062  0.2684
  393MOL0     C52943   2.433   9.896   3.613  0.4193  0.2580  0.0367
  393MOL0     O52944   2.290   9.883   3.593 -0.4095  1.2071  0.3913
  393MOL0     C52945   2.236   9.823   3.474  0.1102  0.8942 -0.2495
  393MOL0     C52946   2.098   9.832   3.465 -0.5323  0.5485 -0.4704
  393MOL0     C52947   2.034   9.766   3.365  0.1274 -0.2300  0.5398
  393MOL0     C52948   2.105   9.693   3.270 -1.4237 -0.3470  0.3026
  393MOL0     C52949   2.026   9.618   3.163  0.0919 -0.3554 -0.1933
  393MOL0     O52950   2.094   9.554   3.068 -0.6974 -0.1521  0.2659
  393MOL0     C52951   2.046   9.534   2.938 -1.0770 -0.1993  0.2675
  393MOL0     C52952   1.910   9.505   2.890 -0.4956 -0.3268  0.2196
  393MOL0     C52953   1.881   9.475   2.762 -0.3197 -1.5189  0.8306
  393MOL0     C52954   1.990   9.467   2.670  0.5114  0.1958  0.0774
  393MOL0     O52955   1.960   9.445   2.534  0.0665  0.1055  0.3986
  393MOL0     C52956   2.026   9.321   2.483  0.2368  0.2017  0.6332
  393MOL0     C52957   1.940   9.262   2.366  0.8209 -0.0305  0.2864
  393MOL0     C52958   2.024   9.170   2.270  0.3051 -0.5023 -0.2223
  393MOL0     C52959   1.939   9.109   2.163 -0.3836  0.3753  0.3584
  393MOL0     C52960   1.904   9.212   2.066 -0.8083 -0.7290 -1.0756
  393MOL0     C52961   1.872   9.154   1.932 -0.0526  0.7378 -0.2441
  393MOL0     C52962   1.868   9.259   1.819 -0.1850  0.6342  0.7780
  393MOL0     C52963   2.001   9.298   1.754 -0.4395 -0.8350  0.1214
  393MOL0    Cl52964   1.973   9.423   1.637 -0.0271  0.1145 -0.0676
  393MOL0     C52965   2.128   9.493   2.712  0.1949 -0.7090 -0.0945
  393MOL0     C52966   2.144   9.531   2.841  0.1226  0.2956  0.3991
  393MOL0     O52967   1.907   9.632   3.160  0.8626 -0.5329 -0.3183
  393MOL0     C52968   2.250   9.694   3.267  0.3537 -1.0320 -0.5086
  393MOL0     C52969   2.314   9.757   3.374  0.0634  0.5572 -0.7922
  393MOL0     N52970   2.341  10.411   3.783 -0.0168  0.4235 -0.1215
  393MOL0     N52971   2.266  10.513   3.752  0.6831  0.4221 -0.3522
  393MOL0     C52972   1.283   9.998   3.570 -0.2985  0.3342  0.1083
  393MOL0     C52973   1.154   9.963   3.539  0.6238 -0.0019 -0.3700
  393MOL0     C52974   0.752   9.976   3.358  0.3869 -0.6125 -0.0002
  393MOL0     C52975   0.662  10.005   3.465  0.5263 -0.0703  0.1049
  393MOL0     C52976   0.527   9.999   3.447  0.2730  0.8000 -0.3711
  393MOL0     C52977   0.472   9.957   3.323  0.0147 -0.7487  1.2107
  393MOL0     O52978   0.340   9.934   3.313 -0.1751  0.4008  0.0651
  393MOL0     C52979   0.302   9.798   3.296 -0.6180  0.7103 -0.4369
  393MOL0     C52980   0.306   9.723   3.428 -0.0934 -0.3291  1.2285
  393MOL0     C52981   0.252   9.579   3.412  0.5396 -1.2950 -0.4229
  393MOL0     C52982   0.264   9.497   3.539  0.3887  0.1633 -0.4526
  393MOL0     C52983   0.393   9.446   3.567  0.5995 -0.3480  0.1354
  393MOL0     C52984   0.508   9.399   3.590  0.4278 -0.2219  0.5028
  393MOL0     C52985   0.553   9.944   3.218  0.1656 -0.0435 -0.4378
  393MOL0     C52986   0.690   9.958   3.229  0.3761  1.6167 -0.8202
  393MOL0     C52987   0.766   9.929   3.105  0.4469  0.1490  0.6284
  393MOL0     H52988   0.976  10.230   3.628 -2.0608 -0.8475 -0.7775
  393MOL0     H52989   1.206  10.307   3.693  0.2499 -0.0713  0.0288
  393MOL0     H52990   1.526  10.017   3.701  1.7161 -1.1465 -0.2907
  393MOL0     H52991   1.591  10.069   3.542 -2.5911 -0.4256 -1.0041
  393MOL0     H52992   1.722  10.116   3.753  1.2512  1.1483  0.1375
  393MOL0     H52993   1.608  10.254   3.785  4.0075  4.0936 -1.7511
  393MOL0     H52994   1.646  10.368   3.598 -1.9870 -0.5371  4.5968
  393MOL0     H52995   1.741  10.243   3.526 -0.4360  0.4612  0.7992
  393MOL0     H52996   1.803  10.388   3.803 -2.3837 -0.8802 -0.8647
  393MOL0     H52997   1.927  10.292   3.714 -0.1328  0.0174 -1.9252
  393MOL0     H52998   1.805  10.539   3.590 -0.2335 -0.3757 -2.0459
  393MOL0     H52999   1.941  10.521   3.704 -0.2749  0.0195  0.5563
  393MOL0     H53000   2.025  10.334   3.543 -2.4176 -0.6066  2.6201
  393MOL0     H53001   1.905  10.381   3.432  1.1333  0.3218 -1.0373
  393MOL0     H53002   1.994  10.605   3.402  0.5364  0.2911 -0.1831
  393MOL0     H53003   2.118  10.478   3.365  0.8319 -0.5830  0.1583
  393MOL0     H53004   2.229  10.662   3.489  0.1654 -1.4181 -2.0956
  393MOL0     H53005   2.099  10.666   3.613 -1.8661  1.8053 -2.4831
  393MOL0     H53006   2.299  10.375   3.457 -1.6886  0.9887 -1.6744
  393MOL0     H53007   2.427  10.159   3.563 -1.9176 -2.1502  0.8370
  393MOL0     H53008   2.555  10.232   3.668  1.5750 -4.2046 -4.1964
  393MOL0     H53009   2.434  10.169   3.858 -0.4750  0.1968 -0.3886
  393MOL0     H53010   2.296  10.103   3.771  0.0662  1.1749 -0.2630
  393MOL0     H53011   2.448   9.908   3.829 -0.1427  0.3723  0.9532
  393MOL0     H53012   2.574   9.987   3.749 -0.2325  1.6421 -2.0239
  393MOL0     H53013   2.487   9.803   3.630  0.4295  0.3188  0.3513
  393MOL0     H53014   2.470   9.948   3.524 -1.7475  1.2112 -0.3757
  393MOL0     H53015   2.045   9.886   3.543 -0.2238 -1.5892  1.3325
  393MOL0     H53016   1.925   9.767   3.359  0.0216 -4.1139 -1.0253
  393MOL0     H53017   1.830   9.497   2.963  1.8379  2.6337  3.3776
  393MOL0     H53018   1.782   9.453   2.721 -0.7124  0.3388  0.7113
  393MOL0     H53019   2.125   9.341   2.441  0.6900 -3.3988 -0.3681
  393MOL0     H53020   2.032   9.240   2.556 -1.3486  1.1997  1.9451
  393MOL0     H53021   1.844   9.221   2.398 -0.0121  2.8903  1.9496
  393MOL0     H53022   1.917   9.351   2.305 -0.8332 -1.6874 -1.6637
  393MOL0     H53023   2.105   9.231   2.228 -1.3054  2.0044  0.0735
  393MOL0     H53024   2.070   9.092   2.331  0.1417 -0.4819 -0.0732
  393MOL0     H53025   1.854   9.051   2.200 -2.4201  1.7421 -1.8732
  393MOL0     H53026   2.000   9.043   2.102 -0.4055  1.0410 -0.4018
  393MOL0     H53027   1.984   9.285   2.052 -1.5985  0.0373 -1.7554
  393MOL0     H53028   1.820   9.272   2.103  1.5213  1.0534  1.8282
  393MOL0     H53029   1.948   9.081   1.903 -2.0905 -1.1774 -1.1082
  393MOL0     H53030   1.783   9.091   1.932  0.9685 -0.7582  0.3767
  393MOL0     H53031   1.817   9.345   1.863 -1.4510  0.3599 -0.1101
  393MOL0     H53032   1.807   9.226   1.735 -1.8872  2.6687  1.1204
  393MOL0     H53033   2.066   9.351   1.824 -0.3849 -0.4730 -0.2007
  393MOL0     H53034   2.051   9.215   1.703  1.4831  0.3837 -0.0722
  393MOL0     H53035   2.213   9.479   2.646  0.4806 -4.5569  0.8163
  393MOL0     H53036   2.245   9.546   2.878  1.4321 -0.3261 -2.6176
  393MOL0     H53037   2.299   9.641   3.185  1.4764 -3.2543  1.4625
  393MOL0     H53038   2.421   9.761   3.393 -0.2198  1.1466  0.8021
  393MOL0     H53039   1.361   9.929   3.538 -1.0632 -1.9680  2.7577
  393MOL0     H53040   1.144   9.864   3.495 -0.3813 -0.4950  0.9061
  393MOL0     H53041   0.687  10.052   3.560  1.6676 -0.1023 -0.1644
  393MOL0     H53042   0.458  10.011   3.530  1.2378  1.3019  0.3881
  393MOL0     H53043   0.369   9.750   3.225 -0.8393 -0.4477  0.1231
  393MOL0     H53044   0.199   9.794   3.259 -0.9442  0.5240  0.4687
  393MOL0     H53045   0.242   9.784   3.492 -3.1124 -0.4624 -1.4034
  393MOL0     H53046   0.405   9.721   3.474 -0.4209 -2.3512  1.9120
  393MOL0     H53047   0.300   9.526   3.330  4.6968 -2.9503  2.7085
  393MOL0     H53048   0.145   9.586   3.392  0.0283  0.7848  2.4158
  393MOL0     H53049   0.223   9.551   3.625  4.2806  0.4346  1.4576
  393MOL0     H53050   0.194   9.415   3.526 -0.0121  0.1437  1.4838
  393MOL0     H53051   0.603   9.353   3.608  1.5270  1.9091  0.4279
  393MOL0     H53052   0.509   9.924   3.121  1.2341 -1.4460 -0.6603
  393MOL0     H53053   0.695   9.905   3.025 -1.5396  0.6698  2.1770
  393MOL0     H53054   0.843  10.003   3.079  2.7225 -2.6744 -1.3829
  393MOL0     H53055   0.807   9.830   3.127 -1.2158 -0.8836 -0.6458
  394MOL0     O53056   5.835  10.838   6.784  0.0537 -0.0452 -0.2434
  394MOL0     C53057   5.776  10.934   6.841  0.6119 -1.6753 -0.1105
  394MOL0     O53058   5.812  11.066   6.825  0.1264  0.0183 -0.5695
  394MOL0     C53059   5.948  11.089   6.801  0.0057  0.0381  0.3511
  394MOL0     C53060   6.004  11.085   6.673 -0.0180  0.6069  0.0787
  394MOL0     C53061   6.129  11.114   6.647 -0.1530 -0.9788 -0.2608
  394MOL0     C53062   6.216  11.143   6.747 -0.7062 -0.0623  0.0275
  394MOL0     O53063   6.348  11.162   6.739 -0.2473  0.6175 -0.0710
  394MOL0     C53064   6.398  11.158   6.600 -0.0133  0.9017  0.2819
  394MOL0     C53065   6.534  11.253   6.612  0.2994 -0.0598 -0.1851
  394MOL0     C53066   6.620  11.233   6.490 -0.4088  0.6458 -0.3183
  394MOL0     C53067   6.749  11.323   6.499  0.8963 -0.2147  0.0533
  394MOL0     C53068   6.861  11.272   6.410  0.4581 -0.4860  0.4966
  394MOL0     C53069   6.997  11.287   6.478  0.1811 -0.1449 -0.2630
  394MOL0     C53070   7.119  11.265   6.393 -0.7934 -0.1352  0.4586
  394MOL0     C53071   7.201  11.139   6.410  0.2241  1.0090 -0.1225
  394MOL0     N53072   7.306  11.144   6.306 -1.0338 -0.5001  0.5716
  394MOL0     C53073   7.439  11.181   6.322  0.2423 -0.3583  0.3683
  394MOL0     C53074   7.494  11.169   6.191  0.7287  0.3627  0.0472
  394MOL0     C53075   7.632  11.213   6.152  0.0385  0.5912  0.0894
  394MOL0     C53076   7.738  11.209   6.262  1.1370 -0.1610  0.7199
  394MOL0     C53077   7.779  11.342   6.317  0.2865 -0.5134  1.3955
  394MOL0     C53078   7.925  11.358   6.367 -0.0822 -0.0111 -0.2243
  394MOL0     O53079   8.014  11.307   6.265  0.2662 -0.3159  0.1000
  394MOL0     C53080   8.037  11.385   6.149 -0.0913 -0.7717 -1.3366
  394MOL0     C53081   7.988  11.516   6.127  0.0539  0.4790 -0.0220
  394MOL0     C53082   8.035  11.584   6.018 -0.2860 -0.3219  0.1570
  394MOL0     C53083   8.116  11.534   5.912  0.6509 -0.0034  0.8247
  394MOL0     C53084   8.160  11.612   5.797  0.3600 -0.6802 -0.0847
  394MOL0     O53085   8.189  11.547   5.682 -0.2377  0.8758 -0.1924
  394MOL0     C53086   8.243  11.604   5.572 -1.2407 -0.3385 -0.6894
  394MOL0     C53087   8.353  11.690   5.574  0.1386  0.6959 -0.3880
  394MOL0     C53088   8.407  11.743   5.460  0.2519 -0.1356 -0.0516
  394MOL0     C53089   8.346  11.712   5.334  0.8860  1.1565 -0.5844
  394MOL0     O53090   8.389  11.754   5.212 -0.2747 -0.6083 -0.0535
  394MOL0     C53091   8.526  11.761   5.173 -0.2005  0.4415  0.2524
  394MOL0     C53092   8.532  11.765   5.015  0.3235 -0.5605 -0.0515
  394MOL0     C53093   8.665  11.805   4.961 -0.3785  0.0936 -0.0556
  394MOL0     C53094   8.660  11.874   4.828  0.7479  0.2295 -0.3058
  394MOL0     C53095   8.784  11.959   4.794 -0.1659 -0.4851 -0.8386
  394MOL0     C53096   8.768  12.035   4.662  1.1669  0.1681  0.8136
  394MOL0     C53097   8.889  12.111   4.605 -0.5140  0.4726  0.9158
  394MOL0     C53098   8.944  12.206   4.708 -0.0726 -0.6299  0.1058
  394MOL0    Cl53099   9.038  12.324   4.624 -0.2817 -0.1912 -0.5687
  394MOL0     C53100   8.241  11.625   5.333  0.0210  0.6271  0.7898
  394MOL0     C53101   8.180  11.574   5.450 -0.5900  0.1043  0.6043
  394MOL0     O53102   8.157  11.737   5.803  0.9430 -0.4375 -0.8574
  394MOL0     C53103   8.167  11.409   5.941 -0.7986  0.2723 -0.8541
  394MOL0     C53104   8.129  11.334   6.055 -0.0911 -0.0702  0.6238
  394MOL0     N53105   7.394  11.132   6.108 -0.7370  0.1622  0.3473
  394MOL0     N53106   7.281  11.112   6.181  0.7248  1.0391  0.1622
  394MOL0     C53107   6.172  11.140   6.881 -0.0881  0.6627 -0.0840
  394MOL0     C53108   6.036  11.116   6.902  1.1879 -0.1706 -0.3856
  394MOL0     C53109   5.650  10.904   6.914  0.5374 -1.1279  0.5969
  394MOL0     C53110   5.607  11.009   7.004 -0.8172  0.0552 -0.4901
  394MOL0     C53111   5.491  10.996   7.078 -0.4537 -0.3055 -0.7662
  394MOL0     C53112   5.420  10.882   7.071  0.5571  1.1938  0.3312
  394MOL0     O53113   5.312  10.871   7.164  0.4229  0.5017  0.0055
  394MOL0     C53114   5.193  10.798   7.143 -0.4524  0.3402 -0.0792
  394MOL0     C53115   5.154  10.723   7.279  0.5711  0.2102  0.4465
  394MOL0     C53116   5.066  10.597   7.259 -0.2069  1.0413  0.0207
  394MOL0     C53117   5.000  10.550   7.390 -0.8660 -0.4485  0.4636
  394MOL0     C53118   4.922  10.654   7.450  0.4682  0.2826  0.7893
  394MOL0     C53119   4.853  10.737   7.498 -0.9293 -0.4023 -0.3770
  394MOL0     C53120   5.465  10.781   6.990  0.7088  0.4964  0.3765
  394MOL0     C53121   5.574  10.786   6.906 -0.2331 -0.3283  1.1706
  394MOL0     C53122   5.614  10.667   6.821  0.1261  0.7207 -0.1867
  394MOL0     H53123   5.941  11.057   6.589 -0.5036  0.8185  0.3685
  394MOL0     H53124   6.159  11.103   6.543 -1.6260  1.1161 -0.9792
  394MOL0     H53125   6.408  11.053   6.572 -1.3420  0.1152  2.4907
  394MOL0     H53126   6.340  11.213   6.525 -0.1320  2.4120  1.4487
  394MOL0     H53127   6.579  11.226   6.709  1.2115  0.5762 -0.4212
  394MOL0     H53128   6.497  11.354   6.627  1.8588  0.4784  0.2376
  394MOL0     H53129   6.572  11.259   6.395  6.0040  1.6032 -3.8813
  394MOL0     H53130   6.638  11.125   6.483 -3.3251  0.0615 -0.2128
  394MOL0     H53131   6.721  11.423   6.465 -2.4534 -0.6734  1.1068
  394MOL0     H53132   6.782  11.330   6.603  0.6824 -0.8772  0.1680
  394MOL0     H53133   6.856  11.163   6.409 -0.6747 -0.4659 -1.7001
  394MOL0     H53134   6.869  11.322   6.313  4.3374  1.8922  1.8071
  394MOL0     H53135   7.004  11.394   6.504  0.3236 -0.2798  0.2739
  394MOL0     H53136   7.006  11.227   6.569  1.6712 -0.0848 -0.3546
  394MOL0     H53137   7.192  11.345   6.411 -0.1287 -0.0261 -2.2483
  394MOL0     H53138   7.103  11.276   6.285  1.5097  1.6839  0.2086
  394MOL0     H53139   7.239  11.130   6.512 -0.3497  0.9749  0.0945
  394MOL0     H53140   7.118  11.069   6.394  0.5222  0.7674 -0.6021
  394MOL0     H53141   7.496  11.230   6.400 -0.7041 -0.8096  1.3835
  394MOL0     H53142   7.678  11.152   6.074  0.5508  1.8440 -0.6135
  394MOL0     H53143   7.622  11.311   6.104  0.5562  0.9855  0.7686
  394MOL0     H53144   7.695  11.151   6.344 -0.5642  0.5626  0.3730
  394MOL0     H53145   7.825  11.156   6.220  0.7002  1.6675 -2.8831
  394MOL0     H53146   7.719  11.369   6.404  0.8297 -0.1629  1.6654
  394MOL0     H53147   7.762  11.414   6.236  1.1362 -3.2612 -1.4645
  394MOL0     H53148   7.939  11.301   6.459 -0.9188 -0.4242 -0.3402
  394MOL0     H53149   7.943  11.461   6.397 -2.4629  0.3218  0.2304
  394MOL0     H53150   7.941  11.577   6.204 -0.0338  2.3449 -1.4855
  394MOL0     H53151   8.006  11.688   6.004  2.3841  0.5387  0.3778
  394MOL0     H53152   8.406  11.710   5.667 -0.1563 -0.4139  0.0316
  394MOL0     H53153   8.502  11.796   5.464  1.0129 -1.4997  0.7615
  394MOL0     H53154   8.577  11.849   5.211 -1.4998  1.6650 -0.7454
  394MOL0     H53155   8.580  11.675   5.214 -0.8838  0.4040  1.0993
  394MOL0     H53156   8.493  11.667   4.987 -2.1254 -0.4014  2.3391
  394MOL0     H53157   8.469  11.851   4.989 -0.5300 -0.3882  2.2937
  394MOL0     H53158   8.716  11.867   5.035 -0.2106  1.3146 -1.1704
  394MOL0     H53159   8.721  11.711   4.948 -0.4360  0.2446 -1.5093
  394MOL0     H53160   8.573  11.940   4.832  2.6154  2.8159  0.1537
  394MOL0     H53161   8.656  11.801   4.747  1.6619 -1.7237  1.3179
  394MOL0     H53162   8.873  11.897   4.795 -0.0142 -0.4153 -3.4389
  394MOL0     H53163   8.792  12.038   4.870 -1.5178 -0.8814 -0.2489
  394MOL0     H53164   8.744  11.960   4.586  2.8776  0.7298 -0.3435
  394MOL0     H53165   8.681  12.100   4.664  0.2947 -0.9264 -0.2840
  394MOL0     H53166   8.872  12.160   4.508  2.3174  1.5464  0.8633
  394MOL0     H53167   8.956  12.026   4.594 -0.8843  0.4472 -2.2958
  394MOL0     H53168   8.871  12.268   4.761 -0.6419 -1.7509  0.6577
  394MOL0     H53169   9.000  12.155   4.787 -0.3527 -2.1519 -0.6320
  394MOL0     H53170   8.182  11.604   5.244 -0.4795  0.7835  1.0787
  394MOL0     H53171   8.106  11.496   5.437  0.5849 -1.7973  4.1084
  394MOL0     H53172   8.245  11.366   5.879 -0.3045  0.5501 -0.4288
  394MOL0     H53173   8.170  11.238   6.085  1.1767  0.6569  1.2708
  394MOL0     H53174   6.237  11.175   6.960 -1.0444  0.5349  0.7799
  394MOL0     H53175   6.008  11.112   7.007  2.4064 -2.5014 -0.0815
  394MOL0     H53176   5.672  11.095   7.017 -1.1641  0.2887 -0.2949
  394MOL0     H53177   5.465  11.069   7.154  1.7929  2.8557 -2.7909
  394MOL0     H53178   5.207  10.727   7.060  0.5442  0.0787  0.2975
  394MOL0     H53179   5.109  10.858   7.107 -2.3909 -3.2107 -2.0456
  394MOL0     H53180   5.107  10.798   7.343  0.3279 -1.1354  1.8880
  394MOL0     H53181   5.246  10.687   7.325 -0.5862 -1.2192  1.7282
  394MOL0     H53182   5.132  10.519   7.222 -1.0389 -0.1825  1.0491
  394MOL0     H53183   4.997  10.615   7.176  1.2963 -0.1533 -1.5579
  394MOL0     H53184   4.939  10.460   7.381  0.9250 -1.5910 -0.9753
  394MOL0     H53185   5.079  10.525   7.462  1.7573  1.7512 -1.4237
  394MOL0     H53186   4.788  10.815   7.531  1.3776  1.3444  0.2985
  394MOL0     H53187   5.420  10.682   6.992  0.2743  0.6937  0.5867
  394MOL0     H53188   5.523  10.609   6.801 -3.1564  5.6245 -1.4419
  394MOL0     H53189   5.658  10.687   6.723 -0.1043 -1.8299 -0.8838
  394MOL0     H53190   5.688  10.608   6.875  0.1301 -1.5985 -2.5399
  395MOL0     O53191  10.601   1.255   2.676 -0.0530  0.1079 -0.0183
  395MOL0     C53192  10.696   1.245   2.605 -0.9073  0.9818 -1.0427
  395MOL0     O53193  10.749   1.124   2.562 -0.3899  1.0438  0.5982
  395MOL0     C53194  10.691   1.013   2.612  0.0807 -0.7414 -0.6104
  395MOL0     C53195  10.707   0.974   2.748 -0.9464  0.0135  0.1631
  395MOL0     C53196  10.665   0.850   2.796  0.6122 -0.6619  0.6044
  395MOL0     C53197  10.602   0.763   2.706 -0.0759  1.3881 -1.2075
  395MOL0     O53198  10.561   0.629   2.732 -0.1381  0.0454  0.0047
  395MOL0     C53199  10.604   0.555   2.843  0.3587  0.0585  0.2576
  395MOL0     C53200  10.554   0.409   2.832 -0.5197  0.7594  0.1860
  395MOL0     C53201  10.638   0.324   2.924 -0.1686 -0.4717 -0.2416
  395MOL0     C53202  10.596   0.175   2.922  0.1344 -0.7619 -0.7830
  395MOL0     C53203  10.689   0.086   3.007  1.1625 -0.1664 -0.3281
  395MOL0     C53204  10.786   0.013   2.912 -0.4227  0.5661 -0.0546
  395MOL0     C53205  10.879  -0.082   2.999  0.0330  0.2065  0.5308
  395MOL0     C53206  10.960  -0.011   3.103  0.6943  0.9240  0.0031
  395MOL0     N53207  11.022   0.115   3.062 -0.0686  0.3546  0.1509
  395MOL0     C53208  11.097   0.138   2.956 -0.6695 -0.0397  1.0015
  395MOL0     C53209  11.132   0.271   2.972 -0.2187 -0.2440  0.6790
  395MOL0     C53210  11.219   0.358   2.880 -0.5794  0.1166 -0.0511
  395MOL0     C53211  11.364   0.337   2.915  0.4331 -0.6078 -0.6346
  395MOL0     C53212  11.392   0.393   3.055  0.0204 -0.7940 -0.4092
  395MOL0     C53213  11.547   0.396   3.056 -0.8083  0.6025 -0.3847
  395MOL0     O53214  11.607   0.267   3.049 -0.0524 -0.2588  0.4126
  395MOL0     C53215  11.734   0.251   2.995  0.5449  0.6132 -0.7056
  395MOL0     C53216  11.754   0.279   2.857  0.3753  0.3979  0.1222
  395MOL0     C53217  11.884   0.270   2.810  0.8922 -0.1553 -0.2756
  395MOL0     C53218  11.991   0.214   2.887  0.2143  0.5815 -0.4741
  395MOL0     C53219  12.122   0.212   2.841  0.0969 -0.5673  0.0830
  395MOL0     O53220  12.213   0.226   2.941 -0.6819 -0.3046  0.4750
  395MOL0     C53221  12.351   0.201   2.916 -0.8241 -0.3965  0.5218
  395MOL0     C53222  12.441   0.287   2.970  0.0727  0.3783  0.6595
  395MOL0     C53223  12.576   0.268   2.940 -0.1150  0.0921 -0.2851
  395MOL0     C53224  12.620   0.158   2.858  0.8570  0.0835 -0.8728
  395MOL0     O53225  12.752   0.148   2.814  0.0624 -0.0415  0.2430
  395MOL0     C53226  12.824   0.267   2.787 -0.1267 -0.0274 -0.1864
  395MOL0     C53227  12.935   0.251   2.675  0.0463 -0.8670 -0.8225
  395MOL0     C53228  13.047   0.151   2.703  0.8677 -0.2402 -1.6186
  395MOL0     C53229  13.017   0.016   2.655  0.5427 -1.0913 -0.1435
  395MOL0     C53230  13.123  -0.095   2.701  0.0074  0.2137 -0.8344
  395MOL0     C53231  13.150  -0.107   2.851  0.0299  0.4146  0.2364
  395MOL0     C53232  13.235  -0.227   2.876  0.4061  0.0571  0.4282
  395MOL0     C53233  13.179  -0.356   2.834  0.0202 -0.9481 -0.0104
  395MOL0    Cl53234  13.021  -0.387   2.923 -0.1079 -0.2932 -0.1367
  395MOL0     C53235  12.524   0.065   2.812 -0.6081  0.1632 -0.4433
  395MOL0     C53236  12.394   0.093   2.841  0.2319  0.1732  0.1447
  395MOL0     O53237  12.147   0.200   2.723  0.1219  0.5455 -1.2375
  395MOL0     C53238  11.961   0.168   3.015  0.8863  0.0038  0.0607
  395MOL0     C53239  11.833   0.193   3.069 -0.2253 -0.3236 -0.2492
  395MOL0     N53240  11.066   0.316   3.081  0.5652  0.3002 -0.2940
  395MOL0     N53241  11.003   0.225   3.146  0.3523  0.6323  0.6100
  395MOL0     C53242  10.583   0.807   2.581 -0.6528  0.4112 -0.4526
  395MOL0     C53243  10.618   0.929   2.537 -0.5601  0.5557  0.1315
  395MOL0     C53244  10.766   1.366   2.556  0.7294  0.4986  0.6287
  395MOL0     C53245  10.867   1.338   2.456 -0.1317  0.2256 -0.3705
  395MOL0     C53246  10.955   1.435   2.415  0.0744 -0.3877 -0.5184
  395MOL0     C53247  10.946   1.564   2.474  0.3241  0.0219  0.9181
  395MOL0     O53248  11.036   1.662   2.443 -0.0195 -0.3099 -0.4306
  395MOL0     C53249  11.070   1.677   2.303 -0.6521 -0.6176  0.4782
  395MOL0     C53250  11.133   1.806   2.248  0.7187  1.1859 -0.3358
  395MOL0     C53251  11.271   1.834   2.305 -0.1504  0.3526 -0.3934
  395MOL0     C53252  11.383   1.763   2.229  0.9482  0.1060 -0.6183
  395MOL0     C53253  11.428   1.850   2.119 -0.3263 -1.1435  0.3687
  395MOL0     C53254  11.477   1.922   2.031 -0.0166  0.5939  0.1061
  395MOL0     C53255  10.841   1.600   2.562 -0.0731  2.0357  0.0759
  395MOL0     C53256  10.750   1.504   2.608 -0.0987 -0.1249 -0.0295
  395MOL0     C53257  10.644   1.553   2.694  0.4614  0.5283 -0.6033
  395MOL0     H53258  10.760   1.043   2.813 -2.3000  2.3785 -1.0990
  395MOL0     H53259  10.674   0.820   2.900 -2.1742  0.3117  1.2159
  395MOL0     H53260  10.713   0.552   2.841  0.3950 -3.5773 -0.5869
  395MOL0     H53261  10.563   0.593   2.937  1.5367 -0.3005  0.9409
  395MOL0     H53262  10.575   0.379   2.729  2.6267  0.6186  0.7598
  395MOL0     H53263  10.447   0.399   2.853 -0.3634 -2.0870  0.0176
  395MOL0     H53264  10.624   0.369   3.022  0.6894  0.5396 -0.5637
  395MOL0     H53265  10.738   0.342   2.884 -0.7344 -0.2186 -1.6317
  395MOL0     H53266  10.493   0.176   2.958 -0.1606  0.5356 -1.6142
  395MOL0     H53267  10.592   0.139   2.819 -3.4537  1.9014 -1.7515
  395MOL0     H53268  10.736   0.145   3.086  1.0837 -3.0611  2.0829
  395MOL0     H53269  10.633   0.004   3.053 -0.1202  0.1018 -1.3541
  395MOL0     H53270  10.734  -0.045   2.834 -0.8820 -0.3754  0.9289
  395MOL0     H53271  10.853   0.080   2.856  2.1741 -0.1450  1.9935
  395MOL0     H53272  10.948  -0.125   2.925 -0.6757 -0.4578  0.2371
  395MOL0     H53273  10.825  -0.167   3.042  0.1712 -0.3286 -0.3296
  395MOL0     H53274  10.894   0.008   3.188 -0.4121 -3.2035  0.2971
  395MOL0     H53275  11.034  -0.082   3.142 -1.1647  0.1169  2.3356
  395MOL0     H53276  11.122   0.069   2.876 -2.4402 -0.6650  0.9233
  395MOL0     H53277  11.212   0.345   2.771  1.8372  3.5545 -0.7731
  395MOL0     H53278  11.200   0.465   2.889 -1.8795 -0.1970  1.3202
  395MOL0     H53279  11.392   0.232   2.909  1.3139 -0.4358  0.1726
  395MOL0     H53280  11.432   0.390   2.848  0.2047  0.3324 -0.1481
  395MOL0     H53281  11.358   0.329   3.137 -2.7355 -0.8482 -1.4908
  395MOL0     H53282  11.355   0.496   3.058  2.3750  0.2903 -3.5038
  395MOL0     H53283  11.572   0.447   3.149 -2.5011 -0.3942  0.6792
  395MOL0     H53284  11.580   0.460   2.975 -1.5025 -0.5973 -1.6678
  395MOL0     H53285  11.676   0.324   2.798 -0.9939  0.2730  1.7635
  395MOL0     H53286  11.901   0.306   2.709 -0.1100  1.8211  0.2151
  395MOL0     H53287  12.407   0.365   3.037 -1.7529  2.1134 -2.0556
  395MOL0     H53288  12.654   0.331   2.982  0.8936 -0.4014 -1.3530
  395MOL0     H53289  12.770   0.349   2.740 -1.6312 -0.1107  1.2916
  395MOL0     H53290  12.873   0.309   2.875  0.0498  1.3056 -0.8925
  395MOL0     H53291  12.881   0.216   2.587  1.0909  1.4962 -2.4702
  395MOL0     H53292  12.976   0.349   2.652 -0.7887 -0.4497 -0.5683
  395MOL0     H53293  13.139   0.191   2.659  0.1812  0.8844 -2.0605
  395MOL0     H53294  13.071   0.151   2.810  0.0209 -2.4496 -1.3852
  395MOL0     H53295  13.006   0.008   2.546  1.4293 -1.4679 -0.2145
  395MOL0     H53296  12.927  -0.021   2.703  1.4275 -0.8745  1.7456
  395MOL0     H53297  13.219  -0.077   2.652 -0.4949 -2.6577 -3.1887
  395MOL0     H53298  13.078  -0.185   2.657 -0.7486  0.9945 -1.6855
  395MOL0     H53299  13.201  -0.020   2.893 -0.8086 -0.1929  2.6789
  395MOL0     H53300  13.059  -0.120   2.910 -1.7724 -5.5783 -3.0398
  395MOL0     H53301  13.255  -0.255   2.981  3.9339  0.3775 -0.0393
  395MOL0     H53302  13.331  -0.212   2.825 -0.6979  0.6340 -1.5503
  395MOL0     H53303  13.155  -0.346   2.728  1.7198  2.0796 -0.2352
  395MOL0     H53304  13.250  -0.436   2.855  0.2057 -0.5484  0.9723
  395MOL0     H53305  12.547  -0.022   2.752 -2.5985  0.4005 -1.6280
  395MOL0     H53306  12.317   0.037   2.789  1.3031 -0.5125 -0.7486
  395MOL0     H53307  12.031   0.125   3.085 -0.9843  0.0194  2.0491
  395MOL0     H53308  11.796   0.161   3.166  2.9957  0.8500  1.5187
  395MOL0     H53309  10.530   0.742   2.512  2.4732 -3.2718  0.2650
  395MOL0     H53310  10.608   0.961   2.433  0.0846  3.2487  0.8214
  395MOL0     H53311  10.867   1.241   2.408  0.2805 -0.3179  0.6903
  395MOL0     H53312  11.019   1.411   2.331  1.5628 -1.1740  0.7759
  395MOL0     H53313  10.984   1.642   2.245 -0.8144 -3.0926  2.0878
  395MOL0     H53314  11.147   1.599   2.299 -1.3683 -1.3383  0.4856
  395MOL0     H53315  11.065   1.887   2.276 -0.4828 -0.1953  0.8894
  395MOL0     H53316  11.136   1.797   2.139  1.4801 -2.2188 -0.1360
  395MOL0     H53317  11.266   1.793   2.406  0.0734 -2.2464 -1.3750
  395MOL0     H53318  11.291   1.940   2.326  3.1217 -0.0162 -1.0799
  395MOL0     H53319  11.471   1.747   2.292 -0.3369 -2.3413  0.7129
  395MOL0     H53320  11.345   1.665   2.200  1.3540 -0.8017  1.6843
  395MOL0     H53321  11.527   1.972   1.950  3.4446  1.0534  2.2803
  395MOL0     H53322  10.819   1.704   2.586 -0.1923  1.6492  1.7697
  395MOL0     H53323  10.621   1.485   2.776  1.2730  0.8282 -0.1205
  395MOL0     H53324  10.687   1.640   2.743 -2.5864  1.3308  0.9149
  395MOL0     H53325  10.561   1.581   2.628 -0.2289  0.5670  0.2658
  396MOL0     O53326   1.864   6.366   7.974  0.3526 -0.1019 -0.4274
  396MOL0     C53327   1.770   6.290   8.006 -0.4710 -0.4767 -0.4422
  396MOL0     O53328   1.772   6.156   7.980  0.0493  0.2082  0.9947
  396MOL0     C53329   1.885   6.076   7.949 -0.5070 -0.7813  0.0322
  396MOL0     C53330   1.869   5.940   7.976 -0.5549 -0.6410  0.7134
  396MOL0     C53331   1.974   5.851   7.940 -0.0216 -0.7597 -0.1689
  396MOL0     C53332   2.097   5.892   7.863  0.6703  0.3849 -0.4960
  396MOL0     O53333   2.198   5.804   7.826 -0.0077 -0.3236  0.0151
  396MOL0     C53334   2.153   5.665   7.824 -0.6429  0.8093  1.2240
  396MOL0     C53335   2.260   5.577   7.755 -1.0237 -0.1188 -0.5022
  396MOL0     C53336   2.401   5.563   7.824  0.0205  0.3901  0.1066
  396MOL0     C53337   2.474   5.432   7.782  0.7654  0.1839  0.6427
  396MOL0     C53338   2.617   5.410   7.845  0.2034 -1.7523  1.0193
  396MOL0     C53339   2.691   5.289   7.785 -0.3207  0.4846  0.4677
  396MOL0     C53340   2.810   5.235   7.862  0.2068  0.6104  0.6143
  396MOL0     C53341   2.890   5.126   7.786  0.0781 -0.4526  0.3338
  396MOL0     N53342   2.992   5.197   7.712 -0.8893  0.1304  0.0294
  396MOL0     C53343   3.102   5.251   7.773 -0.5901 -0.0625 -0.3536
  396MOL0     C53344   3.159   5.343   7.680  0.0300  0.6727  0.4314
  396MOL0     C53345   3.266   5.449   7.705 -0.3914 -0.8873  0.9109
  396MOL0     C53346   3.402   5.380   7.702 -0.3438 -0.0920 -0.1455
  396MOL0     C53347   3.439   5.325   7.566  0.8278  0.4187 -0.0269
  396MOL0     C53348   3.539   5.209   7.560  0.2273 -0.8588  0.0858
  396MOL0     O53349   3.544   5.171   7.426 -0.6197 -0.1393  0.3566
  396MOL0     C53350   3.666   5.110   7.387 -0.4937  0.0569  0.1997
  396MOL0     C53351   3.764   5.059   7.470  0.1681 -0.6972  0.9477
  396MOL0     C53352   3.881   4.992   7.423 -0.7315  0.0562  0.3706
  396MOL0     C53353   3.899   4.975   7.283 -0.3513 -0.4816 -0.4795
  396MOL0     C53354   4.015   4.904   7.226 -0.1856  1.1194 -0.1899
  396MOL0     O53355   4.016   4.907   7.093 -0.7642 -0.3936 -0.2448
  396MOL0     C53356   4.107   4.832   7.024  0.4166  0.5845 -0.3312
  396MOL0     C53357   4.185   4.883   6.921  0.6376  0.1420  0.2212
  396MOL0     C53358   4.260   4.798   6.837  0.4814  0.1262 -0.1675
  396MOL0     C53359   4.270   4.664   6.858  0.0957 -0.0188 -0.5115
  396MOL0     O53360   4.327   4.595   6.757 -0.1896 -0.0810 -0.1325
  396MOL0     C53361   4.363   4.457   6.767  1.5211  0.1511 -0.4132
  396MOL0     C53362   4.514   4.424   6.783 -0.6466  0.0574 -0.7763
  396MOL0     C53363   4.594   4.467   6.658 -0.3325  0.0954 -0.6749
  396MOL0     C53364   4.741   4.432   6.663  0.2546 -0.1822  0.3525
  396MOL0     C53365   4.816   4.499   6.540 -0.6566 -0.2656 -0.4838
  396MOL0     C53366   4.956   4.452   6.528 -0.3196  1.1154  0.4276
  396MOL0     C53367   4.987   4.302   6.537  0.0467  0.9505  0.3353
  396MOL0     C53368   5.131   4.273   6.511 -0.0462 -0.5259 -0.1783
  396MOL0    Cl53369   5.218   4.352   6.641  0.4471  0.3291  0.1823
  396MOL0     C53370   4.198   4.614   6.966  0.6659  0.4445 -1.3178
  396MOL0     C53371   4.117   4.701   7.042  0.0087  1.2791  1.0617
  396MOL0     O53372   4.089   4.837   7.302 -0.1791 -0.3653 -0.4183
  396MOL0     C53373   3.805   5.044   7.200  0.5676  0.9478 -1.1786
  396MOL0     C53374   3.690   5.107   7.252  0.7785  1.2545  0.0337
  396MOL0     N53375   3.082   5.334   7.568 -0.6600 -0.2756  0.7120
  396MOL0     N53376   2.977   5.254   7.586  0.7185  0.8411  1.1937
  396MOL0     C53377   2.102   6.029   7.834 -0.0251  0.6844 -0.9853
  396MOL0     C53378   2.007   6.119   7.882 -0.1252 -0.0210  0.1256
  396MOL0     C53379   1.648   6.340   8.073 -0.0899 -0.4078  0.5931
  396MOL0     C53380   1.550   6.250   8.123 -0.3084  0.8185 -0.5021
  396MOL0     C53381   1.440   6.286   8.204 -0.0584  0.6146  0.3792
  396MOL0     C53382   1.428   6.426   8.234 -0.4995  0.0111  0.0404
  396MOL0     O53383   1.305   6.442   8.288  0.6521 -0.9217 -0.0296
  396MOL0     C53384   1.239   6.575   8.265 -0.1968  0.9897  0.7030
  396MOL0     C53385   1.263   6.660   8.396  0.2625 -0.7271  0.6639
  396MOL0     C53386   1.197   6.601   8.525  0.3185 -1.0026  0.2778
  396MOL0     C53387   1.261   6.662   8.642  0.0956 -0.2745  0.1436
  396MOL0     C53388   1.227   6.572   8.757 -1.3898  0.1545  1.5584
  396MOL0     C53389   1.181   6.507   8.853  0.1270  0.3681  0.1314
  396MOL0     C53390   1.521   6.519   8.188 -0.2266 -0.3244 -0.0218
  396MOL0     C53391   1.628   6.476   8.114  0.4919 -0.9453 -0.0698
  396MOL0     C53392   1.720   6.594   8.078 -0.3624  0.1777  0.0360
  396MOL0     H53393   1.776   5.916   8.026 -1.4749 -0.7341 -0.9536
  396MOL0     H53394   1.957   5.748   7.971  0.6748 -1.0348 -0.6745
  396MOL0     H53395   2.143   5.619   7.923 -1.3385 -2.6431 -0.2913
  396MOL0     H53396   2.057   5.650   7.775  0.7565 -2.7381 -0.8448
  396MOL0     H53397   2.275   5.613   7.653  2.2625  3.7826  1.1008
  396MOL0     H53398   2.217   5.477   7.739 -0.9020  0.0016 -1.6336
  396MOL0     H53399   2.365   5.551   7.927  0.0421 -1.0531 -0.0254
  396MOL0     H53400   2.470   5.645   7.806 -2.4859  2.4107 -0.8379
  396MOL0     H53401   2.417   5.350   7.827 -0.8596  0.9008 -0.0730
  396MOL0     H53402   2.490   5.413   7.675  1.4409  3.2538  0.1176
  396MOL0     H53403   2.677   5.502   7.840  1.4561 -2.4208  2.6873
  396MOL0     H53404   2.615   5.383   7.950  3.2101 -2.6807  0.9373
  396MOL0     H53405   2.614   5.212   7.791 -0.9622  1.1017  0.2575
  396MOL0     H53406   2.721   5.308   7.682  0.7297  0.2075  0.7081
  396MOL0     H53407   2.777   5.201   7.961  1.0532 -0.6041  0.5107
  396MOL0     H53408   2.876   5.318   7.888 -0.4562  1.1786  0.5044
  396MOL0     H53409   2.933   5.049   7.850  0.7383  0.2815  0.7884
  396MOL0     H53410   2.827   5.067   7.718 -0.2294  0.9983 -0.6872
  396MOL0     H53411   3.134   5.246   7.877 -1.9950  0.1899  0.1127
  396MOL0     H53412   3.254   5.529   7.632 -2.0943 -1.2469  0.7628
  396MOL0     H53413   3.253   5.484   7.807  1.0611 -1.6679  1.3986
  396MOL0     H53414   3.490   5.436   7.737 -0.2991  1.0173 -1.9369
  396MOL0     H53415   3.393   5.296   7.771 -1.0437  0.6026  0.6318
  396MOL0     H53416   3.480   5.405   7.503  3.2500 -0.2556  0.5874
  396MOL0     H53417   3.348   5.286   7.518 -1.0956  3.2410  1.0284
  396MOL0     H53418   3.503   5.120   7.612  0.0371 -0.8368 -0.0082
  396MOL0     H53419   3.632   5.242   7.608  1.1960 -1.8586 -1.0596
  396MOL0     H53420   3.743   5.062   7.577  1.2269  0.6400  1.1319
  396MOL0     H53421   3.955   4.954   7.492 -0.9411  1.1569  1.2356
  396MOL0     H53422   4.170   4.989   6.911  0.1307  0.2414  1.8361
  396MOL0     H53423   4.300   4.825   6.741 -1.2353 -0.5119 -1.1073
  396MOL0     H53424   4.315   4.405   6.850  1.9875  5.3952  3.6833
  396MOL0     H53425   4.324   4.403   6.680  0.1363 -0.2372  0.4148
  396MOL0     H53426   4.561   4.480   6.864 -0.1356 -2.6202  0.8714
  396MOL0     H53427   4.522   4.320   6.813  0.5558  0.4643  0.4408
  396MOL0     H53428   4.553   4.433   6.562  0.9318  0.7125 -1.4636
  396MOL0     H53429   4.588   4.576   6.646  2.3415  0.2456 -1.2375
  396MOL0     H53430   4.742   4.323   6.653 -2.4058 -0.0341 -3.3219
  396MOL0     H53431   4.785   4.445   6.763 -0.2687 -0.8953  0.6839
  396MOL0     H53432   4.823   4.608   6.551  0.2481 -0.3267 -0.3610
  396MOL0     H53433   4.764   4.476   6.447 -1.0574  2.8939 -1.1518
  396MOL0     H53434   4.998   4.484   6.433  1.9111 -2.8117 -0.1099
  396MOL0     H53435   5.013   4.505   6.605  2.3036 -1.0530  0.1353
  396MOL0     H53436   4.936   4.239   6.462  1.3644 -0.1215  0.3021
  396MOL0     H53437   4.965   4.262   6.636  0.9943  0.8998  0.5365
  396MOL0     H53438   5.151   4.166   6.513  0.3862 -0.5014 -1.9622
  396MOL0     H53439   5.173   4.301   6.415 -0.4118 -2.3746 -0.9167
  396MOL0     H53440   4.186   4.508   6.985  1.6514  0.6713  0.7566
  396MOL0     H53441   4.065   4.662   7.129  1.4661 -1.1648  0.9144
  396MOL0     H53442   3.821   5.025   7.094 -0.7763 -4.3733 -0.7091
  396MOL0     H53443   3.604   5.144   7.197 -2.1862 -2.4601  1.7004
  396MOL0     H53444   2.191   6.060   7.780 -0.6449 -0.2813 -2.6520
  396MOL0     H53445   2.017   6.226   7.870 -1.3950  0.4853  2.8498
  396MOL0     H53446   1.555   6.143   8.104  0.4111  0.0751  3.1423
  396MOL0     H53447   1.367   6.210   8.232  1.3337 -1.4540 -1.2300
  396MOL0     H53448   1.133   6.553   8.246 -0.2690  1.3823  0.6397
  396MOL0     H53449   1.283   6.623   8.177 -0.7507  1.0572  0.4578
  396MOL0     H53450   1.210   6.752   8.371 -0.5009 -1.3319  0.0089
  396MOL0     H53451   1.370   6.679   8.408  0.1004  0.7994 -0.1423
  396MOL0     H53452   1.211   6.493   8.526  1.5274 -0.8675 -0.6074
  396MOL0     H53453   1.091   6.630   8.516  0.1182 -1.7461  0.1582
  396MOL0     H53454   1.368   6.661   8.618 -0.3152 -2.7406 -2.1678
  396MOL0     H53455   1.226   6.764   8.659 -2.7308 -1.1341 -0.0359
  396MOL0     H53456   1.157   6.465   8.949 -0.4539 -0.4467 -0.3679
  396MOL0     H53457   1.506   6.623   8.211 -1.3867 -0.7703  1.3769
  396MOL0     H53458   1.808   6.594   8.143  0.7355  0.8753 -1.4196
  396MOL0     H53459   1.763   6.583   7.978  0.9222 -3.9301  0.8758
  396MOL0     H53460   1.673   6.693   8.082  0.6446  0.8414 -2.5916
  397MOL0     O53461   2.034  11.008   4.259 -0.2451  0.7421 -0.0049
  397MOL0     C53462   2.139  10.949   4.219  0.7541 -0.3966  0.8312
  397MOL0     O53463   2.142  10.830   4.149 -0.1069  0.4105  0.0478
  397MOL0     C53464   2.027  10.768   4.121  0.3959 -0.7629 -0.6027
  397MOL0     C53465   1.948  10.718   4.218  0.1411 -0.1924  0.5298
  397MOL0     C53466   1.829  10.657   4.181 -0.0388 -0.2520 -0.0119
  397MOL0     C53467   1.787  10.654   4.046 -0.1305  1.6994  0.9038
  397MOL0     O53468   1.674  10.590   3.994  0.7584 -0.3730 -0.7519
  397MOL0     C53469   1.636  10.468   4.063 -0.6048 -1.8253 -0.3346
  397MOL0     C53470   1.513  10.402   4.003  0.1141 -0.7762 -0.2059
  397MOL0     C53471   1.397  10.409   4.095  0.9547  0.4651 -0.2382
  397MOL0     C53472   1.280  10.367   4.018 -0.1228  0.6183  0.6945
  397MOL0     C53473   1.165  10.313   4.103  0.1448  0.0717 -0.3159
  397MOL0     C53474   1.045  10.260   4.025  0.1731 -0.2723  0.2899
  397MOL0     C53475   0.968  10.354   3.934  0.3964 -0.6285 -0.4097
  397MOL0     C53476   0.836  10.278   3.896  0.9838  0.7598 -0.6268
  397MOL0     N53477   0.766  10.330   3.778  0.0218  0.3845 -0.5224
  397MOL0     C53478   0.751  10.461   3.750 -0.4075 -0.8052  0.0012
  397MOL0     C53479   0.661  10.472   3.650 -0.4056  0.7840  0.1211
  397MOL0     C53480   0.597  10.598   3.594 -0.5928  0.0945 -0.2069
  397MOL0     C53481   0.681  10.726   3.601 -0.3602  0.6907 -0.1071
  397MOL0     C53482   0.801  10.725   3.501 -0.3454 -0.3633 -0.5455
  397MOL0     C53483   0.852  10.868   3.470  0.0227  0.9087  0.1866
  397MOL0     O53484   0.955  10.855   3.374  0.2586  1.1194  0.6400
  397MOL0     C53485   1.055  10.947   3.383  0.3676  0.5210 -0.0104
  397MOL0     C53486   1.057  11.084   3.423 -0.0867  0.4507  0.0360
  397MOL0     C53487   1.175  11.161   3.421  0.0357 -0.0943  0.1564
  397MOL0     C53488   1.295  11.106   3.368  0.2754 -0.2455 -0.0170
  397MOL0     C53489   1.415  11.187   3.366 -0.0388 -0.6994 -1.0689
  397MOL0     O53490   1.409  11.318   3.334 -0.7550 -0.4548  0.3760
  397MOL0     C53491   1.522  11.400   3.311  1.2239 -0.7329  0.4144
  397MOL0     C53492   1.622  11.361   3.219 -0.2336  0.3497  0.5083
  397MOL0     C53493   1.740  11.437   3.190  0.0854  0.0544 -0.4955
  397MOL0     C53494   1.749  11.568   3.241  0.0652  0.1853 -0.4084
  397MOL0     O53495   1.860  11.656   3.230 -0.1593 -0.0792  0.6459
  397MOL0     C53496   1.936  11.666   3.111 -0.9010 -0.7125  0.5691
  397MOL0     C53497   1.901  11.792   3.040  0.3234 -0.4113  0.1004
  397MOL0     C53498   1.967  11.802   2.899  0.0725 -0.0809  0.5220
  397MOL0     C53499   1.942  11.941   2.845 -0.2811 -0.2610  0.6824
  397MOL0     C53500   1.817  11.946   2.754 -0.0703 -0.2958  0.4659
  397MOL0     C53501   1.758  12.079   2.745  1.0623  0.8809 -0.1687
  397MOL0     C53502   1.631  12.083   2.663  0.8756 -0.6073  0.3073
  397MOL0     C53503   1.602  12.225   2.622 -0.3620 -0.0654 -0.7788
  397MOL0    Cl53504   1.508  12.208   2.471  0.8480 -0.3784  0.4206
  397MOL0     C53505   1.655  11.605   3.338 -0.1263  0.5151 -0.5164
  397MOL0     C53506   1.547  11.521   3.373  0.7492  0.2386  0.5530
  397MOL0     O53507   1.521  11.125   3.384 -1.2482 -0.5768 -0.8803
  397MOL0     C53508   1.291  10.975   3.324  0.1438  0.1970  0.0293
  397MOL0     C53509   1.176  10.892   3.331  0.5491  0.3544 -0.1448
  397MOL0     N53510   0.624  10.337   3.623  0.0022  0.5279  0.0823
  397MOL0     N53511   0.679  10.251   3.708 -0.1776 -0.0800  0.9501
  397MOL0     C53512   1.875  10.714   3.957  0.1350  0.0542  1.2070
  397MOL0     C53513   1.996  10.766   3.993 -0.8679  0.4761 -0.3545
  397MOL0     C53514   2.265  11.029   4.212  0.0135 -0.3541  0.2495
  397MOL0     C53515   2.368  10.983   4.133 -0.8372 -0.0853  0.1719
  397MOL0     C53516   2.486  11.056   4.109 -0.1944 -0.5155  0.2984
  397MOL0     C53517   2.508  11.183   4.178  1.1108  0.2719  0.4778
  397MOL0     O53518   2.627  11.251   4.154 -0.5125 -0.1737  0.9436
  397MOL0     C53519   2.624  11.403   4.146  0.4832  0.1362 -0.0362
  397MOL0     C53520   2.708  11.469   4.040 -0.1885  0.4078  0.2182
  397MOL0     C53521   2.860  11.467   4.096 -0.8688  0.3912  0.8252
  397MOL0     C53522   2.940  11.336   4.085  1.0294 -0.5624 -0.2814
  397MOL0     C53523   3.087  11.368   4.084  0.6637 -0.5494  1.0243
  397MOL0     C53524   3.201  11.401   4.096  0.0118  0.2397  0.5475
  397MOL0     C53525   2.403  11.222   4.264 -0.1869 -0.0202  0.5397
  397MOL0     C53526   2.286  11.151   4.285 -0.5714 -0.6126  0.2221
  397MOL0     C53527   2.184  11.212   4.382  0.4932  0.3911  0.8540
  397MOL0     H53528   1.993  10.733   4.316  1.0694  2.7072 -0.2503
  397MOL0     H53529   1.770  10.609   4.257  1.4065  0.3856  1.5702
  397MOL0     H53530   1.730  10.413   4.073  3.0044  3.8187  1.3567
  397MOL0     H53531   1.610  10.492   4.167 -2.0325 -0.1863 -1.0241
  397MOL0     H53532   1.544  10.304   3.967  3.1270 -0.8430  2.0796
  397MOL0     H53533   1.491  10.460   3.913  1.1300  1.2301  0.7477
  397MOL0     H53534   1.389  10.511   4.134 -0.9569  0.9257 -1.6740
  397MOL0     H53535   1.403  10.339   4.178 -0.7370 -3.7271 -3.3066
  397MOL0     H53536   1.246  10.458   3.967 -0.4335 -0.6853 -1.5795
  397MOL0     H53537   1.304  10.286   3.949 -0.8653  0.1575  0.9580
  397MOL0     H53538   1.187  10.237   4.179 -0.6919  0.8140  0.6947
  397MOL0     H53539   1.143  10.401   4.164 -1.3206  0.4813 -1.4072
  397MOL0     H53540   1.079  10.174   3.966  3.6021  0.4994  0.8957
  397MOL0     H53541   0.969  10.232   4.099  0.0281  1.9008  1.0201
  397MOL0     H53542   1.030  10.389   3.851 -0.3291  0.8473 -0.3575
  397MOL0     H53543   0.946  10.450   3.981 -0.0471  0.0308 -1.9136
  397MOL0     H53544   0.851  10.172   3.876  1.1077  0.7714 -0.5920
  397MOL0     H53545   0.765  10.281   3.979  2.3303 -0.0155  0.5979
  397MOL0     H53546   0.787  10.551   3.799  0.7246 -0.6231 -1.1104
  397MOL0     H53547   0.579  10.589   3.486 -3.2383  1.0838  0.0760
  397MOL0     H53548   0.505  10.613   3.652 -0.2964 -2.8500  1.1863
  397MOL0     H53549   0.615  10.809   3.574  0.9292  2.4590  1.8789
  397MOL0     H53550   0.721  10.727   3.703  0.1047 -3.0782 -0.0975
  397MOL0     H53551   0.771  10.679   3.406 -1.2386  1.9602 -1.4618
  397MOL0     H53552   0.877  10.658   3.541 -2.1409 -3.0506 -1.3411
  397MOL0     H53553   0.877  10.910   3.567 -1.5637 -0.6875  1.3500
  397MOL0     H53554   0.774  10.932   3.429  1.6170  2.8797  0.0864
  397MOL0     H53555   0.968  11.129   3.467  0.3839  1.7111 -0.2698
  397MOL0     H53556   1.179  11.260   3.465 -1.8503  0.3767 -0.6102
  397MOL0     H53557   1.630  11.268   3.165  1.6858  1.4554 -1.2678
  397MOL0     H53558   1.828  11.402   3.138 -0.6176 -2.3282 -0.1720
  397MOL0     H53559   2.043  11.676   3.132 -1.2064  1.0942  1.4664
  397MOL0     H53560   1.930  11.582   3.042 -1.1170 -2.6612  2.8305
  397MOL0     H53561   1.793  11.795   3.020  0.9565  1.2167 -4.4770
  397MOL0     H53562   1.931  11.880   3.098  1.4804 -0.9767  0.3799
  397MOL0     H53563   2.074  11.788   2.912  0.5567  0.4582 -2.3682
  397MOL0     H53564   1.936  11.719   2.835  1.8975  0.0634 -0.5993
  397MOL0     H53565   2.020  11.974   2.775  0.9930 -0.3101  2.0260
  397MOL0     H53566   1.946  12.000   2.937  2.1916 -1.3598  1.3693
  397MOL0     H53567   1.750  11.864   2.781  0.0699 -0.6054 -0.1086
  397MOL0     H53568   1.847  11.908   2.656  6.5979 -0.9021  2.2905
  397MOL0     H53569   1.744  12.119   2.846  1.9329  1.4868 -0.2821
  397MOL0     H53570   1.833  12.141   2.695 -0.5347  2.2761 -0.9420
  397MOL0     H53571   1.549  12.049   2.727  2.5830 -1.7946  1.9814
  397MOL0     H53572   1.637  12.015   2.578  0.7672 -0.4917  0.2079
  397MOL0     H53573   1.551  12.278   2.703 -1.1129 -0.5083 -0.9518
  397MOL0     H53574   1.683  12.296   2.600  1.2745 -1.7195 -0.2996
  397MOL0     H53575   1.684  11.689   3.401 -2.6376  0.2444  1.1518
  397MOL0     H53576   1.475  11.544   3.451 -1.5433  0.5169 -1.5289
  397MOL0     H53577   1.383  10.932   3.285 -0.6838 -1.1712 -0.4862
  397MOL0     H53578   1.179  10.793   3.287  0.0438 -0.8268  2.3013
  397MOL0     H53579   1.855  10.709   3.851  1.9961 -2.3044  0.8888
  397MOL0     H53580   2.058  10.797   3.909 -1.0731 -3.1392 -2.0629
  397MOL0     H53581   2.370  10.894   4.071 -0.7639  0.7221 -1.0239
  397MOL0     H53582   2.566  11.015   4.048 -0.3345 -1.5020  0.7554
  397MOL0     H53583   2.646  11.428   4.251 -1.3250  1.2065  0.1461
  397MOL0     H53584   2.519  11.430   4.130  0.4236  2.0501  2.6922
  397MOL0     H53585   2.678  11.574   4.037 -0.8724  0.1964 -1.0785
  397MOL0     H53586   2.700  11.406   3.951 -0.0547  1.7677 -0.7816
  397MOL0     H53587   2.869  11.515   4.194 -1.6763  1.0099  0.6070
  397MOL0     H53588   2.912  11.538   4.032 -0.3623  1.6774  2.5866
  397MOL0     H53589   2.925  11.261   4.164  0.4224  0.7960  0.9329
  397MOL0     H53590   2.927  11.297   3.984  1.4428 -2.1787  0.2621
  397MOL0     H53591   3.300  11.437   4.119  1.7502 -4.0968  0.8059
  397MOL0     H53592   2.425  11.306   4.330  1.2483 -1.8136  2.4754
  397MOL0     H53593   2.145  11.143   4.457  0.4703  1.0797  1.4855
  397MOL0     H53594   2.207  11.308   4.429 -1.7480  0.7275  1.3775
  397MOL0     H53595   2.101  11.242   4.317  0.1897 -0.3598  0.8842
  398MOL0     O53596  11.161   8.950   3.283  0.4384 -0.4178  0.2192
  398MOL0     C53597  11.079   8.934   3.367 -0.5612  0.7133  0.0391
  398MOL0     O53598  11.103   8.939   3.506 -0.6357  0.1616 -0.7843
  398MOL0     C53599  11.225   8.981   3.562 -0.2453  0.5004 -1.6222
  398MOL0     C53600  11.251   8.928   3.689 -0.0247 -0.1104 -0.1751
  398MOL0     C53601  11.359   8.971   3.764 -0.0219  0.3984 -0.0765
  398MOL0     C53602  11.455   9.065   3.708 -0.3559  0.6038 -0.8732
  398MOL0     O53603  11.557   9.090   3.800  0.5117 -0.6217 -0.0939
  398MOL0     C53604  11.643   9.204   3.774  0.3471  0.8987  0.1847
  398MOL0     C53605  11.605   9.293   3.896  0.7347  0.0423 -0.4040
  398MOL0     C53606  11.630   9.223   4.034 -0.0714 -0.8702 -0.3454
  398MOL0     C53607  11.612   9.327   4.151 -0.5959  0.2274 -0.9212
  398MOL0     C53608  11.607   9.253   4.285 -0.1026 -0.7491  0.2561
  398MOL0     C53609  11.740   9.192   4.331  0.0982 -0.2551  0.1958
  398MOL0     C53610  11.773   9.041   4.298  0.0519 -0.2999  0.0166
  398MOL0     C53611  11.921   9.016   4.322 -0.1564  0.3263  0.0242
  398MOL0     N53612  11.982   8.886   4.277 -0.0061 -0.0280 -0.8787
  398MOL0     C53613  11.956   8.827   4.161 -0.1033  0.8876  0.1054
  398MOL0     C53614  12.029   8.714   4.169 -0.4544 -0.0782  0.2316
  398MOL0     C53615  12.033   8.594   4.077 -0.3147 -1.0590  0.7175
  398MOL0     C53616  12.172   8.584   4.016  0.0856 -0.2881  0.4389
  398MOL0     C53617  12.180   8.505   3.874 -0.0185  1.1001 -0.1024
  398MOL0     C53618  12.317   8.499   3.807 -0.5924  0.7028  1.1037
  398MOL0     O53619  12.395   8.407   3.886  0.1110 -0.7163 -0.0606
  398MOL0     C53620  12.531   8.422   3.890 -0.0434  0.2742 -0.7755
  398MOL0     C53621  12.611   8.499   3.800 -0.1879  0.5203 -1.0632
  398MOL0     C53622  12.758   8.515   3.817  0.4331 -1.4389  1.0674
  398MOL0     C53623  12.824   8.450   3.921  0.3848  0.0915 -0.7952
  398MOL0     C53624  12.971   8.476   3.947 -0.9032 -0.0479  0.5490
  398MOL0     O53625  13.022   8.395   4.045 -0.7815  0.5348  0.2127
  398MOL0     C53626  13.138   8.431   4.105 -0.4318  0.6827 -0.4219
  398MOL0     C53627  13.253   8.359   4.073  0.4013  0.5756  0.1097
  398MOL0     C53628  13.376   8.400   4.122 -0.0498  0.2819  0.2942
  398MOL0     C53629  13.399   8.513   4.192  0.1829 -0.0761  0.8946
  398MOL0     O53630  13.529   8.544   4.213  1.1156  0.3430 -0.4265
  398MOL0     C53631  13.568   8.686   4.228  0.2458  0.4610  0.1876
  398MOL0     C53632  13.717   8.697   4.240 -0.1241  0.4124  0.7163
  398MOL0     C53633  13.780   8.685   4.097 -0.6568  0.2887 -0.3533
  398MOL0     C53634  13.935   8.727   4.101 -0.8721  0.3889 -0.4351
  398MOL0     C53635  14.036   8.641   4.183  0.7523 -0.2485 -0.5778
  398MOL0     C53636  14.187   8.650   4.140 -1.0163  0.2122 -0.4315
  398MOL0     C53637  14.207   8.609   3.993 -0.1289  0.4778 -0.1258
  398MOL0     C53638  14.347   8.556   3.985 -1.0163 -0.2087 -0.2918
  398MOL0    Cl53639  14.361   8.484   3.821  0.2587 -0.2656  0.0967
  398MOL0     C53640  13.279   8.590   4.218  0.3524 -0.5460  0.3936
  398MOL0     C53641  13.156   8.549   4.177 -0.1378  0.1418 -0.5358
  398MOL0     O53642  13.026   8.575   3.906 -0.0512  0.0557  0.3700
  398MOL0     C53643  12.741   8.375   4.010  0.0357  0.1968 -0.4123
  398MOL0     C53644  12.601   8.362   3.995  0.2900 -0.1422 -0.2083
  398MOL0     N53645  12.101   8.708   4.286 -0.1307 -0.6186 -0.1238
  398MOL0     N53646  12.075   8.817   4.346  0.6492  0.8154 -1.4226
  398MOL0     C53647  11.436   9.101   3.578 -0.0124  0.6551  0.3400
  398MOL0     C53648  11.328   9.057   3.507  0.6818  0.6496  0.4742
  398MOL0     C53649  10.944   8.905   3.324 -0.5030 -0.5088 -1.2446
  398MOL0     C53650  10.847   8.896   3.426 -0.1698  0.8123 -0.2230
  398MOL0     C53651  10.716   8.869   3.409 -0.3344  0.2264  0.5570
  398MOL0     C53652  10.668   8.856   3.273 -0.0113 -0.4824 -0.1736
  398MOL0     O53653  10.544   8.812   3.240 -0.2555 -0.7919  0.0017
  398MOL0     C53654  10.442   8.867   3.318  0.5288 -0.5800  0.3050
  398MOL0     C53655  10.395   9.009   3.263 -0.2626  0.7907 -0.2376
  398MOL0     C53656  10.276   9.069   3.352  0.8030 -0.1545 -0.4965
  398MOL0     C53657  10.148   9.103   3.264 -0.2493  1.0068 -0.3692
  398MOL0     C53658  10.170   9.174   3.142 -0.1004  0.6039 -0.2656
  398MOL0     C53659  10.175   9.220   3.030 -0.2647 -0.3020 -0.4642
  398MOL0     C53660  10.742   8.889   3.171  0.0232 -0.3042  1.2727
  398MOL0     C53661  10.887   8.923   3.194 -0.3181  0.3818  0.3291
  398MOL0     C53662  10.965   8.951   3.072 -0.3442 -0.3643 -0.6762
  398MOL0     H53663  11.188   8.849   3.729 -0.4894  0.9532  1.2940
  398MOL0     H53664  11.372   8.932   3.865 -2.2841 -1.0430 -0.2667
  398MOL0     H53665  11.745   9.165   3.779 -0.5438 -1.6953 -0.6867
  398MOL0     H53666  11.622   9.263   3.684 -0.7763  1.5180  0.8265
  398MOL0     H53667  11.502   9.317   3.868  0.8645 -2.0799 -3.1984
  398MOL0     H53668  11.668   9.382   3.886  3.0884 -0.9308  3.6809
  398MOL0     H53669  11.733   9.187   4.033  1.4432  2.9964 -1.8576
  398MOL0     H53670  11.563   9.138   4.052 -1.0489  0.2761  1.7555
  398MOL0     H53671  11.687   9.407   4.152 -2.2976  1.9542 -2.3843
  398MOL0     H53672  11.522   9.388   4.136 -0.0680  2.4495  3.2779
  398MOL0     H53673  11.576   9.315   4.370  1.1599  0.4247 -0.0948
  398MOL0     H53674  11.533   9.173   4.281 -0.3297 -0.5158 -0.4031
  398MOL0     H53675  11.825   9.251   4.293  0.6959 -1.6867 -0.7625
  398MOL0     H53676  11.744   9.205   4.439 -1.1714 -0.5266  0.2884
  398MOL0     H53677  11.752   9.017   4.193 -1.1235 -2.8800  0.7532
  398MOL0     H53678  11.712   8.978   4.363 -0.0006  1.2217  1.5165
  398MOL0     H53679  11.985   9.099   4.291  1.0560  1.5801  4.8860
  398MOL0     H53680  11.935   9.028   4.430  0.9251  0.2624 -0.0999
  398MOL0     H53681  11.878   8.861   4.094 -1.2217  3.2976  2.4519
  398MOL0     H53682  12.015   8.497   4.123 -0.0409 -1.7595 -0.5805
  398MOL0     H53683  11.955   8.599   4.001 -1.9168  1.1554  2.3760
  398MOL0     H53684  12.216   8.680   3.991  1.1645 -1.0490 -0.6809
  398MOL0     H53685  12.249   8.548   4.085  0.6566  1.1052  0.5607
  398MOL0     H53686  12.099   8.538   3.808 -0.1751 -3.1922 -2.3938
  398MOL0     H53687  12.156   8.398   3.878  1.5564  0.7475  0.4165
  398MOL0     H53688  12.372   8.594   3.810 -0.0179  0.4417 -0.3497
  398MOL0     H53689  12.309   8.471   3.702  0.0489  2.6312  0.4793
  398MOL0     H53690  12.557   8.564   3.732 -2.0209  0.1994  0.0131
  398MOL0     H53691  12.811   8.586   3.754 -0.7244 -0.5372  1.0983
  398MOL0     H53692  13.248   8.280   4.000  5.1491  1.3053 -1.3273
  398MOL0     H53693  13.464   8.339   4.102 -1.4251 -2.9539  2.9708
  398MOL0     H53694  13.529   8.751   4.149  0.4638  0.6394  0.2250
  398MOL0     H53695  13.515   8.708   4.321 -0.4582  1.5664 -0.4426
  398MOL0     H53696  13.751   8.792   4.283  0.0605  1.5173 -1.6802
  398MOL0     H53697  13.759   8.623   4.308 -0.1055 -0.7893 -0.5611
  398MOL0     H53698  13.761   8.584   4.059  0.1923 -0.1506  0.3466
  398MOL0     H53699  13.732   8.754   4.027 -0.2882  0.6242 -0.2756
  398MOL0     H53700  13.955   8.827   4.141 -0.4992  0.3695 -0.5756
  398MOL0     H53701  13.974   8.721   3.999  0.9613 -1.5603  0.3090
  398MOL0     H53702  14.001   8.537   4.188  1.8223 -0.5599  1.2052
  398MOL0     H53703  14.025   8.673   4.287  0.6771  0.6063 -0.8441
  398MOL0     H53704  14.237   8.744   4.166  0.0628 -1.3097  3.9436
  398MOL0     H53705  14.241   8.581   4.205  0.0557  1.3262 -0.1057
  398MOL0     H53706  14.198   8.700   3.934 -1.9326 -0.6387 -1.6884
  398MOL0     H53707  14.132   8.542   3.951  1.2074 -0.3776 -1.2276
  398MOL0     H53708  14.425   8.631   3.999 -0.0655 -0.8210 -1.9232
  398MOL0     H53709  14.362   8.467   4.046  1.8457  1.3266  1.4492
  398MOL0     H53710  13.303   8.685   4.264 -0.2762  1.3928 -2.9346
  398MOL0     H53711  13.064   8.599   4.206 -0.0451  0.0766 -0.1284
  398MOL0     H53712  12.780   8.308   4.086 -0.8799 -1.6503 -1.5137
  398MOL0     H53713  12.539   8.293   4.051  2.7195 -0.4067  2.3407
  398MOL0     H53714  11.519   9.159   3.540  2.1138 -0.6938  2.5505
  398MOL0     H53715  11.336   9.085   3.403 -2.5412  0.5389  0.1023
  398MOL0     H53716  10.867   8.905   3.532  3.0983  2.1969 -0.8639
  398MOL0     H53717  10.655   8.850   3.497  0.0540 -0.6007  0.6606
  398MOL0     H53718  10.472   8.865   3.423 -0.2630 -0.9868  0.5390
  398MOL0     H53719  10.347   8.816   3.297  0.6355  0.0843 -2.0699
  398MOL0     H53720  10.359   8.981   3.164  0.7140 -2.4796  0.2035
  398MOL0     H53721  10.483   9.073   3.253  0.9258 -1.2132 -5.6920
  398MOL0     H53722  10.319   9.163   3.390 -0.8875  0.0623  1.0094
  398MOL0     H53723  10.255   9.001   3.436 -1.0522  1.1853  0.1923
  398MOL0     H53724  10.093   9.010   3.247  1.4351  0.0812 -1.0145
  398MOL0     H53725  10.079   9.166   3.321  1.4934  1.1051  1.7757
  398MOL0     H53726  10.172   9.243   2.926 -1.7815 -2.0245 -0.8517
  398MOL0     H53727  10.711   8.883   3.067  1.4455 -1.1455  0.8678
  398MOL0     H53728  10.981   9.059   3.070 -1.0514 -0.1170  2.4018
  398MOL0     H53729  11.061   8.899   3.080 -0.9216 -1.7864 -2.4263
  398MOL0     H53730  10.922   8.926   2.975  2.4321 -1.3795 -1.7489
  399MOL0     O53731   2.059   8.135   3.996 -0.2745  0.1895  0.1938
  399MOL0     C53732   2.107   8.028   3.976  0.4469  0.2037  0.7686
  399MOL0     O53733   2.040   7.911   3.953  0.2484  0.2736  0.3699
  399MOL0     C53734   1.901   7.915   3.960  0.1939  0.0606 -0.6951
  399MOL0     C53735   1.827   8.001   3.879  0.5686 -0.3624 -0.0380
  399MOL0     C53736   1.687   7.993   3.867 -0.7920 -0.2378  0.1561
  399MOL0     C53737   1.622   7.889   3.927  0.0109  0.5919  0.8801
  399MOL0     O53738   1.482   7.888   3.888 -0.3389 -0.0057  0.7987
  399MOL0     C53739   1.405   8.005   3.919 -0.0588 -0.0266 -0.5182
  399MOL0     C53740   1.262   7.990   3.899 -0.7001 -0.0036 -0.8183
  399MOL0     C53741   1.205   7.867   3.977  0.2650  0.0629 -0.3313
  399MOL0     C53742   1.203   7.880   4.132  0.1994 -0.4972  1.7603
  399MOL0     C53743   1.079   7.819   4.172 -0.3494 -0.5970  0.2150
  399MOL0     C53744   1.069   7.807   4.320  0.6600  1.0416 -0.1900
  399MOL0     C53745   0.960   7.705   4.366 -0.9374  0.1797 -0.2715
  399MOL0     C53746   0.993   7.635   4.503  0.2777 -0.2355 -0.4790
  399MOL0     N53747   1.038   7.723   4.610 -0.5860 -0.6029  0.3821
  399MOL0     C53748   0.949   7.777   4.704 -0.5581  0.1347  0.1867
  399MOL0     C53749   1.025   7.864   4.779  0.6594  0.6449  0.3052
  399MOL0     C53750   0.969   7.938   4.894  1.0621 -0.0353  0.0938
  399MOL0     C53751   0.907   7.853   5.009  0.8957 -0.3786  0.6273
  399MOL0     C53752   0.998   7.751   5.077 -0.3356 -0.3164 -0.3780
  399MOL0     C53753   1.116   7.822   5.120  0.4096 -0.0630 -0.4246
  399MOL0     O53754   1.105   7.906   5.236  0.2709 -0.1904  0.5371
  399MOL0     C53755   1.217   7.968   5.293  0.5236  0.6902  0.6387
  399MOL0     C53756   1.342   7.961   5.234 -0.0092 -0.6363  0.5126
  399MOL0     C53757   1.450   8.026   5.296 -0.6149 -0.1345  0.3544
  399MOL0     C53758   1.434   8.094   5.419 -1.0693 -0.3709  0.3958
  399MOL0     C53759   1.548   8.175   5.479  0.3209  0.6026 -1.0737
  399MOL0     O53760   1.657   8.190   5.403 -0.1749 -0.0198 -0.7866
  399MOL0     C53761   1.760   8.271   5.427  0.7543 -0.7536 -0.4868
  399MOL0     C53762   1.769   8.364   5.533  0.6350 -1.1617 -0.0189
  399MOL0     C53763   1.877   8.446   5.545  1.0422 -0.2118  0.6952
  399MOL0     C53764   1.987   8.436   5.461  0.0207 -0.2650  0.2327
  399MOL0     O53765   2.100   8.511   5.499 -0.0932 -0.4667 -0.2089
  399MOL0     C53766   2.172   8.445   5.611 -0.0365  0.2075 -0.1689
  399MOL0     C53767   2.316   8.443   5.586  0.4168  0.1837  0.1601
  399MOL0     C53768   2.363   8.587   5.566  0.0113  0.3156 -1.4170
  399MOL0     C53769   2.516   8.610   5.578 -0.2306  0.3100 -0.0520
  399MOL0     C53770   2.554   8.743   5.524 -0.5898 -0.6166 -0.4265
  399MOL0     C53771   2.697   8.782   5.559 -0.3832  0.5865  0.1793
  399MOL0     C53772   2.729   8.820   5.699  0.2726 -0.0716 -0.0405
  399MOL0     C53773   2.648   8.940   5.748  0.5212 -0.2407  0.4613
  399MOL0    Cl53774   2.734   9.008   5.900 -0.0537  0.1259 -0.3611
  399MOL0     C53775   1.991   8.346   5.347 -0.0746  0.1962 -0.3312
  399MOL0     C53776   1.874   8.266   5.335  0.0480  0.1134 -0.6197
  399MOL0     O53777   1.534   8.200   5.601  0.1594  0.5519 -0.0179
  399MOL0     C53778   1.311   8.089   5.479  0.7215 -0.0299 -0.4087
  399MOL0     C53779   1.195   8.033   5.420  0.1159  0.0993  0.0785
  399MOL0     N53780   1.154   7.871   4.729  0.9048  0.0968 -0.2454
  399MOL0     N53781   1.160   7.785   4.632  0.0103 -0.0564 -0.6023
  399MOL0     C53782   1.687   7.791   3.999  0.3760 -0.2385 -0.0030
  399MOL0     C53783   1.830   7.807   4.015  0.2556 -0.1728 -1.0381
  399MOL0     C53784   2.261   8.025   3.988  0.0557  1.1748  1.1595
  399MOL0     C53785   2.309   7.892   3.994 -0.4834  0.0053 -0.3648
  399MOL0     C53786   2.444   7.869   4.021  0.5817 -0.3981 -0.0255
  399MOL0     C53787   2.537   7.977   4.016 -0.7907 -0.0531  0.7026
  399MOL0     O53788   2.677   7.958   3.997 -0.5100 -0.0385 -0.9013
  399MOL0     C53789   2.746   7.950   4.123 -0.8188  0.7881  0.3851
  399MOL0     C53790   2.844   8.072   4.129 -0.3908  0.3704  0.0324
  399MOL0     C53791   2.956   8.053   4.022  0.8236 -0.2269  0.3693
  399MOL0     C53792   2.921   8.103   3.882  0.8335  0.3543 -0.6311
  399MOL0     C53793   3.036   8.100   3.802 -1.0788  0.1072  0.3607
  399MOL0     C53794   3.137   8.085   3.726  0.5340 -0.0121  0.4238
  399MOL0     C53795   2.479   8.109   4.024  0.1910 -0.1890 -0.8522
  399MOL0     C53796   2.348   8.137   4.001 -0.1445 -0.8184  0.4866
  399MOL0     C53797   2.304   8.286   3.995  0.4716  0.4425 -0.4001
  399MOL0     H53798   1.887   8.067   3.817 -0.7811 -1.2502 -2.4341
  399MOL0     H53799   1.651   8.064   3.794  1.2520 -1.4332 -2.1893
  399MOL0     H53800   1.421   8.023   4.026 -2.9963 -1.6723  0.3067
  399MOL0     H53801   1.447   8.090   3.865 -1.4201  0.0659 -1.4767
  399MOL0     H53802   1.259   7.967   3.792  2.7889  1.0347 -1.2626
  399MOL0     H53803   1.212   8.084   3.922  0.5617  0.9849 -1.9414
  399MOL0     H53804   1.252   7.770   3.957 -2.8139 -1.6802  0.1430
  399MOL0     H53805   1.103   7.863   3.938 -0.1424 -1.7713  0.8115
  399MOL0     H53806   1.298   7.849   4.175 -0.1930 -1.4680  1.9639
  399MOL0     H53807   1.203   7.988   4.148 -1.5687 -0.4735  1.8885
  399MOL0     H53808   1.000   7.880   4.127  0.5944  0.4327 -0.0869
  399MOL0     H53809   1.082   7.714   4.141 -1.3889 -0.2586 -1.1492
  399MOL0     H53810   1.161   7.758   4.351 -0.8796 -2.8050 -1.1094
  399MOL0     H53811   1.058   7.908   4.359 -0.6756  0.3892  1.2554
  399MOL0     H53812   0.953   7.629   4.288  0.9369 -0.8469  0.5017
  399MOL0     H53813   0.861   7.749   4.383  0.3988  2.8725  1.4041
  399MOL0     H53814   0.907   7.575   4.534 -0.8754  1.9256  0.7588
  399MOL0     H53815   1.071   7.561   4.486  0.5631 -0.9479  3.1541
  399MOL0     H53816   0.847   7.744   4.718 -0.1643 -2.1336 -1.7281
  399MOL0     H53817   1.037   8.018   4.927 -0.4935  1.3446  0.1115
  399MOL0     H53818   0.891   7.999   4.847  1.7143 -0.1010 -1.1163
  399MOL0     H53819   0.857   7.917   5.083 -0.3621 -0.8361  0.1978
  399MOL0     H53820   0.821   7.793   4.978  0.1632 -0.2469  2.3035
  399MOL0     H53821   1.030   7.677   5.004 -0.2468  0.0361 -0.6989
  399MOL0     H53822   0.934   7.713   5.157 -2.1711  0.1351 -1.5653
  399MOL0     H53823   1.159   7.880   5.037  2.2259  2.2596  1.9362
  399MOL0     H53824   1.194   7.751   5.149 -1.0158 -1.4612  0.0699
  399MOL0     H53825   1.353   7.919   5.134  2.2158 -1.9549  1.2554
  399MOL0     H53826   1.549   8.023   5.251 -0.6128 -1.2787  0.4168
  399MOL0     H53827   1.678   8.380   5.591  0.6034 -1.4469  0.0086
  399MOL0     H53828   1.884   8.525   5.619  2.5184  0.5754 -0.2478
  399MOL0     H53829   2.150   8.487   5.709  1.3024 -2.3567  1.3129
  399MOL0     H53830   2.147   8.339   5.605 -1.6724  0.6297 -2.1349
  399MOL0     H53831   2.379   8.410   5.669 -0.3426 -0.1948  0.5924
  399MOL0     H53832   2.327   8.384   5.494 -0.4523 -0.0233  0.1773
  399MOL0     H53833   2.344   8.630   5.467 -0.0815  1.1081 -1.0608
  399MOL0     H53834   2.315   8.649   5.642  2.0353  0.5514 -0.2537
  399MOL0     H53835   2.566   8.530   5.522 -2.0136 -0.4188 -0.6866
  399MOL0     H53836   2.534   8.596   5.684  0.0297  0.4588 -0.0761
  399MOL0     H53837   2.483   8.816   5.565 -0.8077 -1.8030  1.3965
  399MOL0     H53838   2.538   8.752   5.416 -1.7470  2.9593 -0.1013
  399MOL0     H53839   2.746   8.690   5.524 -2.3225 -0.0306 -1.1230
  399MOL0     H53840   2.726   8.867   5.497  0.0704  1.5293  1.6565
  399MOL0     H53841   2.837   8.837   5.701  0.3861 -0.8244  0.6806
  399MOL0     H53842   2.714   8.730   5.760  1.3856 -0.3093 -0.0979
  399MOL0     H53843   2.636   9.022   5.677  0.8503 -0.0417  0.6363
  399MOL0     H53844   2.551   8.903   5.784  0.4632  0.3937  0.9828
  399MOL0     H53845   2.074   8.338   5.277  1.7117 -1.5451  1.8458
  399MOL0     H53846   1.872   8.207   5.244  2.9603 -0.9422 -0.1136
  399MOL0     H53847   1.298   8.135   5.577  0.0541  0.9818 -0.9574
  399MOL0     H53848   1.111   8.043   5.488  2.7386 -1.3284  3.8059
  399MOL0     H53849   1.635   7.705   4.040  0.1382  0.8618  2.1189
  399MOL0     H53850   1.883   7.729   4.069  3.2840  0.4253 -2.9174
  399MOL0     H53851   2.255   7.799   4.002  1.4590 -1.4821 -3.0407
  399MOL0     H53852   2.472   7.764   4.027 -1.3806 -1.1008 -2.0215
  399MOL0     H53853   2.796   7.853   4.126  0.2462  1.2424 -1.1055
  399MOL0     H53854   2.674   7.955   4.206 -0.9586 -0.4711  0.3573
  399MOL0     H53855   2.893   8.068   4.226  1.2026  1.6467 -0.6657
  399MOL0     H53856   2.797   8.170   4.120 -0.0671  0.4178 -1.5219
  399MOL0     H53857   2.987   7.948   4.022  4.9624  0.8118 -1.6494
  399MOL0     H53858   3.048   8.103   4.052  0.8213  1.0958 -1.6444
  399MOL0     H53859   2.846   8.045   3.827  0.3891  0.5677 -0.2571
  399MOL0     H53860   2.882   8.203   3.906  1.7174 -0.1187  3.5805
  399MOL0     H53861   3.226   8.083   3.667 -0.6804  0.8666 -1.5900
  399MOL0     H53862   2.531   8.201   4.048  0.5372 -0.4618 -0.5310
  399MOL0     H53863   2.380   8.365   3.993  1.2309 -0.2005  1.1577
  399MOL0     H53864   2.250   8.295   3.900  0.0198 -0.6650 -0.2705
  399MOL0     H53865   2.242   8.313   4.081  0.5805 -1.9047  0.5106
  400MOL0     O53866   8.712   6.457   8.934 -0.5503  0.3919  0.0660
  400MOL0     C53867   8.603   6.504   8.919  0.6403  0.9704 -0.1874
  400MOL0     O53868   8.486   6.445   8.953  0.1224  0.0951  0.0775
  400MOL0     C53869   8.488   6.313   8.987 -0.7588  0.5997 -0.8264
  400MOL0     C53870   8.427   6.282   9.108  0.1846 -0.3586 -0.3266
  400MOL0     C53871   8.440   6.147   9.147  0.9026  0.3061 -0.7737
  400MOL0     C53872   8.518   6.056   9.076 -0.7981  0.4752 -0.4667
  400MOL0     O53873   8.542   5.934   9.121 -0.0094  0.4760 -0.0585
  400MOL0     C53874   8.558   5.910   9.263  1.0451  0.0239  0.2710
  400MOL0     C53875   8.629   5.785   9.296 -1.3238 -0.4955  0.0716
  400MOL0     C53876   8.758   5.791   9.219  0.7263 -0.5246  0.1655
  400MOL0     C53877   8.846   5.673   9.255  0.9129  1.1685  0.5305
  400MOL0     C53878   8.795   5.527   9.223  0.7174  0.1631  0.1327
  400MOL0     C53879   8.777   5.504   9.072  0.6523  0.5655 -0.2867
  400MOL0     C53880   8.759   5.360   9.021  0.7457  0.0999  0.0996
  400MOL0     C53881   8.730   5.347   8.867 -0.0169 -0.7651  0.2155
  400MOL0     N53882   8.694   5.214   8.832  0.0430  0.3460  0.2867
  400MOL0     C53883   8.776   5.110   8.808 -0.3990  0.0696  1.5685
  400MOL0     C53884   8.693   5.012   8.770  0.5729  0.9015 -0.1579
  400MOL0     C53885   8.744   4.870   8.736 -0.9144 -0.2463  0.0127
  400MOL0     C53886   8.809   4.802   8.853 -0.0455 -0.1384 -0.4755
  400MOL0     C53887   8.710   4.803   8.973  0.1879  0.2159  0.5849
  400MOL0     C53888   8.780   4.738   9.097  0.0676  0.0709 -0.0266
  400MOL0     O53889   8.884   4.829   9.118  0.5034  0.0501  0.5581
  400MOL0     C53890   8.995   4.811   9.189 -0.8439  0.4427 -0.3121
  400MOL0     C53891   9.086   4.912   9.177 -0.0523  0.9264  0.4499
  400MOL0     C53892   9.217   4.900   9.242 -0.5192 -0.5320  0.1162
  400MOL0     C53893   9.251   4.774   9.309  0.4191 -0.0246  0.5819
  400MOL0     C53894   9.386   4.755   9.359  0.3644 -0.2430 -0.1739
  400MOL0     O53895   9.421   4.626   9.383 -0.0205  0.1847  0.3512
  400MOL0     C53896   9.542   4.593   9.433  0.1762 -0.0543 -0.6184
  400MOL0     C53897   9.622   4.663   9.528  0.7771  0.1094  0.4178
  400MOL0     C53898   9.751   4.632   9.561  0.4359  0.7435  0.0995
  400MOL0     C53899   9.806   4.512   9.521  0.2376 -0.3400 -0.2144
  400MOL0     O53900   9.931   4.476   9.574  0.8150  0.2036 -0.1344
  400MOL0     C53901   9.969   4.335   9.580  0.6672 -0.3555  0.2170
  400MOL0     C53902  10.074   4.312   9.688 -0.3941 -0.5530 -0.0813
  400MOL0     C53903  10.138   4.172   9.672  0.0369  1.2038  0.1733
  400MOL0     C53904  10.086   4.078   9.779  0.2053  0.4194  0.2862
  400MOL0     C53905   9.932   4.063   9.779  0.2048 -0.4996  0.3704
  400MOL0     C53906   9.896   3.936   9.855 -0.0651 -0.6843 -0.4674
  400MOL0     C53907   9.905   3.961  10.008 -0.1015 -0.0332  0.4180
  400MOL0     C53908   9.871   3.835  10.075  0.4066 -0.1448  0.6608
  400MOL0    Cl53909   9.902   3.865  10.248  0.2050 -0.1376 -0.5293
  400MOL0     C53910   9.741   4.436   9.422 -0.0109 -0.3298 -0.0004
  400MOL0     C53911   9.615   4.485   9.377  0.0437 -0.1644 -0.2426
  400MOL0     O53912   9.453   4.853   9.388 -0.0413 -0.8484 -0.3816
  400MOL0     C53913   9.157   4.679   9.327  0.0780  0.2390  1.1466
  400MOL0     C53914   9.026   4.701   9.270 -0.6709 -0.4794 -0.5802
  400MOL0     N53915   8.558   5.065   8.765 -0.4777  1.1027  0.3019
  400MOL0     N53916   8.562   5.181   8.813 -0.0972 -0.4703  0.0580
  400MOL0     C53917   8.588   6.094   8.964 -0.1451  0.0562 -0.1100
  400MOL0     C53918   8.565   6.217   8.914  0.4314 -1.5317  0.0391
  400MOL0     C53919   8.591   6.634   8.834  0.0026 -0.0759 -0.0611
  400MOL0     C53920   8.465   6.696   8.828  0.2370 -0.2366 -0.6262
  400MOL0     C53921   8.444   6.817   8.762 -0.7635  0.0554 -0.0527
  400MOL0     C53922   8.557   6.880   8.690  0.1609  0.1821  1.1466
  400MOL0     O53923   8.558   7.002   8.620  0.4355 -0.0505 -0.2980
  400MOL0     C53924   8.423   7.064   8.608 -0.2687  0.4182 -0.6339
  400MOL0     C53925   8.429   7.200   8.542 -0.4049  0.8108 -0.1451
  400MOL0     C53926   8.449   7.320   8.634 -0.6103  0.1192  0.2725
  400MOL0     C53927   8.406   7.451   8.571  0.3896  0.7045 -0.1297
  400MOL0     C53928   8.263   7.462   8.549  0.6821 -0.1039 -0.3262
  400MOL0     C53929   8.140   7.474   8.526 -0.4908  0.5019 -0.5492
  400MOL0     C53930   8.678   6.805   8.690  0.8208 -0.4336  0.1288
  400MOL0     C53931   8.696   6.687   8.758  0.3789  0.4124 -0.4627
  400MOL0     C53932   8.836   6.641   8.764  0.9404 -0.1522 -0.0667
  400MOL0     H53933   8.365   6.355   9.159  1.0644 -1.5013  2.5795
  400MOL0     H53934   8.383   6.103   9.228  1.6990 -1.3148 -1.0412
  400MOL0     H53935   8.602   5.997   9.312 -2.2078  0.8673  1.9641
  400MOL0     H53936   8.456   5.909   9.304  1.8359  2.7612  2.6518
  400MOL0     H53937   8.581   5.688   9.277 -1.5826 -0.7492  1.8725
  400MOL0     H53938   8.649   5.791   9.403  1.7795  0.5777 -0.4904
  400MOL0     H53939   8.809   5.887   9.226  0.1158 -0.2132  0.3918
  400MOL0     H53940   8.721   5.771   9.118  0.9992 -2.9699  0.4890
  400MOL0     H53941   8.944   5.688   9.208 -0.6054  1.5625 -2.7362
  400MOL0     H53942   8.856   5.678   9.364  0.5888  2.6739  0.5156
  400MOL0     H53943   8.876   5.461   9.257  0.4228 -0.1315  0.2677
  400MOL0     H53944   8.705   5.510   9.282 -0.5758 -0.7699 -2.0073
  400MOL0     H53945   8.695   5.571   9.044 -1.9971 -1.9822  0.9642
  400MOL0     H53946   8.869   5.545   9.029  1.2738 -0.1441  0.3358
  400MOL0     H53947   8.687   5.313   9.088  1.0612 -2.6084 -1.3239
  400MOL0     H53948   8.853   5.305   9.037  1.1871  0.9312  0.4242
  400MOL0     H53949   8.648   5.414   8.838 -0.9496 -0.6843  2.7759
  400MOL0     H53950   8.814   5.391   8.811 -0.1096 -0.8595  0.0017
  400MOL0     H53951   8.882   5.120   8.826  0.1503  3.8745 -2.2603
  400MOL0     H53952   8.666   4.806   8.695 -1.5779  0.0243  0.8240
  400MOL0     H53953   8.813   4.892   8.653 -2.7884  1.6471 -1.1550
  400MOL0     H53954   8.841   4.702   8.823  1.9349  0.4201 -0.3606
  400MOL0     H53955   8.901   4.857   8.877  0.5121 -1.4895  0.5916
  400MOL0     H53956   8.626   4.745   8.934  2.1498 -3.3229  1.1913
  400MOL0     H53957   8.681   4.904   9.003  2.9569  0.4524  2.9868
  400MOL0     H53958   8.818   4.637   9.076  0.5719  0.7028 -2.5456
  400MOL0     H53959   8.716   4.737   9.185  1.7140 -2.6261  1.2778
  400MOL0     H53960   9.060   5.004   9.126 -1.2117 -0.3760 -1.4245
  400MOL0     H53961   9.292   4.978   9.248  1.9444 -2.4515 -2.6210
  400MOL0     H53962   9.588   4.759   9.565  0.3548 -1.1917  3.8163
  400MOL0     H53963   9.808   4.703   9.619  0.3046  0.9519 -0.0230
  400MOL0     H53964   9.887   4.267   9.604 -0.3165  0.9633  0.7437
  400MOL0     H53965  10.006   4.312   9.479  0.9229  0.9727 -0.0126
  400MOL0     H53966  10.146   4.392   9.671 -1.4804  0.8798  1.6879
  400MOL0     H53967  10.032   4.315   9.789  1.6362  0.2166  0.7789
  400MOL0     H53968  10.123   4.122   9.576  1.2867 -0.6495  0.8825
  400MOL0     H53969  10.245   4.189   9.687  0.0868  0.4783  0.7033
  400MOL0     H53970  10.121   4.120   9.873  1.1101  0.6059 -0.1290
  400MOL0     H53971  10.136   3.984   9.757 -1.1431 -0.4256  0.6896
  400MOL0     H53972   9.902   4.039   9.677 -2.5670 -2.2301  1.4774
  400MOL0     H53973   9.878   4.152   9.813  1.1570  0.7742 -1.3414
  400MOL0     H53974   9.789   3.918   9.836 -0.0260  1.1265 -2.9132
  400MOL0     H53975   9.965   3.855   9.831 -1.5080 -2.7795  1.9178
  400MOL0     H53976   9.837   4.038  10.047 -0.6184  0.0530 -0.6241
  400MOL0     H53977   9.992   4.006  10.057 -3.3669  3.3055  3.8329
  400MOL0     H53978   9.763   3.823  10.067  0.2201  1.8014 -0.3298
  400MOL0     H53979   9.918   3.746  10.032 -0.8462 -1.3323  1.6769
  400MOL0     H53980   9.786   4.353   9.368 -2.0800 -1.0189 -0.7538
  400MOL0     H53981   9.570   4.428   9.297 -0.4345 -0.5226  0.2716
  400MOL0     H53982   9.172   4.587   9.383 -2.3551 -1.3329 -0.5853
  400MOL0     H53983   8.950   4.625   9.284 -0.3477 -1.2274 -2.5318
  400MOL0     H53984   8.656   6.028   8.910 -0.7895 -1.9141  1.3788
  400MOL0     H53985   8.612   6.250   8.821  2.1877 -2.0811  0.6790
  400MOL0     H53986   8.384   6.665   8.894  0.6352  0.5688  0.2661
  400MOL0     H53987   8.346   6.861   8.748 -1.5067 -0.3543  3.0245
  400MOL0     H53988   8.381   7.075   8.708  1.2740  2.5473 -0.1730
  400MOL0     H53989   8.357   6.994   8.555  0.3990 -2.1235  1.6365
  400MOL0     H53990   8.342   7.218   8.479 -1.8941 -1.3685  1.1376
  400MOL0     H53991   8.517   7.193   8.477  0.3758 -1.0438  1.0318
  400MOL0     H53992   8.556   7.329   8.655 -0.4918  0.7109 -0.5642
  400MOL0     H53993   8.394   7.293   8.725 -0.3265 -2.3276 -0.2076
  400MOL0     H53994   8.423   7.540   8.632 -1.0217  1.4637 -0.7866
  400MOL0     H53995   8.457   7.453   8.474  0.8729 -0.9427  0.0552
  400MOL0     H53996   8.034   7.488   8.515 -0.9455 -2.4840 -0.7736
  400MOL0     H53997   8.751   6.862   8.633 -1.0275  2.6883  0.6983
  400MOL0     H53998   8.842   6.537   8.732 -0.7195 -0.4387  0.4950
  400MOL0     H53999   8.897   6.689   8.687  0.1183  1.9861  0.5329
  400MOL0     H54000   8.890   6.663   8.857  0.9986 -1.4546  0.2217
  401MOL0     O54001   0.097   9.267   6.592  0.8008  0.9724 -0.0619
  401MOL0     C54002   0.113   9.278   6.716  0.4970  0.8413 -0.7598
  401MOL0     O54003   0.213   9.225   6.781 -0.5971  0.1274 -0.0724
  401MOL0     C54004   0.335   9.211   6.721 -0.9160 -0.1321 -0.8569
  401MOL0     C54005   0.405   9.315   6.669 -0.3045 -0.0281 -0.3691
  401MOL0     C54006   0.528   9.301   6.605  0.5898  0.2746  0.6227
  401MOL0     C54007   0.585   9.169   6.592  0.8099 -1.1429 -0.3945
  401MOL0     O54008   0.696   9.127   6.528 -0.4283  1.0246  0.2481
  401MOL0     C54009   0.808   9.213   6.495  0.5374  0.1071 -0.1232
  401MOL0     C54010   0.920   9.142   6.415  1.0938 -0.0782 -0.3574
  401MOL0     C54011   1.038   9.238   6.407 -0.3736 -1.1433 -0.2093
  401MOL0     C54012   1.153   9.196   6.315 -0.3627  0.0134 -0.3479
  401MOL0     C54013   1.296   9.253   6.354  0.2757  1.0156 -0.2816
  401MOL0     C54014   1.403   9.209   6.253 -0.1347  0.0877  0.1737
  401MOL0     C54015   1.546   9.242   6.293  0.2663 -0.7926 -0.0610
  401MOL0     C54016   1.593   9.393   6.280 -0.3642 -0.0968  0.2136
  401MOL0     N54017   1.717   9.423   6.355 -0.2325  0.3620 -0.0659
  401MOL0     C54018   1.724   9.509   6.465 -0.0728 -0.5393 -0.2775
  401MOL0     C54019   1.855   9.522   6.488 -0.5275  0.6886 -0.1473
  401MOL0     C54020   1.917   9.614   6.581  0.0088  0.2363  0.3896
  401MOL0     C54021   1.898   9.751   6.539 -0.4351  0.6592  0.1223
  401MOL0     C54022   1.978   9.848   6.635 -0.3430 -0.2805  0.0248
  401MOL0     C54023   1.962   9.987   6.594 -0.4457 -0.3247  0.3928
  401MOL0     O54024   2.025  10.023   6.472  0.6374 -0.0913  0.3835
  401MOL0     C54025   2.105  10.131   6.472 -0.0727 -0.4202  0.3510
  401MOL0     C54026   2.229  10.125   6.394 -0.4093 -0.6527 -0.1163
  401MOL0     C54027   2.321  10.227   6.407 -1.2876 -0.7852  0.0611
  401MOL0     C54028   2.289  10.350   6.473 -0.3023  0.9994 -0.5768
  401MOL0     C54029   2.392  10.458   6.482  0.6709  0.4881 -1.1861
  401MOL0     O54030   2.519  10.419   6.491  0.7196 -0.2754  0.0497
  401MOL0     C54031   2.633  10.492   6.459 -0.6715 -0.3252  0.7416
  401MOL0     C54032   2.762  10.466   6.508 -0.1612  0.2473  0.2435
  401MOL0     C54033   2.882  10.529   6.473 -0.5704  0.0782  0.0654
  401MOL0     C54034   2.872  10.635   6.376 -0.0092  0.5175 -0.8879
  401MOL0     O54035   2.987  10.703   6.331  0.1845  0.6521  0.1362
  401MOL0     C54036   2.981  10.836   6.374 -0.1546  0.7445  0.5442
  401MOL0     C54037   3.133  10.882   6.412  0.0699 -0.9239 -0.3541
  401MOL0     C54038   3.223  10.840   6.293  0.9339 -0.2935  0.4682
  401MOL0     C54039   3.366  10.896   6.272  0.0982 -0.0743  0.4266
  401MOL0     C54040   3.427  10.834   6.148 -0.0374  0.7415  0.0977
  401MOL0     C54041   3.558  10.894   6.114 -0.8465  0.7265 -0.8269
  401MOL0     C54042   3.602  10.823   5.980 -0.2129  0.1378 -0.0380
  401MOL0     C54043   3.720  10.888   5.910  0.3817  1.1406 -0.3720
  401MOL0    Cl54044   3.675  11.019   5.788  0.3031  0.4582  0.0318
  401MOL0     C54045   2.747  10.664   6.323  0.3435  0.7415 -0.0572
  401MOL0     C54046   2.635  10.597   6.369  0.6478 -0.6386  0.3434
  401MOL0     O54047   2.350  10.577   6.493  0.4063 -0.0349  0.1635
  401MOL0     C54048   2.165  10.357   6.529  0.3181 -0.0271 -0.0409
  401MOL0     C54049   2.080  10.245   6.539 -0.2197  0.9772  0.3094
  401MOL0     N54050   1.925   9.455   6.388  0.0413 -0.7290 -0.3189
  401MOL0     N54051   1.835   9.401   6.313 -1.3342 -0.1025  0.4390
  401MOL0     C54052   0.519   9.064   6.659 -0.2534  1.2211 -0.4950
  401MOL0     C54053   0.400   9.078   6.724  0.5761  0.5173  0.0744
  401MOL0     C54054   0.026   9.371   6.795  0.4985  1.1072 -0.1255
  401MOL0     C54055   0.074   9.392   6.917  0.4337 -1.2340  0.4582
  401MOL0     C54056  -0.007   9.454   7.019  0.8187  0.2008  0.4713
  401MOL0     C54057  -0.137   9.503   6.990  0.0069 -0.4060  0.5822
  401MOL0     O54058  -0.195   9.553   7.100  0.0303  0.1588  0.1549
  401MOL0     C54059  -0.327   9.603   7.087 -0.1436  0.9759  1.1747
  401MOL0     C54060  -0.379   9.675   7.209 -0.5067  0.7627 -0.1987
  401MOL0     C54061  -0.531   9.699   7.222 -0.2817 -0.3321 -0.2884
  401MOL0     C54062  -0.579   9.812   7.138  0.5533 -0.8729  0.8562
  401MOL0     C54063  -0.508   9.930   7.191 -0.5972  0.0750 -0.3872
  401MOL0     C54064  -0.448  10.031   7.219 -0.2805 -0.1700 -0.9654
  401MOL0     C54065  -0.185   9.483   6.866 -0.1893  0.0776 -0.0878
  401MOL0     C54066  -0.104   9.418   6.766  0.4954  0.7176 -0.2648
  401MOL0     C54067  -0.161   9.384   6.631 -0.8824  0.3259 -0.4710
  401MOL0     H54068   0.355   9.409   6.687  1.6475  1.2930 -1.5184
  401MOL0     H54069   0.569   9.395   6.571  1.7798 -0.0054  1.2173
  401MOL0     H54070   0.771   9.291   6.428 -0.5332  0.1692  0.5274
  401MOL0     H54071   0.846   9.251   6.590  0.6433 -0.6233  0.1409
  401MOL0     H54072   0.883   9.103   6.319 -3.4511  2.7241 -0.0498
  401MOL0     H54073   0.953   9.057   6.475  1.2633  0.1485 -0.1285
  401MOL0     H54074   1.072   9.250   6.510 -0.4202 -0.3583 -0.2791
  401MOL0     H54075   0.995   9.333   6.375  2.0594  0.5148  1.1452
  401MOL0     H54076   1.160   9.087   6.319 -0.6100 -0.0249 -0.9260
  401MOL0     H54077   1.131   9.221   6.211 -1.9193  0.9326  0.1744
  401MOL0     H54078   1.292   9.362   6.362  0.8153  0.9570  0.9886
  401MOL0     H54079   1.319   9.213   6.453  0.8667 -1.2608 -1.2752
  401MOL0     H54080   1.402   9.100   6.248 -0.1561  0.0976 -0.0586
  401MOL0     H54081   1.377   9.245   6.152 -2.6784 -1.2478  0.2563
  401MOL0     H54082   1.611   9.191   6.221 -0.3338  0.7331 -1.7932
  401MOL0     H54083   1.564   9.206   6.395  0.3579 -0.2117  0.1292
  401MOL0     H54084   1.603   9.426   6.176 -1.7504 -2.7761 -0.8367
  401MOL0     H54085   1.514   9.455   6.324  0.1517 -0.0109  1.0383
  401MOL0     H54086   1.639   9.554   6.516 -2.1557 -2.2499 -2.0656
  401MOL0     H54087   1.863   9.602   6.675  0.9023 -0.9599  0.7751
  401MOL0     H54088   2.023   9.589   6.590 -0.5824 -1.7000  3.2380
  401MOL0     H54089   1.941   9.770   6.441 -1.7166  2.0936 -0.2074
  401MOL0     H54090   1.789   9.763   6.540 -0.5354 -0.2014  0.4355
  401MOL0     H54091   2.083   9.819   6.619 -1.1143 -2.6928 -1.2249
  401MOL0     H54092   1.953   9.826   6.740 -3.0989  0.7190 -0.3402
  401MOL0     H54093   1.992  10.053   6.675 -1.4008  0.7592 -0.1177
  401MOL0     H54094   1.858  10.016   6.581  0.4862  2.9648 -0.5659
  401MOL0     H54095   2.254  10.035   6.338 -2.9655 -1.1397 -0.6120
  401MOL0     H54096   2.411  10.209   6.350 -1.2467 -1.4294  0.3205
  401MOL0     H54097   2.763  10.383   6.578  0.3020 -3.2482 -3.5986
  401MOL0     H54098   2.977  10.492   6.510  0.4228  1.9107 -0.5022
  401MOL0     H54099   2.953  10.901   6.291 -0.9715 -1.7534 -1.2609
  401MOL0     H54100   2.933  10.856   6.471  0.2162  0.7394  0.7284
  401MOL0     H54101   3.134  10.989   6.438  0.1485 -1.2186  0.9189
  401MOL0     H54102   3.168  10.833   6.504 -0.5264  1.3461  1.1830
  401MOL0     H54103   3.231  10.732   6.299  0.1933 -0.2891  1.7117
  401MOL0     H54104   3.173  10.854   6.196  3.6138 -0.5170 -1.0661
  401MOL0     H54105   3.432  10.869   6.355 -0.0547  3.6108  1.9219
  401MOL0     H54106   3.359  11.005   6.276 -2.8847 -0.2144  2.6458
  401MOL0     H54107   3.361  10.847   6.061  1.9494  1.2337 -1.4068
  401MOL0     H54108   3.433  10.725   6.158  2.2628  0.6888 -1.1311
  401MOL0     H54109   3.551  11.003   6.109 -2.1805  0.7089  0.1262
  401MOL0     H54110   3.626  10.862   6.194 -0.8091 -1.0957 -1.5320
  401MOL0     H54111   3.518  10.823   5.909  0.1752  2.5824 -0.5885
  401MOL0     H54112   3.639  10.724   6.007 -0.4062  0.4514  1.4431
  401MOL0     H54113   3.785  10.943   5.978 -1.5544  1.9873  0.8912
  401MOL0     H54114   3.783  10.822   5.850 -0.8783  0.6089 -1.1355
  401MOL0     H54115   2.728  10.738   6.246 -1.5233 -0.3429 -0.6987
  401MOL0     H54116   2.542  10.633   6.326  1.5292  0.2574 -0.8884
  401MOL0     H54117   2.131  10.450   6.575 -0.2825 -0.3202  0.1074
  401MOL0     H54118   1.987  10.258   6.593  1.5777 -1.0646  4.4196
  401MOL0     H54119   0.569   8.968   6.654  2.1632  2.4249 -5.4569
  401MOL0     H54120   0.374   8.993   6.786  1.7430  1.1480  1.5078
  401MOL0     H54121   0.176   9.364   6.942  0.7782 -0.3862  0.0522
  401MOL0     H54122   0.023   9.469   7.122 -2.5144  3.5470  1.1983
  401MOL0     H54123  -0.391   9.515   7.076  1.0601  0.2598 -0.4637
  401MOL0     H54124  -0.340   9.671   7.003 -3.5326  1.2957  1.8425
  401MOL0     H54125  -0.320   9.765   7.232  0.7318  0.2185 -1.1434
  401MOL0     H54126  -0.349   9.615   7.295 -0.4386  3.9347  2.1924
  401MOL0     H54127  -0.553   9.706   7.329 -1.9602  1.1508 -0.6773
  401MOL0     H54128  -0.582   9.607   7.193 -1.4696 -0.8815  3.1518
  401MOL0     H54129  -0.567   9.801   7.030 -3.2213  0.5397  0.1544
  401MOL0     H54130  -0.687   9.827   7.148  0.7541  0.4561  1.1471
  401MOL0     H54131  -0.387  10.118   7.236  2.7361 -2.2066 -0.7217
  401MOL0     H54132  -0.283   9.517   6.833  0.9168  1.9253 -1.6848
  401MOL0     H54133  -0.132   9.454   6.552 -0.7896  1.2666  0.3761
  401MOL0     H54134  -0.158   9.276   6.615 -2.9111  0.1535  0.0249
  401MOL0     H54135  -0.269   9.400   6.630 -1.0821  0.0176  3.0534
  402MOL0     O54136   2.363  10.039  11.115  0.6218 -0.4046  0.5556
  402MOL0     C54137   2.281   9.988  11.044  1.0809 -0.1464  0.2509
  402MOL0     O54138   2.282   9.859  11.001 -0.3407 -0.8228 -0.8889
  402MOL0     C54139   2.394   9.788  11.037 -0.1065  0.2512  0.6284
  402MOL0     C54140   2.370   9.663  11.105 -0.8601 -0.7919 -0.8113
  402MOL0     C54141   2.474   9.572  11.139 -0.5712  0.1891  0.2477
  402MOL0     C54142   2.607   9.602  11.121  0.5026  0.4976  2.4881
  402MOL0     O54143   2.697   9.507  11.157  0.2495 -0.1636 -0.5329
  402MOL0     C54144   2.838   9.526  11.128  0.6608 -0.3009 -0.0747
  402MOL0     C54145   2.910   9.385  11.144  0.6975  0.2855  0.2892
  402MOL0     C54146   3.044   9.385  11.072 -0.0768 -0.8916  0.1546
  402MOL0     C54147   3.120   9.247  11.073 -0.2646 -0.1510 -0.4519
  402MOL0     C54148   3.256   9.263  11.016  0.0994  0.5534 -0.0197
  402MOL0     C54149   3.264   9.324  10.878 -0.5730 -0.6566  0.2868
  402MOL0     C54150   3.417   9.327  10.833  0.0616  0.1463 -0.4496
  402MOL0     C54151   3.503   9.424  10.914 -0.7314  0.0824 -0.7256
  402MOL0     N54152   3.638   9.418  10.877  0.3267 -0.8752 -0.7539
  402MOL0     C54153   3.742   9.356  10.942 -0.1941 -0.1094 -0.5123
  402MOL0     C54154   3.849   9.364  10.853 -0.3154 -0.3549 -0.2913
  402MOL0     C54155   3.986   9.309  10.863  0.3475 -0.1538  0.5767
  402MOL0     C54156   4.081   9.426  10.905 -0.5271 -0.0671 -0.3199
  402MOL0     C54157   4.088   9.538  10.797  0.2130 -0.5478 -0.4157
  402MOL0     C54158   4.106   9.494  10.649  0.1548  0.3056 -0.1469
  402MOL0     O54159   4.101   9.609  10.560 -0.4048 -0.4912 -0.2073
  402MOL0     C54160   4.215   9.645  10.490  0.5607  0.8306 -0.4512
  402MOL0     C54161   4.190   9.734  10.385  0.3891  0.1819  0.7091
  402MOL0     C54162   4.292   9.806  10.323 -0.7089  0.5145 -0.2870
  402MOL0     C54163   4.427   9.781  10.361  0.4373  0.7067 -0.7145
  402MOL0     C54164   4.538   9.861  10.300 -0.0550  0.5887 -0.3641
  402MOL0     O54165   4.509   9.984  10.248  0.4217  0.2535  0.6230
  402MOL0     C54166   4.607  10.053  10.184  0.0780 -0.3641  0.0187
  402MOL0     C54167   4.612  10.195  10.181 -0.1553  0.2028 -1.0652
  402MOL0     C54168   4.716  10.259  10.112  0.5781 -0.2560  0.1699
  402MOL0     C54169   4.807  10.193  10.029 -0.1659 -0.5344 -0.3489
  402MOL0     O54170   4.910  10.256   9.960 -0.7522 -0.1851 -0.4294
  402MOL0     C54171   5.017  10.308  10.046  0.3946 -0.4197 -0.8721
  402MOL0     C54172   5.133  10.376   9.974  0.4075 -0.3085 -0.1403
  402MOL0     C54173   5.074  10.476   9.882 -0.3923  0.5935 -0.0655
  402MOL0     C54174   5.192  10.543   9.811 -0.8420  0.3277  0.8671
  402MOL0     C54175   5.121  10.633   9.708  0.8520 -0.3314  0.4481
  402MOL0     C54176   5.215  10.721   9.626  0.1807  0.1113 -0.0897
  402MOL0     C54177   5.293  10.826   9.712 -0.0441  0.5148 -0.4064
  402MOL0     C54178   5.222  10.954   9.741  0.0413  0.3900 -0.5046
  402MOL0    Cl54179   5.342  11.080   9.795  0.3841 -0.3360 -0.0623
  402MOL0     C54180   4.794  10.057  10.014  0.2882 -0.2827 -0.1359
  402MOL0     C54181   4.698   9.987  10.090  0.7760 -0.6797 -0.3843
  402MOL0     O54182   4.653   9.811  10.321 -0.1748  0.4288  0.0573
  402MOL0     C54183   4.453   9.686  10.469  0.4074 -0.2752 -0.0846
  402MOL0     C54184   4.347   9.614  10.530 -0.5411 -1.2939  0.1503
  402MOL0     N54185   3.796   9.432  10.743 -0.1014  0.3110 -0.1098
  402MOL0     N54186   3.682   9.473  10.765  0.8092 -0.0344 -0.3816
  402MOL0     C54187   2.631   9.726  11.050 -1.0932  0.3687  0.6581
  402MOL0     C54188   2.526   9.812  11.012 -0.0773 -0.9892  0.6525
  402MOL0     C54189   2.156  10.070  11.003 -0.2089  0.2507  0.5117
  402MOL0     C54190   2.108  10.178  11.083  0.0280  0.1158 -0.1820
  402MOL0     C54191   2.001  10.260  11.045 -1.6349 -1.1405  0.9330
  402MOL0     C54192   1.927  10.231  10.930 -0.7500 -0.5340  0.6261
  402MOL0     O54193   1.812  10.298  10.910 -0.1260  0.5177  0.0451
  402MOL0     C54194   1.777  10.417  10.987  0.9316  0.2757  0.1234
  402MOL0     C54195   1.650  10.473  10.916  0.2393 -0.7461 -0.2868
  402MOL0     C54196   1.530  10.385  10.945 -0.0397  0.0972  0.4428
  402MOL0     C54197   1.446  10.416  11.075  0.4818  0.7185 -0.1810
  402MOL0     C54198   1.520  10.419  11.204 -0.8498  0.0094 -0.8289
  402MOL0     C54199   1.577  10.435  11.310 -0.1324 -0.4455  0.1399
  402MOL0     C54200   1.968  10.121  10.856  1.0534  0.0388  0.6441
  402MOL0     C54201   2.076  10.046  10.891 -0.8840  0.6475  0.0758
  402MOL0     C54202   2.089   9.913  10.813  0.2099 -0.7437 -0.0307
  402MOL0     H54203   2.270   9.631  11.130 -0.6307 -0.8792  0.0107
  402MOL0     H54204   2.442   9.477  11.181  0.1029 -0.4171 -0.5757
  402MOL0     H54205   2.848   9.552  11.022 -1.1477  1.4279  0.1103
  402MOL0     H54206   2.883   9.605  11.190 -1.3196  0.8980 -0.0859
  402MOL0     H54207   2.845   9.303  11.114  1.5792 -0.3619  0.1110
  402MOL0     H54208   2.925   9.369  11.252  2.8378 -2.4407 -0.3054
  402MOL0     H54209   3.111   9.459  11.118 -3.5044  2.2251  0.5591
  402MOL0     H54210   3.025   9.412  10.968  0.0711  1.9599  0.7898
  402MOL0     H54211   3.118   9.205  11.174  1.0801 -0.6853 -0.6401
  402MOL0     H54212   3.059   9.183  11.008  0.0703  0.9134 -1.8840
  402MOL0     H54213   3.308   9.314  11.098 -2.2730  0.0946  1.8639
  402MOL0     H54214   3.297   9.162  11.008  3.4991  1.6656  1.3309
  402MOL0     H54215   3.183   9.287  10.814 -0.7889  0.1307  0.0931
  402MOL0     H54216   3.236   9.430  10.886 -1.4665 -0.7970 -0.7614
  402MOL0     H54217   3.424   9.352  10.727  0.3001  1.8893 -0.0536
  402MOL0     H54218   3.449   9.223  10.840 -0.9967 -0.1099  1.6638
  402MOL0     H54219   3.477   9.528  10.891 -1.6892 -0.4592 -2.2549
  402MOL0     H54220   3.499   9.415  11.022 -0.9376  3.3076 -0.3716
  402MOL0     H54221   3.746   9.308  11.040 -0.3789  3.2176  1.2564
  402MOL0     H54222   3.976   9.230  10.938 -1.8590 -1.9538 -1.4162
  402MOL0     H54223   4.018   9.263  10.769  1.3241  2.6986 -0.5975
  402MOL0     H54224   4.051   9.467  11.003  0.4469  1.9924 -0.8197
  402MOL0     H54225   4.185   9.393  10.910 -0.2224  1.0166  1.5037
  402MOL0     H54226   4.170   9.609  10.814 -1.8148  1.3521  2.0884
  402MOL0     H54227   3.994   9.593  10.805  0.0222 -0.8334 -0.6585
  402MOL0     H54228   4.024   9.426  10.623 -1.0389  1.9522 -0.9035
  402MOL0     H54229   4.201   9.441  10.644 -0.7707 -1.6199  1.2225
  402MOL0     H54230   4.090   9.745  10.346  0.5072 -2.3005 -0.4813
  402MOL0     H54231   4.266   9.861  10.233 -0.2196  2.0381  0.4666
  402MOL0     H54232   4.535  10.255  10.228 -0.9107 -1.5607  0.0400
  402MOL0     H54233   4.716  10.365  10.139  1.0119 -0.6394  1.7549
  402MOL0     H54234   4.976  10.379  10.118  1.0701 -2.1849  1.3772
  402MOL0     H54235   5.062  10.228  10.106  2.0677  3.1130  3.1018
  402MOL0     H54236   5.192  10.418  10.055 -2.1509 -0.0577  1.7278
  402MOL0     H54237   5.191  10.306   9.912  0.4052  0.6528 -1.2607
  402MOL0     H54238   4.996  10.441   9.814 -0.2819 -2.6952  1.3177
  402MOL0     H54239   5.025  10.550   9.946 -1.7007 -0.4766  0.2053
  402MOL0     H54240   5.262  10.473   9.765  0.8810  1.4482  1.6638
  402MOL0     H54241   5.245  10.597   9.890  0.4077 -1.1534  1.0944
  402MOL0     H54242   5.047  10.697   9.757  0.4554 -0.2324 -0.2716
  402MOL0     H54243   5.077  10.565   9.635 -0.8418 -0.0782  1.1768
  402MOL0     H54244   5.287  10.658   9.573  1.1679 -0.4948  1.8780
  402MOL0     H54245   5.154  10.780   9.557  1.4588  2.0697  0.3470
  402MOL0     H54246   5.390  10.848   9.667 -0.3811  0.7307 -1.0295
  402MOL0     H54247   5.325  10.772   9.802  0.7676 -1.7507 -1.9476
  402MOL0     H54248   5.184  10.979   9.642 -1.2100  2.7952  0.4840
  402MOL0     H54249   5.143  10.943   9.817  0.6271 -2.3676 -0.1884
  402MOL0     H54250   4.850  10.011   9.933 -3.3355  2.5155 -4.7812
  402MOL0     H54251   4.688   9.880  10.076 -0.7933 -1.0185  2.3686
  402MOL0     H54252   4.555   9.664  10.498  0.3151  1.0009  1.3521
  402MOL0     H54253   4.373   9.546  10.611  1.5306 -0.8000 -0.0515
  402MOL0     H54254   2.732   9.757  11.025 -1.1831  1.3759  1.4917
  402MOL0     H54255   2.565   9.897  10.956 -1.5449 -0.4021  0.4776
  402MOL0     H54256   2.156  10.205  11.176 -0.7452  1.5302 -0.1732
  402MOL0     H54257   1.976  10.337  11.117 -2.7831 -1.8891  1.3773
  402MOL0     H54258   1.852  10.496  10.992  0.7496  0.5030 -0.5404
  402MOL0     H54259   1.738  10.398  11.087 -0.0272  1.9124  0.1090
  402MOL0     H54260   1.659  10.471  10.807  2.2630 -0.1355 -0.1739
  402MOL0     H54261   1.633  10.574  10.956  1.4478 -1.2950  1.7267
  402MOL0     H54262   1.561  10.280  10.948  3.1194  0.9619  1.3420
  402MOL0     H54263   1.462  10.393  10.860 -3.0249  0.4513  2.7115
  402MOL0     H54264   1.406  10.517  11.068  2.2494  1.4844  0.2163
  402MOL0     H54265   1.372  10.335  11.083  0.2373  1.0660  1.4920
  402MOL0     H54266   1.626  10.442  11.405  0.9942 -1.9496 -0.2994
  402MOL0     H54267   1.902  10.109  10.771 -1.4106  2.4878  2.0506
  402MOL0     H54268   2.035   9.922  10.718  3.5029  2.5336 -1.8478
  402MOL0     H54269   2.190   9.912  10.770 -0.5841 -0.1429 -2.0166
  402MOL0     H54270   2.063   9.830  10.880 -1.9115 -1.0904 -1.2093
  403MOL0     O54271   3.276  11.283   7.731  0.6467  0.5822 -0.2869
  403MOL0     C54272   3.316  11.382   7.774 -0.3221 -0.2980  0.0604
  403MOL0     O54273   3.425  11.393   7.861  0.1245  0.1901 -0.4453
  403MOL0     C54274   3.503  11.287   7.888 -0.4881 -0.4623  0.0588
  403MOL0     C54275   3.635  11.297   7.859  0.8350  0.6963 -0.2433
  403MOL0     C54276   3.721  11.188   7.900 -0.1322  0.1249 -0.4550
  403MOL0     C54277   3.675  11.066   7.958  0.4781  0.5335  0.6720
  403MOL0     O54278   3.767  10.972   7.973 -0.6078  0.6490 -0.1014
  403MOL0     C54279   3.742  10.844   8.030  0.1485  0.4630  0.8308
  403MOL0     C54280   3.738  10.841   8.182  1.1758 -0.8121 -0.6525
  403MOL0     C54281   3.870  10.842   8.247 -0.1300  0.0466 -0.4443
  403MOL0     C54282   3.877  10.916   8.390  0.6123 -0.4159  0.8420
  403MOL0     C54283   4.022  10.969   8.419  0.4604  0.0146  0.7709
  403MOL0     C54284   4.020  11.022   8.556 -0.7461 -0.0506  0.2890
  403MOL0     C54285   4.161  11.041   8.617  0.4142 -0.1769 -0.4934
  403MOL0     C54286   4.272  11.115   8.544  0.1815  0.0282  0.6813
  403MOL0     N54287   4.399  11.108   8.619  0.1269  1.3092  0.2384
  403MOL0     C54288   4.439  11.178   8.723 -0.4510 -0.1841  0.0827
  403MOL0     C54289   4.567  11.161   8.724  0.1722 -0.1516  1.3227
  403MOL0     C54290   4.640  11.206   8.841  0.4995  0.6272  0.7336
  403MOL0     C54291   4.757  11.291   8.811  0.1658  0.0016 -0.8216
  403MOL0     C54292   4.844  11.338   8.933  0.3693  0.1455 -0.0573
  403MOL0     C54293   4.980  11.379   8.873 -0.9631 -0.2877  0.1866
  403MOL0     O54294   4.981  11.494   8.787  1.0039 -0.1176 -0.1332
  403MOL0     C54295   5.099  11.532   8.733  0.9682 -1.0224  0.2447
  403MOL0     C54296   5.087  11.608   8.622 -0.0670  0.0156 -0.1718
  403MOL0     C54297   5.198  11.666   8.553  0.1596 -0.0028 -0.2444
  403MOL0     C54298   5.326  11.657   8.621  0.1080  0.4663  0.7927
  403MOL0     C54299   5.442  11.715   8.557 -0.8519 -0.6109  0.5345
  403MOL0     O54300   5.561  11.641   8.565 -0.4888  0.2873 -0.9101
  403MOL0     C54301   5.660  11.694   8.498 -0.2219  0.1528  0.3754
  403MOL0     C54302   5.757  11.767   8.568 -0.1347  0.1526 -0.1910
  403MOL0     C54303   5.862  11.829   8.496 -0.1790 -0.3236 -0.4873
  403MOL0     C54304   5.864  11.826   8.353  0.0748  0.2780  0.6957
  403MOL0     O54305   5.965  11.880   8.270 -0.3723 -0.6077  0.3305
  403MOL0     C54306   6.095  11.893   8.332  0.6008 -0.0382  0.2168
  403MOL0     C54307   6.206  11.865   8.229 -0.2621 -0.3819 -0.7789
  403MOL0     C54308   6.240  11.997   8.137 -0.3309 -0.0331  0.8361
  403MOL0     C54309   6.277  12.119   8.213 -0.2129 -0.3111 -0.1440
  403MOL0     C54310   6.357  12.231   8.133 -0.2997 -0.0886  0.1005
  403MOL0     C54311   6.501  12.194   8.107  0.1833  0.6314 -0.2920
  403MOL0     C54312   6.595  12.310   8.088  0.1586 -0.5786  1.2313
  403MOL0     C54313   6.734  12.270   8.079 -0.1579 -0.0275 -0.1526
  403MOL0    Cl54314   6.811  12.385   8.200 -0.5890 -0.4272 -0.1505
  403MOL0     C54315   5.765  11.743   8.291 -0.3418 -0.0974 -0.8843
  403MOL0     C54316   5.660  11.678   8.355  0.1476 -0.1002 -0.3218
  403MOL0     O54317   5.436  11.823   8.504  0.2624 -0.8544  0.2524
  403MOL0     C54318   5.334  11.575   8.732 -0.8603  0.6732  0.3682
  403MOL0     C54319   5.221  11.510   8.784 -0.3480 -0.1269  1.0122
  403MOL0     N54320   4.616  11.068   8.635  0.4128 -0.1446 -0.0509
  403MOL0     N54321   4.512  11.037   8.565 -0.0521  0.4088 -0.0718
  403MOL0     C54322   3.541  11.051   7.961  0.2438  0.1291 -0.6941
  403MOL0     C54323   3.457  11.162   7.933  0.1233 -0.1234  0.3153
  403MOL0     C54324   3.245  11.505   7.732  0.2716  0.5592 -0.0022
  403MOL0     C54325   3.131  11.496   7.648  0.4622  0.3943 -0.3592
  403MOL0     C54326   3.043  11.605   7.628  0.0688 -0.8798  0.5008
  403MOL0     C54327   3.061  11.724   7.688 -0.6458 -0.0222  0.1663
  403MOL0     O54328   2.967  11.822   7.665  0.7657  0.2286 -0.3227
  403MOL0     C54329   2.988  11.956   7.719 -0.0109 -1.3708 -0.3323
  403MOL0     C54330   2.859  12.047   7.717 -0.1534  0.4969 -0.4456
  403MOL0     C54331   2.827  12.086   7.577  0.7341 -0.1746  0.1742
  403MOL0     C54332   2.765  11.983   7.475 -0.7440  0.5492  0.5160
  403MOL0     C54333   2.626  11.940   7.497  0.1917  0.9669 -0.0341
  403MOL0     C54334   2.507  11.941   7.522 -0.1421 -0.0685 -0.4502
  403MOL0     C54335   3.175  11.741   7.757  0.3495  0.5425 -0.2722
  403MOL0     C54336   3.268  11.636   7.780 -0.6133  0.1681  0.1327
  403MOL0     C54337   3.388  11.679   7.859  0.2564  0.1235 -0.3868
  403MOL0     H54338   3.670  11.392   7.820  1.2068  1.2942  1.4634
  403MOL0     H54339   3.828  11.208   7.890 -0.3841  2.7995  1.1744
  403MOL0     H54340   3.649  10.804   7.989  1.1088  0.9113 -2.0205
  403MOL0     H54341   3.817  10.770   7.999 -2.1239 -0.5725 -2.8457
  403MOL0     H54342   3.675  10.759   8.218 -1.7097  0.6311 -2.0659
  403MOL0     H54343   3.689  10.935   8.212  3.4939  0.2345  0.0844
  403MOL0     H54344   3.938  10.889   8.176 -1.4992 -1.7014 -3.0965
  403MOL0     H54345   3.901  10.740   8.272 -0.1335  1.0119  4.4543
  403MOL0     H54346   3.806  10.998   8.375 -0.3140 -1.3770 -0.2501
  403MOL0     H54347   3.846  10.858   8.477  1.6622 -2.3036  0.0152
  403MOL0     H54348   4.089  10.883   8.408 -3.1207 -3.1012  1.2523
  403MOL0     H54349   4.040  11.059   8.359 -3.4288  0.6903  0.3583
  403MOL0     H54350   3.959  11.112   8.565 -0.8142 -0.0738  0.0485
  403MOL0     H54351   3.966  10.954   8.623 -2.5549  1.6805  0.6894
  403MOL0     H54352   4.195  10.943   8.650  1.9739  1.6154  3.9070
  403MOL0     H54353   4.142  11.089   8.713 -2.9057 -5.3103  1.8144
  403MOL0     H54354   4.287  11.061   8.450 -3.7420 -1.6888  0.8266
  403MOL0     H54355   4.244  11.220   8.532  0.9413  0.0343 -1.3520
  403MOL0     H54356   4.379  11.242   8.787  1.3347 -1.3317  3.0735
  403MOL0     H54357   4.578  11.254   8.917 -0.6582  0.1232  0.1399
  403MOL0     H54358   4.684  11.113   8.878  1.6164  0.6247 -0.5493
  403MOL0     H54359   4.823  11.240   8.740  2.4638  3.3381 -1.2864
  403MOL0     H54360   4.718  11.377   8.756  0.3185  0.2315 -0.5674
  403MOL0     H54361   4.857  11.261   9.010  0.3698  0.1384 -0.0648
  403MOL0     H54362   4.802  11.426   8.981 -0.8440 -0.3781 -0.1323
  403MOL0     H54363   5.035  11.293   8.832  2.5347  1.0091  1.7632
  403MOL0     H54364   5.032  11.417   8.961 -1.1315  1.6392 -0.5058
  403MOL0     H54365   4.983  11.622   8.592 -1.1575 -2.3283  2.1229
  403MOL0     H54366   5.188  11.729   8.466  2.6615  0.4386 -0.3021
  403MOL0     H54367   5.749  11.788   8.675  0.3786 -0.1964 -0.0778
  403MOL0     H54368   5.933  11.887   8.553 -0.6720  3.3270 -3.2218
  403MOL0     H54369   6.118  11.976   8.400  0.1265 -0.1680  0.5428
  403MOL0     H54370   6.099  11.800   8.390 -0.6602  0.0971  0.5506
  403MOL0     H54371   6.300  11.832   8.275 -0.2819 -1.1034 -1.2351
  403MOL0     H54372   6.176  11.783   8.163  3.1210 -3.9743  1.6848
  403MOL0     H54373   6.315  11.966   8.064  1.1246  4.0097  0.4251
  403MOL0     H54374   6.154  12.017   8.072  1.3717  1.4935 -1.0862
  403MOL0     H54375   6.337  12.092   8.301 -2.3169  0.1687  1.5168
  403MOL0     H54376   6.181  12.161   8.246  0.2723  0.5961  0.1452
  403MOL0     H54377   6.349  12.318   8.200  1.6076 -0.9093  1.4706
  403MOL0     H54378   6.315  12.261   8.037 -2.5563 -1.4694  0.5655
  403MOL0     H54379   6.539  12.111   8.169 -1.2064  0.8054  0.8442
  403MOL0     H54380   6.495  12.142   8.011 -1.2240  0.0058  0.1094
  403MOL0     H54381   6.586  12.364   8.183 -1.8452  0.3037  0.5962
  403MOL0     H54382   6.562  12.367   8.000 -2.7549 -1.4364  1.6552
  403MOL0     H54383   6.748  12.172   8.124 -0.6523  0.3188  0.7777
  403MOL0     H54384   6.775  12.267   7.978 -0.2276  0.0992 -0.1853
  403MOL0     H54385   5.779  11.721   8.186  0.9740 -2.6503 -0.2679
  403MOL0     H54386   5.581  11.620   8.310 -1.1422 -0.1628  1.8585
  403MOL0     H54387   5.433  11.564   8.774 -0.8900  2.8928  1.1385
  403MOL0     H54388   5.242  11.436   8.861  1.1073  1.1153  1.8670
  403MOL0     H54389   3.505  10.958   8.005 -0.9634  0.1772 -1.5563
  403MOL0     H54390   3.350  11.148   7.946  0.0943 -1.4407 -1.0645
  403MOL0     H54391   3.117  11.404   7.593 -1.8295 -0.7765  1.9829
  403MOL0     H54392   2.954  11.586   7.570  0.1909 -0.1153  0.0527
  403MOL0     H54393   3.055  12.007   7.649 -0.0786 -1.2112 -0.2806
  403MOL0     H54394   3.032  11.962   7.819  0.9675 -0.9542 -0.7783
  403MOL0     H54395   2.888  12.133   7.779  0.6956 -0.5919  0.7300
  403MOL0     H54396   2.773  11.998   7.764  1.1518 -0.9732  0.5143
  403MOL0     H54397   2.920  12.122   7.531 -0.0501  0.8280 -0.6871
  403MOL0     H54398   2.762  12.174   7.576  2.6736  1.3346 -0.0165
  403MOL0     H54399   2.763  12.034   7.379 -3.7433 -0.5066 -0.0827
  403MOL0     H54400   2.833  11.898   7.465 -1.5199 -0.1885  1.3477
  403MOL0     H54401   2.405  11.952   7.552  0.0005  2.7965 -0.6714
  403MOL0     H54402   3.197  11.838   7.800  1.9792 -0.1475  0.5278
  403MOL0     H54403   3.372  11.652   7.964 -2.2450 -1.9332 -1.2024
  403MOL0     H54404   3.478  11.626   7.825  0.2988  1.2820 -2.2488
  403MOL0     H54405   3.400  11.788   7.861  0.3069  0.1536 -1.5132
  404MOL0     O54406   4.071   5.535   0.618  0.1959 -0.3384  0.0971
  404MOL0     C54407   4.012   5.429   0.601  0.1242  0.3027 -0.4009
  404MOL0     O54408   4.023   5.349   0.488  0.0925  0.6340  0.0779
  404MOL0     C54409   4.115   5.398   0.402  0.4897  0.1910  0.3426
  404MOL0     C54410   4.252   5.365   0.428  0.0472 -0.3784 -0.1227
  404MOL0     C54411   4.352   5.432   0.355  0.2265  0.3855  0.3146
  404MOL0     C54412   4.316   5.530   0.261 -0.5572  0.6353  0.2458
  404MOL0     O54413   4.422   5.606   0.215 -0.1474  0.2940  0.0377
  404MOL0     C54414   4.400   5.735   0.156  0.1694 -0.5927 -0.2009
  404MOL0     C54415   4.527   5.784   0.085 -0.6276 -0.5953 -0.5618
  404MOL0     C54416   4.583   5.671   0.002 -0.4757  0.4454 -0.1464
  404MOL0     C54417   4.713   5.728  -0.069  0.7179  0.4632 -0.1465
  404MOL0     C54418   4.782   5.606  -0.138  0.8784  0.2483  0.0217
  404MOL0     C54419   4.909   5.657  -0.219 -0.3960 -0.6579  0.5452
  404MOL0     C54420   4.980   5.542  -0.281  1.3013 -0.2393 -0.8323
  404MOL0     C54421   5.088   5.590  -0.381 -0.3684  0.0144  0.4456
  404MOL0     N54422   5.024   5.658  -0.492 -0.2594  0.0469  0.6407
  404MOL0     C54423   5.065   5.784  -0.542  0.2643  0.6868 -0.3245
  404MOL0     C54424   4.978   5.806  -0.642  1.2702 -0.4563 -0.2782
  404MOL0     C54425   4.982   5.933  -0.732  0.5911  0.0787 -0.2866
  404MOL0     C54426   5.004   5.914  -0.884 -1.0301 -0.5165  0.5755
  404MOL0     C54427   5.114   5.998  -0.952 -0.6893 -0.2198  0.4047
  404MOL0     C54428   5.249   6.013  -0.881  0.4322 -0.0438  0.0716
  404MOL0     O54429   5.348   6.080  -0.967 -0.4362 -0.8880  0.6415
  404MOL0     C54430   5.480   6.086  -0.931 -0.1171  0.3902 -0.0293
  404MOL0     C54431   5.551   6.174  -1.014 -0.7495  0.4737  0.8160
  404MOL0     C54432   5.688   6.183  -1.000 -0.9609 -0.4467  0.4435
  404MOL0     C54433   5.750   6.113  -0.896 -0.2147  0.6837 -1.8518
  404MOL0     C54434   5.891   6.125  -0.868  0.7769  0.5871  0.0546
  404MOL0     O54435   5.945   6.054  -0.763  0.4481 -0.0978 -0.0010
  404MOL0     C54436   6.083   6.058  -0.765 -0.0612 -0.5822 -0.4977
  404MOL0     C54437   6.143   6.168  -0.709  0.8592 -0.3425  0.1951
  404MOL0     C54438   6.284   6.167  -0.704  0.1473 -0.4883  0.7192
  404MOL0     C54439   6.360   6.063  -0.751 -0.3778  1.1417  0.0308
  404MOL0     O54440   6.498   6.064  -0.722  0.1223 -0.4904 -0.0071
  404MOL0     C54441   6.579   5.972  -0.795 -0.7732 -1.0337  0.0057
  404MOL0     C54442   6.722   6.013  -0.787 -0.5316 -1.0716  0.3632
  404MOL0     C54443   6.816   5.902  -0.826  0.7023 -0.1787 -0.6148
  404MOL0     C54444   6.895   5.857  -0.700  0.3182 -0.8198  0.2254
  404MOL0     C54445   6.998   5.751  -0.744  0.0311 -0.0898 -0.0846
  404MOL0     C54446   7.097   5.688  -0.639 -0.2999  1.0086 -0.7641
  404MOL0     C54447   7.198   5.592  -0.709 -0.6273  0.1712 -0.4577
  404MOL0     C54448   7.324   5.665  -0.750  0.0785 -0.0893 -0.2255
  404MOL0    Cl54449   7.428   5.703  -0.597 -0.2774 -0.1193 -0.4917
  404MOL0     C54450   6.296   5.947  -0.800  0.6119  0.3185 -0.6023
  404MOL0     C54451   6.159   5.955  -0.815  0.1988  0.4127 -0.1018
  404MOL0     O54452   5.951   6.201  -0.938 -0.1894 -0.2162 -0.5086
  404MOL0     C54453   5.678   6.017  -0.814 -0.3524  0.8018  0.6816
  404MOL0     C54454   5.547   5.997  -0.837 -0.3922 -0.5993  0.3812
  404MOL0     N54455   4.888   5.697  -0.653  0.2212 -0.3130  0.5726
  404MOL0     N54456   4.919   5.614  -0.563  0.4297 -0.0162 -0.5079
  404MOL0     C54457   4.185   5.572   0.256 -0.0576  0.0289  0.3469
  404MOL0     C54458   4.088   5.500   0.323 -0.4796  0.0908 -0.6772
  404MOL0     C54459   3.933   5.374   0.714 -0.3954  0.1879 -0.4356
  404MOL0     C54460   3.854   5.269   0.665  0.2616  0.4792 -0.3436
  404MOL0     C54461   3.764   5.210   0.752 -0.7537  0.4555  0.0732
  404MOL0     C54462   3.754   5.248   0.886 -0.1987 -0.1678 -0.5086
  404MOL0     O54463   3.663   5.179   0.966 -0.3686 -0.0016  0.2851
  404MOL0     C54464   3.642   5.205   1.106  0.0442  0.8477  0.7701
  404MOL0     C54465   3.493   5.179   1.143  0.5397  0.0292 -0.3237
  404MOL0     C54466   3.473   5.191   1.298 -0.7949  0.5446 -0.5299
  404MOL0     C54467   3.354   5.122   1.361  0.0475 -1.0246 -0.3106
  404MOL0     C54468   3.241   5.164   1.285  0.3060  0.0553  0.9057
  404MOL0     C54469   3.138   5.212   1.229 -0.3368  1.0345 -0.3309
  404MOL0     C54470   3.853   5.340   0.941  0.2803  0.1381  0.2711
  404MOL0     C54471   3.941   5.411   0.848  0.5176  0.2178  1.5931
  404MOL0     C54472   4.025   5.518   0.902 -0.1072  0.0787 -0.0524
  404MOL0     H54473   4.285   5.285   0.493  3.6993 -1.0129 -2.4566
  404MOL0     H54474   4.457   5.413   0.371 -0.0675 -1.2926  0.4114
  404MOL0     H54475   4.313   5.743   0.090  1.2405  2.4927 -1.4588
  404MOL0     H54476   4.384   5.811   0.233  0.0922  0.2870 -1.0682
  404MOL0     H54477   4.596   5.826   0.159  0.2178 -1.4588 -0.8369
  404MOL0     H54478   4.501   5.866   0.018  0.2047  0.8960  0.8772
  404MOL0     H54479   4.521   5.621  -0.073  1.4551  2.9128 -3.6870
  404MOL0     H54480   4.605   5.600   0.082 -2.4677 -2.5028 -2.0072
  404MOL0     H54481   4.686   5.805  -0.142  1.5849  2.3511  1.4189
  404MOL0     H54482   4.775   5.784   0.002 -0.8437  1.0027  0.8395
  404MOL0     H54483   4.807   5.523  -0.070  1.1018 -0.5412 -1.0052
  404MOL0     H54484   4.705   5.571  -0.208  0.4191 -0.5749  0.9052
  404MOL0     H54485   4.871   5.718  -0.302  2.7981 -0.2979 -0.8099
  404MOL0     H54486   4.980   5.721  -0.165  0.3455 -1.2253  0.2573
  404MOL0     H54487   4.897   5.486  -0.325 -0.2769  0.4404  1.1087
  404MOL0     H54488   5.028   5.483  -0.202  2.2506 -0.1993 -1.3616
  404MOL0     H54489   5.170   5.648  -0.337 -1.4308  1.0015  1.1638
  404MOL0     H54490   5.134   5.492  -0.399 -0.0338 -0.0187  1.4201
  404MOL0     H54491   5.145   5.849  -0.508  2.9592 -0.7338 -3.4458
  404MOL0     H54492   4.881   5.976  -0.739  1.7606  2.9077 -1.1747
  404MOL0     H54493   5.046   6.009  -0.687  1.9342 -1.5113  0.5815
  404MOL0     H54494   5.014   5.807  -0.904 -1.3798  0.0529 -3.5412
  404MOL0     H54495   4.909   5.945  -0.928 -1.0884 -1.7731 -0.2149
  404MOL0     H54496   5.070   6.099  -0.954  1.9336  1.0836  2.0463
  404MOL0     H54497   5.136   5.955  -1.050 -2.4554 -0.0013 -0.1148
  404MOL0     H54498   5.283   5.912  -0.859  3.0732  0.5562 -0.9339
  404MOL0     H54499   5.245   6.075  -0.791  1.4217  1.1881 -0.6957
  404MOL0     H54500   5.495   6.217  -1.097  2.7401  0.6529 -1.6686
  404MOL0     H54501   5.755   6.237  -1.066  2.1781 -0.6957  3.1861
  404MOL0     H54502   6.096   6.258  -0.671 -1.7295 -1.3225 -0.4720
  404MOL0     H54503   6.341   6.250  -0.663  0.5902 -1.4301  2.0606
  404MOL0     H54504   6.566   5.869  -0.762 -1.3445 -0.6519  1.0163
  404MOL0     H54505   6.549   5.975  -0.901  2.2123 -2.2626 -0.9700
  404MOL0     H54506   6.741   6.101  -0.850 -2.2573 -0.5923  0.4591
  404MOL0     H54507   6.742   6.041  -0.683 -0.8325 -0.6032  0.2981
  404MOL0     H54508   6.758   5.815  -0.858  1.0152 -0.6122 -0.0300
  404MOL0     H54509   6.889   5.929  -0.903  0.9257  3.3234  0.6586
  404MOL0     H54510   6.830   5.808  -0.627  2.2308 -0.5274  2.2201
  404MOL0     H54511   6.949   5.937  -0.649 -0.6353 -1.2905  2.0274
  404MOL0     H54512   7.054   5.791  -0.829  1.0990  1.5485  1.3131
  404MOL0     H54513   6.936   5.675  -0.792  2.1016 -0.8166 -1.7404
  404MOL0     H54514   7.151   5.767  -0.586  3.3311 -1.5379 -0.3236
  404MOL0     H54515   7.049   5.623  -0.566  0.7991  0.0920 -0.8367
  404MOL0     H54516   7.157   5.551  -0.802 -2.9230  4.2290 -1.4828
  404MOL0     H54517   7.233   5.514  -0.640  1.3380  2.5680  1.4458
  404MOL0     H54518   7.394   5.607  -0.810 -0.2780 -2.3029  1.3689
  404MOL0     H54519   7.300   5.755  -0.807  0.5500 -1.0289 -1.9835
  404MOL0     H54520   6.343   5.856  -0.838  1.3036 -0.2302  1.4123
  404MOL0     H54521   6.090   5.881  -0.855  1.0116 -1.0778  1.1321
  404MOL0     H54522   5.728   5.957  -0.739  0.3588  1.1016  0.4527
  404MOL0     H54523   5.510   5.913  -0.780  0.3621 -1.4406 -0.3434
  404MOL0     H54524   4.141   5.660   0.210 -1.9139 -0.3085  1.3996
  404MOL0     H54525   3.986   5.535   0.333 -0.2501  0.4881  0.3984
  404MOL0     H54526   3.855   5.235   0.562 -0.1244  2.9059 -1.2156
  404MOL0     H54527   3.694   5.137   0.711 -0.1531  0.0963 -0.3397
  404MOL0     H54528   3.666   5.312   1.108  2.4394  0.4666 -1.7792
  404MOL0     H54529   3.705   5.160   1.184  0.8107  0.9383  0.2121
  404MOL0     H54530   3.461   5.079   1.111 -0.3709  0.4684 -0.8334
  404MOL0     H54531   3.438   5.259   1.091 -1.1723 -0.6264  0.3989
  404MOL0     H54532   3.483   5.293   1.334 -0.5662  0.0246  0.9645
  404MOL0     H54533   3.560   5.150   1.351 -1.8820 -0.5874  0.4439
  404MOL0     H54534   3.360   5.013   1.360  0.4056 -1.0075 -0.0951
  404MOL0     H54535   3.348   5.155   1.466  2.1438  3.3941 -1.3201
  404MOL0     H54536   3.055   5.263   1.184  1.1054  3.0314 -0.8258
  404MOL0     H54537   3.865   5.347   1.049 -0.3603 -0.5268  0.3949
  404MOL0     H54538   4.000   5.544   1.005 -0.2060  1.4434 -0.4066
  404MOL0     H54539   4.131   5.493   0.895  0.4031  2.4279 -1.6356
  404MOL0     H54540   4.001   5.611   0.850  0.9725  1.4568  1.7928
  405MOL0     O54541   6.724   4.062   1.923  0.0901  0.3422 -0.6197
  405MOL0     C54542   6.682   4.101   1.815  0.7745  0.1143 -0.6783
  405MOL0     O54543   6.557   4.152   1.793  0.0406  0.8197 -0.1061
  405MOL0     C54544   6.484   4.192   1.896  0.1078 -0.8950  0.2581
  405MOL0     C54545   6.492   4.328   1.941  0.4300 -0.3124 -0.5822
  405MOL0     C54546   6.416   4.380   2.041  0.4559  0.3175 -0.0696
  405MOL0     C54547   6.313   4.305   2.090  0.5819 -1.1829  0.2253
  405MOL0     O54548   6.232   4.360   2.189  0.2702 -0.2803  0.6269
  405MOL0     C54549   6.266   4.318   2.317  0.9186  0.2697 -0.7648
  405MOL0     C54550   6.401   4.362   2.377 -0.1388 -0.5084 -0.3892
  405MOL0     C54551   6.518   4.263   2.339 -0.1407 -1.1115 -0.1003
  405MOL0     C54552   6.631   4.301   2.428 -0.1652  0.4027 -0.9336
  405MOL0     C54553   6.719   4.177   2.443 -0.2329 -0.5687 -0.0945
  405MOL0     C54554   6.669   4.070   2.538 -0.7716  1.0568 -0.3750
  405MOL0     C54555   6.804   3.987   2.571 -0.5478  0.4258 -0.4309
  405MOL0     C54556   6.768   3.845   2.629  0.0106 -0.5083  0.2217
  405MOL0     N54557   6.664   3.843   2.740 -1.4436 -0.1147  0.3772
  405MOL0     C54558   6.692   3.888   2.867 -0.1341 -0.1571  0.3608
  405MOL0     C54559   6.595   3.846   2.951 -1.0721 -0.3398  0.9905
  405MOL0     C54560   6.593   3.853   3.097 -0.2144 -0.8315 -0.5750
  405MOL0     C54561   6.665   3.743   3.169  0.0606  0.2228 -1.2621
  405MOL0     C54562   6.814   3.742   3.141  0.4174 -0.6970  0.3379
  405MOL0     C54563   6.894   3.857   3.210  1.0061 -0.1667  0.2319
  405MOL0     O54564   6.890   3.839   3.344 -0.1903  1.0239 -0.4786
  405MOL0     C54565   6.922   3.945   3.425 -0.9918  0.5737  0.4082
  405MOL0     C54566   7.000   4.059   3.393  0.0840  0.0786 -0.4523
  405MOL0     C54567   7.031   4.161   3.484  0.6177 -0.6051 -0.5309
  405MOL0     C54568   6.986   4.148   3.618  1.1422 -0.7618  0.4671
  405MOL0     C54569   7.016   4.238   3.736  0.2257 -0.1307 -0.9952
  405MOL0     O54570   7.140   4.301   3.730  0.2170 -0.0362 -0.7382
  405MOL0     C54571   7.179   4.399   3.823 -0.8958 -0.8666 -0.3914
  405MOL0     C54572   7.317   4.416   3.826 -0.4851 -0.7427  0.2352
  405MOL0     C54573   7.374   4.505   3.918 -0.0853 -0.2989  0.4310
  405MOL0     C54574   7.293   4.595   3.992 -0.3719 -0.2419 -0.1251
  405MOL0     O54575   7.347   4.683   4.081 -0.1106  0.3564  0.1691
  405MOL0     C54576   7.436   4.782   4.038 -0.1597 -0.0781 -0.7606
  405MOL0     C54577   7.459   4.877   4.157  0.7853  1.5433 -0.1615
  405MOL0     C54578   7.507   5.013   4.103  0.0384 -0.2556  0.8009
  405MOL0     C54579   7.656   4.996   4.054 -0.0691  0.9184 -0.6106
  405MOL0     C54580   7.729   5.125   3.994  0.3370  0.6088  0.6213
  405MOL0     C54581   7.765   5.221   4.110  0.5717 -0.0414  0.2318
  405MOL0     C54582   7.823   5.350   4.051  0.5598 -0.1178 -0.0352
  405MOL0     C54583   7.865   5.456   4.146  0.4954  0.7558 -0.5912
  405MOL0    Cl54584   7.921   5.610   4.082 -0.1137 -0.0108  0.0420
  405MOL0     C54585   7.152   4.596   3.973 -0.2818 -0.1965 -0.5887
  405MOL0     C54586   7.097   4.498   3.888 -0.8336  0.0070  0.7403
  405MOL0     O54587   6.938   4.248   3.833  0.0568  0.2630  0.2852
  405MOL0     C54588   6.908   4.032   3.649  0.1584  0.6508 -0.5364
  405MOL0     C54589   6.884   3.930   3.556 -0.2371  0.2888  0.8095
  405MOL0     N54590   6.504   3.779   2.872 -0.5801  0.1443 -0.6531
  405MOL0     N54591   6.551   3.777   2.747 -0.2860 -0.3184  0.4145
  405MOL0     C54592   6.291   4.177   2.035 -0.4428  0.1930  0.1939
  405MOL0     C54593   6.380   4.123   1.948  0.2544 -0.0429  0.4045
  405MOL0     C54594   6.753   4.046   1.695  0.0861  0.4629 -0.9520
  405MOL0     C54595   6.671   4.032   1.583  0.7581  0.4054  0.0552
  405MOL0     C54596   6.716   3.989   1.459  0.2117  0.4071  0.4778
  405MOL0     C54597   6.846   3.938   1.445 -0.5165 -0.4865 -0.2222
  405MOL0     O54598   6.888   3.889   1.322  0.0678 -0.7114 -0.4185
  405MOL0     C54599   7.015   3.823   1.306 -1.4708  0.5016  1.4615
  405MOL0     C54600   7.016   3.682   1.367 -0.8698  0.4570 -0.3586
  405MOL0     C54601   7.136   3.588   1.327  0.2656 -0.1979  0.5430
  405MOL0     C54602   7.272   3.640   1.386  1.0189  0.4871  0.7945
  405MOL0     C54603   7.286   3.663   1.527  0.9546  0.6486 -0.3008
  405MOL0     C54604   7.289   3.681   1.647  0.5055  0.2104  0.4666
  405MOL0     C54605   6.920   3.945   1.562 -0.2840  0.4141  0.8154
  405MOL0     C54606   6.882   3.989   1.685 -0.1307 -0.7921 -0.2339
  405MOL0     C54607   6.980   3.959   1.795  0.2819  0.5685  0.2855
  405MOL0     H54608   6.563   4.398   1.897  0.5208 -0.4236 -0.6113
  405MOL0     H54609   6.421   4.481   2.081  0.7683  0.5045 -0.5756
  405MOL0     H54610   6.196   4.357   2.391  4.2300  1.9332  1.7709
  405MOL0     H54611   6.272   4.209   2.328  2.3530  0.3648 -0.4595
  405MOL0     H54612   6.386   4.370   2.485 -2.1055  1.5490 -0.7424
  405MOL0     H54613   6.423   4.464   2.346  0.7577 -1.1647 -2.0362
  405MOL0     H54614   6.541   4.281   2.234  0.3919 -0.6430  0.0949
  405MOL0     H54615   6.484   4.160   2.356  1.5448 -1.7941 -0.6755
  405MOL0     H54616   6.683   4.391   2.395  2.1079 -1.2117 -2.0328
  405MOL0     H54617   6.603   4.329   2.530  0.6234 -3.1131  0.3993
  405MOL0     H54618   6.733   4.130   2.345 -0.9781  0.1306 -0.5479
  405MOL0     H54619   6.811   4.228   2.475 -0.9955  0.4346  0.5336
  405MOL0     H54620   6.623   4.102   2.632  0.2841 -0.9775  0.9062
  405MOL0     H54621   6.610   3.993   2.488 -1.0343 -0.3224  1.9247
  405MOL0     H54622   6.875   4.035   2.639  0.0758  0.8075 -1.3291
  405MOL0     H54623   6.848   3.975   2.471 -0.6244 -0.0688 -0.4081
  405MOL0     H54624   6.743   3.774   2.549  0.6621  0.4007 -0.8194
  405MOL0     H54625   6.868   3.822   2.667  1.8669 -0.1799 -3.9214
  405MOL0     H54626   6.782   3.945   2.893 -1.1380  1.8947 -0.3993
  405MOL0     H54627   6.650   3.939   3.133  0.6726 -1.3289 -0.7619
  405MOL0     H54628   6.491   3.871   3.132  0.9439 -0.1870  2.8580
  405MOL0     H54629   6.650   3.762   3.275  3.2870  3.0926 -1.1795
  405MOL0     H54630   6.618   3.645   3.152 -1.7326  0.0753  3.1829
  405MOL0     H54631   6.836   3.739   3.034 -2.8430 -1.4085 -0.4293
  405MOL0     H54632   6.854   3.648   3.179  0.9120 -0.0721  1.4007
  405MOL0     H54633   6.839   3.947   3.182 -2.9184 -2.8693 -1.6435
  405MOL0     H54634   7.000   3.853   3.182  1.2887 -1.7900  1.4053
  405MOL0     H54635   7.030   4.086   3.292  0.3595  0.0858 -0.3670
  405MOL0     H54636   7.091   4.245   3.451 -2.4598  0.0126 -5.6147
  405MOL0     H54637   7.383   4.350   3.771  2.3202  0.8429  1.4519
  405MOL0     H54638   7.481   4.523   3.922 -0.1119  0.8358 -2.0267
  405MOL0     H54639   7.531   4.737   4.008  0.5839 -1.6776  3.3371
  405MOL0     H54640   7.390   4.838   3.956  1.1670  2.5580  0.1453
  405MOL0     H54641   7.362   4.894   4.204  0.8416 -0.5778  0.8150
  405MOL0     H54642   7.524   4.832   4.232  3.2660 -0.8526 -3.4040
  405MOL0     H54643   7.434   5.049   4.030  1.6104  2.2395  0.3705
  405MOL0     H54644   7.505   5.086   4.184 -3.2367 -0.7426  1.3040
  405MOL0     H54645   7.649   4.931   3.966 -0.7268 -1.1514  0.8856
  405MOL0     H54646   7.707   4.957   4.143 -1.5705  0.6860  0.1680
  405MOL0     H54647   7.663   5.189   3.934  2.2575  1.4564 -0.6656
  405MOL0     H54648   7.815   5.087   3.938 -0.1066 -1.0663  1.0068
  405MOL0     H54649   7.675   5.248   4.166  1.2526  2.5238  0.1980
  405MOL0     H54650   7.841   5.177   4.176  2.4209  1.0205 -1.1012
  405MOL0     H54651   7.751   5.394   3.981  0.7681 -4.0940 -3.0622
  405MOL0     H54652   7.914   5.322   3.997  0.8756 -2.4817  1.5625
  405MOL0     H54653   7.778   5.482   4.206 -0.9430 -1.8458 -1.3916
  405MOL0     H54654   7.951   5.414   4.199 -0.7314  0.2477  1.0490
  405MOL0     H54655   7.100   4.679   4.020 -0.5402  0.9575 -2.7519
  405MOL0     H54656   6.990   4.496   3.874 -0.9683  2.0993  1.1514
  405MOL0     H54657   6.872   4.013   3.750  0.1056 -3.8915 -1.1798
  405MOL0     H54658   6.850   3.833   3.589  0.0114  0.0710  0.4391
  405MOL0     H54659   6.199   4.127   2.064 -1.5318  2.8301  1.7364
  405MOL0     H54660   6.361   4.025   1.905 -0.5851  0.1748  0.2556
  405MOL0     H54661   6.565   4.056   1.593 -1.1071 -5.5444 -1.2223
  405MOL0     H54662   6.664   3.986   1.363 -0.7253 -2.7065  0.9670
  405MOL0     H54663   7.099   3.877   1.350  1.7634 -0.7637 -2.5230
  405MOL0     H54664   7.038   3.825   1.199 -2.0009  2.0027  1.3576
  405MOL0     H54665   6.921   3.632   1.346  0.0609 -0.8177 -1.7095
  405MOL0     H54666   7.023   3.683   1.476  0.6937 -2.1695 -0.3598
  405MOL0     H54667   7.155   3.587   1.220  1.8319  0.9148  0.7801
  405MOL0     H54668   7.116   3.485   1.358 -1.7299 -0.5998 -1.8398
  405MOL0     H54669   7.352   3.573   1.353  1.1086  1.7936 -1.8399
  405MOL0     H54670   7.297   3.734   1.335  0.6468 -1.0566 -2.4709
  405MOL0     H54671   7.292   3.697   1.753 -0.5340  0.5132  0.4643
  405MOL0     H54672   7.019   3.902   1.551 -0.8359 -0.6465 -0.3507
  405MOL0     H54673   7.033   4.053   1.813  2.4518 -0.7237  1.1025
  405MOL0     H54674   6.926   3.929   1.885 -0.5266 -1.3060 -0.7763
  405MOL0     H54675   7.052   3.880   1.771  0.4227  1.1252 -1.2310
  406MOL0     O54676  10.798   5.392  10.158  0.1300 -0.3144  0.4591
  406MOL0     C54677  10.842   5.348  10.272  1.0121  0.4004  0.6581
  406MOL0     O54678  10.973   5.318  10.302  0.6565  0.2835 -0.3101
  406MOL0     C54679  11.055   5.343  10.202  1.0968  0.3545  0.4578
  406MOL0     C54680  11.105   5.472  10.180  0.0623  0.1595  0.0681
  406MOL0     C54681  11.183   5.499  10.069 -0.2835  0.1120  0.1767
  406MOL0     C54682  11.210   5.404   9.968 -0.6454  0.0832  0.0657
  406MOL0     O54683  11.283   5.425   9.852  0.1205 -0.5011  0.5435
  406MOL0     C54684  11.424   5.455   9.873 -0.0381  0.5074 -0.1066
  406MOL0     C54685  11.516   5.435   9.745  0.6208 -0.3531  0.0388
  406MOL0     C54686  11.665   5.447   9.764 -0.2145  0.0725  0.0064
  406MOL0     C54687  11.718   5.575   9.822  0.4450  0.1079  0.4689
  406MOL0     C54688  11.868   5.583   9.829 -0.2949 -0.3394 -0.3582
  406MOL0     C54689  11.916   5.702   9.916  0.2358 -0.3652 -0.1643
  406MOL0     C54690  12.064   5.735   9.921 -0.4554  0.2323  0.2339
  406MOL0     C54691  12.156   5.618   9.968 -0.7667 -0.0164  0.5764
  406MOL0     N54692  12.281   5.679   9.999  0.0372 -0.3000 -0.0916
  406MOL0     C54693  12.376   5.707   9.901 -1.0724  0.7899 -0.4468
  406MOL0     C54694  12.464   5.784   9.958 -0.4495  0.2687 -0.4156
  406MOL0     C54695  12.592   5.850   9.914 -0.0801  0.5654  0.9197
  406MOL0     C54696  12.721   5.813   9.999  0.5598  0.3300 -0.7538
  406MOL0     C54697  12.719   5.870  10.143  0.7251 -0.1404 -0.5597
  406MOL0     C54698  12.858   5.907  10.204 -0.8143 -0.0592  0.3339
  406MOL0     O54699  12.947   5.796  10.179 -0.4868 -0.1104  0.1068
  406MOL0     C54700  13.084   5.809  10.189 -0.0051  0.5915 -0.7842
  406MOL0     C54701  13.167   5.697  10.180 -0.2960 -0.2997 -0.1451
  406MOL0     C54702  13.311   5.709  10.184 -0.0243 -0.1355  0.2612
  406MOL0     C54703  13.372   5.833  10.186 -0.5107  0.3259  0.1693
  406MOL0     C54704  13.524   5.839  10.193 -0.2339 -0.1562 -0.8895
  406MOL0     O54705  13.599   5.736  10.160  0.5824 -0.7064 -0.2307
  406MOL0     C54706  13.736   5.736  10.155 -0.4696  0.1678 -0.6924
  406MOL0     C54707  13.829   5.839  10.134  0.2645  1.0796 -0.3121
  406MOL0     C54708  13.968   5.812  10.146 -0.3568  0.1391 -0.7174
  406MOL0     C54709  14.022   5.688  10.180  0.4919  1.1723 -0.0544
  406MOL0     O54710  14.158   5.659  10.199  0.3863  0.3662 -0.8183
  406MOL0     C54711  14.242   5.758  10.140  0.3156  0.0812 -0.1653
  406MOL0     C54712  14.392   5.717  10.152 -0.0909 -0.1564 -0.1846
  406MOL0     C54713  14.463   5.719  10.289 -1.2695 -0.0178  0.7052
  406MOL0     C54714  14.613   5.715  10.256  0.3463  1.0282  0.5316
  406MOL0     C54715  14.686   5.726  10.385  0.0251  1.3084  0.6151
  406MOL0     C54716  14.840   5.735  10.352 -0.3591 -0.0858  0.2142
  406MOL0     C54717  14.935   5.719  10.473  0.8431  0.2769 -0.3793
  406MOL0     C54718  15.086   5.725  10.451  0.2075  0.2350 -0.5208
  406MOL0    Cl54719  15.131   5.632  10.324  0.1599  0.4540 -0.2139
  406MOL0     C54720  13.937   5.580  10.198 -0.3686 -0.0595  0.1210
  406MOL0     C54721  13.794   5.603  10.178 -0.2055 -0.5565 -0.7828
  406MOL0     O54722  13.567   5.943  10.238  0.0334  0.0042 -0.2409
  406MOL0     C54723  13.289   5.944  10.184  0.3178 -0.2047  0.3857
  406MOL0     C54724  13.148   5.939  10.193 -0.1353 -0.6646  0.3543
  406MOL0     N54725  12.436   5.798  10.095  0.9649  0.4224 -0.9253
  406MOL0     N54726  12.327   5.729  10.119 -0.3061  0.0552 -0.2245
  406MOL0     C54727  11.169   5.275   9.997 -0.6514 -0.9245 -0.7248
  406MOL0     C54728  11.087   5.248  10.108 -0.3296  0.0979 -0.8003
  406MOL0     C54729  10.739   5.327  10.384 -0.1796 -0.6662  0.6940
  406MOL0     C54730  10.763   5.234  10.483  0.0790 -0.2118 -0.1371
  406MOL0     C54731  10.680   5.218  10.591 -0.6682 -0.4194  0.0366
  406MOL0     C54732  10.568   5.296  10.605  0.6352  0.4499 -0.5704
  406MOL0     O54733  10.474   5.265  10.698 -0.1244  0.4262 -0.3482
  406MOL0     C54734  10.388   5.368  10.743  0.2756 -0.3964 -0.6452
  406MOL0     C54735  10.325   5.313  10.880 -0.1163 -0.7490  0.7065
  406MOL0     C54736  10.256   5.172  10.861  0.0352 -0.5766 -0.1773
  406MOL0     C54737  10.227   5.114  10.998  0.4595 -0.7816 -0.1546
  406MOL0     C54738  10.155   4.989  10.975 -0.1920 -0.3015  1.1634
  406MOL0     C54739  10.100   4.885  10.943  0.3956  0.0275 -0.4853
  406MOL0     C54740  10.542   5.394  10.514  0.7223 -0.0638  0.1810
  406MOL0     C54741  10.630   5.414  10.400  0.4927  0.0845 -0.8638
  406MOL0     C54742  10.593   5.532  10.307  1.1989 -0.3748 -0.4976
  406MOL0     H54743  11.090   5.551  10.253 -1.9260 -0.6663  0.6241
  406MOL0     H54744  11.222   5.599  10.060 -0.4509 -0.0029 -2.5328
  406MOL0     H54745  11.437   5.554   9.918 -0.4738  1.1484 -1.3324
  406MOL0     H54746  11.459   5.381   9.945 -0.7125  1.5438  1.3296
  406MOL0     H54747  11.476   5.503   9.669 -0.4351 -0.6098  0.3439
  406MOL0     H54748  11.496   5.332   9.712 -2.5011  0.9698 -2.7986
  406MOL0     H54749  11.710   5.432   9.666  0.5891  0.5469  0.2903
  406MOL0     H54750  11.698   5.368   9.832 -0.1929  0.3310  0.3026
  406MOL0     H54751  11.689   5.657   9.756  3.7890  1.0764  0.0064
  406MOL0     H54752  11.671   5.582   9.921 -0.9659  0.8068 -0.2177
  406MOL0     H54753  11.903   5.491   9.876  0.6827  0.1671 -0.0598
  406MOL0     H54754  11.912   5.586   9.729 -4.3308 -1.7855 -2.3828
  406MOL0     H54755  11.865   5.793   9.884  0.9289 -0.3524 -1.2634
  406MOL0     H54756  11.876   5.674  10.014  1.4721 -2.4596 -0.2019
  406MOL0     H54757  12.077   5.810  10.000  0.8551  1.0409 -0.7134
  406MOL0     H54758  12.096   5.778   9.826 -0.3524 -0.8857 -0.2569
  406MOL0     H54759  12.130   5.567  10.061  2.4138 -0.8087  1.1501
  406MOL0     H54760  12.158   5.536   9.896 -2.9991 -0.6033  1.0878
  406MOL0     H54761  12.367   5.685   9.795 -1.5793 -0.5457 -0.1444
  406MOL0     H54762  12.605   5.803   9.816 -1.2058 -0.1476  1.0973
  406MOL0     H54763  12.581   5.959   9.908  0.6876  0.7811  2.6775
  406MOL0     H54764  12.721   5.704   9.997  0.0493  0.1994  2.3704
  406MOL0     H54765  12.814   5.831   9.944  0.3548 -0.0580 -1.2449
  406MOL0     H54766  12.692   5.786  10.208  4.2039 -0.8183  0.2272
  406MOL0     H54767  12.654   5.957  10.129  1.4556 -0.0750 -5.0685
  406MOL0     H54768  12.839   5.941  10.307 -0.8789  2.5248 -0.4414
  406MOL0     H54769  12.897   5.995  10.151  1.6222 -1.8567 -1.0384
  406MOL0     H54770  13.119   5.600  10.172 -2.2427  0.6510 -0.6764
  406MOL0     H54771  13.377   5.623  10.178  0.6621  0.3310  1.0224
  406MOL0     H54772  13.793   5.938  10.109  0.9258  2.4310  3.4556
  406MOL0     H54773  14.033   5.895  10.123 -0.6708 -0.2174 -3.1254
  406MOL0     H54774  14.220   5.756  10.033  2.6650  0.2321 -0.7112
  406MOL0     H54775  14.228   5.858  10.184 -0.3533 -0.0472 -0.0786
  406MOL0     H54776  14.408   5.614  10.120  2.4336 -0.3752  1.5026
  406MOL0     H54777  14.439   5.782  10.078 -0.9523  1.5715  0.7042
  406MOL0     H54778  14.446   5.812  10.345 -2.1617  0.4568 -0.3309
  406MOL0     H54779  14.444   5.636  10.357  0.8433  0.8601  2.5212
  406MOL0     H54780  14.645   5.794  10.188 -0.9014  0.4194 -0.8043
  406MOL0     H54781  14.635   5.618  10.211 -0.1569  2.9095 -4.3745
  406MOL0     H54782  14.675   5.633  10.441  1.1158  0.7397 -0.0808
  406MOL0     H54783  14.639   5.808  10.441  0.7073  2.2057 -0.0923
  406MOL0     H54784  14.874   5.659  10.282 -0.1218 -0.8386  1.1316
  406MOL0     H54785  14.849   5.830  10.297 -2.3033 -0.2047 -0.3877
  406MOL0     H54786  14.925   5.622  10.523  1.6987 -0.3170 -1.3331
  406MOL0     H54787  14.898   5.798  10.538 -0.4035 -0.7908  0.2570
  406MOL0     H54788  15.113   5.826  10.418  1.5164  0.9580  2.4794
  406MOL0     H54789  15.142   5.703  10.542 -0.8465 -1.0342 -0.1562
  406MOL0     H54790  13.988   5.487  10.222 -3.4526 -2.1913 -1.0481
  406MOL0     H54791  13.735   5.515  10.200  1.7497 -1.7743 -0.0987
  406MOL0     H54792  13.340   6.040  10.180  1.9415 -0.8533  3.0877
  406MOL0     H54793  13.093   6.032  10.181  0.3347 -0.6884 -2.9472
  406MOL0     H54794  11.180   5.205   9.915 -2.2799 -2.6763  0.4570
  406MOL0     H54795  11.032   5.154  10.118 -0.1932 -0.0487 -1.3824
  406MOL0     H54796  10.851   5.174  10.464  0.1514  0.3326 -1.6346
  406MOL0     H54797  10.704   5.134  10.657 -2.3486  0.6947  2.1887
  406MOL0     H54798  10.300   5.391  10.682 -0.6093  0.9227  1.0415
  406MOL0     H54799  10.446   5.459  10.763 -0.0269 -0.2617 -0.3639
  406MOL0     H54800  10.247   5.376  10.924  1.1607  0.4294  1.3642
  406MOL0     H54801  10.406   5.306  10.954 -0.7220  0.8022  1.5695
  406MOL0     H54802  10.324   5.110  10.803  0.2077 -0.5063 -0.0502
  406MOL0     H54803  10.168   5.199  10.802 -0.1755  2.6710  1.4229
  406MOL0     H54804  10.319   5.099  11.054 -1.4964  0.6725  3.8886
  406MOL0     H54805  10.159   5.182  11.052 -1.7027 -3.1678  0.3304
  406MOL0     H54806  10.055   4.799  10.898 -0.8479  2.6552 -4.8763
  406MOL0     H54807  10.451   5.453  10.520 -1.6268 -3.2814 -0.7125
  406MOL0     H54808  10.519   5.589  10.363  0.8804 -1.9544  0.7705
  406MOL0     H54809  10.674   5.601  10.283  1.1591  0.7750  2.3169
  406MOL0     H54810  10.560   5.484  10.214  0.7310 -3.4724  1.1297
  407MOL0     O54811   5.575  11.195   7.440  0.0436 -0.7204  0.3108
  407MOL0     C54812   5.572  11.072   7.455 -0.6656  1.0669 -0.0600
  407MOL0     O54813   5.495  11.007   7.533  0.3807 -0.8573  0.0585
  407MOL0     C54814   5.378  11.077   7.579 -0.6974 -0.3108  0.6347
  407MOL0     C54815   5.247  11.060   7.520  0.4441  0.0398  0.1922
  407MOL0     C54816   5.135  11.107   7.583 -0.2867 -0.0610 -0.3223
  407MOL0     C54817   5.151  11.186   7.697 -0.0774  1.4063  0.5781
  407MOL0     O54818   5.022  11.222   7.733  0.2728  0.0655  0.1007
  407MOL0     C54819   5.011  11.295   7.852  0.6060 -0.2554 -0.2440
  407MOL0     C54820   4.862  11.323   7.892  0.1970  0.1861 -0.4993
  407MOL0     C54821   4.805  11.197   7.947 -1.1692  0.6342 -0.7637
  407MOL0     C54822   4.656  11.223   7.975 -0.2162  0.6135 -0.6340
  407MOL0     C54823   4.587  11.130   8.075 -0.2217  0.8324  0.5831
  407MOL0     C54824   4.590  10.978   8.036 -0.3266 -0.7200  0.1700
  407MOL0     C54825   4.529  10.962   7.888 -0.0593 -0.0662  0.1025
  407MOL0     C54826   4.516  10.822   7.840 -0.0238 -0.6895  0.3988
  407MOL0     N54827   4.642  10.746   7.867 -0.3398 -1.4309  0.0709
  407MOL0     C54828   4.768  10.786   7.822  0.2906  1.3051  0.0162
  407MOL0     C54829   4.850  10.684   7.868 -0.3909  0.9196  0.7476
  407MOL0     C54830   4.997  10.695   7.862 -0.9042 -0.2937  0.3943
  407MOL0     C54831   5.042  10.776   7.990  0.6215  0.2802  0.4543
  407MOL0     C54832   5.183  10.818   7.959  0.2803 -0.9598 -0.0249
  407MOL0     C54833   5.246  10.878   8.074 -0.4398  0.9371 -0.1117
  407MOL0     O54834   5.220  10.791   8.191  0.2594  0.1346 -0.2940
  407MOL0     C54835   5.285  10.808   8.305 -0.3614 -0.7793 -1.0313
  407MOL0     C54836   5.405  10.884   8.320  0.1696  0.6431 -0.0369
  407MOL0     C54837   5.464  10.896   8.451 -0.1522  0.3012 -0.1567
  407MOL0     C54838   5.399  10.830   8.563 -0.7884  0.5540  0.2181
  407MOL0     C54839   5.467  10.833   8.693 -0.2504 -0.6026 -0.5668
  407MOL0     O54840   5.591  10.888   8.708 -0.1867  0.1722 -0.0427
  407MOL0     C54841   5.650  10.885   8.828 -0.2531 -0.2557 -0.2047
  407MOL0     C54842   5.762  10.790   8.844  0.5635  0.1994 -0.4496
  407MOL0     C54843   5.833  10.773   8.962 -1.0447  0.1546  0.2055
  407MOL0     C54844   5.809  10.856   9.074  0.0801 -0.1320 -0.3154
  407MOL0     O54845   5.885  10.834   9.194 -0.1683  0.1340  0.5479
  407MOL0     C54846   5.880  10.922   9.302 -0.4510 -0.7062  0.3836
  407MOL0     C54847   5.783  10.876   9.418  0.3600  0.8189 -0.0040
  407MOL0     C54848   5.817  10.938   9.557 -0.0535  0.0301  0.4416
  407MOL0     C54849   5.775  11.081   9.574  0.6937 -0.1640  0.5643
  407MOL0     C54850   5.628  11.113   9.592  0.1916 -0.1242  0.0486
  407MOL0     C54851   5.619  11.246   9.669  1.0867  0.8459 -0.3163
  407MOL0     C54852   5.662  11.240   9.819  0.9249  0.2828  0.2006
  407MOL0     C54853   5.622  11.369   9.893  0.0890  1.0955  0.1885
  407MOL0    Cl54854   5.722  11.505   9.834 -0.2395  0.2130  0.3134
  407MOL0     C54855   5.718  10.964   9.049 -0.7210  0.1737  0.7283
  407MOL0     C54856   5.639  10.971   8.938 -0.0494  0.0005  1.1935
  407MOL0     O54857   5.405  10.786   8.785  0.9845 -0.4782 -0.3825
  407MOL0     C54858   5.285  10.761   8.533  0.4409  0.6976 -0.7496
  407MOL0     C54859   5.225  10.747   8.416  0.8364  0.7096  0.4728
  407MOL0     N54860   4.774  10.592   7.940 -0.4454  0.7129  0.2173
  407MOL0     N54861   4.652  10.631   7.927 -0.2518 -0.1462  0.1894
  407MOL0     C54862   5.275  11.210   7.758 -0.0666 -0.1558  0.0611
  407MOL0     C54863   5.389  11.148   7.702 -0.6385 -0.0174 -0.1158
  407MOL0     C54864   5.673  10.971   7.396 -0.0613 -0.5280  1.0118
  407MOL0     C54865   5.657  10.838   7.396  0.5326 -0.3582 -0.5342
  407MOL0     C54866   5.752  10.749   7.343  1.5722 -0.0076  0.4699
  407MOL0     C54867   5.869  10.795   7.281  1.0688 -0.9051 -0.2675
  407MOL0     O54868   5.968  10.718   7.230 -0.0819  0.6066 -0.7432
  407MOL0     C54869   5.991  10.731   7.094 -0.5245  0.0391  0.2172
  407MOL0     C54870   6.125  10.677   7.058 -0.1511 -0.1607  0.0640
  407MOL0     C54871   6.225  10.784   7.115  0.0565  0.5656 -0.8260
  407MOL0     C54872   6.365  10.743   7.070  0.1578 -0.5775  0.4795
  407MOL0     C54873   6.481  10.763   7.160  0.1673 -0.2676 -0.3053
  407MOL0     C54874   6.578  10.783   7.234 -0.3266  0.2434  0.0340
  407MOL0     C54875   5.889  10.936   7.283 -0.6059  0.5631  0.9860
  407MOL0     C54876   5.796  11.023   7.339 -0.2367  0.1696 -0.0171
  407MOL0     C54877   5.831  11.174   7.328  0.4090  0.1476 -1.0739
  407MOL0     H54878   5.235  11.022   7.419 -1.5415  0.7666  0.1202
  407MOL0     H54879   5.045  11.083   7.528 -1.5950  2.2825  0.6743
  407MOL0     H54880   5.067  11.246   7.932  1.2394  0.5809 -0.1562
  407MOL0     H54881   5.056  11.394   7.850  0.5507 -0.0186  3.3877
  407MOL0     H54882   4.800  11.354   7.806 -1.9029 -1.7417  0.2100
  407MOL0     H54883   4.865  11.403   7.966 -0.7394 -0.8269  0.6666
  407MOL0     H54884   4.848  11.161   8.041  0.4107 -0.4342 -1.8510
  407MOL0     H54885   4.814  11.119   7.870 -2.1922  1.6759 -1.9760
  407MOL0     H54886   4.658  11.321   8.024 -3.6945 -0.0254  1.0855
  407MOL0     H54887   4.594  11.223   7.885 -0.8455 -0.2391 -0.2116
  407MOL0     H54888   4.629  11.142   8.176  1.4955 -0.6717  0.0969
  407MOL0     H54889   4.484  11.166   8.084 -1.0416 -1.3162  0.2293
  407MOL0     H54890   4.695  10.949   8.045 -0.2528 -0.1049  1.5519
  407MOL0     H54891   4.534  10.923   8.112  0.9121 -1.5164  0.5375
  407MOL0     H54892   4.598  11.022   7.829  2.4452  0.4506  3.2697
  407MOL0     H54893   4.430  11.011   7.891  0.6625  1.4642  0.0567
  407MOL0     H54894   4.431  10.767   7.881 -2.9901  3.0503 -0.1274
  407MOL0     H54895   4.498  10.816   7.733 -2.0051  0.0064  0.6588
  407MOL0     H54896   4.797  10.872   7.763 -1.0142  2.0844  0.4838
  407MOL0     H54897   5.048  10.599   7.854 -1.4143 -0.4507 -1.2015
  407MOL0     H54898   5.020  10.758   7.776 -1.4358 -0.2287  0.2952
  407MOL0     H54899   4.980  10.865   7.997  2.7629  1.9323 -0.5056
  407MOL0     H54900   5.032  10.711   8.078  0.4282 -2.1122 -1.2184
  407MOL0     H54901   5.178  10.893   7.881 -0.5932  0.0307  0.9487
  407MOL0     H54902   5.245  10.739   7.914 -0.2966 -1.0438 -0.6840
  407MOL0     H54903   5.202  10.976   8.094  1.3287  1.9542 -0.9273
  407MOL0     H54904   5.351  10.894   8.047  0.0463 -0.3372  0.9567
  407MOL0     H54905   5.457  10.938   8.241  1.4296  1.1632  1.1036
  407MOL0     H54906   5.562  10.941   8.465  1.8610 -2.2460 -4.1121
  407MOL0     H54907   5.781  10.731   8.754 -0.6595  0.2172 -0.7340
  407MOL0     H54908   5.905  10.691   8.963  0.1897  1.2098 -0.2054
  407MOL0     H54909   5.978  10.938   9.348 -1.0738  2.7917  0.7805
  407MOL0     H54910   5.849  11.025   9.279 -0.2917 -0.2225  2.1255
  407MOL0     H54911   5.678  10.870   9.389  0.5456  0.1477 -0.5906
  407MOL0     H54912   5.805  10.769   9.412  0.4096  0.8927 -1.5480
  407MOL0     H54913   5.785  10.875   9.640 -1.5471  0.5933  0.3206
  407MOL0     H54914   5.923  10.954   9.578  0.1229  0.3419 -0.6186
  407MOL0     H54915   5.819  11.147   9.498 -0.5219 -0.7798 -0.7066
  407MOL0     H54916   5.829  11.110   9.665  1.3001 -0.5665  0.3422
  407MOL0     H54917   5.575  11.038   9.651  0.2384 -1.6257 -1.7400
  407MOL0     H54918   5.576  11.111   9.496  0.4642  1.2866 -0.1579
  407MOL0     H54919   5.684  11.324   9.627  4.5865  0.1126  3.1528
  407MOL0     H54920   5.515  11.276   9.651  1.4360  2.7173  0.5724
  407MOL0     H54921   5.771  11.231   9.827  0.7693 -0.6439  1.3366
  407MOL0     H54922   5.609  11.157   9.864 -3.4540  1.2615 -2.5659
  407MOL0     H54923   5.513  11.375   9.886 -0.0078 -1.3020 -4.5377
  407MOL0     H54924   5.642  11.363  10.001  2.6011 -1.8428 -0.2769
  407MOL0     H54925   5.707  11.048   9.117 -3.1316 -0.1261  0.7860
  407MOL0     H54926   5.563  11.049   8.930 -0.8383 -0.4472  3.5510
  407MOL0     H54927   5.232  10.710   8.613 -0.6389 -0.1073 -1.9276
  407MOL0     H54928   5.141  10.680   8.402  0.4505  1.3819 -0.5035
  407MOL0     H54929   5.289  11.263   7.851  0.7396  0.4731 -0.4039
  407MOL0     H54930   5.491  11.169   7.731 -0.3073  1.0517 -1.8693
  407MOL0     H54931   5.568  10.801   7.445  1.5064 -1.1689  0.6782
  407MOL0     H54932   5.725  10.645   7.357 -0.5351  0.3989 -0.1311
  407MOL0     H54933   5.994  10.834   7.057  1.1291 -0.2327 -0.5006
  407MOL0     H54934   5.919  10.667   7.043  0.9255 -1.5960  0.1282
  407MOL0     H54935   6.124  10.662   6.949  2.2278  0.8193 -0.1445
  407MOL0     H54936   6.141  10.587   7.118  3.1149  0.0973 -0.2478
  407MOL0     H54937   6.225  10.800   7.223  1.9040 -1.0462 -0.5283
  407MOL0     H54938   6.203  10.888   7.088 -2.5273 -0.1437 -1.6877
  407MOL0     H54939   6.373  10.637   7.043 -0.8401 -0.4044 -0.5771
  407MOL0     H54940   6.388  10.797   6.978  0.5683  0.6153  1.2535
  407MOL0     H54941   6.664  10.810   7.291  1.8224  1.8900 -3.6438
  407MOL0     H54942   5.982  10.978   7.246 -1.2596  1.9662  0.8512
  407MOL0     H54943   5.757  11.209   7.255 -0.8158  1.4511  0.6862
  407MOL0     H54944   5.812  11.225   7.423 -1.9848  1.3918 -2.1230
  407MOL0     H54945   5.928  11.204   7.287  0.3417  0.8016 -0.7728
  408MOL0     O54946   8.444   1.299   1.134 -0.3126 -0.6370 -0.1065
  408MOL0     C54947   8.361   1.355   1.057  0.2358  0.0071  0.0565
  408MOL0     O54948   8.289   1.283   0.964  0.0297 -0.4397 -0.5295
  408MOL0     C54949   8.330   1.157   0.928 -0.7001 -0.6680  0.6321
  408MOL0     C54950   8.457   1.136   0.877 -0.6770 -0.5154 -0.3778
  408MOL0     C54951   8.489   1.020   0.798 -0.2014 -0.3098  0.3552
  408MOL0     C54952   8.395   0.913   0.795 -0.6184 -0.3090 -0.4382
  408MOL0     O54953   8.420   0.787   0.753  0.3598 -0.1090  0.1920
  408MOL0     C54954   8.552   0.739   0.720 -0.2141  0.1632  0.6719
  408MOL0     C54955   8.542   0.638   0.605 -0.5354  0.8360  0.2027
  408MOL0     C54956   8.671   0.586   0.538 -0.5043 -0.3987 -0.5263
  408MOL0     C54957   8.638   0.487   0.434  1.1086 -0.2694  0.7616
  408MOL0     C54958   8.762   0.426   0.362  0.4848  0.4239  0.0616
  408MOL0     C54959   8.727   0.335   0.244 -0.2214 -0.1870  0.0042
  408MOL0     C54960   8.644   0.212   0.300  0.6231  0.9067 -0.2347
  408MOL0     C54961   8.642   0.089   0.196  0.8127  0.0095  0.7440
  408MOL0     N54962   8.646   0.139   0.057 -0.2458 -0.2441 -0.4643
  408MOL0     C54963   8.544   0.213   0.010  0.0177  0.3528  0.4739
  408MOL0     C54964   8.573   0.225  -0.120  0.9933 -0.5623 -0.2186
  408MOL0     C54965   8.491   0.307  -0.219  0.0375  0.2611 -0.0979
  408MOL0     C54966   8.396   0.232  -0.308  0.5744 -0.8108  0.1488
  408MOL0     C54967   8.465   0.158  -0.434  0.2695 -0.9011 -1.1874
  408MOL0     C54968   8.367   0.143  -0.544  0.2757 -0.3904  0.7505
  408MOL0     O54969   8.364   0.261  -0.633  0.3785  0.1398 -0.5335
  408MOL0     C54970   8.269   0.272  -0.729 -0.5615  0.0121  0.0854
  408MOL0     C54971   8.235   0.158  -0.817 -1.0473  0.1225  0.1234
  408MOL0     C54972   8.126   0.166  -0.896 -0.1999 -0.4578 -0.0573
  408MOL0     C54973   8.049   0.279  -0.910  0.8585 -0.9286  0.4831
  408MOL0     C54974   7.926   0.293  -0.989 -0.7155 -0.7654 -0.3034
  408MOL0     O54975   7.875   0.421  -1.004 -0.9203  0.5936 -0.3214
  408MOL0     C54976   7.763   0.453  -1.068  0.5394  0.3480 -0.5427
  408MOL0     C54977   7.684   0.371  -1.148  0.2127 -0.2510  0.1856
  408MOL0     C54978   7.571   0.426  -1.203 -0.7287 -0.2756  0.0597
  408MOL0     C54979   7.531   0.558  -1.185 -0.2603  0.2027 -0.4855
  408MOL0     O54980   7.417   0.611  -1.239  0.2497  0.0736  0.3568
  408MOL0     C54981   7.299   0.531  -1.221 -0.2179  0.0055 -0.7608
  408MOL0     C54982   7.173   0.584  -1.294 -0.6942  0.2171  0.6314
  408MOL0     C54983   7.049   0.491  -1.280 -0.1727  0.2612 -0.0351
  408MOL0     C54984   6.985   0.499  -1.142  0.3767  0.7727  0.8312
  408MOL0     C54985   6.872   0.404  -1.122  0.0851  0.3209  0.3082
  408MOL0     C54986   6.794   0.437  -0.997  0.6624 -0.0066  0.7927
  408MOL0     C54987   6.726   0.312  -0.952  1.0186  0.6886 -1.1685
  408MOL0     C54988   6.608   0.337  -0.858  0.1869 -0.5545 -0.3839
  408MOL0    Cl54989   6.562   0.196  -0.764 -0.6939  0.0675 -0.1987
  408MOL0     C54990   7.619   0.647  -1.117  0.8705  0.8263  0.3682
  408MOL0     C54991   7.735   0.590  -1.066  0.3713 -0.7049 -0.4247
  408MOL0     O54992   7.869   0.181  -1.011  0.0117 -0.5828  0.2085
  408MOL0     C54993   8.076   0.386  -0.831 -0.4072 -0.7084 -0.8472
  408MOL0     C54994   8.183   0.379  -0.742  0.2751 -0.5894 -0.4048
  408MOL0     N54995   8.690   0.154  -0.144  1.0568 -0.2343 -0.0376
  408MOL0     N54996   8.739   0.102  -0.037  0.7149  0.0453 -0.0492
  408MOL0     C54997   8.274   0.926   0.857 -0.2912 -0.3405  0.5387
  408MOL0     C54998   8.249   1.050   0.924  0.1751 -0.4248 -0.1174
  408MOL0     C54999   8.340   1.509   1.066  0.4789  0.5435 -0.3471
  408MOL0     C55000   8.236   1.560   0.980 -0.5297 -0.3012 -0.0601
  408MOL0     C55001   8.194   1.693   0.988  0.2621  0.1949 -1.2919
  408MOL0     C55002   8.255   1.780   1.080 -0.1903  0.0112  0.2820
  408MOL0     O55003   8.212   1.909   1.076  0.0564 -0.7307  0.0687
  408MOL0     C55004   8.254   2.005   1.171 -0.0872 -0.1403 -0.1465
  408MOL0     C55005   8.377   2.076   1.125  0.5267  0.6590  0.0590
  408MOL0     C55006   8.360   2.172   1.007 -0.4411  0.7276  0.0659
  408MOL0     C55007   8.359   2.103   0.864 -0.4459 -0.6610 -0.0273
  408MOL0     C55008   8.363   2.212   0.767  0.7279  0.1481 -0.1410
  408MOL0     C55009   8.345   2.293   0.683  0.4732 -0.9711  0.8291
  408MOL0     C55010   8.363   1.731   1.162 -0.5445  0.9501  1.3322
  408MOL0     C55011   8.403   1.596   1.167  0.4590 -0.3172  0.3732
  408MOL0     C55012   8.505   1.563   1.279  0.1187  0.8987  0.3014
  408MOL0     H55013   8.527   1.216   0.902  0.3561 -1.3587 -0.5044
  408MOL0     H55014   8.583   0.999   0.747  1.2449  0.2570  2.6226
  408MOL0     H55015   8.624   0.818   0.694 -2.6938  2.3100 -0.0465
  408MOL0     H55016   8.600   0.684   0.802  2.9831 -0.0594 -1.1538
  408MOL0     H55017   8.480   0.692   0.533  0.2351  1.2530 -0.1567
  408MOL0     H55018   8.481   0.558   0.647 -2.1226  1.5053 -0.7338
  408MOL0     H55019   8.725   0.534   0.618  0.1138  0.5333 -0.3216
  408MOL0     H55020   8.727   0.673   0.502 -2.4089  0.6231 -1.1438
  408MOL0     H55021   8.596   0.403   0.490 -0.9366  0.6725  0.7484
  408MOL0     H55022   8.566   0.538   0.368  2.0195  0.8210  0.5665
  408MOL0     H55023   8.824   0.512   0.336 -0.4285  1.6628  1.8132
  408MOL0     H55024   8.816   0.369   0.438 -0.9801 -2.3446 -0.8373
  408MOL0     H55025   8.679   0.396   0.167  0.2107 -0.6879 -0.6662
  408MOL0     H55026   8.810   0.285   0.194 -0.6647 -1.1601  0.2120
  408MOL0     H55027   8.539   0.236   0.314 -0.0891 -2.0806  0.0999
  408MOL0     H55028   8.675   0.175   0.398 -3.9497 -0.9666  0.7405
  408MOL0     H55029   8.726   0.020   0.206  0.5159 -0.8779 -2.0468
  408MOL0     H55030   8.549   0.035   0.213  0.7892 -0.0274  0.5044
  408MOL0     H55031   8.470   0.273   0.062  1.5395  1.4575  1.4554
  408MOL0     H55032   8.432   0.372  -0.154  3.2104  3.8326 -0.4555
  408MOL0     H55033   8.560   0.372  -0.273  0.1020  1.5364  1.4214
  408MOL0     H55034   8.336   0.166  -0.244  0.6932 -0.2203  0.8874
  408MOL0     H55035   8.334   0.317  -0.337  3.1757  1.7170  1.4293
  408MOL0     H55036   8.495   0.058  -0.402  1.9448 -1.1022 -3.1713
  408MOL0     H55037   8.548   0.217  -0.474  0.3004 -0.1874 -0.1169
  408MOL0     H55038   8.271   0.117  -0.498 -1.0043  0.0905 -1.4965
  408MOL0     H55039   8.396   0.059  -0.608  1.2430 -0.4018  1.1870
  408MOL0     H55040   8.293   0.066  -0.810  0.0847  0.9596  2.5441
  408MOL0     H55041   8.106   0.081  -0.961 -0.3388 -0.2950 -0.2305
  408MOL0     H55042   7.714   0.269  -1.170  0.9953 -0.0226  0.1669
  408MOL0     H55043   7.531   0.368  -1.285  1.4719  0.0676 -1.3528
  408MOL0     H55044   7.320   0.429  -1.257  1.6159  0.4554 -1.0910
  408MOL0     H55045   7.271   0.523  -1.116 -1.2088  0.6346 -0.9624
  408MOL0     H55046   7.147   0.676  -1.240  1.0873  0.3266  1.3934
  408MOL0     H55047   7.210   0.613  -1.393 -0.2132 -0.0480  0.7299
  408MOL0     H55048   6.966   0.522  -1.344  0.1368 -1.3058 -1.2718
  408MOL0     H55049   7.075   0.386  -1.301 -3.6002 -0.4741 -1.3003
  408MOL0     H55050   6.955   0.601  -1.118  0.3357  1.4669 -1.8877
  408MOL0     H55051   7.066   0.472  -1.072 -0.1871  2.0906  2.0426
  408MOL0     H55052   6.924   0.309  -1.109 -0.2540  0.0093 -0.5525
  408MOL0     H55053   6.807   0.399  -1.210  1.8624 -1.5267 -1.0016
  408MOL0     H55054   6.861   0.467  -0.916 -2.1685  1.7969  2.6607
  408MOL0     H55055   6.724   0.520  -1.011 -0.1834 -1.0373 -1.7161
  408MOL0     H55056   6.809   0.256  -0.909  2.0665  0.7675 -2.9631
  408MOL0     H55057   6.693   0.246  -1.033 -3.5721  0.2383  0.7920
  408MOL0     H55058   6.649   0.413  -0.792  1.0495 -1.0408 -0.3459
  408MOL0     H55059   6.518   0.369  -0.912 -1.0229 -0.6596  1.4629
  408MOL0     H55060   7.588   0.751  -1.105  1.8197  1.1128  0.3966
  408MOL0     H55061   7.798   0.658  -1.010  0.5174 -0.8662 -0.3903
  408MOL0     H55062   8.016   0.475  -0.819  2.3566  1.2348 -0.3063
  408MOL0     H55063   8.185   0.458  -0.667 -1.3231  0.4528 -1.4245
  408MOL0     H55064   8.200   0.847   0.859 -3.0919  2.1334  0.2348
  408MOL0     H55065   8.153   1.068   0.972 -0.9831 -0.2074 -2.3507
  408MOL0     H55066   8.190   1.490   0.911 -1.6511 -0.5587  0.9027
  408MOL0     H55067   8.117   1.730   0.921  1.4653  1.9624 -1.7652
  408MOL0     H55068   8.277   1.944   1.259 -1.0985 -2.1532 -1.1929
  408MOL0     H55069   8.174   2.078   1.185  2.3370  2.3336  1.7019
  408MOL0     H55070   8.453   2.003   1.095 -2.3281 -2.6080  0.1842
  408MOL0     H55071   8.421   2.139   1.203  0.8033  0.3548  0.1497
  408MOL0     H55072   8.447   2.239   1.011 -1.2650  1.8137  0.1021
  408MOL0     H55073   8.263   2.222   1.010 -1.6891 -1.5226 -0.3126
  408MOL0     H55074   8.437   2.027   0.860 -0.9618 -1.6134  3.9616
  408MOL0     H55075   8.264   2.050   0.851  0.1542 -1.2149 -3.2217
  408MOL0     H55076   8.351   2.364   0.602 -0.5528  1.3051  2.6211
  408MOL0     H55077   8.415   1.806   1.220  0.4276 -1.3621  3.6692
  408MOL0     H55078   8.469   1.476   1.334  0.7649 -1.8834 -3.2805
  408MOL0     H55079   8.600   1.536   1.231  0.0687  0.7968  0.2567
  408MOL0     H55080   8.515   1.650   1.344 -0.5368  1.6015 -0.5068
  409MOL0     O55081  11.077   2.204   2.481  0.3897 -0.3645 -0.4173
  409MOL0     C55082  10.987   2.254   2.423 -0.2925  0.1151 -1.0293
  409MOL0     O55083  11.007   2.318   2.307 -0.2784  0.4977 -0.7721
  409MOL0     C55084  11.124   2.324   2.231 -0.1623 -0.0370  0.2473
  409MOL0     C55085  11.102   2.398   2.107 -0.5783  0.4231 -1.6175
  409MOL0     C55086  11.209   2.424   2.022 -0.3252  0.6281  0.5200
  409MOL0     C55087  11.338   2.370   2.047  0.8776  0.8432  0.4631
  409MOL0     O55088  11.430   2.408   1.956 -0.3335  0.7122 -0.1609
  409MOL0     C55089  11.558   2.331   1.951  0.3878 -0.6431 -0.0166
  409MOL0     C55090  11.638   2.379   1.830 -0.7356  0.3229 -1.4901
  409MOL0     C55091  11.598   2.321   1.698 -0.0108  0.0621 -0.1629
  409MOL0     C55092  11.690   2.362   1.585 -0.1406  0.4796 -0.4300
  409MOL0     C55093  11.672   2.508   1.529  0.8924 -0.2735 -0.2913
  409MOL0     C55094  11.771   2.536   1.406 -0.3546  1.0925 -0.2766
  409MOL0     C55095  11.921   2.537   1.447  0.1099 -0.3706  1.0082
  409MOL0     C55096  12.015   2.538   1.325 -0.1763 -0.4454 -0.3099
  409MOL0     N55097  12.153   2.536   1.384  0.0988  0.9396  0.4316
  409MOL0     C55098  12.217   2.443   1.466  0.3891  0.1004  0.3473
  409MOL0     C55099  12.348   2.477   1.482 -0.6914 -0.8723 -0.3147
  409MOL0     C55100  12.465   2.401   1.537  0.3162  0.6262 -0.4256
  409MOL0     C55101  12.443   2.251   1.529 -0.7023  0.8930  0.3266
  409MOL0     C55102  12.401   2.187   1.663 -0.4275  0.5602 -0.1116
  409MOL0     C55103  12.409   2.034   1.657 -0.2372 -0.1525 -0.5759
  409MOL0     O55104  12.403   1.980   1.792 -0.0011  0.0555  0.5748
  409MOL0     C55105  12.356   1.853   1.805 -0.2746  0.1980  0.5872
  409MOL0     C55106  12.322   1.758   1.699  1.0742 -0.8470 -0.4863
  409MOL0     C55107  12.265   1.633   1.736  0.2309 -0.0615 -0.3266
  409MOL0     C55108  12.246   1.595   1.869  0.1007 -0.2271 -0.3583
  409MOL0     C55109  12.173   1.471   1.906  0.2544 -0.4043  2.0842
  409MOL0     O55110  12.166   1.438   2.040  0.6126  0.2756  0.6517
  409MOL0     C55111  12.129   1.307   2.067 -0.1628 -0.0978  0.5925
  409MOL0     C55112  12.228   1.225   2.125 -0.7587 -0.0749  0.2450
  409MOL0     C55113  12.197   1.089   2.152  0.1345  0.4234  0.4613
  409MOL0     C55114  12.071   1.037   2.109  0.6225  0.1622 -0.5703
  409MOL0     O55115  12.030   0.908   2.143 -0.0493  0.3812  0.0359
  409MOL0     C55116  12.122   0.807   2.184  0.0780 -0.8927  0.3321
  409MOL0     C55117  12.038   0.679   2.160  0.9756  0.4631 -0.2223
  409MOL0     C55118  11.929   0.660   2.274  0.4100 -0.7319  0.0451
  409MOL0     C55119  11.982   0.577   2.387  0.0043 -0.4595 -0.3245
  409MOL0     C55120  11.868   0.509   2.467 -0.6659 -0.4326  0.4503
  409MOL0     C55121  11.756   0.432   2.398  0.2574 -0.0126  0.4944
  409MOL0     C55122  11.669   0.356   2.494  0.5361 -0.5237 -0.4227
  409MOL0     C55123  11.577   0.261   2.422  0.3387  0.7072 -0.2471
  409MOL0    Cl55124  11.444   0.340   2.332  0.6705 -0.2778 -0.3353
  409MOL0     C55125  11.972   1.128   2.075 -1.2071 -0.0905  0.2804
  409MOL0     C55126  11.999   1.262   2.044  1.1172  0.6981 -0.2075
  409MOL0     O55127  12.129   1.410   1.809 -0.4660  0.1135 -1.0518
  409MOL0     C55128  12.291   1.685   1.962 -0.5653 -0.8932  0.0944
  409MOL0     C55129  12.344   1.806   1.929  0.0549 -1.2780 -0.1505
  409MOL0     N55130  12.371   2.592   1.405  0.7180  0.6050  0.2851
  409MOL0     N55131  12.249   2.625   1.355 -0.9292  0.2126 -0.6702
  409MOL0     C55132  11.351   2.282   2.155  0.1543  0.0672  0.2761
  409MOL0     C55133  11.255   2.275   2.260  0.5665  0.0873  0.6944
  409MOL0     C55134  10.842   2.271   2.465 -0.0724 -0.5793 -0.1393
  409MOL0     C55135  10.757   2.360   2.389 -0.7283  0.0348  0.2104
  409MOL0     C55136  10.631   2.389   2.431  1.0355  0.6124  0.0885
  409MOL0     C55137  10.568   2.332   2.544 -0.4519 -0.4883  0.0655
  409MOL0     O55138  10.445   2.353   2.590 -0.4323  0.8474  0.2700
  409MOL0     C55139  10.369   2.465   2.545 -0.8092  1.3487  0.7822
  409MOL0     C55140  10.264   2.496   2.642  0.2208  0.8233 -0.7784
  409MOL0     C55141  10.175   2.616   2.598 -0.4977  0.5994 -1.0706
  409MOL0     C55142  10.048   2.619   2.688  0.4468  0.1440  0.3185
  409MOL0     C55143   9.951   2.507   2.657 -0.5015  0.0300  1.0187
  409MOL0     C55144   9.899   2.398   2.633  0.3111 -1.2145  0.6961
  409MOL0     C55145  10.648   2.240   2.620 -0.3083 -0.0443 -0.1346
  409MOL0     C55146  10.781   2.218   2.576  0.8048 -0.6555  0.3689
  409MOL0     C55147  10.866   2.136   2.664  0.3304  0.2380 -0.6688
  409MOL0     H55148  11.002   2.438   2.096 -1.1712 -0.5732 -0.1982
  409MOL0     H55149  11.189   2.489   1.937  0.9437  1.8652  1.1287
  409MOL0     H55150  11.626   2.351   2.035 -0.5923  1.8791  0.2645
  409MOL0     H55151  11.539   2.224   1.945  0.3204 -0.6811  0.7270
  409MOL0     H55152  11.738   2.341   1.855 -2.3921 -3.3754  0.1791
  409MOL0     H55153  11.620   2.487   1.834 -1.2982  0.2334  2.8466
  409MOL0     H55154  11.494   2.345   1.672  0.1626 -0.2426 -1.2050
  409MOL0     H55155  11.602   2.214   1.720  1.6401  0.4447  1.6732
  409MOL0     H55156  11.794   2.362   1.621 -0.3501 -2.5008  0.4352
  409MOL0     H55157  11.678   2.293   1.501  0.6009 -2.4597  1.7055
  409MOL0     H55158  11.570   2.525   1.493  0.7299 -2.2942 -0.8903
  409MOL0     H55159  11.673   2.587   1.604 -1.4919 -1.3585  0.9975
  409MOL0     H55160  11.758   2.450   1.341  2.2666 -0.0126  0.5154
  409MOL0     H55161  11.746   2.629   1.353 -0.9091  0.8365 -0.4644
  409MOL0     H55162  11.944   2.444   1.499 -0.4246 -2.3269 -1.9624
  409MOL0     H55163  11.941   2.632   1.497  2.4770 -1.2192  1.7603
  409MOL0     H55164  12.004   2.450   1.261 -0.3675  0.7706 -2.0070
  409MOL0     H55165  12.010   2.621   1.254  0.7630 -2.0194 -2.3065
  409MOL0     H55166  12.160   2.363   1.511  1.3429 -0.1456  1.1628
  409MOL0     H55167  12.556   2.440   1.492  0.7952 -0.3070 -0.2694
  409MOL0     H55168  12.466   2.430   1.643 -0.4875  1.7607 -0.6983
  409MOL0     H55169  12.380   2.221   1.445 -1.0830  0.6860  0.6831
  409MOL0     H55170  12.536   2.206   1.492 -1.2862 -0.3490  0.3477
  409MOL0     H55171  12.302   2.226   1.689 -0.2823  3.4294 -3.1511
  409MOL0     H55172  12.485   2.216   1.728  2.0447  1.2402 -3.3447
  409MOL0     H55173  12.503   2.000   1.614  0.7540  3.6139 -1.8017
  409MOL0     H55174  12.318   2.019   1.599 -0.6585 -0.8545  0.2456
  409MOL0     H55175  12.318   1.779   1.593 -1.2233  1.1821 -0.0888
  409MOL0     H55176  12.243   1.565   1.654  0.3072  1.5594 -1.7374
  409MOL0     H55177  12.324   1.264   2.157  1.3615 -4.8126  0.5404
  409MOL0     H55178  12.271   1.026   2.200  1.0063  0.5455 -0.6822
  409MOL0     H55179  12.216   0.814   2.130 -0.4149  0.3206 -0.4246
  409MOL0     H55180  12.131   0.824   2.292  1.8591 -2.7365  0.5332
  409MOL0     H55181  11.986   0.680   2.064 -1.2119  2.5728  0.8852
  409MOL0     H55182  12.108   0.595   2.162  1.2638  0.6493 -1.4750
  409MOL0     H55183  11.901   0.758   2.313 -0.1561 -0.1754 -1.6642
  409MOL0     H55184  11.839   0.620   2.226 -1.0357  2.5482 -0.2638
  409MOL0     H55185  12.038   0.626   2.467 -2.4627 -2.6709  3.0114
  409MOL0     H55186  12.047   0.498   2.348  2.2140  0.7007  0.8205
  409MOL0     H55187  11.812   0.579   2.531 -0.6669 -0.9706  1.0533
  409MOL0     H55188  11.914   0.445   2.543 -0.8907 -1.9321 -0.6463
  409MOL0     H55189  11.703   0.504   2.336  0.6317 -0.0848  0.0853
  409MOL0     H55190  11.803   0.356   2.335  0.0308 -0.4484  0.8442
  409MOL0     H55191  11.615   0.432   2.550  1.5661 -1.0050  1.3016
  409MOL0     H55192  11.727   0.291   2.561 -0.0156  0.6864  1.2908
  409MOL0     H55193  11.640   0.201   2.355  0.7106  1.1209 -0.2670
  409MOL0     H55194  11.532   0.194   2.496 -0.3346  0.5820 -0.7559
  409MOL0     H55195  11.868   1.095   2.072 -2.0642  2.4774 -0.6116
  409MOL0     H55196  11.927   1.337   2.015  1.9338  1.2481 -0.8596
  409MOL0     H55197  12.284   1.656   2.066  1.8657 -1.2311  0.2316
  409MOL0     H55198  12.387   1.869   2.007 -1.4983 -0.2617 -0.0700
  409MOL0     H55199  11.447   2.233   2.168 -0.2967 -0.8609  0.1867
  409MOL0     H55200  11.273   2.207   2.343  2.2670 -0.8547 -0.3796
  409MOL0     H55201  10.793   2.396   2.293  2.1782 -1.7477  0.4924
  409MOL0     H55202  10.569   2.457   2.374 -0.2010 -0.6144 -0.0768
  409MOL0     H55203  10.312   2.438   2.456  1.7238 -1.2865 -0.2241
  409MOL0     H55204  10.442   2.540   2.515  2.9593 -0.5362  4.2762
  409MOL0     H55205  10.317   2.529   2.732  1.4378 -0.2862 -1.0460
  409MOL0     H55206  10.208   2.405   2.665  0.1745  1.4221  1.7862
  409MOL0     H55207  10.150   2.607   2.492  2.4655 -0.0855 -1.7858
  409MOL0     H55208  10.220   2.716   2.602 -2.7674  1.8253 -3.0215
  409MOL0     H55209  10.088   2.615   2.790  0.8181 -0.8560  0.1513
  409MOL0     H55210   9.996   2.714   2.674  2.3486  1.2059  0.1078
  409MOL0     H55211   9.834   2.313   2.628 -1.0283 -0.1712 -0.3417
  409MOL0     H55212  10.613   2.203   2.716 -0.8582  0.4340 -0.1447
  409MOL0     H55213  10.803   2.107   2.749 -2.0100  1.9530 -1.6840
  409MOL0     H55214  10.888   2.042   2.612 -1.3609  0.0409 -1.0899
  409MOL0     H55215  10.950   2.197   2.697 -1.0570  1.2158  1.2652
  410MOL0     O55216  10.340   6.023   6.022  0.3204 -0.3618  0.0589
  410MOL0     C55217  10.321   6.123   6.099 -0.8479 -0.5400 -0.4451
  410MOL0     O55218  10.205   6.203   6.112 -0.5156 -0.2463 -0.3376
  410MOL0     C55219  10.100   6.167   6.030 -0.1187 -0.3360  0.0717
  410MOL0     C55220   9.996   6.094   6.083  0.3807 -0.1240 -0.1447
  410MOL0     C55221   9.891   6.046   6.002 -0.0081  0.4558 -1.2802
  410MOL0     C55222   9.884   6.079   5.870  0.1281 -0.2124  0.5626
  410MOL0     O55223   9.778   6.045   5.790 -0.5914  0.9258 -0.1081
  410MOL0     C55224   9.817   5.964   5.676 -0.0464 -0.0647  0.2702
  410MOL0     C55225   9.726   6.009   5.562  0.7413  0.4779  0.5751
  410MOL0     C55226   9.723   5.909   5.444 -0.1567  0.7408  0.0960
  410MOL0     C55227   9.675   5.760   5.470  0.5351 -0.5241  0.0070
  410MOL0     C55228   9.532   5.760   5.520 -0.2300 -0.0833 -0.0255
  410MOL0     C55229   9.444   5.799   5.415  0.2235  0.7072  0.2969
  410MOL0     C55230   9.296   5.775   5.458  0.7796  0.4174  0.5525
  410MOL0     C55231   9.262   5.637   5.396  0.6302 -0.5783  0.1704
  410MOL0     N55232   9.114   5.619   5.393  0.0144  0.4794 -0.0217
  410MOL0     C55233   9.039   5.502   5.367 -0.4723  0.1860 -0.7357
  410MOL0     C55234   8.910   5.538   5.384 -0.1408  0.0806 -0.1249
  410MOL0     C55235   8.787   5.472   5.346  0.4407  1.0345  0.5908
  410MOL0     C55236   8.735   5.373   5.456 -0.2131 -0.3605 -0.0284
  410MOL0     C55237   8.619   5.434   5.533  0.9354  0.0243  0.2713
  410MOL0     C55238   8.674   5.513   5.652  0.3000  0.1903  0.2867
  410MOL0     O55239   8.570   5.531   5.754 -0.3912 -0.4282 -0.6452
  410MOL0     C55240   8.596   5.601   5.868 -0.5380 -0.4515  0.2978
  410MOL0     C55241   8.727   5.655   5.894 -0.7574  0.5768 -1.0000
  410MOL0     C55242   8.750   5.723   6.009  0.2295  1.0656  0.5327
  410MOL0     C55243   8.663   5.723   6.116  0.4000 -0.5559  1.1751
  410MOL0     C55244   8.709   5.765   6.249 -0.1135 -0.6028  0.4777
  410MOL0     O55245   8.845   5.756   6.277 -0.6197  0.0945 -0.5170
  410MOL0     C55246   8.886   5.762   6.406 -0.3982 -0.4803  0.3578
  410MOL0     C55247   8.847   5.667   6.500 -0.0946 -0.5539  0.7892
  410MOL0     C55248   8.918   5.646   6.618 -0.8126  0.7018  1.3823
  410MOL0     C55249   9.019   5.728   6.650 -0.1583  0.0683 -1.2963
  410MOL0     O55250   9.074   5.695   6.777 -0.5341 -0.2345  0.5192
  410MOL0     C55251   9.153   5.800   6.840 -0.7705 -0.4966  0.1445
  410MOL0     C55252   9.195   5.744   6.975  0.4050  0.4893  0.6861
  410MOL0     C55253   9.322   5.804   7.025 -0.4932 -0.1830  0.0620
  410MOL0     C55254   9.386   5.715   7.136 -0.3642 -0.5293 -0.4191
  410MOL0     C55255   9.538   5.718   7.147  0.3357  1.1191 -0.3260
  410MOL0     C55256   9.598   5.644   7.267 -0.4227  0.0526 -0.2648
  410MOL0     C55257   9.755   5.655   7.276 -0.0433  0.0578  0.2284
  410MOL0     C55258   9.807   5.566   7.385  0.0272 -0.2710  0.0592
  410MOL0    Cl55259   9.975   5.618   7.396 -0.6046  0.1968  0.4170
  410MOL0     C55260   9.050   5.840   6.572  0.4115 -0.7239  0.2289
  410MOL0     C55261   8.984   5.856   6.449  0.2169  0.1570  0.0549
  410MOL0     O55262   8.624   5.788   6.333  0.2973 -0.3804  0.9885
  410MOL0     C55263   8.535   5.664   6.098  0.0198 -0.3793 -0.0775
  410MOL0     C55264   8.503   5.607   5.975 -0.7445 -0.2330  0.5781
  410MOL0     N55265   8.898   5.670   5.432  0.7932 -0.1891  0.9126
  410MOL0     N55266   9.018   5.714   5.437  0.4910  0.0613  0.3415
  410MOL0     C55267   9.983   6.159   5.822  0.8202 -0.6102  0.5432
  410MOL0     C55268  10.089   6.198   5.895 -0.4470 -0.6511 -0.1785
  410MOL0     C55269  10.430   6.166   6.184 -0.7639  0.6397 -0.7546
  410MOL0     C55270  10.388   6.189   6.319 -0.1354 -0.2218  0.6199
  410MOL0     C55271  10.482   6.212   6.425 -0.3194  0.7649  0.6016
  410MOL0     C55272  10.613   6.236   6.380 -0.2707 -0.4440 -0.2230
  410MOL0     O55273  10.702   6.269   6.484  0.6832 -0.2491 -0.7193
  410MOL0     C55274  10.818   6.186   6.496  0.0574 -0.5457 -0.3031
  410MOL0     C55275  10.915   6.278   6.583  0.2791 -0.4221 -0.1959
  410MOL0     C55276  11.044   6.222   6.627  0.2682 -0.8836  0.1246
  410MOL0     C55277  11.173   6.259   6.556 -0.5910  0.0125  0.5104
  410MOL0     C55278  11.166   6.212   6.422 -0.1262  0.1860 -0.5859
  410MOL0     C55279  11.160   6.188   6.305 -0.3884 -0.2085 -0.3630
  410MOL0     C55280  10.653   6.192   6.250  0.6097 -0.7225  0.2720
  410MOL0     C55281  10.562   6.169   6.148  0.0426 -0.8597  0.7674
  410MOL0     C55282  10.615   6.148   6.005  0.5213  0.3999 -0.5735
  410MOL0     H55283   9.999   6.074   6.190 -1.6431 -0.5746 -0.1359
  410MOL0     H55284   9.812   5.987   6.048 -1.0300  0.4266 -2.9948
  410MOL0     H55285   9.918   5.973   5.636 -0.6766  3.2550 -0.8483
  410MOL0     H55286   9.795   5.860   5.703 -1.2099 -0.1989 -1.0281
  410MOL0     H55287   9.757   6.098   5.506 -3.4297  1.4655 -0.4919
  410MOL0     H55288   9.625   6.029   5.597 -0.6139  1.6294 -3.4458
  410MOL0     H55289   9.828   5.906   5.413  0.1218 -0.1963  1.0681
  410MOL0     H55290   9.668   5.960   5.364 -1.1755 -0.5131 -0.0377
  410MOL0     H55291   9.691   5.709   5.375  0.6158  0.9735 -0.8281
  410MOL0     H55292   9.739   5.715   5.547 -0.4932 -0.3607  0.9874
  410MOL0     H55293   9.499   5.659   5.544 -0.2096 -0.2114 -0.5237
  410MOL0     H55294   9.518   5.823   5.608  1.8454 -0.9040  0.9388
  410MOL0     H55295   9.460   5.903   5.386  1.1290  0.0285 -1.7611
  410MOL0     H55296   9.471   5.737   5.330 -0.7328  1.1141 -0.3206
  410MOL0     H55297   9.237   5.844   5.397  1.4417 -0.2632 -0.9060
  410MOL0     H55298   9.280   5.790   5.565 -0.7480  0.4960  0.3402
  410MOL0     H55299   9.309   5.622   5.298  1.7442  1.3448  0.3428
  410MOL0     H55300   9.287   5.554   5.462 -3.5340 -0.6256  1.9417
  410MOL0     H55301   9.066   5.410   5.317  0.0836  0.4497 -0.9247
  410MOL0     H55302   8.712   5.545   5.314 -0.3702 -0.2825 -0.5860
  410MOL0     H55303   8.800   5.421   5.251  1.1063  1.2728  0.5426
  410MOL0     H55304   8.689   5.291   5.399 -2.3887  0.0005  1.1362
  410MOL0     H55305   8.807   5.330   5.526 -1.0213 -2.3651 -0.3586
  410MOL0     H55306   8.553   5.357   5.573  0.6576 -0.4286 -1.0076
  410MOL0     H55307   8.562   5.493   5.460 -0.7735 -1.4278  0.3595
  410MOL0     H55308   8.726   5.601   5.613  3.7314 -1.8425 -0.1544
  410MOL0     H55309   8.748   5.445   5.695 -0.3114  0.1154  1.2590
  410MOL0     H55310   8.808   5.655   5.821 -1.0606 -1.1302 -1.3737
  410MOL0     H55311   8.851   5.754   6.035  0.2448  1.5403 -0.0701
  410MOL0     H55312   8.773   5.596   6.467  1.0030 -1.4272  0.1332
  410MOL0     H55313   8.889   5.568   6.687 -1.1409 -0.0138  0.4595
  410MOL0     H55314   9.240   5.817   6.776 -0.4541  0.3950  0.7906
  410MOL0     H55315   9.088   5.888   6.840 -0.0731  0.0465 -0.7389
  410MOL0     H55316   9.113   5.764   7.046 -1.0887  3.2619 -1.5922
  410MOL0     H55317   9.207   5.636   6.970  1.0512  0.6201 -1.4734
  410MOL0     H55318   9.393   5.805   6.942 -2.0705 -0.1998 -1.3285
  410MOL0     H55319   9.317   5.906   7.063 -1.3828 -0.7068  1.4463
  410MOL0     H55320   9.350   5.615   7.111 -1.0037 -0.4728  0.2257
  410MOL0     H55321   9.342   5.734   7.235 -2.8290  1.2597 -1.7559
  410MOL0     H55322   9.570   5.823   7.151  0.4572  1.0919 -0.6203
  410MOL0     H55323   9.576   5.668   7.058 -0.9545 -1.0911  0.3029
  410MOL0     H55324   9.563   5.693   7.358  3.5113 -2.7088  3.0522
  410MOL0     H55325   9.561   5.541   7.259  1.0999 -0.5415  0.1218
  410MOL0     H55326   9.783   5.757   7.303  0.0514 -1.0249  5.1547
  410MOL0     H55327   9.803   5.620   7.184 -0.3061 -1.0344  0.4834
  410MOL0     H55328   9.762   5.588   7.482 -0.6948 -2.6010  0.3311
  410MOL0     H55329   9.796   5.460   7.358  0.9833 -0.1714 -0.7827
  410MOL0     H55330   9.131   5.905   6.603 -0.0050  0.9365 -1.9319
  410MOL0     H55331   9.026   5.944   6.400  0.2066  1.4270  2.1927
  410MOL0     H55332   8.463   5.669   6.179  0.7617 -1.4790  0.6599
  410MOL0     H55333   8.416   5.545   5.957 -0.9820  0.3229 -0.2478
  410MOL0     H55334   9.979   6.194   5.719  1.3750  0.8422  0.9991
  410MOL0     H55335  10.176   6.239   5.845 -0.4317 -2.3603 -1.6430
  410MOL0     H55336  10.285   6.181   6.350 -0.4300 -1.5130 -0.6264
  410MOL0     H55337  10.470   6.215   6.533 -0.1390 -0.5483  0.6685
  410MOL0     H55338  10.867   6.168   6.400 -4.0616  1.4235 -3.1095
  410MOL0     H55339  10.783   6.094   6.545 -0.2700  1.3221  3.3652
  410MOL0     H55340  10.862   6.300   6.676 -3.8333 -1.1277 -2.1487
  410MOL0     H55341  10.929   6.375   6.534 -0.3424  0.3860  1.1709
  410MOL0     H55342  11.053   6.116   6.652  1.3939 -0.6053  1.0296
  410MOL0     H55343  11.060   6.280   6.719 -1.1925 -0.9620  0.4443
  410MOL0     H55344  11.165   6.368   6.547 -1.9793 -0.1416 -0.6183
  410MOL0     H55345  11.272   6.239   6.597  1.0068 -0.6210 -3.2156
  410MOL0     H55346  11.182   6.193   6.201 -1.5519  0.3161 -0.5974
  410MOL0     H55347  10.759   6.200   6.228  1.2107 -0.6574  2.8371
  410MOL0     H55348  10.651   6.247   5.974  0.5077  1.4049  2.2853
  410MOL0     H55349  10.703   6.083   6.002  1.7604  2.0561 -1.9759
  410MOL0     H55350  10.533   6.128   5.935 -1.0342  0.1969  1.2179
  411MOL0     O55351   4.458   5.149   3.957 -0.0181 -0.2863  0.0436
  411MOL0     C55352   4.397   5.253   3.965  0.5271  0.0448  0.4511
  411MOL0     O55353   4.455   5.381   3.974  0.3995  0.8035 -0.2252
  411MOL0     C55354   4.584   5.385   4.017 -0.4154 -0.4543 -0.4312
  411MOL0     C55355   4.678   5.310   3.959  0.2843  0.2131  0.4919
  411MOL0     C55356   4.800   5.297   4.019  0.4851 -0.2129  0.1066
  411MOL0     C55357   4.828   5.376   4.134 -0.4345  0.7167  0.2289
  411MOL0     O55358   4.941   5.370   4.215  0.1640 -0.6658 -0.6406
  411MOL0     C55359   5.070   5.354   4.155  0.8434 -0.6613  0.1069
  411MOL0     C55360   5.194   5.359   4.252  0.0438  0.8684  0.4723
  411MOL0     C55361   5.247   5.217   4.282  1.1919  0.0207  0.9766
  411MOL0     C55362   5.376   5.232   4.348 -0.8953 -0.1013 -0.4991
  411MOL0     C55363   5.442   5.095   4.395 -0.0276  0.1244 -0.7860
  411MOL0     C55364   5.439   5.088   4.542 -0.4445  0.3309 -0.3916
  411MOL0     C55365   5.298   5.077   4.599 -0.8340  0.4306 -0.4708
  411MOL0     C55366   5.319   5.079   4.754  0.4745 -0.0867 -0.4927
  411MOL0     N55367   5.208   5.051   4.847  0.5096 -0.1354  0.1633
  411MOL0     C55368   5.089   4.998   4.811  0.1471 -0.2738 -0.2878
  411MOL0     C55369   5.035   4.944   4.926 -0.2719  0.1969 -0.4433
  411MOL0     C55370   4.909   4.861   4.920 -1.6800 -0.8579  0.7900
  411MOL0     C55371   4.782   4.947   4.913 -0.0588  0.0605  0.2832
  411MOL0     C55372   4.660   4.853   4.928 -0.0150  0.3803 -0.4364
  411MOL0     C55373   4.612   4.831   5.075  0.0577 -0.1368 -0.1635
  411MOL0     O55374   4.501   4.736   5.077 -0.8925 -0.0317 -0.3277
  411MOL0     C55375   4.394   4.748   5.169  0.1048 -0.2000 -0.3154
  411MOL0     C55376   4.289   4.666   5.136 -0.8833  0.2214 -0.1796
  411MOL0     C55377   4.192   4.631   5.233 -0.0251  0.8715  0.5750
  411MOL0     C55378   4.175   4.706   5.352 -0.7040 -0.3157  0.1373
  411MOL0     C55379   4.062   4.688   5.442 -0.0195  0.0080  0.3632
  411MOL0     O55380   3.966   4.593   5.418 -0.7770 -0.5293  0.1436
  411MOL0     C55381   3.864   4.571   5.495  0.3264  0.3152 -0.9198
  411MOL0     C55382   3.864   4.558   5.638  0.3078  0.3216 -0.1741
  411MOL0     C55383   3.751   4.511   5.709 -0.4556 -0.5239 -0.1160
  411MOL0     C55384   3.639   4.468   5.635 -0.0150  0.0161  0.0542
  411MOL0     O55385   3.529   4.410   5.696 -0.1675 -0.4356 -0.4847
  411MOL0     C55386   3.542   4.354   5.831  0.4977  0.1795  0.4515
  411MOL0     C55387   3.401   4.295   5.866  0.5835  0.9264  0.8396
  411MOL0     C55388   3.299   4.406   5.887  0.7692 -0.6852 -1.0119
  411MOL0     C55389   3.155   4.359   5.931 -0.5477 -0.2305  0.6274
  411MOL0     C55390   3.049   4.366   5.820 -0.8830 -0.6596  0.2177
  411MOL0     C55391   2.920   4.280   5.824 -0.1085  0.2704  0.6544
  411MOL0     C55392   2.810   4.330   5.726 -1.3998  0.4225  0.4997
  411MOL0     C55393   2.690   4.231   5.706 -0.0057  1.0028 -0.7051
  411MOL0    Cl55394   2.619   4.215   5.875 -0.6113  0.1726 -0.1755
  411MOL0     C55395   3.625   4.481   5.493 -0.2858 -0.3381  0.4632
  411MOL0     C55396   3.743   4.535   5.432  0.6694 -0.3427  0.5258
  411MOL0     O55397   4.046   4.784   5.525  0.2373 -0.1133  0.7191
  411MOL0     C55398   4.280   4.798   5.383 -0.0164  0.5546  0.1547
  411MOL0     C55399   4.387   4.817   5.292  0.6416  0.1858  0.1048
  411MOL0     N55400   5.126   4.966   5.029  0.2257  0.2555  0.3915
  411MOL0     N55401   5.223   5.037   4.980 -1.0789 -0.2553  0.7318
  411MOL0     C55402   4.736   5.465   4.179  0.0179  0.6563  0.3583
  411MOL0     C55403   4.610   5.471   4.125  0.0377  0.9346 -0.0396
  411MOL0     C55404   4.245   5.233   3.952 -0.1618  0.0434 -0.7045
  411MOL0     C55405   4.199   5.156   3.844  0.0176  0.2724  0.7198
  411MOL0     C55406   4.066   5.145   3.800 -0.0618 -0.3851  0.4923
  411MOL0     C55407   3.971   5.219   3.881 -0.7796  0.2439 -0.4524
  411MOL0     O55408   3.833   5.215   3.838  0.5672 -0.7028 -0.4650
  411MOL0     C55409   3.735   5.310   3.896 -0.6494  0.0128  0.4059
  411MOL0     C55410   3.603   5.282   3.815 -1.0554  0.1597  0.7992
  411MOL0     C55411   3.471   5.321   3.885 -0.1776  0.5496  0.0609
  411MOL0     C55412   3.347   5.301   3.800  0.3896 -0.8233 -0.7777
  411MOL0     C55413   3.228   5.342   3.884  0.0799 -0.4547  0.4665
  411MOL0     C55414   3.130   5.368   3.951 -0.2761  0.1086  0.2264
  411MOL0     C55415   4.021   5.284   3.996 -0.1259  1.5551 -0.1258
  411MOL0     C55416   4.154   5.291   4.030  0.2532  0.1908 -0.3366
  411MOL0     C55417   4.180   5.374   4.151 -0.6361 -0.7055  0.2051
  411MOL0     H55418   4.661   5.264   3.862  0.3268  1.0819  0.0508
  411MOL0     H55419   4.857   5.220   3.968  0.2849 -1.3093  1.4471
  411MOL0     H55420   5.081   5.263   4.095  2.1449  0.4618 -1.4823
  411MOL0     H55421   5.081   5.440   4.088  0.4747  0.3864  1.3464
  411MOL0     H55422   5.162   5.410   4.344  0.2117 -0.2751  1.1757
  411MOL0     H55423   5.263   5.428   4.202 -0.8150  0.3962 -1.4741
  411MOL0     H55424   5.262   5.151   4.196 -0.3925 -2.7560  2.6772
  411MOL0     H55425   5.163   5.172   4.337 -1.4931  0.7918 -2.1662
  411MOL0     H55426   5.433   5.287   4.273 -0.0492  0.3518  0.4672
  411MOL0     H55427   5.366   5.291   4.439  2.6115  0.2485 -0.2100
  411MOL0     H55428   5.388   5.017   4.341  4.1141 -0.7619 -4.2276
  411MOL0     H55429   5.546   5.088   4.359  0.4052  1.9800 -0.0043
  411MOL0     H55430   5.504   5.008   4.577 -2.3317 -0.5465  1.2344
  411MOL0     H55431   5.488   5.180   4.577 -0.1988 -0.0423  0.2550
  411MOL0     H55432   5.245   4.987   4.568 -4.0670  1.4202  1.7850
  411MOL0     H55433   5.229   5.159   4.576 -1.2010 -0.0077 -0.9683
  411MOL0     H55434   5.398   5.006   4.770  0.4500 -0.5502 -2.2763
  411MOL0     H55435   5.372   5.168   4.789  3.0196 -1.5267 -0.4812
  411MOL0     H55436   5.043   4.967   4.718 -2.0348 -1.7040  1.1703
  411MOL0     H55437   4.916   4.797   4.832  0.6074  0.8443 -0.3793
  411MOL0     H55438   4.897   4.793   5.005 -2.4220  0.7780  2.0440
  411MOL0     H55439   4.781   5.018   4.996 -0.8085  1.7637 -1.1187
  411MOL0     H55440   4.776   5.000   4.817 -0.0046 -0.4756 -0.0244
  411MOL0     H55441   4.681   4.756   4.883  3.2869  0.7201  0.1120
  411MOL0     H55442   4.578   4.899   4.872 -0.3738  1.5672  0.9819
  411MOL0     H55443   4.571   4.926   5.111  0.2425  0.0866 -0.5385
  411MOL0     H55444   4.701   4.797   5.129  0.7761 -0.6860 -1.6431
  411MOL0     H55445   4.287   4.633   5.033 -0.3569 -0.9441  0.1736
  411MOL0     H55446   4.119   4.557   5.201  0.8240  1.4274 -3.0996
  411MOL0     H55447   3.955   4.579   5.693  0.5613 -3.3802  1.0822
  411MOL0     H55448   3.760   4.513   5.817 -2.4177 -1.4338  0.1084
  411MOL0     H55449   3.617   4.275   5.830 -1.1140 -1.4324 -0.6184
  411MOL0     H55450   3.573   4.423   5.910 -1.0958 -1.5058  2.7055
  411MOL0     H55451   3.367   4.238   5.778  0.1610  2.1481  0.1790
  411MOL0     H55452   3.414   4.223   5.947  3.6947 -2.7020 -2.4176
  411MOL0     H55453   3.340   4.474   5.962  0.5195 -1.8651  0.2318
  411MOL0     H55454   3.288   4.468   5.797 -0.4291 -0.2886 -0.6082
  411MOL0     H55455   3.114   4.412   6.017  0.7443  1.4290  0.2662
  411MOL0     H55456   3.179   4.257   5.963 -0.9324 -0.0761  1.4394
  411MOL0     H55457   3.088   4.332   5.724  1.4727  2.0399  0.0747
  411MOL0     H55458   3.014   4.467   5.797 -0.9279 -0.9696 -1.1126
  411MOL0     H55459   2.945   4.175   5.812 -2.1495 -0.1972  0.1031
  411MOL0     H55460   2.881   4.294   5.925  1.1142  0.8223  1.0796
  411MOL0     H55461   2.866   4.357   5.636  2.1202 -2.0989  1.6980
  411MOL0     H55462   2.746   4.411   5.763 -1.3101 -0.1593  2.0047
  411MOL0     H55463   2.608   4.263   5.640 -2.6674 -3.4357  0.0358
  411MOL0     H55464   2.728   4.132   5.680 -2.3598  0.3865 -2.1329
  411MOL0     H55465   3.535   4.458   5.437 -1.8610 -1.2715  3.1681
  411MOL0     H55466   3.729   4.544   5.325 -3.3232 -0.5197  0.8887
  411MOL0     H55467   4.274   4.842   5.482  0.9424  0.4195  0.2844
  411MOL0     H55468   4.478   4.870   5.318  1.4693  0.1151 -2.4276
  411MOL0     H55469   4.768   5.546   4.244  2.0259 -0.1097  0.4185
  411MOL0     H55470   4.532   5.536   4.164 -1.7913 -2.1360  1.8291
  411MOL0     H55471   4.269   5.096   3.786 -1.0960 -2.9206  2.4314
  411MOL0     H55472   4.034   5.073   3.726  1.8168  0.8913 -1.6760
  411MOL0     H55473   3.757   5.416   3.881 -3.1139  0.4335 -0.7034
  411MOL0     H55474   3.724   5.270   3.997  4.0923 -1.6164  0.5177
  411MOL0     H55475   3.587   5.175   3.802 -3.3828  0.0929  3.1796
  411MOL0     H55476   3.609   5.339   3.722  2.3940  0.4097  1.0619
  411MOL0     H55477   3.475   5.423   3.922  0.4247  0.7583 -0.5574
  411MOL0     H55478   3.467   5.259   3.975  0.5796 -0.8390 -0.8214
  411MOL0     H55479   3.349   5.380   3.724  0.6933 -0.9339 -0.8833
  411MOL0     H55480   3.345   5.198   3.763  2.2921 -1.1687 -0.0016
  411MOL0     H55481   3.058   5.372   4.031 -1.2671  0.0672 -0.6513
  411MOL0     H55482   3.952   5.339   4.059  0.0575  0.7542  0.7935
  411MOL0     H55483   4.248   5.455   4.121 -3.3641  0.7760 -2.5316
  411MOL0     H55484   4.092   5.422   4.193 -0.9126 -0.1981 -0.9038
  411MOL0     H55485   4.232   5.308   4.221  1.9048 -0.7856 -1.5882
  412MOL0     O55486   3.470   4.790   6.132 -0.3733  0.3830  0.0448
  412MOL0     C55487   3.450   4.886   6.204  0.4441  0.1033  0.3867
  412MOL0     O55488   3.535   4.923   6.306 -0.5629 -0.2061  0.2023
  412MOL0     C55489   3.657   4.863   6.321 -0.0430  0.1439  0.1523
  412MOL0     C55490   3.664   4.738   6.381 -0.5730 -0.5048 -0.4119
  412MOL0     C55491   3.785   4.672   6.401 -0.3681  0.6754 -0.1936
  412MOL0     C55492   3.898   4.736   6.356  0.2147  0.5360  0.1488
  412MOL0     O55493   4.005   4.663   6.353 -0.1148  0.1917 -0.3402
  412MOL0     C55494   4.124   4.717   6.412  0.1233  0.1254  0.0494
  412MOL0     C55495   4.220   4.730   6.291 -0.4056  0.0417 -0.1412
  412MOL0     C55496   4.363   4.792   6.331  0.5236 -0.0958  0.4541
  412MOL0     C55497   4.474   4.751   6.238  0.7738  0.2533  0.1434
  412MOL0     C55498   4.493   4.602   6.238  0.2414  0.4009  0.9109
  412MOL0     C55499   4.628   4.553   6.191 -0.7186 -0.2009 -0.1295
  412MOL0     C55500   4.618   4.402   6.186 -0.4175  0.8475  0.5903
  412MOL0     C55501   4.751   4.363   6.128  0.9867  0.6008 -0.0337
  412MOL0     N55502   4.761   4.218   6.121 -0.3633 -0.3561 -0.1112
  412MOL0     C55503   4.814   4.141   6.020  0.4384 -0.6342 -0.7492
  412MOL0     C55504   4.846   4.020   6.068 -0.3387  1.6973  0.4682
  412MOL0     C55505   4.900   3.904   5.983 -0.7044 -0.6300 -0.2872
  412MOL0     C55506   5.031   3.942   5.898  0.4476 -1.0697 -0.3477
  412MOL0     C55507   5.143   4.012   5.975  0.2114  0.9056  1.0096
  412MOL0     C55508   5.246   4.077   5.881  0.4379  0.3587  0.4470
  412MOL0     O55509   5.355   4.132   5.949  0.6300 -0.8245 -0.5584
  412MOL0     C55510   5.446   4.211   5.875 -0.5376  1.6962  0.4445
  412MOL0     C55511   5.439   4.217   5.734  0.0852  0.0211  1.0661
  412MOL0     C55512   5.527   4.302   5.657  0.2126  0.4840 -0.3354
  412MOL0     C55513   5.625   4.373   5.722 -0.9337  0.7541  0.0827
  412MOL0     C55514   5.711   4.467   5.640 -0.8815  0.5117  0.0348
  412MOL0     O55515   5.686   4.472   5.502  0.3697  0.1596  0.8195
  412MOL0     C55516   5.730   4.559   5.407 -0.0222 -0.1198 -1.1558
  412MOL0     C55517   5.853   4.627   5.415 -0.0698  0.0325  0.2228
  412MOL0     C55518   5.902   4.706   5.309  0.4298 -0.4783 -0.2126
  412MOL0     C55519   5.819   4.720   5.197  0.2640  0.3402  0.5149
  412MOL0     O55520   5.862   4.810   5.095  0.4940 -0.3126  0.6738
  412MOL0     C55521   5.760   4.879   5.020  0.4807 -0.4498 -0.3644
  412MOL0     C55522   5.749   4.809   4.879  0.5019  0.1821 -0.5161
  412MOL0     C55523   5.873   4.837   4.794 -0.5922  0.3003 -0.7517
  412MOL0     C55524   5.838   4.946   4.685 -0.8757  0.0982 -0.4664
  412MOL0     C55525   5.954   4.955   4.583  0.6353 -0.2499  0.4811
  412MOL0     C55526   5.900   5.028   4.455 -0.1496 -0.4068 -0.7565
  412MOL0     C55527   5.875   5.180   4.469 -0.1328  0.3799  0.7913
  412MOL0     C55528   5.830   5.224   4.321 -0.3236  0.1068 -0.0382
  412MOL0    Cl55529   5.973   5.278   4.228 -0.3216 -0.1433  0.0379
  412MOL0     C55530   5.693   4.653   5.190  0.7654 -0.6611 -0.4312
  412MOL0     C55531   5.651   4.569   5.291 -0.6416 -0.1105  1.0621
  412MOL0     O55532   5.809   4.521   5.700  0.2257  0.6131  0.4263
  412MOL0     C55533   5.644   4.345   5.854 -0.0741  0.2138 -0.3365
  412MOL0     C55534   5.557   4.270   5.934 -0.3616  1.2622  0.7685
  412MOL0     N55535   4.812   4.016   6.201  0.6756  0.6191 -0.2246
  412MOL0     N55536   4.763   4.136   6.232  0.6546  1.0609  0.1652
  412MOL0     C55537   3.895   4.851   6.286  0.2579  0.3502 -0.0302
  412MOL0     C55538   3.776   4.922   6.277 -0.2875  0.2630  0.3827
  412MOL0     C55539   3.331   4.968   6.180  0.7519  0.4268 -0.0211
  412MOL0     C55540   3.342   5.101   6.205 -0.7666 -0.2883  0.7726
  412MOL0     C55541   3.241   5.188   6.188 -0.2649  0.0157 -0.2161
  412MOL0     C55542   3.116   5.144   6.142  0.3403  1.0069  0.9777
  412MOL0     O55543   3.004   5.226   6.123  0.3796  0.4376 -0.0182
  412MOL0     C55544   3.026   5.365   6.128 -0.5261 -0.2683  0.6881
  412MOL0     C55545   2.892   5.429   6.120  0.2191 -0.8914 -0.4036
  412MOL0     C55546   2.791   5.365   6.217 -0.4842  0.3182 -0.5118
  412MOL0     C55547   2.639   5.405   6.190 -0.6787  0.6110  0.4363
  412MOL0     C55548   2.597   5.547   6.194  0.0645  0.0386 -0.1438
  412MOL0     C55549   2.585   5.669   6.217 -1.0654 -0.3989 -0.3223
  412MOL0     C55550   3.101   5.009   6.109  0.6763 -0.6885 -0.4445
  412MOL0     C55551   3.201   4.917   6.134 -0.1388 -0.0203  0.1974
  412MOL0     C55552   3.172   4.769   6.097 -0.2996 -0.9492 -0.0747
  412MOL0     H55553   3.566   4.696   6.402 -0.7941 -1.8242 -3.5349
  412MOL0     H55554   3.788   4.576   6.451  2.3308  1.7364  2.0003
  412MOL0     H55555   4.106   4.807   6.471  0.3673 -0.8600  1.6977
  412MOL0     H55556   4.163   4.640   6.479 -0.0298  1.3254  1.5523
  412MOL0     H55557   4.179   4.788   6.208  1.4090  1.1690 -0.3184
  412MOL0     H55558   4.224   4.629   6.249  0.5791 -0.2754  0.6673
  412MOL0     H55559   4.382   4.763   6.434 -1.0157  1.0681  1.1175
  412MOL0     H55560   4.368   4.901   6.317  0.3383 -0.3611 -2.2705
  412MOL0     H55561   4.444   4.783   6.138  0.0754 -2.8305 -0.7330
  412MOL0     H55562   4.568   4.796   6.272  0.2312  1.6058 -0.0935
  412MOL0     H55563   4.491   4.587   6.346 -0.2114 -0.6169  0.7735
  412MOL0     H55564   4.413   4.546   6.189  0.9350 -2.1147  2.4488
  412MOL0     H55565   4.655   4.598   6.095 -0.3167  0.6594  0.3701
  412MOL0     H55566   4.702   4.589   6.263 -1.6831  0.2818  0.6462
  412MOL0     H55567   4.534   4.375   6.121  0.6214 -2.4433  0.4003
  412MOL0     H55568   4.602   4.367   6.289  1.6298  1.2862  1.1011
  412MOL0     H55569   4.757   4.415   6.032 -1.7920  0.6818 -0.2212
  412MOL0     H55570   4.825   4.405   6.197  0.4015  1.3831  0.1409
  412MOL0     H55571   4.830   4.175   5.918  0.8952 -2.3107 -1.2655
  412MOL0     H55572   4.929   3.833   6.061  0.2474 -0.1272 -0.1621
  412MOL0     H55573   4.815   3.865   5.927 -0.0050  0.5798 -2.3208
  412MOL0     H55574   5.065   3.850   5.850 -0.0293 -0.0319 -2.8171
  412MOL0     H55575   5.000   4.008   5.817 -1.1986 -1.5168 -0.1131
  412MOL0     H55576   5.190   3.927   6.027 -2.1739  0.2667  2.2639
  412MOL0     H55577   5.099   4.078   6.050  0.4441  0.2649  1.7328
  412MOL0     H55578   5.206   4.145   5.804  0.1026 -1.1323 -0.7519
  412MOL0     H55579   5.278   3.998   5.813 -0.5046  0.5472 -0.2436
  412MOL0     H55580   5.362   4.179   5.668 -2.1518  4.6986  0.5239
  412MOL0     H55581   5.511   4.318   5.551 -1.4488  1.3029  0.0129
  412MOL0     H55582   5.924   4.616   5.497  3.0533 -2.6121 -2.5551
  412MOL0     H55583   5.999   4.754   5.319 -0.1543  1.0552 -1.4392
  412MOL0     H55584   5.663   4.869   5.069 -0.0340 -1.4214 -1.5316
  412MOL0     H55585   5.777   4.986   5.009  1.2078 -0.5039  0.1677
  412MOL0     H55586   5.731   4.701   4.883 -0.8096  0.3847  2.5877
  412MOL0     H55587   5.657   4.856   4.844 -0.9304 -1.3163  1.0401
  412MOL0     H55588   5.959   4.870   4.852 -0.6881  1.4884 -1.2469
  412MOL0     H55589   5.883   4.745   4.735 -1.9814  0.9462 -2.0613
  412MOL0     H55590   5.827   5.039   4.741 -2.5190 -1.4465  2.0186
  412MOL0     H55591   5.738   4.924   4.645 -1.1893 -0.7349  0.7075
  412MOL0     H55592   5.979   4.853   4.554  3.9448  0.5498  0.1399
  412MOL0     H55593   6.047   4.995   4.624  1.0091  0.0868 -0.6533
  412MOL0     H55594   5.974   5.007   4.377  1.6834 -2.6680  1.4106
  412MOL0     H55595   5.811   4.968   4.434 -0.4638 -0.1257 -0.2285
  412MOL0     H55596   5.959   5.245   4.495  3.1222 -1.6561 -3.4199
  412MOL0     H55597   5.796   5.189   4.544 -1.1874 -2.9243  0.2548
  412MOL0     H55598   5.773   5.141   4.277  1.2855 -2.1415  1.9016
  412MOL0     H55599   5.754   5.303   4.334  0.2175  0.8152 -1.0065
  412MOL0     H55600   5.640   4.675   5.099  2.5488 -0.6250 -1.5088
  412MOL0     H55601   5.553   4.525   5.310 -0.9391  0.8234  1.8303
  412MOL0     H55602   5.733   4.376   5.908 -1.6899 -1.6709  3.8556
  412MOL0     H55603   5.584   4.248   6.036  0.0077  0.2727  0.4648
  412MOL0     H55604   3.990   4.886   6.247  1.0840 -1.8898 -0.2163
  412MOL0     H55605   3.768   5.019   6.228 -1.6515  1.6797  3.2000
  412MOL0     H55606   3.432   5.156   6.231 -1.2339  0.0439  1.7527
  412MOL0     H55607   3.269   5.292   6.200 -0.3816  0.1255 -0.8626
  412MOL0     H55608   3.104   5.395   6.057 -0.1419 -0.5582  0.9906
  412MOL0     H55609   3.063   5.388   6.228  3.5627 -2.4990 -0.0957
  412MOL0     H55610   2.849   5.412   6.021 -2.6586 -1.7255  0.8739
  412MOL0     H55611   2.899   5.536   6.145 -2.1510  0.0924 -3.3101
  412MOL0     H55612   2.815   5.402   6.317 -0.7879 -2.2609  0.6118
  412MOL0     H55613   2.809   5.257   6.220  1.3545  0.4960 -2.8210
  412MOL0     H55614   2.606   5.371   6.091  0.9077  3.4812 -1.2121
  412MOL0     H55615   2.570   5.354   6.258 -1.2475 -0.9934 -1.2488
  412MOL0     H55616   2.600   5.771   6.247 -0.4186 -0.5561 -0.0837
  412MOL0     H55617   3.002   4.980   6.075  0.2069  2.0115 -1.6618
  412MOL0     H55618   3.100   4.770   6.015 -1.2667 -0.8592  0.7586
  412MOL0     H55619   3.263   4.711   6.081  1.1257  0.6805  1.6296
  412MOL0     H55620   3.122   4.733   6.188 -1.0909  0.3553  0.0268
  413MOL0     O55621   1.397   3.062   9.544  0.2374  0.6960  0.7598
  413MOL0     C55622   1.453   3.046   9.433  0.0755 -0.0480  0.0920
  413MOL0     O55623   1.540   3.131   9.375 -0.5042 -0.6574  0.5335
  413MOL0     C55624   1.594   3.248   9.445  0.2816  0.2259 -0.1811
  413MOL0     C55625   1.635   3.244   9.585 -0.1574  0.7500 -1.1407
  413MOL0     C55626   1.710   3.352   9.636 -0.2682  1.0209 -0.2571
  413MOL0     C55627   1.733   3.459   9.562 -0.1082 -0.2228  0.3757
  413MOL0     O55628   1.805   3.560   9.616 -0.2084  0.4789 -0.4920
  413MOL0     C55629   1.813   3.692   9.559 -0.1778  0.3461 -0.7243
  413MOL0     C55630   1.922   3.778   9.628  0.1857  0.2436  0.6496
  413MOL0     C55631   1.889   3.798   9.776 -0.0904 -0.1691 -0.0488
  413MOL0     C55632   1.979   3.903   9.851 -0.7202  0.1875  0.3357
  413MOL0     C55633   1.934   3.912   9.996  0.9145  0.3457 -0.8437
  413MOL0     C55634   1.923   3.776  10.068 -0.6802 -0.2602  0.2929
  413MOL0     C55635   1.926   3.795  10.217  0.3920  0.5233 -1.1920
  413MOL0     C55636   1.942   3.657  10.291 -0.3332  0.4603 -0.3125
  413MOL0     N55637   2.081   3.613  10.290 -0.7740  1.0005 -0.3780
  413MOL0     C55638   2.137   3.526  10.207  0.2542 -0.5966 -0.3037
  413MOL0     C55639   2.261   3.498  10.260  0.4500 -0.1197  0.3045
  413MOL0     C55640   2.366   3.414  10.187  0.1312 -0.2160 -0.8627
  413MOL0     C55641   2.419   3.306  10.281  0.2672  0.6431  0.5744
  413MOL0     C55642   2.499   3.210  10.197  0.1107  0.1486  0.0397
  413MOL0     C55643   2.569   3.109  10.286 -0.8491  0.3583 -0.0396
  413MOL0     O55644   2.661   3.026  10.220  0.7903  0.4182  0.2667
  413MOL0     C55645   2.789   3.081  10.188 -0.0477  0.4934 -0.5320
  413MOL0     C55646   2.885   3.005  10.116  0.2630  0.3553  0.5932
  413MOL0     C55647   3.019   3.052  10.088  0.0854 -1.0245  0.3804
  413MOL0     C55648   3.058   3.178  10.126 -0.2226 -1.0194  0.4760
  413MOL0     C55649   3.199   3.222  10.097  0.8178  0.2915 -0.3920
  413MOL0     O55650   3.284   3.130  10.035  0.1194  0.2549  0.2220
  413MOL0     C55651   3.421   3.149  10.029  0.1097  0.3766 -0.0740
  413MOL0     C55652   3.495   3.038  10.029  0.1000  0.8927 -0.7506
  413MOL0     C55653   3.632   3.039  10.033  0.0742  0.6369  0.4222
  413MOL0     C55654   3.697   3.164  10.025 -0.2956 -0.1878 -1.0339
  413MOL0     O55655   3.828   3.195  10.060 -0.8364  0.1068 -0.0070
  413MOL0     C55656   3.927   3.085  10.066  0.5675 -0.8356  0.2121
  413MOL0     C55657   4.066   3.145  10.079 -0.1313 -0.7560  0.7852
  413MOL0     C55658   4.081   3.253  10.184  0.1605  0.4130 -0.1754
  413MOL0     C55659   4.105   3.200  10.327  0.1977 -0.0919  0.0692
  413MOL0     C55660   4.246   3.194  10.363 -0.6243 -0.8268 -0.1369
  413MOL0     C55661   4.261   3.108  10.493 -0.4581 -0.3634  0.2976
  413MOL0     C55662   4.412   3.055  10.499 -0.0984  0.2482  0.2811
  413MOL0     C55663   4.466   3.011  10.640 -0.6145 -1.3904  0.5424
  413MOL0    Cl55664   4.616   2.927  10.623 -0.1662 -0.1039  0.3334
  413MOL0     C55665   3.622   3.278   9.999 -0.0798 -0.4103  0.2374
  413MOL0     C55666   3.483   3.274  10.001  0.6384  0.5376 -0.1694
  413MOL0     O55667   3.228   3.332  10.133  0.2124 -0.9995  0.8226
  413MOL0     C55668   2.953   3.262  10.180  0.0558 -0.2185 -0.0759
  413MOL0     C55669   2.832   3.210  10.219  0.5651 -0.4713 -0.7398
  413MOL0     N55670   2.278   3.576  10.368  0.6817  0.5130  0.1753
  413MOL0     N55671   2.173   3.643  10.390 -0.5705  1.1238 -0.1969
  413MOL0     C55672   1.688   3.462   9.431  0.4338 -0.1818 -0.1362
  413MOL0     C55673   1.617   3.360   9.373  0.6261 -0.5036  0.1254
  413MOL0     C55674   1.406   2.922   9.361  0.7036 -0.3171  0.5688
  413MOL0     C55675   1.498   2.839   9.294 -0.1714 -0.3555 -0.2448
  413MOL0     C55676   1.469   2.711   9.251 -0.4060 -0.3944 -0.1766
  413MOL0     C55677   1.349   2.649   9.286  0.0620  0.7034  0.1659
  413MOL0     O55678   1.343   2.512   9.250  0.1933 -0.3721  0.6538
  413MOL0     C55679   1.238   2.433   9.319  0.5855  0.0349  0.2412
  413MOL0     C55680   1.290   2.294   9.352 -0.9436 -0.0420 -0.1497
  413MOL0     C55681   1.427   2.291   9.430 -0.4744  0.2093 -0.2715
  413MOL0     C55682   1.460   2.154   9.494  1.1717 -0.3422  0.7923
  413MOL0     C55683   1.454   2.043   9.401  0.1265  0.0945 -0.8204
  413MOL0     C55684   1.426   1.945   9.335 -0.7659 -0.0278 -0.4277
  413MOL0     C55685   1.250   2.730   9.329  0.5752  0.6751  0.3728
  413MOL0     C55686   1.271   2.863   9.366 -0.4055  1.0107  0.7660
  413MOL0     C55687   1.151   2.934   9.414  0.1407  0.3596  0.3705
  413MOL0     H55688   1.620   3.156   9.647 -2.4582  1.4561 -0.5887
  413MOL0     H55689   1.746   3.354   9.739  2.6051 -0.6244 -1.1228
  413MOL0     H55690   1.848   3.682   9.456  1.7571 -1.6269  0.0313
  413MOL0     H55691   1.714   3.738   9.560  0.7869  2.5180  0.3502
  413MOL0     H55692   1.936   3.878   9.584 -1.3198  1.5848  3.0186
  413MOL0     H55693   2.019   3.728   9.615 -1.7812 -4.3490  1.6208
  413MOL0     H55694   1.890   3.704   9.832  1.4285 -0.4682 -0.5311
  413MOL0     H55695   1.787   3.838   9.780 -0.2328 -0.5563  0.2098
  413MOL0     H55696   2.085   3.879   9.848 -0.9263 -0.7190 -0.0954
  413MOL0     H55697   1.970   4.005   9.812  0.1768  0.5269  0.9831
  413MOL0     H55698   1.983   3.994  10.050 -0.3707  1.2407 -0.9910
  413MOL0     H55699   1.831   3.949   9.992  0.7137  0.7330  3.3261
  413MOL0     H55700   1.843   3.710  10.033  0.0302  0.4144 -2.9672
  413MOL0     H55701   2.017   3.723  10.047 -0.9589 -1.2756  1.4549
  413MOL0     H55702   1.836   3.845  10.253  0.9287 -0.9690  2.8247
  413MOL0     H55703   2.010   3.858  10.248 -0.1847  1.2329 -1.0484
  413MOL0     H55704   1.912   3.669  10.396  6.5842  0.6866  2.1955
  413MOL0     H55705   1.880   3.580  10.245 -0.6756  0.3987  0.2432
  413MOL0     H55706   2.096   3.489  10.113  0.3154 -0.2968 -0.4488
  413MOL0     H55707   2.319   3.378  10.095  0.2648 -1.4013 -0.4840
  413MOL0     H55708   2.453   3.476  10.162 -0.9649  2.8808  2.1495
  413MOL0     H55709   2.468   3.349  10.368  2.0596 -3.7490  2.0128
  413MOL0     H55710   2.333   3.248  10.318 -0.3012  0.6737 -0.6255
  413MOL0     H55711   2.561   3.266  10.126  1.0559 -2.1492 -1.0502
  413MOL0     H55712   2.424   3.162  10.133 -2.1204 -0.6541  3.0578
  413MOL0     H55713   2.495   3.041  10.329  1.2555 -1.5843  0.6834
  413MOL0     H55714   2.615   3.160  10.371 -1.5152  3.5493 -1.4416
  413MOL0     H55715   2.870   2.902  10.085 -0.2741  0.6220 -0.0533
  413MOL0     H55716   3.091   2.989  10.036  1.5705  0.3317  0.7203
  413MOL0     H55717   3.449   2.941  10.047  3.3763 -0.6371  0.0598
  413MOL0     H55718   3.691   2.949  10.044  0.6780  0.9512 -0.1576
  413MOL0     H55719   3.891   3.028  10.152  2.2391  0.6028  1.9410
  413MOL0     H55720   3.932   3.015   9.982  0.7876 -1.0446  0.3971
  413MOL0     H55721   4.140   3.067  10.101 -0.2608 -1.3441 -0.7711
  413MOL0     H55722   4.099   3.177   9.980  2.1129 -0.4705  1.5632
  413MOL0     H55723   4.142   3.333  10.141 -0.3458 -0.1637 -2.0566
  413MOL0     H55724   3.986   3.307  10.197 -0.3976 -0.5076 -0.3591
  413MOL0     H55725   4.061   3.100  10.335 -0.0625 -0.1553 -1.7505
  413MOL0     H55726   4.050   3.261  10.400 -2.7820 -2.3527 -0.0908
  413MOL0     H55727   4.282   3.292  10.395 -1.5327 -0.9548  1.4034
  413MOL0     H55728   4.306   3.153  10.281 -1.5323  0.7059 -1.6175
  413MOL0     H55729   4.252   3.152  10.593  0.9661 -0.3210  0.4295
  413MOL0     H55730   4.197   3.019  10.489 -0.2174 -0.5527  0.5923
  413MOL0     H55731   4.485   3.124  10.457  0.8712 -2.5695 -3.1943
  413MOL0     H55732   4.404   2.969  10.431 -1.9900  1.6177 -1.3291
  413MOL0     H55733   4.468   3.098  10.707  0.9393  2.2125 -3.6575
  413MOL0     H55734   4.388   2.943  10.675 -3.8063 -0.4209 -3.8113
  413MOL0     H55735   3.670   3.373   9.977 -2.1336 -0.1523 -4.0358
  413MOL0     H55736   3.417   3.358   9.982 -0.8757 -0.3811  0.7059
  413MOL0     H55737   2.985   3.363  10.202  0.2623 -0.1812 -0.5257
  413MOL0     H55738   2.781   3.282  10.281  0.1192  3.1953 -4.8974
  413MOL0     H55739   1.686   3.555   9.375 -5.8739 -0.2719 -0.7018
  413MOL0     H55740   1.567   3.364   9.277 -0.9777 -0.0616  0.9357
  413MOL0     H55741   1.598   2.881   9.283 -0.2065  0.5960  2.2750
  413MOL0     H55742   1.549   2.657   9.202 -0.9051  0.3458 -1.8849
  413MOL0     H55743   1.138   2.431   9.274  1.7079 -1.0121 -2.4597
  413MOL0     H55744   1.220   2.480   9.416 -2.2073 -0.1504 -0.1105
  413MOL0     H55745   1.320   2.250   9.256  1.0535 -1.2046  0.9400
  413MOL0     H55746   1.215   2.229   9.398 -1.7613  1.7638  1.1767
  413MOL0     H55747   1.433   2.380   9.493 -1.4759 -0.2972  0.5673
  413MOL0     H55748   1.507   2.301   9.356 -1.0239 -0.5233 -0.9827
  413MOL0     H55749   1.562   2.167   9.533  1.9468 -3.4760  0.0634
  413MOL0     H55750   1.394   2.136   9.580 -2.1203 -0.4946 -1.5860
  413MOL0     H55751   1.409   1.855   9.280  0.0863  0.3771 -1.3786
  413MOL0     H55752   1.149   2.691   9.342 -0.0243  2.5147  1.6421
  413MOL0     H55753   1.165   3.042   9.427  3.2499  0.1185 -0.2467
  413MOL0     H55754   1.068   2.907   9.348  1.8872  1.0131 -2.2145
  413MOL0     H55755   1.126   2.892   9.512  1.0411 -1.9002 -0.3054
  414MOL0     O55756   7.698   0.900   2.767  0.3081  0.4101 -0.5424
  414MOL0     C55757   7.660   0.919   2.653  0.4269  0.7599 -0.1420
  414MOL0     O55758   7.549   0.995   2.608  0.8599 -0.1858 -1.1867
  414MOL0     C55759   7.489   1.057   2.714 -0.5109 -0.5620  0.2182
  414MOL0     C55760   7.392   0.994   2.799  0.3183 -0.2303  1.1193
  414MOL0     C55761   7.321   1.053   2.895  0.2835 -1.2458 -0.4546
  414MOL0     C55762   7.335   1.190   2.913  0.0119 -0.5480  0.0226
  414MOL0     O55763   7.252   1.237   3.015  0.1242 -0.6278  0.0639
  414MOL0     C55764   7.217   1.375   3.015  0.5641 -0.4025  0.3754
  414MOL0     C55765   7.215   1.466   3.135 -0.1134  0.1956 -0.5725
  414MOL0     C55766   7.363   1.483   3.173  0.1167  0.0792  0.6339
  414MOL0     C55767   7.377   1.584   3.288 -0.2032  0.0344 -0.5103
  414MOL0     C55768   7.512   1.563   3.359  0.6708  0.8963  0.0371
  414MOL0     C55769   7.543   1.658   3.474 -0.1526  0.4446 -0.4843
  414MOL0     C55770   7.650   1.608   3.562  0.6441  0.7679 -1.2008
  414MOL0     C55771   7.798   1.629   3.504  0.4495 -0.1796  0.7303
  414MOL0     N55772   7.902   1.589   3.594  0.2849  0.1327 -0.8388
  414MOL0     C55773   7.921   1.638   3.719 -0.2905 -0.4689 -0.2260
  414MOL0     C55774   8.027   1.568   3.775 -0.2399  0.0328 -0.1629
  414MOL0     C55775   8.088   1.579   3.912 -0.2008 -0.4318 -0.3747
  414MOL0     C55776   8.207   1.678   3.916  0.3849 -0.1707 -0.5264
  414MOL0     C55777   8.332   1.640   4.001 -0.0991 -0.2633 -0.5746
  414MOL0     C55778   8.280   1.625   4.139  0.2042  0.7632  0.6728
  414MOL0     O55779   8.379   1.538   4.204 -0.6105  0.0091 -0.0399
  414MOL0     C55780   8.362   1.501   4.338  0.6118 -1.0776  0.7429
  414MOL0     C55781   8.478   1.462   4.403  0.1811  0.1528 -0.0134
  414MOL0     C55782   8.482   1.420   4.536  0.0322 -0.2968  0.2505
  414MOL0     C55783   8.363   1.428   4.604 -0.1105 -0.2627  0.5696
  414MOL0     C55784   8.367   1.402   4.754 -0.0210  0.1520  0.5551
  414MOL0     O55785   8.484   1.392   4.826 -0.5778  0.1232  0.0554
  414MOL0     C55786   8.465   1.364   4.960  0.9825 -0.5027 -0.5723
  414MOL0     C55787   8.428   1.240   5.006 -1.2241  0.4118  0.5104
  414MOL0     C55788   8.438   1.206   5.147  1.3028 -0.7843  0.2736
  414MOL0     C55789   8.466   1.309   5.235  0.0154  0.4271 -0.0338
  414MOL0     O55790   8.464   1.286   5.369 -0.0741  0.1427  0.2131
  414MOL0     C55791   8.380   1.380   5.451 -0.4695  0.3877  0.5861
  414MOL0     C55792   8.248   1.314   5.503 -0.2746 -0.8801  0.1847
  414MOL0     C55793   8.168   1.414   5.588  0.8124 -0.7130 -0.4673
  414MOL0     C55794   8.029   1.357   5.638  0.1120 -0.9560 -0.6543
  414MOL0     C55795   7.977   1.442   5.760  0.3572  1.5290  0.2763
  414MOL0     C55796   7.848   1.374   5.812  0.3396 -0.0226  0.6058
  414MOL0     C55797   7.811   1.392   5.960  0.1681 -0.8757  0.9599
  414MOL0     C55798   7.666   1.345   5.988 -0.6687  0.2986  0.1941
  414MOL0    Cl55799   7.652   1.319   6.161 -0.1265 -0.2208  0.2314
  414MOL0     C55800   8.501   1.434   5.183 -0.4379  0.1839 -1.3353
  414MOL0     C55801   8.520   1.453   5.047  0.4398 -0.1674 -0.5164
  414MOL0     O55802   8.254   1.369   4.796 -0.5042 -0.0668 -0.9335
  414MOL0     C55803   8.243   1.468   4.543  0.0318 -0.1124  1.0293
  414MOL0     C55804   8.244   1.492   4.406 -0.1537 -0.8095  0.9514
  414MOL0     N55805   8.072   1.472   3.684  0.6017  0.1775  0.0308
  414MOL0     N55806   7.988   1.481   3.581  0.4028 -0.5703  0.5425
  414MOL0     C55807   7.424   1.261   2.818  0.6935  0.2132 -0.0279
  414MOL0     C55808   7.496   1.192   2.727  0.3629  0.8062  0.5194
  414MOL0     C55809   7.719   0.831   2.551  0.6317 -0.9390  0.4460
  414MOL0     C55810   7.634   0.801   2.443  0.5270 -1.3000 -0.0006
  414MOL0     C55811   7.677   0.736   2.325 -0.3634 -1.1361 -0.7463
  414MOL0     C55812   7.804   0.689   2.325 -0.7788  0.4929  0.8264
  414MOL0     O55813   7.836   0.641   2.203  0.0544 -0.2722  0.1223
  414MOL0     C55814   7.965   0.603   2.180  0.0302  0.4761 -0.2822
  414MOL0     C55815   7.995   0.545   2.042 -0.5228  0.1483  0.2645
  414MOL0     C55816   7.918   0.601   1.914 -0.5377  0.1637  0.1980
  414MOL0     C55817   7.933   0.523   1.787  0.4133 -0.4633 -0.0396
  414MOL0     C55818   8.059   0.546   1.716 -0.3676 -0.5122  0.7696
  414MOL0     C55819   8.170   0.558   1.660  1.0708  0.3539 -0.7081
  414MOL0     C55820   7.886   0.701   2.432  0.4479 -0.0561 -0.5791
  414MOL0     C55821   7.845   0.770   2.549  0.1631 -0.0714 -1.2398
  414MOL0     C55822   7.941   0.773   2.669 -0.5745 -0.3365 -0.1438
  414MOL0     H55823   7.375   0.888   2.784 -4.9498  0.1101  2.8553
  414MOL0     H55824   7.258   0.991   2.958  0.2225  0.0732  0.8290
  414MOL0     H55825   7.264   1.433   2.934  0.7261  1.3019  1.6221
  414MOL0     H55826   7.111   1.365   2.989  0.8663  1.8550 -2.1510
  414MOL0     H55827   7.153   1.426   3.216 -0.7376  3.4877  0.7194
  414MOL0     H55828   7.169   1.562   3.108 -1.5217 -0.1004  0.6691
  414MOL0     H55829   7.422   1.507   3.084 -0.9955 -1.8011 -0.6764
  414MOL0     H55830   7.405   1.387   3.203  0.5770  0.5193  1.4303
  414MOL0     H55831   7.378   1.687   3.250 -1.3859  0.9626  1.7866
  414MOL0     H55832   7.294   1.588   3.359 -0.6909 -1.7997 -0.9122
  414MOL0     H55833   7.502   1.463   3.401 -0.7875  0.9501 -0.1255
  414MOL0     H55834   7.594   1.581   3.289 -0.0709  2.0575 -0.5738
  414MOL0     H55835   7.584   1.750   3.430  0.6092  1.0754  1.4273
  414MOL0     H55836   7.449   1.679   3.525 -1.3236 -3.2733 -0.8312
  414MOL0     H55837   7.643   1.500   3.580  0.9152  0.7144 -1.3960
  414MOL0     H55838   7.636   1.658   3.658 -0.0011  4.7055 -3.1781
  414MOL0     H55839   7.800   1.571   3.411 -0.7409 -0.8028  1.0773
  414MOL0     H55840   7.815   1.733   3.475 -2.4223 -0.0193 -0.8040
  414MOL0     H55841   7.867   1.722   3.762 -1.4809 -0.4989 -1.6185
  414MOL0     H55842   8.014   1.620   3.981  0.1753  1.2050 -0.8993
  414MOL0     H55843   8.106   1.481   3.957 -0.9541 -0.8845 -1.0293
  414MOL0     H55844   8.248   1.691   3.815 -0.0847 -4.4655 -1.4511
  414MOL0     H55845   8.171   1.771   3.963 -0.6478  0.3565 -2.2385
  414MOL0     H55846   8.408   1.719   3.994 -3.1993  2.9588 -0.9639
  414MOL0     H55847   8.380   1.552   3.957 -0.8577  0.2607 -2.5725
  414MOL0     H55848   8.178   1.585   4.143 -0.5952  2.5838 -0.0591
  414MOL0     H55849   8.260   1.725   4.179 -5.5274  0.2194  0.0523
  414MOL0     H55850   8.572   1.461   4.350  2.1497  2.4672  3.0621
  414MOL0     H55851   8.579   1.390   4.574 -0.0158  0.0893  0.6889
  414MOL0     H55852   8.392   1.176   4.927  0.8112  0.7996 -0.7968
  414MOL0     H55853   8.423   1.104   5.179  3.0499 -0.6065  1.7930
  414MOL0     H55854   8.449   1.423   5.525  2.2106  3.6072 -3.2652
  414MOL0     H55855   8.354   1.471   5.395 -1.7266 -0.7894 -0.8317
  414MOL0     H55856   8.192   1.288   5.413  1.2133  0.4056 -1.1803
  414MOL0     H55857   8.256   1.219   5.557 -0.4804 -2.1305 -1.8665
  414MOL0     H55858   8.225   1.454   5.673 -0.6564 -0.6191  0.5095
  414MOL0     H55859   8.139   1.496   5.521 -0.8874 -0.2887  0.7337
  414MOL0     H55860   8.041   1.258   5.684 -0.7990 -0.9475 -0.3717
  414MOL0     H55861   7.959   1.355   5.555  1.0804 -2.3797 -1.4716
  414MOL0     H55862   7.949   1.544   5.732 -1.9318  0.1978 -2.8913
  414MOL0     H55863   8.051   1.440   5.841  4.4200  1.5930 -3.1006
  414MOL0     H55864   7.763   1.421   5.760  1.4121  1.1745 -0.1491
  414MOL0     H55865   7.848   1.266   5.797  0.6616  0.1651 -0.9627
  414MOL0     H55866   7.820   1.496   5.992 -0.0616 -0.3785 -0.4949
  414MOL0     H55867   7.886   1.340   6.021  0.2696  0.1404  1.7277
  414MOL0     H55868   7.594   1.424   5.962 -1.4102  0.3108  2.0896
  414MOL0     H55869   7.634   1.253   5.939 -3.7109  0.4057  1.7429
  414MOL0     H55870   8.531   1.505   5.259 -0.8942 -1.6593  0.6471
  414MOL0     H55871   8.568   1.547   5.024  2.3681 -1.2914 -1.2480
  414MOL0     H55872   8.149   1.466   4.597 -0.6136 -1.2447 -0.0875
  414MOL0     H55873   8.150   1.514   4.357  0.7733 -0.0238 -0.5222
  414MOL0     H55874   7.433   1.368   2.803  0.3374  0.0176 -1.7966
  414MOL0     H55875   7.550   1.245   2.649  0.7594  0.0489  0.2614
  414MOL0     H55876   7.536   0.844   2.426  1.0910  0.4269  0.8493
  414MOL0     H55877   7.604   0.725   2.245 -3.5559 -0.0458  1.7637
  414MOL0     H55878   8.005   0.534   2.255 -0.4513  1.2183  0.6866
  414MOL0     H55879   8.019   0.697   2.196 -0.3378  0.3128  2.5415
  414MOL0     H55880   7.976   0.438   2.046 -2.1433  0.4047  0.1631
  414MOL0     H55881   8.100   0.569   2.023 -0.4558 -0.7993 -0.6313
  414MOL0     H55882   7.944   0.707   1.907 -0.5866  0.4647  3.3836
  414MOL0     H55883   7.813   0.596   1.945 -0.2720  0.7767  1.2733
  414MOL0     H55884   7.940   0.414   1.797 -0.1431 -0.3763  1.6978
  414MOL0     H55885   7.849   0.545   1.720  0.7972  0.3705 -0.2480
  414MOL0     H55886   8.265   0.556   1.611  1.3144  0.3810 -0.2419
  414MOL0     H55887   7.985   0.659   2.415 -0.1184 -2.1499  0.9247
  414MOL0     H55888   7.965   0.872   2.707  3.7528 -0.6611 -1.4157
  414MOL0     H55889   7.922   0.701   2.749  0.9896 -2.9397 -1.9442
  414MOL0     H55890   8.032   0.726   2.631 -0.1534  0.1129  0.2935
  415MOL0     O55891   2.822   5.815   8.890  0.2268  0.0349  0.1576
  415MOL0     C55892   2.759   5.917   8.885 -0.2215 -0.4257 -0.0986
  415MOL0     O55893   2.780   6.023   8.796  1.0373  0.5654  0.3910
  415MOL0     C55894   2.883   6.004   8.710 -0.0439 -0.5454 -0.2628
  415MOL0     C55895   2.870   5.920   8.605  0.1006  0.2764  0.4055
  415MOL0     C55896   2.981   5.897   8.526 -0.0326  0.5750  0.4834
  415MOL0     C55897   3.102   5.943   8.552  0.2989 -0.3572 -0.4904
  415MOL0     O55898   3.204   5.905   8.466  0.4188 -0.0951  0.6781
  415MOL0     C55899   3.338   5.926   8.508  0.6752 -0.9295 -0.1632
  415MOL0     C55900   3.434   5.831   8.431 -0.3593 -0.9621 -0.3765
  415MOL0     C55901   3.581   5.880   8.429  0.2614  0.1568 -0.1814
  415MOL0     C55902   3.681   5.780   8.375  0.5907 -0.4198 -0.6145
  415MOL0     C55903   3.823   5.828   8.360 -0.6540  0.4591  0.1460
  415MOL0     C55904   3.925   5.721   8.313  0.0202  0.0240 -0.8118
  415MOL0     C55905   3.889   5.570   8.328  0.0138 -0.2337 -0.6457
  415MOL0     C55906   3.915   5.530   8.476  0.1137 -0.4976  0.1380
  415MOL0     N55907   3.851   5.416   8.515  0.3314  0.0720  0.1908
  415MOL0     C55908   3.723   5.423   8.565  1.3945  0.9263 -0.2395
  415MOL0     C55909   3.694   5.290   8.592 -0.6163  0.1405  0.1878
  415MOL0     C55910   3.568   5.236   8.639  0.2638  0.6815  0.1188
  415MOL0     C55911   3.559   5.223   8.794 -0.4289 -0.5915 -1.0285
  415MOL0     C55912   3.418   5.192   8.843  0.2901 -0.6543 -0.2637
  415MOL0     C55913   3.361   5.064   8.778  0.4357  0.8026 -0.2253
  415MOL0     O55914   3.272   4.997   8.863 -0.4226  0.9666  0.5147
  415MOL0     C55915   3.144   5.043   8.862 -0.2278  0.2439  0.0127
  415MOL0     C55916   3.068   5.008   8.759  1.2847 -0.4270  0.8117
  415MOL0     C55917   2.937   5.059   8.759  0.5880  0.1063 -0.7928
  415MOL0     C55918   2.897   5.166   8.848 -0.3835  0.5972 -0.5870
  415MOL0     C55919   2.769   5.226   8.842  1.3486 -0.0438  0.4168
  415MOL0     O55920   2.672   5.179   8.753 -0.1377 -0.6239 -0.1428
  415MOL0     C55921   2.544   5.216   8.757  0.2093 -0.4458 -0.5637
  415MOL0     C55922   2.463   5.285   8.851  0.1608  0.1559 -0.8579
  415MOL0     C55923   2.329   5.312   8.829 -1.0874 -0.1896 -0.1991
  415MOL0     C55924   2.267   5.262   8.721  0.6249  0.0922 -0.3157
  415MOL0     O55925   2.135   5.272   8.672 -0.6074  0.1014 -0.6405
  415MOL0     C55926   2.095   5.407   8.666 -0.7040  0.9580  0.1738
  415MOL0     C55927   1.953   5.433   8.616  0.1985 -0.7561 -0.2884
  415MOL0     C55928   1.851   5.402   8.727  1.7377 -0.8419 -0.0382
  415MOL0     C55929   1.714   5.468   8.684 -0.0568 -0.9470 -0.6555
  415MOL0     C55930   1.629   5.504   8.802  0.1514 -0.5911  0.6245
  415MOL0     C55931   1.480   5.531   8.767  0.5325  0.1265  0.4168
  415MOL0     C55932   1.465   5.621   8.640 -0.8093 -0.2570  0.3302
  415MOL0     C55933   1.321   5.648   8.589  1.1118  0.2300 -0.4744
  415MOL0    Cl55934   1.240   5.765   8.694 -0.6864  0.4488  0.2859
  415MOL0     C55935   2.344   5.179   8.641  0.1744 -0.2507  0.2741
  415MOL0     C55936   2.473   5.154   8.653  1.0262  0.3198  0.3529
  415MOL0     O55937   2.742   5.310   8.934 -0.2473  0.5973  0.3690
  415MOL0     C55938   2.989   5.199   8.951  0.9903 -0.7551 -0.4900
  415MOL0     C55939   3.113   5.140   8.958 -0.3992  0.0703 -0.2806
  415MOL0     N55940   3.808   5.216   8.568  0.1978  0.5193  0.9438
  415MOL0     N55941   3.903   5.289   8.526  0.1356  0.4553  0.3187
  415MOL0     C55942   3.110   6.041   8.650  0.1941 -0.0739 -0.1248
  415MOL0     C55943   3.002   6.070   8.737  0.4567  0.3236  0.6185
  415MOL0     C55944   2.644   5.926   8.968 -0.2776  0.4763 -0.7214
  415MOL0     C55945   2.649   5.857   9.092  1.2708 -0.3557  0.7163
  415MOL0     C55946   2.529   5.861   9.170  0.3134  0.2832 -0.7851
  415MOL0     C55947   2.402   5.913   9.134  0.5046 -0.5329  0.4528
  415MOL0     O55948   2.285   5.903   9.200 -0.6794 -0.2036 -0.5412
  415MOL0     C55949   2.298   5.856   9.333  0.0664 -1.1563 -0.2884
  415MOL0     C55950   2.169   5.880   9.408  0.8628 -0.0540  0.2963
  415MOL0     C55951   2.067   5.769   9.358 -0.1764 -1.2156  0.2075
  415MOL0     C55952   1.933   5.776   9.416  0.5577 -0.2164  0.1636
  415MOL0     C55953   1.868   5.889   9.354  0.0491  0.0992  0.3691
  415MOL0     C55954   1.819   5.985   9.298 -0.7851  0.0167 -0.6120
  415MOL0     C55955   2.405   5.987   9.017  0.9793  0.6765 -0.2561
  415MOL0     C55956   2.519   5.991   8.933 -0.4345  0.5794  0.0096
  415MOL0     C55957   2.483   6.065   8.802 -0.7603  0.1554 -0.3152
  415MOL0     H55958   2.776   5.873   8.578  0.0624  0.0982  0.8435
  415MOL0     H55959   2.987   5.830   8.441  0.8526  1.5943 -0.2915
  415MOL0     H55960   3.371   6.029   8.492  1.5281 -0.2827  4.4611
  415MOL0     H55961   3.353   5.905   8.614  0.4003 -3.0623 -0.4957
  415MOL0     H55962   3.394   5.810   8.331  1.7923 -0.0529 -1.4867
  415MOL0     H55963   3.432   5.733   8.479 -0.5008 -2.2923 -2.9305
  415MOL0     H55964   3.600   5.906   8.533 -2.3050 -1.7401  0.8651
  415MOL0     H55965   3.593   5.962   8.358  0.2046 -1.5115 -2.2359
  415MOL0     H55966   3.670   5.689   8.433  2.3858 -2.0671 -2.6888
  415MOL0     H55967   3.649   5.770   8.271  0.1945  0.2674 -0.5699
  415MOL0     H55968   3.827   5.913   8.291 -2.2208  1.5004  1.2939
  415MOL0     H55969   3.867   5.855   8.456 -1.4194  2.4330 -0.0148
  415MOL0     H55970   3.937   5.730   8.205 -2.4294  0.7500 -1.0990
  415MOL0     H55971   4.017   5.752   8.362 -1.0010 -1.0530  2.0200
  415MOL0     H55972   3.944   5.508   8.257 -0.5488 -1.9185  0.3366
  415MOL0     H55973   3.784   5.552   8.301 -0.3493  2.0198 -0.9147
  415MOL0     H55974   4.024   5.530   8.489  0.1559  0.8523 -0.0431
  415MOL0     H55975   3.881   5.612   8.540 -3.2709 -0.8818 -0.9709
  415MOL0     H55976   3.660   5.511   8.580 -3.9765 -2.4697 -0.4134
  415MOL0     H55977   3.498   5.315   8.609 -0.9132 -0.7098 -0.9878
  415MOL0     H55978   3.541   5.142   8.590 -0.1676  1.5510 -1.3904
  415MOL0     H55979   3.621   5.139   8.826 -1.3432 -0.6175  0.8263
  415MOL0     H55980   3.596   5.317   8.836  1.6631 -1.4637 -0.7969
  415MOL0     H55981   3.352   5.274   8.812  0.5628 -0.0144  0.7642
  415MOL0     H55982   3.421   5.179   8.952 -0.7160 -0.1737 -0.1629
  415MOL0     H55983   3.437   4.987   8.762  0.4357  0.7875 -0.1537
  415MOL0     H55984   3.328   5.089   8.677 -0.5807  0.0427 -0.0938
  415MOL0     H55985   3.098   4.939   8.681 -2.4496 -1.1731 -0.2005
  415MOL0     H55986   2.862   5.024   8.689 -3.3035 -0.9930  3.4431
  415MOL0     H55987   2.508   5.326   8.941 -2.1296  0.3702  0.2696
  415MOL0     H55988   2.272   5.372   8.900  1.0965  2.2039 -0.3109
  415MOL0     H55989   2.117   5.453   8.763 -2.4254  0.4207  0.8620
  415MOL0     H55990   2.160   5.456   8.594 -1.7296 -1.2980 -2.4413
  415MOL0     H55991   1.946   5.538   8.585  1.8135 -0.4291  0.3584
  415MOL0     H55992   1.927   5.368   8.532  2.3843 -0.0514 -1.5777
  415MOL0     H55993   1.840   5.294   8.738 -0.7095 -1.0777 -3.4476
  415MOL0     H55994   1.885   5.448   8.820 -0.5135 -1.2950  1.0884
  415MOL0     H55995   1.660   5.401   8.616  1.5711 -1.3850 -1.5531
  415MOL0     H55996   1.748   5.559   8.634  4.2374 -1.7579  0.4010
  415MOL0     H55997   1.671   5.594   8.848 -2.9071  2.0850 -1.3531
  415MOL0     H55998   1.639   5.423   8.875 -0.4981 -0.3528  0.9892
  415MOL0     H55999   1.420   5.439   8.762  1.7448 -0.6117 -1.6487
  415MOL0     H56000   1.437   5.581   8.854 -0.0117  0.2655  0.0729
  415MOL0     H56001   1.512   5.572   8.553 -0.1762  0.8066  0.0491
  415MOL0     H56002   1.511   5.720   8.652 -2.5470  0.8617 -1.6382
  415MOL0     H56003   1.310   5.694   8.491 -0.3472  3.1170  0.9115
  415MOL0     H56004   1.271   5.550   8.585  3.1470 -0.9255  0.5132
  415MOL0     H56005   2.301   5.131   8.554  1.3895 -0.8379 -0.0196
  415MOL0     H56006   2.523   5.076   8.597  0.3302  0.1652 -0.0666
  415MOL0     H56007   2.957   5.277   9.019  0.0524 -1.2843 -0.3104
  415MOL0     H56008   3.182   5.157   9.040 -0.3973  0.2878 -0.3256
  415MOL0     H56009   3.201   6.099   8.663  0.5809 -0.8310  0.6256
  415MOL0     H56010   2.999   6.144   8.817  1.2760 -0.4809  1.4197
  415MOL0     H56011   2.740   5.820   9.137  1.9615  1.2652  0.7111
  415MOL0     H56012   2.533   5.808   9.265 -1.5819 -1.2535 -1.4852
  415MOL0     H56013   2.372   5.917   9.385 -1.0414  1.4125 -1.5764
  415MOL0     H56014   2.322   5.750   9.322  0.2697 -1.0365 -1.1212
  415MOL0     H56015   2.139   5.984   9.387 -1.6220 -0.7268  0.1736
  415MOL0     H56016   2.169   5.869   9.517 -2.7957 -0.9002  0.3452
  415MOL0     H56017   2.106   5.669   9.383  0.6637 -0.5444  1.7089
  415MOL0     H56018   2.064   5.782   9.250 -2.7243  0.4104  0.4054
  415MOL0     H56019   1.871   5.688   9.393  0.8033 -0.2747 -0.2739
  415MOL0     H56020   1.926   5.800   9.522 -0.7736  1.3974 -0.2563
  415MOL0     H56021   1.774   6.071   9.252 -1.7267  0.5911  1.2749
  415MOL0     H56022   2.319   6.051   8.998 -1.1672 -1.5542  1.4069
  415MOL0     H56023   2.545   6.031   8.718  0.6439  0.0820  0.7147
  415MOL0     H56024   2.380   6.053   8.769 -1.6181 -3.9827  2.9605
  415MOL0     H56025   2.514   6.169   8.818  0.5824 -0.2458 -0.1662
  416MOL0     O56026   2.851  11.080  10.439  0.6137 -0.0926 -0.2297
  416MOL0     C56027   2.748  11.045  10.385  1.0524 -0.2564 -0.1056
  416MOL0     O56028   2.706  10.922  10.358 -0.4333  0.0988 -0.3263
  416MOL0     C56029   2.802  10.821  10.370  0.0666  0.2253 -0.1801
  416MOL0     C56030   2.920  10.829  10.297  0.8242 -0.0170  0.7341
  416MOL0     C56031   3.015  10.730  10.300  0.3019  0.1464 -0.5592
  416MOL0     C56032   2.998  10.614  10.382 -0.3629  1.1622 -0.4763
  416MOL0     O56033   3.090  10.510  10.412  0.7852  0.7503 -0.1784
  416MOL0     C56034   3.205  10.509  10.325  0.1847  0.4778 -0.1422
  416MOL0     C56035   3.268  10.363  10.333 -0.3956 -0.7230  0.2259
  416MOL0     C56036   3.409  10.362  10.288  0.2175  0.0763  0.5914
  416MOL0     C56037   3.506  10.412  10.391 -1.1214 -0.2509  0.5604
  416MOL0     C56038   3.653  10.420  10.354  1.2093 -0.0372 -0.7878
  416MOL0     C56039   3.743  10.408  10.478  0.3206  0.0536  0.3374
  416MOL0     C56040   3.891  10.416  10.441  0.6179 -0.2884 -0.0027
  416MOL0     C56041   3.965  10.411  10.586 -0.4710 -0.7107  2.0388
  416MOL0     N56042   4.111  10.417  10.570  0.1981 -0.1619 -0.0074
  416MOL0     C56043   4.179  10.489  10.483  0.5824  0.4227  0.0490
  416MOL0     C56044   4.307  10.453  10.500 -0.4679 -0.1726  0.4673
  416MOL0     C56045   4.407  10.507  10.410 -0.1299 -0.2284  0.4617
  416MOL0     C56046   4.542  10.437  10.424  0.2874 -0.3230 -0.2532
  416MOL0     C56047   4.605  10.486  10.554 -0.0486 -0.4107 -0.2220
  416MOL0     C56048   4.750  10.452  10.552 -0.6860  0.3061  0.2571
  416MOL0     O56049   4.778  10.315  10.538 -0.5075 -0.0318 -0.3804
  416MOL0     C56050   4.896  10.296  10.479  0.3504  0.3265  0.1617
  416MOL0     C56051   5.019  10.367  10.497 -0.2824  0.5396 -0.3156
  416MOL0     C56052   5.133  10.320  10.432 -0.1178  0.2653  0.2247
  416MOL0     C56053   5.135  10.199  10.354 -0.6174 -0.8882  1.4476
  416MOL0     C56054   5.264  10.159  10.280 -1.0307  0.0807 -0.6380
  416MOL0     O56055   5.378  10.216  10.330 -0.1021 -1.1997 -0.6065
  416MOL0     C56056   5.500  10.186  10.283  0.8729 -0.3590 -0.2164
  416MOL0     C56057   5.568  10.269  10.196 -0.3975 -0.0390 -0.0602
  416MOL0     C56058   5.698  10.222  10.148 -0.1489  0.7705 -0.0897
  416MOL0     C56059   5.753  10.099  10.192  0.2044  0.1989  0.5418
  416MOL0     O56060   5.877  10.052  10.159  0.0864  0.6482  0.8252
  416MOL0     C56061   5.989  10.139  10.133 -0.2829  0.1766 -0.5827
  416MOL0     C56062   6.013  10.176   9.991  1.0629  0.5776 -0.9201
  416MOL0     C56063   6.001  10.060   9.885 -0.8499  0.3334 -0.3115
  416MOL0     C56064   6.068   9.932   9.912 -0.4783  0.1495  0.7398
  416MOL0     C56065   6.221   9.956   9.927  0.5844 -0.5372 -0.4723
  416MOL0     C56066   6.289   9.835   9.976 -0.7124 -0.8057 -0.1221
  416MOL0     C56067   6.251   9.792  10.115 -0.9302  0.0176  0.5295
  416MOL0     C56068   6.320   9.652  10.159  0.5265  0.2070  0.6147
  416MOL0    Cl56069   6.327   9.623  10.338 -0.2245  0.0858 -0.2881
  416MOL0     C56070   5.675  10.016  10.266 -0.3890  0.3303  0.0552
  416MOL0     C56071   5.551  10.058  10.307  0.6488 -0.1994 -0.2841
  416MOL0     O56072   5.270  10.066  10.200  0.0581 -0.0298  0.5803
  416MOL0     C56073   5.020  10.117  10.341  0.7126  0.6805 -0.4490
  416MOL0     C56074   4.901  10.171  10.414 -0.3335  0.5539 -0.0439
  416MOL0     N56075   4.307  10.351  10.598 -0.1471  1.0538 -0.0808
  416MOL0     N56076   4.192  10.329  10.638  1.1235  0.5816 -0.0831
  416MOL0     C56077   2.877  10.613  10.457 -0.7018 -0.3153  0.9842
  416MOL0     C56078   2.772  10.709  10.446 -0.2056  1.0095  0.2720
  416MOL0     C56079   2.654  11.154  10.338 -0.2058  0.5322  0.6733
  416MOL0     C56080   2.686  11.284  10.386 -0.0421 -0.0828  0.1236
  416MOL0     C56081   2.613  11.395  10.348  0.1400  0.0751  1.0389
  416MOL0     C56082   2.510  11.389  10.253  0.0611 -1.2283  0.2792
  416MOL0     O56083   2.442  11.494  10.199 -0.0488 -0.0406 -0.6296
  416MOL0     C56084   2.443  11.623  10.266 -0.6843  0.0098  0.4056
  416MOL0     C56085   2.320  11.709  10.226 -0.0024  1.1013  0.1911
  416MOL0     C56086   2.295  11.819  10.326 -0.3714  0.2040  1.2568
  416MOL0     C56087   2.188  11.921  10.293  0.3939 -0.2023 -0.0600
  416MOL0     C56088   2.052  11.877  10.328  0.4773 -0.3429  1.1262
  416MOL0     C56089   1.936  11.851  10.362  0.4393 -0.2468  0.1916
  416MOL0     C56090   2.489  11.266  10.189  0.2165 -0.4420  0.0150
  416MOL0     C56091   2.553  11.147  10.238 -0.1885 -0.2121  0.2301
  416MOL0     C56092   2.535  11.018  10.153  0.0444 -0.1137 -0.1300
  416MOL0     H56093   2.946  10.910  10.230  1.7303 -0.2745  0.7629
  416MOL0     H56094   3.106  10.742  10.243  1.5883  0.9391  1.5678
  416MOL0     H56095   3.189  10.523  10.218 -2.2259 -0.3846  0.0347
  416MOL0     H56096   3.277  10.584  10.359  0.7185 -1.1556  2.6704
  416MOL0     H56097   3.223  10.292  10.262 -3.0983  0.4108  0.6498
  416MOL0     H56098   3.254  10.328  10.435  0.6813  1.3430  1.1382
  416MOL0     H56099   3.414  10.423  10.198 -0.3979  2.7136  2.2319
  416MOL0     H56100   3.429  10.257  10.265  1.3929  0.1503  1.1969
  416MOL0     H56101   3.483  10.513  10.426 -3.6149 -0.6009  0.1390
  416MOL0     H56102   3.492  10.354  10.483 -1.6934  1.0381  1.3226
  416MOL0     H56103   3.686  10.338  10.289  0.9528  0.3770 -1.4495
  416MOL0     H56104   3.675  10.513  10.302  0.7403  0.1363 -0.6834
  416MOL0     H56105   3.722  10.489  10.548 -1.7418 -0.9304  0.9226
  416MOL0     H56106   3.728  10.310  10.525 -2.4404  0.7771  1.1602
  416MOL0     H56107   3.914  10.514  10.398 -1.2084 -0.0980 -0.6056
  416MOL0     H56108   3.929  10.336  10.376 -0.3401 -2.4191  1.9222
  416MOL0     H56109   3.943  10.482  10.666  2.8895 -1.2844  3.6405
  416MOL0     H56110   3.945  10.310  10.624 -1.0500 -1.0594  0.8653
  416MOL0     H56111   4.142  10.565  10.415 -0.1558 -0.1147 -0.1624
  416MOL0     H56112   4.384  10.471  10.309  0.7980 -2.0223  0.8350
  416MOL0     H56113   4.418  10.614  10.428  0.1142 -0.5323  2.3633
  416MOL0     H56114   4.545  10.328  10.420  1.6352 -0.3369  0.5147
  416MOL0     H56115   4.604  10.480  10.344  1.4441  3.0155  2.2087
  416MOL0     H56116   4.559  10.441  10.643  0.5402 -0.3455  0.1187
  416MOL0     H56117   4.585  10.594  10.555 -0.1160 -0.4215 -0.6531
  416MOL0     H56118   4.801  10.483  10.644 -0.4350  2.2685 -0.4885
  416MOL0     H56119   4.787  10.510  10.467 -2.2733 -0.4026 -0.9711
  416MOL0     H56120   5.029  10.456  10.557 -1.1826  0.3962  0.0666
  416MOL0     H56121   5.216  10.389  10.440 -1.1578  1.3171  4.3783
  416MOL0     H56122   5.522  10.361  10.162 -2.7734 -1.4969 -1.0759
  416MOL0     H56123   5.747  10.275  10.068 -0.2534 -0.7686 -1.2134
  416MOL0     H56124   5.973  10.233  10.186 -1.3341 -1.3081  1.8925
  416MOL0     H56125   6.084  10.096  10.165  1.2287  0.8941 -3.7033
  416MOL0     H56126   5.930  10.235   9.950 -1.9427 -1.1724  2.1624
  416MOL0     H56127   6.111  10.225   9.987  1.6427 -0.5220 -0.5328
  416MOL0     H56128   5.895  10.038   9.874 -0.7883  1.3776 -4.3365
  416MOL0     H56129   6.022  10.096   9.784  2.8582 -0.2728  0.0893
  416MOL0     H56130   6.037   9.868   9.830 -0.8035  2.0433 -0.6831
  416MOL0     H56131   6.030   9.889  10.006 -1.1114 -0.1532  0.3506
  416MOL0     H56132   6.238  10.030  10.006 -0.3818 -1.5959  0.7577
  416MOL0     H56133   6.261   9.996   9.833  1.2580  0.5241  0.2381
  416MOL0     H56134   6.275   9.749   9.909  1.4135 -3.4326  2.5238
  416MOL0     H56135   6.395   9.857   9.963 -0.8458 -0.9330 -1.5458
  416MOL0     H56136   6.144   9.773  10.129 -0.4493 -1.6664  2.3396
  416MOL0     H56137   6.274   9.872  10.185  0.0428  0.0638  0.1778
  416MOL0     H56138   6.267   9.575  10.102  0.6793  0.6955 -0.2077
  416MOL0     H56139   6.419   9.649  10.112 -0.5417 -1.2477 -1.6877
  416MOL0     H56140   5.709   9.916  10.292  1.4520  0.1402 -2.6507
  416MOL0     H56141   5.488   9.997  10.370 -2.7305  1.8439 -1.3860
  416MOL0     H56142   4.996  10.026  10.288 -3.2538  0.0776  1.9089
  416MOL0     H56143   4.814  10.110  10.391  0.3726 -1.7049  2.6490
  416MOL0     H56144   2.858  10.524  10.517 -0.5201 -1.0011  0.0614
  416MOL0     H56145   2.679  10.710  10.502 -0.3815 -0.2485  0.0343
  416MOL0     H56146   2.773  11.298  10.450  0.8548  1.3570 -1.3207
  416MOL0     H56147   2.647  11.483  10.401 -0.6455  0.2939  1.2027
  416MOL0     H56148   2.531  11.679  10.232 -1.3340 -0.5375 -2.4853
  416MOL0     H56149   2.438  11.609  10.374  1.8742 -0.0500  0.5561
  416MOL0     H56150   2.227  11.652  10.218  0.3330  0.7328 -1.2549
  416MOL0     H56151   2.328  11.749  10.125  0.3687 -0.4893 -0.4419
  416MOL0     H56152   2.390  11.873  10.323  0.2240 -0.8247  0.9167
  416MOL0     H56153   2.288  11.783  10.429 -1.6238  1.6401  1.7024
  416MOL0     H56154   2.196  12.020  10.339 -0.5244  0.6764 -1.7064
  416MOL0     H56155   2.191  11.935  10.185  1.8013 -1.6394 -0.2312
  416MOL0     H56156   1.838  11.832  10.400  0.4038  2.1252  1.5267
  416MOL0     H56157   2.421  11.259  10.105  1.2436 -1.8087 -0.7403
  416MOL0     H56158   2.629  10.994  10.102  0.9150  1.2606  0.7651
  416MOL0     H56159   2.504  10.940  10.223 -0.7088  0.3590  0.0728
  416MOL0     H56160   2.457  11.035  10.078  0.9931  1.3048 -0.8352
  417MOL0     O56161   8.065  10.219   3.386  0.2396 -0.0103 -0.2725
  417MOL0     C56162   7.959  10.224   3.454  0.4564  1.4623 -0.2947
  417MOL0     O56163   7.928  10.333   3.539  0.1191 -0.1837 -0.5681
  417MOL0     C56164   8.006  10.450   3.534  0.1455  0.3820 -0.9290
  417MOL0     C56165   8.144  10.464   3.502 -0.0056  0.0327  0.9232
  417MOL0     C56166   8.203  10.588   3.502 -0.1929 -0.0514 -0.2833
  417MOL0     C56167   8.135  10.700   3.539  0.4579  0.8588  0.0618
  417MOL0     O56168   8.195  10.817   3.556  0.5949 -0.1046 -0.0457
  417MOL0     C56169   8.172  10.895   3.668  0.6689 -0.1540  1.3203
  417MOL0     C56170   8.305  10.981   3.663 -0.7219  1.6914  0.7301
  417MOL0     C56171   8.288  11.103   3.763 -0.5480  0.0798  0.3450
  417MOL0     C56172   8.394  11.211   3.765  0.4156 -0.8160 -0.3492
  417MOL0     C56173   8.363  11.324   3.874 -0.1292  0.6177 -0.0313
  417MOL0     C56174   8.467  11.437   3.883  0.3547  0.3633 -0.0035
  417MOL0     C56175   8.498  11.516   3.766 -0.1003 -0.3359 -0.0816
  417MOL0     C56176   8.386  11.618   3.721 -0.0677  0.0916  0.9381
  417MOL0     N56177   8.452  11.684   3.604  0.3366 -0.0886  0.4261
  417MOL0     C56178   8.444  11.652   3.468  0.3432  0.2769 -0.1802
  417MOL0     C56179   8.510  11.754   3.408 -0.2071  0.1476  0.7229
  417MOL0     C56180   8.553  11.738   3.266  0.3489  1.1252  0.0772
  417MOL0     C56181   8.570  11.878   3.205 -0.9300  0.4567  0.2841
  417MOL0     C56182   8.444  11.956   3.159 -0.1978 -0.0310  0.5959
  417MOL0     C56183   8.478  12.073   3.070  0.3681  0.2035 -0.5675
  417MOL0     O56184   8.488  12.031   2.936 -0.2147  0.4208  0.2728
  417MOL0     C56185   8.556  12.113   2.847  0.3116 -0.4539  0.2586
  417MOL0     C56186   8.585  12.253   2.857 -0.4586 -0.4259  0.8430
  417MOL0     C56187   8.668  12.312   2.763 -0.3933  0.0753 -0.1953
  417MOL0     C56188   8.708  12.245   2.649  0.2030  0.4811 -0.7229
  417MOL0     C56189   8.775  12.308   2.544 -0.3890 -0.3989 -0.2637
  417MOL0     O56190   8.744  12.264   2.416 -0.1804  1.1285 -0.4309
  417MOL0     C56191   8.813  12.316   2.307  0.9035 -0.6209  0.1174
  417MOL0     C56192   8.733  12.383   2.210  0.0107 -0.6540  0.4042
  417MOL0     C56193   8.785  12.446   2.087  0.0989  1.3094 -0.6079
  417MOL0     C56194   8.917  12.413   2.048 -0.2438  0.1947  0.1262
  417MOL0     O56195   8.966  12.448   1.921  0.0212  0.8341  0.1827
  417MOL0     C56196   8.864  12.505   1.829  0.0295 -0.5790  0.6696
  417MOL0     C56197   8.914  12.505   1.684  0.3493 -0.6463  0.2537
  417MOL0     C56198   8.819  12.540   1.577 -0.8317 -0.1098  0.0082
  417MOL0     C56199   8.891  12.567   1.437 -0.1642  0.6702 -0.8024
  417MOL0     C56200   8.794  12.605   1.330 -0.0654 -0.1188  0.2784
  417MOL0     C56201   8.853  12.589   1.188  0.8148  0.3166  0.6430
  417MOL0     C56202   8.843  12.440   1.141 -0.3310  0.1012 -0.0112
  417MOL0     C56203   8.882  12.403   0.989  0.1317 -0.3555 -0.2001
  417MOL0    Cl56204   8.807  12.253   0.931  0.2319 -0.2185  0.5827
  417MOL0     C56205   8.993  12.343   2.141  0.4980 -0.7848  0.7380
  417MOL0     C56206   8.945  12.293   2.264  0.2649  0.4090  0.4510
  417MOL0     O56207   8.863  12.393   2.573  0.2731  0.5041  0.1646
  417MOL0     C56208   8.676  12.105   2.638  0.0374 -0.5501  0.2208
  417MOL0     C56209   8.609  12.043   2.739  0.0915  0.1290 -0.2262
  417MOL0     N56210   8.572  11.836   3.503  0.9142 -0.1703  0.1543
  417MOL0     N56211   8.517  11.807   3.613 -0.2206 -0.3458  0.1366
  417MOL0     C56212   7.997  10.694   3.568 -0.2581  0.6912  0.2366
  417MOL0     C56213   7.939  10.569   3.559  0.9199 -0.1196 -1.2012
  417MOL0     C56214   7.878  10.102   3.474 -0.1679  0.7418  0.6564
  417MOL0     C56215   7.762  10.117   3.550 -0.0570  0.0119  0.4166
  417MOL0     C56216   7.683   9.997   3.555  0.6045  0.1942 -0.5099
  417MOL0     C56217   7.699   9.881   3.483 -0.0470 -0.2154 -0.2095
  417MOL0     O56218   7.622   9.774   3.478 -0.4510 -0.9670 -0.1506
  417MOL0     C56219   7.493   9.761   3.545 -0.0985 -0.4868  1.2062
  417MOL0     C56220   7.370   9.826   3.460 -0.7249  0.4422 -0.8816
  417MOL0     C56221   7.239   9.793   3.531 -0.7192 -0.3893  0.5930
  417MOL0     C56222   7.118   9.882   3.483 -0.1174  0.4631  0.4364
  417MOL0     C56223   7.091   9.895   3.340 -0.0600 -1.2125  0.6899
  417MOL0     C56224   7.076   9.905   3.220 -0.0952  0.1251  0.0248
  417MOL0     C56225   7.820   9.867   3.414  0.6748 -0.4145  1.0613
  417MOL0     C56226   7.905   9.977   3.392 -0.3389  0.0987 -0.3736
  417MOL0     C56227   8.026   9.956   3.302 -0.0558 -0.5111  0.5044
  417MOL0     H56228   8.215  10.382   3.496  2.2546  1.8865  0.5699
  417MOL0     H56229   8.305  10.620   3.481 -0.9146  2.6912 -0.0446
  417MOL0     H56230   8.090  10.962   3.645 -0.5713 -1.6080  1.3518
  417MOL0     H56231   8.145  10.843   3.761  0.0990 -0.7818  0.8184
  417MOL0     H56232   8.320  11.019   3.562  0.5378  0.4803  0.4352
  417MOL0     H56233   8.396  10.925   3.690 -1.7035 -0.8599 -0.9429
  417MOL0     H56234   8.290  11.066   3.866  2.9214  0.6885  0.6354
  417MOL0     H56235   8.197  11.157   3.735 -0.2307  0.1468 -0.5769
  417MOL0     H56236   8.489  11.164   3.793  2.4727  0.3050 -4.6679
  417MOL0     H56237   8.403  11.260   3.668 -1.4678 -0.2578 -0.2920
  417MOL0     H56238   8.270  11.379   3.853 -0.3575  0.1766 -0.1918
  417MOL0     H56239   8.362  11.287   3.977 -2.4720 -0.2706 -0.3105
  417MOL0     H56240   8.445  11.493   3.975 -1.0462 -2.1040  1.2781
  417MOL0     H56241   8.565  11.393   3.903  1.0068 -0.2642 -3.9457
  417MOL0     H56242   8.536  11.458   3.681 -3.9251  2.1143 -3.8834
  417MOL0     H56243   8.576  11.587   3.793 -0.4146  0.0323 -0.1288
  417MOL0     H56244   8.293  11.570   3.687 -0.5950 -0.1357  2.5804
  417MOL0     H56245   8.354  11.693   3.793  0.2173  0.3120  0.8347
  417MOL0     H56246   8.396  11.566   3.421 -0.2742  1.1467 -1.1694
  417MOL0     H56247   8.650  11.688   3.264  0.3344  1.0621  0.6333
  417MOL0     H56248   8.488  11.668   3.212 -0.4375  3.4516 -2.1481
  417MOL0     H56249   8.632  11.943   3.268 -0.9560  0.8975 -0.1355
  417MOL0     H56250   8.630  11.862   3.115  0.5806  2.6493  0.8210
  417MOL0     H56251   8.380  11.985   3.243  2.3702 -0.7550  2.9779
  417MOL0     H56252   8.393  11.884   3.095 -0.5255 -0.2156  1.0551
  417MOL0     H56253   8.576  12.111   3.102  0.7893 -2.3842  1.6508
  417MOL0     H56254   8.400  12.149   3.074  0.2515  0.0397  0.9711
  417MOL0     H56255   8.541  12.315   2.934 -0.9337 -1.0560  1.0851
  417MOL0     H56256   8.695  12.417   2.762  0.7863 -0.2160 -1.4900
  417MOL0     H56257   8.631  12.416   2.225  1.1059  3.2198  0.5796
  417MOL0     H56258   8.715  12.495   2.020  2.6569  0.4786 -4.1863
  417MOL0     H56259   8.766  12.456   1.834 -0.4871 -0.1941 -3.0726
  417MOL0     H56260   8.854  12.611   1.853  0.7019 -0.2941 -0.2578
  417MOL0     H56261   8.997  12.577   1.690 -1.5939  1.7829 -0.2865
  417MOL0     H56262   8.943  12.403   1.659  1.9531 -0.0638 -0.3998
  417MOL0     H56263   8.749  12.457   1.562  0.3098 -0.9018 -1.1011
  417MOL0     H56264   8.763  12.627   1.614 -1.5369 -1.0782  1.3030
  417MOL0     H56265   8.950  12.479   1.412 -4.2269 -3.2727  1.9435
  417MOL0     H56266   8.962  12.649   1.452 -0.9084  1.4783 -1.5942
  417MOL0     H56267   8.773  12.712   1.339  1.6351  0.1088  2.4367
  417MOL0     H56268   8.706  12.543   1.347  0.8842 -1.1703  1.6511
  417MOL0     H56269   8.792  12.642   1.114 -0.9533 -0.4776  1.4767
  417MOL0     H56270   8.956  12.625   1.188  1.7525 -2.1791  1.6741
  417MOL0     H56271   8.746  12.393   1.157  0.0565 -1.3182 -1.5769
  417MOL0     H56272   8.919  12.391   1.202 -2.1446 -2.8277  0.0783
  417MOL0     H56273   8.846  12.482   0.923 -0.0133 -1.5608 -1.6179
  417MOL0     H56274   8.991  12.395   0.983  0.2311  0.8826 -0.4115
  417MOL0     H56275   9.089  12.303   2.109  0.9805  2.8367 -3.3193
  417MOL0     H56276   8.999  12.230   2.334 -0.0678  0.4384  0.7389
  417MOL0     H56277   8.707  12.041   2.556 -2.0518 -0.7851 -0.4333
  417MOL0     H56278   8.596  11.936   2.726  3.0130 -0.7432  2.7811
  417MOL0     H56279   7.928  10.778   3.579 -1.7522 -0.2899 -1.1743
  417MOL0     H56280   7.832  10.564   3.573  0.4781 -1.5747 -4.2101
  417MOL0     H56281   7.730  10.207   3.600  1.2796  0.3145  0.7438
  417MOL0     H56282   7.597  10.004   3.620  1.7347 -0.5073  1.1204
  417MOL0     H56283   7.509   9.802   3.645 -0.0604 -2.0021  1.8554
  417MOL0     H56284   7.464   9.657   3.566 -0.2649 -0.6139  0.4017
  417MOL0     H56285   7.359   9.778   3.363 -2.0349 -1.5362  0.1854
  417MOL0     H56286   7.379   9.935   3.449 -0.4859  0.7708  1.8056
  417MOL0     H56287   7.222   9.807   3.638  0.0252  2.7919  0.3983
  417MOL0     H56288   7.216   9.686   3.520  0.2800 -0.3946 -2.6762
  417MOL0     H56289   7.021   9.846   3.519 -0.8799  0.9225 -1.0987
  417MOL0     H56290   7.136   9.981   3.525 -1.2969  1.5320 -1.4763
  417MOL0     H56291   7.068   9.921   3.114  1.5439  1.9278  0.1017
  417MOL0     H56292   7.829   9.769   3.368  1.2280 -0.3918  1.1161
  417MOL0     H56293   8.005   9.870   3.238  0.7263 -0.5793  0.3380
  417MOL0     H56294   8.055  10.030   3.226 -1.2936 -1.8764 -1.3788
  417MOL0     H56295   8.116   9.939   3.361 -0.4706 -0.2664  1.2282
  418MOL0     O56296   4.117   4.300   8.832  0.3168  0.0695  0.4335
  418MOL0     C56297   4.128   4.297   8.708  0.0403  0.4364 -0.5926
  418MOL0     O56298   4.056   4.375   8.626 -0.2467 -0.1136 -0.7125
  418MOL0     C56299   3.932   4.431   8.667 -0.6410  0.8270  0.4168
  418MOL0     C56300   3.883   4.529   8.584 -0.2992  0.6305 -0.1982
  418MOL0     C56301   3.758   4.589   8.602  0.2383 -0.0323 -0.4366
  418MOL0     C56302   3.666   4.540   8.699 -0.1392 -0.9983 -0.3671
  418MOL0     O56303   3.544   4.600   8.701  0.2467  0.0257 -0.1929
  418MOL0     C56304   3.463   4.581   8.822 -0.8430  0.0637  0.7958
  418MOL0     C56305   3.327   4.621   8.799 -0.3076  0.3381 -0.0446
  418MOL0     C56306   3.241   4.606   8.926  0.2737 -0.1663  0.6436
  418MOL0     C56307   3.248   4.685   9.045  0.7944 -0.5052  0.4346
  418MOL0     C56308   3.123   4.686   9.131 -0.0682 -0.3217  0.8838
  418MOL0     C56309   3.110   4.553   9.207 -0.3667  1.0311 -0.2965
  418MOL0     C56310   3.179   4.558   9.349 -0.9478 -0.9621 -0.0324
  418MOL0     C56311   3.328   4.519   9.363  0.4215 -0.3406  0.5412
  418MOL0     N56312   3.366   4.403   9.289 -0.3864  0.0171  0.1933
  418MOL0     C56313   3.343   4.270   9.320 -0.2473 -1.0183  0.8132
  418MOL0     C56314   3.393   4.198   9.214 -0.3207 -0.1361  0.2702
  418MOL0     C56315   3.388   4.057   9.198 -0.2020 -0.1534  0.7080
  418MOL0     C56316   3.412   3.981   9.326 -0.5542  0.4997  0.6595
  418MOL0     C56317   3.565   3.954   9.363  0.4031  0.4775  0.0258
  418MOL0     C56318   3.611   4.076   9.437 -0.8493 -0.0030 -0.7777
  418MOL0     O56319   3.544   4.091   9.563  0.9264 -0.6786 -0.8726
  418MOL0     C56320   3.585   4.195   9.650  0.2401 -0.1607  0.0107
  418MOL0     C56321   3.705   4.201   9.721  0.5210 -0.2121  0.0094
  418MOL0     C56322   3.729   4.294   9.821 -0.1555 -0.6718 -0.3124
  418MOL0     C56323   3.634   4.403   9.829  0.1566 -0.0508 -0.2536
  418MOL0     C56324   3.664   4.510   9.921  0.1475 -0.2842 -0.5786
  418MOL0     O56325   3.581   4.612   9.926  0.0292 -0.1040 -0.2182
  418MOL0     C56326   3.616   4.719  10.014  0.1511 -0.2917  0.1241
  418MOL0     C56327   3.655   4.843   9.967  0.8215  0.1560 -0.5588
  418MOL0     C56328   3.694   4.951  10.045  0.5598 -0.4860 -0.1458
  418MOL0     C56329   3.691   4.936  10.185  0.4169  0.6270 -0.5167
  418MOL0     O56330   3.726   5.053  10.252  0.3098  0.5794  0.1938
  418MOL0     C56331   3.703   5.066  10.392 -0.0479  0.5513 -0.1371
  418MOL0     C56332   3.777   5.191  10.433 -0.3583  0.6104 -1.2161
  418MOL0     C56333   3.783   5.207  10.583  1.1071  0.3357 -0.6831
  418MOL0     C56334   3.861   5.323  10.643 -0.4694 -0.1358 -0.0623
  418MOL0     C56335   3.897   5.423  10.535 -0.0269 -0.5881 -0.0247
  418MOL0     C56336   3.996   5.524  10.591  0.0759  1.0498 -1.2700
  418MOL0     C56337   4.058   5.594  10.470  0.9949  0.1136 -0.1326
  418MOL0     C56338   4.134   5.719  10.500 -0.1846  0.0269 -0.1733
  418MOL0    Cl56339   4.300   5.685  10.566 -0.4569  0.1116  0.2185
  418MOL0     C56340   3.655   4.811  10.238 -0.0579  0.7487  0.6453
  418MOL0     C56341   3.612   4.711  10.153 -1.4956  0.4978 -0.3998
  418MOL0     O56342   3.767   4.495   9.992  0.3612 -0.2690  0.1111
  418MOL0     C56343   3.520   4.405   9.750  0.7237  0.1330 -1.0933
  418MOL0     C56344   3.490   4.308   9.658 -0.3726  0.0104  0.0901
  418MOL0     N56345   3.441   4.289   9.115  0.5359  0.3726 -0.2091
  418MOL0     N56346   3.435   4.403   9.165  0.2108  0.1226 -0.3187
  418MOL0     C56347   3.710   4.435   8.777  0.3910  0.5262 -0.1807
  418MOL0     C56348   3.844   4.386   8.772  0.2894  0.3825  0.3542
  418MOL0     C56349   4.221   4.195   8.640 -0.1925  1.0126 -0.3731
  418MOL0     C56350   4.225   4.195   8.497  0.8455  0.4585 -0.2715
  418MOL0     C56351   4.324   4.128   8.425  0.4133 -0.1512 -0.2641
  418MOL0     C56352   4.423   4.058   8.487  0.2084  0.1507  0.3417
  418MOL0     O56353   4.518   3.984   8.434  0.2346  0.0732  0.0297
  418MOL0     C56354   4.532   3.983   8.291 -0.4843 -0.1285  0.6202
  418MOL0     C56355   4.624   4.098   8.255  0.0875  0.0193 -0.6204
  418MOL0     C56356   4.673   4.098   8.111  0.0072  0.5951 -0.3640
  418MOL0     C56357   4.828   4.074   8.101  0.4853  0.7672 -0.3641
  418MOL0     C56358   4.854   3.948   8.165  0.4951 -0.3569  0.2747
  418MOL0     C56359   4.889   3.856   8.230 -0.1892 -0.1581 -0.1128
  418MOL0     C56360   4.420   4.062   8.623  0.0414  0.5283 -0.1575
  418MOL0     C56361   4.317   4.112   8.706  0.1962  0.4052 -0.7510
  418MOL0     C56362   4.330   4.089   8.855 -0.2581 -0.0776 -0.6556
  418MOL0     H56363   3.937   4.555   8.493 -1.6490 -0.8028 -1.4906
  418MOL0     H56364   3.729   4.676   8.543 -4.0308  1.0817  2.7505
  418MOL0     H56365   3.454   4.475   8.849 -0.6231  0.4191  2.3471
  418MOL0     H56366   3.510   4.636   8.903  2.0874  0.2934 -0.9112
  418MOL0     H56367   3.294   4.564   8.712 -0.7167  1.5443 -0.7030
  418MOL0     H56368   3.323   4.727   8.771 -0.7472  0.0113 -1.3067
  418MOL0     H56369   3.246   4.500   8.954  2.3315 -0.3875 -0.3957
  418MOL0     H56370   3.136   4.615   8.896 -0.2308 -1.2862  1.9318
  418MOL0     H56371   3.334   4.648   9.101  1.9129  1.1701 -0.1160
  418MOL0     H56372   3.278   4.786   9.017  1.5819 -0.5195  1.2059
  418MOL0     H56373   3.129   4.775   9.195  1.7073  0.1790  0.0761
  418MOL0     H56374   3.037   4.702   9.067  0.0383  0.8580  1.0242
  418MOL0     H56375   3.008   4.534   9.242  0.7703 -1.5636  1.9975
  418MOL0     H56376   3.148   4.467   9.152 -1.4485 -0.1095  0.6792
  418MOL0     H56377   3.124   4.488   9.412 -0.6200 -2.1742 -1.0443
  418MOL0     H56378   3.169   4.654   9.400 -4.2614 -0.2531 -1.7051
  418MOL0     H56379   3.385   4.598   9.314 -1.2426 -0.4133 -1.6546
  418MOL0     H56380   3.352   4.505   9.469 -1.4646  2.0934  1.3882
  418MOL0     H56381   3.302   4.223   9.408 -1.0326 -3.5615 -0.8098
  418MOL0     H56382   3.295   4.021   9.153  1.3004  0.5919 -3.3729
  418MOL0     H56383   3.466   4.042   9.123 -1.7678  2.7909 -1.7201
  418MOL0     H56384   3.364   4.027   9.413  2.4319  2.2920  1.4948
  418MOL0     H56385   3.366   3.882   9.312  0.2940  0.3137 -1.0693
  418MOL0     H56386   3.627   3.913   9.283  0.3125 -2.0923  1.1680
  418MOL0     H56387   3.566   3.872   9.435  1.3392  2.3180  2.2552
  418MOL0     H56388   3.612   4.171   9.384  4.0905  1.1382  0.8621
  418MOL0     H56389   3.715   4.048   9.454 -0.9502 -0.0363 -0.1654
  418MOL0     H56390   3.784   4.131   9.696  0.0419 -0.3086 -1.2729
  418MOL0     H56391   3.825   4.303   9.871 -0.4936  2.4841 -0.0662
  418MOL0     H56392   3.662   4.858   9.859  1.6937  0.8831 -0.4193
  418MOL0     H56393   3.725   5.049  10.012  1.3118  0.4330  2.8981
  418MOL0     H56394   3.596   5.076  10.413  0.5460  1.0083  3.3627
  418MOL0     H56395   3.747   4.977  10.440 -0.3056  0.3162 -0.3361
  418MOL0     H56396   3.879   5.175  10.397  0.3900  1.5904  0.3497
  418MOL0     H56397   3.724   5.277  10.391 -0.2956  0.0813 -2.4202
  418MOL0     H56398   3.681   5.227  10.616  1.9663  0.8614  1.8804
  418MOL0     H56399   3.805   5.112  10.633  1.2032 -0.5098 -2.2692
  418MOL0     H56400   3.949   5.281  10.693 -1.3301 -0.0917  1.5325
  418MOL0     H56401   3.808   5.379  10.720  1.1946  1.0695  0.2657
  418MOL0     H56402   3.808   5.482  10.509  0.0716  0.0057  0.9360
  418MOL0     H56403   3.941   5.376  10.446  0.4493  0.8880 -0.6068
  418MOL0     H56404   3.950   5.599  10.658  0.9052  2.9294 -2.7120
  418MOL0     H56405   4.073   5.468  10.644  0.2904  1.4992 -1.1041
  418MOL0     H56406   3.973   5.622  10.408  0.4871  3.3037  1.7918
  418MOL0     H56407   4.111   5.520  10.409 -3.8757 -1.3376 -3.1210
  418MOL0     H56408   4.145   5.780  10.410 -0.7402  0.9620  0.3638
  418MOL0     H56409   4.069   5.781  10.562 -2.2712  0.0836 -2.2934
  418MOL0     H56410   3.660   4.794  10.344 -0.8575  2.4143  0.9908
  418MOL0     H56411   3.576   4.617  10.192  1.9336 -1.5745 -1.7323
  418MOL0     H56412   3.457   4.492   9.769  0.1099 -0.6411  0.5945
  418MOL0     H56413   3.402   4.307   9.595  0.5246  0.3237 -1.2295
  418MOL0     H56414   3.655   4.403   8.865 -1.4337 -2.1717 -2.1282
  418MOL0     H56415   3.883   4.307   8.835  1.4007  0.7769  0.1757
  418MOL0     H56416   4.153   4.264   8.455 -1.2120  0.5306  2.9997
  418MOL0     H56417   4.313   4.141   8.318 -2.9211  1.0406  0.1140
  418MOL0     H56418   4.434   3.991   8.243  0.6971 -2.2374 -2.5103
  418MOL0     H56419   4.585   3.889   8.273 -1.3634 -0.7088  1.0060
  418MOL0     H56420   4.702   4.111   8.330 -0.1272  2.0151 -0.6795
  418MOL0     H56421   4.567   4.192   8.261  1.2657  0.7453 -0.4343
  418MOL0     H56422   4.647   4.193   8.063 -2.4751 -0.1907 -0.7092
  418MOL0     H56423   4.618   4.021   8.057 -2.8374  1.1884  1.5176
  418MOL0     H56424   4.885   4.075   8.008  1.8218 -0.9673  0.3678
  418MOL0     H56425   4.877   4.139   8.175  0.6790 -1.1090  1.2334
  418MOL0     H56426   4.933   3.768   8.274  1.4700 -0.8384 -2.8674
  418MOL0     H56427   4.496   4.009   8.678  1.4202 -0.0429 -2.4917
  418MOL0     H56428   4.394   4.004   8.877  0.1306  0.2645 -0.4385
  418MOL0     H56429   4.396   4.170   8.889  1.9952 -2.7888  1.9216
  418MOL0     H56430   4.229   4.083   8.897  0.3399  2.0266  1.2827
  419MOL0     O56431  11.337   5.040   1.143 -0.1608 -0.0392  1.1780
  419MOL0     C56432  11.291   4.974   1.230  0.3777  0.0041 -0.9454
  419MOL0     O56433  11.169   4.929   1.248  0.6526  0.4418  0.2525
  419MOL0     C56434  11.076   4.960   1.153 -0.9923  0.0719  0.1698
  419MOL0     C56435  11.064   5.076   1.085 -0.2943  0.0791  0.3993
  419MOL0     C56436  10.955   5.103   0.998  0.1269 -0.4566 -0.4048
  419MOL0     C56437  10.839   5.021   0.989  0.0498  0.0769 -0.2360
  419MOL0     O56438  10.728   5.049   0.921  0.1850  0.3001  0.2311
  419MOL0     C56439  10.728   5.159   0.835  0.1274  0.3093 -0.1728
  419MOL0     C56440  10.598   5.198   0.777 -0.0421  0.1655  0.3400
  419MOL0     C56441  10.537   5.078   0.696  0.6385  0.2979  1.1003
  419MOL0     C56442  10.415   5.135   0.614  0.1222  0.3038 -0.4911
  419MOL0     C56443  10.360   5.029   0.521  0.4490 -0.1011  0.5737
  419MOL0     C56444  10.255   5.086   0.426  0.3390  0.2570  0.1712
  419MOL0     C56445  10.133   5.146   0.494 -0.7648  0.2063  0.8060
  419MOL0     C56446  10.060   5.039   0.579 -0.6119 -0.5474  0.3025
  419MOL0     N56447   9.950   5.103   0.655  0.0748  0.1311 -0.1832
  419MOL0     C56448   9.956   5.192   0.766  0.1505 -1.0580  0.1739
  419MOL0     C56449   9.823   5.223   0.796  0.4599  0.5690  0.2728
  419MOL0     C56450   9.786   5.319   0.920  0.0304  0.3877 -0.3541
  419MOL0     C56451   9.726   5.260   1.038 -0.1209  0.6273  0.2958
  419MOL0     C56452   9.606   5.161   1.022  0.0843 -0.1212 -0.0184
  419MOL0     C56453   9.491   5.203   0.923 -0.6205 -0.2718  0.6473
  419MOL0     O56454   9.421   5.322   0.958  0.8955  0.4393  0.4366
  419MOL0     C56455   9.325   5.323   1.054  0.0243 -1.0142  0.7988
  419MOL0     C56456   9.267   5.207   1.116 -0.0323 -0.0543 -0.6563
  419MOL0     C56457   9.157   5.218   1.203  0.4181 -0.5380  0.4373
  419MOL0     C56458   9.111   5.346   1.253  0.0266  0.0776  0.8674
  419MOL0     C56459   9.000   5.352   1.346  0.5637 -0.5490 -0.2532
  419MOL0     O56460   8.926   5.236   1.374  0.7781 -0.5296  0.5776
  419MOL0     C56461   8.838   5.262   1.471  1.2716 -0.2528  1.5635
  419MOL0     C56462   8.881   5.255   1.599 -0.0734 -0.9528  0.3357
  419MOL0     C56463   8.801   5.284   1.708  0.5992  0.3012 -0.4333
  419MOL0     C56464   8.660   5.281   1.698  0.0428 -0.1635  0.3431
  419MOL0     O56465   8.576   5.279   1.812 -0.9440 -0.0520 -0.0753
  419MOL0     C56466   8.443   5.319   1.798  0.4942 -0.0452 -0.2034
  419MOL0     C56467   8.400   5.330   1.946  0.4692 -0.8509  0.5618
  419MOL0     C56468   8.406   5.210   2.035  0.8514 -0.4660  0.5236
  419MOL0     C56469   8.355   5.073   1.973 -0.5695  0.1774  0.4708
  419MOL0     C56470   8.370   4.958   2.069 -0.3024  0.4920  0.0356
  419MOL0     C56471   8.322   4.824   2.024  0.8813 -0.0909 -0.9899
  419MOL0     C56472   8.297   4.732   2.150  1.5921  0.1140  0.4250
  419MOL0     C56473   8.255   4.599   2.092 -0.1420  0.6629 -0.3302
  419MOL0    Cl56474   8.222   4.502   2.252 -0.5167  0.2101 -0.1716
  419MOL0     C56475   8.610   5.283   1.566 -0.5916 -0.9196 -0.5728
  419MOL0     C56476   8.696   5.273   1.455  0.3057  0.4369  0.1054
  419MOL0     O56477   8.969   5.464   1.380 -0.5830  0.4465  0.2511
  419MOL0     C56478   9.178   5.455   1.208 -0.3205  0.7628  0.0939
  419MOL0     C56479   9.282   5.445   1.099  0.2521  0.1402 -0.8596
  419MOL0     N56480   9.746   5.159   0.695  0.9253 -0.2411 -0.3123
  419MOL0     N56481   9.818   5.081   0.624  0.6039  0.1160 -0.1504
  419MOL0     C56482  10.848   4.899   1.056  0.7966 -0.8860  0.5721
  419MOL0     C56483  10.970   4.868   1.127 -0.7138 -0.1381  0.7244
  419MOL0     C56484  11.385   4.919   1.335 -0.6484  0.7939  0.9541
  419MOL0     C56485  11.371   4.779   1.381 -0.2834 -0.3361  0.0653
  419MOL0     C56486  11.463   4.723   1.469 -1.4178 -0.2007  0.6617
  419MOL0     C56487  11.571   4.806   1.521 -0.3819 -0.0412 -0.7735
  419MOL0     O56488  11.661   4.752   1.614  1.5038  0.4044  0.3741
  419MOL0     C56489  11.777   4.689   1.561 -0.4399  0.7009 -0.0046
  419MOL0     C56490  11.771   4.541   1.591 -0.4285  0.0272  0.1789
  419MOL0     C56491  11.796   4.502   1.738 -0.4967  0.3400  0.3116
  419MOL0     C56492  11.933   4.531   1.812  0.0255  0.0936  0.0201
  419MOL0     C56493  12.035   4.444   1.752  0.0686  1.0564 -0.1372
  419MOL0     C56494  12.140   4.387   1.722  0.5409  0.4007 -0.3515
  419MOL0     C56495  11.585   4.931   1.483  0.4980 -0.5442  0.6441
  419MOL0     C56496  11.490   4.994   1.387 -0.3373 -0.3752 -0.0515
  419MOL0     C56497  11.513   5.143   1.362 -0.3776 -0.6542 -0.0456
  419MOL0     H56498  11.135   5.156   1.102  1.2294 -1.5485  2.1652
  419MOL0     H56499  10.966   5.193   0.938 -0.9819 -0.2131 -0.2566
  419MOL0     H56500  10.750   5.246   0.898 -0.8174 -0.2415  0.9383
  419MOL0     H56501  10.807   5.145   0.760 -1.4993  0.0228 -1.9183
  419MOL0     H56502  10.608   5.289   0.718 -0.3138 -0.6093 -0.9549
  419MOL0     H56503  10.533   5.214   0.864 -1.5161  1.4584 -0.9415
  419MOL0     H56504  10.500   4.993   0.754 -1.2910  0.2676 -0.0701
  419MOL0     H56505  10.619   5.038   0.636 -1.1356 -0.6969 -0.7898
  419MOL0     H56506  10.329   5.148   0.680 -0.1603 -0.0152 -0.7892
  419MOL0     H56507  10.432   5.224   0.554 -1.8743 -1.6602 -4.3523
  419MOL0     H56508  10.445   4.994   0.462 -1.1518 -1.0915 -1.2819
  419MOL0     H56509  10.325   4.935   0.564 -3.1870  0.6700 -0.3448
  419MOL0     H56510  10.296   5.167   0.366 -2.3089  1.1545 -0.6063
  419MOL0     H56511  10.221   4.997   0.371 -0.7912  1.8525 -1.8539
  419MOL0     H56512  10.071   5.168   0.407  0.3608  0.4705  0.0558
  419MOL0     H56513  10.175   5.235   0.542  3.3507  1.0156 -3.5993
  419MOL0     H56514  10.020   4.982   0.495  2.5032  1.0573 -2.5150
  419MOL0     H56515  10.123   4.981   0.647  0.0901  0.0218  0.1451
  419MOL0     H56516  10.050   5.226   0.807 -0.2300  1.0625 -0.5807
  419MOL0     H56517   9.878   5.371   0.947  2.0685 -3.4410  0.7489
  419MOL0     H56518   9.711   5.391   0.885  0.4410  0.8590 -0.2799
  419MOL0     H56519   9.808   5.206   1.087 -0.1795 -0.9681 -1.2429
  419MOL0     H56520   9.698   5.343   1.104 -1.4872  1.1178 -0.8713
  419MOL0     H56521   9.571   5.132   1.122 -0.2103  1.5922  0.4095
  419MOL0     H56522   9.639   5.062   0.990  1.2682 -0.2572  1.4859
  419MOL0     H56523   9.418   5.121   0.919 -0.4248 -0.3975 -1.6654
  419MOL0     H56524   9.526   5.220   0.821 -1.7035  0.7356  0.4307
  419MOL0     H56525   9.299   5.104   1.107  0.9579  0.2147 -0.2967
  419MOL0     H56526   9.113   5.123   1.231 -1.7505 -0.2831 -1.8107
  419MOL0     H56527   8.987   5.231   1.606  1.4067  2.8300 -4.0526
  419MOL0     H56528   8.842   5.284   1.808  2.8772 -1.8953 -1.2462
  419MOL0     H56529   8.437   5.414   1.745 -1.2813  0.2346  0.4426
  419MOL0     H56530   8.373   5.247   1.754 -0.4651  1.7016 -1.6271
  419MOL0     H56531   8.442   5.413   2.004 -1.6028  1.7574 -1.4190
  419MOL0     H56532   8.294   5.357   1.942  0.5634 -0.1687  1.9101
  419MOL0     H56533   8.511   5.197   2.065  0.8426 -0.3015  0.6226
  419MOL0     H56534   8.348   5.232   2.125  0.4842  0.5067  0.0564
  419MOL0     H56535   8.414   5.047   1.885  2.7179  0.4778  2.4464
  419MOL0     H56536   8.251   5.082   1.939  0.2769 -0.0287 -2.3914
  419MOL0     H56537   8.321   4.995   2.159  0.9132 -1.9010  1.7749
  419MOL0     H56538   8.474   4.949   2.099 -0.1731  0.8781 -0.2777
  419MOL0     H56539   8.228   4.830   1.968 -1.3805 -0.4176  2.4697
  419MOL0     H56540   8.402   4.782   1.963  1.8241 -1.2877  0.9694
  419MOL0     H56541   8.219   4.780   2.210  1.4661 -1.6261  1.7244
  419MOL0     H56542   8.391   4.715   2.203  1.4531 -1.6981  0.1345
  419MOL0     H56543   8.170   4.598   2.023 -2.9205  0.3267  2.8284
  419MOL0     H56544   8.339   4.555   2.038 -1.1126  0.9196 -2.1222
  419MOL0     H56545   8.504   5.286   1.544 -0.5191  1.4657 -0.7686
  419MOL0     H56546   8.660   5.286   1.354  0.0441  0.6339  0.2201
  419MOL0     H56547   9.148   5.558   1.224  0.6673  1.4799 -2.2551
  419MOL0     H56548   9.340   5.531   1.066  1.8530 -0.9004 -0.8703
  419MOL0     H56549  10.760   4.836   1.057  1.3814 -1.8128 -1.6252
  419MOL0     H56550  10.983   4.769   1.169 -0.9696 -0.3938  0.2144
  419MOL0     H56551  11.303   4.705   1.340  0.1867 -1.2085  0.8264
  419MOL0     H56552  11.444   4.620   1.496  1.1079 -0.7983  0.4310
  419MOL0     H56553  11.854   4.739   1.621  1.2029 -2.5529  0.8604
  419MOL0     H56554  11.794   4.698   1.454 -0.3016 -4.5143 -0.6656
  419MOL0     H56555  11.843   4.485   1.531 -2.8433 -3.4636  0.2575
  419MOL0     H56556  11.675   4.503   1.554 -0.7123 -0.7444  1.6293
  419MOL0     H56557  11.781   4.393   1.746  1.4717 -0.0909 -1.2288
  419MOL0     H56558  11.717   4.552   1.794 -1.2963  0.1148 -0.5854
  419MOL0     H56559  11.950   4.638   1.794 -0.8906 -0.1192 -2.6117
  419MOL0     H56560  11.924   4.514   1.920 -1.8989  2.4005  0.3182
  419MOL0     H56561  12.229   4.327   1.711 -0.1423 -0.6488 -0.2460
  419MOL0     H56562  11.669   4.978   1.532 -0.5365 -0.6216  2.5798
  419MOL0     H56563  11.579   5.182   1.441  0.1730 -0.3753 -0.6321
  419MOL0     H56564  11.554   5.159   1.262 -2.1828  2.2572 -0.4275
  419MOL0     H56565  11.420   5.199   1.373 -0.1506 -0.5347  1.4578
  420MOL0     O56566   1.659   6.727   5.928  0.2684  0.1790  0.1186
  420MOL0     C56567   1.640   6.615   5.883  0.1564  0.1384 -0.4446
  420MOL0     O56568   1.517   6.560   5.834 -0.0984  0.2437  0.3101
  420MOL0     C56569   1.394   6.619   5.851 -0.0944  0.1977 -0.5945
  420MOL0     C56570   1.340   6.696   5.754 -0.4440 -0.1514  0.0736
  420MOL0     C56571   1.215   6.751   5.776 -0.1540 -0.5208  0.0151
  420MOL0     C56572   1.143   6.741   5.892 -0.6218 -0.5658  0.1728
  420MOL0     O56573   1.026   6.822   5.904 -1.0554  0.0947  0.7755
  420MOL0     C56574   0.973   6.831   6.042  0.0478 -0.6661 -0.6356
  420MOL0     C56575   1.019   6.964   6.111  0.2508  0.3814 -0.4240
  420MOL0     C56576   1.010   7.090   6.027  0.8574 -0.1332 -0.1207
  420MOL0     C56577   0.862   7.121   5.986 -0.3040 -0.6219  0.6486
  420MOL0     C56578   0.849   7.255   5.916  0.5432 -0.3687  0.1318
  420MOL0     C56579   0.697   7.280   5.893 -0.4166  0.4065 -0.8254
  420MOL0     C56580   0.615   7.174   5.810  0.2077  0.3180 -0.1337
  420MOL0     C56581   0.673   7.127   5.674 -0.0197 -0.4105 -0.4682
  420MOL0     N56582   0.608   7.000   5.637  0.5539 -0.3020  0.1461
  420MOL0     C56583   0.584   6.879   5.709 -0.5774  1.1727 -0.4579
  420MOL0     C56584   0.551   6.788   5.605 -1.1756  0.4132  0.4529
  420MOL0     C56585   0.544   6.640   5.622 -0.0047  0.0915 -1.0253
  420MOL0     C56586   0.692   6.588   5.600 -0.0609  0.5215 -0.1427
  420MOL0     C56587   0.733   6.615   5.450  0.1423 -0.5486  0.1926
  420MOL0     C56588   0.860   6.532   5.406  0.5604  0.5209 -0.7172
  420MOL0     O56589   0.979   6.545   5.487  0.1459  0.0549 -0.0130
  420MOL0     C56590   1.027   6.454   5.579  0.2660  0.3946  0.2081
  420MOL0     C56591   1.164   6.463   5.601  0.0825 -0.0833 -0.3251
  420MOL0     C56592   1.229   6.377   5.688  1.0464 -0.0370 -0.5062
  420MOL0     C56593   1.154   6.275   5.756 -0.5220 -0.6987  0.6800
  420MOL0     C56594   1.228   6.188   5.848  0.0016  0.0853  0.1306
  420MOL0     O56595   1.220   6.056   5.828  0.0875  0.2293 -0.2798
  420MOL0     C56596   1.296   5.965   5.903  1.0965 -0.0562 -0.0480
  420MOL0     C56597   1.233   5.873   5.987 -0.6909 -0.2548 -0.1716
  420MOL0     C56598   1.305   5.781   6.058 -0.6857 -0.2669  0.0920
  420MOL0     C56599   1.448   5.784   6.060 -0.0375  0.6940 -0.3258
  420MOL0     O56600   1.528   5.703   6.134 -0.2359 -0.3060 -0.5249
  420MOL0     C56601   1.472   5.572   6.130  0.1332  0.4136 -0.3102
  420MOL0     C56602   1.578   5.468   6.154 -0.6081  0.4161 -0.1482
  420MOL0     C56603   1.541   5.316   6.149 -0.1034  0.7135  0.8050
  420MOL0     C56604   1.490   5.263   6.015 -0.0105  0.0216 -0.3710
  420MOL0     C56605   1.335   5.268   6.014 -0.8007 -0.7075 -0.6249
  420MOL0     C56606   1.287   5.216   5.878 -1.2143 -0.2156  0.0472
  420MOL0     C56607   1.133   5.226   5.883  0.5189 -0.1072 -0.6453
  420MOL0     C56608   1.066   5.165   5.761  0.6731  0.6806  0.1166
  420MOL0    Cl56609   1.109   5.263   5.615 -0.4607  0.2219  0.1693
  420MOL0     C56610   1.518   5.883   5.987  0.9341  0.3360  0.7111
  420MOL0     C56611   1.439   5.974   5.908  1.0502 -0.2202  0.4497
  420MOL0     O56612   1.308   6.246   5.930  0.6992  0.3504 -0.7909
  420MOL0     C56613   1.018   6.268   5.731 -0.0824  0.5103 -0.9608
  420MOL0     C56614   0.953   6.356   5.641  0.0354  0.5987  0.5780
  420MOL0     N56615   0.540   6.859   5.486  0.0011  0.6170 -0.6421
  420MOL0     N56616   0.582   6.979   5.509 -0.2296 -0.3979 -0.3782
  420MOL0     C56617   1.200   6.659   5.993  0.2380 -0.1545 -0.9647
  420MOL0     C56618   1.325   6.597   5.972  0.0101  0.4554  0.0271
  420MOL0     C56619   1.758   6.523   5.901 -0.5553  0.3382 -0.5695
  420MOL0     C56620   1.746   6.376   5.880  0.5802  0.1063  0.7821
  420MOL0     C56621   1.859   6.298   5.884 -0.8230  0.0717 -0.3477
  420MOL0     C56622   1.983   6.342   5.920 -0.1337  0.2914  0.1380
  420MOL0     O56623   2.079   6.250   5.956  0.4588 -0.0436 -0.3449
  420MOL0     C56624   2.162   6.277   6.074  0.0148  0.2242 -0.0744
  420MOL0     C56625   2.205   6.142   6.137 -0.0858 -1.1507 -0.2130
  420MOL0     C56626   2.277   6.178   6.259 -0.3101  0.9166 -0.6686
  420MOL0     C56627   2.399   6.096   6.285 -0.6496  0.2700 -0.0167
  420MOL0     C56628   2.413   6.078   6.429 -0.5635 -0.4984  0.5852
  420MOL0     C56629   2.413   6.073   6.552 -0.1184  0.1615  0.2332
  420MOL0     C56630   2.004   6.479   5.937  1.1378 -0.4825 -0.7012
  420MOL0     C56631   1.893   6.569   5.915 -0.1859  0.0071 -0.6552
  420MOL0     C56632   1.938   6.716   5.926 -0.7776  0.8154 -0.3218
  420MOL0     H56633   1.400   6.728   5.670 -0.1668  1.1843  0.7659
  420MOL0     H56634   1.173   6.815   5.700 -2.2963 -0.4186  1.2001
  420MOL0     H56635   0.865   6.850   6.047  0.1992 -0.0421  0.8935
  420MOL0     H56636   0.997   6.744   6.104  5.0366  0.4877 -0.5933
  420MOL0     H56637   1.121   6.962   6.149 -0.4992  1.9201  1.9754
  420MOL0     H56638   0.954   6.972   6.199 -3.8495 -1.1130 -3.0133
  420MOL0     H56639   1.068   7.070   5.936  0.8795 -1.1138  0.1040
  420MOL0     H56640   1.047   7.174   6.087  0.0193 -0.0167  0.2493
  420MOL0     H56641   0.823   7.052   5.910  0.2019  0.1663 -0.3476
  420MOL0     H56642   0.800   7.114   6.076 -2.7847  0.4681 -0.8719
  420MOL0     H56643   0.891   7.336   5.976  0.0939 -0.4175  0.5160
  420MOL0     H56644   0.907   7.272   5.825 -2.7313  1.2813 -1.8340
  420MOL0     H56645   0.642   7.292   5.987 -1.3935  0.4562 -1.3941
  420MOL0     H56646   0.695   7.375   5.839  0.1561  2.4149  2.4088
  420MOL0     H56647   0.517   7.217   5.788 -0.0706  1.0470  2.2233
  420MOL0     H56648   0.607   7.095   5.885  3.9382  0.7545  0.9347
  420MOL0     H56649   0.648   7.202   5.599  2.0653  1.5022  0.6294
  420MOL0     H56650   0.782   7.119   5.685  0.1430  2.2631  0.4711
  420MOL0     H56651   0.595   6.864   5.816 -3.4644  0.0053 -0.2398
  420MOL0     H56652   0.500   6.616   5.719 -0.0120  1.6004 -0.6164
  420MOL0     H56653   0.492   6.581   5.546  1.2756 -0.6317 -1.3637
  420MOL0     H56654   0.758   6.642   5.668  0.7192 -1.7333  0.9905
  420MOL0     H56655   0.691   6.480   5.616 -0.8421  0.5575  0.0959
  420MOL0     H56656   0.765   6.719   5.446  2.9406 -1.3050  0.7735
  420MOL0     H56657   0.644   6.597   5.389  0.0202  2.0646 -0.5009
  420MOL0     H56658   0.880   6.567   5.304  2.8227 -1.0804 -0.9023
  420MOL0     H56659   0.833   6.427   5.394  2.7564  0.0184 -1.8466
  420MOL0     H56660   1.225   6.541   5.557 -0.3262 -1.2926 -3.2617
  420MOL0     H56661   1.336   6.392   5.696  0.9354  0.3747  0.2165
  420MOL0     H56662   1.127   5.855   6.001 -1.1404  0.6557 -2.1048
  420MOL0     H56663   1.255   5.713   6.126 -3.5776 -0.2467 -1.8698
  420MOL0     H56664   1.391   5.557   6.202 -0.3802  0.3441 -0.8852
  420MOL0     H56665   1.435   5.541   6.031  3.4678 -1.9469 -0.9838
  420MOL0     H56666   1.660   5.503   6.091 -2.1314  5.2254  0.1966
  420MOL0     H56667   1.612   5.483   6.257 -0.1434 -3.7559  0.4819
  420MOL0     H56668   1.628   5.253   6.170 -1.2182 -1.9697 -1.8053
  420MOL0     H56669   1.460   5.290   6.219 -0.3377 -0.0538  0.2684
  420MOL0     H56670   1.525   5.163   5.992 -1.1218 -0.0639 -1.8333
  420MOL0     H56671   1.527   5.325   5.932 -0.3945  1.0393  0.1950
  420MOL0     H56672   1.293   5.364   6.044  0.9818  0.8201 -2.6725
  420MOL0     H56673   1.304   5.187   6.080  1.2661  0.2834  1.7135
  420MOL0     H56674   1.339   5.283   5.809  1.9765 -1.5183  0.9944
  420MOL0     H56675   1.318   5.114   5.852  0.5514  0.8578 -2.4640
  420MOL0     H56676   1.095   5.328   5.887  1.8904  0.3941  1.1801
  420MOL0     H56677   1.099   5.173   5.973  0.0187  1.1622 -0.0654
  420MOL0     H56678   1.093   5.060   5.746  0.0860  0.7836 -1.8864
  420MOL0     H56679   0.958   5.171   5.771  0.0276  1.3645 -5.0064
  420MOL0     H56680   1.627   5.888   5.986  1.0815 -0.8546 -2.7224
  420MOL0     H56681   1.501   6.043   5.852 -0.5346  0.0467 -1.0637
  420MOL0     H56682   0.967   6.202   5.799  0.9576  0.7537  0.0838
  420MOL0     H56683   0.852   6.327   5.614  0.4327  0.1450 -0.4975
  420MOL0     H56684   1.173   6.650   6.098  3.7028 -1.6289 -0.0334
  420MOL0     H56685   1.378   6.543   6.050 -0.5420 -1.2058 -0.6975
  420MOL0     H56686   1.652   6.332   5.849 -0.3582  1.9621  0.8797
  420MOL0     H56687   1.838   6.195   5.854  1.0260 -0.7414  0.9082
  420MOL0     H56688   2.120   6.341   6.152  1.5879  1.8698 -0.5116
  420MOL0     H56689   2.250   6.331   6.038  2.2794 -2.8899  0.3623
  420MOL0     H56690   2.265   6.082   6.068  1.2269 -2.8246  2.2407
  420MOL0     H56691   2.122   6.079   6.169 -0.3492 -0.6560  0.0950
  420MOL0     H56692   2.209   6.164   6.344  1.0418 -1.8113  0.0716
  420MOL0     H56693   2.306   6.283   6.248 -3.3089  1.7633 -1.4609
  420MOL0     H56694   2.393   5.991   6.255  0.7581 -0.1478  1.0190
  420MOL0     H56695   2.490   6.137   6.240  0.1373 -0.7072  0.6319
  420MOL0     H56696   2.408   6.072   6.659 -1.2055  0.1964  0.2007
  420MOL0     H56697   2.107   6.511   5.946  1.5829 -1.8029 -0.8699
  420MOL0     H56698   1.893   6.776   5.846 -3.5493 -1.2905 -0.4494
  420MOL0     H56699   1.913   6.745   6.028 -1.4288 -2.6266  0.6058
  420MOL0     H56700   2.047   6.722   5.911 -0.6095  1.2332  0.9202
  421MOL0     O56701   6.456   2.699   5.965  0.1045 -0.0114 -1.0807
  421MOL0     C56702   6.450   2.580   5.923 -1.0269  0.3931  0.5890
  421MOL0     O56703   6.331   2.516   5.890  0.4196 -0.3690 -0.3442
  421MOL0     C56704   6.213   2.578   5.874  0.9277 -0.7914 -0.2451
  421MOL0     C56705   6.184   2.717   5.865  0.3543  1.1125  0.9626
  421MOL0     C56706   6.047   2.756   5.847 -0.4916  0.6434 -0.1109
  421MOL0     C56707   5.939   2.667   5.861  0.3342 -0.2735 -0.4506
  421MOL0     O56708   5.813   2.725   5.851  0.9244  0.0059 -0.2928
  421MOL0     C56709   5.704   2.642   5.899  0.3509 -0.5157  0.4791
  421MOL0     C56710   5.577   2.722   5.928  0.6467  0.3043  0.7071
  421MOL0     C56711   5.502   2.732   5.804 -0.0820 -0.4823  0.5378
  421MOL0     C56712   5.368   2.788   5.836 -0.1696  0.3230 -0.2955
  421MOL0     C56713   5.265   2.753   5.721 -1.3157  0.5362 -0.0901
  421MOL0     C56714   5.257   2.857   5.612 -0.2610  0.3231  0.1237
  421MOL0     C56715   5.138   2.835   5.517 -0.1528 -0.4514 -0.0958
  421MOL0     C56716   5.133   2.695   5.450 -0.1018  0.1551 -0.2871
  421MOL0     N56717   5.259   2.668   5.367 -0.1975 -0.5958  0.4669
  421MOL0     C56718   5.264   2.647   5.235 -0.2018 -0.7656  0.0786
  421MOL0     C56719   5.395   2.634   5.209  0.0556 -0.7593 -0.0483
  421MOL0     C56720   5.462   2.632   5.072 -0.3719 -0.3951 -0.1246
  421MOL0     C56721   5.409   2.744   4.986  0.2987 -0.3180 -0.1088
  421MOL0     C56722   5.487   2.763   4.859  1.4130 -0.2478 -0.0674
  421MOL0     C56723   5.607   2.854   4.893  0.2999  0.5164  0.1463
  421MOL0     O56724   5.563   2.989   4.907  0.7366 -0.2025 -0.8205
  421MOL0     C56725   5.627   3.100   4.872  1.1911  1.0402  0.2250
  421MOL0     C56726   5.559   3.216   4.912 -0.0528 -0.5176  0.3166
  421MOL0     C56727   5.612   3.339   4.883 -0.6489 -0.5802 -0.3281
  421MOL0     C56728   5.730   3.353   4.812 -0.0072  0.4032  0.2337
  421MOL0     C56729   5.798   3.481   4.769  1.0921 -0.6645  1.0977
  421MOL0     O56730   5.934   3.477   4.733 -0.2924  0.4232  0.5289
  421MOL0     C56731   5.992   3.590   4.685  0.0844  0.3251  0.3806
  421MOL0     C56732   5.927   3.676   4.595  0.6226 -0.5845  0.4667
  421MOL0     C56733   6.001   3.784   4.543  0.6121  0.1881 -0.2292
  421MOL0     C56734   6.132   3.813   4.588 -1.2152 -1.0965  0.3496
  421MOL0     O56735   6.217   3.914   4.550 -0.4006  0.1711  0.4447
  421MOL0     C56736   6.241   3.935   4.414  0.2888  0.3101  0.1672
  421MOL0     C56737   6.329   4.058   4.393 -0.9669 -0.0670 -0.4652
  421MOL0     C56738   6.316   4.126   4.258 -0.6502 -0.5220  0.4358
  421MOL0     C56739   6.436   4.214   4.237 -0.4443 -0.7662  0.0920
  421MOL0     C56740   6.420   4.284   4.100 -0.0173 -0.1526 -0.1478
  421MOL0     C56741   6.541   4.364   4.057 -0.1601 -0.7664  0.1247
  421MOL0     C56742   6.552   4.433   3.916 -0.6131 -0.0196  0.4562
  421MOL0     C56743   6.447   4.519   3.869  0.3636  0.5026 -0.9003
  421MOL0    Cl56744   6.397   4.615   4.014 -0.3614  0.3795 -0.3034
  421MOL0     C56745   6.189   3.733   4.689 -0.3397  0.4199 -0.3083
  421MOL0     C56746   6.120   3.623   4.738  0.0320 -0.3814  1.1789
  421MOL0     O56747   5.723   3.582   4.771  0.5786  0.6569  0.7707
  421MOL0     C56748   5.803   3.237   4.788  0.6125 -1.1263 -0.2858
  421MOL0     C56749   5.755   3.110   4.816  0.6950  0.3616 -0.1992
  421MOL0     N56750   5.465   2.636   5.333  0.0344  0.5476 -0.0709
  421MOL0     N56751   5.378   2.648   5.425  0.5093 -0.5190  0.2572
  421MOL0     C56752   5.968   2.537   5.876  0.4628  0.0352  0.1062
  421MOL0     C56753   6.107   2.490   5.893 -0.2943  0.4494 -0.1225
  421MOL0     C56754   6.568   2.497   5.918  0.2482  1.2360 -0.4847
  421MOL0     C56755   6.538   2.356   5.916 -0.1830  0.0357  0.2957
  421MOL0     C56756   6.633   2.253   5.908  0.0759  0.0055  0.0291
  421MOL0     C56757   6.765   2.293   5.897  0.3288 -0.7305 -0.5821
  421MOL0     O56758   6.862   2.200   5.885  0.4709  0.8094  0.6690
  421MOL0     C56759   6.996   2.231   5.879 -0.4441  0.1338 -0.2758
  421MOL0     C56760   7.040   2.264   5.734  0.1911  0.4410 -0.8491
  421MOL0     C56761   7.192   2.297   5.714  1.0723  0.0476  0.6304
  421MOL0     C56762   7.242   2.289   5.569  0.5644 -0.0722  0.2237
  421MOL0     C56763   7.381   2.341   5.558  0.8689 -0.2000  0.5856
  421MOL0     C56764   7.492   2.364   5.558  0.7566 -0.2525 -0.3680
  421MOL0     C56765   6.801   2.433   5.895 -0.8414  0.4320 -0.9167
  421MOL0     C56766   6.704   2.531   5.895  0.0850  0.3781  0.2875
  421MOL0     C56767   6.749   2.668   5.889  0.3635  0.4476 -0.1641
  421MOL0     H56768   6.260   2.794   5.858  0.7245  0.6166 -1.6738
  421MOL0     H56769   6.016   2.858   5.828 -0.5637  0.4513 -1.1156
  421MOL0     H56770   5.676   2.578   5.815  0.2045  0.7669 -0.4896
  421MOL0     H56771   5.729   2.602   5.998 -1.0941  1.7839  1.8865
  421MOL0     H56772   5.594   2.823   5.964  0.4462  1.0417 -1.1507
  421MOL0     H56773   5.514   2.668   5.999 -0.2724 -2.2686 -1.8256
  421MOL0     H56774   5.487   2.634   5.757 -0.8085  0.5046 -1.4085
  421MOL0     H56775   5.550   2.786   5.722 -3.8126 -1.6180 -2.7376
  421MOL0     H56776   5.327   2.746   5.928 -0.7296  0.4996 -0.4598
  421MOL0     H56777   5.377   2.896   5.850 -1.0509  0.3275  0.3556
  421MOL0     H56778   5.304   2.660   5.678  0.4030  1.9656 -1.8202
  421MOL0     H56779   5.169   2.733   5.769 -0.3694 -1.0902  1.2820
  421MOL0     H56780   5.237   2.958   5.650  1.0729  0.3364  0.8768
  421MOL0     H56781   5.352   2.868   5.559  0.0457  1.0997  0.8110
  421MOL0     H56782   5.154   2.898   5.429  0.7236  0.8792  0.9603
  421MOL0     H56783   5.038   2.859   5.554 -0.9786 -0.9388 -1.9054
  421MOL0     H56784   5.114   2.616   5.523 -2.1111  2.1827  1.5261
  421MOL0     H56785   5.040   2.707   5.392  0.3140 -0.1037 -1.0298
  421MOL0     H56786   5.187   2.661   5.160 -0.8657 -0.5006  0.7987
  421MOL0     H56787   5.567   2.654   5.092 -0.7412  1.0228  0.4191
  421MOL0     H56788   5.452   2.534   5.024  0.6999 -0.4806 -0.2042
  421MOL0     H56789   5.311   2.711   4.950  1.4552 -1.0742 -2.8506
  421MOL0     H56790   5.383   2.833   5.044 -0.2189 -0.8304  0.4625
  421MOL0     H56791   5.422   2.811   4.785  1.7735  3.0024  1.5704
  421MOL0     H56792   5.509   2.662   4.823 -4.0441 -1.3105 -1.4039
  421MOL0     H56793   5.663   2.848   4.799 -2.0535  1.3242 -1.3901
  421MOL0     H56794   5.658   2.816   4.982  0.6650  1.1512  0.2170
  421MOL0     H56795   5.458   3.205   4.949 -0.1843 -0.3296  0.0099
  421MOL0     H56796   5.555   3.428   4.911 -2.0760 -1.9307  1.3523
  421MOL0     H56797   5.834   3.640   4.553 -0.2034  0.5519  1.2755
  421MOL0     H56798   5.962   3.856   4.472  0.0108  0.2348  0.1419
  421MOL0     H56799   6.297   3.853   4.366 -1.2209  0.3611 -1.8057
  421MOL0     H56800   6.147   3.936   4.358  0.7081 -0.3525 -0.5701
  421MOL0     H56801   6.302   4.138   4.463 -1.0242  0.2633 -0.8639
  421MOL0     H56802   6.430   4.021   4.411 -1.0346 -0.5801 -1.1003
  421MOL0     H56803   6.327   4.040   4.191  0.5800  0.8543 -1.2218
  421MOL0     H56804   6.221   4.179   4.241 -0.6934 -0.9432 -0.7491
  421MOL0     H56805   6.528   4.155   4.237 -1.8607 -3.1290  0.8000
  421MOL0     H56806   6.439   4.290   4.316  1.7792  0.1634 -0.8156
  421MOL0     H56807   6.327   4.341   4.095 -1.1320 -1.9638 -3.9208
  421MOL0     H56808   6.412   4.214   4.016  2.5633  2.7467 -3.0906
  421MOL0     H56809   6.556   4.446   4.127 -1.8983  0.7287 -1.1596
  421MOL0     H56810   6.626   4.296   4.068  0.2134 -0.5541 -1.2063
  421MOL0     H56811   6.580   4.369   3.832 -1.0720  0.7336 -0.2877
  421MOL0     H56812   6.640   4.497   3.934 -2.4547  2.5505  0.8342
  421MOL0     H56813   6.475   4.585   3.787  1.9523  0.0805 -0.7387
  421MOL0     H56814   6.363   4.456   3.838  0.3927 -0.7479  1.3672
  421MOL0     H56815   6.290   3.762   4.716 -0.9244  2.2685  0.0782
  421MOL0     H56816   6.168   3.567   4.817  0.4683 -0.6155  0.7506
  421MOL0     H56817   5.899   3.256   4.743  0.5108  0.3075  0.0465
  421MOL0     H56818   5.811   3.020   4.794  0.7128  0.3049  0.0779
  421MOL0     H56819   5.900   2.456   5.851 -0.4263  1.3184 -1.8906
  421MOL0     H56820   6.132   2.385   5.909  3.9313  1.0699 -1.4281
  421MOL0     H56821   6.438   2.315   5.926 -0.0525 -0.0067  1.5036
  421MOL0     H56822   6.619   2.145   5.912 -0.4367  0.1076  1.7213
  421MOL0     H56823   7.050   2.146   5.920  1.2816  2.3081  2.2893
  421MOL0     H56824   7.017   2.310   5.952  2.1624 -1.1291  0.4670
  421MOL0     H56825   6.983   2.347   5.691  0.7028  0.6656 -1.1037
  421MOL0     H56826   7.007   2.176   5.677 -0.6226  1.0023 -1.2696
  421MOL0     H56827   7.243   2.215   5.766 -1.0653  0.8161  4.3221
  421MOL0     H56828   7.224   2.388   5.765  1.9052  0.1772 -0.0994
  421MOL0     H56829   7.227   2.190   5.526  2.1828 -1.0964  1.9122
  421MOL0     H56830   7.182   2.360   5.510 -3.1961 -1.9441  1.4895
  421MOL0     H56831   7.590   2.407   5.565 -0.3270  2.2562  0.7011
  421MOL0     H56832   6.897   2.481   5.884 -0.9395  0.8423 -0.0993
  421MOL0     H56833   6.746   2.691   5.996  1.1663  1.3663 -0.3231
  421MOL0     H56834   6.853   2.681   5.858  0.9745 -1.3274  0.9868
  421MOL0     H56835   6.680   2.731   5.833 -1.4328 -2.6461 -1.6443
  422MOL0     O56836   6.051  10.051   7.783  1.0076 -0.7207  0.9394
  422MOL0     C56837   6.106   9.975   7.863 -0.3756 -0.1390 -0.6718
  422MOL0     O56838   6.079   9.840   7.875  0.2433  0.6748 -0.0074
  422MOL0     C56839   5.992   9.797   7.779  0.5863  0.0671 -0.0052
  422MOL0     C56840   5.858   9.758   7.802 -0.4164 -0.0613  0.2237
  422MOL0     C56841   5.778   9.691   7.705 -0.3410  0.7317 -0.9033
  422MOL0     C56842   5.838   9.664   7.582  0.4266  0.5296  0.3532
  422MOL0     O56843   5.774   9.573   7.491 -0.1094 -0.6371 -0.0075
  422MOL0     C56844   5.769   9.621   7.361  0.7624 -0.3382 -0.1406
  422MOL0     C56845   5.651   9.561   7.276  0.0645 -0.4528  0.8793
  422MOL0     C56846   5.662   9.407   7.270  0.2225  0.4159  1.1590
  422MOL0     C56847   5.770   9.363   7.171  0.4254  0.0948 -0.1533
  422MOL0     C56848   5.782   9.213   7.170  0.5266 -0.9902  0.7889
  422MOL0     C56849   5.882   9.169   7.066  0.5332  0.0528  0.7451
  422MOL0     C56850   5.886   9.022   7.060  0.5472 -0.0099 -0.5232
  422MOL0     C56851   5.999   8.969   6.969  0.0363  0.5665  0.8658
  422MOL0     N56852   6.135   8.996   7.024 -0.0769  0.4118 -0.4198
  422MOL0     C56853   6.192   8.944   7.132 -0.3837 -0.2032 -0.5219
  422MOL0     C56854   6.326   8.978   7.126 -0.6484  0.4055 -0.2431
  422MOL0     C56855   6.444   8.923   7.212  0.1080  0.3419  0.2674
  422MOL0     C56856   6.583   8.921   7.151 -0.0393 -0.2968  0.3414
  422MOL0     C56857   6.585   8.841   7.022  0.8492  0.4690 -0.4936
  422MOL0     C56858   6.723   8.830   6.963 -0.4356  0.1858  0.1245
  422MOL0     O56859   6.721   8.785   6.822  0.2041  0.0483  0.1431
  422MOL0     C56860   6.855   8.751   6.779  0.6970 -0.0856 -0.2156
  422MOL0     C56861   6.860   8.671   6.669 -0.7506 -0.7682  0.6101
  422MOL0     C56862   6.982   8.623   6.620  0.6955  0.3150 -0.6779
  422MOL0     C56863   7.103   8.662   6.667 -0.1155  0.4476  0.1115
  422MOL0     C56864   7.223   8.613   6.597 -0.8055 -0.2141  0.1381
  422MOL0     O56865   7.330   8.684   6.638  0.2483  0.0622 -0.0637
  422MOL0     C56866   7.453   8.685   6.573 -0.3748  0.2864 -0.3627
  422MOL0     C56867   7.461   8.671   6.431 -0.1765 -0.0535 -0.5498
  422MOL0     C56868   7.584   8.672   6.374 -1.2427  0.2746 -0.3636
  422MOL0     C56869   7.703   8.678   6.451  0.1327 -0.3298 -0.6117
  422MOL0     O56870   7.822   8.678   6.390  0.2029 -0.0439  0.6823
  422MOL0     C56871   7.852   8.552   6.324  0.5234 -0.4812 -0.1236
  422MOL0     C56872   7.958   8.578   6.219 -0.4578  0.0166 -0.6882
  422MOL0     C56873   8.002   8.441   6.148  0.2884 -0.8655  0.5484
  422MOL0     C56874   8.129   8.449   6.077  0.5064 -1.0492 -0.3440
  422MOL0     C56875   8.151   8.341   5.987  0.1376 -0.0182  0.4428
  422MOL0     C56876   8.288   8.354   5.904 -0.1355 -0.1333 -0.6878
  422MOL0     C56877   8.330   8.239   5.817 -0.3044 -0.2327 -0.8682
  422MOL0     C56878   8.472   8.265   5.753 -0.9487 -0.1956 -0.5287
  422MOL0    Cl56879   8.499   8.412   5.643 -0.3686  0.3353  0.6989
  422MOL0     C56880   7.689   8.683   6.585  0.4232 -0.5046 -0.4043
  422MOL0     C56881   7.568   8.695   6.648 -0.2102 -0.5685  0.4018
  422MOL0     O56882   7.213   8.544   6.499  0.3692  0.2936 -0.0543
  422MOL0     C56883   7.104   8.746   6.784  0.1254  0.4712 -0.1038
  422MOL0     C56884   6.975   8.786   6.834 -0.3328 -0.6988 -0.2785
  422MOL0     N56885   6.348   9.055   7.006  0.1405  0.0452  0.3672
  422MOL0     N56886   6.238   9.066   6.953 -0.4294 -0.1589  0.9414
  422MOL0     C56887   5.968   9.698   7.558 -0.3694 -0.5627 -0.9828
  422MOL0     C56888   6.047   9.759   7.657 -0.5921 -0.5815 -0.8367
  422MOL0     C56889   6.212  10.036   7.944 -0.2734  0.6636 -0.1484
  422MOL0     C56890   6.217   9.996   8.077 -0.7863 -0.2435 -0.6262
  422MOL0     C56891   6.311  10.053   8.161  0.0640  0.4330 -0.1361
  422MOL0     C56892   6.414  10.142   8.109  0.8301  0.0232 -0.3405
  422MOL0     O56893   6.519  10.191   8.168 -0.0131 -0.2455  0.0448
  422MOL0     C56894   6.549  10.160   8.304  0.0117  0.2314 -0.2255
  422MOL0     C56895   6.679  10.253   8.356  0.7652  0.0252 -0.4775
  422MOL0     C56896   6.675  10.408   8.335 -0.1767 -0.1589 -0.4134
  422MOL0     C56897   6.652  10.460   8.189 -0.3646 -0.7324 -0.3636
  422MOL0     C56898   6.755  10.413   8.093  0.4773  1.1938 -0.4880
  422MOL0     C56899   6.843  10.373   8.018 -0.7984  0.6177 -0.3581
  422MOL0     C56900   6.411  10.173   7.978  0.1339  0.3718  0.9280
  422MOL0     C56901   6.307  10.133   7.902  0.4533  0.4902  0.7827
  422MOL0     C56902   6.301  10.183   7.760  0.1586 -0.3384 -0.7651
  422MOL0     H56903   5.829   9.776   7.905 -0.6611  1.7574 -0.1254
  422MOL0     H56904   5.681   9.650   7.733 -0.1887  1.2989  0.5082
  422MOL0     H56905   5.746   9.728   7.369  1.0698 -0.3599  1.1713
  422MOL0     H56906   5.864   9.604   7.311 -0.3227 -4.2858 -1.1892
  422MOL0     H56907   5.650   9.613   7.179 -0.5690  2.0248  2.1242
  422MOL0     H56908   5.554   9.589   7.316  0.6503  0.8993  1.4260
  422MOL0     H56909   5.567   9.363   7.240  0.5913  1.0302 -1.1206
  422MOL0     H56910   5.691   9.380   7.372  0.6299  1.4156  1.3174
  422MOL0     H56911   5.737   9.399   7.073  2.0052 -1.0325 -1.1565
  422MOL0     H56912   5.870   9.398   7.199  0.5143 -0.9367  0.8529
  422MOL0     H56913   5.831   9.185   7.264 -1.5571 -1.5544  1.7613
  422MOL0     H56914   5.680   9.176   7.157 -0.0144  0.8959 -0.8280
  422MOL0     H56915   5.863   9.209   6.966  0.7460  1.9451  1.4227
  422MOL0     H56916   5.978   9.212   7.098  1.3053  2.0722 -3.5420
  422MOL0     H56917   5.790   8.993   7.017  0.7072 -2.4751  0.5487
  422MOL0     H56918   5.884   8.981   7.162 -0.5067  1.3093  0.0193
  422MOL0     H56919   5.988   8.861   6.955  2.6497  0.1407  1.5255
  422MOL0     H56920   5.997   9.010   6.867  2.1093 -0.0160  0.5284
  422MOL0     H56921   6.143   8.880   7.205  1.3562  0.5166  1.3870
  422MOL0     H56922   6.449   8.991   7.298 -0.1368 -0.1607  0.6901
  422MOL0     H56923   6.432   8.823   7.256  1.6329 -0.3490 -0.8151
  422MOL0     H56924   6.610   9.023   7.126  1.7475 -0.7961  0.1196
  422MOL0     H56925   6.662   8.873   7.211  0.5048 -2.4154 -1.9133
  422MOL0     H56926   6.526   8.889   6.943 -2.2254 -0.1319  1.3025
  422MOL0     H56927   6.555   8.740   7.051 -0.7454  1.7788  2.8637
  422MOL0     H56928   6.784   8.762   7.023  1.3347  2.6410  1.2645
  422MOL0     H56929   6.774   8.926   6.959  0.2615 -0.1246  1.3904
  422MOL0     H56930   6.762   8.640   6.635 -0.1249 -2.1445  0.0116
  422MOL0     H56931   6.990   8.564   6.529 -1.2472  2.2490 -2.2151
  422MOL0     H56932   7.376   8.678   6.365 -0.1321  2.8544 -0.4229
  422MOL0     H56933   7.588   8.677   6.265  0.0589 -1.0238 -0.3978
  422MOL0     H56934   7.882   8.482   6.402 -0.7170 -0.5441  0.3245
  422MOL0     H56935   7.758   8.515   6.283  0.5527 -1.8488  0.9577
  422MOL0     H56936   7.919   8.655   6.151 -0.5333 -0.6668 -1.4354
  422MOL0     H56937   8.040   8.620   6.276 -1.9234 -1.2534  2.6060
  422MOL0     H56938   8.010   8.366   6.227 -0.6216  1.0188  2.5385
  422MOL0     H56939   7.920   8.416   6.079  0.9659  0.5751 -0.8490
  422MOL0     H56940   8.201   8.433   6.158  0.0501  1.5082  0.6898
  422MOL0     H56941   8.139   8.545   6.025  0.4424 -2.0284 -2.2477
  422MOL0     H56942   8.070   8.336   5.913  0.3703  3.4694 -0.2406
  422MOL0     H56943   8.148   8.243   6.035  0.0102 -2.5679 -4.1939
  422MOL0     H56944   8.273   8.439   5.837  2.1506  1.6231  0.8892
  422MOL0     H56945   8.367   8.369   5.978  2.1798  0.7259 -3.1655
  422MOL0     H56946   8.249   8.210   5.749  0.4457 -0.8177 -1.5230
  422MOL0     H56947   8.345   8.150   5.879 -5.9204 -2.4243 -2.0290
  422MOL0     H56948   8.550   8.267   5.830 -1.5722  0.5471  0.0936
  422MOL0     H56949   8.491   8.179   5.688 -2.2223  0.0160 -1.2098
  422MOL0     H56950   7.781   8.670   6.641  2.0536 -4.0536 -3.4628
  422MOL0     H56951   7.560   8.697   6.756  1.5535 -1.2608  0.5843
  422MOL0     H56952   7.194   8.770   6.841  0.5957  0.1587 -0.7062
  422MOL0     H56953   6.977   8.867   6.907 -1.3005  0.7733 -1.8172
  422MOL0     H56954   6.029   9.691   7.469 -0.5879  3.6076 -1.6434
  422MOL0     H56955   6.153   9.773   7.639 -0.6307  0.1601 -0.5044
  422MOL0     H56956   6.157   9.916   8.118  0.7794  0.0500  2.5920
  422MOL0     H56957   6.306  10.025   8.266  0.1926 -2.1499 -0.7503
  422MOL0     H56958   6.579  10.055   8.312 -0.6654  0.1593  1.8427
  422MOL0     H56959   6.476  10.183   8.382 -0.3568  3.2838 -1.3539
  422MOL0     H56960   6.770  10.217   8.309  0.0910 -0.1232 -1.6976
  422MOL0     H56961   6.692  10.235   8.463  2.4666 -1.7734 -0.9486
  422MOL0     H56962   6.760  10.461   8.377  0.9670 -0.7400 -1.9194
  422MOL0     H56963   6.587  10.436   8.395  2.0448  1.5340  2.2629
  422MOL0     H56964   6.556  10.433   8.146 -1.7109 -0.4645  2.2771
  422MOL0     H56965   6.646  10.570   8.193  1.8562 -0.5638 -0.3580
  422MOL0     H56966   6.919  10.330   7.956  1.0113  1.0619  1.4596
  422MOL0     H56967   6.493  10.225   7.930 -1.4247  2.8383  0.7530
  422MOL0     H56968   6.318  10.097   7.695  3.2469 -0.5360  0.1446
  422MOL0     H56969   6.208  10.237   7.741  0.3391  0.7480  1.1273
  422MOL0     H56970   6.380  10.257   7.743  1.0933 -1.3933 -1.0811
  423MOL0     O56971   7.999   4.973   4.245  0.2517 -0.1412 -0.5517
  423MOL0     C56972   8.017   4.910   4.138 -0.8314  0.7208  0.1299
  423MOL0     O56973   8.075   4.960   4.024 -0.0104  0.2293 -0.5522
  423MOL0     C56974   8.151   5.075   4.023  0.3386  0.0244 -0.4768
  423MOL0     C56975   8.264   5.086   4.097  0.5423 -0.1647  0.0828
  423MOL0     C56976   8.336   5.207   4.094  0.1610 -0.0674  0.5661
  423MOL0     C56977   8.295   5.323   4.017 -0.9540  0.1337 -0.1755
  423MOL0     O56978   8.372   5.436   4.035  0.0428  0.0287 -0.1907
  423MOL0     C56979   8.339   5.545   3.967  0.1435  0.2806  0.5461
  423MOL0     C56980   8.443   5.651   3.978  0.1247 -0.1460  0.6473
  423MOL0     C56981   8.392   5.783   3.912 -0.2895  0.2305  0.5771
  423MOL0     C56982   8.484   5.898   3.933  0.4878  0.7035 -0.3977
  423MOL0     C56983   8.420   6.038   3.905 -0.3544 -0.2401 -0.6580
  423MOL0     C56984   8.366   6.041   3.767 -0.3156 -0.1375 -0.5531
  423MOL0     C56985   8.470   6.013   3.651 -0.3497 -0.2618  0.1597
  423MOL0     C56986   8.405   6.024   3.514 -0.9122 -0.4386  0.1676
  423MOL0     N56987   8.503   5.964   3.425 -0.0236 -0.1887 -0.1473
  423MOL0     C56988   8.550   6.025   3.314 -0.0662 -0.1827  0.5618
  423MOL0     C56989   8.629   5.931   3.256 -0.5614  0.4704 -0.2512
  423MOL0     C56990   8.688   5.933   3.120  0.0438 -0.0306 -0.1362
  423MOL0     C56991   8.786   5.823   3.087 -0.6254 -0.1389 -0.5819
  423MOL0     C56992   8.856   5.845   2.951  0.1722 -0.2646  0.0543
  423MOL0     C56993   8.790   5.772   2.831 -0.2739 -0.6866 -0.5969
  423MOL0     O56994   8.850   5.807   2.705 -0.1185 -0.8818  0.5820
  423MOL0     C56995   8.956   5.730   2.663  0.3739 -0.8700  0.9659
  423MOL0     C56996   8.995   5.763   2.535 -0.4876 -0.1021  0.8062
  423MOL0     C56997   9.100   5.703   2.466 -0.1280 -0.3285 -0.3381
  423MOL0     C56998   9.173   5.601   2.532  0.3110 -0.4260 -0.6457
  423MOL0     C56999   9.278   5.530   2.450 -0.1257  0.5001  0.1919
  423MOL0     O57000   9.369   5.455   2.520 -0.0731 -0.0553 -0.8370
  423MOL0     C57001   9.475   5.385   2.467 -0.1356 -0.4266  0.6202
  423MOL0     C57002   9.554   5.325   2.556  1.5511 -0.6260 -0.5018
  423MOL0     C57003   9.667   5.250   2.521 -0.2241  0.9532  0.4805
  423MOL0     C57004   9.697   5.224   2.378  0.1673 -0.2098  0.2165
  423MOL0     O57005   9.798   5.146   2.326  0.5931  0.0919 -0.4754
  423MOL0     C57006   9.912   5.204   2.257 -0.4297  0.5427  0.7816
  423MOL0     C57007   9.976   5.301   2.342  0.6315 -1.1623  0.2492
  423MOL0     C57008  10.128   5.321   2.307 -0.0672 -0.9148 -0.6568
  423MOL0     C57009  10.203   5.407   2.403  0.1367  0.0181  0.0909
  423MOL0     C57010  10.348   5.416   2.359 -0.0162 -0.2538 -0.1677
  423MOL0     C57011  10.430   5.523   2.440 -0.8533  0.6134  0.2244
  423MOL0     C57012  10.585   5.490   2.435  0.6264  0.1816 -0.1006
  423MOL0     C57013  10.652   5.558   2.546  0.7783 -0.2887  0.2473
  423MOL0    Cl57014  10.820   5.540   2.516  0.1407 -0.0198  0.2057
  423MOL0     C57015   9.609   5.283   2.283 -0.6037  0.1529 -0.2936
  423MOL0     C57016   9.500   5.354   2.335  0.9438  0.1168  0.9325
  423MOL0     O57017   9.275   5.545   2.328  0.5472  0.4748 -0.5691
  423MOL0     C57018   9.140   5.573   2.668 -0.3439 -0.2022 -0.1767
  423MOL0     C57019   9.029   5.625   2.729 -0.3904 -0.0819 -0.9335
  423MOL0     N57020   8.618   5.814   3.331 -0.1241  0.2940 -0.3749
  423MOL0     N57021   8.539   5.832   3.430  0.4210 -0.2379 -0.2637
  423MOL0     C57022   8.191   5.302   3.928  0.2248  0.2651  0.2002
  423MOL0     C57023   8.116   5.176   3.939 -1.8151  0.0658 -0.0849
  423MOL0     C57024   7.962   4.768   4.134 -0.6081 -0.3326 -0.3354
  423MOL0     C57025   7.838   4.739   4.204 -0.7159 -2.0125 -0.0791
  423MOL0     C57026   7.775   4.623   4.183 -0.4326 -0.1412 -0.3478
  423MOL0     C57027   7.844   4.514   4.127 -0.5486 -0.2002 -0.7363
  423MOL0     O57028   7.782   4.398   4.140 -0.6980 -0.1048 -0.5546
  423MOL0     C57029   7.850   4.277   4.113 -0.2547  2.0262  0.1605
  423MOL0     C57030   7.741   4.169   4.130  0.9021  0.5239  0.0777
  423MOL0     C57031   7.649   4.144   4.007 -0.6345  0.3337 -0.0926
  423MOL0     C57032   7.570   4.015   4.031 -0.4295 -0.3330 -0.0553
  423MOL0     C57033   7.462   4.002   3.936 -0.0017  0.4360 -0.4332
  423MOL0     C57034   7.385   3.983   3.842  0.4726  0.0174 -0.3108
  423MOL0     C57035   7.967   4.531   4.068  0.6288 -0.8731  0.4293
  423MOL0     C57036   8.019   4.665   4.057  0.0959  0.6114  0.1079
  423MOL0     C57037   8.147   4.686   3.972 -0.1416 -0.4484  0.1537
  423MOL0     H57038   8.294   5.005   4.163 -1.7112  0.4377  1.9600
  423MOL0     H57039   8.432   5.224   4.142  1.6483 -2.6084 -1.2265
  423MOL0     H57040   8.313   5.519   3.864 -0.0125 -0.3273  0.7342
  423MOL0     H57041   8.246   5.582   4.011 -1.7856 -2.3705 -0.9769
  423MOL0     H57042   8.535   5.632   3.923 -0.3215  0.4982 -0.3388
  423MOL0     H57043   8.455   5.668   4.086 -2.2463  2.1336  0.6366
  423MOL0     H57044   8.293   5.813   3.947  0.6565  3.9156  0.4947
  423MOL0     H57045   8.380   5.757   3.806  1.0853 -1.3121  0.7500
  423MOL0     H57046   8.508   5.887   4.039  1.0303 -1.7782 -0.7261
  423MOL0     H57047   8.577   5.875   3.880 -0.2375 -2.0248 -0.6297
  423MOL0     H57048   8.343   6.064   3.978  0.6924  0.1415  0.3545
  423MOL0     H57049   8.506   6.106   3.908  2.3133 -3.3595 -0.5013
  423MOL0     H57050   8.284   5.970   3.755 -0.3405 -0.0252 -1.0586
  423MOL0     H57051   8.321   6.141   3.759 -2.2883 -0.9951 -0.6317
  423MOL0     H57052   8.514   5.915   3.669  1.4939 -0.0197 -2.4285
  423MOL0     H57053   8.546   6.093   3.653  0.9826 -1.4910  0.6467
  423MOL0     H57054   8.315   5.961   3.512  0.1927 -2.0913  0.7636
  423MOL0     H57055   8.388   6.127   3.481  3.1774 -0.0509 -1.2127
  423MOL0     H57056   8.520   6.120   3.273  2.1879  0.2130 -0.3372
  423MOL0     H57057   8.621   5.949   3.035 -0.6185 -2.0300 -0.0541
  423MOL0     H57058   8.740   6.029   3.115 -0.7838  0.4489  0.1817
  423MOL0     H57059   8.863   5.829   3.165 -2.0051  0.0501  0.8043
  423MOL0     H57060   8.738   5.725   3.094 -1.0805  0.1888  2.5267
  423MOL0     H57061   8.959   5.810   2.962  0.1866  0.1958  1.6171
  423MOL0     H57062   8.873   5.952   2.936  2.8752 -0.2374  2.5114
  423MOL0     H57063   8.687   5.805   2.817 -0.6205 -2.5184 -3.1422
  423MOL0     H57064   8.802   5.663   2.831  2.5124 -0.4572 -1.4689
  423MOL0     H57065   8.941   5.844   2.489 -2.7633 -2.1299 -0.2856
  423MOL0     H57066   9.141   5.734   2.370  1.6133 -1.5815 -0.0503
  423MOL0     H57067   9.525   5.340   2.660  0.3416  4.2308 -1.2960
  423MOL0     H57068   9.726   5.205   2.600  0.4711 -0.2646 -0.6941
  423MOL0     H57069   9.980   5.120   2.237 -0.4963  0.8632 -0.9357
  423MOL0     H57070   9.884   5.235   2.156 -1.7249 -2.3614  0.1342
  423MOL0     H57071   9.917   5.390   2.318 -0.1434 -1.3045  1.5338
  423MOL0     H57072   9.965   5.274   2.448  1.6878 -1.3705  0.3135
  423MOL0     H57073  10.177   5.226   2.285  0.3288 -0.9014  0.1239
  423MOL0     H57074  10.131   5.369   2.208  0.6295 -0.9935 -0.6769
  423MOL0     H57075  10.198   5.366   2.504  1.7808  2.7161  1.3633
  423MOL0     H57076  10.155   5.505   2.412 -0.2146 -0.2930  1.8781
  423MOL0     H57077  10.353   5.459   2.258 -1.8202  0.4529  0.0070
  423MOL0     H57078  10.395   5.317   2.361 -2.4361 -1.4663  0.2921
  423MOL0     H57079  10.408   5.620   2.394 -1.6836  0.5185  0.3960
  423MOL0     H57080  10.406   5.505   2.545  0.7771  1.0496  0.6877
  423MOL0     H57081  10.617   5.522   2.335 -1.8356  0.7499 -0.7690
  423MOL0     H57082  10.602   5.383   2.442 -2.4213 -0.3428  0.3945
  423MOL0     H57083  10.632   5.665   2.557 -0.8015 -0.2890 -2.0118
  423MOL0     H57084  10.614   5.514   2.639  0.7278 -1.8605 -0.4910
  423MOL0     H57085   9.617   5.267   2.176 -2.6525  2.7769 -0.9553
  423MOL0     H57086   9.429   5.379   2.257 -0.2247  1.2417  2.3000
  423MOL0     H57087   9.205   5.497   2.710  0.7962 -0.5607 -2.4413
  423MOL0     H57088   9.005   5.609   2.834 -0.9747  4.0040 -0.2783
  423MOL0     H57089   8.151   5.370   3.855  2.6850  0.1712 -1.3374
  423MOL0     H57090   8.023   5.163   3.886 -1.9655 -3.6127  0.7744
  423MOL0     H57091   7.790   4.815   4.265 -1.9933 -3.7233  1.1173
  423MOL0     H57092   7.679   4.601   4.229 -0.8752  2.1470 -0.0548
  423MOL0     H57093   7.920   4.272   4.197 -2.0412  0.1328  1.6287
  423MOL0     H57094   7.907   4.263   4.020 -1.6907 -2.2166 -0.2901
  423MOL0     H57095   7.680   4.192   4.218  2.2178 -3.6403  2.3531
  423MOL0     H57096   7.792   4.077   4.161  0.9086  0.6805  0.5410
  423MOL0     H57097   7.719   4.122   3.926 -0.3029 -4.2795  1.1819
  423MOL0     H57098   7.583   4.230   3.989 -1.8666  0.2693  3.3495
  423MOL0     H57099   7.638   3.931   4.015  1.3257  1.2327 -1.2337
  423MOL0     H57100   7.527   4.020   4.131 -0.0279 -1.2255  0.1724
  423MOL0     H57101   7.324   3.967   3.755  2.6428 -2.5113 -1.4944
  423MOL0     H57102   8.019   4.450   4.019  1.0603 -1.6570  2.1158
  423MOL0     H57103   8.122   4.726   3.874  1.6168  2.5237  0.7712
  423MOL0     H57104   8.214   4.760   4.017 -0.6085 -0.1795  0.4141
  423MOL0     H57105   8.196   4.589   3.964 -0.9697 -0.7582 -1.4988
  424MOL0     O57106   4.347   0.368   3.946 -0.9635 -1.0194  0.3249
  424MOL0     C57107   4.276   0.368   3.852  0.6184  0.3049 -0.3816
  424MOL0     O57108   4.332   0.355   3.722 -0.7042 -0.7202  0.4630
  424MOL0     C57109   4.456   0.302   3.708  0.0068 -0.3214 -0.1232
  424MOL0     C57110   4.474   0.168   3.739 -0.5918  0.1858 -0.3992
  424MOL0     C57111   4.598   0.104   3.721  0.3268  0.3504 -0.2666
  424MOL0     C57112   4.708   0.181   3.673 -0.1873  0.8485  0.0256
  424MOL0     O57113   4.832   0.123   3.678 -0.6238  0.5022  0.4051
  424MOL0     C57114   4.946   0.209   3.701  0.6279 -0.0388 -0.0630
  424MOL0     C57115   5.051   0.146   3.790 -0.0517  1.2107 -0.4580
  424MOL0     C57116   5.107   0.007   3.743 -0.6899 -0.5829 -0.9327
  424MOL0     C57117   5.234  -0.031   3.820 -1.2623  0.4514 -0.1190
  424MOL0     C57118   5.301  -0.157   3.764  0.2716  0.9827  0.4284
  424MOL0     C57119   5.416  -0.220   3.841  0.6688  0.0581 -0.1505
  424MOL0     C57120   5.538  -0.215   3.746  0.0351  0.6221 -0.2405
  424MOL0     C57121   5.664  -0.289   3.809  0.3000  0.2125 -0.9631
  424MOL0     N57122   5.731  -0.223   3.917 -0.4191 -0.0983 -0.1121
  424MOL0     C57123   5.713  -0.265   4.045 -0.7551 -0.1343 -0.1347
  424MOL0     C57124   5.790  -0.175   4.112 -0.1627  0.6485 -0.6037
  424MOL0     C57125   5.786  -0.172   4.258 -0.5550  0.0481 -0.8107
  424MOL0     C57126   5.932  -0.165   4.312 -0.0019  0.3820  0.0184
  424MOL0     C57127   6.012  -0.294   4.303  0.4115  0.8360  0.1246
  424MOL0     C57128   6.154  -0.264   4.340  0.7513 -0.3240 -0.7569
  424MOL0     O57129   6.245  -0.327   4.256 -0.5154  1.0971  0.0190
  424MOL0     C57130   6.262  -0.461   4.258  0.5165  0.4093  0.1891
  424MOL0     C57131   6.218  -0.547   4.361 -0.1446  1.0145  1.0284
  424MOL0     C57132   6.209  -0.681   4.330 -0.1276 -0.3542  0.4643
  424MOL0     C57133   6.237  -0.740   4.203 -0.7163 -0.3917 -0.2481
  424MOL0     C57134   6.215  -0.882   4.161 -0.2102 -0.7032  0.3114
  424MOL0     O57135   6.258  -0.929   4.036 -0.5145  0.2536 -0.3432
  424MOL0     C57136   6.222  -1.061   4.018 -0.4200 -1.2573 -0.1844
  424MOL0     C57137   6.324  -1.137   3.963 -0.9597  0.7734 -1.0432
  424MOL0     C57138   6.299  -1.271   3.922 -0.0119 -0.5496 -0.6481
  424MOL0     C57139   6.174  -1.331   3.949 -0.8286  0.0139  0.0664
  424MOL0     O57140   6.162  -1.460   3.912 -0.0720 -0.4017 -0.0105
  424MOL0     C57141   6.077  -1.558   3.979 -0.7693 -0.7403  0.8390
  424MOL0     C57142   6.147  -1.697   3.991 -0.8821  0.2255 -0.6516
  424MOL0     C57143   6.199  -1.710   4.140 -0.0502  0.2134 -0.1881
  424MOL0     C57144   6.297  -1.595   4.178 -0.7990 -0.0776 -0.4340
  424MOL0     C57145   6.423  -1.595   4.091 -0.5868  0.7804  0.7171
  424MOL0     C57146   6.527  -1.493   4.129  1.0496  0.2333 -0.3313
  424MOL0     C57147   6.651  -1.482   4.040 -0.2067 -0.0627  0.3269
  424MOL0     C57148   6.775  -1.410   4.099 -0.4002  0.4307  0.4878
  424MOL0    Cl57149   6.732  -1.266   4.191 -0.4593 -0.1993  0.5327
  424MOL0     C57150   6.071  -1.257   3.994  0.3610  0.2069 -0.5590
  424MOL0     C57151   6.092  -1.120   4.028  0.5328  0.7008  1.0922
  424MOL0     O57152   6.157  -0.944   4.246  0.4060  0.2684 -0.3813
  424MOL0     C57153   6.276  -0.648   4.109  0.2568 -0.7467 -0.1851
  424MOL0     C57154   6.296  -0.511   4.132  0.2769  0.6414  0.6700
  424MOL0     N57155   5.857  -0.096   4.031  0.3086  0.3614  0.6438
  424MOL0     N57156   5.822  -0.127   3.907 -0.0201  0.8097 -0.6679
  424MOL0     C57157   4.686   0.313   3.641 -0.0254  0.3532 -0.4549
  424MOL0     C57158   4.560   0.375   3.668 -0.3208  0.0302  1.4505
  424MOL0     C57159   4.126   0.386   3.867  0.2425  0.2609  0.1522
  424MOL0     C57160   4.064   0.409   3.991  0.9349 -0.5254 -0.1312
  424MOL0     C57161   3.923   0.423   3.993  0.6277 -0.7213 -0.3693
  424MOL0     C57162   3.843   0.420   3.880  0.2584  0.1608 -0.9241
  424MOL0     O57163   3.712   0.430   3.869  0.6254 -0.2008 -0.4801
  424MOL0     C57164   3.641   0.530   3.940  0.4233 -0.7033  0.1984
  424MOL0     C57165   3.549   0.474   4.042  0.8413  0.4573 -0.0313
  424MOL0     C57166   3.429   0.394   3.983 -0.3625  1.2337 -0.2240
  424MOL0     C57167   3.303   0.485   3.965 -0.6455 -0.1352  0.3760
  424MOL0     C57168   3.190   0.402   3.914 -0.1492 -0.0532  0.2843
  424MOL0     C57169   3.104   0.321   3.887  0.2846 -0.3003 -0.2948
  424MOL0     C57170   3.908   0.390   3.766  0.6850  0.0405  0.3740
  424MOL0     C57171   4.038   0.368   3.752  0.1247 -0.1985 -0.3472
  424MOL0     C57172   4.090   0.352   3.609  0.6265  0.1135 -0.6400
  424MOL0     H57173   4.392   0.105   3.774  0.4115 -0.0644  1.6588
  424MOL0     H57174   4.601   0.001   3.754 -3.4391  0.7212  1.7858
  424MOL0     H57175   5.003   0.237   3.611  2.9112 -2.6948  0.4268
  424MOL0     H57176   4.917   0.301   3.753  0.7111 -0.0857  0.0664
  424MOL0     H57177   5.010   0.134   3.890 -2.0353  3.2824 -0.9237
  424MOL0     H57178   5.130   0.222   3.783  1.1242  0.2578  1.6966
  424MOL0     H57179   5.139   0.006   3.638 -0.5808 -1.3195 -0.8993
  424MOL0     H57180   5.033  -0.070   3.767 -0.0878  0.2574  5.4086
  424MOL0     H57181   5.302   0.055   3.814 -1.1451  0.2744 -2.2848
  424MOL0     H57182   5.212  -0.052   3.925 -0.5655 -1.9531 -0.4029
  424MOL0     H57183   5.221  -0.231   3.776 -1.3284  2.3833 -1.0901
  424MOL0     H57184   5.316  -0.141   3.657 -3.7090  0.2781 -0.4043
  424MOL0     H57185   5.429  -0.152   3.925 -3.9109  0.8646  0.1456
  424MOL0     H57186   5.404  -0.324   3.873  0.6811  0.1231  0.0623
  424MOL0     H57187   5.564  -0.111   3.723 -1.9703  1.5054  1.0674
  424MOL0     H57188   5.526  -0.261   3.648  0.1096  0.1372 -0.0230
  424MOL0     H57189   5.632  -0.387   3.845 -1.5696  1.1699  0.1158
  424MOL0     H57190   5.733  -0.302   3.725  1.5440 -0.5033  0.1296
  424MOL0     H57191   5.648  -0.338   4.093 -1.3273  2.2419  3.0155
  424MOL0     H57192   5.731  -0.083   4.289 -0.1832  0.5334 -1.5109
  424MOL0     H57193   5.731  -0.259   4.295  0.3298 -1.2427 -2.3565
  424MOL0     H57194   5.988  -0.090   4.256 -1.6197  2.7890  1.4138
  424MOL0     H57195   5.932  -0.127   4.415  2.1463  0.1815  0.1523
  424MOL0     H57196   6.007  -0.317   4.197 -3.1433  1.2557  0.0813
  424MOL0     H57197   5.965  -0.366   4.371 -0.1629  1.4085  0.3345
  424MOL0     H57198   6.171  -0.292   4.444 -1.5951  1.2927  0.1429
  424MOL0     H57199   6.180  -0.158   4.328  0.6902 -0.5804 -4.0733
  424MOL0     H57200   6.180  -0.501   4.452 -3.5658  1.7487 -0.5792
  424MOL0     H57201   6.172  -0.743   4.411 -1.9601  0.2138  0.1266
  424MOL0     H57202   6.423  -1.096   3.945 -0.6892  0.4265 -0.3414
  424MOL0     H57203   6.386  -1.333   3.907 -1.4975 -2.8478 -0.3024
  424MOL0     H57204   6.057  -1.521   4.080 -0.2164  3.8495 -0.4859
  424MOL0     H57205   5.979  -1.555   3.929 -0.4199  1.2940  0.1491
  424MOL0     H57206   6.075  -1.778   3.972 -1.7070  0.9474 -0.6538
  424MOL0     H57207   6.232  -1.717   3.925 -1.3140  1.1321 -1.5088
  424MOL0     H57208   6.114  -1.717   4.209 -0.6014 -0.9433 -0.9574
  424MOL0     H57209   6.241  -1.810   4.154 -1.1290  0.0822  3.0760
  424MOL0     H57210   6.330  -1.611   4.281  0.2576 -2.6358 -1.1004
  424MOL0     H57211   6.252  -1.495   4.175 -0.3914  0.2572  2.2338
  424MOL0     H57212   6.400  -1.568   3.987 -0.6145  1.8288  0.9885
  424MOL0     H57213   6.470  -1.692   4.109  0.7167  1.5647  1.6865
  424MOL0     H57214   6.480  -1.395   4.143  1.1004 -0.0251  2.1241
  424MOL0     H57215   6.564  -1.502   4.231  2.3907 -0.6788 -0.8639
  424MOL0     H57216   6.615  -1.423   3.955 -0.0050 -1.1132 -0.4976
  424MOL0     H57217   6.686  -1.581   4.012  3.1220  1.2434 -0.6320
  424MOL0     H57218   6.820  -1.480   4.171 -1.3299  1.6875  2.3877
  424MOL0     H57219   6.842  -1.388   4.016 -0.1320 -0.5391  0.4385
  424MOL0     H57220   5.974  -1.305   4.003 -0.3770  0.8122 -3.7003
  424MOL0     H57221   6.011  -1.066   4.077  0.6177  1.8879 -0.0199
  424MOL0     H57222   6.294  -0.682   4.007  0.5232  2.4818 -1.3095
  424MOL0     H57223   6.325  -0.448   4.048 -0.2262 -0.7930 -0.6322
  424MOL0     H57224   4.773   0.374   3.614  0.2558  0.1193 -0.0877
  424MOL0     H57225   4.555   0.483   3.668 -1.3996  0.0962 -1.7493
  424MOL0     H57226   4.121   0.411   4.083 -0.6579  1.4556  0.9030
  424MOL0     H57227   3.889   0.437   4.096  1.5894  0.3336 -0.1756
  424MOL0     H57228   3.576   0.587   3.872  3.9963  4.0688  0.2165
  424MOL0     H57229   3.714   0.599   3.983  0.0417 -0.9924  1.3227
  424MOL0     H57230   3.496   0.555   4.092 -0.7560 -1.2255  1.1516
  424MOL0     H57231   3.595   0.422   4.127 -0.8796  0.6379  1.0744
  424MOL0     H57232   3.405   0.304   4.041 -0.4052 -0.7123 -3.1033
  424MOL0     H57233   3.451   0.365   3.880  1.8512  0.7430  0.3366
  424MOL0     H57234   3.254   0.532   4.051 -0.4927  2.2329 -0.7299
  424MOL0     H57235   3.328   0.556   3.885  0.0180 -1.7131 -0.8676
  424MOL0     H57236   3.026   0.248   3.885  0.6415 -0.7858  1.7533
  424MOL0     H57237   3.844   0.371   3.681  2.6784  0.3950 -1.2642
  424MOL0     H57238   4.013   0.317   3.539  1.3137  0.9438 -1.8576
  424MOL0     H57239   4.145   0.440   3.575  0.7453  1.3086  2.3930
  424MOL0     H57240   4.155   0.264   3.609 -2.0120 -2.0248  1.9624
  425MOL0     O57241   0.789   9.149   8.950  0.4832  0.1793 -0.4248
  425MOL0     C57242   0.836   9.250   8.897 -1.0329  0.0952  0.0390
  425MOL0     O57243   0.942   9.316   8.949  0.2567 -0.7862  0.1384
  425MOL0     C57244   0.991   9.286   9.073 -0.1078  0.4527 -0.5944
  425MOL0     C57245   1.072   9.168   9.096  0.0459  0.5322  1.0013
  425MOL0     C57246   1.147   9.148   9.210  0.4963 -0.3672  0.4957
  425MOL0     C57247   1.148   9.236   9.312 -0.4374 -0.4959 -0.4048
  425MOL0     O57248   1.245   9.214   9.409 -0.0039 -0.5173  0.1713
  425MOL0     C57249   1.253   9.309   9.511 -0.1177 -0.4370  0.3809
  425MOL0     C57250   1.355   9.259   9.605 -0.3750  0.6880  0.0506
  425MOL0     C57251   1.365   9.344   9.733  0.3241  0.3766  0.0668
  425MOL0     C57252   1.511   9.343   9.788  0.1487 -0.2283  0.0953
  425MOL0     C57253   1.504   9.381   9.930 -0.2737 -0.0897 -0.2488
  425MOL0     C57254   1.638   9.431   9.972  0.0496 -0.1355  0.5651
  425MOL0     C57255   1.634   9.473  10.121 -0.1980  0.8294 -0.1488
  425MOL0     C57256   1.772   9.512  10.165 -0.3901 -0.4404  0.0767
  425MOL0     N57257   1.872   9.404  10.160  1.0674  0.4381  0.8275
  425MOL0     C57258   1.904   9.310  10.258  0.1809 -0.0559 -0.0503
  425MOL0     C57259   2.026   9.263  10.220  0.0180  0.6539  0.3589
  425MOL0     C57260   2.115   9.162  10.287  0.3769  0.0653  0.3604
  425MOL0     C57261   2.091   9.033  10.202 -0.0181  0.0657 -0.7618
  425MOL0     C57262   1.961   8.945  10.249 -0.6685  0.0079  0.8125
  425MOL0     C57263   1.922   8.838  10.144  0.8567  0.1257 -0.9510
  425MOL0     O57264   1.786   8.792  10.189  0.1228  0.5386  0.0630
  425MOL0     C57265   1.732   8.684  10.122 -0.8157 -0.0374 -0.2094
  425MOL0     C57266   1.590   8.660  10.124  0.7321  0.3745 -0.6332
  425MOL0     C57267   1.531   8.564  10.040  0.8426  0.9815 -0.5147
  425MOL0     C57268   1.604   8.484   9.959 -0.0804 -0.2968 -0.3989
  425MOL0     C57269   1.539   8.377   9.877  0.0696 -0.0260  0.0822
  425MOL0     O57270   1.406   8.337   9.907 -0.1891 -0.4008  0.3152
  425MOL0     C57271   1.350   8.237   9.830  0.1346  0.7617 -0.0513
  425MOL0     C57272   1.369   8.106   9.861 -0.4171  0.0643  0.6275
  425MOL0     C57273   1.307   8.003   9.778 -0.0081 -0.7765  0.0158
  425MOL0     C57274   1.238   8.042   9.662 -0.4104  0.5182  0.6533
  425MOL0     O57275   1.179   7.960   9.565  0.1831 -0.2376 -0.4028
  425MOL0     C57276   1.156   7.816   9.604 -0.7378 -0.7337  0.0285
  425MOL0     C57277   1.116   7.734   9.487 -0.0127  0.5084  0.2302
  425MOL0     C57278   0.974   7.769   9.431  0.5826 -0.3273  0.1588
  425MOL0     C57279   0.912   7.648   9.344  0.7567  0.0353  0.3829
  425MOL0     C57280   0.784   7.701   9.280 -0.5576 -0.1685  0.5745
  425MOL0     C57281   0.703   7.595   9.198  0.2606  0.2000  0.2279
  425MOL0     C57282   0.575   7.644   9.134  0.9924  0.4129 -0.0307
  425MOL0     C57283   0.505   7.524   9.051  0.0995 -0.5862 -0.2830
  425MOL0    Cl57284   0.384   7.606   8.932  0.0386 -0.2610 -0.3143
  425MOL0     C57285   1.220   8.183   9.631 -1.1361 -0.0335 -0.0208
  425MOL0     C57286   1.284   8.280   9.709 -0.2467 -0.0824 -0.8012
  425MOL0     O57287   1.603   8.338   9.784  0.7370 -0.1939 -0.1207
  425MOL0     C57288   1.749   8.495   9.971 -0.2249  0.1943  0.6069
  425MOL0     C57289   1.806   8.602  10.041 -0.1175 -0.2757  1.2695
  425MOL0     N57290   2.066   9.312  10.097  0.4103 -0.5930 -1.0879
  425MOL0     N57291   1.970   9.396  10.063 -0.2645 -0.5137 -0.0094
  425MOL0     C57292   1.070   9.352   9.296 -0.0799  0.2031 -0.1605
  425MOL0     C57293   0.998   9.379   9.179 -0.0520  0.4950 -0.4001
  425MOL0     C57294   0.779   9.294   8.774  1.1036  0.4480  0.1589
  425MOL0     C57295   0.855   9.374   8.686 -0.3186  0.7309 -0.6812
  425MOL0     C57296   0.813   9.414   8.561  0.5338  0.1551 -0.3837
  425MOL0     C57297   0.687   9.380   8.514  0.1469  0.3264 -0.4833
  425MOL0     O57298   0.655   9.415   8.377 -0.0342  0.4133  0.1844
  425MOL0     C57299   0.522   9.386   8.328 -0.2638 -0.1570  0.6442
  425MOL0     C57300   0.504   9.412   8.179  0.2591 -0.1071 -0.3970
  425MOL0     C57301   0.359   9.390   8.122  0.2136 -0.3329  0.2424
  425MOL0     C57302   0.339   9.395   7.970 -0.3068 -0.3026  0.3261
  425MOL0     C57303   0.211   9.322   7.942 -0.3318  0.4007 -0.3265
  425MOL0     C57304   0.119   9.263   7.888 -0.6033 -0.6487 -0.0286
  425MOL0     C57305   0.601   9.307   8.608  0.7316 -0.7024 -0.4302
  425MOL0     C57306   0.641   9.281   8.742  0.4930  0.6287  0.2661
  425MOL0     C57307   0.539   9.224   8.837  0.3154 -0.2707  0.1154
  425MOL0     H57308   1.074   9.106   9.007  0.1134  1.1174  0.5835
  425MOL0     H57309   1.214   9.063   9.220  2.9012  1.3129 -0.3226
  425MOL0     H57310   1.266   9.408   9.466 -2.0866  0.3860  1.4987
  425MOL0     H57311   1.154   9.305   9.557  0.4360 -1.2290  1.5314
  425MOL0     H57312   1.445   9.242   9.546 -1.4142 -0.3234 -1.3400
  425MOL0     H57313   1.314   9.164   9.640 -0.4003  0.1694 -1.3133
  425MOL0     H57314   1.304   9.312   9.818  1.8510 -0.1889  0.9803
  425MOL0     H57315   1.346   9.444   9.693  0.4935 -0.6003 -2.6102
  425MOL0     H57316   1.555   9.243   9.777  0.3149 -0.2701  1.0845
  425MOL0     H57317   1.569   9.403   9.717  0.7431 -3.1319 -2.1031
  425MOL0     H57318   1.437   9.467   9.944  1.6643  1.5163 -0.5273
  425MOL0     H57319   1.470   9.297   9.992  0.8823 -0.8581 -0.6224
  425MOL0     H57320   1.716   9.355   9.955  0.0856  0.1601 -0.6905
  425MOL0     H57321   1.671   9.521   9.920  0.1468 -0.1130  0.6642
  425MOL0     H57322   1.589   9.400  10.190 -0.7641  1.1172 -0.2042
  425MOL0     H57323   1.578   9.566  10.132  1.5851  1.8387  0.8985
  425MOL0     H57324   1.811   9.594  10.105 -2.0558 -0.5943 -1.2843
  425MOL0     H57325   1.766   9.570  10.258  3.6291 -0.5286  0.5744
  425MOL0     H57326   1.854   9.284  10.350 -0.7310 -2.0460 -1.0308
  425MOL0     H57327   2.217   9.200  10.292  0.3561  0.0037  2.8678
  425MOL0     H57328   2.075   9.148  10.388  0.2338  0.3752  0.3474
  425MOL0     H57329   2.064   9.052  10.097 -2.2953 -3.7343 -1.0461
  425MOL0     H57330   2.180   8.970  10.213 -0.9902 -1.2527 -0.2536
  425MOL0     H57331   1.881   9.019  10.262  1.1053  2.1519  0.0891
  425MOL0     H57332   1.981   8.898  10.346 -0.3525  1.0544  1.2649
  425MOL0     H57333   1.997   8.760  10.155  0.7081  0.0987 -0.0640
  425MOL0     H57334   1.924   8.886  10.046  1.2161 -1.6090 -1.8245
  425MOL0     H57335   1.525   8.714  10.192  0.6514 -0.8061  0.2538
  425MOL0     H57336   1.425   8.559  10.016  0.3028  2.3089  1.3702
  425MOL0     H57337   1.428   8.065   9.943 -0.1944 -4.1376 -1.3248
  425MOL0     H57338   1.307   7.897   9.799 -3.7910 -0.9282 -0.1216
  425MOL0     H57339   1.251   7.785   9.649  1.4089  3.5965 -0.9477
  425MOL0     H57340   1.077   7.812   9.679 -2.4728 -1.1837 -1.7563
  425MOL0     H57341   1.191   7.746   9.409 -1.2202  0.2549 -1.0188
  425MOL0     H57342   1.121   7.631   9.523  0.3568  0.4267 -0.0548
  425MOL0     H57343   0.908   7.783   9.516 -0.3814  0.5893 -0.7169
  425MOL0     H57344   0.982   7.858   9.369 -1.1595 -0.6183 -0.5350
  425MOL0     H57345   0.888   7.562   9.407  3.7710 -0.4064  1.1070
  425MOL0     H57346   0.978   7.623   9.260  0.3395  1.9189 -0.5566
  425MOL0     H57347   0.812   7.787   9.218  1.4672 -1.6956 -0.7613
  425MOL0     H57348   0.728   7.741   9.365  1.4855 -1.8422  2.8473
  425MOL0     H57349   0.765   7.568   9.112 -0.2174 -1.6690  0.4179
  425MOL0     H57350   0.683   7.512   9.267 -3.2478 -1.5807 -2.6070
  425MOL0     H57351   0.603   7.729   9.070 -1.1854 -0.2905 -2.0525
  425MOL0     H57352   0.499   7.671   9.208  2.2476  1.4405  0.9410
  425MOL0     H57353   0.579   7.461   9.000  1.7361  1.2269 -0.2409
  425MOL0     H57354   0.444   7.468   9.122 -2.5192  1.7160 -0.5521
  425MOL0     H57355   1.159   8.217   9.548 -2.7718 -2.6530 -0.0348
  425MOL0     H57356   1.269   8.384   9.682 -0.7039  0.1831  0.4358
  425MOL0     H57357   1.819   8.426   9.925 -0.5366 -0.3204  0.8886
  425MOL0     H57358   1.914   8.611  10.043 -0.2804  3.3376  0.6132
  425MOL0     H57359   1.064   9.431   9.370 -0.1392 -1.0824  1.2456
  425MOL0     H57360   0.932   9.463   9.159  1.7868  1.2980 -3.7630
  425MOL0     H57361   0.955   9.404   8.714  0.3309 -0.3811 -1.6930
  425MOL0     H57362   0.886   9.478   8.512 -1.1294  3.3747  1.0369
  425MOL0     H57363   0.448   9.450   8.376 -3.0715 -1.7800 -1.1953
  425MOL0     H57364   0.482   9.288   8.356 -3.1631  0.4833 -0.9010
  425MOL0     H57365   0.569   9.345   8.121  4.0576 -0.3840  3.5903
  425MOL0     H57366   0.537   9.515   8.166  0.2042 -0.2348 -1.5913
  425MOL0     H57367   0.307   9.477   8.162  1.3194  2.2803 -3.5229
  425MOL0     H57368   0.321   9.298   8.167  1.0631 -0.3914  0.8692
  425MOL0     H57369   0.329   9.496   7.928  1.8639 -0.9367 -1.9323
  425MOL0     H57370   0.415   9.348   7.908  2.2343 -2.6424  4.6935
  425MOL0     H57371   0.035   9.232   7.830 -0.9432 -1.1403  0.7102
  425MOL0     H57372   0.499   9.279   8.586  0.2075  0.1947  0.7736
  425MOL0     H57373   0.505   9.130   8.794 -1.7054  0.8801 -0.9479
  425MOL0     H57374   0.580   9.210   8.937  3.9173 -2.8117 -1.4635
  425MOL0     H57375   0.440   9.271   8.842  0.5084 -0.0236  3.2088
  426MOL0     O57376   9.136   2.047   8.405 -0.1653 -0.2353 -0.4390
  426MOL0     C57377   9.069   1.953   8.359 -0.1003  0.6187 -0.8356
  426MOL0     O57378   9.094   1.816   8.393 -0.2092 -0.7823  0.1017
  426MOL0     C57379   9.214   1.780   8.456 -0.3006 -0.2661  0.0381
  426MOL0     C57380   9.300   1.706   8.380 -0.9716  0.5893 -0.1227
  426MOL0     C57381   9.431   1.660   8.428 -0.3859 -0.6162  0.5431
  426MOL0     C57382   9.463   1.703   8.553 -0.1602  0.7395  0.3697
  426MOL0     O57383   9.585   1.673   8.625  0.2284 -0.5187 -0.2338
  426MOL0     C57384   9.698   1.634   8.545 -0.6915 -0.3761  0.0438
  426MOL0     C57385   9.757   1.741   8.449 -0.5265 -0.8593 -0.5018
  426MOL0     C57386   9.883   1.685   8.376 -0.2750 -0.6776 -0.5861
  426MOL0     C57387   9.857   1.676   8.225 -0.0464 -0.5466 -0.5031
  426MOL0     C57388   9.994   1.625   8.166 -0.4791  0.7555 -0.4058
  426MOL0     C57389   9.993   1.586   8.018  0.9614  0.0271  0.5809
  426MOL0     C57390  10.125   1.527   7.956  1.0827 -0.2110 -0.2359
  426MOL0     C57391  10.234   1.638   7.951 -0.0078  0.5851  0.0105
  426MOL0     N57392  10.335   1.622   8.057  0.3476 -0.7717  0.6830
  426MOL0     C57393  10.389   1.737   8.106  0.0445  1.3560 -0.2493
  426MOL0     C57394  10.510   1.693   8.148 -0.5146  0.4033  0.0001
  426MOL0     C57395  10.603   1.799   8.205 -0.0403 -1.4059  0.3667
  426MOL0     C57396  10.755   1.763   8.208  0.3899 -0.2277  0.4970
  426MOL0     C57397  10.834   1.849   8.301  0.0135 -0.7550 -0.4959
  426MOL0     C57398  10.983   1.840   8.281  0.1372 -0.2626  0.1996
  426MOL0     O57399  11.062   1.891   8.387  0.3651 -0.6845  0.0845
  426MOL0     C57400  11.200   1.890   8.383  0.3952 -0.8982  0.1534
  426MOL0     C57401  11.272   1.835   8.276  1.0248 -0.2893  0.3268
  426MOL0     C57402  11.413   1.831   8.276 -0.2247 -0.3955 -0.6976
  426MOL0     C57403  11.479   1.876   8.397  0.7749  0.8163 -0.0053
  426MOL0     C57404  11.623   1.858   8.401  0.9673  0.0140  0.1478
  426MOL0     O57405  11.692   1.942   8.478  0.3511 -0.0177 -0.2206
  426MOL0     C57406  11.823   1.920   8.473  0.0634  0.0662  0.6140
  426MOL0     C57407  11.875   1.805   8.540  0.0930  0.5266 -0.1894
  426MOL0     C57408  12.010   1.787   8.556  0.2549  0.6215  0.2247
  426MOL0     C57409  12.092   1.874   8.477  0.5643 -0.4067 -0.1244
  426MOL0     O57410  12.228   1.874   8.456  0.5532 -0.4215  0.5610
  426MOL0     C57411  12.311   1.792   8.537 -0.5484  0.2186  0.7135
  426MOL0     C57412  12.460   1.839   8.534  0.7090  0.3456 -0.0692
  426MOL0     C57413  12.528   1.784   8.411  0.4011  0.3739  0.4207
  426MOL0     C57414  12.683   1.820   8.407  0.1868  0.1765 -0.9341
  426MOL0     C57415  12.759   1.778   8.272 -0.6281  0.4114 -0.3668
  426MOL0     C57416  12.792   1.628   8.272 -0.0847  0.4628  0.6230
  426MOL0     C57417  12.876   1.592   8.146 -0.1829 -0.2298 -0.9327
  426MOL0     C57418  12.922   1.448   8.146  0.4543 -1.2761 -0.0927
  426MOL0    Cl57419  13.079   1.433   8.058 -0.3447 -0.4303  0.1153
  426MOL0     C57420  12.039   1.981   8.412 -0.5242  0.7188 -0.4965
  426MOL0     C57421  11.911   2.006   8.413 -0.6132  1.0279 -0.5745
  426MOL0     O57422  11.671   1.776   8.317 -0.0289 -0.2261  0.6505
  426MOL0     C57423  11.411   1.948   8.500  0.9214  0.0993 -0.4562
  426MOL0     C57424  11.271   1.952   8.486  0.2113  0.0047 -0.5542
  426MOL0     N57425  10.534   1.559   8.109  0.4174  0.0621 -0.3883
  426MOL0     N57426  10.428   1.521   8.048  0.2874  0.4234 -0.2540
  426MOL0     C57427   9.381   1.773   8.636  0.6806  0.5242 -0.4466
  426MOL0     C57428   9.257   1.813   8.586  0.4930  0.4331  0.0792
  426MOL0     C57429   8.941   1.982   8.286 -0.5854 -0.3269  0.2122
  426MOL0     C57430   8.906   2.114   8.255 -0.2522 -0.4992  0.0634
  426MOL0     C57431   8.787   2.158   8.189 -0.1021  0.6381 -0.4597
  426MOL0     C57432   8.684   2.062   8.178 -0.5783 -0.0374  0.9676
  426MOL0     O57433   8.557   2.085   8.143 -0.0800  0.8374  0.6795
  426MOL0     C57434   8.523   2.213   8.109 -0.3554 -0.2773 -0.5620
  426MOL0     C57435   8.379   2.240   8.092  0.0881 -0.3949  0.0478
  426MOL0     C57436   8.367   2.373   8.008  0.5374  0.2773 -0.1321
  426MOL0     C57437   8.231   2.414   7.978  0.2489  0.0148 -0.4489
  426MOL0     C57438   8.158   2.433   8.104  0.7156 -0.1167 -0.6401
  426MOL0     C57439   8.097   2.431   8.213 -0.3858  0.8523  0.9932
  426MOL0     C57440   8.719   1.927   8.194  0.0548 -0.6219  0.1188
  426MOL0     C57441   8.843   1.889   8.246  0.4944 -0.1874  0.4528
  426MOL0     C57442   8.866   1.740   8.228 -0.2969  0.5087  0.3252
  426MOL0     H57443   9.271   1.671   8.281 -0.6608 -2.2636  0.7161
  426MOL0     H57444   9.486   1.584   8.375 -0.7838 -0.8529  0.4639
  426MOL0     H57445   9.780   1.598   8.608  0.9182 -1.1672 -2.3596
  426MOL0     H57446   9.667   1.544   8.490 -0.1874  0.4603 -1.6802
  426MOL0     H57447   9.786   1.832   8.504 -1.0946  0.0781 -1.6949
  426MOL0     H57448   9.680   1.787   8.386 -0.5326 -0.5716 -0.2918
  426MOL0     H57449   9.898   1.584   8.417  0.0018  0.5514  2.6456
  426MOL0     H57450   9.973   1.743   8.398  0.7405 -2.2547 -0.4068
  426MOL0     H57451   9.776   1.606   8.204 -1.4818  0.9192 -0.0785
  426MOL0     H57452   9.826   1.770   8.178  0.4367 -0.4628 -0.6668
  426MOL0     H57453  10.069   1.703   8.185 -0.0601 -0.1164  1.8213
  426MOL0     H57454  10.037   1.542   8.223  0.4005  0.3263 -1.6329
  426MOL0     H57455   9.913   1.512   8.011  2.0558 -0.9835 -2.6001
  426MOL0     H57456   9.957   1.677   7.968  0.0661 -0.4944  0.2522
  426MOL0     H57457  10.114   1.498   7.851 -1.3394 -0.0630 -0.0666
  426MOL0     H57458  10.161   1.444   8.019 -3.0085 -2.7146 -0.8619
  426MOL0     H57459  10.290   1.628   7.858  0.5994  2.7454  0.0907
  426MOL0     H57460  10.187   1.737   7.958  0.5136  0.7203  2.8067
  426MOL0     H57461  10.357   1.841   8.113  0.7812  1.5783 -0.0749
  426MOL0     H57462  10.584   1.894   8.154 -3.6182 -2.8047 -1.1872
  426MOL0     H57463  10.580   1.821   8.310  0.6496  1.0630  0.0771
  426MOL0     H57464  10.758   1.658   8.237  1.5796 -0.3720 -0.0953
  426MOL0     H57465  10.789   1.775   8.105  0.2018 -2.0238  0.1927
  426MOL0     H57466  10.811   1.814   8.402 -0.6420 -1.7645 -0.9746
  426MOL0     H57467  10.792   1.950   8.298  0.4431 -0.4934  1.2177
  426MOL0     H57468  11.004   1.877   8.180 -2.0247 -3.7762 -1.7468
  426MOL0     H57469  11.014   1.736   8.264  0.1530 -0.5795  1.9908
  426MOL0     H57470  11.216   1.785   8.198  3.9691 -1.1585 -1.3578
  426MOL0     H57471  11.469   1.803   8.187 -0.3665  1.4797 -1.4262
  426MOL0     H57472  11.809   1.737   8.593 -0.1468 -0.3211 -1.5430
  426MOL0     H57473  12.043   1.707   8.622  3.4674  0.8389 -0.9615
  426MOL0     H57474  12.288   1.811   8.642  4.5541  1.0075  1.9546
  426MOL0     H57475  12.291   1.688   8.511 -2.4372  0.5153  0.8767
  426MOL0     H57476  12.466   1.949   8.535  0.5298  0.4303 -2.4339
  426MOL0     H57477  12.504   1.804   8.628 -2.0275  2.7162  2.3201
  426MOL0     H57478  12.526   1.675   8.411 -0.8456  0.3921  0.0972
  426MOL0     H57479  12.475   1.829   8.328 -1.8452 -1.5809  0.6983
  426MOL0     H57480  12.731   1.784   8.498 -0.6468  1.6962  0.1538
  426MOL0     H57481  12.708   1.926   8.419  2.0240 -0.3826  0.7495
  426MOL0     H57482  12.849   1.838   8.286  0.1771 -0.9040  0.2846
  426MOL0     H57483  12.722   1.802   8.172 -0.2053  0.0630 -0.6116
  426MOL0     H57484  12.842   1.601   8.366 -1.0186 -1.2091  0.6807
  426MOL0     H57485  12.695   1.580   8.260  1.2653 -3.1524  2.3594
  426MOL0     H57486  12.965   1.655   8.152 -1.3460  1.5827 -1.8693
  426MOL0     H57487  12.820   1.605   8.053 -1.4050 -0.7920 -0.2998
  426MOL0     H57488  12.946   1.408   8.246  2.9607  2.2305  0.9047
  426MOL0     H57489  12.838   1.388   8.110  0.0533 -1.6051  1.3307
  426MOL0     H57490  12.108   2.055   8.372  0.2855 -0.2423 -0.9270
  426MOL0     H57491  11.875   2.091   8.357  2.7209  0.9361 -3.2071
  426MOL0     H57492  11.460   2.007   8.576 -1.1375 -1.3952  2.2260
  426MOL0     H57493  11.222   2.005   8.568  0.9662 -0.6161  0.3275
  426MOL0     H57494   9.408   1.815   8.732  1.1364  1.4790 -0.9797
  426MOL0     H57495   9.187   1.861   8.654  1.8840  0.0518  1.8322
  426MOL0     H57496   8.979   2.192   8.270 -1.3915  1.1896 -2.4077
  426MOL0     H57497   8.759   2.261   8.169 -1.8626  0.0460 -1.3115
  426MOL0     H57498   8.579   2.221   8.015  0.7202  0.4318  0.1103
  426MOL0     H57499   8.562   2.287   8.180 -0.9746  2.0316 -2.4842
  426MOL0     H57500   8.325   2.248   8.187 -1.3950 -2.4610 -0.5655
  426MOL0     H57501   8.329   2.161   8.036 -1.4047 -0.8821  1.9881
  426MOL0     H57502   8.407   2.342   7.911 -0.3906  1.8497 -1.0513
  426MOL0     H57503   8.422   2.453   8.058 -0.8026  0.9920  0.2385
  426MOL0     H57504   8.237   2.501   7.912 -1.4895  0.7733  0.3339
  426MOL0     H57505   8.184   2.334   7.920 -0.7331  0.3204 -0.0843
  426MOL0     H57506   8.058   2.413   8.311  2.9839 -1.1932  2.1190
  426MOL0     H57507   8.641   1.855   8.172 -2.7704  1.6958  1.7870
  426MOL0     H57508   8.840   1.694   8.324  1.7618  0.3112  0.8464
  426MOL0     H57509   8.806   1.686   8.155  1.2593 -0.5188 -0.2314
  426MOL0     H57510   8.970   1.722   8.199  0.3460  1.8155  1.6618
  427MOL0     O57511  10.508  10.713   1.436 -0.6260 -0.3040 -0.1781
  427MOL0     C57512  10.443  10.665   1.339  0.1935 -0.5238 -0.1665
  427MOL0     O57513  10.482  10.671   1.208  0.0922  0.4866  0.0300
  427MOL0     C57514  10.602  10.737   1.180  0.2056 -0.3935 -0.1316
  427MOL0     C57515  10.606  10.817   1.068 -0.0399 -0.3169  0.4575
  427MOL0     C57516  10.727  10.869   1.011 -0.7371 -0.1146 -0.1913
  427MOL0     C57517  10.848  10.838   1.069 -0.0515 -0.0957 -0.9857
  427MOL0     O57518  10.963  10.901   1.031 -0.6845 -0.6684 -0.0823
  427MOL0     C57519  11.035  10.832   0.934  0.0720 -0.2364 -0.5496
  427MOL0     C57520  11.161  10.918   0.928 -0.7713  0.6642  0.0263
  427MOL0     C57521  11.133  11.061   0.895 -0.0223  0.3779 -0.7593
  427MOL0     C57522  11.233  11.121   0.797  0.2932 -0.3168 -0.4594
  427MOL0     C57523  11.239  11.061   0.661  0.3472  0.2965 -0.3172
  427MOL0     C57524  11.320  11.137   0.562  0.2101 -0.6693 -0.4925
  427MOL0     C57525  11.300  11.058   0.426 -0.3427 -0.8733  0.4007
  427MOL0     C57526  11.400  11.111   0.310 -0.2187 -0.3144 -0.5369
  427MOL0     N57527  11.547  11.112   0.351 -0.0238  0.0821  0.4894
  427MOL0     C57528  11.616  11.220   0.399  0.1945  0.0754 -0.5481
  427MOL0     C57529  11.747  11.176   0.397 -0.4647 -0.4384  0.6552
  427MOL0     C57530  11.868  11.254   0.431 -0.2020  0.2534  0.1755
  427MOL0     C57531  11.905  11.232   0.579 -0.6527  0.2059 -0.0928
  427MOL0     C57532  12.005  11.110   0.603 -0.0601 -0.6705 -0.7428
  427MOL0     C57533  12.148  11.160   0.583  0.0442 -0.0982 -0.1161
  427MOL0     O57534  12.174  11.249   0.696  0.8937 -0.3091 -0.3396
  427MOL0     C57535  12.210  11.193   0.820 -0.0880  0.4687 -0.8171
  427MOL0     C57536  12.244  11.063   0.848 -0.1943 -0.3437 -0.1769
  427MOL0     C57537  12.277  11.020   0.975  1.2066 -0.4835 -0.6069
  427MOL0     C57538  12.278  11.112   1.082 -0.0661 -0.0810 -0.1965
  427MOL0     C57539  12.311  11.074   1.217  0.0565 -0.2360 -0.0748
  427MOL0     O57540  12.273  11.154   1.323 -0.0835  0.6323  0.5697
  427MOL0     C57541  12.358  11.144   1.442  0.6063  0.8908  0.0105
  427MOL0     C57542  12.483  11.196   1.461 -1.7179 -0.0346  0.0521
  427MOL0     C57543  12.548  11.204   1.583  0.0400 -0.5244  0.4340
  427MOL0     C57544  12.494  11.132   1.689  0.0298  0.1719 -0.1951
  427MOL0     O57545  12.557  11.117   1.809 -0.4379 -0.7512 -0.4946
  427MOL0     C57546  12.697  11.148   1.828  0.7855  0.2381  0.5328
  427MOL0     C57547  12.745  11.079   1.950 -0.8073  0.4527 -0.0383
  427MOL0     C57548  12.892  11.084   1.947 -0.1625  0.0752 -0.5013
  427MOL0     C57549  12.951  11.033   2.077 -0.0143 -0.6363  0.5894
  427MOL0     C57550  13.093  11.075   2.087 -0.4998  0.3298  0.3621
  427MOL0     C57551  13.160  11.003   2.199  0.3000 -0.1024  0.1383
  427MOL0     C57552  13.318  11.020   2.200 -0.5435  0.2571 -0.8917
  427MOL0     C57553  13.384  11.015   2.055  0.1121  0.5019  0.5342
  427MOL0    Cl57554  13.567  11.030   2.077  0.1091 -0.0768 -0.0081
  427MOL0     C57555  12.371  11.077   1.676  0.5442 -0.5230 -0.5436
  427MOL0     C57556  12.308  11.073   1.555  0.4962  0.0030  0.5915
  427MOL0     O57557  12.374  10.974   1.238 -0.1345  0.7741  0.7054
  427MOL0     C57558  12.244  11.244   1.059  0.2728  0.4398  0.1602
  427MOL0     C57559  12.204  11.280   0.932 -0.1691 -0.1495 -0.4913
  427MOL0     N57560  11.757  11.038   0.352 -0.0231 -1.0058 -0.8018
  427MOL0     N57561  11.632  11.004   0.326  0.4253 -0.3220 -0.1174
  427MOL0     C57562  10.842  10.775   1.196  0.2937 -0.8135 -0.5548
  427MOL0     C57563  10.721  10.714   1.246  0.4461 -0.2008  0.6137
  427MOL0     C57564  10.314  10.603   1.371  0.6627  0.7724 -0.3305
  427MOL0     C57565  10.246  10.533   1.258 -0.4396  0.2325  0.3972
  427MOL0     C57566  10.120  10.474   1.276  0.3364  0.1856  0.2718
  427MOL0     C57567  10.068  10.478   1.405 -0.9382 -1.4518 -0.1917
  427MOL0     O57568   9.949  10.415   1.438 -0.5731  0.1048 -0.5018
  427MOL0     C57569   9.872  10.343   1.334  0.7866 -0.1306  0.2760
  427MOL0     C57570   9.913  10.199   1.317 -0.1399  0.3759  0.2438
  427MOL0     C57571   9.888  10.119   1.451  0.5140  0.5165  0.3641
  427MOL0     C57572   9.903   9.970   1.429  0.8793  0.0934 -0.1058
  427MOL0     C57573   9.785   9.929   1.346 -0.2147  0.0569  0.3753
  427MOL0     C57574   9.677   9.894   1.304  0.7173 -1.0844  0.3087
  427MOL0     C57575  10.127  10.543   1.510 -0.2969 -0.4472  0.2909
  427MOL0     C57576  10.249  10.613   1.499  0.5399 -0.3942  0.9665
  427MOL0     C57577  10.296  10.697   1.612 -0.7053 -0.2929 -0.2160
  427MOL0     H57578  10.515  10.822   1.010  0.9943 -2.5701 -1.5235
  427MOL0     H57579  10.721  10.939   0.928 -1.0223 -1.4368 -1.3201
  427MOL0     H57580  11.057  10.730   0.966  1.5075 -0.7963 -3.0793
  427MOL0     H57581  10.972  10.827   0.844  0.4587 -0.9921 -0.7819
  427MOL0     H57582  11.218  10.881   0.843  0.2600  2.3631 -0.0656
  427MOL0     H57583  11.226  10.919   1.015 -1.6678  3.3446  0.7615
  427MOL0     H57584  11.135  11.112   0.992  2.0377 -2.9903  1.1374
  427MOL0     H57585  11.032  11.073   0.854  0.1370  2.6388 -0.6397
  427MOL0     H57586  11.212  11.227   0.782 -1.3320 -0.1051  2.5147
  427MOL0     H57587  11.329  11.109   0.848  0.7304  0.0558 -1.1855
  427MOL0     H57588  11.292  10.966   0.662  3.3055  1.7012  4.2100
  427MOL0     H57589  11.136  11.052   0.625  0.2870  2.1485 -0.7095
  427MOL0     H57590  11.283  11.240   0.563 -2.0482 -1.4263  0.4191
  427MOL0     H57591  11.422  11.127   0.599  0.4290 -1.8131 -1.3141
  427MOL0     H57592  11.196  11.072   0.394  0.5772 -0.9009 -2.9834
  427MOL0     H57593  11.322  10.951   0.437  2.1755 -0.3970  0.4606
  427MOL0     H57594  11.395  11.038   0.229  1.6408  1.2977 -2.2252
  427MOL0     H57595  11.362  11.210   0.285 -2.4489 -0.7296  0.9401
  427MOL0     H57596  11.563  11.306   0.437 -2.0585 -0.7494 -1.6194
  427MOL0     H57597  11.950  11.215   0.369 -0.2077 -0.4435  0.5974
  427MOL0     H57598  11.847  11.361   0.425  0.9968  0.5399  0.7532
  427MOL0     H57599  11.944  11.331   0.605  0.2509  0.0874 -0.9686
  427MOL0     H57600  11.815  11.218   0.640 -1.0798 -1.9396 -1.1366
  427MOL0     H57601  11.982  11.025   0.538 -1.8988 -0.4711 -0.4186
  427MOL0     H57602  11.992  11.074   0.706  0.5518 -1.3768 -0.9056
  427MOL0     H57603  12.155  11.214   0.488 -2.0802  0.6214  0.0788
  427MOL0     H57604  12.226  11.083   0.587 -0.3861 -0.5409 -0.1850
  427MOL0     H57605  12.245  10.988   0.770  1.3564 -0.4776 -0.0492
  427MOL0     H57606  12.304  10.916   0.995 -0.6383 -0.8280  0.4539
  427MOL0     H57607  12.541  11.240   1.381  0.7875 -1.9541  0.6637
  427MOL0     H57608  12.642  11.259   1.590 -1.2974  2.2306 -1.4744
  427MOL0     H57609  12.748  11.113   1.738 -0.0006  0.0586  0.1485
  427MOL0     H57610  12.713  11.255   1.843 -3.5843  1.0015  1.1031
  427MOL0     H57611  12.711  11.129   2.041 -0.4154  3.4286 -1.3982
  427MOL0     H57612  12.705  10.977   1.952  1.9678 -0.7315 -0.8162
  427MOL0     H57613  12.926  11.013   1.872  2.2718 -0.1413  0.6808
  427MOL0     H57614  12.930  11.185   1.927  0.0725  0.2762  0.8193
  427MOL0     H57615  12.935  10.925   2.071 -0.5511 -0.5478  0.4168
  427MOL0     H57616  12.885  11.066   2.158  3.0952  3.0772  1.9273
  427MOL0     H57617  13.101  11.184   2.087  3.2079  0.1757 -0.6205
  427MOL0     H57618  13.137  11.048   1.990 -0.3805 -2.0903  1.0243
  427MOL0     H57619  13.124  11.035   2.297  0.9064  1.0755  0.0039
  427MOL0     H57620  13.127  10.900   2.186 -0.0502  0.2317 -1.9881
  427MOL0     H57621  13.354  10.938   2.264  0.5483  0.1796 -1.5831
  427MOL0     H57622  13.354  11.108   2.254  0.3674 -0.3015 -0.5505
  427MOL0     H57623  13.352  10.919   2.013 -2.1051  1.9488 -1.2862
  427MOL0     H57624  13.350  11.108   2.009  3.3498  1.3003 -0.4552
  427MOL0     H57625  12.328  11.017   1.756 -0.1930 -0.9550 -1.2460
  427MOL0     H57626  12.221  11.009   1.547  1.9601 -2.5115  2.7526
  427MOL0     H57627  12.246  11.314   1.142  2.6033 -1.8777  2.2627
  427MOL0     H57628  12.178  11.379   0.894 -3.7702 -1.1409 -0.9891
  427MOL0     H57629  10.934  10.753   1.249  1.1201  0.4192 -1.4249
  427MOL0     H57630  10.715  10.654   1.336  0.4614 -0.2662  0.5715
  427MOL0     H57631  10.304  10.507   1.169 -3.9718 -0.6389 -1.8677
  427MOL0     H57632  10.068  10.428   1.193 -0.9760 -0.9214  1.6595
  427MOL0     H57633   9.862  10.404   1.244  1.1765  1.0461  1.0054
  427MOL0     H57634   9.771  10.337   1.376  0.5750  1.3801  0.0357
  427MOL0     H57635  10.018  10.186   1.288 -0.1838  1.9376 -0.6938
  427MOL0     H57636   9.852  10.174   1.230  1.7926  1.8858 -1.6426
  427MOL0     H57637   9.792  10.151   1.492 -0.2236  3.0768 -2.9785
  427MOL0     H57638   9.961  10.155   1.525 -1.1767 -0.4535  2.6504
  427MOL0     H57639   9.997   9.950   1.376  0.4669  4.3618 -2.9706
  427MOL0     H57640   9.897   9.920   1.526 -3.0506  0.0416 -0.2198
  427MOL0     H57641   9.587   9.852   1.264 -0.5476 -1.2398  3.1122
  427MOL0     H57642  10.085  10.550   1.610 -1.8598  1.4633 -0.4399
  427MOL0     H57643  10.322  10.799   1.583  0.9126  0.6009  3.6865
  427MOL0     H57644  10.213  10.706   1.682 -1.2738 -3.4569 -0.3363
  427MOL0     H57645  10.382  10.657   1.667 -0.7803  0.7816  0.7308
  428MOL0     O57646   1.824   2.099   3.066  0.5557  0.0916  0.5795
  428MOL0     C57647   1.829   2.223   3.053 -0.8057 -0.5310 -0.3109
  428MOL0     O57648   1.725   2.313   3.028  0.1139 -1.0839  0.7612
  428MOL0     C57649   1.595   2.269   3.020  0.6223 -0.2574 -0.1718
  428MOL0     C57650   1.546   2.241   2.897 -0.2619  1.1583  0.7811
  428MOL0     C57651   1.416   2.182   2.884  0.9744  0.1940  0.3031
  428MOL0     C57652   1.334   2.161   3.001  0.6732 -0.6402 -0.6441
  428MOL0     O57653   1.205   2.107   3.001  0.3393 -0.6890 -0.4681
  428MOL0     C57654   1.117   2.148   2.895 -0.0611  0.4666  0.4214
  428MOL0     C57655   1.108   2.302   2.873  0.5338  0.2639  0.8621
  428MOL0     C57656   0.968   2.362   2.924 -0.6082  0.3367 -0.7286
  428MOL0     C57657   0.967   2.419   3.070  0.3794 -0.1938  0.3924
  428MOL0     C57658   0.953   2.313   3.177 -0.9158 -0.2213  0.2909
  428MOL0     C57659   0.974   2.345   3.321 -0.9739  0.4833  0.5832
  428MOL0     C57660   1.122   2.345   3.351 -0.0840 -0.0160 -0.1982
  428MOL0     C57661   1.150   2.323   3.501  0.4314  0.2426  0.7338
  428MOL0     N57662   1.296   2.324   3.529  0.6713 -0.4617  0.5119
  428MOL0     C57663   1.371   2.213   3.513  0.1974 -0.6599 -0.2969
  428MOL0     C57664   1.503   2.252   3.547  0.0295  0.1248 -0.4136
  428MOL0     C57665   1.631   2.163   3.533 -0.0304 -0.3004  0.3641
  428MOL0     C57666   1.721   2.164   3.652 -0.3595  0.4372  0.4794
  428MOL0     C57667   1.729   2.302   3.712 -0.3071 -0.2083  0.9234
  428MOL0     C57668   1.849   2.313   3.801  0.3819  0.2536  0.7252
  428MOL0     O57669   1.844   2.449   3.857 -1.1411 -0.1544  0.4011
  428MOL0     C57670   1.945   2.512   3.922  0.1767  0.0734  0.1787
  428MOL0     C57671   1.934   2.617   4.012  0.1239 -0.0250  0.3301
  428MOL0     C57672   2.031   2.660   4.101  0.2224  0.0741 -1.0322
  428MOL0     C57673   2.159   2.598   4.105  1.1508  0.3764  0.2432
  428MOL0     C57674   2.267   2.638   4.192  0.4075  0.1839 -1.1846
  428MOL0     O57675   2.243   2.727   4.292  0.6897  0.1392  0.8131
  428MOL0     C57676   2.331   2.729   4.402 -0.4498 -0.5035  0.4112
  428MOL0     C57677   2.387   2.849   4.432 -0.2967  0.6671 -0.2814
  428MOL0     C57678   2.478   2.863   4.542  1.6892  0.9427  0.3697
  428MOL0     C57679   2.521   2.751   4.613  1.0901  0.0643  0.7629
  428MOL0     O57680   2.609   2.774   4.714  0.3639 -0.0750  0.0612
  428MOL0     C57681   2.540   2.769   4.848 -0.4385 -0.6175  0.8416
  428MOL0     C57682   2.646   2.730   4.955  0.0195  0.2711 -0.5202
  428MOL0     C57683   2.777   2.801   4.939 -0.3638  1.0038 -0.3306
  428MOL0     C57684   2.840   2.825   5.070  0.6386 -0.0063 -0.2327
  428MOL0     C57685   2.957   2.928   5.054  0.1331  0.6929 -0.7677
  428MOL0     C57686   3.034   2.943   5.191  0.5323 -0.6640  1.2581
  428MOL0     C57687   3.081   2.807   5.233  0.4363  0.5307  0.4749
  428MOL0     C57688   3.195   2.817   5.331  0.9226  0.4807 -0.9021
  428MOL0    Cl57689   3.337   2.850   5.233  0.0100 -0.2784  0.2014
  428MOL0     C57690   2.467   2.620   4.567 -0.2510  0.7042  0.1739
  428MOL0     C57691   2.373   2.615   4.467 -0.2987 -0.3674 -0.4535
  428MOL0     O57692   2.377   2.578   4.174 -0.1540 -0.0325  0.6059
  428MOL0     C57693   2.176   2.497   4.013  0.2041  0.3458 -0.3992
  428MOL0     C57694   2.076   2.456   3.920 -0.3637  0.3050 -0.4446
  428MOL0     N57695   1.500   2.385   3.575 -0.0097 -0.3676  0.1085
  428MOL0     N57696   1.372   2.431   3.564 -1.0415  0.0181 -0.9953
  428MOL0     C57697   1.401   2.179   3.128 -0.0758 -0.0752 -0.1895
  428MOL0     C57698   1.525   2.238   3.134 -0.0246  0.5564 -0.7615
  428MOL0     C57699   1.962   2.288   3.077 -0.3779 -0.2216 -0.0345
  428MOL0     C57700   1.990   2.407   3.017 -0.0690 -0.3818  0.4025
  428MOL0     C57701   2.109   2.470   3.029  0.2028 -0.2330 -1.3407
  428MOL0     C57702   2.219   2.412   3.101  0.1547  0.0276  0.2320
  428MOL0     O57703   2.354   2.451   3.099 -0.0006  1.5000  0.0605
  428MOL0     C57704   2.387   2.590   3.090  0.8203 -0.2760  0.5627
  428MOL0     C57705   2.406   2.673   3.216 -0.0813 -0.5040  0.0847
  428MOL0     C57706   2.516   2.619   3.298  0.9726 -0.0931  1.0665
  428MOL0     C57707   2.660   2.661   3.277  0.4307  0.7265  0.9575
  428MOL0     C57708   2.749   2.564   3.358 -0.8029  0.4983 -0.7899
  428MOL0     C57709   2.823   2.495   3.439 -0.8301  0.1311 -0.0263
  428MOL0     C57710   2.189   2.300   3.177 -0.4847  0.2060 -0.3478
  428MOL0     C57711   2.061   2.235   3.174 -0.1504 -0.4256 -0.2421
  428MOL0     C57712   2.039   2.131   3.273 -1.2136  0.6148 -1.0550
  428MOL0     H57713   1.608   2.260   2.810 -1.4362  0.6849 -0.1983
  428MOL0     H57714   1.368   2.162   2.789 -1.1225  1.6816  0.9849
  428MOL0     H57715   1.160   2.105   2.804 -0.4087 -0.3406  0.6307
  428MOL0     H57716   1.019   2.102   2.911  1.2220 -2.2646  1.0566
  428MOL0     H57717   1.117   2.328   2.767  1.3737 -2.1917  0.2541
  428MOL0     H57718   1.198   2.349   2.914  0.6297  2.8968 -1.9541
  428MOL0     H57719   0.900   2.279   2.902 -0.4875 -0.0484  0.2884
  428MOL0     H57720   0.953   2.448   2.859 -3.0522  0.3474 -0.2513
  428MOL0     H57721   1.049   2.486   3.099 -0.2406  0.2531  1.1786
  428MOL0     H57722   0.871   2.470   3.063  0.3265 -0.5049 -2.4963
  428MOL0     H57723   0.850   2.279   3.164 -1.3089  1.9061 -4.0563
  428MOL0     H57724   1.014   2.226   3.153 -0.2893  0.2778  0.0366
  428MOL0     H57725   0.932   2.444   3.338  1.3540  2.3702 -3.3436
  428MOL0     H57726   0.925   2.270   3.385 -1.7801  0.2673 -0.2602
  428MOL0     H57727   1.164   2.440   3.318 -1.4132  0.1488 -1.5346
  428MOL0     H57728   1.174   2.274   3.286 -0.8860  1.0956 -2.1281
  428MOL0     H57729   1.104   2.405   3.557  1.3787  0.6610  0.9154
  428MOL0     H57730   1.101   2.229   3.531  0.2371 -0.6002 -1.9665
  428MOL0     H57731   1.351   2.114   3.472  0.1596 -0.4267 -0.8417
  428MOL0     H57732   1.599   2.059   3.518  0.8242 -0.4997 -0.1760
  428MOL0     H57733   1.682   2.198   3.443 -0.5780  2.3749  1.0204
  428MOL0     H57734   1.690   2.103   3.737 -1.5554 -0.5939 -0.6681
  428MOL0     H57735   1.825   2.131   3.640  0.6081  2.0978  3.2250
  428MOL0     H57736   1.647   2.333   3.777  0.5245  2.4306  0.8137
  428MOL0     H57737   1.741   2.375   3.632  2.0009  1.7213  2.8673
  428MOL0     H57738   1.947   2.293   3.756  1.3184  1.7103  2.0355
  428MOL0     H57739   1.845   2.236   3.879 -1.5336 -0.1609  0.2634
  428MOL0     H57740   1.836   2.663   4.023  0.2760  0.1229  1.1216
  428MOL0     H57741   2.013   2.739   4.172 -0.8217 -1.1667  0.1386
  428MOL0     H57742   2.355   2.942   4.386 -2.1867  2.1011  3.4955
  428MOL0     H57743   2.515   2.957   4.580 -0.1376  0.2472  4.3755
  428MOL0     H57744   2.503   2.871   4.867  0.7215 -0.1906  0.9192
  428MOL0     H57745   2.452   2.705   4.850 -1.3121  0.5237  0.3800
  428MOL0     H57746   2.613   2.755   5.057  1.7337  0.3773  0.0399
  428MOL0     H57747   2.665   2.623   4.946 -2.9897 -0.2478 -1.8470
  428MOL0     H57748   2.843   2.755   4.865 -1.3080  1.7109 -1.6521
  428MOL0     H57749   2.747   2.902   4.908 -5.0226  0.2655  0.9555
  428MOL0     H57750   2.868   2.727   5.109 -1.3661  0.9635  4.2962
  428MOL0     H57751   2.769   2.873   5.139  1.1211  0.3003  0.0542
  428MOL0     H57752   2.919   3.024   5.019  1.3432  0.4004 -3.1258
  428MOL0     H57753   3.019   2.901   4.968 -2.2124  1.0785 -2.6470
  428MOL0     H57754   3.120   3.010   5.185  0.0025  0.0526  1.5297
  428MOL0     H57755   2.967   2.989   5.264 -0.9511  0.2888 -0.6017
  428MOL0     H57756   3.111   2.756   5.141  0.9076  1.9878 -0.2026
  428MOL0     H57757   3.003   2.745   5.279  1.0064 -1.9824 -1.6717
  428MOL0     H57758   3.169   2.900   5.397  0.8363  0.0314 -0.3664
  428MOL0     H57759   3.198   2.718   5.379 -3.5017  0.4173 -0.3070
  428MOL0     H57760   2.520   2.536   4.610  1.1288  1.5190  0.1287
  428MOL0     H57761   2.334   2.518   4.438 -0.8293 -0.3469  0.1717
  428MOL0     H57762   2.275   2.454   4.002  1.7545  3.4597  0.2084
  428MOL0     H57763   2.090   2.373   3.852 -1.0184 -0.7338  0.6471
  428MOL0     H57764   1.352   2.142   3.218 -0.0595 -0.8405 -0.4876
  428MOL0     H57765   1.584   2.253   3.223 -0.3385  2.7284 -0.8619
  428MOL0     H57766   1.913   2.456   2.957  1.0546 -0.2376 -0.9771
  428MOL0     H57767   2.124   2.560   2.970 -3.2153  2.3508  1.2914
  428MOL0     H57768   2.302   2.629   3.033  0.4447 -0.9466  0.6462
  428MOL0     H57769   2.480   2.594   3.032 -0.3826  2.9989 -1.3628
  428MOL0     H57770   2.316   2.684   3.277  1.2059 -1.2429  2.2835
  428MOL0     H57771   2.425   2.776   3.186  1.3942 -0.5130  0.8757
  428MOL0     H57772   2.507   2.510   3.295 -4.3644  0.1258 -0.7424
  428MOL0     H57773   2.490   2.651   3.399  1.0669  3.1767  0.1857
  428MOL0     H57774   2.676   2.655   3.169  2.6988  0.0422  1.3030
  428MOL0     H57775   2.681   2.761   3.317  3.0102  0.0777  1.3445
  428MOL0     H57776   2.897   2.444   3.498 -0.5584 -1.0175 -1.3286
  428MOL0     H57777   2.266   2.261   3.242 -1.6916 -0.4605  0.7126
  428MOL0     H57778   1.948   2.151   3.331 -1.7739 -2.2553 -0.7900
  428MOL0     H57779   2.013   2.034   3.229 -1.9352 -1.4998  3.4534
  428MOL0     H57780   2.121   2.109   3.341 -1.5850 -0.8070 -1.0356
  429MOL0     O57781   3.656   6.178   7.779 -0.4300  0.9426  0.6157
  429MOL0     C57782   3.572   6.269   7.758 -0.7295 -0.3936 -0.2694
  429MOL0     O57783   3.607   6.396   7.720 -0.6638 -0.8347  0.5254
  429MOL0     C57784   3.740   6.435   7.728 -0.0261 -0.0695 -0.1274
  429MOL0     C57785   3.807   6.459   7.616  0.0156  0.3139  0.3255
  429MOL0     C57786   3.942   6.493   7.611  0.2515 -0.4395  0.4786
  429MOL0     C57787   4.015   6.501   7.728  0.1579  0.0362  0.4241
  429MOL0     O57788   4.151   6.533   7.717 -0.0768 -0.3989 -0.4402
  429MOL0     C57789   4.247   6.436   7.709  0.3344  1.4540  0.1151
  429MOL0     C57790   4.373   6.478   7.790  0.4169  0.3879 -0.1653
  429MOL0     C57791   4.486   6.368   7.803 -0.5098 -0.3564  0.1718
  429MOL0     C57792   4.607   6.459   7.833 -0.4772  0.9570 -0.3274
  429MOL0     C57793   4.732   6.382   7.880  0.1895  0.6211 -0.4080
  429MOL0     C57794   4.804   6.328   7.761  1.2038  0.2938 -0.4173
  429MOL0     C57795   4.926   6.240   7.798  0.1444 -0.0847 -0.1184
  429MOL0     C57796   4.983   6.168   7.680 -0.3404 -0.5425 -0.5724
  429MOL0     N57797   5.031   6.271   7.586 -0.5739 -0.4920 -0.0894
  429MOL0     C57798   5.147   6.343   7.581  0.9124 -0.4112 -0.2757
  429MOL0     C57799   5.153   6.406   7.462 -0.3988  0.6189  0.1331
  429MOL0     C57800   5.270   6.494   7.419  0.2231  0.5171 -0.2929
  429MOL0     C57801   5.329   6.435   7.285  1.2355 -0.8622 -0.0321
  429MOL0     C57802   5.408   6.313   7.325  1.1049  0.0001  0.1007
  429MOL0     C57803   5.437   6.228   7.199  0.8042 -0.5480  0.0776
  429MOL0     O57804   5.532   6.294   7.110 -0.0843  0.1025  0.8186
  429MOL0     C57805   5.638   6.221   7.067  0.0340  0.6528  0.3476
  429MOL0     C57806   5.648   6.083   7.042 -0.4995 -0.4046  0.7003
  429MOL0     C57807   5.760   6.033   6.977  0.3037  0.2227  0.3566
  429MOL0     C57808   5.871   6.114   6.946  1.7313  0.2758 -0.9476
  429MOL0     C57809   5.977   6.052   6.866 -0.0602  0.4972  0.6494
  429MOL0     O57810   5.979   5.919   6.874  0.6815  0.3300 -0.6157
  429MOL0     C57811   6.106   5.868   6.861  0.1371 -0.6137 -0.2802
  429MOL0     C57812   6.217   5.914   6.929 -0.2440 -0.1696  0.6330
  429MOL0     C57813   6.347   5.869   6.889  0.4971 -0.7536 -0.1211
  429MOL0     C57814   6.362   5.766   6.793 -0.6008 -1.2165  0.4676
  429MOL0     O57815   6.487   5.717   6.763 -0.3871  0.0242 -0.9244
  429MOL0     C57816   6.599   5.806   6.730 -0.6681  1.2669  0.5665
  429MOL0     C57817   6.648   5.742   6.602 -0.1189  0.1860  0.5323
  429MOL0     C57818   6.718   5.612   6.623 -0.0267  0.0477  0.0629
  429MOL0     C57819   6.871   5.620   6.661 -0.5219  0.0182 -0.5950
  429MOL0     C57820   6.956   5.715   6.569  0.1575  0.2691  0.4818
  429MOL0     C57821   7.100   5.717   6.594  0.0225 -1.1384  0.5156
  429MOL0     C57822   7.170   5.606   6.517 -0.5542  0.6264 -0.4059
  429MOL0     C57823   7.323   5.606   6.549  0.2541  0.1614  0.0696
  429MOL0    Cl57824   7.411   5.738   6.463 -0.2522 -0.0228 -0.1736
  429MOL0     C57825   6.247   5.701   6.755 -0.4427 -0.5248 -0.0966
  429MOL0     C57826   6.119   5.756   6.782 -0.7247  0.6007 -0.0435
  429MOL0     O57827   6.054   6.127   6.793  0.9287 -0.1161 -0.3636
  429MOL0     C57828   5.858   6.254   6.977  0.5103  0.5912  0.8229
  429MOL0     C57829   5.742   6.301   7.036 -0.2111  0.5594  0.5737
  429MOL0     N57830   5.032   6.393   7.401  0.3074 -0.3617 -0.2661
  429MOL0     N57831   4.968   6.303   7.470 -0.1349  0.7262  0.4680
  429MOL0     C57832   3.938   6.499   7.846 -0.1509  0.7970 -0.0196
  429MOL0     C57833   3.801   6.462   7.845 -0.5066 -0.2670 -0.1588
  429MOL0     C57834   3.425   6.242   7.763 -0.4702  0.2117  0.9895
  429MOL0     C57835   3.344   6.361   7.747  1.0094  0.1869 -0.7460
  429MOL0     C57836   3.207   6.358   7.766  0.3072 -0.0451 -0.8504
  429MOL0     C57837   3.135   6.241   7.787  0.2896 -0.4120 -0.0544
  429MOL0     O57838   2.997   6.254   7.789 -0.5954 -0.6542  0.0408
  429MOL0     C57839   2.907   6.145   7.770 -0.3848  1.7971  0.4639
  429MOL0     C57840   2.761   6.199   7.730 -0.2081  0.5070  0.5787
  429MOL0     C57841   2.669   6.084   7.692  1.2379  1.5748  0.1436
  429MOL0     C57842   2.526   6.118   7.648  0.5278  0.8116 -0.3868
  429MOL0     C57843   2.444   5.999   7.612  0.1718 -1.1038  0.1302
  429MOL0     C57844   2.397   5.905   7.561  0.4787  0.6100 -1.2261
  429MOL0     C57845   3.209   6.117   7.794  0.1507  0.4739  0.2339
  429MOL0     C57846   3.352   6.121   7.779 -0.1868  0.2320 -0.4139
  429MOL0     C57847   3.419   5.994   7.785  0.8083 -0.2062 -0.6820
  429MOL0     H57848   3.748   6.444   7.526 -2.1951 -0.6656  1.8439
  429MOL0     H57849   3.993   6.509   7.517 -2.3039  0.6193 -0.7938
  429MOL0     H57850   4.222   6.338   7.751  2.9605  0.4030 -0.5761
  429MOL0     H57851   4.258   6.414   7.602  1.7333  0.0349  0.5145
  429MOL0     H57852   4.330   6.496   7.889  0.0396  1.3727 -0.4999
  429MOL0     H57853   4.415   6.571   7.751  1.4268 -0.1581 -0.4190
  429MOL0     H57854   4.512   6.313   7.713 -2.1759 -0.5063 -0.2443
  429MOL0     H57855   4.470   6.293   7.882  2.0443  0.4411  1.5447
  429MOL0     H57856   4.634   6.520   7.746  2.3201  1.4494  0.7776
  429MOL0     H57857   4.576   6.530   7.911 -0.8977  0.2253  0.1881
  429MOL0     H57858   4.798   6.458   7.923 -1.4165  1.0187  1.5128
  429MOL0     H57859   4.718   6.301   7.952  1.5512 -0.7618 -1.6386
  429MOL0     H57860   4.739   6.284   7.685  0.1560  0.3138  0.4385
  429MOL0     H57861   4.833   6.424   7.716 -0.5016  1.4330  0.7720
  429MOL0     H57862   4.893   6.162   7.868  0.1067 -0.4626 -0.5551
  429MOL0     H57863   5.008   6.301   7.838 -0.3513 -0.3304  1.3337
  429MOL0     H57864   5.065   6.103   7.711 -0.9858 -1.0818  0.0380
  429MOL0     H57865   4.896   6.121   7.633 -2.8362  3.3978 -0.3679
  429MOL0     H57866   5.203   6.366   7.671  2.7543 -0.5842 -1.3387
  429MOL0     H57867   5.217   6.589   7.408 -3.5826 -1.3741 -0.0057
  429MOL0     H57868   5.332   6.502   7.508 -0.9692  1.3139  0.4980
  429MOL0     H57869   5.247   6.427   7.213 -0.3145  1.1728  1.3679
  429MOL0     H57870   5.395   6.511   7.241  0.0837  0.3929  0.3220
  429MOL0     H57871   5.353   6.243   7.390  2.4521 -0.3929  0.8542
  429MOL0     H57872   5.497   6.352   7.374 -1.0224  2.3277  2.4436
  429MOL0     H57873   5.349   6.207   7.138 -0.7746 -3.4904  2.9831
  429MOL0     H57874   5.470   6.128   7.231  1.1549 -0.2584  0.6400
  429MOL0     H57875   5.563   6.017   7.049 -0.6149 -0.7329 -2.3259
  429MOL0     H57876   5.752   5.928   6.953 -3.2511  0.3543  0.3765
  429MOL0     H57877   6.213   5.995   7.001  0.2244  0.4303  0.0001
  429MOL0     H57878   6.441   5.899   6.933  0.6778 -3.4563  1.5819
  429MOL0     H57879   6.573   5.911   6.718  0.6592  1.4829 -0.9268
  429MOL0     H57880   6.675   5.778   6.804  1.4007 -2.7293 -2.6300
  429MOL0     H57881   6.567   5.745   6.530  0.3912  0.5590 -0.0379
  429MOL0     H57882   6.721   5.809   6.556  1.2790 -2.5499 -1.5633
  429MOL0     H57883   6.664   5.552   6.698  1.1714 -3.4070 -1.6321
  429MOL0     H57884   6.710   5.561   6.527  0.0227 -1.7296  0.9499
  429MOL0     H57885   6.911   5.518   6.655 -0.2577  0.1051 -0.3137
  429MOL0     H57886   6.881   5.658   6.763  0.2077  0.8793 -0.9700
  429MOL0     H57887   6.920   5.817   6.582  1.5468  0.8168  0.1969
  429MOL0     H57888   6.940   5.685   6.465 -1.7297  0.7351  0.6054
  429MOL0     H57889   7.141   5.812   6.558 -0.2085 -1.9422 -2.0862
  429MOL0     H57890   7.123   5.708   6.701 -0.0379 -0.1563  0.6256
  429MOL0     H57891   7.155   5.633   6.413  0.2091  2.9280  0.0175
  429MOL0     H57892   7.120   5.510   6.532  1.1017 -0.1208  0.7083
  429MOL0     H57893   7.353   5.613   6.654  0.8453 -2.4450  0.1520
  429MOL0     H57894   7.377   5.515   6.518  0.3968  0.5909 -0.9955
  429MOL0     H57895   6.272   5.619   6.689  2.9204  0.2719  0.0373
  429MOL0     H57896   6.032   5.705   6.743  1.0004 -2.2247 -0.4495
  429MOL0     H57897   5.940   6.325   6.968  0.2855  0.9314  1.4254
  429MOL0     H57898   5.736   6.408   7.057  1.8705  0.8009  0.1413
  429MOL0     H57899   3.979   6.536   7.939  0.5534  0.2796 -0.1206
  429MOL0     H57900   3.760   6.448   7.944 -1.1968 -0.2166 -0.4302
  429MOL0     H57901   3.391   6.458   7.738 -1.7514  1.7647  0.5246
  429MOL0     H57902   3.152   6.450   7.745 -0.6496 -0.5176 -0.4726
  429MOL0     H57903   2.901   6.092   7.865  1.6209  2.1896  0.8542
  429MOL0     H57904   2.937   6.067   7.699  0.3062  1.0348  1.5684
  429MOL0     H57905   2.756   6.271   7.648 -2.0082 -0.6214 -0.3692
  429MOL0     H57906   2.720   6.255   7.815  1.9480  2.2542  0.5466
  429MOL0     H57907   2.667   6.013   7.776 -1.6600 -0.7506 -1.6578
  429MOL0     H57908   2.720   6.037   7.607  2.7479 -1.9835  2.7393
  429MOL0     H57909   2.475   6.175   7.727 -2.0105 -0.7010 -0.8084
  429MOL0     H57910   2.529   6.182   7.559 -1.0366  1.9198  0.3098
  429MOL0     H57911   2.347   5.816   7.527 -1.6019  2.2670 -2.7984
  429MOL0     H57912   3.157   6.028   7.827 -0.4897  2.1283  4.3835
  429MOL0     H57913   3.496   5.991   7.708  0.2357  1.2865 -1.3362
  429MOL0     H57914   3.461   5.987   7.886 -0.4154  0.3399 -0.1114
  429MOL0     H57915   3.354   5.907   7.771  1.0908 -0.9560  2.0395
  430MOL0     O57916   1.023   3.854   4.386  0.0196 -0.4877  1.2387
  430MOL0     C57917   0.939   3.944   4.372 -0.5371 -0.3146 -0.1100
  430MOL0     O57918   0.952   4.044   4.272  0.6556 -0.5107 -0.3297
  430MOL0     C57919   1.077   4.051   4.216 -0.7854  0.0020 -0.9800
  430MOL0     C57920   1.181   4.119   4.286  0.1994 -0.8991 -0.3199
  430MOL0     C57921   1.304   4.142   4.225  0.0477 -0.7037  0.5530
  430MOL0     C57922   1.331   4.091   4.094 -0.4195 -0.0215 -0.3958
  430MOL0     O57923   1.458   4.099   4.034  0.7312  0.3693  0.4567
  430MOL0     C57924   1.535   4.210   4.070  0.4448  0.3311  0.1582
  430MOL0     C57925   1.660   4.168   4.150  0.6169  0.7005  0.2590
  430MOL0     C57926   1.637   4.145   4.305  0.2936 -0.3829 -0.1181
  430MOL0     C57927   1.766   4.110   4.369 -0.8134 -0.6431  0.0358
  430MOL0     C57928   1.744   4.065   4.514  0.5665 -0.0265  0.5780
  430MOL0     C57929   1.705   4.176   4.609 -0.3932 -0.1954 -0.7921
  430MOL0     C57930   1.728   4.145   4.756  0.1004 -0.0262 -0.6692
  430MOL0     C57931   1.614   4.052   4.795  0.9046  1.4939 -0.6496
  430MOL0     N57932   1.653   3.979   4.915 -0.0517  0.3767  0.0164
  430MOL0     C57933   1.746   3.885   4.932 -0.5632 -0.7684  0.4122
  430MOL0     C57934   1.730   3.854   5.063  0.2125 -0.2028 -0.2706
  430MOL0     C57935   1.790   3.733   5.132  0.1575  0.1737  0.1301
  430MOL0     C57936   1.688   3.617   5.137 -0.2693  0.6934 -0.6548
  430MOL0     C57937   1.746   3.479   5.184 -0.1937 -0.2195  0.4395
  430MOL0     C57938   1.630   3.384   5.190  0.1931  0.1495  0.0460
  430MOL0     O57939   1.665   3.247   5.205 -0.3421 -0.0507 -0.4957
  430MOL0     C57940   1.562   3.172   5.247  1.1052 -0.2948 -0.9989
  430MOL0     C57941   1.586   3.080   5.346 -0.1590  0.4267 -0.3080
  430MOL0     C57942   1.491   2.990   5.405  0.1867 -0.2054  0.3218
  430MOL0     C57943   1.353   3.011   5.374 -0.1227 -0.6117 -0.6013
  430MOL0     C57944   1.246   2.933   5.427  0.1612 -0.3621  0.0557
  430MOL0     O57945   1.118   2.952   5.381 -0.2280 -0.6835 -0.5337
  430MOL0     C57946   1.018   2.878   5.441 -1.0129  0.3522  0.3433
  430MOL0     C57947   0.927   2.810   5.357 -0.0339 -0.0544  0.3346
  430MOL0     C57948   0.831   2.723   5.415 -0.2014 -1.0009  0.5758
  430MOL0     C57949   0.822   2.717   5.559  0.3663 -0.5064  0.1260
  430MOL0     O57950   0.726   2.645   5.627 -0.2643  0.1025  0.2182
  430MOL0     C57951   0.651   2.532   5.571  0.1339 -0.2288  0.2430
  430MOL0     C57952   0.606   2.443   5.692 -0.3284 -0.1832 -0.4772
  430MOL0     C57953   0.515   2.523   5.790 -0.3823  0.1075  0.9324
  430MOL0     C57954   0.365   2.503   5.764 -0.0929 -0.6394  1.2904
  430MOL0     C57955   0.273   2.605   5.835  0.2919 -0.4208 -0.6398
  430MOL0     C57956   0.260   2.727   5.740 -0.2430 -0.3133 -0.5097
  430MOL0     C57957   0.160   2.827   5.806  0.7302  0.3897 -0.0081
  430MOL0     C57958   0.143   2.959   5.734  0.3302  0.0927 -0.2067
  430MOL0    Cl57959   0.304   3.034   5.697  0.1748 -0.4159 -0.4811
  430MOL0     C57960   0.903   2.798   5.642 -0.2124  0.3588 -0.6540
  430MOL0     C57961   1.003   2.877   5.575  0.9392  0.1744  0.0926
  430MOL0     O57962   1.283   2.839   5.498  0.2196  0.2063  0.1583
  430MOL0     C57963   1.332   3.108   5.276 -0.4108  0.0139 -0.5877
  430MOL0     C57964   1.431   3.191   5.213  0.0635 -0.2742 -0.1926
  430MOL0     N57965   1.617   3.918   5.119 -0.2472  0.8632  0.4477
  430MOL0     N57966   1.579   4.000   5.028 -0.5259 -0.1732  0.1898
  430MOL0     C57967   1.234   4.015   4.036  0.8535 -0.2176  1.2320
  430MOL0     C57968   1.114   4.002   4.090 -0.1646 -0.6222 -0.3466
  430MOL0     C57969   0.841   3.967   4.478 -0.6927 -0.3251  0.8372
  430MOL0     C57970   0.787   4.097   4.488  0.9920 -0.9970  0.7223
  430MOL0     C57971   0.720   4.137   4.600  0.4226  1.0823 -0.4116
  430MOL0     C57972   0.705   4.057   4.712 -0.7340 -0.1926  0.7173
  430MOL0     O57973   0.637   4.064   4.828  0.0413  0.0910 -0.3818
  430MOL0     C57974   0.532   4.163   4.835 -0.2471  0.3524  0.1001
  430MOL0     C57975   0.436   4.109   4.935 -0.3102  0.2393  0.3898
  430MOL0     C57976   0.313   4.203   4.953  0.4454 -0.0503  0.3418
  430MOL0     C57977   0.199   4.133   5.030  0.0954 -0.4896 -0.2927
  430MOL0     C57978   0.226   4.117   5.164  0.3678 -0.5289 -0.7982
  430MOL0     C57979   0.256   4.110   5.279  1.2234  0.3794 -0.9647
  430MOL0     C57980   0.775   3.936   4.711  0.7497 -0.2802  0.0853
  430MOL0     C57981   0.832   3.892   4.597 -0.3117 -0.5737  0.0814
  430MOL0     C57982   0.862   3.745   4.603  0.4604 -0.9646  0.5942
  430MOL0     H57983   1.155   4.139   4.389 -1.2619 -0.8789 -0.6698
  430MOL0     H57984   1.382   4.204   4.268  0.6980 -0.5868 -0.7377
  430MOL0     H57985   1.569   4.243   3.972 -0.8197  1.2203  0.0046
  430MOL0     H57986   1.483   4.297   4.112 -1.2405  1.2352 -3.4117
  430MOL0     H57987   1.735   4.247   4.142  1.6635 -0.3668 -0.9966
  430MOL0     H57988   1.696   4.074   4.106 -0.5282 -0.8045  2.3575
  430MOL0     H57989   1.577   4.054   4.311 -0.8366  0.1830 -1.9477
  430MOL0     H57990   1.598   4.237   4.349  0.7715 -1.2581  2.2749
  430MOL0     H57991   1.809   4.026   4.314 -2.5847 -0.6852 -1.3833
  430MOL0     H57992   1.830   4.198   4.361 -2.7654  0.6615 -4.5367
  430MOL0     H57993   1.680   3.976   4.514  0.2444  0.2012  0.3690
  430MOL0     H57994   1.847   4.043   4.545  0.5774 -0.3112  0.3455
  430MOL0     H57995   1.785   4.249   4.599 -1.8051  1.5218 -0.0313
  430MOL0     H57996   1.613   4.230   4.586 -0.3235  0.9168  1.2613
  430MOL0     H57997   1.712   4.231   4.822 -2.8921 -1.8055  1.1556
  430MOL0     H57998   1.824   4.102   4.784 -0.3122 -0.2297  0.4961
  430MOL0     H57999   1.531   4.121   4.809  0.8264  1.3176 -0.2393
  430MOL0     H58000   1.589   3.977   4.719  0.7932  2.0538 -1.1786
  430MOL0     H58001   1.811   3.837   4.859 -0.0827  0.3197  0.1051
  430MOL0     H58002   1.884   3.709   5.082  0.1906 -0.5203  0.5094
  430MOL0     H58003   1.800   3.761   5.238 -3.9423 -1.5535  1.1651
  430MOL0     H58004   1.607   3.642   5.207 -0.4584 -0.7972 -0.3073
  430MOL0     H58005   1.648   3.591   5.038  0.4561 -3.8089  0.0292
  430MOL0     H58006   1.793   3.489   5.282  1.4018 -2.2341 -0.0461
  430MOL0     H58007   1.817   3.450   5.106 -1.9141  0.4934 -1.4856
  430MOL0     H58008   1.565   3.408   5.106 -0.4686  0.5140  0.6483
  430MOL0     H58009   1.578   3.404   5.284  1.0044 -1.6877  0.9566
  430MOL0     H58010   1.685   3.084   5.390 -1.9205  0.5659  4.1333
  430MOL0     H58011   1.524   2.914   5.475 -0.1896  0.0994  0.8394
  430MOL0     H58012   0.918   2.841   5.253 -2.5544  0.7788  0.7323
  430MOL0     H58013   0.764   2.666   5.351 -1.2578 -0.2849  1.0228
  430MOL0     H58014   0.561   2.568   5.521  1.3847  0.8405 -1.3368
  430MOL0     H58015   0.712   2.471   5.504  1.4009 -0.0005  1.1535
  430MOL0     H58016   0.563   2.348   5.659  1.2925 -1.1210  0.0171
  430MOL0     H58017   0.690   2.411   5.754 -1.2200  0.9063  1.3959
  430MOL0     H58018   0.536   2.493   5.893 -3.9767  0.0767  1.8126
  430MOL0     H58019   0.535   2.630   5.779  0.5182 -0.1367  0.0370
  430MOL0     H58020   0.340   2.402   5.798  0.9990  0.0523  4.5790
  430MOL0     H58021   0.331   2.517   5.661 -0.6309  0.4246  1.5964
  430MOL0     H58022   0.309   2.623   5.937  0.4781 -2.7929 -0.2321
  430MOL0     H58023   0.174   2.560   5.828  1.0478 -2.3149  0.1029
  430MOL0     H58024   0.354   2.777   5.716  0.0994 -1.0866 -0.8118
  430MOL0     H58025   0.219   2.694   5.644  1.4296 -2.3643 -0.6012
  430MOL0     H58026   0.193   2.855   5.906 -0.6576  1.3537  0.2019
  430MOL0     H58027   0.060   2.785   5.817 -0.0837  1.8226 -1.5153
  430MOL0     H58028   0.085   2.948   5.642 -1.5855  0.9087  0.8289
  430MOL0     H58029   0.074   3.021   5.792 -2.6440 -1.8372 -1.4304
  430MOL0     H58030   0.894   2.809   5.749  2.8169 -1.2563 -0.1146
  430MOL0     H58031   1.069   2.936   5.638  1.6793  2.7393 -2.8837
  430MOL0     H58032   1.232   3.139   5.247  0.0475  1.4169 -0.7331
  430MOL0     H58033   1.400   3.262   5.136 -0.4771  0.1004  0.3556
  430MOL0     H58034   1.258   3.953   3.951  0.1654 -0.6482  1.3370
  430MOL0     H58035   1.050   3.938   4.030 -1.7394 -0.8047  1.4237
  430MOL0     H58036   0.783   4.166   4.404  1.2589 -4.1718 -2.1474
  430MOL0     H58037   0.667   4.230   4.615 -0.1661  0.7688 -0.4931
  430MOL0     H58038   0.477   4.169   4.740  0.2863  4.4461 -0.1128
  430MOL0     H58039   0.577   4.258   4.864 -0.5898  0.7755 -0.7151
  430MOL0     H58040   0.487   4.079   5.027 -0.2815 -2.3151 -0.3935
  430MOL0     H58041   0.411   4.017   4.883  3.7106 -1.5693  1.2209
  430MOL0     H58042   0.281   4.223   4.851  0.6622 -0.5261  0.1773
  430MOL0     H58043   0.339   4.297   5.003 -0.7694  1.0864 -1.0819
  430MOL0     H58044   0.116   4.204   5.022  2.1375  1.7973 -2.8529
  430MOL0     H58045   0.183   4.035   4.983 -1.7566  0.5013 -1.8939
  430MOL0     H58046   0.273   4.098   5.384  1.0131 -0.3063 -1.0015
  430MOL0     H58047   0.776   3.880   4.804 -3.3029  0.4913  0.7663
  430MOL0     H58048   0.769   3.700   4.639 -0.1695 -0.0851  0.1104
  430MOL0     H58049   0.879   3.696   4.507  0.2559  1.3999 -0.7356
  430MOL0     H58050   0.945   3.732   4.673  0.3746  0.3999  0.9993
  431MOL0     O58051   4.224   8.411  11.117 -0.2518  1.0318  0.3087
  431MOL0     C58052   4.161   8.363  11.020  0.0498  0.8334  0.1497
  431MOL0     O58053   4.141   8.438  10.899  0.1858 -0.3329 -0.8304
  431MOL0     C58054   4.222   8.548  10.888 -0.8177  0.2859 -0.1578
  431MOL0     C58055   4.195   8.668  10.958  0.3527  0.4631 -0.5258
  431MOL0     C58056   4.281   8.781  10.942 -0.7018 -0.4688 -0.8880
  431MOL0     C58057   4.402   8.770  10.872  0.2453 -0.1025  0.0305
  431MOL0     O58058   4.497   8.874  10.867  0.1323 -0.1123 -0.0091
  431MOL0     C58059   4.441   8.983  10.793 -0.2073  0.2392 -0.8373
  431MOL0     C58060   4.534   9.104  10.812  0.8380  0.4156 -0.3036
  431MOL0     C58061   4.464   9.201  10.895 -0.5412 -0.8171 -0.2883
  431MOL0     C58062   4.523   9.340  10.929  0.0087 -0.9001 -0.7542
  431MOL0     C58063   4.605   9.406  10.819 -0.1186  0.2307 -0.5000
  431MOL0     C58064   4.611   9.552  10.857  0.7906  0.3593 -0.0396
  431MOL0     C58065   4.695   9.582  10.984 -0.2735  0.7460  0.6200
  431MOL0     C58066   4.845   9.529  10.967 -0.1396 -0.5735  0.3720
  431MOL0     N58067   4.944   9.617  11.032 -0.3044  0.8080 -0.4371
  431MOL0     C58068   5.072   9.648  10.990  0.2590 -0.1834  0.2386
  431MOL0     C58069   5.129   9.722  11.086 -0.3573  0.5231 -0.4264
  431MOL0     C58070   5.276   9.768  11.083 -0.5047  0.5216 -0.4346
  431MOL0     C58071   5.297   9.917  11.039 -0.1142  0.3493 -0.6322
  431MOL0     C58072   5.256  10.018  11.155  0.2690  0.4820  0.5992
  431MOL0     C58073   5.358  10.131  11.190 -0.1800  0.0160  0.1749
  431MOL0     O58074   5.380  10.210  11.077 -0.8765 -0.4379  0.4088
  431MOL0     C58075   5.277  10.295  11.028 -0.1099 -0.2488 -0.4365
  431MOL0     C58076   5.174  10.346  11.120 -0.9422  0.6574  0.4720
  431MOL0     C58077   5.082  10.435  11.073 -0.3191  0.1317 -0.1848
  431MOL0     C58078   5.070  10.477  10.938 -0.8762 -0.6681  0.3685
  431MOL0     C58079   4.963  10.557  10.882  0.3794 -0.4850 -0.3329
  431MOL0     O58080   4.844  10.568  10.960 -0.0488  0.4980 -0.3529
  431MOL0     C58081   4.733  10.639  10.923  1.1740  0.1444 -0.0580
  431MOL0     C58082   4.713  10.720  10.811 -0.7093 -0.7320  0.6195
  431MOL0     C58083   4.588  10.789  10.782 -0.5102  0.5865  0.3662
  431MOL0     C58084   4.476  10.776  10.873  0.9384  1.3518  0.1128
  431MOL0     O58085   4.350  10.831  10.879 -0.4357 -0.1451 -0.4465
  431MOL0     C58086   4.294  10.856  10.751  0.8978  0.7344  0.2372
  431MOL0     C58087   4.140  10.854  10.763 -0.6623  0.2245 -0.6749
  431MOL0     C58088   4.090  10.725  10.837  0.7680 -0.0376 -0.1762
  431MOL0     C58089   3.950  10.756  10.883  0.5164  0.4135 -0.3538
  431MOL0     C58090   3.897  10.633  10.954 -0.5469 -0.6454 -0.0405
  431MOL0     C58091   3.749  10.642  10.970 -0.0655 -0.1511  0.5856
  431MOL0     C58092   3.664  10.631  10.840  0.6285 -0.8323  0.0333
  431MOL0     C58093   3.515  10.601  10.873  0.3858 -0.2784 -0.8391
  431MOL0    Cl58094   3.433  10.547  10.723 -0.2633 -0.3874 -0.4266
  431MOL0     C58095   4.503  10.692  10.983 -0.6095 -0.3534  0.3059
  431MOL0     C58096   4.631  10.633  11.010  0.3449  0.5579  0.0462
  431MOL0     O58097   4.982  10.605  10.768 -0.1902 -0.6072 -0.0702
  431MOL0     C58098   5.183  10.441  10.858  0.4192  0.2930 -0.1952
  431MOL0     C58099   5.281  10.349  10.902  0.1143 -0.1902 -0.7819
  431MOL0     N58100   5.031   9.736  11.189 -0.3143  0.9110 -0.6904
  431MOL0     N58101   4.925   9.665  11.163 -0.4298  0.4264 -0.1533
  431MOL0     C58102   4.425   8.654  10.810 -0.1913 -0.0526 -0.6423
  431MOL0     C58103   4.340   8.542  10.818 -0.3963 -0.2340  0.8227
  431MOL0     C58104   4.096   8.238  11.034 -0.1126 -1.1037  1.1718
  431MOL0     C58105   4.029   8.191  10.919 -0.5556 -0.1675  0.4838
  431MOL0     C58106   3.952   8.078  10.924  0.1104 -0.2697 -0.3732
  431MOL0     C58107   3.916   8.019  11.049  0.6126 -0.4067  0.1562
  431MOL0     O58108   3.822   7.921  11.047  0.3413  0.3647 -0.5154
  431MOL0     C58109   3.793   7.848  11.166 -0.2181  0.5796  0.2269
  431MOL0     C58110   3.670   7.910  11.244 -0.2271  0.5209  0.2818
  431MOL0     C58111   3.623   7.814  11.362  0.0301 -0.6283  0.0867
  431MOL0     C58112   3.513   7.892  11.435  0.2062  0.7494 -0.7707
  431MOL0     C58113   3.384   7.940  11.366  0.1491  0.5120  0.0627
  431MOL0     C58114   3.278   7.986  11.317 -0.8194 -0.3753  0.5055
  431MOL0     C58115   4.000   8.054  11.152  0.3120 -0.0629 -0.0285
  431MOL0     C58116   4.086   8.160  11.150  0.0703 -0.2230 -0.1057
  431MOL0     C58117   4.171   8.180  11.276 -0.2240  0.0786 -0.3153
  431MOL0     H58118   4.111   8.688  11.024 -0.8687 -2.5054 -1.0410
  431MOL0     H58119   4.248   8.871  10.993 -1.4577 -0.9573 -0.4898
  431MOL0     H58120   4.447   8.958  10.686 -2.3261  1.9403 -1.4348
  431MOL0     H58121   4.335   9.002  10.810 -0.1150  0.0917 -0.0846
  431MOL0     H58122   4.568   9.161  10.725 -0.8928  0.6609 -0.8629
  431MOL0     H58123   4.625   9.077  10.866  1.8783 -0.6231 -2.4200
  431MOL0     H58124   4.426   9.162  10.990 -1.8803 -3.8901 -1.9485
  431MOL0     H58125   4.372   9.221  10.839  0.3176  1.6837 -0.9351
  431MOL0     H58126   4.429   9.393  10.947  0.3568 -0.2085 -0.9798
  431MOL0     H58127   4.590   9.330  11.015  0.9975 -1.0561 -1.5293
  431MOL0     H58128   4.699   9.356  10.796 -1.1148 -1.0870 -1.9137
  431MOL0     H58129   4.558   9.391  10.721 -1.0386  0.5356 -0.1171
  431MOL0     H58130   4.664   9.600  10.774  4.0628 -3.5874 -0.5866
  431MOL0     H58131   4.513   9.600  10.859  0.5048  0.0171 -2.3553
  431MOL0     H58132   4.645   9.541  11.071 -2.0223 -0.6846 -0.9857
  431MOL0     H58133   4.707   9.691  10.987 -0.6602  0.7801  0.9682
  431MOL0     H58134   4.850   9.432  11.018  2.3120 -0.7923 -0.1305
  431MOL0     H58135   4.870   9.517  10.861  3.3398  3.9904  0.3786
  431MOL0     H58136   5.120   9.619  10.897 -0.1168 -3.1667  0.8759
  431MOL0     H58137   5.324   9.755  11.181 -1.0389  1.5200 -0.0180
  431MOL0     H58138   5.319   9.708  11.003 -0.3264 -0.2380  0.2103
  431MOL0     H58139   5.403   9.927  11.012  0.8965 -1.5424  2.2364
  431MOL0     H58140   5.227   9.934  10.956 -1.6614 -0.2198  0.5105
  431MOL0     H58141   5.242   9.966  11.250  0.1667 -2.1334 -0.7766
  431MOL0     H58142   5.160  10.063  11.130  0.5832  0.0793 -1.4698
  431MOL0     H58143   5.453  10.085  11.221 -2.0455 -2.5081  2.5897
  431MOL0     H58144   5.321  10.192  11.273 -3.4290 -2.1739  0.4954
  431MOL0     H58145   5.172  10.318  11.225  0.9154 -0.7845  0.1748
  431MOL0     H58146   5.005  10.461  11.144  0.9120  0.5046  1.0562
  431MOL0     H58147   4.796  10.757  10.752 -0.1789 -2.2729  0.3525
  431MOL0     H58148   4.564  10.852  10.697  1.0104 -0.7311 -1.1217
  431MOL0     H58149   4.323  10.953  10.711 -1.3803  0.2650 -3.0151
  431MOL0     H58150   4.311  10.776  10.678 -1.4430 -0.8233  1.2566
  431MOL0     H58151   4.121  10.945  10.821  0.4867  0.6156 -0.8720
  431MOL0     H58152   4.093  10.862  10.665 -0.4975 -3.1424 -1.1296
  431MOL0     H58153   4.078  10.643  10.766  0.8066  1.8710 -2.5173
  431MOL0     H58154   4.150  10.698  10.924 -0.8606 -0.5479  0.8146
  431MOL0     H58155   3.894  10.786  10.794 -0.7552 -0.3103  0.1779
  431MOL0     H58156   3.941  10.836  10.957 -0.1953 -1.0513  1.2022
  431MOL0     H58157   3.936  10.631  11.056 -0.4593  1.6452  0.0252
  431MOL0     H58158   3.914  10.541  10.898  0.8371 -0.1955 -0.4071
  431MOL0     H58159   3.723  10.559  11.036 -0.3648 -2.0805 -1.8159
  431MOL0     H58160   3.728  10.736  11.024  0.1335  0.0952  0.2370
  431MOL0     H58161   3.707  10.546  10.786  1.1797 -0.3058 -0.3587
  431MOL0     H58162   3.678  10.731  10.798  2.5874 -0.7141  0.8522
  431MOL0     H58163   3.512  10.521  10.948 -1.0313  0.0836 -0.4750
  431MOL0     H58164   3.476  10.695  10.911 -2.1446 -1.2881 -0.7312
  431MOL0     H58165   4.418  10.670  11.046 -1.6869 -1.9626 -1.5814
  431MOL0     H58166   4.643  10.558  11.088 -1.7198  1.9490  1.8146
  431MOL0     H58167   5.199  10.474  10.756  3.0614 -0.1571 -0.0182
  431MOL0     H58168   5.360  10.317  10.835  1.6138  1.1044  0.3100
  431MOL0     H58169   4.522   8.639  10.763 -0.2267 -0.0469 -0.7171
  431MOL0     H58170   4.366   8.447  10.772 -1.6286 -1.6660  2.8970
  431MOL0     H58171   4.059   8.226  10.820  1.4627  0.5479  1.3022
  431MOL0     H58172   3.908   8.043  10.831 -0.0145 -4.1525  0.9404
  431MOL0     H58173   3.872   7.844  11.241 -1.0665  2.2791  1.2755
  431MOL0     H58174   3.768   7.743  11.148 -1.9889  0.6598  1.8460
  431MOL0     H58175   3.593   7.923  11.168  0.2647  2.7344  0.0887
  431MOL0     H58176   3.703   8.003  11.290  2.6472 -0.7358  1.0199
  431MOL0     H58177   3.706   7.789  11.428  0.0881  0.1160  0.3099
  431MOL0     H58178   3.574   7.723  11.326  0.5060 -0.5649 -0.7435
  431MOL0     H58179   3.484   7.833  11.521 -1.0321  0.9859 -1.0055
  431MOL0     H58180   3.559   7.982  11.477 -1.3223  1.2813 -0.1772
  431MOL0     H58181   3.189   8.037  11.286  0.5239  0.1194 -2.9540
  431MOL0     H58182   3.996   7.997  11.244 -4.3451 -0.1421 -0.0524
  431MOL0     H58183   4.145   8.272  11.328 -0.4475  1.1333 -2.1939
  431MOL0     H58184   4.162   8.093  11.342 -1.0258 -1.0135 -1.7945
  431MOL0     H58185   4.272   8.181  11.234 -0.6713  0.5929 -1.4107
  432MOL0     O58186   5.279  11.171   5.032  0.6214 -0.0313 -0.0814
  432MOL0     C58187   5.295  11.153   4.907  0.9104 -0.6267  1.2077
  432MOL0     O58188   5.410  11.115   4.844 -0.5864  0.5246 -0.1874
  432MOL0     C58189   5.531  11.091   4.906  1.4075 -0.0374  0.5433
  432MOL0     C58190   5.618  10.989   4.861  0.3437 -0.6171 -0.1011
  432MOL0     C58191   5.738  10.964   4.934  1.1500  0.2192  0.0868
  432MOL0     C58192   5.776  11.034   5.048 -0.6079 -0.2821  0.1080
  432MOL0     O58193   5.894  10.988   5.104 -0.4504 -0.9640  0.1327
  432MOL0     C58194   5.914  11.000   5.247 -0.1161 -0.1276  0.7148
  432MOL0     C58195   6.029  10.903   5.281 -0.7251  0.0995  0.6239
  432MOL0     C58196   6.148  10.886   5.184 -0.0123  0.9873 -0.3795
  432MOL0     C58197   6.240  10.773   5.236  0.2356  0.0120 -0.0322
  432MOL0     C58198   6.316  10.830   5.354  0.3584 -0.1841 -0.0824
  432MOL0     C58199   6.291  10.756   5.489 -0.5322 -0.8588  0.1008
  432MOL0     C58200   6.399  10.810   5.589  0.5324  0.2249 -0.0228
  432MOL0     C58201   6.344  10.934   5.671  0.4592 -1.2621  0.0546
  432MOL0     N58202   6.428  10.947   5.801  0.2152 -1.2024 -0.1355
  432MOL0     C58203   6.377  11.016   5.910  0.1955  0.7219 -0.3323
  432MOL0     C58204   6.468  11.001   6.006 -0.0579  0.1716 -0.1710
  432MOL0     C58205   6.456  11.053   6.145 -0.0209 -1.0453 -0.3560
  432MOL0     C58206   6.388  10.964   6.246  0.2091 -0.1150  0.9017
  432MOL0     C58207   6.440  10.822   6.272 -0.1380  0.0267  1.0751
  432MOL0     C58208   6.565  10.820   6.360 -0.2904 -0.0304  0.2694
  432MOL0     O58209   6.544  10.872   6.494 -0.2173 -0.7759  0.7379
  432MOL0     C58210   6.646  10.884   6.590  0.6048 -1.0617  1.3729
  432MOL0     C58211   6.778  10.867   6.573 -0.0435  0.1974 -0.0072
  432MOL0     C58212   6.878  10.901   6.669 -0.2335  0.4619  0.2967
  432MOL0     C58213   6.838  10.945   6.785 -0.1302  0.4900  0.3185
  432MOL0     C58214   6.940  10.996   6.884 -0.3278  0.3059  0.5930
  432MOL0     O58215   6.904  10.995   7.008 -0.7406  0.4035 -0.5098
  432MOL0     C58216   6.983  11.033   7.124  0.2715 -0.0790  0.0155
  432MOL0     C58217   7.110  11.090   7.121  0.8963  0.1594  0.1519
  432MOL0     C58218   7.169  11.129   7.242  0.7211 -0.9594  0.3537
  432MOL0     C58219   7.101  11.113   7.366  0.2463 -0.7861  0.0471
  432MOL0     O58220   7.130  11.177   7.486  0.5427 -0.1722  0.0088
  432MOL0     C58221   7.252  11.246   7.507 -0.4163  0.1505 -0.1765
  432MOL0     C58222   7.290  11.210   7.644 -0.0159 -0.0365  0.7751
  432MOL0     C58223   7.439  11.245   7.684  0.7849  0.1346  0.1217
  432MOL0     C58224   7.454  11.399   7.711  0.9930 -0.6044  0.1256
  432MOL0     C58225   7.579  11.447   7.785 -0.7007  0.1592  0.5319
  432MOL0     C58226   7.564  11.511   7.923  0.0145  0.6876  0.3114
  432MOL0     C58227   7.696  11.523   7.984 -0.5556  0.2428  0.3130
  432MOL0     C58228   7.682  11.607   8.102  0.6911 -0.0769  1.1165
  432MOL0    Cl58229   7.621  11.511   8.242 -0.5266 -0.3884  0.5154
  432MOL0     C58230   6.979  11.043   7.372 -0.8445  0.3375 -0.4869
  432MOL0     C58231   6.924  11.003   7.249 -0.2330 -0.0046 -0.4731
  432MOL0     O58232   7.053  11.018   6.840 -0.2412 -0.2798  0.6516
  432MOL0     C58233   6.703  10.959   6.811  0.5302  0.8233 -0.0035
  432MOL0     C58234   6.605  10.921   6.721 -0.1258 -0.4415  1.0813
  432MOL0     N58235   6.570  10.921   5.957  0.5114  0.0002  0.7388
  432MOL0     N58236   6.547  10.889   5.834  0.5209  0.2088  0.7026
  432MOL0     C58237   5.683  11.131   5.096 -0.6548  0.4048  0.3115
  432MOL0     C58238   5.573  11.170   5.016  0.2496 -0.6037  0.1765
  432MOL0     C58239   5.168  11.172   4.817 -0.4611  0.4213  0.2848
  432MOL0     C58240   5.185  11.125   4.683 -0.2337  0.2700 -0.1685
  432MOL0     C58241   5.081  11.130   4.588 -1.0312 -0.1169 -1.3278
  432MOL0     C58242   4.972  11.204   4.622 -0.2698 -0.3612  0.0390
  432MOL0     O58243   4.880  11.217   4.517 -0.2122  0.1263  0.1710
  432MOL0     C58244   4.769  11.304   4.531 -0.3286 -0.6620  0.1165
  432MOL0     C58245   4.825  11.446   4.511  0.2785 -0.1018 -0.3862
  432MOL0     C58246   4.737  11.550   4.436  0.0604 -0.6146 -0.6016
  432MOL0     C58247   4.796  11.698   4.434 -0.0172 -0.3206 -0.1368
  432MOL0     C58248   4.945  11.703   4.434  0.3298 -0.3102 -0.3709
  432MOL0     C58249   5.063  11.704   4.447 -0.8049  0.4813  0.1045
  432MOL0     C58250   4.950  11.243   4.758  0.5575  0.5243 -1.1649
  432MOL0     C58251   5.053  11.243   4.851  0.3149  0.5939  0.4847
  432MOL0     C58252   5.032  11.320   4.988  0.5592  1.2341  0.4362
  432MOL0     H58253   5.602  10.933   4.770  0.0643  2.9545 -2.4411
  432MOL0     H58254   5.807  10.889   4.898 -0.2036  0.2103 -2.8073
  432MOL0     H58255   5.959  11.099   5.250 -1.8628  0.7937 -1.3406
  432MOL0     H58256   5.836  10.992   5.323  0.1568  1.5456  1.2021
  432MOL0     H58257   5.985  10.805   5.299 -0.7477  0.2058  1.1479
  432MOL0     H58258   6.074  10.945   5.372 -0.7881 -0.3731  0.8710
  432MOL0     H58259   6.208  10.976   5.172  0.4946  0.8832  1.1643
  432MOL0     H58260   6.102  10.863   5.087  0.0260  0.4080 -0.2658
  432MOL0     H58261   6.192  10.679   5.264  2.0887 -0.5848  1.3502
  432MOL0     H58262   6.311  10.738   5.160  0.2132 -1.3081  0.5322
  432MOL0     H58263   6.423  10.833   5.334  0.9658  1.1636  2.9345
  432MOL0     H58264   6.296  10.936   5.370 -0.6284 -0.4417  0.4493
  432MOL0     H58265   6.194  10.775   5.535 -1.2325 -3.5394 -0.1074
  432MOL0     H58266   6.313  10.651   5.466  1.4314 -0.3124 -0.7495
  432MOL0     H58267   6.494  10.838   5.541  1.7003 -2.9256  0.2301
  432MOL0     H58268   6.416  10.725   5.655 -2.7110  0.0320  0.6942
  432MOL0     H58269   6.324  11.031   5.625 -1.6695 -0.2447  2.7787
  432MOL0     H58270   6.245  10.906   5.709 -0.0470 -0.4299 -0.6030
  432MOL0     H58271   6.280  11.064   5.915 -1.9255 -3.0571 -1.0536
  432MOL0     H58272   6.557  11.066   6.186  0.9382 -4.3979 -1.3598
  432MOL0     H58273   6.419  11.156   6.145  1.9436 -0.2874 -0.8579
  432MOL0     H58274   6.393  11.024   6.338  0.4914  1.0612  0.1471
  432MOL0     H58275   6.281  10.970   6.221  0.3102  2.0445  0.8168
  432MOL0     H58276   6.461  10.779   6.174  0.9550 -0.5646  1.5545
  432MOL0     H58277   6.359  10.761   6.312 -2.1249  1.3361 -0.7104
  432MOL0     H58278   6.642  10.878   6.309 -0.9302  0.6602  0.0642
  432MOL0     H58279   6.591  10.715   6.368 -0.3236  0.0935  2.6459
  432MOL0     H58280   6.819  10.840   6.476 -0.2272 -2.0616  0.4847
  432MOL0     H58281   6.983  10.895   6.642 -0.4076  0.4485 -0.3862
  432MOL0     H58282   7.168  11.096   7.030 -1.2716 -0.7283 -1.3826
  432MOL0     H58283   7.269  11.172   7.245  0.4034 -0.2714  2.1281
  432MOL0     H58284   7.340  11.211   7.452 -0.7043 -0.7479 -0.0727
  432MOL0     H58285   7.238  11.354   7.500 -0.2474  0.1481 -0.5501
  432MOL0     H58286   7.213  11.243   7.714  0.1293 -0.6090  1.2106
  432MOL0     H58287   7.282  11.101   7.647 -0.8235 -0.0920 -1.5229
  432MOL0     H58288   7.464  11.186   7.773 -0.6164 -0.3523  0.2143
  432MOL0     H58289   7.513  11.212   7.611 -0.1751  0.6788 -1.1250
  432MOL0     H58290   7.369  11.439   7.767  0.0372 -0.5982 -1.2816
  432MOL0     H58291   7.448  11.453   7.616 -1.2736 -1.7132 -0.4390
  432MOL0     H58292   7.629  11.517   7.717 -0.4274 -0.0087  0.5616
  432MOL0     H58293   7.648  11.364   7.803  1.1760  1.4727 -0.3152
  432MOL0     H58294   7.509  11.605   7.913  0.4855  0.9009 -0.2978
  432MOL0     H58295   7.500  11.445   7.983 -1.0688 -0.9803 -2.5006
  432MOL0     H58296   7.765  11.573   7.916 -1.0954 -1.2651 -1.4153
  432MOL0     H58297   7.733  11.423   8.009 -0.7713  0.5094  1.8403
  432MOL0     H58298   7.776  11.653   8.133  1.1920 -1.0158  0.9954
  432MOL0     H58299   7.616  11.691   8.076  1.2962 -0.1324 -0.7414
  432MOL0     H58300   6.928  11.032   7.467 -0.3846 -0.1396 -0.2872
  432MOL0     H58301   6.828  10.952   7.251  0.6760 -1.8007  0.0185
  432MOL0     H58302   6.670  10.997   6.907 -2.8793 -0.3642 -0.5683
  432MOL0     H58303   6.502  10.930   6.753 -0.7467 -0.6994 -0.7165
  432MOL0     H58304   5.700  11.176   5.194 -1.3542 -2.4887  1.8872
  432MOL0     H58305   5.504  11.244   5.055 -0.9577 -1.0091 -1.0972
  432MOL0     H58306   5.275  11.071   4.654  1.1192  1.1232  2.1461
  432MOL0     H58307   5.102  11.081   4.494  1.4821 -0.6101 -0.5832
  432MOL0     H58308   4.729  11.287   4.631 -1.1959 -0.3747 -0.1738
  432MOL0     H58309   4.693  11.283   4.456  0.5539 -0.6181 -0.8177
  432MOL0     H58310   4.913  11.437   4.447 -0.8489 -3.7457 -1.6438
  432MOL0     H58311   4.841  11.485   4.612  1.6468 -2.1783  0.2577
  432MOL0     H58312   4.634  11.555   4.474 -0.3066  4.6106 -1.5131
  432MOL0     H58313   4.741  11.510   4.335  1.1194 -1.4708 -0.2425
  432MOL0     H58314   4.773  11.738   4.335  2.5525  0.1532 -0.6388
  432MOL0     H58315   4.752  11.763   4.511 -2.8797 -3.0231  0.6952
  432MOL0     H58316   5.168  11.722   4.461 -1.1863  2.5365  0.6445
  432MOL0     H58317   4.851  11.280   4.787  1.2791  1.8198 -0.2517
  432MOL0     H58318   5.016  11.238   5.059 -0.1133  1.2038  0.2491
  432MOL0     H58319   5.122  11.376   5.016  2.0940 -0.1952 -1.3291
  432MOL0     H58320   4.945  11.386   4.992  2.4563  3.9402 -0.1074
  433MOL0     O58321   4.002   8.538   9.000  0.8855  0.0799  0.0185
  433MOL0     C58322   3.925   8.633   9.031  0.2572  0.8513  0.3272
  433MOL0     O58323   3.934   8.764   8.973  0.7143  0.5752 -0.1886
  433MOL0     C58324   4.056   8.805   8.931  0.4526  1.0134  0.0339
  433MOL0     C58325   4.049   8.887   8.815 -0.4591 -0.6882 -0.1042
  433MOL0     C58326   4.170   8.934   8.761  1.2031  0.2066  0.0328
  433MOL0     C58327   4.289   8.899   8.823 -0.9080 -0.8035  0.4572
  433MOL0     O58328   4.408   8.937   8.767  0.0544  0.5514  0.5244
  433MOL0     C58329   4.443   9.067   8.791 -1.1806 -0.6069  0.3598
  433MOL0     C58330   4.571   9.123   8.727  0.0201  0.5569 -0.4137
  433MOL0     C58331   4.700   9.066   8.791 -0.6572  0.0649 -1.3580
  433MOL0     C58332   4.811   9.067   8.692  0.3004  0.8194  1.0214
  433MOL0     C58333   4.948   9.061   8.748  0.5426  0.3946  0.3529
  433MOL0     C58334   5.052   9.118   8.649 -0.1148  0.2048 -0.2240
  433MOL0     C58335   5.194   9.077   8.697 -0.1739 -0.4324  0.4308
  433MOL0     C58336   5.309   9.118   8.600  0.7702 -0.1797  0.1066
  433MOL0     N58337   5.443   9.098   8.657 -0.3529 -0.1643 -0.3805
  433MOL0     C58338   5.518   9.193   8.717 -0.2697 -0.1577 -1.2771
  433MOL0     C58339   5.624   9.123   8.757  0.7154  0.3631 -0.4221
  433MOL0     C58340   5.711   9.166   8.867  0.3571  0.3584  0.6433
  433MOL0     C58341   5.802   9.290   8.824  0.2961  0.4954 -0.9699
  433MOL0     C58342   5.934   9.237   8.755 -0.6157 -0.1521 -0.1174
  433MOL0     C58343   6.052   9.200   8.853 -0.7406  0.4486 -0.5673
  433MOL0     O58344   6.165   9.159   8.773  0.2864  0.0212 -0.5742
  433MOL0     C58345   6.285   9.121   8.829 -0.8266 -0.2137  0.4336
  433MOL0     C58346   6.380   9.070   8.741 -0.7112  1.8368  1.3279
  433MOL0     C58347   6.505   9.024   8.785  0.8363 -0.1008  0.5098
  433MOL0     C58348   6.542   9.025   8.921 -0.7905  0.0439  0.4936
  433MOL0     C58349   6.669   8.974   8.973 -0.5316  0.0820  0.7098
  433MOL0     O58350   6.687   8.945   9.102  0.7116  0.8506 -0.1519
  433MOL0     C58351   6.805   8.898   9.143 -0.4691 -0.6623  0.6032
  433MOL0     C58352   6.900   8.982   9.197 -0.2018 -0.8007  0.3419
  433MOL0     C58353   7.027   8.933   9.227  0.2302 -0.5436 -0.4811
  433MOL0     C58354   7.061   8.798   9.215 -0.1884 -0.2739  0.4002
  433MOL0     O58355   7.190   8.760   9.242  0.0531 -0.4055 -0.0943
  433MOL0     C58356   7.213   8.621   9.273 -0.2723 -0.0633  0.9579
  433MOL0     C58357   7.365   8.590   9.283  1.0627  0.0704 -0.8988
  433MOL0     C58358   7.435   8.640   9.409 -0.0645  0.6300  0.6192
  433MOL0     C58359   7.581   8.591   9.407  1.1871  0.4897 -0.5890
  433MOL0     C58360   7.646   8.655   9.532 -0.2077  0.3145  0.4596
  433MOL0     C58361   7.778   8.582   9.555  0.2329 -0.2649  0.0208
  433MOL0     C58362   7.883   8.596   9.443  0.4112 -0.6345 -0.2387
  433MOL0     C58363   8.026   8.540   9.463 -0.0991  0.0210  0.2445
  433MOL0    Cl58364   8.095   8.593   9.612 -0.3009  0.1241  0.1933
  433MOL0     C58365   6.961   8.711   9.170  0.4996  0.8632 -0.3111
  433MOL0     C58366   6.833   8.764   9.141 -0.6469 -0.0088  0.3911
  433MOL0     O58367   6.749   8.966   8.886  0.0690  0.2265 -0.5006
  433MOL0     C58368   6.447   9.076   9.013  0.5806  0.5016 -0.4370
  433MOL0     C58369   6.312   9.113   8.971 -0.3302  0.5873 -0.5400
  433MOL0     N58370   5.613   8.996   8.715  0.3858  0.5315  0.7655
  433MOL0     N58371   5.504   8.979   8.650  0.0963  0.9762 -0.1417
  433MOL0     C58372   4.296   8.833   8.944  0.2380 -0.2122 -0.4402
  433MOL0     C58373   4.182   8.779   8.996 -0.2805 -0.4541 -0.0677
  433MOL0     C58374   3.804   8.600   9.112  0.3140  1.0611  0.4764
  433MOL0     C58375   3.812   8.475   9.177 -0.7436  0.7866  0.3257
  433MOL0     C58376   3.703   8.431   9.252  0.3707  0.2092 -0.0656
  433MOL0     C58377   3.588   8.500   9.265 -0.3955 -0.4980  0.0570
  433MOL0     O58378   3.498   8.435   9.342  1.1550 -0.0724 -0.5028
  433MOL0     C58379   3.368   8.502   9.336  0.6516 -1.0054 -0.1514
  433MOL0     C58380   3.282   8.421   9.422  0.4317 -1.2416  0.1043
  433MOL0     C58381   3.136   8.470   9.417 -0.7507  0.2469 -0.4706
  433MOL0     C58382   3.055   8.377   9.501  0.9314 -0.5923  0.4358
  433MOL0     C58383   2.913   8.421   9.488  0.5188  0.0692  0.0734
  433MOL0     C58384   2.797   8.458   9.462 -0.6174  0.5474  0.0621
  433MOL0     C58385   3.586   8.625   9.206 -0.2272  0.0437  0.4083
  433MOL0     C58386   3.679   8.674   9.122 -0.4372 -0.3652  0.5771
  433MOL0     C58387   3.641   8.791   9.028 -0.1165  0.1884 -0.6415
  433MOL0     H58388   3.949   8.905   8.778 -0.7072 -1.0639  0.3698
  433MOL0     H58389   4.173   8.988   8.666  1.9249  0.2769  0.0929
  433MOL0     H58390   4.361   9.131   8.755 -1.6316 -1.6290 -0.4939
  433MOL0     H58391   4.449   9.075   8.900 -0.8482  1.2317  0.2339
  433MOL0     H58392   4.568   9.231   8.747 -1.2837  0.8735 -2.0965
  433MOL0     H58393   4.561   9.114   8.619  1.1506  0.1252 -0.4898
  433MOL0     H58394   4.687   8.967   8.834 -0.8910  1.5495  2.3513
  433MOL0     H58395   4.707   9.136   8.875 -1.0483 -2.0357  0.5035
  433MOL0     H58396   4.796   8.990   8.616 -2.9989  0.8839  1.4851
  433MOL0     H58397   4.798   9.167   8.649 -2.1652  0.1402  0.0515
  433MOL0     H58398   4.949   9.122   8.839  0.5703  2.1623 -0.7879
  433MOL0     H58399   4.979   8.960   8.778  1.7451  0.6252 -0.0460
  433MOL0     H58400   5.037   9.070   8.552 -0.0590 -1.4204  0.5338
  433MOL0     H58401   5.042   9.226   8.639  1.2515  0.3827  0.0746
  433MOL0     H58402   5.198   8.968   8.706 -0.1262 -0.4807 -0.1698
  433MOL0     H58403   5.220   9.133   8.787  1.5088  1.1945 -0.9809
  433MOL0     H58404   5.296   9.062   8.507 -1.8442 -0.9698  0.8572
  433MOL0     H58405   5.299   9.222   8.569 -1.3014 -0.8529 -1.7375
  433MOL0     H58406   5.488   9.296   8.735  1.3074  0.3193 -1.2738
  433MOL0     H58407   5.646   9.195   8.951 -3.1384 -4.8778  0.1711
  433MOL0     H58408   5.764   9.083   8.914 -1.7815 -0.1536  2.3212
  433MOL0     H58409   5.748   9.356   8.755 -2.6104 -0.8156 -0.1199
  433MOL0     H58410   5.831   9.350   8.911 -2.1511  1.1992 -0.5428
  433MOL0     H58411   5.974   9.322   8.699  1.3080 -1.1455 -0.3360
  433MOL0     H58412   5.928   9.150   8.689  1.9620  0.4620 -1.2698
  433MOL0     H58413   6.012   9.125   8.922 -3.1585  0.9006 -1.3676
  433MOL0     H58414   6.081   9.293   8.901  0.4329  0.0467 -0.4657
  433MOL0     H58415   6.346   9.070   8.638  0.6356 -0.0584  0.8300
  433MOL0     H58416   6.579   8.989   8.714  2.2398 -0.2259  1.9501
  433MOL0     H58417   6.891   9.090   9.208  4.5092 -0.1831 -0.0896
  433MOL0     H58418   7.096   9.010   9.260 -2.2322  1.2054  0.9132
  433MOL0     H58419   7.162   8.597   9.367  0.6000 -2.4364  0.8890
  433MOL0     H58420   7.192   8.550   9.193  4.9906 -0.6986 -0.2312
  433MOL0     H58421   7.363   8.481   9.277 -0.9350  0.1407 -3.4232
  433MOL0     H58422   7.410   8.629   9.191 -0.3631  2.5326 -0.6508
  433MOL0     H58423   7.431   8.749   9.401  0.1614  0.5649 -0.5489
  433MOL0     H58424   7.385   8.617   9.503 -0.7797 -0.1667  0.0618
  433MOL0     H58425   7.628   8.617   9.311  2.2360  1.1921  0.0921
  433MOL0     H58426   7.577   8.482   9.414  0.5235  0.2204 -3.7364
  433MOL0     H58427   7.581   8.647   9.620 -0.0377  0.5509  0.6065
  433MOL0     H58428   7.650   8.764   9.529  0.3988  0.3042  0.6960
  433MOL0     H58429   7.826   8.609   9.650  0.4595 -0.6132  0.0097
  433MOL0     H58430   7.757   8.475   9.570 -0.4916 -0.4162 -1.8623
  433MOL0     H58431   7.902   8.703   9.429 -1.3224 -0.5418 -2.4814
  433MOL0     H58432   7.834   8.566   9.350 -4.0541 -1.0442  1.9920
  433MOL0     H58433   8.021   8.431   9.459  0.4986 -0.0302  0.9246
  433MOL0     H58434   8.077   8.586   9.377 -2.4270  3.1814  0.3540
  433MOL0     H58435   6.976   8.604   9.165 -0.4229  0.7794 -2.1932
  433MOL0     H58436   6.756   8.699   9.100 -0.8887  0.1526  0.5923
  433MOL0     H58437   6.457   9.077   9.122 -1.7727 -0.9584 -0.1481
  433MOL0     H58438   6.245   9.161   9.043  3.8428  0.2858  4.1458
  433MOL0     H58439   4.393   8.803   8.981  0.2559 -0.3258 -0.5783
  433MOL0     H58440   4.179   8.715   9.083 -0.7531  0.9317  0.9619
  433MOL0     H58441   3.897   8.409   9.162  0.7774  2.0268  2.7134
  433MOL0     H58442   3.718   8.330   9.289 -0.4929 -0.1106 -0.5345
  433MOL0     H58443   3.331   8.507   9.233  0.6957  1.5545 -0.1147
  433MOL0     H58444   3.374   8.603   9.377  1.3781 -1.1633  0.1411
  433MOL0     H58445   3.322   8.432   9.523  0.4252  0.6509 -0.0625
  433MOL0     H58446   3.287   8.318   9.386 -0.5633 -0.7720 -1.5074
  433MOL0     H58447   3.098   8.485   9.315  0.3347 -4.3815 -1.7980
  433MOL0     H58448   3.136   8.568   9.465  0.0321 -0.5086  1.1271
  433MOL0     H58449   3.059   8.276   9.459 -0.6253 -0.3678 -0.3493
  433MOL0     H58450   3.085   8.382   9.606  2.7620  0.9178 -0.1162
  433MOL0     H58451   2.695   8.482   9.440 -0.6136  0.5086  0.0021
  433MOL0     H58452   3.492   8.680   9.211  0.2871  1.4535 -2.8287
  433MOL0     H58453   3.699   8.782   8.936 -0.1740  1.1886 -0.7825
  433MOL0     H58454   3.535   8.804   9.002  0.5616  1.4448 -3.0154
  433MOL0     H58455   3.678   8.879   9.081  0.3389 -0.7505  0.6605
  434MOL0     O58456  10.332   0.304   7.979  1.2034 -0.4669  0.0758
  434MOL0     C58457  10.396   0.220   8.048 -0.2823 -0.3507 -0.5393
  434MOL0     O58458  10.522   0.226   8.073  0.1105 -0.3012  0.0722
  434MOL0     C58459  10.623   0.219   7.981 -0.7142  0.2481  0.3051
  434MOL0     C58460  10.754   0.255   8.032 -0.3389  0.4114 -0.0780
  434MOL0     C58461  10.859   0.265   7.936  0.3766 -0.3763 -0.1360
  434MOL0     C58462  10.843   0.243   7.796 -0.7752  0.0128  0.4748
  434MOL0     O58463  10.946   0.228   7.711  0.0203 -0.0860  0.1589
  434MOL0     C58464  11.028   0.339   7.704  0.1359 -0.2712 -0.5166
  434MOL0     C58465  11.164   0.296   7.632  0.4887 -0.1483 -0.2266
  434MOL0     C58466  11.277   0.226   7.721  1.0665  0.3466  0.0737
  434MOL0     C58467  11.358   0.330   7.803 -1.0734 -0.0823  0.6492
  434MOL0     C58468  11.451   0.267   7.907  0.2423 -0.2473 -0.2213
  434MOL0     C58469  11.475   0.364   8.018 -0.2932  0.7951 -0.6934
  434MOL0     C58470  11.580   0.306   8.108 -0.7027 -0.1991  0.3315
  434MOL0     C58471  11.537   0.163   8.172 -0.1897 -0.4079  0.4844
  434MOL0     N58472  11.595   0.150   8.303 -0.1171 -0.0545 -0.1026
  434MOL0     C58473  11.534   0.122   8.424 -1.1481  0.4500  0.3419
  434MOL0     C58474  11.615   0.153   8.531 -0.6632  0.1301 -0.4765
  434MOL0     C58475  11.584   0.137   8.677 -0.6701  0.1217  0.2499
  434MOL0     C58476  11.693   0.197   8.772 -1.2937 -0.3374  0.3545
  434MOL0     C58477  11.829   0.126   8.767  0.4701 -0.1087 -0.8262
  434MOL0     C58478  11.929   0.178   8.869 -0.1065 -0.1467 -0.1178
  434MOL0     O58479  12.065   0.113   8.872 -0.0434 -0.0043  0.0497
  434MOL0     C58480  12.165   0.177   8.944 -0.7532 -0.4026 -0.1800
  434MOL0     C58481  12.156   0.295   9.013 -0.5033  0.1923 -0.0515
  434MOL0     C58482  12.257   0.355   9.089  0.9567 -0.8340 -0.3427
  434MOL0     C58483  12.383   0.284   9.098 -0.5322  0.4681 -0.3881
  434MOL0     C58484  12.495   0.338   9.168 -0.3767  0.0671  0.0033
  434MOL0     O58485  12.618   0.307   9.126  0.3376 -0.3638  0.0090
  434MOL0     C58486  12.730   0.350   9.193  0.1515  0.4151 -0.0986
  434MOL0     C58487  12.774   0.484   9.176 -0.2175  0.2183  0.1519
  434MOL0     C58488  12.888   0.531   9.242 -0.4544  0.0897 -0.1268
  434MOL0     C58489  12.961   0.444   9.327 -0.1980 -0.3755 -0.0488
  434MOL0     O58490  13.067   0.487   9.392  0.0400  0.5396  0.0781
  434MOL0     C58491  13.136   0.421   9.502  0.3371 -0.2541 -0.5936
  434MOL0     C58492  13.185   0.524   9.597 -0.0039  0.2091 -0.8667
  434MOL0     C58493  13.233   0.455   9.725  0.1960  0.4583  0.7723
  434MOL0     C58494  13.361   0.369   9.712  1.0370 -0.4355  0.4738
  434MOL0     C58495  13.493   0.438   9.669  0.8459 -0.1195  0.0792
  434MOL0     C58496  13.607   0.346   9.675  0.2984  0.7358  0.5567
  434MOL0     C58497  13.748   0.408   9.645  0.6304  0.4350  0.2139
  434MOL0     C58498  13.815   0.477   9.757  0.4920 -0.4399 -0.0944
  434MOL0    Cl58499  13.970   0.547   9.703  0.1209 -0.0894 -0.6609
  434MOL0     C58500  12.928   0.310   9.322  0.3763  0.4918  0.4779
  434MOL0     C58501  12.810   0.264   9.265  0.2312 -0.4658 -0.2513
  434MOL0     O58502  12.474   0.413   9.257  0.2965 -0.2239 -0.7691
  434MOL0     C58503  12.388   0.155   9.032  0.6984  0.3677  1.1824
  434MOL0     C58504  12.282   0.109   8.956 -0.6052 -0.9164  0.3423
  434MOL0     N58505  11.723   0.210   8.470  0.4294 -0.4667 -1.3382
  434MOL0     N58506  11.707   0.216   8.347  0.3765 -0.1773  0.3337
  434MOL0     C58507  10.721   0.188   7.755 -0.8241 -0.7438 -0.3760
  434MOL0     C58508  10.613   0.194   7.839 -0.1114  0.6254  0.2080
  434MOL0     C58509  10.319   0.132   8.140 -0.0782  0.8181 -0.8694
  434MOL0     C58510  10.372   0.093   8.268  0.9752 -0.5582 -0.0339
  434MOL0     C58511  10.296   0.018   8.355  0.5232  0.4588 -0.3443
  434MOL0     C58512  10.166  -0.021   8.321  0.2871  0.5376  0.0636
  434MOL0     O58513  10.082  -0.104   8.397  0.1059  0.5154  0.3312
  434MOL0     C58514  10.127  -0.123   8.531  1.3228 -0.0586 -0.0945
  434MOL0     C58515  10.114   0.003   8.614  0.0999  0.6872 -1.0273
  434MOL0     C58516   9.984   0.094   8.590 -1.3399  0.1796  0.8517
  434MOL0     C58517   9.856   0.020   8.559 -0.5949 -0.1844 -0.5115
  434MOL0     C58518   9.734   0.108   8.569 -0.6382  0.0651  0.5494
  434MOL0     C58519   9.631   0.172   8.564 -0.2387  0.0753  0.0491
  434MOL0     C58520  10.106   0.021   8.200  0.8860 -0.9059 -0.4221
  434MOL0     C58521  10.184   0.089   8.110  0.2232 -0.8224 -0.0802
  434MOL0     C58522  10.118   0.117   7.979  0.3380 -1.0662 -0.1089
  434MOL0     H58523  10.768   0.273   8.138  2.4030 -3.5754  0.4382
  434MOL0     H58524  10.956   0.288   7.979 -1.1528 -0.0741  3.5300
  434MOL0     H58525  10.989   0.428   7.653 -0.1198  2.0998  3.3995
  434MOL0     H58526  11.050   0.382   7.802  2.8384  2.9029 -2.2772
  434MOL0     H58527  11.208   0.377   7.573 -3.5214  0.3719 -2.8946
  434MOL0     H58528  11.124   0.226   7.557  2.7240  1.1225 -2.7842
  434MOL0     H58529  11.345   0.164   7.662 -2.0877 -2.3144 -1.0341
  434MOL0     H58530  11.237   0.149   7.788  1.1569 -1.2454 -1.6231
  434MOL0     H58531  11.425   0.374   7.729 -0.4583 -2.1165 -0.0711
  434MOL0     H58532  11.300   0.417   7.834  3.0847  4.3523 -2.5183
  434MOL0     H58533  11.396   0.183   7.951  0.7611 -0.2870  0.3700
  434MOL0     H58534  11.546   0.232   7.866  0.6194  0.2295  0.2350
  434MOL0     H58535  11.505   0.461   7.978  2.1599 -0.0799 -1.1160
  434MOL0     H58536  11.384   0.383   8.077 -1.8846 -1.9185 -2.0562
  434MOL0     H58537  11.596   0.374   8.192  2.6279 -2.2896  1.5982
  434MOL0     H58538  11.676   0.295   8.056  0.6553  2.0321  2.1789
  434MOL0     H58539  11.428   0.158   8.176 -0.3336  2.2138  3.6315
  434MOL0     H58540  11.577   0.089   8.102  1.8218  2.0302 -1.1240
  434MOL0     H58541  11.434   0.080   8.433 -1.8325  2.3479  2.7893
  434MOL0     H58542  11.491   0.188   8.703  0.9415  2.0382  2.8337
  434MOL0     H58543  11.553   0.038   8.711 -0.6557  1.7112  6.1268
  434MOL0     H58544  11.698   0.305   8.755 -1.2465 -0.3100  0.5393
  434MOL0     H58545  11.646   0.194   8.871 -3.4520  4.4195 -0.2470
  434MOL0     H58546  11.875   0.121   8.668 -0.1008  0.1971 -1.1123
  434MOL0     H58547  11.804   0.021   8.784 -2.0169 -0.1911 -4.0273
  434MOL0     H58548  11.878   0.153   8.963 -0.9398 -1.3197 -0.8517
  434MOL0     H58549  11.935   0.286   8.856 -0.4258 -0.1795 -0.5664
  434MOL0     H58550  12.058   0.343   9.017 -1.7744 -2.3432  2.7637
  434MOL0     H58551  12.244   0.444   9.150 -0.9093 -2.9868  2.6332
  434MOL0     H58552  12.717   0.551   9.112  1.5178  0.5342 -1.1428
  434MOL0     H58553  12.919   0.629   9.207  0.0889 -0.0347  0.0069
  434MOL0     H58554  13.070   0.351   9.554  0.7361 -1.9674 -2.3042
  434MOL0     H58555  13.224   0.363   9.475  1.5880  0.2576  2.1040
  434MOL0     H58556  13.271   0.568   9.547 -0.2360  1.9201  0.1788
  434MOL0     H58557  13.112   0.601   9.626  1.7036  1.2097  1.0186
  434MOL0     H58558  13.266   0.537   9.789  1.2669  2.4773 -2.1681
  434MOL0     H58559  13.150   0.404   9.775  1.8885 -1.8606  1.3859
  434MOL0     H58560  13.344   0.284   9.646  2.1951 -0.8019  0.6303
  434MOL0     H58561  13.387   0.320   9.806  3.5518 -0.2903 -0.0938
  434MOL0     H58562  13.521   0.522   9.734 -1.7545 -1.4045  3.1296
  434MOL0     H58563  13.481   0.470   9.566 -1.5540 -0.7407  0.1061
  434MOL0     H58564  13.607   0.290   9.769  0.2552 -1.1045 -0.4861
  434MOL0     H58565  13.584   0.278   9.592 -1.3768  0.3236  1.3268
  434MOL0     H58566  13.734   0.491   9.576  2.3827  0.4104 -0.2031
  434MOL0     H58567  13.821   0.335   9.608  0.1637  0.8074 -1.5071
  434MOL0     H58568  13.754   0.561   9.791  1.2032 -0.1207  0.4134
  434MOL0     H58569  13.836   0.406   9.837 -0.1937 -0.2803  0.2298
  434MOL0     H58570  12.977   0.238   9.387  0.7341 -0.0629 -0.3789
  434MOL0     H58571  12.776   0.162   9.277  1.8904 -0.9500  0.5809
  434MOL0     H58572  12.476   0.091   9.029 -0.2551 -0.9459  0.3439
  434MOL0     H58573  12.297   0.023   8.892  3.8695  0.2838 -0.5912
  434MOL0     H58574  10.709   0.157   7.652 -3.9143  3.7412 -1.6364
  434MOL0     H58575  10.509   0.176   7.814 -0.0734 -0.1157  0.5487
  434MOL0     H58576  10.474   0.114   8.299  0.3555  0.7772  1.2152
  434MOL0     H58577  10.346  -0.023   8.442 -0.5373  0.5472  0.3186
  434MOL0     H58578  10.225  -0.172   8.533  1.5676  0.3839  3.3255
  434MOL0     H58579  10.068  -0.201   8.579  1.0731  0.9737  1.3047
  434MOL0     H58580  10.203   0.061   8.590  0.0580  0.6391 -1.3032
  434MOL0     H58581  10.128  -0.030   8.717  0.4778 -4.0344 -2.3864
  434MOL0     H58582   9.995   0.167   8.510 -2.4105 -0.4675  0.0891
  434MOL0     H58583   9.984   0.158   8.679  0.8801  1.4150  0.0305
  434MOL0     H58584   9.842  -0.025   8.460 -1.2610  0.4342 -0.7058
  434MOL0     H58585   9.840  -0.061   8.632  0.0184  2.6286  3.0291
  434MOL0     H58586   9.537   0.223   8.567 -0.3161  0.4833 -3.9872
  434MOL0     H58587  10.004  -0.014   8.183  1.0633 -1.5944 -0.0772
  434MOL0     H58588  10.016   0.079   7.965 -0.4409  1.5780 -2.6233
  434MOL0     H58589  10.107   0.226   7.976 -2.7444 -1.1519  2.5415
  434MOL0     H58590  10.183   0.084   7.897  0.7661  0.4121 -0.3894
  435MOL0     O58591  10.133   9.610   8.093 -0.1852 -0.0239  0.7464
  435MOL0     C58592  10.091   9.550   7.994  0.3251  0.9745  0.2087
  435MOL0     O58593  10.173   9.490   7.902  0.7731  0.9062  0.3239
  435MOL0     C58594  10.308   9.503   7.919  0.0083  0.0990  0.2710
  435MOL0     C58595  10.368   9.604   7.850 -0.1784  1.1495 -0.3918
  435MOL0     C58596  10.512   9.642   7.868  1.0280  0.2772  0.6051
  435MOL0     C58597  10.582   9.577   7.965 -0.1061 -0.0894 -0.4158
  435MOL0     O58598  10.709   9.617   7.992 -0.3909  0.3050  0.2053
  435MOL0     C58599  10.803   9.509   8.016  0.4975  0.1658 -0.6410
  435MOL0     C58600  10.950   9.563   8.004 -0.6257  0.4311 -0.2337
  435MOL0     C58601  11.044   9.446   8.027 -1.5279 -0.2538 -0.0896
  435MOL0     C58602  11.051   9.334   7.921  0.6229  0.6931  0.0201
  435MOL0     C58603  11.185   9.254   7.941 -0.5944 -0.5718 -0.5681
  435MOL0     C58604  11.181   9.114   7.879  0.3628  0.1860  0.0119
  435MOL0     C58605  11.155   9.117   7.730 -0.1911  0.0281 -0.1232
  435MOL0     C58606  11.139   8.982   7.660  0.5788 -0.2107 -0.1145
  435MOL0     N58607  11.275   8.916   7.647  0.1068  0.4732  0.3971
  435MOL0     C58608  11.380   8.936   7.561  1.1873 -0.4585 -0.1865
  435MOL0     C58609  11.483   8.861   7.602 -0.7510 -0.0326 -0.8343
  435MOL0     C58610  11.621   8.832   7.540 -0.0921 -0.7243 -0.0622
  435MOL0     C58611  11.702   8.961   7.544  0.3573 -0.0504 -1.0611
  435MOL0     C58612  11.695   9.041   7.682  0.0305  0.4936  0.7527
  435MOL0     C58613  11.709   8.944   7.802  0.4773 -0.4802  0.1608
  435MOL0     O58614  11.842   8.895   7.808 -0.8255  1.3014  0.6494
  435MOL0     C58615  11.926   8.918   7.912  1.1154  0.3918  0.7719
  435MOL0     C58616  12.057   8.881   7.902 -0.1615 -0.5301  0.1458
  435MOL0     C58617  12.158   8.915   7.996 -0.0603  0.6220 -0.0940
  435MOL0     C58618  12.123   8.991   8.103 -0.6475  0.2461 -0.3999
  435MOL0     C58619  12.228   9.015   8.209 -0.6712  1.3353  0.3627
  435MOL0     O58620  12.181   9.038   8.333  0.6617 -0.0433  1.0643
  435MOL0     C58621  12.269   9.058   8.431 -0.2191  0.5778 -0.3186
  435MOL0     C58622  12.392   9.124   8.414 -0.2008 -0.6354 -0.4632
  435MOL0     C58623  12.480   9.133   8.518  0.3310  0.0552  0.7785
  435MOL0     C58624  12.452   9.073   8.647  0.6335  0.4216  0.5834
  435MOL0     O58625  12.538   9.074   8.746  0.3447 -0.1416 -0.1242
  435MOL0     C58626  12.672   9.039   8.712 -0.6126  1.0388  0.3498
  435MOL0     C58627  12.752   9.023   8.844  0.2523 -0.1014  0.1806
  435MOL0     C58628  12.895   9.066   8.839 -0.7244  0.7000  0.5372
  435MOL0     C58629  12.963   9.054   8.974  0.4684  0.4202  0.3837
  435MOL0     C58630  13.115   9.061   8.968 -0.4038 -1.0125 -0.5795
  435MOL0     C58631  13.176   9.010   9.101  0.1055 -0.0108  0.6513
  435MOL0     C58632  13.322   9.047   9.117 -0.0972 -0.4585 -0.6436
  435MOL0     C58633  13.370   9.029   9.254  0.3933  0.3455  0.4579
  435MOL0    Cl58634  13.545   9.020   9.240  0.0012 -0.1065  0.3232
  435MOL0     C58635  12.327   9.029   8.667  0.4033 -0.2049 -0.2135
  435MOL0     C58636  12.239   9.017   8.558  0.0633  0.1676 -0.2063
  435MOL0     O58637  12.345   8.994   8.173  0.0695 -0.4605 -0.4076
  435MOL0     C58638  11.991   9.028   8.119  0.0450 -0.6982 -0.2547
  435MOL0     C58639  11.894   8.989   8.030  0.2931  1.3943  0.1520
  435MOL0     N58640  11.435   8.782   7.707  0.5227  1.1011 -1.1522
  435MOL0     N58641  11.312   8.814   7.729  0.4676  0.4698  0.5352
  435MOL0     C58642  10.515   9.478   8.042 -0.2119 -0.2761  0.0522
  435MOL0     C58643  10.386   9.433   8.018  0.9697 -0.1977  0.9865
  435MOL0     C58644   9.952   9.530   7.958  0.4430 -0.5406  0.1702
  435MOL0     C58645   9.920   9.425   7.874 -0.1918 -0.6020  0.0674
  435MOL0     C58646   9.790   9.398   7.828 -0.2104 -0.3474 -0.5084
  435MOL0     C58647   9.682   9.465   7.893  0.4292 -0.4307  0.5265
  435MOL0     O58648   9.547   9.444   7.873 -0.2669  0.0413  0.2044
  435MOL0     C58649   9.505   9.312   7.917  0.3893  0.5742 -0.3923
  435MOL0     C58650   9.418   9.305   8.044 -0.0934 -0.2050  0.5808
  435MOL0     C58651   9.292   9.397   8.036 -0.8859 -0.0264 -0.3013
  435MOL0     C58652   9.190   9.359   7.923 -0.2404 -0.7955 -0.5005
  435MOL0     C58653   9.156   9.218   7.905  0.3276 -0.5330  0.8668
  435MOL0     C58654   9.120   9.102   7.893  0.4710 -0.3642  0.9657
  435MOL0     C58655   9.718   9.566   7.979  0.2449 -0.0285  1.2756
  435MOL0     C58656   9.849   9.605   8.004  0.2404 -0.9107  0.0724
  435MOL0     C58657   9.866   9.718   8.099 -1.1935 -0.9307  0.1023
  435MOL0     H58658  10.309   9.672   7.790 -0.2910  0.0062 -1.6123
  435MOL0     H58659  10.555   9.707   7.792  1.1887 -2.5354 -1.9108
  435MOL0     H58660  10.791   9.467   8.116  0.6791  1.8825  0.1331
  435MOL0     H58661  10.779   9.425   7.950 -2.6282 -0.0748  0.6102
  435MOL0     H58662  10.986   9.640   8.073 -2.2175  0.7531  0.2710
  435MOL0     H58663  10.954   9.599   7.901 -1.1323  0.5991 -0.1950
  435MOL0     H58664  11.009   9.389   8.113  0.5707 -2.7288 -0.7485
  435MOL0     H58665  11.148   9.470   8.052 -0.6068 -1.9793 -1.9560
  435MOL0     H58666  10.964   9.271   7.941  0.1541  1.3085 -0.0584
  435MOL0     H58667  11.031   9.367   7.818  0.1057 -2.1490 -0.8807
  435MOL0     H58668  11.269   9.314   7.904 -0.2148 -0.4986  0.3852
  435MOL0     H58669  11.218   9.242   8.044  0.0112  2.8674 -0.2330
  435MOL0     H58670  11.281   9.071   7.891 -0.5300 -1.1405  4.4748
  435MOL0     H58671  11.105   9.051   7.926 -0.3766  0.5323 -0.6818
  435MOL0     H58672  11.236   9.180   7.694 -1.0917  2.4933  1.8442
  435MOL0     H58673  11.062   9.169   7.704  0.6928  0.2492 -3.2536
  435MOL0     H58674  11.076   8.911   7.715 -0.3457  0.6609 -0.0246
  435MOL0     H58675  11.091   8.998   7.563 -1.5165 -1.6576  0.6031
  435MOL0     H58676  11.398   8.994   7.470  1.8158 -0.2265  0.0814
  435MOL0     H58677  11.674   8.754   7.595  0.0566 -1.3521 -1.0618
  435MOL0     H58678  11.623   8.792   7.438 -0.0679  3.7504 -2.0666
  435MOL0     H58679  11.806   8.945   7.516  0.3523  0.8400 -1.6399
  435MOL0     H58680  11.670   9.027   7.463 -0.6045  0.6303 -0.1573
  435MOL0     H58681  11.606   9.104   7.690 -0.9730 -0.5104 -1.7409
  435MOL0     H58682  11.778   9.112   7.685 -1.0099  1.9718 -1.8581
  435MOL0     H58683  11.641   8.861   7.785 -1.8342  1.3526  0.0198
  435MOL0     H58684  11.675   8.998   7.890 -1.0376  0.8921 -1.2082
  435MOL0     H58685  12.083   8.828   7.812 -3.8557 -1.0990 -0.7350
  435MOL0     H58686  12.255   8.871   7.975 -1.0688 -1.1746 -1.3171
  435MOL0     H58687  12.434   9.176   8.329 -0.5139  0.2582 -0.0908
  435MOL0     H58688  12.570   9.190   8.501  0.2816  0.9741  3.2224
  435MOL0     H58689  12.676   8.951   8.647  1.8680  1.0273  0.4040
  435MOL0     H58690  12.725   9.116   8.656  0.1189 -0.7092 -1.4889
  435MOL0     H58691  12.707   9.080   8.926 -1.3464 -0.5290 -0.3599
  435MOL0     H58692  12.745   8.918   8.875  1.0827 -0.2376 -0.0626
  435MOL0     H58693  12.946   9.004   8.765 -1.9173 -1.9699  1.8190
  435MOL0     H58694  12.918   9.171   8.822  1.6734  0.3013  1.0361
  435MOL0     H58695  12.932   8.957   9.012  0.9531 -0.1881 -0.7373
  435MOL0     H58696  12.913   9.130   9.036 -2.5937  0.0767 -1.4692
  435MOL0     H58697  13.129   9.170   8.972 -2.7337 -0.6824  1.8313
  435MOL0     H58698  13.156   9.012   8.880 -0.7281 -1.9153 -0.2434
  435MOL0     H58699  13.120   9.058   9.181  1.6691  2.3177  0.4297
  435MOL0     H58700  13.159   8.901   9.104  0.1607 -0.1974 -2.3032
  435MOL0     H58701  13.335   9.154   9.097 -0.4435 -0.1813  0.5346
  435MOL0     H58702  13.383   8.996   9.042 -2.5754 -4.1448 -0.3811
  435MOL0     H58703  13.336   9.104   9.326 -1.0464 -0.6871  0.8793
  435MOL0     H58704  13.329   8.936   9.294 -0.8422  0.4650 -0.4502
  435MOL0     H58705  12.291   8.994   8.763  3.0629 -4.2888 -0.4758
  435MOL0     H58706  12.138   8.983   8.581 -0.7521  2.4396 -0.1832
  435MOL0     H58707  11.962   9.083   8.208  0.4263  0.7748 -1.0141
  435MOL0     H58708  11.793   9.013   8.061 -0.0044 -0.6785  0.9006
  435MOL0     H58709  10.569   9.434   8.126  2.0456 -1.8925 -2.0827
  435MOL0     H58710  10.341   9.363   8.088 -0.5893 -0.4977 -0.2452
  435MOL0     H58711   9.992   9.358   7.829 -1.6302 -2.1171 -0.0830
  435MOL0     H58712   9.760   9.330   7.749  0.6777 -0.7426 -0.5197
  435MOL0     H58713   9.586   9.243   7.942 -1.2012 -1.0598  0.4918
  435MOL0     H58714   9.454   9.262   7.834 -0.9011  0.5510  0.3911
  435MOL0     H58715   9.480   9.347   8.123 -1.1018  1.0013  0.7645
  435MOL0     H58716   9.386   9.203   8.068 -2.1450  0.1560 -0.3187
  435MOL0     H58717   9.327   9.499   8.018 -0.4382 -0.2245 -0.5921
  435MOL0     H58718   9.238   9.385   8.130 -2.1690  2.0693 -0.7141
  435MOL0     H58719   9.093   9.408   7.938  1.1119  1.6614  0.9815
  435MOL0     H58720   9.224   9.409   7.832  0.9826  0.4012  0.5534
  435MOL0     H58721   9.083   9.002   7.880 -1.5137  0.2822  1.3037
  435MOL0     H58722   9.633   9.608   8.032 -0.5086  1.3730 -0.8793
  435MOL0     H58723   9.915   9.804   8.053  1.5582 -1.7639  1.2978
  435MOL0     H58724   9.776   9.768   8.136  0.6744  2.6776  0.1634
  435MOL0     H58725   9.926   9.679   8.182  2.0405  1.8591 -0.7036
  436MOL0     O58726   3.912   8.826   6.349 -0.0698  0.1875 -0.6094
  436MOL0     C58727   3.891   8.781   6.241 -0.7330 -0.3983 -0.8680
  436MOL0     O58728   3.982   8.731   6.151  1.0911 -0.5843 -0.1937
  436MOL0     C58729   4.119   8.729   6.169 -0.9956 -0.2896 -0.1607
  436MOL0     C58730   4.197   8.702   6.054  0.1498  0.2942  0.2747
  436MOL0     C58731   4.338   8.696   6.068  0.1003  0.4993  1.2866
  436MOL0     C58732   4.405   8.727   6.179  0.3826 -0.8120  0.0296
  436MOL0     O58733   4.540   8.737   6.186  0.1050  0.4116  0.6199
  436MOL0     C58734   4.615   8.628   6.124 -0.2151 -0.4493 -0.4442
  436MOL0     C58735   4.770   8.636   6.148 -0.9415  1.1722 -0.3509
  436MOL0     C58736   4.824   8.652   6.294 -0.2893 -0.6846  1.1251
  436MOL0     C58737   4.754   8.772   6.359  0.6195  0.0928 -0.8327
  436MOL0     C58738   4.825   8.824   6.480 -0.6213 -0.3320 -0.3941
  436MOL0     C58739   4.742   8.944   6.543  0.6256  1.1579  0.4021
  436MOL0     C58740   4.738   9.064   6.447  0.0283 -0.1819  0.4066
  436MOL0     C58741   4.677   9.198   6.508  0.4133 -0.9944  0.1381
  436MOL0     N58742   4.533   9.184   6.567  0.6716 -0.6570 -0.4642
  436MOL0     C58743   4.416   9.164   6.492 -0.4791  0.5912 -0.9121
  436MOL0     C58744   4.316   9.152   6.589 -1.0162  0.0384  0.0318
  436MOL0     C58745   4.167   9.128   6.573  0.8807  0.1426 -0.3693
  436MOL0     C58746   4.101   9.211   6.458 -0.6374 -0.9273  0.1058
  436MOL0     C58747   3.954   9.199   6.462  1.2109  0.3574 -1.3843
  436MOL0     C58748   3.881   9.308   6.391 -0.3572  0.2192 -0.0024
  436MOL0     O58749   3.740   9.299   6.419 -0.1081 -0.1879 -0.4661
  436MOL0     C58750   3.654   9.374   6.340 -0.3240  0.9494 -0.1023
  436MOL0     C58751   3.519   9.344   6.347 -0.1025  0.4319 -0.2082
  436MOL0     C58752   3.425   9.409   6.275 -0.2668 -0.1708 -0.5136
  436MOL0     C58753   3.465   9.510   6.179  0.2524  0.0121 -0.7861
  436MOL0     C58754   3.366   9.582   6.112 -1.2235 -0.1773  0.5542
  436MOL0     O58755   3.403   9.706   6.072  0.5712 -1.1749  0.1095
  436MOL0     C58756   3.314   9.757   5.988  0.2010 -0.7420  0.1653
  436MOL0     C58757   3.340   9.780   5.855 -0.2819  0.4185 -0.2594
  436MOL0     C58758   3.242   9.824   5.761  0.5168 -0.5878  0.6036
  436MOL0     C58759   3.117   9.865   5.813 -0.5901 -0.4610  0.6120
  436MOL0     O58760   3.016   9.930   5.748 -0.4461 -0.6247  0.2712
  436MOL0     C58761   3.049   9.955   5.608  0.1031  0.0160 -0.0780
  436MOL0     C58762   2.935  10.034   5.535  0.0214  0.0817 -0.9438
  436MOL0     C58763   2.921  10.180   5.581  0.1429 -0.2100 -1.1830
  436MOL0     C58764   3.005  10.272   5.500 -0.0086 -0.8800 -0.4929
  436MOL0     C58765   3.098  10.359   5.575 -0.5692 -1.3489 -0.5873
  436MOL0     C58766   3.204  10.305   5.670  0.4604  0.1638 -1.2704
  436MOL0     C58767   3.305  10.406   5.714  1.1425 -0.6860 -0.1757
  436MOL0     C58768   3.399  10.335   5.807  1.4407  0.7292 -0.0956
  436MOL0    Cl58769   3.504  10.458   5.887  0.3408 -0.0788  0.0063
  436MOL0     C58770   3.096   9.846   5.943 -0.0306 -0.3899  0.1477
  436MOL0     C58771   3.194   9.800   6.029  0.4791  0.2561 -0.5187
  436MOL0     O58772   3.254   9.528   6.095 -0.2191  0.5715  0.5271
  436MOL0     C58773   3.604   9.545   6.169 -0.5229 -0.5745 -1.0412
  436MOL0     C58774   3.698   9.485   6.257  0.1465 -0.5564 -0.3362
  436MOL0     N58775   4.375   9.159   6.711  0.3101 -0.4385  0.6044
  436MOL0     N58776   4.496   9.191   6.696  0.2560 -0.8694 -0.7648
  436MOL0     C58777   4.324   8.770   6.296 -1.0205  0.1161 -0.1620
  436MOL0     C58778   4.186   8.767   6.288  0.4581  0.7395 -0.3476
  436MOL0     C58779   3.751   8.764   6.216 -0.4011 -0.6466 -0.2762
  436MOL0     C58780   3.702   8.668   6.122 -0.1060  0.1868  0.3247
  436MOL0     C58781   3.566   8.634   6.096  0.1042  0.7291 -0.0708
  436MOL0     C58782   3.468   8.713   6.161 -0.5570 -0.0178 -0.1556
  436MOL0     O58783   3.334   8.691   6.149  0.0390  0.0746 -0.4647
  436MOL0     C58784   3.277   8.643   6.025 -0.3914  0.0403  0.3234
  436MOL0     C58785   3.133   8.635   6.048  0.4411 -0.0359  0.4160
  436MOL0     C58786   3.072   8.762   6.107 -0.3881  0.2850  0.5479
  436MOL0     C58787   2.918   8.784   6.117  0.4550 -0.5399  0.0071
  436MOL0     C58788   2.857   8.705   6.220 -0.5930  0.2125 -0.7178
  436MOL0     C58789   2.814   8.643   6.310 -0.4432 -0.2842  0.1377
  436MOL0     C58790   3.511   8.808   6.253 -0.7425 -1.2781 -0.7656
  436MOL0     C58791   3.645   8.841   6.278  0.2239 -0.8852 -1.5730
  436MOL0     C58792   3.667   8.961   6.371  0.5151  0.7577 -0.1089
  436MOL0     H58793   4.146   8.688   5.960  1.7345  0.2560 -0.6200
  436MOL0     H58794   4.384   8.674   5.973 -3.7889 -0.9641 -0.4768
  436MOL0     H58795   4.579   8.532   6.162 -0.7953 -0.9234 -2.1403
  436MOL0     H58796   4.596   8.623   6.017 -1.0594 -0.3384 -0.3053
  436MOL0     H58797   4.801   8.726   6.094 -1.2857  2.4416  1.5118
  436MOL0     H58798   4.814   8.552   6.093 -1.1498  0.6504  0.2780
  436MOL0     H58799   4.932   8.669   6.301 -0.0832 -1.0503 -0.6751
  436MOL0     H58800   4.798   8.564   6.354 -1.5366 -0.2188  1.3187
  436MOL0     H58801   4.742   8.861   6.296 -0.0692  2.0205  1.8491
  436MOL0     H58802   4.660   8.732   6.400  1.6463  1.0825  2.7930
  436MOL0     H58803   4.818   8.742   6.552 -0.3436 -0.5739 -0.6431
  436MOL0     H58804   4.931   8.847   6.467  0.3545 -4.8630 -2.6301
  436MOL0     H58805   4.641   8.920   6.575  2.0700 -1.3670  3.7573
  436MOL0     H58806   4.793   8.967   6.637  1.0344  1.1153  0.1974
  436MOL0     H58807   4.681   9.038   6.358 -1.4065  1.1597  0.8847
  436MOL0     H58808   4.838   9.082   6.407 -0.5020  0.1040 -0.8282
  436MOL0     H58809   4.736   9.242   6.589  0.0870 -0.2412 -0.0328
  436MOL0     H58810   4.678   9.267   6.424 -0.8737  1.0510  1.7315
  436MOL0     H58811   4.407   9.150   6.385 -2.4670 -1.4771 -0.5501
  436MOL0     H58812   4.148   9.023   6.551 -1.3552  0.7624 -1.7557
  436MOL0     H58813   4.113   9.144   6.666 -0.0895  1.9524 -1.1850
  436MOL0     H58814   4.128   9.316   6.474  0.1557 -0.8528 -1.5504
  436MOL0     H58815   4.137   9.175   6.361  1.3072  1.3388 -0.1128
  436MOL0     H58816   3.923   9.199   6.567  1.9261 -2.0450 -1.1281
  436MOL0     H58817   3.930   9.099   6.425  1.1959  0.2423 -1.0641
  436MOL0     H58818   3.891   9.311   6.282  0.5617 -1.4571  0.0116
  436MOL0     H58819   3.930   9.401   6.421  0.7814 -0.5626  0.6244
  436MOL0     H58820   3.479   9.268   6.413 -1.2442 -0.6617 -2.0447
  436MOL0     H58821   3.322   9.392   6.303 -0.2143  2.5953  1.6949
  436MOL0     H58822   3.442   9.746   5.836  0.4850  1.4779  1.5964
  436MOL0     H58823   3.268   9.830   5.656 -0.5543 -0.1187  0.3564
  436MOL0     H58824   3.133  10.022   5.590 -0.3125 -0.0657 -2.7617
  436MOL0     H58825   3.078   9.862   5.558  0.1156  0.9495 -1.9080
  436MOL0     H58826   2.946  10.038   5.426 -2.0297 -1.3402 -1.2621
  436MOL0     H58827   2.851   9.966   5.550  2.5930 -2.9186  1.5308
  436MOL0     H58828   2.815  10.205   5.571  0.2107  1.5015  1.4054
  436MOL0     H58829   2.936  10.194   5.689  1.8564  1.6320 -1.5993
  436MOL0     H58830   2.943  10.329   5.430 -0.9863 -1.2655  0.0440
  436MOL0     H58831   3.063  10.209   5.432  1.9230 -1.9333  1.9713
  436MOL0     H58832   3.029  10.411   5.642  0.3129 -1.0484  0.1077
  436MOL0     H58833   3.140  10.428   5.501 -1.9117 -0.5261 -0.6216
  436MOL0     H58834   3.148  10.263   5.754 -0.2899  0.1825 -1.7545
  436MOL0     H58835   3.261  10.218   5.634 -1.3091 -1.9466  0.7124
  436MOL0     H58836   3.250  10.485   5.766 -1.7674 -3.4949  1.4140
  436MOL0     H58837   3.366  10.449   5.634 -1.7438 -0.8580 -2.6275
  436MOL0     H58838   3.334  10.289   5.882 -0.0056  1.2094 -1.0148
  436MOL0     H58839   3.450  10.253   5.756  0.5159 -1.0777  1.7274
  436MOL0     H58840   3.000   9.887   5.974 -0.5165 -1.9748  0.8312
  436MOL0     H58841   3.162   9.778   6.130 -1.5873  1.8360 -0.7669
  436MOL0     H58842   3.639   9.617   6.095  0.2355 -3.0621 -3.2594
  436MOL0     H58843   3.799   9.523   6.239  1.1377 -2.0991  1.5705
  436MOL0     H58844   4.366   8.790   6.394  2.5708 -2.1458 -1.0541
  436MOL0     H58845   4.130   8.803   6.374 -0.7618 -2.9694  0.6061
  436MOL0     H58846   3.779   8.608   6.074  3.1084  2.9563  1.5396
  436MOL0     H58847   3.531   8.556   6.029  0.3264  1.8855 -1.5850
  436MOL0     H58848   3.317   8.544   6.002 -2.3952 -0.3564 -1.8020
  436MOL0     H58849   3.297   8.703   5.936  1.7502 -2.4715 -1.0201
  436MOL0     H58850   3.104   8.551   6.112 -0.7098  1.1867  1.5697
  436MOL0     H58851   3.077   8.610   5.957  1.8350 -4.6780  0.6020
  436MOL0     H58852   3.112   8.832   6.034  0.8468 -0.2219  0.7262
  436MOL0     H58853   3.109   8.775   6.209 -1.6019 -1.2284  1.2320
  436MOL0     H58854   2.900   8.891   6.128 -1.2396 -0.7504 -0.4001
  436MOL0     H58855   2.857   8.763   6.028 -1.6792  2.8409  0.4938
  436MOL0     H58856   2.769   8.594   6.394  0.1100 -0.2601  0.4507
  436MOL0     H58857   3.436   8.870   6.301 -0.0157 -1.1711  0.2666
  436MOL0     H58858   3.572   9.015   6.381  0.6741  1.0486 -0.1580
  436MOL0     H58859   3.704   8.943   6.472 -0.3599  0.4041  0.1583
  436MOL0     H58860   3.731   9.029   6.315  2.3172 -2.3094 -2.0763
  437MOL0     O58861   5.730   8.498   6.375  0.4296 -0.0593  0.0094
  437MOL0     C58862   5.726   8.588   6.463  0.9652  0.1237 -0.1309
  437MOL0     O58863   5.773   8.562   6.588 -0.4996 -0.4470 -0.0513
  437MOL0     C58864   5.836   8.447   6.610 -0.0800  0.5651 -0.1757
  437MOL0     C58865   5.770   8.326   6.602 -0.7683  1.3553  0.3498
  437MOL0     C58866   5.839   8.210   6.654 -1.1689 -0.7643  0.4841
  437MOL0     C58867   5.974   8.212   6.692 -0.1920  0.5568  0.8174
  437MOL0     O58868   6.039   8.099   6.732 -0.1999 -0.3044  0.4005
  437MOL0     C58869   6.094   8.033   6.621 -0.3319  0.2805 -0.0821
  437MOL0     C58870   6.182   7.925   6.678 -1.3973  0.5929  0.6824
  437MOL0     C58871   6.267   7.863   6.562 -0.1217 -0.1085  0.1686
  437MOL0     C58872   6.347   7.742   6.608 -0.3448 -0.0879 -0.1774
  437MOL0     C58873   6.486   7.752   6.558 -0.2035 -0.5597 -0.1567
  437MOL0     C58874   6.571   7.638   6.597 -0.3213  0.1456  0.5696
  437MOL0     C58875   6.684   7.599   6.497  0.3479 -0.0147  0.1957
  437MOL0     C58876   6.744   7.470   6.551  0.1263  0.5833  0.8505
  437MOL0     N58877   6.836   7.482   6.665 -0.1693 -0.2859  0.6337
  437MOL0     C58878   6.969   7.529   6.652  0.1302  0.9415  1.1579
  437MOL0     C58879   7.026   7.495   6.765 -0.1295  0.2482  0.3153
  437MOL0     C58880   7.161   7.540   6.811 -1.0918 -1.2823 -0.1640
  437MOL0     C58881   7.259   7.431   6.838 -0.3817 -0.1840  0.0664
  437MOL0     C58882   7.401   7.485   6.822 -0.4712  0.6083 -0.8632
  437MOL0     C58883   7.497   7.374   6.876 -0.0083  1.1852 -0.1176
  437MOL0     O58884   7.627   7.432   6.876  0.2682  0.2290 -0.5681
  437MOL0     C58885   7.742   7.360   6.909  0.3045  0.4517 -0.6326
  437MOL0     C58886   7.733   7.220   6.939 -0.2987 -1.1522  0.3309
  437MOL0     C58887   7.850   7.151   6.969  0.8328 -1.5866 -0.2988
  437MOL0     C58888   7.979   7.216   6.972  0.1933 -0.3640 -0.2933
  437MOL0     C58889   8.100   7.135   6.974 -0.0527  0.2477 -0.9825
  437MOL0     O58890   8.077   7.001   7.005 -0.3445 -0.0573  0.3979
  437MOL0     C58891   8.188   6.922   6.973  0.2233 -0.0015  0.7160
  437MOL0     C58892   8.248   6.854   7.077 -1.1303 -0.4218 -0.1248
  437MOL0     C58893   8.358   6.768   7.047 -0.3763  0.0252  0.3724
  437MOL0     C58894   8.417   6.770   6.914  0.2494 -0.0065  0.4114
  437MOL0     O58895   8.528   6.698   6.878 -0.3399  0.3815  0.1595
  437MOL0     C58896   8.595   6.615   6.976  0.3813  0.7355 -0.4936
  437MOL0     C58897   8.729   6.578   6.924  0.3820 -0.6455  0.9407
  437MOL0     C58898   8.815   6.702   6.901 -0.4503 -0.6835 -0.8530
  437MOL0     C58899   8.952   6.666   6.864  0.4204 -0.2176  0.2272
  437MOL0     C58900   9.045   6.790   6.854  1.1611  0.1152  0.6524
  437MOL0     C58901   9.196   6.748   6.858 -0.1912 -0.3727  0.2086
  437MOL0     C58902   9.277   6.845   6.949  0.0661 -0.6817  0.4373
  437MOL0     C58903   9.419   6.830   6.903 -0.1272  0.2352 -0.6651
  437MOL0    Cl58904   9.425   6.915   6.744  0.0538 -0.2698 -0.1045
  437MOL0     C58905   8.361   6.852   6.818 -0.5523  0.4890  0.2948
  437MOL0     C58906   8.244   6.917   6.841 -0.7079 -0.1426 -0.2253
  437MOL0     O58907   8.213   7.185   6.958  0.0126 -0.8139  0.2408
  437MOL0     C58908   7.980   7.351   6.937  0.1764 -0.2589 -0.5577
  437MOL0     C58909   7.869   7.430   6.903 -0.0661  0.7817  0.2054
  437MOL0     N58910   6.941   7.422   6.843 -1.0004  0.2745 -0.5889
  437MOL0     N58911   6.829   7.406   6.782  0.5403  0.1541  0.8752
  437MOL0     C58912   6.031   8.335   6.695 -0.4107  0.6095  0.7009
  437MOL0     C58913   5.969   8.458   6.654  0.6891  0.7696  0.5556
  437MOL0     C58914   5.673   8.723   6.435  0.2903 -0.8724  0.0872
  437MOL0     C58915   5.675   8.757   6.300  0.9773 -0.6685  0.3520
  437MOL0     C58916   5.614   8.877   6.254 -0.1917  0.0226  0.0684
  437MOL0     C58917   5.575   8.964   6.349 -0.1767 -0.8710 -0.8460
  437MOL0     O58918   5.528   9.086   6.310  0.4364 -0.0518 -0.0533
  437MOL0     C58919   5.614   9.184   6.243 -0.3131  0.7923  0.0981
  437MOL0     C58920   5.563   9.316   6.301 -1.2926  0.2358  0.4363
  437MOL0     C58921   5.662   9.427   6.273 -0.0253 -0.1857  0.7628
  437MOL0     C58922   5.634   9.533   6.380 -0.6324 -0.3599 -1.1221
  437MOL0     C58923   5.729   9.646   6.345 -0.5336 -0.0544 -0.0672
  437MOL0     C58924   5.806   9.730   6.313 -0.2884 -0.2126  0.2638
  437MOL0     C58925   5.578   8.940   6.486  0.9455  0.7370 -0.0154
  437MOL0     C58926   5.618   8.809   6.533  0.3250 -1.0727  0.2685
  437MOL0     C58927   5.632   8.784   6.677  0.8566  0.4888  0.0024
  437MOL0     H58928   5.666   8.318   6.573 -0.5127  0.2654 -0.2788
  437MOL0     H58929   5.790   8.116   6.671  1.6316 -2.1213  1.7881
  437MOL0     H58930   6.023   7.991   6.550 -0.1039 -3.0177  1.4672
  437MOL0     H58931   6.147   8.095   6.549 -0.9943 -0.4300 -1.2013
  437MOL0     H58932   6.139   7.841   6.733  0.9729 -0.1000  1.6359
  437MOL0     H58933   6.262   7.961   6.744 -1.2201  0.3781  0.5868
  437MOL0     H58934   6.335   7.937   6.519 -1.4488  0.3196 -1.2755
  437MOL0     H58935   6.204   7.835   6.477 -0.1175  0.7430 -0.1233
  437MOL0     H58936   6.346   7.741   6.718 -0.6087  3.4593 -0.0261
  437MOL0     H58937   6.316   7.640   6.585  3.3424 -1.3787 -0.0448
  437MOL0     H58938   6.476   7.765   6.450 -0.0330 -0.6919 -0.1889
  437MOL0     H58939   6.534   7.839   6.603  1.1182 -0.3107 -1.9476
  437MOL0     H58940   6.617   7.663   6.693 -1.1800 -0.8950  1.2766
  437MOL0     H58941   6.522   7.541   6.606  1.8017 -0.9967  0.6138
  437MOL0     H58942   6.756   7.681   6.486 -2.5266  2.2968 -3.9161
  437MOL0     H58943   6.641   7.580   6.399  0.5142  1.3516 -0.1634
  437MOL0     H58944   6.676   7.387   6.570  0.4442  0.2942  0.7546
  437MOL0     H58945   6.813   7.438   6.471  1.9605  1.4379  2.0126
  437MOL0     H58946   7.017   7.585   6.573 -1.0289  0.4780  0.0945
  437MOL0     H58947   7.199   7.609   6.735 -0.5438 -2.9118 -1.4470
  437MOL0     H58948   7.161   7.611   6.894  1.5288  0.3573 -1.4589
  437MOL0     H58949   7.237   7.403   6.941 -1.0226  0.1431  0.0210
  437MOL0     H58950   7.241   7.337   6.785  0.0208 -1.0381  1.3997
  437MOL0     H58951   7.417   7.577   6.879  1.7189  0.5329 -1.2427
  437MOL0     H58952   7.419   7.504   6.716 -0.5079 -3.3614 -1.7472
  437MOL0     H58953   7.497   7.285   6.812  1.6633  0.3833  0.9315
  437MOL0     H58954   7.450   7.353   6.972 -1.3933 -0.2629 -1.0615
  437MOL0     H58955   7.642   7.161   6.945  0.2572 -2.1770 -0.7717
  437MOL0     H58956   7.842   7.045   6.989 -4.2361 -1.1289  1.5271
  437MOL0     H58957   8.203   6.872   7.174  1.7102  0.5962  1.1300
  437MOL0     H58958   8.390   6.712   7.135 -4.4054 -1.6980  1.0054
  437MOL0     H58959   8.618   6.672   7.066  0.5435 -0.4523  0.2334
  437MOL0     H58960   8.535   6.526   7.000 -2.9422  2.7916 -0.5132
  437MOL0     H58961   8.781   6.510   6.991  1.4520  0.7261  1.5300
  437MOL0     H58962   8.728   6.516   6.833  1.1818 -1.5111  1.5070
  437MOL0     H58963   8.763   6.758   6.823 -0.6121 -1.2784 -1.1783
  437MOL0     H58964   8.820   6.761   6.993  2.7917 -2.0884  0.0278
  437MOL0     H58965   8.953   6.610   6.770  1.0159 -0.6018  0.4561
  437MOL0     H58966   8.993   6.613   6.950  2.3054 -0.4387 -0.7437
  437MOL0     H58967   9.023   6.845   6.947  0.8881 -1.0800  1.3223
  437MOL0     H58968   9.029   6.844   6.761 -0.2967 -1.0328  0.1994
  437MOL0     H58969   9.209   6.644   6.890 -0.9526 -0.8610 -1.0285
  437MOL0     H58970   9.228   6.744   6.754 -1.3888 -1.0500 -0.1497
  437MOL0     H58971   9.271   6.824   7.057  2.3651 -0.3230  0.6947
  437MOL0     H58972   9.244   6.948   6.935  0.3708 -0.3529  1.9269
  437MOL0     H58973   9.471   6.898   6.971 -3.8649  2.2576  0.4507
  437MOL0     H58974   9.459   6.728   6.912 -1.1206 -0.0934  0.2181
  437MOL0     H58975   8.420   6.871   6.729  1.4558  1.3839  1.7252
  437MOL0     H58976   8.207   6.984   6.764 -1.4576 -1.6499 -1.2299
  437MOL0     H58977   8.079   7.393   6.920 -0.2757 -0.1785 -3.5999
  437MOL0     H58978   7.874   7.530   6.861 -0.6121  0.9918  0.6293
  437MOL0     H58979   6.135   8.333   6.724 -0.4204  1.5219  0.8377
  437MOL0     H58980   6.022   8.550   6.674 -0.1759  1.1784  1.0084
  437MOL0     H58981   5.712   8.690   6.223  0.3317 -0.3444 -0.2504
  437MOL0     H58982   5.618   8.922   6.155  2.5354  2.5948  1.1930
  437MOL0     H58983   5.604   9.182   6.134 -1.4589  0.4183  0.1943
  437MOL0     H58984   5.719   9.170   6.269 -0.7218  2.0867  2.8512
  437MOL0     H58985   5.554   9.285   6.406  1.1654  1.1023  0.9786
  437MOL0     H58986   5.464   9.348   6.267 -2.1710  0.6278  3.1523
  437MOL0     H58987   5.645   9.459   6.170  2.9520 -2.8813 -0.7644
  437MOL0     H58988   5.769   9.402   6.265  0.1287  0.2502  1.4114
  437MOL0     H58989   5.531   9.560   6.403  0.3010  1.3124  1.5630
  437MOL0     H58990   5.676   9.487   6.470  1.1323  1.3390 -1.0055
  437MOL0     H58991   5.864   9.820   6.302 -1.8881  0.8228  0.0103
  437MOL0     H58992   5.548   9.016   6.558 -1.6343 -0.3211  0.1018
  437MOL0     H58993   5.735   8.802   6.710  0.9911  0.3559 -0.3340
  437MOL0     H58994   5.568   8.856   6.727  1.5300  0.9627  0.1941
  437MOL0     H58995   5.610   8.679   6.699 -0.0526  0.0429 -2.6240
  438MOL0     O58996  10.994   4.299   4.525  0.1769 -0.1288 -0.0387
  438MOL0     C58997  11.033   4.272   4.640  0.6788 -0.0822  0.7927
  438MOL0     O58998  11.153   4.228   4.665 -0.2655 -0.2583 -0.3066
  438MOL0     C58999  11.246   4.165   4.583 -0.4873  0.0293 -0.3284
  438MOL0     C59000  11.383   4.151   4.633  0.5193 -0.0270  0.2497
  438MOL0     C59001  11.490   4.119   4.541 -0.9742  0.7173  0.3553
  438MOL0     C59002  11.460   4.073   4.410 -0.6525  0.1899  0.0335
  438MOL0     O59003  11.562   4.045   4.325  0.3747 -0.7660  0.4034
  438MOL0     C59004  11.554   4.050   4.181  0.2211 -0.0576 -0.0859
  438MOL0     C59005  11.507   3.924   4.113  0.0257 -0.6671  0.6949
  438MOL0     C59006  11.595   3.809   4.115  0.3626  0.5730 -0.1289
  438MOL0     C59007  11.505   3.702   4.053 -0.5651  0.6388 -0.8581
  438MOL0     C59008  11.571   3.564   4.061  0.2949  1.0176 -0.9373
  438MOL0     C59009  11.697   3.551   3.977  0.5134  0.5771 -0.6206
  438MOL0     C59010  11.810   3.494   4.062 -0.7202 -0.2975 -0.1929
  438MOL0     C59011  11.947   3.477   4.000 -0.3578 -0.5808  0.4474
  438MOL0     N59012  11.933   3.419   3.855 -0.0899  0.1298 -0.3515
  438MOL0     C59013  11.937   3.284   3.832  0.3228 -1.1493 -0.6913
  438MOL0     C59014  11.954   3.278   3.697  0.0117  0.2747  1.3690
  438MOL0     C59015  11.967   3.146   3.618 -0.0103 -0.0731 -0.1631
  438MOL0     C59016  12.102   3.143   3.551 -0.1186 -0.1260 -0.0798
  438MOL0     C59017  12.144   3.005   3.496  0.7892  0.1938  0.3124
  438MOL0     C59018  12.259   3.023   3.413 -0.8515  1.3568 -0.7605
  438MOL0     O59019  12.315   2.896   3.390 -0.1796 -0.0716 -0.4007
  438MOL0     C59020  12.459   2.888   3.386 -0.1208  0.1078  0.3455
  438MOL0     C59021  12.531   2.986   3.327  0.0355 -0.0757  0.5374
  438MOL0     C59022  12.670   2.990   3.333  0.1341  0.0013  0.0216
  438MOL0     C59023  12.743   2.889   3.397  0.1590 -0.0408 -0.6902
  438MOL0     C59024  12.889   2.898   3.427 -0.3015  0.1366  0.0844
  438MOL0     O59025  12.961   3.008   3.379  0.1972 -0.5324  0.5786
  438MOL0     C59026  13.092   3.007   3.407 -0.3291 -0.0014  0.1507
  438MOL0     C59027  13.141   3.082   3.514 -0.5940 -0.3684 -0.4391
  438MOL0     C59028  13.276   3.072   3.559  0.8022  0.3276  0.2803
  438MOL0     C59029  13.368   3.005   3.477  0.0310  0.7226  0.5761
  438MOL0     O59030  13.501   3.001   3.507 -0.2345 -0.7829 -0.0443
  438MOL0     C59031  13.591   3.020   3.394  0.6769 -0.0118 -0.2612
  438MOL0     C59032  13.723   3.035   3.451 -0.3220 -0.0247  0.7164
  438MOL0     C59033  13.837   3.054   3.345 -0.0949 -0.0536  0.9734
  438MOL0     C59034  13.961   3.088   3.431 -0.8224 -0.0049  0.8135
  438MOL0     C59035  14.082   3.110   3.346  0.7290 -0.3280 -0.0231
  438MOL0     C59036  14.215   3.130   3.430 -0.1142 -0.4473 -0.3082
  438MOL0     C59037  14.313   3.199   3.336 -0.5467 -0.4459 -0.2399
  438MOL0     C59038  14.400   3.292   3.426  0.3594 -0.0736 -0.2765
  438MOL0    Cl59039  14.498   3.205   3.543 -0.1834  0.3910 -0.3069
  438MOL0     C59040  13.317   2.939   3.364 -0.8520  0.3138 -0.2013
  438MOL0     C59041  13.183   2.935   3.326  0.3472 -0.4290 -0.5674
  438MOL0     O59042  12.936   2.815   3.495 -1.3551  0.4880 -0.2551
  438MOL0     C59043  12.672   2.779   3.442 -0.2483 -0.9879 -0.6148
  438MOL0     C59044  12.533   2.773   3.433 -1.1082 -0.1477 -0.0853
  438MOL0     N59045  11.949   3.404   3.642 -0.0775 -0.4094  0.0130
  438MOL0     N59046  11.940   3.493   3.740 -0.7340  0.5068  0.2422
  438MOL0     C59047  11.328   4.052   4.380  0.1701  0.7401  1.0076
  438MOL0     C59048  11.221   4.105   4.452 -0.6038  0.4837  0.4362
  438MOL0     C59049  10.933   4.290   4.747 -0.3480  0.1245  0.2288
  438MOL0     C59050  10.862   4.417   4.754  0.2441 -0.4100 -0.4912
  438MOL0     C59051  10.767   4.432   4.861  0.0249 -0.2963  0.8289
  438MOL0     C59052  10.724   4.325   4.944  0.3807 -0.0250  0.1901
  438MOL0     O59053  10.633   4.359   5.046  0.3753  0.1822  0.2000
  438MOL0     C59054  10.531   4.257   5.063  0.7401  0.2137  0.4073
  438MOL0     C59055  10.391   4.319   5.034  0.0640 -0.8245  0.1979
  438MOL0     C59056  10.282   4.219   5.042 -0.6349 -0.2405 -0.3059
  438MOL0     C59057  10.148   4.283   5.059  0.5262  0.3403 -0.5524
  438MOL0     C59058  10.056   4.173   5.096  0.0436 -0.2387 -0.1379
  438MOL0     C59059   9.977   4.081   5.115  0.5125 -0.4259  0.5172
  438MOL0     C59060  10.799   4.205   4.934 -0.1939  0.4292  0.5223
  438MOL0     C59061  10.899   4.183   4.836  0.4334 -0.5438 -0.5267
  438MOL0     C59062  10.974   4.060   4.820  0.3803  0.0275 -0.9720
  438MOL0     H59063  11.404   4.177   4.736  0.8413 -2.7147  0.9458
  438MOL0     H59064  11.593   4.122   4.576 -0.5988  1.3742 -0.7680
  438MOL0     H59065  11.484   4.131   4.157 -0.8625 -0.7261  0.6993
  438MOL0     H59066  11.656   4.070   4.149  0.0031  1.5598  0.1558
  438MOL0     H59067  11.483   3.937   4.006  3.0235 -2.6611 -0.3419
  438MOL0     H59068  11.415   3.888   4.160 -0.1751 -0.1533  0.6965
  438MOL0     H59069  11.620   3.771   4.215 -0.5087 -0.3358 -0.2380
  438MOL0     H59070  11.682   3.835   4.056  0.3199  2.6407  0.6414
  438MOL0     H59071  11.409   3.694   4.104  0.0837 -4.0494  0.0776
  438MOL0     H59072  11.492   3.719   3.946 -0.5857 -3.6109 -1.6731
  438MOL0     H59073  11.583   3.538   4.167  0.8851 -2.4993 -1.7438
  438MOL0     H59074  11.488   3.502   4.025 -1.1156  1.0103  1.9927
  438MOL0     H59075  11.677   3.481   3.896 -0.3600  0.2153 -0.1102
  438MOL0     H59076  11.728   3.638   3.919 -1.2815  0.6118 -1.6226
  438MOL0     H59077  11.781   3.397   4.102  0.7119 -0.6411  0.0692
  438MOL0     H59078  11.819   3.563   4.146  0.8662 -1.4225  0.6166
  438MOL0     H59079  11.993   3.576   3.990 -1.5136 -0.2784 -3.3320
  438MOL0     H59080  12.017   3.426   4.067  2.7118 -0.1455 -2.1807
  438MOL0     H59081  11.919   3.218   3.917 -2.2487 -0.3673 -0.5336
  438MOL0     H59082  11.953   3.058   3.682  3.2866  0.9159  2.1597
  438MOL0     H59083  11.880   3.144   3.552  1.0581  2.2638 -1.7764
  438MOL0     H59084  12.102   3.214   3.467  3.7447  0.3196  0.1144
  438MOL0     H59085  12.175   3.176   3.626  0.1677 -0.1815 -0.3285
  438MOL0     H59086  12.061   2.958   3.442  1.9285 -3.7727  1.6574
  438MOL0     H59087  12.152   2.937   3.581 -1.4831 -2.0673 -1.1370
  438MOL0     H59088  12.335   3.088   3.459  0.6600 -0.5898 -0.3822
  438MOL0     H59089  12.242   3.057   3.310  2.0805  1.6128 -1.2499
  438MOL0     H59090  12.481   3.065   3.272  0.8561  0.2812  0.2918
  438MOL0     H59091  12.718   3.081   3.299  0.3720  0.6331  1.9180
  438MOL0     H59092  13.071   3.137   3.576 -2.6727 -2.0574 -1.1676
  438MOL0     H59093  13.315   3.132   3.641 -1.7590  0.3446  1.5696
  438MOL0     H59094  13.588   2.932   3.330 -2.8680  0.8940 -1.5435
  438MOL0     H59095  13.556   3.099   3.327  2.9417 -0.8572 -2.5876
  438MOL0     H59096  13.719   3.115   3.526 -2.6238 -0.6736  1.3502
  438MOL0     H59097  13.747   2.939   3.499  0.1921 -0.6406 -0.7260
  438MOL0     H59098  13.849   2.968   3.278 -1.6026 -0.6185  1.3940
  438MOL0     H59099  13.826   3.135   3.272  4.1479 -0.3758 -0.3098
  438MOL0     H59100  13.972   3.005   3.502 -0.8467  1.1047  2.1683
  438MOL0     H59101  13.949   3.178   3.492 -0.2393  1.3229 -0.9527
  438MOL0     H59102  14.055   3.195   3.282  3.2150 -0.0252 -0.7821
  438MOL0     H59103  14.093   3.029   3.274  1.9697 -0.9538  0.8214
  438MOL0     H59104  14.186   3.193   3.515 -0.2745  1.6153 -1.8252
  438MOL0     H59105  14.243   3.032   3.470 -0.6177 -0.1110  0.9471
  438MOL0     H59106  14.264   3.265   3.264 -2.3854 -0.6917  0.7148
  438MOL0     H59107  14.374   3.124   3.285  1.3346  1.2862 -0.6601
  438MOL0     H59108  14.471   3.356   3.372  0.0645 -0.5566 -1.2596
  438MOL0     H59109  14.345   3.368   3.482  1.2022 -0.1353  0.6631
  438MOL0     H59110  13.389   2.883   3.304 -0.7000  0.3928 -0.0957
  438MOL0     H59111  13.144   2.888   3.237 -5.4631  1.2676  0.6794
  438MOL0     H59112  12.729   2.697   3.487  1.4623  0.2073 -0.5027
  438MOL0     H59113  12.486   2.677   3.454 -1.4701  0.4349  1.9264
  438MOL0     H59114  11.290   4.009   4.288 -0.4151  2.2867  0.4984
  438MOL0     H59115  11.121   4.114   4.412 -0.6673 -0.3184  0.3883
  438MOL0     H59116  10.890   4.496   4.684  0.5724 -1.3023 -1.3839
  438MOL0     H59117  10.716   4.526   4.879 -1.9582 -0.7823 -1.6557
  438MOL0     H59118  10.534   4.234   5.170 -4.4546  2.4607  1.3672
  438MOL0     H59119  10.540   4.166   5.003 -1.4124  0.9579 -1.1775
  438MOL0     H59120  10.387   4.375   4.941 -2.8450 -0.2308  0.5729
  438MOL0     H59121  10.374   4.397   5.109 -2.5980  0.7445 -1.8688
  438MOL0     H59122  10.313   4.152   5.123  0.7494 -0.6721 -1.1539
  438MOL0     H59123  10.288   4.157   4.952  1.1474 -2.4204  1.1956
  438MOL0     H59124  10.165   4.362   5.132  0.7190  0.6556 -0.9302
  438MOL0     H59125  10.125   4.318   4.958  0.6615 -2.3182 -1.6047
  438MOL0     H59126   9.901   4.006   5.121 -0.3734  0.3307 -0.8900
  438MOL0     H59127  10.771   4.130   5.007  0.7173 -1.4786 -1.0078
  438MOL0     H59128  11.075   4.096   4.840 -0.5991  2.3618  0.1240
  438MOL0     H59129  10.931   3.992   4.894  0.9832  0.7196  0.0330
  438MOL0     H59130  10.963   4.021   4.718 -0.6672 -1.5614 -0.2840
  439MOL0     O59131   1.040   8.653   5.196 -0.0054 -0.0798  1.1235
  439MOL0     C59132   0.924   8.701   5.186  0.1714  0.2173 -0.4031
  439MOL0     O59133   0.806   8.630   5.192 -1.0742 -0.3435  0.1185
  439MOL0     C59134   0.806   8.505   5.247 -0.4652  0.7138 -0.4367
  439MOL0     C59135   0.703   8.423   5.206  0.6177 -0.4155 -0.5999
  439MOL0     C59136   0.675   8.295   5.261  0.1704 -0.7275 -0.2313
  439MOL0     C59137   0.762   8.237   5.356  0.7528 -0.2991  0.0450
  439MOL0     O59138   0.732   8.110   5.395  0.6337  0.3425 -0.7363
  439MOL0     C59139   0.811   8.024   5.489  0.0581 -0.2148  0.6296
  439MOL0     C59140   0.828   7.883   5.422  0.4951  0.2087 -0.0653
  439MOL0     C59141   0.706   7.797   5.450 -1.3374 -1.6391 -0.2784
  439MOL0     C59142   0.718   7.680   5.354  0.3562 -0.0448 -0.7444
  439MOL0     C59143   0.600   7.583   5.389  0.2557 -0.6433 -0.6757
  439MOL0     C59144   0.572   7.476   5.285 -1.1215  0.5170 -0.5148
  439MOL0     C59145   0.699   7.392   5.241 -0.6452  0.4767 -0.6564
  439MOL0     C59146   0.659   7.242   5.215  0.4524 -1.1976 -0.4146
  439MOL0     N59147   0.775   7.151   5.203  0.3341  0.1914 -0.0592
  439MOL0     C59148   0.814   7.073   5.308 -0.6690  1.1531  0.1119
  439MOL0     C59149   0.905   6.995   5.241 -0.0131  0.1814 -0.0799
  439MOL0     C59150   0.964   6.869   5.305 -0.1090  1.0799  0.7989
  439MOL0     C59151   1.115   6.877   5.323  0.6618  0.0661  0.1640
  439MOL0     C59152   1.188   6.743   5.340 -0.7601  0.2952 -0.3613
  439MOL0     C59153   1.337   6.769   5.384 -0.3742  0.8159  0.8555
  439MOL0     O59154   1.402   6.639   5.384  0.0017  0.4274  0.7024
  439MOL0     C59155   1.522   6.633   5.458  0.3182  0.0349 -0.7942
  439MOL0     C59156   1.591   6.747   5.507  0.1469  0.1846  0.6461
  439MOL0     C59157   1.720   6.730   5.555 -0.1713  0.3326  1.1174
  439MOL0     C59158   1.767   6.604   5.553  0.4069  0.1150  0.8587
  439MOL0     C59159   1.920   6.588   5.574 -0.1039 -0.5552 -0.4711
  439MOL0     O59160   1.992   6.701   5.589 -0.4192 -0.1945 -0.1792
  439MOL0     C59161   2.127   6.688   5.625  0.6748  0.2824  0.7910
  439MOL0     C59162   2.188   6.583   5.699 -0.4498 -0.3102 -0.1358
  439MOL0     C59163   2.324   6.593   5.744 -0.3199  0.2066  0.6607
  439MOL0     C59164   2.404   6.700   5.705 -1.1475 -0.4607  0.2560
  439MOL0     O59165   2.529   6.704   5.755  0.1561  0.0346  0.2860
  439MOL0     C59166   2.622   6.773   5.671  0.6760  0.7434  0.2668
  439MOL0     C59167   2.764   6.714   5.707  0.6832  0.2878  0.5328
  439MOL0     C59168   2.877   6.765   5.611  0.2870 -0.0678 -0.3703
  439MOL0     C59169   3.017   6.733   5.668 -0.4623 -0.0653 -0.3195
  439MOL0     C59170   3.135   6.783   5.575  0.0128  0.4307 -0.1151
  439MOL0     C59171   3.147   6.721   5.429  0.4577  0.3151 -1.0460
  439MOL0     C59172   3.261   6.768   5.343 -0.0828  0.6986 -0.1326
  439MOL0     C59173   3.275   6.921   5.337 -0.0178  0.4413  0.1377
  439MOL0    Cl59174   3.434   6.960   5.267 -0.1400  0.4780 -0.1857
  439MOL0     C59175   2.341   6.810   5.643 -0.0077 -0.5929 -0.0387
  439MOL0     C59176   2.208   6.802   5.608  0.0345  0.1361  1.0580
  439MOL0     O59177   1.960   6.478   5.558 -0.4880  0.7205  0.1681
  439MOL0     C59178   1.693   6.482   5.523  0.0975 -0.2929  0.4322
  439MOL0     C59179   1.566   6.503   5.474 -0.2242 -0.4905 -1.0392
  439MOL0     N59180   0.929   7.044   5.113  1.0375 -0.1089  0.0575
  439MOL0     N59181   0.866   7.149   5.098  0.2118 -0.2301  0.0749
  439MOL0     C59182   0.875   8.318   5.400 -0.2412  0.8593 -0.1578
  439MOL0     C59183   0.888   8.448   5.348 -0.2313 -0.8478 -0.1872
  439MOL0     C59184   0.911   8.847   5.152 -0.1625 -0.1924 -0.4283
  439MOL0     C59185   0.792   8.888   5.096  0.4406 -0.5522 -0.7724
  439MOL0     C59186   0.761   9.025   5.074 -0.9878  0.1516  0.2270
  439MOL0     C59187   0.856   9.126   5.102  0.6979 -0.0614 -0.0162
  439MOL0     O59188   0.837   9.263   5.078 -0.2822 -0.0332  0.4125
  439MOL0     C59189   0.741   9.306   4.982 -0.6240  0.5480 -0.0156
  439MOL0     C59190   0.731   9.464   4.992  0.3664  0.1876  0.3745
  439MOL0     C59191   0.615   9.521   4.913 -1.6679  0.2863 -0.4879
  439MOL0     C59192   0.559   9.651   4.975  1.0324 -0.2783 -0.4540
  439MOL0     C59193   0.661   9.747   5.011 -1.1689  0.1823  0.4967
  439MOL0     C59194   0.763   9.812   5.040  0.1363  0.2677  0.4835
  439MOL0     C59195   0.974   9.088   5.162  0.4209 -0.2642  0.1991
  439MOL0     C59196   1.005   8.949   5.188 -0.4310  0.5124  0.0036
  439MOL0     C59197   1.140   8.924   5.261  0.4592  0.0053  0.1672
  439MOL0     H59198   0.639   8.461   5.127 -2.7239 -0.7586  1.7489
  439MOL0     H59199   0.597   8.233   5.218  0.5107 -3.4735  2.7585
  439MOL0     H59200   0.912   8.062   5.503  0.4054 -1.4871  1.7446
  439MOL0     H59201   0.772   8.017   5.591 -0.3861  0.7957  0.5432
  439MOL0     H59202   0.920   7.825   5.438  3.0997  2.9684 -3.3678
  439MOL0     H59203   0.833   7.898   5.313  0.5057 -1.7142 -0.3725
  439MOL0     H59204   0.621   7.863   5.434  0.3080  0.8100  0.4449
  439MOL0     H59205   0.705   7.761   5.553 -1.1206 -1.2141 -0.1238
  439MOL0     H59206   0.704   7.697   5.247  0.5006 -0.6861 -0.8662
  439MOL0     H59207   0.805   7.620   5.380 -0.3768 -0.7374  0.1984
  439MOL0     H59208   0.628   7.530   5.481  0.9563  1.4302  0.3513
  439MOL0     H59209   0.502   7.629   5.402 -0.8503 -2.4385 -2.1639
  439MOL0     H59210   0.507   7.406   5.338  0.4458 -1.7703 -1.5008
  439MOL0     H59211   0.514   7.521   5.203 -0.4210 -2.0592 -2.5546
  439MOL0     H59212   0.763   7.384   5.329 -1.9635  0.1858  0.3239
  439MOL0     H59213   0.756   7.443   5.164 -1.7355 -0.3250 -2.0306
  439MOL0     H59214   0.603   7.204   5.301  0.2606  0.1224  0.0609
  439MOL0     H59215   0.601   7.241   5.122 -1.7016 -0.1477  0.8476
  439MOL0     H59216   0.758   7.057   5.400 -3.5512  0.5103 -1.6258
  439MOL0     H59217   0.918   6.841   5.400 -0.9923 -1.9916 -0.4063
  439MOL0     H59218   0.955   6.776   5.250  0.8426 -0.9653  3.8535
  439MOL0     H59219   1.155   6.932   5.237  1.0088 -0.3179  0.0743
  439MOL0     H59220   1.134   6.934   5.415 -1.3644 -0.0038  0.6712
  439MOL0     H59221   1.207   6.689   5.246 -1.5300 -2.5328  0.9885
  439MOL0     H59222   1.132   6.680   5.409 -0.0765 -0.0360 -0.0931
  439MOL0     H59223   1.354   6.817   5.480  1.2735 -0.4194  1.2254
  439MOL0     H59224   1.380   6.829   5.304 -1.8786 -0.6663 -1.1863
  439MOL0     H59225   1.572   6.850   5.479  1.3468  0.2120 -0.1404
  439MOL0     H59226   1.787   6.806   5.594 -0.0697  0.3151  0.9781
  439MOL0     H59227   2.130   6.495   5.724  2.9102 -2.4951  0.6434
  439MOL0     H59228   2.366   6.504   5.791 -0.1304 -0.8812 -1.4814
  439MOL0     H59229   2.609   6.748   5.565 -0.6708 -0.0031  0.5788
  439MOL0     H59230   2.619   6.881   5.691  0.3351  0.2523  3.1939
  439MOL0     H59231   2.779   6.745   5.810  1.3121  2.0366 -0.0480
  439MOL0     H59232   2.758   6.605   5.705 -2.8063  0.3784  0.4282
  439MOL0     H59233   2.865   6.706   5.519  0.0645  0.3515 -0.6139
  439MOL0     H59234   2.866   6.870   5.581 -0.5023 -0.3130 -0.9979
  439MOL0     H59235   3.041   6.626   5.663  0.1297  0.0965 -1.3432
  439MOL0     H59236   3.030   6.765   5.772  2.2530 -0.1981 -0.5480
  439MOL0     H59237   3.229   6.762   5.626  0.4334 -0.5905 -1.2417
  439MOL0     H59238   3.128   6.890   5.553  1.7898  0.3981 -1.0188
  439MOL0     H59239   3.162   6.614   5.445  3.0704  1.0159  2.3082
  439MOL0     H59240   3.051   6.737   5.378  0.1482 -0.1246 -0.6187
  439MOL0     H59241   3.256   6.747   5.236 -1.8206  0.3728 -0.0217
  439MOL0     H59242   3.360   6.732   5.373 -1.1688 -1.7388  0.8534
  439MOL0     H59243   3.194   6.973   5.285 -0.1281 -0.6690 -0.8273
  439MOL0     H59244   3.278   6.965   5.437 -5.0310  2.0302 -0.1182
  439MOL0     H59245   2.396   6.903   5.635  0.2897 -0.7807 -0.2492
  439MOL0     H59246   2.165   6.890   5.561  0.2360 -0.5497 -0.4708
  439MOL0     H59247   1.745   6.389   5.543  1.7596  0.8803  1.9987
  439MOL0     H59248   1.505   6.422   5.436 -3.0107  1.1677 -0.3856
  439MOL0     H59249   0.945   8.297   5.480  0.1674 -1.2782 -0.9901
  439MOL0     H59250   0.972   8.502   5.390 -2.5259  2.6457  0.3289
  439MOL0     H59251   0.723   8.810   5.066  0.2293 -0.7033  0.0902
  439MOL0     H59252   0.665   9.048   5.030  0.3208 -0.3783 -3.2567
  439MOL0     H59253   0.646   9.265   5.018 -1.6441  0.9158 -2.1761
  439MOL0     H59254   0.770   9.263   4.886  2.3842 -1.8318  1.7977
  439MOL0     H59255   0.823   9.516   4.962  0.5221 -0.0473  0.4435
  439MOL0     H59256   0.713   9.496   5.095 -1.0523  1.8379 -0.3314
  439MOL0     H59257   0.529   9.453   4.907 -2.5538  1.0097  2.4134
  439MOL0     H59258   0.652   9.532   4.811  1.3227 -2.2066  0.1718
  439MOL0     H59259   0.477   9.703   4.923 -0.5350 -0.6251  1.5069
  439MOL0     H59260   0.525   9.622   5.075  0.5802 -0.8022 -0.7538
  439MOL0     H59261   0.845   9.869   5.079 -0.3608 -1.2978  4.1898
  439MOL0     H59262   1.050   9.165   5.172  1.7957 -1.0772 -2.8332
  439MOL0     H59263   1.134   8.843   5.335 -2.6471  0.8546  0.9896
  439MOL0     H59264   1.212   8.886   5.188  1.2432  1.3110  0.2303
  439MOL0     H59265   1.171   9.014   5.315 -2.9514  0.8428  0.9332
  440MOL0     O59266   8.371   3.583  10.537  0.0988  0.0943  0.4715
  440MOL0     C59267   8.371   3.690  10.593 -0.6910  0.0169  0.4602
  440MOL0     O59268   8.469   3.733  10.680 -1.0635  0.8886  0.2121
  440MOL0     C59269   8.566   3.649  10.720  0.2864 -0.2479 -0.0278
  440MOL0     C59270   8.532   3.557  10.818  0.3356  0.0648 -0.4753
  440MOL0     C59271   8.630   3.468  10.869  0.6299 -0.0367  0.1200
  440MOL0     C59272   8.760   3.462  10.813 -0.2313 -0.1624  0.5523
  440MOL0     O59273   8.853   3.371  10.872 -0.6303 -0.3250  0.6155
  440MOL0     C59274   8.991   3.411  10.869 -0.2461  1.0823 -0.6447
  440MOL0     C59275   9.085   3.310  10.947 -0.2214  0.2206 -0.5911
  440MOL0     C59276   9.013   3.291  11.085 -0.0432  0.0984 -0.3367
  440MOL0     C59277   8.947   3.156  11.075  1.4975 -0.0778 -0.3055
  440MOL0     C59278   8.848   3.142  11.194  0.6169  0.0934 -0.6041
  440MOL0     C59279   8.802   2.996  11.229  0.5917 -0.4903  0.0422
  440MOL0     C59280   8.688   2.985  11.335  0.0719  0.2786  0.4271
  440MOL0     C59281   8.595   2.871  11.315 -0.6394 -0.5769 -0.6029
  440MOL0     N59282   8.466   2.873  11.380 -1.0991  0.3112 -0.5447
  440MOL0     C59283   8.363   2.949  11.340 -0.8880  0.1012  0.2226
  440MOL0     C59284   8.277   2.952  11.447 -0.6604  0.6740 -0.0088
  440MOL0     C59285   8.161   3.038  11.439 -0.8651 -0.0638 -0.2392
  440MOL0     C59286   8.051   3.004  11.536  0.3160 -0.2715  0.4400
  440MOL0     C59287   7.917   3.065  11.503  0.1413 -0.1397  0.3255
  440MOL0     C59288   7.906   3.209  11.468 -0.3538  0.4540  0.0091
  440MOL0     O59289   7.918   3.279  11.590 -0.0778  0.5295  0.1313
  440MOL0     C59290   7.978   3.398  11.581 -0.3154 -0.6108  0.4027
  440MOL0     C59291   8.067   3.453  11.483 -0.3955  0.5479  0.5632
  440MOL0     C59292   8.108   3.579  11.491  0.3411 -0.3221 -0.9141
  440MOL0     C59293   8.078   3.654  11.612 -0.6305  0.6833  0.9666
  440MOL0     C59294   8.127   3.792  11.625 -0.3238  0.2714 -0.2373
  440MOL0     O59295   8.173   3.852  11.511 -0.1616  0.2726  0.3511
  440MOL0     C59296   8.231   3.977  11.512  1.0138 -0.6148  0.4719
  440MOL0     C59297   8.209   4.046  11.392 -0.0403 -0.0794 -0.6763
  440MOL0     C59298   8.258   4.173  11.380 -0.5488 -0.0012  0.0749
  440MOL0     C59299   8.318   4.238  11.491 -0.2048  0.3702  0.1657
  440MOL0     O59300   8.363   4.363  11.496  0.6782 -0.0313 -0.0092
  440MOL0     C59301   8.245   4.452  11.500 -0.1064  0.8604 -0.2239
  440MOL0     C59302   8.312   4.588  11.531 -0.2572  0.2364  0.6889
  440MOL0     C59303   8.361   4.655  11.390 -0.3591 -0.0938  0.0434
  440MOL0     C59304   8.462   4.771  11.423  0.1356 -0.0935  0.6639
  440MOL0     C59305   8.467   4.869  11.305  0.3140  0.1006 -0.1067
  440MOL0     C59306   8.571   4.973  11.313 -0.2903 -0.0287  0.2057
  440MOL0     C59307   8.718   4.944  11.292  0.5590 -0.2802 -0.1998
  440MOL0     C59308   8.805   5.061  11.325 -0.4792  0.3935  0.0119
  440MOL0    Cl59309   8.967   5.020  11.246 -0.0126  0.5193 -0.1066
  440MOL0     C59310   8.331   4.172  11.622  0.3833 -0.2616  0.6281
  440MOL0     C59311   8.295   4.035  11.625  0.3271  0.8467  0.5104
  440MOL0     O59312   8.137   3.832  11.741 -0.5309  0.2449 -1.2613
  440MOL0     C59313   7.993   3.598  11.708  0.8845  0.8690 -0.2059
  440MOL0     C59314   7.943   3.468  11.696  0.4983 -0.0990  0.7491
  440MOL0     N59315   8.336   2.878  11.544  0.9303 -0.7355 -0.0436
  440MOL0     N59316   8.455   2.839  11.511  0.2566 -0.2228 -0.6211
  440MOL0     C59317   8.786   3.562  10.711  1.3487  0.6957  0.1071
  440MOL0     C59318   8.693   3.641  10.665  0.3196 -0.2348  0.2997
  440MOL0     C59319   8.275   3.799  10.575  1.5118  0.1820  0.2124
  440MOL0     C59320   8.308   3.933  10.594  0.1988 -0.4108  0.4136
  440MOL0     C59321   8.233   4.039  10.536 -0.5566 -0.6586  0.2837
  440MOL0     C59322   8.129   4.005  10.450 -0.1404  1.3479 -0.7331
  440MOL0     O59323   8.074   4.093  10.361 -0.0077  0.6785  0.6373
  440MOL0     C59324   7.994   4.196  10.423 -0.0611  0.4003 -0.2253
  440MOL0     C59325   7.835   4.158  10.429 -0.9539 -1.1344 -0.3453
  440MOL0     C59326   7.763   4.270  10.346  0.2347 -0.0237 -0.0713
  440MOL0     C59327   7.606   4.242  10.353 -0.3602 -0.5746  0.4154
  440MOL0     C59328   7.554   4.160  10.242  0.1398 -0.5600  0.5970
  440MOL0     C59329   7.503   4.105  10.147 -0.4362  0.3960  0.2493
  440MOL0     C59330   8.078   3.869  10.449  0.1833 -0.6938  0.0136
  440MOL0     C59331   8.147   3.769  10.507 -0.8962 -0.5723  0.5585
  440MOL0     C59332   8.081   3.629  10.494 -0.4286  0.7610  0.8379
  440MOL0     H59333   8.431   3.568  10.854  1.0387  2.3991  1.0263
  440MOL0     H59334   8.601   3.414  10.959 -3.4982  1.3175 -0.2013
  440MOL0     H59335   9.033   3.417  10.768  1.9193 -1.7623 -0.0528
  440MOL0     H59336   9.005   3.508  10.918 -0.9361  0.6104  0.5179
  440MOL0     H59337   9.180   3.363  10.962 -1.4642  2.6536 -0.8808
  440MOL0     H59338   9.100   3.215  10.895 -3.0960  1.0809 -3.2985
  440MOL0     H59339   8.941   3.370  11.106  2.3412  1.8939  1.6718
  440MOL0     H59340   9.087   3.305  11.164 -2.4910 -0.7127  2.2536
  440MOL0     H59341   8.894   3.133  10.982  0.6633  0.1362  0.1031
  440MOL0     H59342   9.023   3.077  11.081  1.1609 -0.4114 -0.3701
  440MOL0     H59343   8.893   3.184  11.284 -1.4688  2.9521 -0.7454
  440MOL0     H59344   8.752   3.194  11.180  0.2836  0.8335  3.3763
  440MOL0     H59345   8.782   2.947  11.133  0.8711  0.9127 -0.7579
  440MOL0     H59346   8.887   2.941  11.269  1.2433  1.4291  1.4227
  440MOL0     H59347   8.638   3.082  11.330  0.5293  0.5053  0.2579
  440MOL0     H59348   8.731   2.975  11.435 -1.1167 -1.7978  0.7837
  440MOL0     H59349   8.568   2.862  11.210 -0.1123  1.5095 -0.9539
  440MOL0     H59350   8.653   2.783  11.344  2.0490  1.0532 -0.7682
  440MOL0     H59351   8.356   3.011  11.252 -2.0023  1.0919  0.9813
  440MOL0     H59352   8.194   3.142  11.443  1.7153 -0.8539  0.5082
  440MOL0     H59353   8.132   3.024  11.334  2.2684 -1.6775 -1.0100
  440MOL0     H59354   8.036   2.895  11.539  0.3227 -0.4247 -2.3600
  440MOL0     H59355   8.073   3.028  11.640  1.3638  1.4113 -0.1299
  440MOL0     H59356   7.854   3.037  11.588  1.3124  0.4610  1.4144
  440MOL0     H59357   7.878   3.012  11.415 -0.2015  0.5421  0.0547
  440MOL0     H59358   7.814   3.226  11.409  1.4536 -2.0707 -3.9651
  440MOL0     H59359   7.985   3.230  11.396 -0.6898  1.7699 -0.0074
  440MOL0     H59360   8.096   3.401  11.392 -1.7129 -0.0062  0.4375
  440MOL0     H59361   8.155   3.640  11.414  3.0512  0.1417  0.9854
  440MOL0     H59362   8.165   4.013  11.299  0.7006 -1.1248 -0.6814
  440MOL0     H59363   8.246   4.237  11.293 -2.8414 -1.9374 -1.1359
  440MOL0     H59364   8.187   4.462  11.407 -1.0008  1.5954  0.3948
  440MOL0     H59365   8.172   4.418  11.574 -0.1454  0.9433 -0.2244
  440MOL0     H59366   8.249   4.663  11.580 -0.2489  0.9106 -0.3104
  440MOL0     H59367   8.387   4.568  11.609 -0.2920  1.8350  1.1797
  440MOL0     H59368   8.410   4.585  11.322  0.4510 -0.8614  1.3806
  440MOL0     H59369   8.268   4.698  11.350 -1.1786 -1.8433 -0.0107
  440MOL0     H59370   8.566   4.740  11.436  0.0054 -0.3583  1.0688
  440MOL0     H59371   8.432   4.822  11.515  1.5338  3.1845 -0.5437
  440MOL0     H59372   8.366   4.909  11.290  0.3544 -0.0390 -0.8045
  440MOL0     H59373   8.485   4.810  11.215 -1.4005 -2.5893  1.1766
  440MOL0     H59374   8.549   5.047  11.236  2.5188 -1.7837 -2.5226
  440MOL0     H59375   8.567   5.019  11.413  1.5047  0.9498 -0.1179
  440MOL0     H59376   8.732   4.928  11.185 -2.9897  0.2883 -0.8540
  440MOL0     H59377   8.744   4.852  11.345 -1.9337  0.3465  2.3705
  440MOL0     H59378   8.764   5.151  11.278 -0.5286  0.0075 -0.6930
  440MOL0     H59379   8.828   5.083  11.430  2.9398  1.2827 -0.7993
  440MOL0     H59380   8.382   4.224  11.702  2.8366 -1.7368  0.1338
  440MOL0     H59381   8.314   3.982  11.718 -2.7239  0.3477  0.9636
  440MOL0     H59382   7.951   3.644  11.797 -2.9064  0.4118 -1.5830
  440MOL0     H59383   7.886   3.413  11.770  0.8665 -0.1824  0.9740
  440MOL0     H59384   8.882   3.565  10.660  1.3539  0.8203  0.1228
  440MOL0     H59385   8.724   3.712  10.589 -4.8558  0.9167 -1.1339
  440MOL0     H59386   8.403   3.957  10.640  0.2884  2.0430 -0.9230
  440MOL0     H59387   8.271   4.141  10.538  1.4501 -1.3554  0.1775
  440MOL0     H59388   7.992   4.294  10.375 -1.2323  0.0322 -0.9475
  440MOL0     H59389   8.024   4.202  10.529 -1.3459 -1.3457  0.2917
  440MOL0     H59390   7.808   4.168  10.535 -1.4673 -0.4211 -0.5351
  440MOL0     H59391   7.813   4.059  10.389 -0.5896 -0.0975 -3.3172
  440MOL0     H59392   7.800   4.273  10.243 -1.0048  1.0670 -0.5170
  440MOL0     H59393   7.780   4.366  10.396  2.4970 -0.1277 -0.4980
  440MOL0     H59394   7.575   4.193  10.446 -2.1778 -2.1857 -0.9572
  440MOL0     H59395   7.545   4.332  10.361 -0.7599 -0.9599  2.0436
  440MOL0     H59396   7.460   4.068  10.056 -1.7784  0.6407  0.7555
  440MOL0     H59397   7.992   3.843  10.389 -2.4249 -2.6090  4.1151
  440MOL0     H59398   8.042   3.584  10.587  0.3699 -0.9826  0.3611
  440MOL0     H59399   8.001   3.650  10.422 -0.0552 -0.5033  0.0201
  440MOL0     H59400   8.145   3.554  10.446 -4.1624 -3.4218  1.6267
  441MOL0     O59401   1.348   0.244   8.065  0.0986  0.0168  0.5255
  441MOL0     C59402   1.286   0.316   8.143 -0.7678  1.0262  0.6347
  441MOL0     O59403   1.336   0.356   8.266 -0.9305 -0.3769 -0.6739
  441MOL0     C59404   1.462   0.318   8.305  0.3949 -0.5903  0.3078
  441MOL0     C59405   1.468   0.278   8.435 -0.5291 -0.4324 -0.7767
  441MOL0     C59406   1.593   0.260   8.495  0.8209 -0.2599  0.1354
  441MOL0     C59407   1.713   0.283   8.425  0.0786  0.2820  0.5446
  441MOL0     O59408   1.843   0.281   8.488 -0.2012 -0.3801 -1.2622
  441MOL0     C59409   1.922   0.397   8.459 -0.3111 -0.0946 -0.2292
  441MOL0     C59410   2.032   0.415   8.559 -0.0840 -0.0749  0.5223
  441MOL0     C59411   1.987   0.421   8.707 -0.7416  0.2754  0.0013
  441MOL0     C59412   2.105   0.465   8.805 -0.2497 -0.0050  0.5907
  441MOL0     C59413   2.073   0.426   8.945 -0.5617 -0.9141 -0.0981
  441MOL0     C59414   2.187   0.474   9.035 -0.4751  0.2472  0.3310
  441MOL0     C59415   2.182   0.401   9.174  0.6656 -0.3162 -0.2097
  441MOL0     C59416   2.270   0.282   9.174  0.3542 -0.5500  0.1127
  441MOL0     N59417   2.409   0.327   9.201 -0.4778  0.1781 -1.3278
  441MOL0     C59418   2.461   0.316   9.333  0.0871 -1.1747 -0.0265
  441MOL0     C59419   2.592   0.347   9.316 -0.1366 -0.0829  0.0161
  441MOL0     C59420   2.697   0.319   9.424  0.1771  0.1209  0.4061
  441MOL0     C59421   2.800   0.431   9.403  0.2173  0.5922  0.0844
  441MOL0     C59422   2.853   0.464   9.544 -0.5614 -0.5395  0.8314
  441MOL0     C59423   2.973   0.552   9.527 -0.5601 -0.3370  0.0614
  441MOL0     O59424   3.078   0.460   9.510 -0.0885  0.6525  0.2976
  441MOL0     C59425   3.208   0.504   9.539 -0.0893 -0.7908 -0.5231
  441MOL0     C59426   3.317   0.411   9.521  1.2019 -0.0295  0.1908
  441MOL0     C59427   3.440   0.447   9.553 -1.0212  0.0330  0.3760
  441MOL0     C59428   3.477   0.569   9.608 -0.1362  0.3161  0.4205
  441MOL0     C59429   3.616   0.603   9.642 -0.5821 -0.3577  0.1214
  441MOL0     O59430   3.710   0.495   9.629  0.3568 -0.8179 -1.1220
  441MOL0     C59431   3.839   0.515   9.679 -0.8836 -0.6371  0.2877
  441MOL0     C59432   3.873   0.565   9.805  0.8621  0.1435  0.5227
  441MOL0     C59433   4.005   0.599   9.840  0.1279  1.2553  0.1136
  441MOL0     C59434   4.109   0.576   9.747 -0.0520  0.7349  0.4625
  441MOL0     O59435   4.245   0.600   9.760  0.1324 -1.3027 -0.0219
  441MOL0     C59436   4.282   0.636   9.890  0.0854  0.0862  0.2754
  441MOL0     C59437   4.434   0.657   9.906 -0.2059 -0.5449  1.1714
  441MOL0     C59438   4.523   0.546   9.838 -0.2521  0.6194  0.4965
  441MOL0     C59439   4.672   0.557   9.859  0.5011  0.6795 -0.4157
  441MOL0     C59440   4.737   0.684   9.806 -0.6835  0.1421 -0.4528
  441MOL0     C59441   4.885   0.673   9.841  0.8467 -0.3633  0.4258
  441MOL0     C59442   4.954   0.786   9.771 -0.3184 -0.2531 -0.6000
  441MOL0     C59443   5.106   0.783   9.811 -0.4075 -0.5526 -0.0583
  441MOL0    Cl59444   5.206   0.914   9.741  0.1924  0.1001  0.1197
  441MOL0     C59445   4.073   0.498   9.635 -0.1523 -0.4681  0.1451
  441MOL0     C59446   3.945   0.489   9.597  0.0779  0.4208  0.4068
  441MOL0     O59447   3.644   0.714   9.663 -0.3349  0.0247 -0.1290
  441MOL0     C59448   3.376   0.656   9.632 -0.5754  0.5175 -0.2547
  441MOL0     C59449   3.243   0.631   9.596  0.4477 -0.6155 -0.6381
  441MOL0     N59450   2.618   0.380   9.184  1.7670 -0.1148  0.9009
  441MOL0     N59451   2.501   0.373   9.116  0.1151  0.0373 -0.4663
  441MOL0     C59452   1.708   0.318   8.291 -0.0276  0.0340  0.3241
  441MOL0     C59453   1.584   0.332   8.233  0.5688 -0.0505 -0.6297
  441MOL0     C59454   1.156   0.368   8.102 -1.0639  0.3236 -0.4577
  441MOL0     C59455   1.102   0.458   8.193  0.3510 -0.7207 -0.0380
  441MOL0     C59456   0.985   0.519   8.167 -0.5685  0.1901  0.0225
  441MOL0     C59457   0.924   0.492   8.048  0.7246  0.1331  0.6567
  441MOL0     O59458   0.811   0.567   8.012  0.7857  0.0643  0.0165
  441MOL0     C59459   0.832   0.659   7.905 -0.2924 -0.4603 -1.2626
  441MOL0     C59460   0.816   0.806   7.927 -0.3670  0.0976 -0.1670
  441MOL0     C59461   0.923   0.871   8.029  0.1267 -0.1463  1.0308
  441MOL0     C59462   1.068   0.856   7.988 -1.1809 -0.3276 -0.6376
  441MOL0     C59463   1.164   0.955   8.052  0.4253 -0.0795 -0.0039
  441MOL0     C59464   1.255   1.011   8.117  0.0443  0.2688 -0.3669
  441MOL0     C59465   0.970   0.394   7.960  0.7258 -0.1437  0.7298
  441MOL0     C59466   1.093   0.323   7.981 -0.0050 -0.4979  0.6931
  441MOL0     C59467   1.145   0.233   7.865 -0.0147 -0.0849 -0.1492
  441MOL0     H59468   1.378   0.269   8.495 -0.4181  1.3769 -0.2919
  441MOL0     H59469   1.592   0.243   8.602 -0.1517 -0.6908  0.0644
  441MOL0     H59470   1.961   0.367   8.361 -3.0537  3.6105 -2.7292
  441MOL0     H59471   1.858   0.485   8.450 -0.1499 -0.0777 -1.5157
  441MOL0     H59472   2.078   0.512   8.538 -0.0464 -0.5999 -2.2785
  441MOL0     H59473   2.108   0.338   8.545  0.5313  0.7238 -0.7338
  441MOL0     H59474   1.952   0.320   8.733  0.2728  0.4783  2.4139
  441MOL0     H59475   1.902   0.488   8.724 -2.2265 -1.0173 -1.8615
  441MOL0     H59476   2.202   0.425   8.776 -0.2911  1.0496 -1.1579
  441MOL0     H59477   2.116   0.573   8.790 -0.8774  0.3243  2.2773
  441MOL0     H59478   1.976   0.471   8.970 -1.2152 -1.3022 -1.8109
  441MOL0     H59479   2.055   0.318   8.949 -3.6651 -0.4703  2.0662
  441MOL0     H59480   2.282   0.454   8.983  0.4687 -0.6063  2.2632
  441MOL0     H59481   2.197   0.581   9.053  2.0375  0.3654 -1.2623
  441MOL0     H59482   2.084   0.352   9.184  0.4863  0.2098  0.7966
  441MOL0     H59483   2.213   0.465   9.258  2.2205  0.3727 -1.2653
  441MOL0     H59484   2.236   0.203   9.242 -2.7804  1.1058  0.6892
  441MOL0     H59485   2.267   0.246   9.071 -0.7995  1.7049 -0.7258
  441MOL0     H59486   2.407   0.280   9.420  1.8185  2.2617  2.6957
  441MOL0     H59487   2.653   0.322   9.524  1.1938 -0.8035  0.9111
  441MOL0     H59488   2.738   0.219   9.406  3.1873  1.3310 -0.1053
  441MOL0     H59489   2.871   0.387   9.333 -0.4725 -2.4198  1.1480
  441MOL0     H59490   2.759   0.518   9.351 -0.4431 -0.4199 -1.1218
  441MOL0     H59491   2.877   0.375   9.604  4.1885 -1.8452 -2.3654
  441MOL0     H59492   2.786   0.530   9.599 -0.0184  2.9144 -2.2410
  441MOL0     H59493   2.983   0.623   9.610 -0.5020  0.9821 -1.0486
  441MOL0     H59494   2.967   0.616   9.438 -0.6819  2.3609  1.8735
  441MOL0     H59495   3.290   0.315   9.478 -1.6882  0.2590  1.1953
  441MOL0     H59496   3.519   0.374   9.545  0.6296  1.9079 -4.7177
  441MOL0     H59497   3.801   0.596   9.880  0.0311  1.7080 -0.8614
  441MOL0     H59498   4.011   0.664   9.926 -0.2828 -0.0740  1.1893
  441MOL0     H59499   4.238   0.727   9.932 -0.6517 -0.3734  0.5046
  441MOL0     H59500   4.250   0.558   9.960  2.7894 -2.4549 -1.1150
  441MOL0     H59501   4.463   0.755   9.868 -0.6852  0.6681  3.7127
  441MOL0     H59502   4.452   0.663  10.014  0.3759 -0.3952  1.0691
  441MOL0     H59503   4.489   0.448   9.874 -2.6835  0.2671 -2.3204
  441MOL0     H59504   4.513   0.546   9.729  1.8470 -0.6863  0.2521
  441MOL0     H59505   4.724   0.469   9.820  0.6182  0.3849  0.3729
  441MOL0     H59506   4.684   0.548   9.968 -1.2519  0.9687 -0.1744
  441MOL0     H59507   4.704   0.760   9.877 -1.3091 -0.5404  0.0056
  441MOL0     H59508   4.710   0.707   9.703 -1.5075 -0.9811 -0.5029
  441MOL0     H59509   4.905   0.688   9.948 -1.2531  0.3361  0.7470
  441MOL0     H59510   4.926   0.577   9.808 -3.1763 -2.1135  0.0627
  441MOL0     H59511   4.912   0.881   9.808 -0.0289 -0.4205  0.1579
  441MOL0     H59512   4.930   0.790   9.664 -3.4284  1.6841  0.0443
  441MOL0     H59513   5.112   0.807   9.918 -0.4176 -0.2202 -0.1301
  441MOL0     H59514   5.146   0.683   9.794 -0.9882 -0.3344 -3.2690
  441MOL0     H59515   4.143   0.465   9.559  0.6664  0.9594  0.2596
  441MOL0     H59516   3.926   0.450   9.497  0.5864  1.4997 -0.1348
  441MOL0     H59517   3.396   0.748   9.686 -0.8718  0.0905  0.6071
  441MOL0     H59518   3.174   0.711   9.623 -0.7514 -2.3435  1.9172
  441MOL0     H59519   1.793   0.340   8.228  0.3256 -0.2607  0.6991
  441MOL0     H59520   1.586   0.364   8.129  2.4542  0.6821 -0.4031
  441MOL0     H59521   1.159   0.500   8.275 -1.4187 -0.2623  1.0153
  441MOL0     H59522   0.965   0.607   8.227  0.2929  0.6132 -0.3005
  441MOL0     H59523   0.751   0.642   7.833 -3.2641  1.8828  1.2719
  441MOL0     H59524   0.933   0.639   7.868  0.4583 -2.2741  1.4987
  441MOL0     H59525   0.711   0.828   7.952 -0.3537 -0.0289  0.0077
  441MOL0     H59526   0.827   0.857   7.831 -2.5633  0.1457 -0.4601
  441MOL0     H59527   0.909   0.826   8.128 -5.0090  0.1349  0.6794
  441MOL0     H59528   0.903   0.978   8.031  0.3027 -0.1144  1.1018
  441MOL0     H59529   1.097   0.751   7.999 -2.3179 -0.5018  0.8828
  441MOL0     H59530   1.079   0.875   7.880 -0.7914 -1.6397 -0.8481
  441MOL0     H59531   1.338   1.053   8.169  0.1885  1.9763 -1.8703
  441MOL0     H59532   0.905   0.372   7.876 -1.5097 -0.4091  2.4466
  441MOL0     H59533   1.154   0.127   7.889 -0.8699 -0.1591 -0.1114
  441MOL0     H59534   1.066   0.230   7.789  2.0180  2.4005 -2.5596
  441MOL0     H59535   1.241   0.261   7.821 -1.5334  2.0815 -2.3672
  442MOL0     O59536   0.724   0.783  11.080  0.8078  0.9609  0.9908
  442MOL0     C59537   0.702   0.790  10.956  0.8259 -0.2570  0.4862
  442MOL0     O59538   0.740   0.894  10.875  1.2053 -0.4788  0.3012
  442MOL0     C59539   0.797   1.006  10.939 -0.2352 -0.2624  0.6363
  442MOL0     C59540   0.921   1.039  10.887  0.2627  0.5567 -0.7586
  442MOL0     C59541   0.977   1.156  10.934  0.0668 -0.0961  0.3919
  442MOL0     C59542   0.918   1.242  11.028 -0.7901 -0.2077  0.8321
  442MOL0     O59543   0.990   1.351  11.075  0.5133 -0.2032  0.3767
  442MOL0     C59544   0.907   1.450  11.133  0.9563  0.3553  0.1135
  442MOL0     C59545   0.953   1.592  11.136  0.6214 -0.1608  0.4241
  442MOL0     C59546   1.084   1.613  11.218 -0.3724  0.6951  0.2196
  442MOL0     C59547   1.148   1.750  11.206  0.2224  0.5808  0.3963
  442MOL0     C59548   1.288   1.733  11.269 -0.2929 -0.1291 -0.6733
  442MOL0     C59549   1.352   1.866  11.244 -0.6876  0.3649  1.2014
  442MOL0     C59550   1.487   1.862  11.321 -0.0899 -0.0096 -0.3050
  442MOL0     C59551   1.566   1.982  11.288 -0.5913  0.5653  0.8168
  442MOL0     N59552   1.699   1.989  11.361 -0.2065  0.8904  0.0070
  442MOL0     C59553   1.792   1.891  11.338  0.5050 -0.7709  0.4038
  442MOL0     C59554   1.888   1.906  11.429  0.0925 -1.0695  0.5758
  442MOL0     C59555   2.022   1.834  11.411  0.3934 -0.7595 -0.8229
  442MOL0     C59556   2.133   1.891  11.499  0.3652 -0.2999  0.0252
  442MOL0     C59557   2.194   2.015  11.426 -0.2517 -0.4009 -0.1998
  442MOL0     C59558   2.286   2.089  11.508 -0.8159  0.8189  0.2414
  442MOL0     O59559   2.352   2.186  11.430  0.2339  0.5514  0.1088
  442MOL0     C59560   2.476   2.238  11.471 -0.3656  0.5204 -0.1299
  442MOL0     C59561   2.551   2.325  11.378 -0.7283  0.2598 -0.6737
  442MOL0     C59562   2.673   2.383  11.417 -0.1730  0.1643  0.6166
  442MOL0     C59563   2.713   2.367  11.548  0.2412  0.0181  0.0879
  442MOL0     C59564   2.840   2.439  11.585  0.6224 -1.3381 -0.4041
  442MOL0     O59565   2.913   2.516  11.497  0.0276 -0.0158 -0.8304
  442MOL0     C59566   3.034   2.568  11.552 -0.2685  0.0048 -0.2975
  442MOL0     C59567   3.042   2.704  11.583  0.2884 -0.7559 -0.3084
  442MOL0     C59568   3.148   2.761  11.652  0.9305  0.5414  0.0100
  442MOL0     C59569   3.262   2.686  11.681  0.1286  0.2176  1.2565
  442MOL0     O59570   3.374   2.748  11.724  0.7722  0.1632 -0.0916
  442MOL0     C59571   3.397   2.877  11.673  0.4748  0.3807 -0.0710
  442MOL0     C59572   3.546   2.904  11.673 -0.3921 -1.0734  0.1715
  442MOL0     C59573   3.610   2.865  11.536  0.4988 -0.4118  0.0802
  442MOL0     C59574   3.625   2.991  11.442 -0.0841 -0.0126 -0.7764
  442MOL0     C59575   3.718   2.969  11.324 -1.0858 -0.6770 -0.1666
  442MOL0     C59576   3.766   3.099  11.250 -0.1174 -0.4343  0.5633
  442MOL0     C59577   3.871   3.061  11.145  0.5168 -0.6438 -0.6887
  442MOL0     C59578   3.946   3.179  11.102  0.4093 -0.4546 -0.3669
  442MOL0    Cl59579   4.044   3.258  11.230 -0.2134 -0.1458 -0.2155
  442MOL0     C59580   3.259   2.550  11.649  0.0016  0.5228 -0.2457
  442MOL0     C59581   3.145   2.492  11.589 -0.7325  0.0164  0.3481
  442MOL0     O59582   2.873   2.413  11.700 -0.7913 -0.2510  0.0302
  442MOL0     C59583   2.648   2.285  11.637 -0.6911  0.8512  0.5498
  442MOL0     C59584   2.527   2.222  11.605  0.3303  0.1318 -0.3032
  442MOL0     N59585   1.854   2.025  11.500  0.1523  0.1136 -0.5681
  442MOL0     N59586   1.736   2.066  11.469 -0.3623  0.2618  0.1679
  442MOL0     C59587   0.800   1.191  11.086  0.3344 -0.0909 -1.6833
  442MOL0     C59588   0.741   1.076  11.053  0.5311  0.0442  0.7756
  442MOL0     C59589   0.639   0.674  10.877  0.2994 -0.5939  0.3231
  442MOL0     C59590   0.614   0.693  10.741  0.3188  0.7281  0.0316
  442MOL0     C59591   0.539   0.598  10.666 -0.5650  0.1327 -0.1143
  442MOL0     C59592   0.494   0.483  10.720  0.3888  0.1987  0.4493
  442MOL0     O59593   0.419   0.396  10.648  0.0277  0.1608  0.3413
  442MOL0     C59594   0.350   0.427  10.528 -1.3032 -1.0282 -0.9500
  442MOL0     C59595   0.246   0.326  10.478 -0.3898 -0.6757  0.4351
  442MOL0     C59596   0.144   0.301  10.581  0.4943 -0.2000 -0.4097
  442MOL0     C59597   0.038   0.204  10.542 -0.0611  0.7256  0.3000
  442MOL0     C59598  -0.065   0.191  10.646  0.1404  0.2622 -0.4954
  442MOL0     C59599  -0.141   0.170  10.742  0.2787  0.4023  0.2898
  442MOL0     C59600   0.531   0.447  10.854 -0.1289 -0.2434  0.4067
  442MOL0     C59601   0.604   0.547  10.925 -0.4334  0.2738 -0.9810
  442MOL0     C59602   0.625   0.501  11.062 -0.0449 -0.4371 -0.1523
  442MOL0     H59603   0.959   0.966  10.816 -1.6447  0.4100 -1.7069
  442MOL0     H59604   1.078   1.189  10.917  0.8660 -0.7036  3.4307
  442MOL0     H59605   0.808   1.450  11.087  0.2953 -1.1591  1.4730
  442MOL0     H59606   0.897   1.415  11.236 -0.4501 -3.1711 -1.0756
  442MOL0     H59607   0.872   1.642  11.189  2.4310  0.9860  2.2216
  442MOL0     H59608   0.959   1.637  11.036 -0.3874 -0.0350  0.4169
  442MOL0     H59609   1.157   1.539  11.185 -0.4762  0.1610  1.1471
  442MOL0     H59610   1.070   1.586  11.323  2.1802  0.0286  0.4636
  442MOL0     H59611   1.153   1.788  11.104  2.6473 -0.5430  0.0168
  442MOL0     H59612   1.091   1.826  11.261 -1.8066 -0.0135 -0.8181
  442MOL0     H59613   1.274   1.710  11.375  0.2450  3.8009  0.3915
  442MOL0     H59614   1.331   1.643  11.224 -4.4096 -2.8461  0.2154
  442MOL0     H59615   1.375   1.882  11.138  0.5852  1.5456  1.6348
  442MOL0     H59616   1.278   1.941  11.270 -3.6797 -0.3618 -3.8348
  442MOL0     H59617   1.550   1.775  11.303  1.0797  0.5624  0.8634
  442MOL0     H59618   1.469   1.865  11.429  0.2162  0.9825 -0.2752
  442MOL0     H59619   1.582   1.981  11.180 -0.9222 -1.6116  0.7489
  442MOL0     H59620   1.503   2.068  11.314 -3.9980 -1.5744  0.2583
  442MOL0     H59621   1.777   1.810  11.267  1.0003  0.4189 -1.1189
  442MOL0     H59622   1.990   1.735  11.444 -1.6182  0.3749  0.8994
  442MOL0     H59623   2.053   1.839  11.306  0.7528 -3.3459 -0.8930
  442MOL0     H59624   2.111   1.903  11.606  1.5630 -2.4973  0.5879
  442MOL0     H59625   2.219   1.823  11.500  2.4563  2.1550  0.5115
  442MOL0     H59626   2.114   2.086  11.405 -1.1984 -1.8837 -1.9117
  442MOL0     H59627   2.237   1.986  11.330  0.2502 -1.0841  0.2169
  442MOL0     H59628   2.365   2.024  11.546 -0.1907  1.2740 -0.2627
  442MOL0     H59629   2.228   2.141  11.585 -4.7029  1.8197 -2.9726
  442MOL0     H59630   2.521   2.347  11.276 -2.6881 -1.2329 -0.4590
  442MOL0     H59631   2.724   2.460  11.360  1.9567 -2.7346 -1.7452
  442MOL0     H59632   2.952   2.762  11.565  1.4713  0.4022 -3.1248
  442MOL0     H59633   3.131   2.861  11.691 -3.2906  0.4493 -1.1138
  442MOL0     H59634   3.359   2.893  11.572 -0.0405  0.5973  0.1560
  442MOL0     H59635   3.360   2.952  11.744  1.9510  1.7110 -0.6337
  442MOL0     H59636   3.571   3.009  11.684  0.4596 -1.2587  0.0934
  442MOL0     H59637   3.589   2.843  11.753  1.2574  0.2241  0.3424
  442MOL0     H59638   3.707   2.817  11.548  0.4365 -0.5817 -0.0916
  442MOL0     H59639   3.546   2.789  11.490 -0.0167  0.7789 -1.2429
  442MOL0     H59640   3.674   3.070  11.498 -1.2955 -0.3324  0.8042
  442MOL0     H59641   3.527   3.032  11.417 -1.0803 -1.2306  0.9181
  442MOL0     H59642   3.672   2.897  11.255 -0.6326 -0.1452 -1.0370
  442MOL0     H59643   3.808   2.923  11.366 -0.5727  0.4180 -0.0486
  442MOL0     H59644   3.685   3.156  11.204 -1.6310 -3.1178 -0.3079
  442MOL0     H59645   3.817   3.158  11.327  0.0387  0.5792 -0.2963
  442MOL0     H59646   3.819   3.002  11.069  0.2633  1.2528 -2.0598
  442MOL0     H59647   3.936   2.986  11.191  0.6125  0.0747  0.3914
  442MOL0     H59648   3.998   3.168  11.006 -1.7511  1.3240 -1.8694
  442MOL0     H59649   3.872   3.256  11.077  2.0049  0.9617 -0.8817
  442MOL0     H59650   3.344   2.485  11.665 -0.5621  0.4559  3.1407
  442MOL0     H59651   3.138   2.389  11.556 -2.0248  0.1977  0.0246
  442MOL0     H59652   2.678   2.270  11.740 -1.6600  1.1966  0.8935
  442MOL0     H59653   2.470   2.170  11.681 -0.9807  0.4102 -1.0778
  442MOL0     H59654   0.744   1.257  11.152  1.9677  2.4313 -2.6814
  442MOL0     H59655   0.643   1.054  11.094  0.1544  1.1315  0.4779
  442MOL0     H59656   0.663   0.778  10.695  3.4471  0.3534  2.3395
  442MOL0     H59657   0.532   0.627  10.562  1.2166 -0.5595 -0.4690
  442MOL0     H59658   0.439   0.447  10.469 -1.4704  5.2027  0.1929
  442MOL0     H59659   0.297   0.522  10.544 -0.4034 -0.5598 -0.7153
  442MOL0     H59660   0.294   0.232  10.452  1.9063 -0.4095  3.1674
  442MOL0     H59661   0.188   0.379  10.402 -1.7411  0.3859  2.1127
  442MOL0     H59662   0.097   0.399  10.586  1.1396  0.3597 -3.5177
  442MOL0     H59663   0.185   0.286  10.681 -0.6760  0.0993  0.1249
  442MOL0     H59664  -0.010   0.225  10.446  0.8071  2.1028  0.1312
  442MOL0     H59665   0.084   0.108  10.521  1.8226  1.9096 -1.3112
  442MOL0     H59666  -0.212   0.167  10.823 -0.1070  0.3548 -0.0429
  442MOL0     H59667   0.502   0.345  10.877 -1.1345 -0.0342  0.1212
  442MOL0     H59668   0.545   0.541  11.126 -0.7642 -1.9030 -0.0905
  442MOL0     H59669   0.631   0.394  11.084  0.4212  0.0696  2.6127
  442MOL0     H59670   0.721   0.537  11.100 -1.1507  3.9397 -1.0428
  443MOL0     O59671   1.179  11.121   5.514 -1.0383 -0.8046 -0.1937
  443MOL0     C59672   1.268  11.048   5.482  0.3512 -0.1619 -0.5194
  443MOL0     O59673   1.346  11.064   5.374 -0.4858  0.2491  0.3058
  443MOL0     C59674   1.303  11.122   5.254 -0.5611  0.1454  0.1930
  443MOL0     C59675   1.164  11.151   5.231  0.0322  0.3953  0.3188
  443MOL0     C59676   1.132  11.207   5.107  0.2880  0.2012  0.7415
  443MOL0     C59677   1.237  11.235   5.014  0.7854 -0.1861  0.7228
  443MOL0     O59678   1.212  11.270   4.887  0.0810  0.5950  0.3667
  443MOL0     C59679   1.157  11.164   4.800  0.1517 -0.7918  0.0224
  443MOL0     C59680   1.228  11.156   4.659  0.2368 -0.4143  0.4315
  443MOL0     C59681   1.235  11.291   4.584  0.5443 -0.0518 -1.1672
  443MOL0     C59682   1.307  11.282   4.451 -0.4969  0.2031  0.1090
  443MOL0     C59683   1.311  11.413   4.369  0.0841  0.7167 -0.7928
  443MOL0     C59684   1.391  11.412   4.239 -0.1913 -0.2626 -0.7648
  443MOL0     C59685   1.384  11.553   4.159  0.2465  1.1355  0.2783
  443MOL0     C59686   1.488  11.661   4.209  0.3997 -0.5858  0.6047
  443MOL0     N59687   1.624  11.601   4.235 -1.0156  0.4123 -0.1786
  443MOL0     C59688   1.693  11.529   4.147  0.2438  0.0680  0.4889
  443MOL0     C59689   1.820  11.524   4.182 -0.3475  0.4372  0.5590
  443MOL0     C59690   1.925  11.460   4.095 -0.0809  0.3670 -0.4478
  443MOL0     C59691   2.059  11.536   4.084 -0.4968  0.3701 -0.5843
  443MOL0     C59692   2.175  11.445   4.032  0.2893 -0.3219 -0.1871
  443MOL0     C59693   2.312  11.500   3.981 -0.6998 -0.0947  0.6502
  443MOL0     O59694   2.298  11.558   3.847 -0.4800 -0.2988 -0.3755
  443MOL0     C59695   2.311  11.684   3.842 -0.8815 -0.8722  0.0038
  443MOL0     C59696   2.424  11.763   3.875 -0.0346  0.1380 -0.0802
  443MOL0     C59697   2.423  11.902   3.863 -0.5634  0.8238  0.1077
  443MOL0     C59698   2.313  11.979   3.824 -0.3556  0.1618  0.0700
  443MOL0     C59699   2.315  12.128   3.817 -1.0355  1.5101 -0.0189
  443MOL0     O59700   2.423  12.200   3.858 -0.4633 -0.3637  1.2003
  443MOL0     C59701   2.425  12.335   3.864  0.3827 -0.2407 -0.6171
  443MOL0     C59702   2.538  12.403   3.829 -1.3856  0.4087 -0.2002
  443MOL0     C59703   2.539  12.541   3.838  0.1643 -0.7024 -0.6175
  443MOL0     C59704   2.425  12.620   3.869  0.2462 -0.2374  0.0924
  443MOL0     O59705   2.423  12.760   3.888  0.7669  1.2125  0.0973
  443MOL0     C59706   2.522  12.791   4.001 -0.0448  0.1521 -0.0739
  443MOL0     C59707   2.524  12.939   4.038 -0.5927  0.1180  0.8841
  443MOL0     C59708   2.391  12.979   4.101 -0.0576 -0.3685 -0.0579
  443MOL0     C59709   2.409  13.107   4.194 -0.1744 -0.4512  0.2422
  443MOL0     C59710   2.336  13.091   4.329 -0.2555 -0.8391  1.0113
  443MOL0     C59711   2.187  13.113   4.294  0.3966  2.0044  0.4215
  443MOL0     C59712   2.112  13.114   4.427 -0.2886  0.4860  0.9849
  443MOL0     C59713   1.965  13.089   4.403 -0.2213  0.0326  0.7730
  443MOL0    Cl59714   1.925  12.933   4.337 -0.0517  0.0772  0.0953
  443MOL0     C59715   2.309  12.547   3.901  0.1343 -0.5247 -0.1732
  443MOL0     C59716   2.311  12.408   3.901  0.1722 -0.3965 -0.7782
  443MOL0     O59717   2.223  12.168   3.746 -0.0021 -0.3573 -0.9229
  443MOL0     C59718   2.193  11.900   3.813  0.4986 -0.8917 -1.4961
  443MOL0     C59719   2.196  11.759   3.826  0.4950 -0.0829 -0.8611
  443MOL0     N59720   1.838  11.601   4.301  0.3405  0.0605 -0.0745
  443MOL0     N59721   1.713  11.643   4.328 -0.3398  0.1512 -0.4875
  443MOL0     C59722   1.367  11.196   5.040  0.1313 -0.4658  1.2268
  443MOL0     C59723   1.407  11.147   5.161  0.0456  1.3741  0.7325
  443MOL0     C59724   1.311  10.939   5.579 -0.4653 -0.6267 -0.0141
  443MOL0     C59725   1.449  10.906   5.578 -0.5101  0.6478  0.1412
  443MOL0     C59726   1.506  10.812   5.659  0.2052 -0.0681  0.0988
  443MOL0     C59727   1.424  10.741   5.754 -0.6262  0.1989 -0.6606
  443MOL0     O59728   1.469  10.631   5.830 -0.3520 -0.0372  0.6361
  443MOL0     C59729   1.606  10.621   5.864 -0.1953  0.3133 -0.2157
  443MOL0     C59730   1.650  10.732   5.967  0.1606 -0.8856 -0.1668
  443MOL0     C59731   1.758  10.680   6.060 -0.9062 -0.0288  0.3521
  443MOL0     C59732   1.814  10.786   6.153 -0.5934 -0.2415  0.1307
  443MOL0     C59733   1.881  10.897   6.087 -0.3245 -0.7752  1.1653
  443MOL0     C59734   1.935  10.990   6.031  0.3940  0.2452  0.2004
  443MOL0     C59735   1.288  10.776   5.765  0.1905  0.2176 -0.7658
  443MOL0     C59736   1.229  10.875   5.681 -0.2239 -0.4695 -0.3810
  443MOL0     C59737   1.082  10.911   5.702 -0.1644 -0.3996  0.2350
  443MOL0     H59738   1.082  11.130   5.299  1.2400 -2.8509  0.9325
  443MOL0     H59739   1.028  11.225   5.082  0.3831  0.4892  0.5494
  443MOL0     H59740   1.177  11.061   4.833 -1.5884 -1.8563 -1.9264
  443MOL0     H59741   1.050  11.185   4.788  1.2756  6.1472 -1.9800
  443MOL0     H59742   1.163  11.095   4.596  0.9196  0.1466 -0.8434
  443MOL0     H59743   1.325  11.106   4.663  1.4710  1.5692 -1.8183
  443MOL0     H59744   1.289  11.364   4.646 -0.4956 -1.3391  1.4288
  443MOL0     H59745   1.129  11.316   4.574  0.3174 -0.7319 -0.5794
  443MOL0     H59746   1.413  11.263   4.469  0.7239  3.0953 -2.9578
  443MOL0     H59747   1.257  11.201   4.396  0.9242 -0.7802  0.2185
  443MOL0     H59748   1.214  11.455   4.341  0.4241  2.2735  0.1966
  443MOL0     H59749   1.365  11.485   4.433  1.1809 -0.2691 -0.5778
  443MOL0     H59750   1.489  11.364   4.253  1.3102  3.0466  1.3375
  443MOL0     H59751   1.356  11.337   4.167  1.5076  1.5115 -3.6776
  443MOL0     H59752   1.283  11.594   4.151  0.3019  1.3525  0.6429
  443MOL0     H59753   1.401  11.528   4.054 -0.0793  1.4514  0.1494
  443MOL0     H59754   1.496  11.740   4.133  3.0636 -0.3705  1.0090
  443MOL0     H59755   1.434  11.707   4.292 -0.7850 -1.2475  0.2148
  443MOL0     H59756   1.639  11.486   4.063  2.0277 -0.8154 -0.2727
  443MOL0     H59757   1.952  11.368   4.148  0.0274  0.8947  0.4141
  443MOL0     H59758   1.884  11.433   3.997 -0.5672  3.7908 -1.3174
  443MOL0     H59759   2.053  11.627   4.024  2.0599  0.1015 -1.3702
  443MOL0     H59760   2.083  11.567   4.185  2.1853  2.3769 -1.7245
  443MOL0     H59761   2.134  11.381   3.952 -1.7527 -0.0903  0.6145
  443MOL0     H59762   2.186  11.369   4.110  1.1518 -1.6618 -1.5492
  443MOL0     H59763   2.384  11.417   3.984 -0.5987 -0.0301  0.1505
  443MOL0     H59764   2.345  11.576   4.053 -1.8161 -0.7435  1.8961
  443MOL0     H59765   2.525  11.727   3.891  0.5089  1.6766  0.1176
  443MOL0     H59766   2.525  11.938   3.874  1.0927 -2.9732 -1.2128
  443MOL0     H59767   2.627  12.352   3.792 -1.2903  1.2879 -1.2274
  443MOL0     H59768   2.634  12.592   3.824  1.3674 -2.1275  1.5845
  443MOL0     H59769   2.484  12.731   4.084 -1.7834 -1.0093 -1.6193
  443MOL0     H59770   2.622  12.755   3.974 -0.8391 -3.4775  1.2081
  443MOL0     H59771   2.599  12.948   4.118  0.1750  3.5707 -0.0349
  443MOL0     H59772   2.546  13.000   3.950 -2.4621  1.9207  1.5788
  443MOL0     H59773   2.325  13.001   4.017  1.1289  3.8135 -0.1336
  443MOL0     H59774   2.346  12.896   4.157  1.9859  0.1449  2.5609
  443MOL0     H59775   2.376  13.198   4.143  2.1059  2.0145  2.8570
  443MOL0     H59776   2.513  13.121   4.222 -0.1319 -1.6177  0.7332
  443MOL0     H59777   2.367  13.185   4.374  0.2432  1.8678 -4.2369
  443MOL0     H59778   2.361  13.000   4.385  1.0730  0.7301  3.0981
  443MOL0     H59779   2.167  13.212   4.254  0.6045  1.9142  0.0838
  443MOL0     H59780   2.158  13.036   4.222 -0.3834  2.0454  0.6894
  443MOL0     H59781   2.118  13.212   4.475  0.6803  1.8211 -1.6624
  443MOL0     H59782   2.154  13.044   4.500  1.7733  1.6776  1.0306
  443MOL0     H59783   1.908  13.098   4.496 -0.6359 -1.3689  0.6721
  443MOL0     H59784   1.926  13.166   4.336  1.7638  0.8534  0.4908
  443MOL0     H59785   2.230  12.614   3.934 -1.0911 -2.1016  0.2078
  443MOL0     H59786   2.229  12.351   3.943  0.2157 -0.8421 -1.2765
  443MOL0     H59787   2.091  11.930   3.794  0.5901 -1.1579 -2.4351
  443MOL0     H59788   2.104  11.709   3.798  1.1833 -1.9875  0.0845
  443MOL0     H59789   1.447  11.218   4.971 -1.5480  1.5539 -0.2042
  443MOL0     H59790   1.505  11.109   5.189 -0.5674 -0.4587  0.5499
  443MOL0     H59791   1.523  10.958   5.517 -0.5939  0.1516 -0.3961
  443MOL0     H59792   1.610  10.793   5.631  0.9020  0.4525  2.1606
  443MOL0     H59793   1.669  10.642   5.777  0.5783 -3.7282 -0.8367
  443MOL0     H59794   1.623  10.520   5.903 -2.9244 -0.4173 -0.7350
  443MOL0     H59795   1.568  10.771   6.027  2.6876 -0.6198  3.4101
  443MOL0     H59796   1.688  10.817   5.910  0.4857 -0.8963  0.0337
  443MOL0     H59797   1.833  10.636   5.994 -0.0536 -0.7849  1.7699
  443MOL0     H59798   1.723  10.592   6.116  0.6165 -0.2697  0.9765
  443MOL0     H59799   1.728  10.825   6.209 -1.7003  1.6356 -2.6692
  443MOL0     H59800   1.894  10.736   6.208  1.9645  1.6391 -1.6710
  443MOL0     H59801   1.978  11.077   5.985 -0.3239  1.5351  1.8685
  443MOL0     H59802   1.231  10.717   5.836 -0.1411  1.2531 -0.1485
  443MOL0     H59803   1.026  10.873   5.616 -1.3510  3.4301 -0.8736
  443MOL0     H59804   1.040  10.869   5.793  1.5229 -3.5079 -0.2894
  443MOL0     H59805   1.076  11.019   5.719  3.4519 -0.3551  2.4045
  444MOL0     O59806   3.983   3.313   4.126 -0.3090  0.1253  0.2409
  444MOL0     C59807   3.918   3.336   4.229 -0.2608  0.2100  0.8980
  444MOL0     O59808   3.898   3.457   4.290 -0.3052 -0.6558  0.2975
  444MOL0     C59809   3.973   3.574   4.254  0.8815  0.3294  0.1179
  444MOL0     C59810   3.946   3.690   4.333 -0.3851  0.1407  0.3341
  444MOL0     C59811   4.019   3.812   4.316  0.3162  0.1670 -0.0387
  444MOL0     C59812   4.111   3.824   4.210 -1.0375  0.0728 -0.5865
  444MOL0     O59813   4.148   3.945   4.156 -0.7116 -0.5904  0.5930
  444MOL0     C59814   4.135   4.051   4.249 -0.0988 -0.2774 -1.0376
  444MOL0     C59815   4.205   4.180   4.181  0.1037  0.6540  0.1941
  444MOL0     C59816   4.205   4.304   4.270 -0.5960 -0.1062  0.2966
  444MOL0     C59817   4.270   4.426   4.203  0.2595 -0.5568 -0.0359
  444MOL0     C59818   4.434   4.422   4.175 -0.7086  0.1194 -0.0221
  444MOL0     C59819   4.526   4.388   4.292  0.3852 -0.8679  0.7366
  444MOL0     C59820   4.667   4.378   4.239 -0.6799  1.3633 -0.7265
  444MOL0     C59821   4.751   4.291   4.330 -0.3994  0.6460  0.4717
  444MOL0     N59822   4.878   4.235   4.292 -0.4502 -1.2349 -0.3384
  444MOL0     C59823   5.002   4.308   4.290  0.8918  0.0862 -0.2831
  444MOL0     C59824   5.085   4.222   4.228 -0.3723  0.0592 -0.3343
  444MOL0     C59825   5.229   4.237   4.183  0.1294  0.7446  0.0070
  444MOL0     C59826   5.316   4.194   4.301  0.2782  0.2971 -0.1232
  444MOL0     C59827   5.472   4.225   4.276  0.1021  0.7131  0.7475
  444MOL0     C59828   5.526   4.185   4.133 -0.2560  0.0238 -0.2727
  444MOL0     O59829   5.505   4.051   4.109  0.2956  0.4873 -0.0821
  444MOL0     C59830   5.552   3.993   3.991 -0.0473 -0.3452  0.1108
  444MOL0     C59831   5.536   3.854   3.980  0.3388  0.2174 -0.3114
  444MOL0     C59832   5.584   3.780   3.872  0.3812  0.8391 -0.3366
  444MOL0     C59833   5.654   3.849   3.765  0.9463 -0.5269 -0.4822
  444MOL0     C59834   5.720   3.780   3.655 -0.4750  0.4885  0.0886
  444MOL0     O59835   5.790   3.848   3.556 -0.4137  0.2080 -0.2190
  444MOL0     C59836   5.862   3.776   3.465  0.2950 -0.9891 -0.7700
  444MOL0     C59837   5.997   3.719   3.487  1.1258 -1.1485 -0.0347
  444MOL0     C59838   6.069   3.661   3.385 -0.0247  0.1354 -0.3549
  444MOL0     C59839   6.016   3.660   3.255 -0.3644  0.3361 -0.2814
  444MOL0     O59840   6.087   3.625   3.152  0.8412 -0.5952  0.4618
  444MOL0     C59841   6.228   3.589   3.163 -0.9971 -1.1422  0.6464
  444MOL0     C59842   6.277   3.549   3.022  1.0691 -0.0840  0.2684
  444MOL0     C59843   6.211   3.430   2.952  0.6487  0.0093 -0.3083
  444MOL0     C59844   6.280   3.395   2.828  0.1165 -0.0611  0.9959
  444MOL0     C59845   6.210   3.297   2.730  0.1075  0.5176 -1.7348
  444MOL0     C59846   6.248   3.324   2.582 -0.3379 -0.7501 -1.4828
  444MOL0     C59847   6.381   3.256   2.529  0.2521 -0.1123  0.7184
  444MOL0     C59848   6.368   3.109   2.485  0.0385 -0.4700 -1.1249
  444MOL0    Cl59849   6.226   3.057   2.390  0.0876 -0.0261 -0.0500
  444MOL0     C59850   5.889   3.709   3.234  0.6534  0.4964 -0.2352
  444MOL0     C59851   5.809   3.762   3.332  0.2157 -0.6788 -0.0895
  444MOL0     O59852   5.721   3.657   3.659 -0.2787 -0.7790 -0.4590
  444MOL0     C59853   5.656   3.992   3.771 -0.0925  0.3268 -0.6169
  444MOL0     C59854   5.603   4.060   3.883  0.3874  1.4623  0.5420
  444MOL0     N59855   5.015   4.099   4.217 -0.6111 -0.1600 -0.0405
  444MOL0     N59856   4.899   4.110   4.250 -1.3597  0.2186  0.0447
  444MOL0     C59857   4.129   3.710   4.124  0.1184 -0.0852 -0.0742
  444MOL0     C59858   4.063   3.590   4.151 -0.7576  0.4054  0.1687
  444MOL0     C59859   3.843   3.218   4.277 -0.0559 -0.8857 -0.5531
  444MOL0     C59860   3.708   3.234   4.295  0.0561  0.2479  0.0208
  444MOL0     C59861   3.628   3.123   4.336  0.4177 -0.9195  0.2996
  444MOL0     C59862   3.682   2.997   4.349  0.0056  0.4451 -0.3663
  444MOL0     O59863   3.604   2.889   4.372  1.1395  0.2608  0.4126
  444MOL0     C59864   3.459   2.899   4.387  0.3571 -0.3340  0.4055
  444MOL0     C59865   3.391   2.769   4.444  0.0941  0.3865  0.7335
  444MOL0     C59866   3.473   2.673   4.524 -0.4149  0.0804  0.2061
  444MOL0     C59867   3.393   2.541   4.555 -1.0590  0.1212  0.0092
  444MOL0     C59868   3.418   2.450   4.449 -0.6678 -0.0256  0.6080
  444MOL0     C59869   3.446   2.392   4.352 -0.1066 -0.4204  0.1010
  444MOL0     C59870   3.816   2.977   4.316  0.5824 -0.5342 -0.0615
  444MOL0     C59871   3.900   3.086   4.287 -0.6776  0.2452  0.4635
  444MOL0     C59872   4.035   3.052   4.264 -0.0490  0.7379  1.0652
  444MOL0     H59873   3.873   3.677   4.414  0.4181 -2.1835  0.7749
  444MOL0     H59874   4.000   3.889   4.390  3.9530  0.0553  1.1992
  444MOL0     H59875   4.030   4.076   4.268  0.2575 -0.0758  0.9474
  444MOL0     H59876   4.173   4.040   4.352 -0.0669  1.6263 -0.7966
  444MOL0     H59877   4.168   4.205   4.082  1.1778  2.6097  0.2368
  444MOL0     H59878   4.311   4.160   4.161 -0.5103 -1.3091 -1.4608
  444MOL0     H59879   4.249   4.285   4.369  1.1909  2.2163  0.0180
  444MOL0     H59880   4.103   4.320   4.305 -0.4448 -0.8847  1.1377
  444MOL0     H59881   4.210   4.447   4.114 -0.7935 -1.3770  0.4634
  444MOL0     H59882   4.249   4.504   4.277 -1.6746 -0.5943 -0.4985
  444MOL0     H59883   4.458   4.344   4.102  1.5166  0.9398 -0.2432
  444MOL0     H59884   4.463   4.516   4.127 -0.7919 -1.1402 -2.6885
  444MOL0     H59885   4.524   4.461   4.373 -1.2307 -0.0913  0.0399
  444MOL0     H59886   4.503   4.288   4.330 -1.0374  0.2760  3.1274
  444MOL0     H59887   4.711   4.478   4.241  2.1130  0.2387  1.4680
  444MOL0     H59888   4.667   4.343   4.135  0.0362  2.0040 -0.9494
  444MOL0     H59889   4.775   4.336   4.427 -0.1738 -1.4897  1.4570
  444MOL0     H59890   4.691   4.209   4.370  1.6481 -1.5211 -0.6824
  444MOL0     H59891   5.023   4.412   4.314  1.5921  0.3893 -2.0366
  444MOL0     H59892   5.261   4.176   4.098 -0.8725 -0.2225  0.3109
  444MOL0     H59893   5.262   4.339   4.160  1.9569  0.0776 -0.5074
  444MOL0     H59894   5.273   4.243   4.389  1.5126 -2.8662  2.4598
  444MOL0     H59895   5.298   4.086   4.314 -2.5399  0.8445  1.5210
  444MOL0     H59896   5.509   4.158   4.354 -1.0370  0.7865  1.3871
  444MOL0     H59897   5.491   4.331   4.297 -2.2540  0.9278  2.2225
  444MOL0     H59898   5.630   4.219   4.133  0.3222 -1.3645  2.9623
  444MOL0     H59899   5.474   4.249   4.061  1.3161  1.6960  0.0072
  444MOL0     H59900   5.500   3.816   4.075 -1.7249  0.6281 -0.8751
  444MOL0     H59901   5.570   3.673   3.870  2.9493  0.4269 -2.4415
  444MOL0     H59902   6.039   3.720   3.587  1.9174 -0.0139 -0.3547
  444MOL0     H59903   6.159   3.607   3.413 -0.5748  0.2651  1.8228
  444MOL0     H59904   6.289   3.670   3.205 -2.0800 -0.6642  1.3124
  444MOL0     H59905   6.241   3.502   3.227 -3.3265 -1.2519  1.0500
  444MOL0     H59906   6.264   3.635   2.956  0.5318 -0.0037  0.4736
  444MOL0     H59907   6.386   3.536   3.025  0.9665 -1.4234 -0.6554
  444MOL0     H59908   6.213   3.344   3.020  0.5570 -0.1847 -0.5480
  444MOL0     H59909   6.104   3.448   2.940  0.4800 -0.8257 -0.1106
  444MOL0     H59910   6.383   3.362   2.845  1.2939  1.8969 -1.5498
  444MOL0     H59911   6.286   3.493   2.780  1.7214 -1.1688 -1.3067
  444MOL0     H59912   6.101   3.290   2.733  0.2542 -2.2182 -0.6312
  444MOL0     H59913   6.245   3.202   2.768 -0.7241  1.5773  2.1198
  444MOL0     H59914   6.159   3.297   2.525 -2.0779 -1.5073  1.3939
  444MOL0     H59915   6.251   3.434   2.575 -1.1900 -0.8124 -3.5539
  444MOL0     H59916   6.470   3.258   2.592  2.3744  1.6026 -2.0602
  444MOL0     H59917   6.416   3.322   2.449  1.0635  1.4324  2.2791
  444MOL0     H59918   6.460   3.083   2.432  0.9307  2.1235 -0.9904
  444MOL0     H59919   6.364   3.041   2.570  1.5325 -1.1755 -1.5978
  444MOL0     H59920   5.854   3.699   3.132  0.3272 -2.0598  0.0794
  444MOL0     H59921   5.710   3.794   3.301  0.4656  1.9270  1.4852
  444MOL0     H59922   5.707   4.050   3.694  0.9527 -0.6842 -0.7170
  444MOL0     H59923   5.613   4.168   3.881  0.5290  1.4711  1.4571
  444MOL0     H59924   4.205   3.704   4.046  0.0012 -0.9084 -0.1284
  444MOL0     H59925   4.091   3.509   4.084  0.6900 -0.5680  1.8614
  444MOL0     H59926   3.682   3.328   4.248 -0.5020  0.2071  0.2413
  444MOL0     H59927   3.521   3.138   4.337  0.6101  0.6660 -0.3313
  444MOL0     H59928   3.406   2.927   4.295 -3.3363 -3.0114  1.4746
  444MOL0     H59929   3.436   2.977   4.460  0.9427 -0.0999  0.3440
  444MOL0     H59930   3.357   2.709   4.360 -0.4124  2.8110 -0.8955
  444MOL0     H59931   3.306   2.809   4.500 -1.0172 -0.5461 -0.2441
  444MOL0     H59932   3.507   2.721   4.616 -0.3055  1.5581 -0.5915
  444MOL0     H59933   3.566   2.649   4.471 -0.1211 -4.0662  2.1434
  444MOL0     H59934   3.426   2.504   4.653 -1.5151  0.4679  0.2948
  444MOL0     H59935   3.287   2.564   4.556 -0.9867  0.4611  0.8955
  444MOL0     H59936   3.492   2.350   4.265 -2.6569 -0.0153 -1.5315
  444MOL0     H59937   3.861   2.878   4.316 -1.0900 -1.3137 -0.1996
  444MOL0     H59938   4.106   3.132   4.284 -0.0778  0.5461  1.9934
  444MOL0     H59939   4.061   2.968   4.329 -0.7710  0.2784  0.7722
  444MOL0     H59940   4.029   3.026   4.158 -1.4567  1.1163  1.0248
  445MOL0     O59941   8.978   1.895   1.133  0.1337 -0.1542  0.0604
  445MOL0     C59942   8.858   1.877   1.159  0.2187 -0.0882  0.6038
  445MOL0     O59943   8.795   1.759   1.146 -1.0498  0.2104  0.5869
  445MOL0     C59944   8.868   1.657   1.091  0.3778  0.1567  0.3470
  445MOL0     C59945   8.998   1.625   1.134 -0.3389 -0.7280 -0.5568
  445MOL0     C59946   9.069   1.517   1.087  0.0078  0.1436  0.2086
  445MOL0     C59947   9.006   1.432   0.990 -0.5133 -0.4558  0.3388
  445MOL0     O59948   9.064   1.324   0.928 -0.3490  0.2898  0.7021
  445MOL0     C59949   9.207   1.308   0.937 -0.0547 -1.0122  0.8212
  445MOL0     C59950   9.237   1.173   0.871 -0.0652 -0.4126  1.2379
  445MOL0     C59951   9.213   1.160   0.719 -0.2093  0.0272  0.8768
  445MOL0     C59952   9.217   1.026   0.650 -0.7257  0.7366 -0.4089
  445MOL0     C59953   9.218   1.055   0.504 -0.4532  0.1833  0.0907
  445MOL0     C59954   9.195   0.929   0.425  0.9170  0.6524 -0.7733
  445MOL0     C59955   9.042   0.885   0.416 -0.6285 -0.1773 -0.3887
  445MOL0     C59956   9.010   0.767   0.318  0.0159 -0.0962  0.5906
  445MOL0     N59957   8.994   0.832   0.183  0.0508  0.5754 -0.6922
  445MOL0     C59958   8.884   0.801   0.108 -0.0443  0.4982 -0.6751
  445MOL0     C59959   8.932   0.808  -0.016  0.6542  0.1067 -0.1343
  445MOL0     C59960   8.871   0.782  -0.148  0.6726  0.0186 -0.4010
  445MOL0     C59961   8.722   0.822  -0.153  0.1573 -0.1669  0.8999
  445MOL0     C59962   8.662   0.817  -0.288 -0.3344  0.7496  0.6956
  445MOL0     C59963   8.623   0.686  -0.338  0.0575  0.1145 -0.4956
  445MOL0     O59964   8.491   0.656  -0.307  0.2529  0.1530  0.7426
  445MOL0     C59965   8.393   0.698  -0.401  0.4077  0.4493 -0.8024
  445MOL0     C59966   8.280   0.739  -0.332 -0.1452 -0.0739 -0.4913
  445MOL0     C59967   8.186   0.815  -0.397 -0.2464  0.4950 -0.9064
  445MOL0     C59968   8.196   0.832  -0.535 -0.1494 -0.3090 -0.1094
  445MOL0     C59969   8.100   0.916  -0.611 -0.7451  0.6421 -0.5981
  445MOL0     O59970   8.143   0.965  -0.731  0.3516 -0.2894 -0.5439
  445MOL0     C59971   8.049   1.021  -0.812  0.2898  0.4735 -0.0728
  445MOL0     C59972   8.034   1.157  -0.815  0.2630 -0.6813  0.3330
  445MOL0     C59973   7.934   1.217  -0.903  0.9415 -0.3864  0.3324
  445MOL0     C59974   7.852   1.137  -0.981 -0.1609  0.0886 -0.3686
  445MOL0     O59975   7.765   1.218  -1.057 -0.4184  0.2356  0.6050
  445MOL0     C59976   7.728   1.154  -1.178  0.2323 -0.2277 -0.2460
  445MOL0     C59977   7.592   1.119  -1.149  0.0729  0.4993  0.2690
  445MOL0     C59978   7.520   1.102  -1.283  0.5924  0.2422  0.8618
  445MOL0     C59979   7.556   0.966  -1.365 -0.4547 -0.1998 -0.3442
  445MOL0     C59980   7.480   0.943  -1.488 -0.4859  0.5455  0.5189
  445MOL0     C59981   7.545   0.997  -1.624 -0.6377  0.2236 -0.3969
  445MOL0     C59982   7.447   1.010  -1.743 -0.0482 -0.5744  0.3457
  445MOL0     C59983   7.411   0.875  -1.820 -0.0342  0.4784 -1.0693
  445MOL0    Cl59984   7.283   0.902  -1.952  0.2887 -0.0658  0.4946
  445MOL0     C59985   7.850   0.999  -0.968  0.3669  0.4045  0.2079
  445MOL0     C59986   7.950   0.941  -0.879 -0.3097 -1.2441  0.3560
  445MOL0     O59987   7.986   0.912  -0.574  0.3666 -0.2442  0.3902
  445MOL0     C59988   8.299   0.767  -0.602  0.4838 -0.8473  0.0145
  445MOL0     C59989   8.397   0.701  -0.534  0.1601 -0.3667 -0.4473
  445MOL0     N59990   9.067   0.831  -0.010 -0.7962  0.2533 -0.1297
  445MOL0     N59991   9.109   0.852   0.110  0.5052  0.4052 -0.7718
  445MOL0     C59992   8.871   1.452   0.961 -0.3678 -1.1118 -0.2225
  445MOL0     C59993   8.807   1.565   1.000 -0.8688 -0.5146 -1.3261
  445MOL0     C59994   8.790   1.991   1.226 -0.1909 -0.2804 -0.1697
  445MOL0     C59995   8.720   1.962   1.343 -0.3127 -1.2735 -0.4997
  445MOL0     C59996   8.653   2.056   1.415  0.4082 -0.1353 -0.8478
  445MOL0     C59997   8.649   2.194   1.373 -0.5182 -0.1223  0.5506
  445MOL0     O59998   8.566   2.281   1.435 -0.1161 -0.3388  0.0815
  445MOL0     C59999   8.588   2.426   1.424 -0.3646 -0.2507  0.2716
  445MOL0     C60000   8.487   2.525   1.481 -0.6572 -0.7947  0.2505
  445MOL0     C60001   8.474   2.517   1.630 -0.0573  0.3089  0.6202
  445MOL0     C60002   8.391   2.625   1.692 -0.2815 -0.0273  0.5109
  445MOL0     C60003   8.281   2.660   1.602  0.2845 -0.7781  0.4352
  445MOL0     C60004   8.182   2.687   1.539 -0.0119  0.1079 -0.8248
  445MOL0     C60005   8.725   2.228   1.257  0.3411  0.0083  0.6223
  445MOL0     C60006   8.793   2.129   1.183 -0.4935  0.0931 -0.1033
  445MOL0     C60007   8.878   2.171   1.065 -0.4031  0.1655  0.2388
  445MOL0     H60008   9.043   1.670   1.222  2.1119  0.1763 -2.1584
  445MOL0     H60009   9.162   1.488   1.134  0.5416  3.4573  1.4077
  445MOL0     H60010   9.265   1.388   0.890  2.8522 -2.6575  1.4163
  445MOL0     H60011   9.238   1.298   1.042 -3.2494  1.1103  2.1277
  445MOL0     H60012   9.165   1.106   0.920 -2.0057  0.4223 -0.3512
  445MOL0     H60013   9.338   1.143   0.902  0.3619 -0.6129 -0.2705
  445MOL0     H60014   9.282   1.229   0.671 -2.5273  3.6213  2.3163
  445MOL0     H60015   9.120   1.208   0.689  0.4877 -0.3111 -2.1418
  445MOL0     H60016   9.308   0.969   0.674 -0.4951  1.8579  1.6452
  445MOL0     H60017   9.137   0.956   0.673  0.9164 -0.4355  2.2791
  445MOL0     H60018   9.143   1.132   0.483  0.3387  1.4024  1.4977
  445MOL0     H60019   9.317   1.086   0.471  0.4939 -0.4495  2.1268
  445MOL0     H60020   9.231   0.953   0.324 -2.7923  1.8918 -1.9885
  445MOL0     H60021   9.254   0.844   0.457  1.5225  2.1409  2.4669
  445MOL0     H60022   8.984   0.975   0.392  1.1656  1.2573  0.4516
  445MOL0     H60023   9.016   0.845   0.514  2.7843  1.9414  1.6032
  445MOL0     H60024   9.083   0.687   0.303 -0.9267 -0.5134 -2.3823
  445MOL0     H60025   8.922   0.718   0.362  0.0882 -0.6393  0.1357
  445MOL0     H60026   8.787   0.768   0.145  0.6524 -0.4486  0.3773
  445MOL0     H60027   8.922   0.837  -0.228  3.1075 -1.2998  0.1305
  445MOL0     H60028   8.886   0.676  -0.173  3.3384 -0.2801  2.0408
  445MOL0     H60029   8.659   0.768  -0.081 -1.8751  1.1609  0.1934
  445MOL0     H60030   8.725   0.928  -0.127 -0.3639 -0.0077  0.3409
  445MOL0     H60031   8.737   0.839  -0.365  0.1436 -2.4686  0.0693
  445MOL0     H60032   8.575   0.881  -0.305 -1.3597 -0.6687  0.3410
  445MOL0     H60033   8.682   0.609  -0.288 -2.6092 -1.2492  0.7030
  445MOL0     H60034   8.645   0.674  -0.445 -1.0886  0.2296 -0.7573
  445MOL0     H60035   8.278   0.723  -0.224 -0.6198 -1.5852 -0.7135
  445MOL0     H60036   8.108   0.852  -0.332  0.6421 -1.4322  1.4316
  445MOL0     H60037   8.096   1.221  -0.753 -1.3186 -1.4562  2.8563
  445MOL0     H60038   7.911   1.322  -0.911 -2.8668 -1.1474 -0.5898
  445MOL0     H60039   7.729   1.235  -1.252  0.3319  1.8176  1.8691
  445MOL0     H60040   7.793   1.076  -1.217 -0.4881  1.3112 -5.1418
  445MOL0     H60041   7.591   1.030  -1.085 -2.5974  1.1319  1.2511
  445MOL0     H60042   7.536   1.197  -1.096  1.5219  1.7932 -0.0083
  445MOL0     H60043   7.416   1.093  -1.251  0.6540 -1.9886  0.6263
  445MOL0     H60044   7.522   1.191  -1.347  0.9219 -0.1862  0.2698
  445MOL0     H60045   7.524   0.885  -1.298 -1.4583 -1.2083 -1.9813
  445MOL0     H60046   7.663   0.965  -1.385 -0.6794 -1.8335 -1.7131
  445MOL0     H60047   7.375   0.971  -1.473 -0.5261  0.5172  0.3022
  445MOL0     H60048   7.490   0.835  -1.506  1.1161  0.4586  1.7075
  445MOL0     H60049   7.588   1.096  -1.612 -1.3827  0.3581  1.5720
  445MOL0     H60050   7.628   0.930  -1.649 -1.1346  0.5483 -3.2932
  445MOL0     H60051   7.473   1.095  -1.808 -1.2720  1.2488  2.0924
  445MOL0     H60052   7.356   1.047  -1.696  1.9313  3.1481  1.7020
  445MOL0     H60053   7.497   0.835  -1.875 -0.1002  0.9660 -1.5329
  445MOL0     H60054   7.371   0.799  -1.752  0.9439  2.9657  2.5862
  445MOL0     H60055   7.779   0.947  -1.032  0.3299  2.2369 -1.3048
  445MOL0     H60056   7.966   0.833  -0.875 -0.2397 -1.2397  0.1946
  445MOL0     H60057   8.310   0.771  -0.710  1.8316 -1.1030  0.1313
  445MOL0     H60058   8.482   0.661  -0.589  1.2700  2.2667 -0.7752
  445MOL0     H60059   8.836   1.382   0.886  1.7471  0.6793 -3.0974
  445MOL0     H60060   8.710   1.593   0.959 -0.9761 -0.2171 -0.8853
  445MOL0     H60061   8.715   1.857   1.372 -2.9422 -1.9110 -2.8520
  445MOL0     H60062   8.613   2.017   1.508 -1.1309  1.9292 -0.5697
  445MOL0     H60063   8.576   2.442   1.317 -0.1663  0.4108  0.3414
  445MOL0     H60064   8.688   2.457   1.456 -1.0533  1.5062  0.8744
  445MOL0     H60065   8.387   2.500   1.444 -0.8432  3.0280 -2.4083
  445MOL0     H60066   8.510   2.630   1.462 -0.6922 -1.3334 -3.4690
  445MOL0     H60067   8.573   2.524   1.676  1.4195  2.4099 -2.5126
  445MOL0     H60068   8.433   2.418   1.648  1.0771 -0.5306 -1.1247
  445MOL0     H60069   8.348   2.596   1.789 -0.3958 -1.3353  0.0796
  445MOL0     H60070   8.463   2.707   1.702 -0.1136  0.1660 -1.7813
  445MOL0     H60071   8.094   2.716   1.485 -0.2697  1.6157  0.3666
  445MOL0     H60072   8.729   2.330   1.221 -1.7520 -1.2565 -3.8506
  445MOL0     H60073   8.821   2.245   1.008  2.2142  1.9869 -0.1882
  445MOL0     H60074   8.959   2.235   1.103  0.8200 -0.2877 -1.4952
  445MOL0     H60075   8.933   2.100   1.002 -0.7097 -0.5041  0.7147
  446MOL0     O60076   1.336   4.973   8.992  0.0135  0.7736 -0.1342
  446MOL0     C60077   1.315   5.080   8.936 -0.1940 -0.3940  0.0792
  446MOL0     O60078   1.414   5.163   8.891 -0.0220  0.1551  0.3969
  446MOL0     C60079   1.538   5.156   8.947  0.8732  0.5573 -0.4388
  446MOL0     C60080   1.634   5.078   8.873  0.9445  0.7643  0.0580
  446MOL0     C60081   1.767   5.081   8.910  0.4854 -0.0844 -0.8373
  446MOL0     C60082   1.810   5.163   9.021  0.2968 -0.0463  0.5091
  446MOL0     O60083   1.947   5.188   9.065 -0.0951 -0.1616 -0.6912
  446MOL0     C60084   2.042   5.090   9.013  0.4837  0.5358  0.4489
  446MOL0     C60085   2.177   5.114   9.086  0.6388 -0.1750  0.3733
  446MOL0     C60086   2.279   5.000   9.042 -0.9007  0.0063 -0.3087
  446MOL0     C60087   2.406   5.011   9.127  0.3231 -0.1886 -0.1546
  446MOL0     C60088   2.477   4.886   9.155 -0.5576  0.2337 -0.1735
  446MOL0     C60089   2.615   4.932   9.231 -1.4155  0.1722  0.2316
  446MOL0     C60090   2.725   5.017   9.162  0.6945 -0.6013  0.5639
  446MOL0     C60091   2.832   4.930   9.106 -1.6313 -0.9109  0.4181
  446MOL0     N60092   2.779   4.836   9.005 -1.5217  0.0916  0.8612
  446MOL0     C60093   2.749   4.706   9.020 -0.2401  0.2060  0.1113
  446MOL0     C60094   2.692   4.666   8.904 -0.2194 -0.2518  0.0259
  446MOL0     C60095   2.648   4.530   8.872  0.2014 -0.4025 -0.4212
  446MOL0     C60096   2.752   4.412   8.872  0.5162  0.7747  0.6710
  446MOL0     C60097   2.819   4.383   9.008 -0.3452 -0.1013  0.2017
  446MOL0     C60098   2.894   4.256   8.991  0.2219  0.0916  0.2395
  446MOL0     O60099   2.809   4.144   8.971  0.4995  0.1782 -0.9328
  446MOL0     C60100   2.861   4.018   8.959 -0.1370 -0.2967  0.5050
  446MOL0     C60101   2.997   3.968   8.965  0.3495 -0.5039  0.7109
  446MOL0     C60102   3.029   3.831   8.959 -0.3665  1.0333  0.5788
  446MOL0     C60103   2.932   3.737   8.940  0.1515  0.3806 -0.5250
  446MOL0     C60104   2.963   3.596   8.943 -0.4170  0.1786  0.7125
  446MOL0     O60105   3.099   3.562   8.913 -0.0716  0.3370 -0.1505
  446MOL0     C60106   3.131   3.430   8.926 -0.0860  0.3927  0.0355
  446MOL0     C60107   3.171   3.352   8.819 -0.5769 -0.2178 -0.2349
  446MOL0     C60108   3.200   3.215   8.836  0.2396  0.7064 -0.8542
  446MOL0     C60109   3.193   3.152   8.957  0.3999 -0.9836  0.2946
  446MOL0     O60110   3.226   3.025   8.985  0.4110  0.1546  0.0838
  446MOL0     C60111   3.292   2.943   8.893 -0.8044  0.2627 -0.2706
  446MOL0     C60112   3.199   2.879   8.789 -0.1206  0.4085  0.8391
  446MOL0     C60113   3.099   2.784   8.844  0.2984  1.0037  0.3227
  446MOL0     C60114   2.972   2.757   8.752  0.2783  1.0421  0.6529
  446MOL0     C60115   2.994   2.666   8.626  0.6322  0.1593 -0.6683
  446MOL0     C60116   2.864   2.617   8.552 -0.4531  0.2241 -0.2358
  446MOL0     C60117   2.885   2.490   8.478 -0.0289  1.2254  0.6702
  446MOL0     C60118   2.755   2.433   8.431  0.5465  1.0163 -0.2077
  446MOL0    Cl60119   2.766   2.352   8.270 -0.0893 -0.3526 -0.1403
  446MOL0     C60120   3.163   3.229   9.066 -0.9599 -1.0231 -0.1562
  446MOL0     C60121   3.136   3.367   9.055 -0.4142  0.7954 -0.1796
  446MOL0     O60122   2.872   3.517   8.966  0.8443 -0.5219  0.7057
  446MOL0     C60123   2.798   3.785   8.925 -0.3576  0.2249 -0.1344
  446MOL0     C60124   2.765   3.920   8.937 -0.8699  0.3756 -0.3060
  446MOL0     N60125   2.680   4.775   8.823 -0.4674 -0.0524  0.1073
  446MOL0     N60126   2.734   4.878   8.880 -0.1652 -0.4851 -0.4124
  446MOL0     C60127   1.716   5.236   9.093  0.5546 -0.9997 -0.1218
  446MOL0     C60128   1.574   5.229   9.057  0.4462 -0.6034 -0.4466
  446MOL0     C60129   1.181   5.133   8.946  0.6831  0.6430  0.1772
  446MOL0     C60130   1.166   5.266   8.924 -0.7136 -0.1045  0.3791
  446MOL0     C60131   1.046   5.330   8.946 -0.0249  0.6043  0.5622
  446MOL0     C60132   0.931   5.266   8.987  0.6762  0.2666 -0.6070
  446MOL0     O60133   0.824   5.352   8.992 -0.4981 -0.1949 -0.5839
  446MOL0     C60134   0.693   5.297   8.977 -0.7200 -0.2283 -0.8935
  446MOL0     C60135   0.642   5.283   9.120  0.4267 -0.1059 -0.1789
  446MOL0     C60136   0.495   5.241   9.116  0.7484 -0.7750 -0.0048
  446MOL0     C60137   0.486   5.089   9.125  0.3389 -0.1777 -0.1636
  446MOL0     C60138   0.554   5.015   9.019  0.4351  0.1080 -0.3624
  446MOL0     C60139   0.619   4.956   8.927  0.1352 -0.5430  0.3688
  446MOL0     C60140   0.940   5.122   8.992 -0.2616 -0.6832  0.2015
  446MOL0     C60141   1.065   5.056   8.977 -1.0290 -0.5391 -0.0638
  446MOL0     C60142   1.062   4.907   8.982 -0.6240  0.0274  0.2623
  446MOL0     H60143   1.613   5.036   8.775  0.3837  2.1387 -0.4330
  446MOL0     H60144   1.840   5.022   8.857  0.2908  0.0714 -1.2835
  446MOL0     H60145   2.010   4.988   9.034  1.0764  0.0483 -0.8806
  446MOL0     H60146   2.067   5.115   8.909  0.1188  1.7942  0.6468
  446MOL0     H60147   2.146   5.107   9.190 -1.4200 -0.8628 -0.2401
  446MOL0     H60148   2.219   5.213   9.069  2.1395 -0.5756  1.4686
  446MOL0     H60149   2.314   5.015   8.939  0.4046 -0.0200  0.1129
  446MOL0     H60150   2.244   4.897   9.054 -3.9125  0.9430 -0.1725
  446MOL0     H60151   2.463   5.086   9.072 -0.9666  0.5472 -0.5456
  446MOL0     H60152   2.379   5.051   9.226  0.4552  0.0335 -0.2088
  446MOL0     H60153   2.408   4.826   9.216 -0.5912  0.5653  0.1148
  446MOL0     H60154   2.502   4.834   9.062  0.9648  1.9487 -0.7796
  446MOL0     H60155   2.570   4.992   9.311 -0.9214  0.7959  0.0442
  446MOL0     H60156   2.669   4.853   9.283  2.3092  0.8803 -2.1606
  446MOL0     H60157   2.765   5.095   9.227  2.1841 -0.8080 -0.0806
  446MOL0     H60158   2.681   5.078   9.082  2.6570 -1.9088 -1.6026
  446MOL0     H60159   2.906   5.000   9.066 -1.5259  0.5277  2.8979
  446MOL0     H60160   2.878   4.863   9.179 -1.8910 -2.2042 -0.5726
  446MOL0     H60161   2.755   4.641   9.107  0.1599  0.6427  0.4164
  446MOL0     H60162   2.568   4.516   8.946 -0.1956  2.3172 -0.2180
  446MOL0     H60163   2.607   4.538   8.771  0.4183  1.3917 -0.4112
  446MOL0     H60164   2.705   4.322   8.831 -0.7657  1.5065  0.4731
  446MOL0     H60165   2.835   4.444   8.809  2.3021 -1.7115  1.5878
  446MOL0     H60166   2.743   4.388   9.086 -3.0947  0.0944 -2.3231
  446MOL0     H60167   2.897   4.458   9.024  0.7488 -1.0452 -0.5178
  446MOL0     H60168   2.963   4.241   9.075  0.2457 -2.3534 -0.1705
  446MOL0     H60169   2.958   4.269   8.903  3.2450  1.2702  2.4373
  446MOL0     H60170   3.069   4.049   8.977 -1.5407  2.8841 -5.7379
  446MOL0     H60171   3.135   3.806   8.966 -0.9895 -3.1836 -1.7580
  446MOL0     H60172   3.176   3.401   8.722  1.6351  0.8974  0.3753
  446MOL0     H60173   3.233   3.153   8.753 -2.2837 -0.7206 -0.8755
  446MOL0     H60174   3.364   3.007   8.840 -1.7791  0.4334 -1.4350
  446MOL0     H60175   3.332   2.858   8.949 -1.6825 -1.5489 -2.2586
  446MOL0     H60176   3.138   2.949   8.733 -1.4570 -1.9576 -0.8330
  446MOL0     H60177   3.263   2.829   8.716 -2.4650 -1.0618 -0.3081
  446MOL0     H60178   3.148   2.686   8.849 -0.4270  0.1829 -4.2048
  446MOL0     H60179   3.070   2.832   8.938  3.5956 -0.9120  2.5587
  446MOL0     H60180   2.931   2.850   8.710  1.3067  1.4847  0.5902
  446MOL0     H60181   2.899   2.702   8.811 -0.1162  0.3436 -0.4574
  446MOL0     H60182   3.037   2.572   8.662  1.7524  0.0150 -2.2710
  446MOL0     H60183   3.071   2.710   8.561  1.2248  2.6006  1.4668
  446MOL0     H60184   2.784   2.604   8.625  0.4204  1.2283  0.9490
  446MOL0     H60185   2.840   2.694   8.478 -1.0914  1.9048  1.6485
  446MOL0     H60186   2.918   2.403   8.534 -3.4678  0.4040  1.6359
  446MOL0     H60187   2.954   2.505   8.394 -2.0895 -0.7773 -1.5572
  446MOL0     H60188   2.724   2.363   8.509 -0.5980  1.2184 -0.4525
  446MOL0     H60189   2.685   2.517   8.421  0.5898  1.0959  0.1337
  446MOL0     H60190   3.176   3.185   9.165  0.5732  3.9319  2.2007
  446MOL0     H60191   3.113   3.422   9.145  3.6972  0.2003  1.4374
  446MOL0     H60192   2.725   3.704   8.922  1.4916 -1.5306 -2.5021
  446MOL0     H60193   2.665   3.961   8.943 -0.3181  1.7310  0.0294
  446MOL0     H60194   1.755   5.288   9.179 -1.4670  2.8007 -1.2446
  446MOL0     H60195   1.510   5.291   9.119 -0.8479 -1.1567 -1.1794
  446MOL0     H60196   1.248   5.316   8.873 -1.2556 -1.1470 -1.5839
  446MOL0     H60197   1.060   5.438   8.937  0.4279  0.5471  0.5358
  446MOL0     H60198   0.693   5.203   8.921  0.0174 -1.4854  1.1358
  446MOL0     H60199   0.633   5.364   8.914 -0.6073 -0.8536 -1.6912
  446MOL0     H60200   0.653   5.377   9.175 -2.2997 -0.1148  0.5308
  446MOL0     H60201   0.697   5.202   9.170 -1.8801 -1.3584  0.4478
  446MOL0     H60202   0.437   5.280   9.032  0.6086 -3.5628 -1.2957
  446MOL0     H60203   0.438   5.268   9.206 -2.7231  0.9854 -2.5225
  446MOL0     H60204   0.516   5.058   9.226 -2.1797  2.7468  1.6371
  446MOL0     H60205   0.380   5.063   9.125  0.8666 -2.6637  0.2828
  446MOL0     H60206   0.668   4.898   8.851  0.9430 -1.5444  1.6191
  446MOL0     H60207   0.859   5.054   9.015  0.0882 -0.8344  1.0466
  446MOL0     H60208   0.965   4.859   9.000 -0.7172  0.0480 -0.1840
  446MOL0     H60209   1.097   4.864   8.888  1.4165  2.8292 -0.3977
  446MOL0     H60210   1.120   4.871   9.068 -2.6584  0.9475  2.1416
  447MOL0     O60211   1.156   1.172   8.877  0.4875  0.0271  0.0954
  447MOL0     C60212   1.166   1.232   8.771 -0.0790 -0.0552  0.7566
  447MOL0     O60213   1.285   1.297   8.725 -0.6438 -0.4932  0.5300
  447MOL0     C60214   1.403   1.288   8.799 -0.3983  0.6717 -0.3140
  447MOL0     C60215   1.420   1.266   8.940  0.0807 -0.9240  0.3752
  447MOL0     C60216   1.550   1.277   9.001  0.1716 -0.5191  0.2346
  447MOL0     C60217   1.665   1.284   8.922  0.1484  0.6213 -0.3039
  447MOL0     O60218   1.793   1.298   8.978  0.9020  0.5054  0.2736
  447MOL0     C60219   1.893   1.236   8.902  0.6240  0.3727  0.6437
  447MOL0     C60220   2.019   1.244   8.984  0.2940 -0.1969  0.3216
  447MOL0     C60221   2.043   1.393   9.015  0.1107  0.2389  0.7058
  447MOL0     C60222   2.160   1.416   9.109 -0.3166 -0.2965 -0.5970
  447MOL0     C60223   2.224   1.555   9.089 -0.5571 -0.3814 -0.8007
  447MOL0     C60224   2.321   1.592   9.213 -0.4912 -0.3297 -0.2185
  447MOL0     C60225   2.388   1.727   9.175  0.3580  0.4302 -0.0658
  447MOL0     C60226   2.501   1.759   9.279  0.5321  0.2462 -0.1080
  447MOL0     N60227   2.632   1.700   9.249 -0.2251  0.2060 -0.5537
  447MOL0     C60228   2.664   1.581   9.184 -0.0276 -0.8971 -0.3831
  447MOL0     C60229   2.798   1.582   9.185  0.0521  0.0329 -0.5711
  447MOL0     C60230   2.900   1.470   9.154  0.2649  0.3818 -0.9507
  447MOL0     C60231   3.009   1.499   9.059 -0.6730 -0.4190 -0.1869
  447MOL0     C60232   2.994   1.600   8.949  0.3168  0.0592  0.3342
  447MOL0     C60233   3.097   1.702   8.936 -0.1668 -0.5718 -0.8624
  447MOL0     O60234   3.218   1.650   8.887 -0.9023  0.1612  0.0983
  447MOL0     C60235   3.329   1.731   8.885  0.9493  0.2165 -0.2483
  447MOL0     C60236   3.325   1.870   8.855 -0.1846 -0.3623 -0.5193
  447MOL0     C60237   3.445   1.938   8.840  0.1962  0.0043 -0.0996
  447MOL0     C60238   3.565   1.876   8.864  0.2519 -0.3337  0.1043
  447MOL0     C60239   3.699   1.947   8.846 -0.3935  0.7261 -0.1111
  447MOL0     O60240   3.810   1.865   8.843  0.2834 -0.1751 -1.0495
  447MOL0     C60241   3.932   1.935   8.853 -0.4623  0.2058  0.8658
  447MOL0     C60242   4.033   1.889   8.763  0.6823 -0.7870 -0.2793
  447MOL0     C60243   4.161   1.948   8.773  0.1787 -0.4938 -0.4141
  447MOL0     C60244   4.192   2.043   8.865  1.7070  0.9401  0.0838
  447MOL0     O60245   4.327   2.088   8.868  0.2741 -0.5497 -1.4148
  447MOL0     C60246   4.395   2.132   8.990 -0.7787  0.2989 -0.2021
  447MOL0     C60247   4.477   2.028   9.069 -0.2929  0.7532  0.9232
  447MOL0     C60248   4.381   1.923   9.123 -0.0287 -0.5190  1.0975
  447MOL0     C60249   4.289   1.973   9.245 -0.3959 -0.3861  0.3761
  447MOL0     C60250   4.190   1.858   9.282 -0.0592 -0.0048 -0.4670
  447MOL0     C60251   4.079   1.894   9.380 -0.6295  0.1102 -0.3849
  447MOL0     C60252   3.975   1.985   9.309  0.1247  0.0968 -0.5670
  447MOL0     C60253   3.858   2.018   9.396  0.5924  0.3743 -0.4786
  447MOL0    Cl60254   3.745   2.098   9.289  0.0650 -0.0989  0.7877
  447MOL0     C60255   4.097   2.070   8.965  0.7357  0.0062  0.6230
  447MOL0     C60256   3.962   2.033   8.954  0.3900 -0.1253  1.2259
  447MOL0     O60257   3.698   2.063   8.811  1.0091  0.4204 -0.2488
  447MOL0     C60258   3.567   1.742   8.904 -1.1272 -0.1555 -0.3520
  447MOL0     C60259   3.446   1.669   8.925  0.0546  0.6843 -0.3742
  447MOL0     N60260   2.849   1.695   9.258  0.4614  0.3450 -0.0556
  447MOL0     N60261   2.742   1.770   9.284  0.2905  0.0684 -0.2920
  447MOL0     C60262   1.641   1.297   8.778  0.4237  1.1248  0.8819
  447MOL0     C60263   1.514   1.313   8.720 -0.8239  0.2919 -0.1171
  447MOL0     C60264   1.043   1.229   8.699  0.9672  0.2451  0.4081
  447MOL0     C60265   0.923   1.180   8.754  0.2283  0.1105  0.0937
  447MOL0     C60266   0.794   1.171   8.690  0.0632 -0.2609  0.3334
  447MOL0     C60267   0.780   1.229   8.559 -0.1905 -0.0125 -0.2511
  447MOL0     O60268   0.652   1.241   8.501  0.0304  0.4115 -0.2892
  447MOL0     C60269   0.555   1.129   8.517 -0.5563  0.3788  0.3893
  447MOL0     C60270   0.471   1.167   8.635 -0.5395 -0.0692  1.0295
  447MOL0     C60271   0.406   1.041   8.695  0.1664 -0.6943 -0.0535
  447MOL0     C60272   0.311   1.073   8.820  0.0113  0.5729  0.4672
  447MOL0     C60273   0.383   1.145   8.934  0.6107  0.3656 -0.4272
  447MOL0     C60274   0.431   1.210   9.020  0.1533 -0.1053  0.4192
  447MOL0     C60275   0.901   1.266   8.497  0.2981 -0.4678  0.2899
  447MOL0     C60276   1.026   1.268   8.561  0.2574  0.9749  0.0557
  447MOL0     C60277   1.148   1.304   8.474  0.4241  0.6018  0.9469
  447MOL0     H60278   1.333   1.276   9.003  0.4605  1.4189  0.6090
  447MOL0     H60279   1.556   1.288   9.109 -0.2721  2.0395  0.0781
  447MOL0     H60280   1.866   1.134   8.873 -0.4054  0.8751 -0.2133
  447MOL0     H60281   1.910   1.284   8.806  0.2876 -2.3030 -0.8549
  447MOL0     H60282   2.091   1.194   8.919  2.5145  0.1320  2.3928
  447MOL0     H60283   2.010   1.193   9.080 -0.9778 -1.6290 -0.5152
  447MOL0     H60284   1.967   1.437   9.080  2.8007  1.2306  3.4012
  447MOL0     H60285   2.055   1.456   8.926 -1.6993 -0.8653 -0.3918
  447MOL0     H60286   2.126   1.396   9.212  0.2694  3.6035  0.5296
  447MOL0     H60287   2.234   1.338   9.092  0.4323  0.5132 -1.0885
  447MOL0     H60288   2.285   1.540   9.000  2.4885  1.8529  0.7324
  447MOL0     H60289   2.150   1.633   9.070 -0.0065  0.4844  0.4458
  447MOL0     H60290   2.272   1.605   9.311 -0.9210 -1.4085 -0.2779
  447MOL0     H60291   2.394   1.511   9.220  0.7631  0.1544 -4.7337
  447MOL0     H60292   2.311   1.804   9.173 -0.6984 -0.5999 -1.6211
  447MOL0     H60293   2.426   1.732   9.072  0.6748 -1.6402 -0.1033
  447MOL0     H60294   2.521   1.866   9.271 -0.6309  0.9292  3.8760
  447MOL0     H60295   2.467   1.730   9.379  1.1430 -1.5333 -0.3782
  447MOL0     H60296   2.598   1.507   9.141  0.5432 -2.8579  1.9395
  447MOL0     H60297   2.948   1.443   9.248 -1.9209 -1.2877 -0.2244
  447MOL0     H60298   2.848   1.381   9.118 -0.6094 -1.4598  4.1410
  447MOL0     H60299   3.104   1.530   9.103  0.0093  1.2146 -2.6145
  447MOL0     H60300   3.028   1.400   9.016  1.5416  0.3278 -1.0871
  447MOL0     H60301   2.893   1.639   8.958  0.5951  0.4219  2.5064
  447MOL0     H60302   2.988   1.549   8.852  0.6856  2.2534 -0.9041
  447MOL0     H60303   3.110   1.755   9.032 -3.3679 -1.1850  0.0540
  447MOL0     H60304   3.063   1.773   8.860  0.5951 -0.2832 -0.9388
  447MOL0     H60305   3.229   1.916   8.833 -0.4584 -0.3213  0.6792
  447MOL0     H60306   3.440   2.043   8.812  0.9684  0.3611  1.0573
  447MOL0     H60307   4.017   1.824   8.678  0.4706  1.6906 -2.2318
  447MOL0     H60308   4.220   1.907   8.691 -1.1600 -1.2483 -1.0400
  447MOL0     H60309   4.465   2.209   8.957  1.3714 -1.0229  0.9846
  447MOL0     H60310   4.333   2.194   9.054  1.2805  0.9499  1.2577
  447MOL0     H60311   4.546   1.976   9.002 -0.6456 -1.1073  1.9397
  447MOL0     H60312   4.527   2.078   9.152  1.0771 -0.2060  0.6971
  447MOL0     H60313   4.326   1.871   9.044  2.7931 -0.8127 -0.8296
  447MOL0     H60314   4.443   1.843   9.164  1.6060 -0.5427 -1.1893
  447MOL0     H60315   4.245   2.069   9.214 -0.7015 -0.3061  1.0522
  447MOL0     H60316   4.359   1.996   9.326  0.9064 -0.2509 -0.7565
  447MOL0     H60317   4.246   1.769   9.310  0.0880 -0.4380 -2.0327
  447MOL0     H60318   4.141   1.834   9.187  1.2198  0.3852 -1.2534
  447MOL0     H60319   4.038   1.805   9.429 -1.1482  0.8617  0.5983
  447MOL0     H60320   4.129   1.951   9.460  0.1327 -1.3217  0.1942
  447MOL0     H60321   3.927   1.941   9.221 -4.4209 -0.0885  1.7551
  447MOL0     H60322   4.032   2.073   9.277  1.5732 -0.1158  1.2815
  447MOL0     H60323   3.820   1.922   9.432 -0.1473  0.9105  0.1787
  447MOL0     H60324   3.882   2.077   9.484 -2.9232  1.0942  0.1248
  447MOL0     H60325   4.119   2.142   9.043  1.8316 -0.3212  0.6372
  447MOL0     H60326   3.877   2.063   9.015 -0.3834  1.4514 -0.4951
  447MOL0     H60327   3.662   1.700   8.936 -0.8679 -0.6175 -1.6926
  447MOL0     H60328   3.453   1.565   8.954 -1.0773  0.1614 -1.8407
  447MOL0     H60329   1.724   1.320   8.712 -0.3282  0.9804 -0.1412
  447MOL0     H60330   1.491   1.324   8.614 -0.1243 -2.1261 -0.5846
  447MOL0     H60331   0.925   1.141   8.855  1.7484 -1.7878 -0.5900
  447MOL0     H60332   0.705   1.131   8.737  1.4308 -0.8162  2.5893
  447MOL0     H60333   0.613   1.040   8.542  0.2612  1.2115  1.5861
  447MOL0     H60334   0.499   1.122   8.424 -0.8776 -3.3994  0.7296
  447MOL0     H60335   0.393   1.233   8.595  1.3796  0.1435 -2.8765
  447MOL0     H60336   0.530   1.229   8.703  0.6350  1.3764 -1.1859
  447MOL0     H60337   0.473   0.968   8.742  1.8382  0.9578  0.2542
  447MOL0     H60338   0.361   0.979   8.617  0.6623 -2.4125  0.9614
  447MOL0     H60339   0.229   1.138   8.788  2.5601  2.8256 -2.0074
  447MOL0     H60340   0.272   0.976   8.853 -1.0262  1.5992  2.4597
  447MOL0     H60341   0.463   1.296   9.075 -2.2169  2.7576 -2.2948
  447MOL0     H60342   0.894   1.299   8.394  0.8457 -0.8156  0.1353
  447MOL0     H60343   1.110   1.278   8.375  0.6559  1.1436  0.7155
  447MOL0     H60344   1.162   1.411   8.487 -2.0513  1.2505 -0.9648
  447MOL0     H60345   1.232   1.239   8.500 -0.7673 -0.3625  2.5698
  448MOL0     O60346   2.516   6.809   7.764  0.3554  0.2778  0.3354
  448MOL0     C60347   2.530   6.688   7.749 -0.2129 -0.3574 -0.0175
  448MOL0     O60348   2.641   6.618   7.786  0.2007  0.2765  0.5945
  448MOL0     C60349   2.731   6.678   7.863  0.3139 -0.5886 -1.0783
  448MOL0     C60350   2.862   6.673   7.819 -0.7220 -0.6910 -0.0201
  448MOL0     C60351   2.949   6.765   7.877 -0.2215 -0.8433 -0.0695
  448MOL0     C60352   2.912   6.850   7.992  0.2239 -0.2724  0.6647
  448MOL0     O60353   2.996   6.936   8.059  0.1393 -0.5306  0.2511
  448MOL0     C60354   3.137   6.941   8.038  0.3672  0.0963  0.1052
  448MOL0     C60355   3.186   7.072   8.110 -0.1972  1.0754  0.2567
  448MOL0     C60356   3.337   7.060   8.120  0.4184  0.9330  0.0106
  448MOL0     C60357   3.391   7.182   8.190 -0.3622 -0.8606  1.0067
  448MOL0     C60358   3.545   7.168   8.184  0.1529 -0.2621 -0.4535
  448MOL0     C60359   3.599   7.294   8.231 -0.0558  0.8578  0.0386
  448MOL0     C60360   3.756   7.285   8.196  0.0112  0.5836 -0.4469
  448MOL0     C60361   3.781   7.350   8.068  0.2558 -0.4660  0.7483
  448MOL0     N60362   3.918   7.365   8.037 -0.5496 -0.8639 -0.5789
  448MOL0     C60363   4.018   7.264   8.036  0.9763  0.4118 -0.4042
  448MOL0     C60364   4.133   7.329   8.038  0.7212 -0.0590 -0.4766
  448MOL0     C60365   4.271   7.272   8.030 -0.3881 -0.1019 -0.3650
  448MOL0     C60366   4.325   7.239   8.167  0.5097 -0.1465 -0.5637
  448MOL0     C60367   4.474   7.245   8.196  0.0925  0.1169  1.9175
  448MOL0     C60368   4.547   7.174   8.084 -0.4489 -0.0720  0.6643
  448MOL0     O60369   4.680   7.218   8.112  0.4832 -0.2167 -0.6545
  448MOL0     C60370   4.788   7.183   8.040  0.7325  0.3059 -0.0412
  448MOL0     C60371   4.904   7.242   8.082 -0.9189 -0.3806 -0.5120
  448MOL0     C60372   5.028   7.219   8.023 -0.3870  0.2447  0.6547
  448MOL0     C60373   5.038   7.134   7.914  0.4474  0.5837  0.8170
  448MOL0     C60374   5.170   7.122   7.845  0.5246 -0.2097  0.2473
  448MOL0     O60375   5.283   7.161   7.910 -0.3991 -0.7828  0.1073
  448MOL0     C60376   5.412   7.150   7.870 -0.8455  0.4803  0.5096
  448MOL0     C60377   5.462   7.160   7.744  0.5314 -0.9393  0.0294
  448MOL0     C60378   5.588   7.116   7.712 -0.5162 -0.3527 -0.0001
  448MOL0     C60379   5.683   7.099   7.821  0.0403 -0.6122  0.7996
  448MOL0     O60380   5.818   7.089   7.807 -0.2941 -0.2831 -0.8013
  448MOL0     C60381   5.865   7.028   7.686  0.2655  0.1471  0.2232
  448MOL0     C60382   5.997   6.951   7.716  0.0716  0.2099 -0.2927
  448MOL0     C60383   6.083   6.924   7.594 -0.0624 -0.6777  0.9827
  448MOL0     C60384   6.194   7.032   7.585 -0.3994 -0.0524  0.5333
  448MOL0     C60385   6.299   7.009   7.481 -0.9692 -0.6259 -0.2725
  448MOL0     C60386   6.238   6.982   7.332 -0.3899 -0.4223 -0.2918
  448MOL0     C60387   6.343   6.997   7.216 -0.1099 -0.0148  0.2726
  448MOL0     C60388   6.302   6.967   7.072 -0.7270 -0.5003  0.4870
  448MOL0    Cl60389   6.177   7.082   7.021  0.9137  0.4059  0.4861
  448MOL0     C60390   5.635   7.100   7.950 -0.6633  0.1650  0.9210
  448MOL0     C60391   5.501   7.134   7.976 -0.3685 -0.2360  0.1329
  448MOL0     O60392   5.182   7.053   7.739  1.1053  0.3884  0.3685
  448MOL0     C60393   4.924   7.067   7.868  0.0043 -0.4079  0.8871
  448MOL0     C60394   4.798   7.088   7.934  0.2541  0.4845 -0.0843
  448MOL0     N60395   4.109   7.465   8.026  0.7337 -0.1664  0.6928
  448MOL0     N60396   3.981   7.488   8.027  0.3559 -0.0466  0.4047
  448MOL0     C60397   2.778   6.841   8.041  0.0279 -0.3441 -0.2245
  448MOL0     C60398   2.690   6.745   7.984 -0.4801 -0.7281  0.1782
  448MOL0     C60399   2.410   6.613   7.693  0.2068 -0.1077 -0.2964
  448MOL0     C60400   2.434   6.485   7.645 -0.6714 -0.3680  0.0288
  448MOL0     C60401   2.338   6.407   7.589 -0.0720 -0.4865 -0.3943
  448MOL0     C60402   2.207   6.458   7.581  0.1850 -0.2113  0.1476
  448MOL0     O60403   2.123   6.372   7.520 -0.6217  1.0138  0.4101
  448MOL0     C60404   1.982   6.377   7.554  0.1814  0.5791  0.0860
  448MOL0     C60405   1.906   6.453   7.440 -0.3839  1.2881 -0.2885
  448MOL0     C60406   1.960   6.437   7.302  0.3518  0.3747 -0.0309
  448MOL0     C60407   1.860   6.489   7.199 -0.1130 -0.0414  0.1393
  448MOL0     C60408   1.891   6.439   7.059  0.1801  0.0921  0.4551
  448MOL0     C60409   1.890   6.400   6.947  0.7724  0.9713  1.0266
  448MOL0     C60410   2.180   6.582   7.644 -0.4140  0.6324 -0.1151
  448MOL0     C60411   2.280   6.663   7.701  0.0803 -0.8247 -0.6167
  448MOL0     C60412   2.237   6.779   7.790  0.4439 -0.2980 -0.0523
  448MOL0     H60413   2.892   6.625   7.727  0.7732 -2.2228  1.2014
  448MOL0     H60414   3.051   6.777   7.841  0.0572 -1.7794  0.3804
  448MOL0     H60415   3.188   6.861   8.093 -2.0179  1.1074  4.2289
  448MOL0     H60416   3.157   6.938   7.930  2.5675 -0.7571  0.4682
  448MOL0     H60417   3.149   7.086   8.212  1.3658  1.3626  0.8204
  448MOL0     H60418   3.157   7.159   8.050  2.5401  0.3457 -2.4079
  448MOL0     H60419   3.371   7.051   8.017  0.0297  1.1222 -0.1337
  448MOL0     H60420   3.369   6.971   8.176 -1.7413  1.6610  2.6184
  448MOL0     H60421   3.354   7.271   8.138  2.2449 -0.2610  0.0257
  448MOL0     H60422   3.359   7.177   8.294  0.8798 -1.6424  1.3819
  448MOL0     H60423   3.575   7.088   8.252  0.0504  2.2972  2.8855
  448MOL0     H60424   3.584   7.145   8.085 -0.1480  0.4256 -0.7362
  448MOL0     H60425   3.558   7.381   8.179  0.7301  0.5885 -1.0778
  448MOL0     H60426   3.583   7.309   8.338  1.1991  0.0784  0.3637
  448MOL0     H60427   3.796   7.185   8.179  2.8383  1.5224  0.1362
  448MOL0     H60428   3.820   7.334   8.270  2.0240  0.1025 -1.7943
  448MOL0     H60429   3.755   7.285   7.984 -0.8119  2.3680 -1.2283
  448MOL0     H60430   3.724   7.443   8.067  2.2041  0.8014 -1.2344
  448MOL0     H60431   4.007   7.156   8.034  1.8657  0.2558  1.2670
  448MOL0     H60432   4.276   7.177   7.977 -0.9407 -0.3499  0.0263
  448MOL0     H60433   4.342   7.346   7.990  0.3495  0.8023  2.3787
  448MOL0     H60434   4.284   7.320   8.228 -1.2378  0.0049 -1.8493
  448MOL0     H60435   4.274   7.147   8.196 -0.2358  0.4969  0.2226
  448MOL0     H60436   4.505   7.195   8.288  0.4520 -2.1027  0.6710
  448MOL0     H60437   4.496   7.351   8.208 -1.9591  0.8730 -0.1124
  448MOL0     H60438   4.529   7.204   7.980 -2.7496  1.5605  1.4614
  448MOL0     H60439   4.550   7.065   8.089  5.2639 -0.2028  0.7807
  448MOL0     H60440   4.896   7.308   8.168 -1.8219 -1.5962  0.3640
  448MOL0     H60441   5.123   7.268   8.046  1.5662 -1.9386 -1.9752
  448MOL0     H60442   5.394   7.193   7.666 -1.4028  1.3571  2.4906
  448MOL0     H60443   5.619   7.123   7.609 -1.2299 -2.9199 -0.4610
  448MOL0     H60444   5.803   6.950   7.639  4.1779 -3.1855  0.0064
  448MOL0     H60445   5.892   7.112   7.622 -0.8177  1.7643  1.8037
  448MOL0     H60446   6.062   7.006   7.786  1.5967 -1.9070  0.0649
  448MOL0     H60447   5.972   6.851   7.751 -0.3336 -0.2427 -1.8041
  448MOL0     H60448   6.119   6.821   7.601 -0.0249 -0.7474 -0.1059
  448MOL0     H60449   6.019   6.916   7.506  0.0041 -2.1676  1.0399
  448MOL0     H60450   6.251   7.049   7.677  0.4612  0.9123 -0.1554
  448MOL0     H60451   6.146   7.127   7.560 -0.1752  0.3176  1.4465
  448MOL0     H60452   6.364   6.924   7.502 -2.1354 -1.1190  1.5577
  448MOL0     H60453   6.354   7.104   7.480 -1.5710 -0.2655  0.2595
  448MOL0     H60454   6.187   6.885   7.342  0.6623 -0.8735  1.1335
  448MOL0     H60455   6.165   7.061   7.312  1.5904  1.5874  0.1175
  448MOL0     H60456   6.430   6.936   7.240  1.2976  1.1089 -1.6714
  448MOL0     H60457   6.387   7.097   7.222  2.0419 -0.7554 -1.7337
  448MOL0     H60458   6.392   6.993   7.016 -0.4388 -0.4086  0.9853
  448MOL0     H60459   6.282   6.860   7.063 -1.1389 -0.9861  5.0905
  448MOL0     H60460   5.696   7.069   8.034 -2.2171 -0.0861  1.9797
  448MOL0     H60461   5.471   7.134   8.080  2.8554 -1.3016  1.1615
  448MOL0     H60462   4.938   6.981   7.803 -1.1296  0.1527 -0.1509
  448MOL0     H60463   4.708   7.043   7.892 -0.0492  0.2000  0.8525
  448MOL0     H60464   2.751   6.912   8.120  2.8410  0.6449 -0.0498
  448MOL0     H60465   2.587   6.731   8.015 -1.3246  1.1465 -1.5894
  448MOL0     H60466   2.541   6.463   7.641 -0.2578  1.6771 -2.5268
  448MOL0     H60467   2.359   6.310   7.544  3.7619 -0.5224  1.0989
  448MOL0     H60468   1.966   6.426   7.650 -0.8939  0.1468  0.1405
  448MOL0     H60469   1.950   6.273   7.562  0.8688  0.5326  3.3325
  448MOL0     H60470   1.893   6.559   7.464 -0.6460  0.7539  2.2244
  448MOL0     H60471   1.802   6.417   7.441  0.6572 -2.0098 -0.7526
  448MOL0     H60472   1.974   6.330   7.285  0.3418  0.5543 -1.2218
  448MOL0     H60473   2.049   6.498   7.288  0.5633  0.1900  0.5019
  448MOL0     H60474   1.755   6.471   7.223 -0.7491  2.6628 -0.3307
  448MOL0     H60475   1.875   6.597   7.191 -0.5997 -0.0673 -1.7879
  448MOL0     H60476   1.891   6.346   6.854 -1.4629 -1.4049  2.2535
  448MOL0     H60477   2.078   6.618   7.653  1.0198  5.3850  0.1989
  448MOL0     H60478   2.219   6.862   7.721 -2.0352 -3.1631 -3.1975
  448MOL0     H60479   2.134   6.768   7.825  0.8068 -1.5425  0.6819
  448MOL0     H60480   2.304   6.794   7.875  1.7796  2.1847 -1.4454
  449MOL0     O60481   1.980   7.414   3.619 -0.7353  0.1177  0.5086
  449MOL0     C60482   2.042   7.409   3.730 -0.2893  0.2392  0.3068
  449MOL0     O60483   1.986   7.449   3.853  0.1967 -0.9300 -0.0809
  449MOL0     C60484   1.851   7.435   3.862  0.8959 -0.6390 -0.1158
  449MOL0     C60485   1.771   7.538   3.814 -0.8254 -0.2868  0.1346
  449MOL0     C60486   1.630   7.528   3.836  0.6718  0.3812 -0.3716
  449MOL0     C60487   1.577   7.418   3.899  0.3888  0.4277 -0.3095
  449MOL0     O60488   1.444   7.396   3.907 -0.2647  0.4900 -0.4765
  449MOL0     C60489   1.351   7.486   3.857  0.6221  0.0024 -0.5202
  449MOL0     C60490   1.202   7.432   3.855 -0.8394 -1.0628 -0.4032
  449MOL0     C60491   1.147   7.386   3.989  0.1587 -1.3681 -0.1634
  449MOL0     C60492   0.998   7.366   3.981 -0.5814 -0.1972 -0.5770
  449MOL0     C60493   0.955   7.224   3.972  0.1135 -0.6451 -0.3812
  449MOL0     C60494   0.804   7.201   3.965  0.0999 -0.0702 -0.9181
  449MOL0     C60495   0.727   7.297   3.860 -0.2704  1.1961 -0.0890
  449MOL0     C60496   0.577   7.259   3.872  0.7839  0.4720 -0.0598
  449MOL0     N60497   0.490   7.366   3.815 -0.5128 -1.0481 -0.0599
  449MOL0     C60498   0.479   7.400   3.690  1.6452 -1.3593 -0.0053
  449MOL0     C60499   0.364   7.472   3.689 -0.0317 -0.2862 -0.1907
  449MOL0     C60500   0.295   7.534   3.572  0.3886  0.4179  0.5457
  449MOL0     C60501   0.315   7.678   3.529  0.3079  0.3497 -0.1701
  449MOL0     C60502   0.272   7.688   3.380  0.6711 -0.6372  0.3904
  449MOL0     C60503   0.122   7.689   3.344  0.3836  0.5821 -0.3216
  449MOL0     O60504   0.102   7.729   3.210  0.4657 -0.5869 -0.3202
  449MOL0     C60505   0.109   7.861   3.167  0.1599 -0.5555 -1.4576
  449MOL0     C60506   0.122   7.976   3.250 -0.1939 -0.8402 -0.0966
  449MOL0     C60507   0.079   8.103   3.204 -0.8097 -0.7363  0.8279
  449MOL0     C60508   0.028   8.119   3.072 -0.6475 -0.0366  1.1557
  449MOL0     C60509  -0.005   8.251   3.010  0.6444 -0.3811  0.1578
  449MOL0     O60510  -0.055   8.252   2.889 -0.7912  0.6571  0.2894
  449MOL0     C60511  -0.113   8.354   2.825 -0.2225 -0.4712 -0.1290
  449MOL0     C60512  -0.239   8.352   2.777 -0.4018 -0.0766  0.6754
  449MOL0     C60513  -0.289   8.478   2.722 -0.7242 -0.4174 -0.5222
  449MOL0     C60514  -0.224   8.603   2.722 -0.5711  0.4215  0.1939
  449MOL0     O60515  -0.285   8.715   2.680  0.6255  0.0496  0.2103
  449MOL0     C60516  -0.405   8.767   2.734  0.4574 -0.0809 -0.5965
  449MOL0     C60517  -0.412   8.914   2.705 -1.2946  0.6885 -1.0043
  449MOL0     C60518  -0.365   8.965   2.566  0.0908  0.4681 -0.0156
  449MOL0     C60519  -0.456   8.895   2.458 -0.4202 -0.4314  0.7722
  449MOL0     C60520  -0.432   8.953   2.317 -0.3011 -0.4261  0.3232
  449MOL0     C60521  -0.545   8.932   2.209  0.1779  0.0132 -0.4012
  449MOL0     C60522  -0.495   8.986   2.069  0.4982  0.2398  0.3627
  449MOL0     C60523  -0.619   9.020   1.987  1.4086  0.5367  0.3595
  449MOL0    Cl60524  -0.697   9.175   2.042  0.0767 -0.5277 -0.3497
  449MOL0     C60525  -0.086   8.595   2.762  0.2758 -0.0599  0.3559
  449MOL0     C60526  -0.042   8.473   2.807  0.0203 -0.3826 -0.1894
  449MOL0     O60527   0.012   8.354   3.077  0.3321  0.6317  0.6618
  449MOL0     C60528   0.015   7.999   2.993 -0.0949 -0.9925  0.5529
  449MOL0     C60529   0.069   7.878   3.039  0.5143  0.3540 -1.3995
  449MOL0     N60530   0.310   7.486   3.808 -0.0346 -0.1551  0.4880
  449MOL0     N60531   0.389   7.420   3.890  0.3354  1.0146 -0.0494
  449MOL0     C60532   1.657   7.312   3.959 -0.4962 -0.0565  0.0518
  449MOL0     C60533   1.798   7.323   3.931  0.3704 -0.2248 -0.2191
  449MOL0     C60534   2.191   7.409   3.729 -0.7334 -0.0236  0.7350
  449MOL0     C60535   2.262   7.450   3.847  0.3312 -0.4801 -0.8649
  449MOL0     C60536   2.403   7.441   3.858  0.2679 -0.1681  0.0540
  449MOL0     C60537   2.478   7.403   3.754  0.6240  0.0121 -0.1917
  449MOL0     O60538   2.616   7.413   3.772  0.0345  0.0723 -0.3363
  449MOL0     C60539   2.700   7.415   3.662  0.5479  0.6830  0.3091
  449MOL0     C60540   2.822   7.501   3.682 -0.2911 -1.0418 -0.3389
  449MOL0     C60541   2.791   7.647   3.702 -0.4892  0.5857  0.4538
  449MOL0     C60542   2.902   7.743   3.652  0.4108  0.2031 -0.6899
  449MOL0     C60543   3.038   7.705   3.703 -0.2078  0.8208 -0.0471
  449MOL0     C60544   3.150   7.675   3.745  0.4291 -0.4934  0.4650
  449MOL0     C60545   2.409   7.358   3.638  0.5673 -0.5743  0.5930
  449MOL0     C60546   2.268   7.348   3.623  0.6783  0.0341  0.1064
  449MOL0     C60547   2.213   7.286   3.502  0.2632 -0.1852 -0.2816
  449MOL0     H60548   1.812   7.619   3.755 -1.1278  1.7930  2.5715
  449MOL0     H60549   1.567   7.602   3.788 -1.5149 -1.1707 -0.0309
  449MOL0     H60550   1.355   7.565   3.933 -0.7881 -1.4430  1.1690
  449MOL0     H60551   1.370   7.514   3.753 -2.9802 -2.9155 -2.2060
  449MOL0     H60552   1.211   7.347   3.786  2.8554 -0.2364 -1.1513
  449MOL0     H60553   1.140   7.517   3.825 -0.5650 -0.2925  1.1159
  449MOL0     H60554   1.161   7.473   4.055 -0.7966 -1.4528  0.1709
  449MOL0     H60555   1.204   7.301   4.028  3.0680  0.2640 -0.5580
  449MOL0     H60556   0.962   7.400   4.078  3.1643  1.0864  0.5358
  449MOL0     H60557   0.960   7.427   3.898 -2.3683 -2.0055 -1.1864
  449MOL0     H60558   0.999   7.186   3.879  3.3306 -0.3054  0.8685
  449MOL0     H60559   0.988   7.162   4.056 -1.0008 -0.3790  0.2617
  449MOL0     H60560   0.792   7.094   3.945  0.9248 -0.7636  1.9051
  449MOL0     H60561   0.770   7.230   4.065 -1.4595  0.8036 -1.6493
  449MOL0     H60562   0.759   7.284   3.756  1.4440 -2.5239  0.7460
  449MOL0     H60563   0.738   7.404   3.882  1.0766  1.8175 -3.2899
  449MOL0     H60564   0.570   7.160   3.825  2.6444  0.2043  0.1469
  449MOL0     H60565   0.548   7.246   3.976  4.0502 -1.3752  0.7745
  449MOL0     H60566   0.543   7.374   3.606 -0.5955 -2.8733 -1.3653
  449MOL0     H60567   0.316   7.463   3.492 -4.1484 -1.6544  0.8798
  449MOL0     H60568   0.188   7.515   3.586  0.7504 -1.5877  1.0159
  449MOL0     H60569   0.250   7.736   3.596  0.9218  1.7286 -0.7232
  449MOL0     H60570   0.420   7.703   3.546  0.6279  0.0782 -1.6263
  449MOL0     H60571   0.328   7.617   3.317  2.6471  2.1748 -1.2981
  449MOL0     H60572   0.314   7.786   3.352  0.1871 -0.5199  0.0665
  449MOL0     H60573   0.061   7.744   3.415  0.3589 -0.3028  0.3660
  449MOL0     H60574   0.095   7.583   3.356  0.1777  0.9865  5.8461
  449MOL0     H60575   0.154   7.975   3.354  1.2380 -1.3079 -0.5069
  449MOL0     H60576   0.086   8.194   3.263  0.9987 -0.6409  0.5271
  449MOL0     H60577  -0.288   8.257   2.799  3.4772 -1.9206  2.3286
  449MOL0     H60578  -0.394   8.486   2.698 -0.4081 -0.6362 -2.0461
  449MOL0     H60579  -0.492   8.708   2.701 -0.8090  0.3073  1.8178
  449MOL0     H60580  -0.408   8.751   2.843  0.4937  1.6282 -0.3205
  449MOL0     H60581  -0.514   8.948   2.724 -2.2876 -3.1443  1.8051
  449MOL0     H60582  -0.347   8.966   2.777  2.0944  0.9005 -3.9315
  449MOL0     H60583  -0.380   9.073   2.573  1.4552  0.7968 -1.6363
  449MOL0     H60584  -0.257   8.957   2.550  0.1095 -1.5778  0.8778
  449MOL0     H60585  -0.562   8.914   2.480 -0.3777  2.9425 -1.1539
  449MOL0     H60586  -0.446   8.789   2.436 -2.1194 -0.4185 -0.2574
  449MOL0     H60587  -0.334   8.909   2.293  0.3426  0.8197  0.5297
  449MOL0     H60588  -0.408   9.060   2.310 -2.4348  0.0769 -0.0261
  449MOL0     H60589  -0.575   8.827   2.207  2.5952 -0.7424  0.2670
  449MOL0     H60590  -0.632   8.981   2.254  1.3106  0.5740  1.2784
  449MOL0     H60591  -0.433   8.906   2.028  1.8419  0.5020  1.7611
  449MOL0     H60592  -0.444   9.082   2.083 -1.1761  0.9356  2.0728
  449MOL0     H60593  -0.597   9.021   1.880 -0.7414 -2.7111 -0.2881
  449MOL0     H60594  -0.689   8.936   1.992  0.5629  1.2324  0.4481
  449MOL0     H60595  -0.021   8.681   2.750  0.1185 -0.2325 -2.1821
  449MOL0     H60596   0.064   8.479   2.831 -0.5504  0.1543  2.3747
  449MOL0     H60597  -0.020   7.990   2.891 -2.7634  1.2955  1.1419
  449MOL0     H60598   0.059   7.791   2.975 -1.0732 -0.1854 -0.4749
  449MOL0     H60599   1.628   7.226   4.019  1.1762  0.6128  1.9117
  449MOL0     H60600   1.860   7.247   3.978  0.9000 -1.5295 -2.8127
  449MOL0     H60601   2.218   7.489   3.939  0.6871  2.0262 -1.6917
  449MOL0     H60602   2.453   7.464   3.952 -2.1585 -0.9275  1.6384
  449MOL0     H60603   2.644   7.430   3.568 -1.8447  1.4925  1.7742
  449MOL0     H60604   2.753   7.320   3.650 -1.5995 -0.4171 -1.1850
  449MOL0     H60605   2.889   7.475   3.599 -2.0761 -4.4025 -0.9086
  449MOL0     H60606   2.881   7.467   3.768 -2.8652 -2.6278  0.8981
  449MOL0     H60607   2.786   7.667   3.809 -2.2384  0.7009  0.3843
  449MOL0     H60608   2.697   7.674   3.653 -0.5698 -0.9812 -0.3173
  449MOL0     H60609   2.906   7.719   3.546  2.1343 -3.1063 -0.0219
  449MOL0     H60610   2.875   7.847   3.670 -0.5204  0.3932 -2.9165
  449MOL0     H60611   3.241   7.653   3.797  0.0221  1.7713  2.2795
  449MOL0     H60612   2.467   7.307   3.562  3.0115  2.7252 -0.0019
  449MOL0     H60613   2.288   7.256   3.428 -0.0881 -1.4399 -0.1481
  449MOL0     H60614   2.159   7.198   3.537  3.1084 -2.9486 -2.2759
  449MOL0     H60615   2.143   7.348   3.444  0.4633  2.0568  1.7227
  450MOL0     O60616   3.137   6.931   0.648  0.4686  0.3230 -0.1409
  450MOL0     C60617   3.088   6.987   0.745  1.1676 -0.0225  0.5079
  450MOL0     O60618   3.089   7.121   0.765  0.4749 -0.5164  0.0531
  450MOL0     C60619   3.175   7.194   0.690  1.1596  0.1179 -0.1364
  450MOL0     C60620   3.277   7.263   0.757 -0.0021  0.2953 -0.4336
  450MOL0     C60621   3.364   7.342   0.691  1.3747 -0.2838  0.3599
  450MOL0     C60622   3.354   7.360   0.550  1.0145  0.0774 -0.5814
  450MOL0     O60623   3.437   7.436   0.466  0.2272 -0.3312 -0.4978
  450MOL0     C60624   3.545   7.512   0.515  0.1877 -0.0669 -0.6424
  450MOL0     C60625   3.628   7.581   0.403  0.5371  1.0347 -0.8283
  450MOL0     C60626   3.763   7.614   0.458  0.9560  1.4683 -0.7529
  450MOL0     C60627   3.843   7.678   0.345 -0.1284 -0.2442 -0.4278
  450MOL0     C60628   3.984   7.732   0.385 -0.6875  0.2625 -0.0731
  450MOL0     C60629   4.058   7.774   0.258  0.7075  0.4336  0.4771
  450MOL0     C60630   4.206   7.801   0.292  0.0216 -0.3898 -0.2820
  450MOL0     C60631   4.301   7.681   0.315 -0.9328  0.3321 -0.6122
  450MOL0     N60632   4.452   7.700   0.293 -0.4131 -1.4215 -0.1067
  450MOL0     C60633   4.525   7.772   0.387 -0.7328  0.5641  1.3043
  450MOL0     C60634   4.652   7.761   0.333 -0.6141 -0.3582  0.2049
  450MOL0     C60635   4.770   7.821   0.401 -0.6455 -0.6354  0.1391
  450MOL0     C60636   4.901   7.745   0.354 -0.7163  0.1864 -0.7506
  450MOL0     C60637   4.980   7.820   0.233  0.4790  0.4641  0.1023
  450MOL0     C60638   5.086   7.738   0.165  0.6357  0.3770  0.0127
  450MOL0     O60639   5.178   7.823   0.096 -0.5006 -0.6639  0.5971
  450MOL0     C60640   5.232   7.766  -0.015 -0.4021 -0.8761  0.3026
  450MOL0     C60641   5.163   7.766  -0.128 -0.4856 -0.2697 -0.5358
  450MOL0     C60642   5.216   7.703  -0.237 -0.2509  0.5336 -0.3465
  450MOL0     C60643   5.334   7.628  -0.223 -0.9791 -0.0424 -0.4721
  450MOL0     C60644   5.366   7.525  -0.330  0.8773 -0.4154 -0.6669
  450MOL0     O60645   5.273   7.522  -0.433 -0.3573  0.3394 -0.0122
  450MOL0     C60646   5.310   7.455  -0.548 -0.2643 -0.0777  0.5775
  450MOL0     C60647   5.221   7.359  -0.600  1.2729 -0.5943  0.7952
  450MOL0     C60648   5.244   7.310  -0.729 -0.2886  1.0090 -0.0021
  450MOL0     C60649   5.353   7.354  -0.812  0.3325  0.9125 -0.3794
  450MOL0     O60650   5.380   7.314  -0.941 -1.0794 -0.0669  0.2222
  450MOL0     C60651   5.329   7.182  -0.973 -0.1120  0.3295 -0.1789
  450MOL0     C60652   5.396   7.069  -0.890 -0.9330 -0.1344 -0.1301
  450MOL0     C60653   5.549   7.073  -0.908 -0.3264 -0.3274 -0.1976
  450MOL0     C60654   5.618   6.989  -0.793 -0.7151  0.3417 -0.6281
  450MOL0     C60655   5.761   6.957  -0.841 -0.5010  0.4394 -0.2196
  450MOL0     C60656   5.833   7.085  -0.877  0.5909 -0.0033  0.1518
  450MOL0     C60657   5.980   7.074  -0.841 -0.1706 -0.0088  0.1709
  450MOL0     C60658   6.066   7.193  -0.898  0.7833 -0.4279 -0.2439
  450MOL0    Cl60659   6.008   7.361  -0.860  0.3089 -0.2960  0.0555
  450MOL0     C60660   5.440   7.446  -0.751  0.1738  0.4129  0.0798
  450MOL0     C60661   5.423   7.490  -0.621 -0.4810 -0.1102 -0.0063
  450MOL0     O60662   5.464   7.443  -0.320 -0.2000  0.3294 -0.3956
  450MOL0     C60663   5.404   7.621  -0.108 -0.7067  0.1162  0.0624
  450MOL0     C60664   5.357   7.697   0.004 -0.3833  0.3652  0.2101
  450MOL0     N60665   4.648   7.691   0.208 -0.0170  0.5179 -0.1152
  450MOL0     N60666   4.525   7.646   0.188 -0.6936 -0.5119 -0.4165
  450MOL0     C60667   3.252   7.292   0.481 -0.1400  0.3762 -1.1513
  450MOL0     C60668   3.162   7.209   0.549 -0.9172  0.3815 -0.4547
  450MOL0     C60669   3.011   6.909   0.847  0.5190 -0.1991 -1.1492
  450MOL0     C60670   2.968   6.977   0.960 -0.1780 -0.1377 -0.3390
  450MOL0     C60671   2.914   6.914   1.070  0.5485  0.2299 -0.1151
  450MOL0     C60672   2.879   6.775   1.059  0.0120 -0.3491  0.7287
  450MOL0     O60673   2.802   6.711   1.155  0.7320  0.0435 -0.1953
  450MOL0     C60674   2.755   6.579   1.133 -0.3320  0.2431  0.4036
  450MOL0     C60675   2.646   6.570   1.241 -0.5320  0.1141 -0.0950
  450MOL0     C60676   2.579   6.447   1.245 -0.1761  0.2538  0.1901
  450MOL0     C60677   2.667   6.327   1.295 -0.5636 -0.0777  0.8647
  450MOL0     C60678   2.582   6.213   1.316  0.2594 -0.2578  0.8619
  450MOL0     C60679   2.503   6.125   1.349  0.7665 -0.0211  0.3755
  450MOL0     C60680   2.924   6.705   0.952 -0.3486 -0.0370  0.3676
  450MOL0     C60681   2.987   6.771   0.842  0.4366 -0.4195 -0.3508
  450MOL0     C60682   3.017   6.686   0.723 -0.4171  1.2101 -0.1999
  450MOL0     H60683   3.296   7.245   0.863 -1.1696 -1.4390 -0.4792
  450MOL0     H60684   3.451   7.390   0.734 -0.0085  2.3012  0.4476
  450MOL0     H60685   3.523   7.585   0.593 -0.5029  0.2193 -1.0948
  450MOL0     H60686   3.610   7.441   0.567 -0.7855 -0.2911  0.2903
  450MOL0     H60687   3.592   7.673   0.355 -1.0234 -0.2727 -2.3378
  450MOL0     H60688   3.633   7.502   0.328 -1.1308  0.3683 -0.2757
  450MOL0     H60689   3.813   7.520   0.482 -1.4080  0.1069 -0.9796
  450MOL0     H60690   3.747   7.669   0.552 -4.7669 -1.6759  0.5453
  450MOL0     H60691   3.857   7.606   0.264  0.3429 -0.9098  0.2431
  450MOL0     H60692   3.782   7.760   0.304 -0.2101  0.1452  0.4460
  450MOL0     H60693   3.962   7.819   0.447  3.1232 -0.4499  2.6125
  450MOL0     H60694   4.046   7.663   0.443 -0.6815 -1.4484 -1.9692
  450MOL0     H60695   4.061   7.688   0.190  0.8704  0.9412 -0.1712
  450MOL0     H60696   4.004   7.851   0.203 -0.6088  0.6710  2.0365
  450MOL0     H60697   4.220   7.853   0.387  2.1443 -3.4691  1.2323
  450MOL0     H60698   4.242   7.859   0.206 -0.2180 -1.9651 -1.4949
  450MOL0     H60699   4.278   7.654   0.418 -2.2738 -2.6110 -1.5713
  450MOL0     H60700   4.282   7.594   0.251  0.5771 -1.7604  1.5894
  450MOL0     H60701   4.486   7.827   0.472 -1.2231  0.3879  1.1989
  450MOL0     H60702   4.766   7.922   0.360 -2.0601 -0.0175  1.6924
  450MOL0     H60703   4.761   7.832   0.510 -0.1779 -1.0347  0.2239
  450MOL0     H60704   4.977   7.730   0.432 -2.1413  0.8457  0.8221
  450MOL0     H60705   4.873   7.647   0.315  0.8462 -0.9619  0.8285
  450MOL0     H60706   5.027   7.908   0.278 -0.5118  1.1191 -0.1225
  450MOL0     H60707   4.915   7.846   0.150  0.8369  1.3421  0.0866
  450MOL0     H60708   5.032   7.677   0.092 -3.4133  5.3074 -1.7498
  450MOL0     H60709   5.141   7.677   0.237 -2.8875 -2.2581  0.7612
  450MOL0     H60710   5.067   7.816  -0.129  0.3373  1.4642  0.9473
  450MOL0     H60711   5.174   7.724  -0.335  1.7995  1.3610 -1.1117
  450MOL0     H60712   5.133   7.338  -0.539  0.7386  2.4710  1.2767
  450MOL0     H60713   5.192   7.217  -0.751 -0.4561  0.6931  1.6250
  450MOL0     H60714   5.220   7.185  -0.965 -0.4333 -2.0334 -2.3252
  450MOL0     H60715   5.349   7.178  -1.080 -1.8366  2.4057 -0.6311
  450MOL0     H60716   5.379   7.084  -0.783  1.7859 -1.0958  0.5145
  450MOL0     H60717   5.344   6.974  -0.902  0.2544 -0.9821  1.0919
  450MOL0     H60718   5.564   7.026  -1.006 -5.4960  0.2070 -1.5242
  450MOL0     H60719   5.576   7.178  -0.917 -1.5727 -0.1548 -2.9772
  450MOL0     H60720   5.565   6.896  -0.769 -0.1335  0.1671 -0.0115
  450MOL0     H60721   5.613   7.044  -0.699 -0.4426 -0.0292 -0.3976
  450MOL0     H60722   5.751   6.889  -0.926 -2.7400  1.9717 -1.3016
  450MOL0     H60723   5.809   6.907  -0.756  1.6927  1.6345 -0.6770
  450MOL0     H60724   5.811   7.118  -0.979 -1.2364  0.0346  0.5258
  450MOL0     H60725   5.778   7.165  -0.826  2.2089  2.7863 -2.1606
  450MOL0     H60726   6.008   6.984  -0.896 -1.0356  1.2814 -2.5385
  450MOL0     H60727   5.993   7.069  -0.732 -0.0072  1.4888  0.2465
  450MOL0     H60728   6.166   7.186  -0.856  0.0093  0.2840  1.8862
  450MOL0     H60729   6.074   7.191  -1.007  3.4519  2.3679 -0.2360
  450MOL0     H60730   5.515   7.489  -0.818 -0.7110 -0.1534 -1.3068
  450MOL0     H60731   5.491   7.571  -0.597  0.2045  0.2404 -2.7596
  450MOL0     H60732   5.495   7.562  -0.094  0.4376  1.9105  0.5503
  450MOL0     H60733   5.407   7.675   0.098  2.5044  1.2301 -1.0194
  450MOL0     H60734   3.234   7.284   0.375 -1.7999 -2.5056 -0.7588
  450MOL0     H60735   3.088   7.152   0.494 -0.1213 -1.7314  0.5239
  450MOL0     H60736   2.967   7.085   0.959  0.6753  0.0429  3.2051
  450MOL0     H60737   2.875   6.975   1.151 -2.5039 -0.9299 -0.5901
  450MOL0     H60738   2.827   6.497   1.142 -1.0424 -0.2856  1.4196
  450MOL0     H60739   2.706   6.571   1.036  2.9888 -3.3532 -1.2645
  450MOL0     H60740   2.567   6.646   1.241 -0.6902  0.0026  1.9131
  450MOL0     H60741   2.697   6.590   1.335  0.6361  2.0380 -1.0585
  450MOL0     H60742   2.544   6.417   1.145  1.4406 -3.1861  0.5167
  450MOL0     H60743   2.496   6.449   1.317  0.3860 -1.3732  0.9286
  450MOL0     H60744   2.746   6.293   1.227  0.5694  0.8313  1.6890
  450MOL0     H60745   2.716   6.358   1.387  1.0515 -1.2149  0.4322
  450MOL0     H60746   2.446   6.039   1.377 -0.3317  1.1046  1.6673
  450MOL0     H60747   2.901   6.600   0.938 -1.3734 -0.1893  2.7234
  450MOL0     H60748   2.998   6.582   0.750  0.2751  0.9871 -0.5417
  450MOL0     H60749   2.943   6.724   0.651 -1.7569  3.3881  2.1481
  450MOL0     H60750   3.120   6.704   0.692 -1.0032  5.8088 -0.1594
  451MOL0     O60751   9.299   9.406   6.983 -0.0936 -0.7270 -0.0431
  451MOL0     C60752   9.342   9.378   6.865  0.6043 -1.0779 -0.3158
  451MOL0     O60753   9.472   9.378   6.830  0.0537  0.5684 -0.1489
  451MOL0     C60754   9.558   9.460   6.893  0.6188 -0.7686  0.0830
  451MOL0     C60755   9.551   9.591   6.846 -0.8984 -0.1992  0.1241
  451MOL0     C60756   9.642   9.683   6.900 -0.3396 -0.1274 -0.5034
  451MOL0     C60757   9.737   9.655   7.000 -0.1580 -0.1501 -0.1735
  451MOL0     O60758   9.833   9.734   7.065 -0.5901  0.0392  1.3210
  451MOL0     C60759   9.832   9.882   7.046  0.1528  0.7281  0.0111
  451MOL0     C60760   9.941   9.918   6.952 -0.2873 -0.1273 -0.4362
  451MOL0     C60761  10.088   9.881   7.004  0.4461  0.1103  0.3922
  451MOL0     C60762  10.124   9.986   7.112 -0.6564 -0.6264 -0.0604
  451MOL0     C60763  10.153  10.124   7.061  0.0676 -0.5009  0.0006
  451MOL0     C60764  10.245  10.194   7.164  0.2393 -0.7550 -0.4819
  451MOL0     C60765  10.386  10.139   7.156 -0.1509 -0.2642  0.1627
  451MOL0     C60766  10.488  10.248   7.203 -0.2847  1.2246  0.9716
  451MOL0     N60767  10.438  10.319   7.326 -0.3100 -0.5837 -0.3176
  451MOL0     C60768  10.477  10.289   7.447 -1.0208 -0.1472  0.0282
  451MOL0     C60769  10.431  10.387   7.524  0.3852  0.5500 -0.1742
  451MOL0     C60770  10.453  10.408   7.675 -0.0902 -0.1837 -0.0455
  451MOL0     C60771  10.324  10.354   7.747  0.0427  0.3019  0.3393
  451MOL0     C60772  10.318  10.424   7.880 -0.3509 -0.5691  0.1187
  451MOL0     C60773  10.188  10.410   7.956 -0.5737  0.8466  0.1989
  451MOL0     O60774  10.169  10.273   7.999  0.6072 -0.7119 -0.2235
  451MOL0     C60775  10.110  10.178   7.913 -0.2674 -0.4646 -0.0202
  451MOL0     C60776  10.019  10.208   7.806 -0.1769  0.3004  0.0780
  451MOL0     C60777   9.973  10.103   7.729  0.5091 -0.3634  0.4423
  451MOL0     C60778  10.005   9.968   7.749 -0.1772  0.5491 -0.6614
  451MOL0     C60779   9.970   9.862   7.652  0.2501  0.0748  0.5801
  451MOL0     O60780   9.873   9.888   7.568  0.5029  0.4782  0.1284
  451MOL0     C60781   9.788   9.788   7.521 -0.9767 -0.1886  0.5044
  451MOL0     C60782   9.740   9.782   7.386 -0.2830 -0.4003  1.2648
  451MOL0     C60783   9.654   9.690   7.337 -1.0180  0.4595 -0.0089
  451MOL0     C60784   9.607   9.595   7.421  0.0771  0.4207 -0.2699
  451MOL0     O60785   9.505   9.505   7.389  0.0361 -0.4773  0.9244
  451MOL0     C60786   9.435   9.531   7.260 -0.0173  0.1853  0.4836
  451MOL0     C60787   9.326   9.631   7.286  0.5127 -0.4923  0.2839
  451MOL0     C60788   9.211   9.565   7.347  0.3055 -0.6558 -0.8672
  451MOL0     C60789   9.115   9.501   7.251 -1.3037  0.4221  0.6844
  451MOL0     C60790   8.981   9.454   7.314 -0.0640 -0.0274  0.2553
  451MOL0     C60791   8.898   9.362   7.234  0.6237  0.1206  0.0933
  451MOL0     C60792   8.756   9.338   7.307  0.4441 -1.1281  0.4077
  451MOL0     C60793   8.657   9.452   7.308  0.2559  0.3480 -0.6249
  451MOL0    Cl60794   8.606   9.484   7.136 -0.3246  0.4079 -0.5007
  451MOL0     C60795   9.653   9.585   7.555  0.0576  0.4532  0.1081
  451MOL0     C60796   9.748   9.681   7.596  0.3560 -0.2065  0.6767
  451MOL0     O60797  10.034   9.754   7.644  0.1026 -0.1595 -0.4945
  451MOL0     C60798  10.091   9.939   7.855 -0.2957  0.0022  0.4386
  451MOL0     C60799  10.139  10.046   7.934 -0.1549  1.1908  0.2794
  451MOL0     N60800  10.337  10.462   7.450  0.5884 -0.1706 -0.2535
  451MOL0     N60801  10.343  10.419   7.333 -0.5182  0.3163 -0.4272
  451MOL0     C60802   9.739   9.515   7.044  0.2317 -0.5297 -0.3664
  451MOL0     C60803   9.655   9.426   6.987 -0.3870  0.0245 -1.0236
  451MOL0     C60804   9.243   9.338   6.761 -0.5954  1.8585  0.6399
  451MOL0     C60805   9.294   9.267   6.652  0.2122 -0.0102 -0.0680
  451MOL0     C60806   9.211   9.231   6.541 -0.0176  0.2523  0.5416
  451MOL0     C60807   9.081   9.271   6.526  1.0958 -0.0463  0.3016
  451MOL0     O60808   9.000   9.251   6.420  0.1998  0.6567 -1.0443
  451MOL0     C60809   9.025   9.122   6.349 -0.3278  0.5892 -0.4995
  451MOL0     C60810   9.000   8.999   6.430 -0.4909  0.6404  0.0154
  451MOL0     C60811   8.859   8.951   6.427 -0.2963  0.3524  0.3385
  451MOL0     C60812   8.791   8.941   6.287 -0.7260  0.8579  0.3624
  451MOL0     C60813   8.864   8.841   6.199 -0.2916 -0.7281 -0.6544
  451MOL0     C60814   8.910   8.759   6.130  1.2461 -0.4046 -0.1437
  451MOL0     C60815   9.036   9.357   6.633  0.0597 -0.0067  0.8839
  451MOL0     C60816   9.115   9.387   6.751  0.1777 -0.2209 -0.1766
  451MOL0     C60817   9.062   9.493   6.837 -0.8338  0.2166  0.1007
  451MOL0     H60818   9.475   9.642   6.788 -0.0844 -2.5923 -3.3602
  451MOL0     H60819   9.636   9.784   6.859 -1.1439  1.7015  3.5932
  451MOL0     H60820   9.737   9.917   7.005 -0.0418  1.1579  0.8131
  451MOL0     H60821   9.848   9.921   7.147 -1.7457  1.1322  0.1837
  451MOL0     H60822   9.940  10.026   6.934 -1.7934  0.3885  2.2645
  451MOL0     H60823   9.918   9.859   6.863  1.0985  1.6737 -2.0833
  451MOL0     H60824  10.153   9.905   6.919  0.3240 -0.2417  0.2017
  451MOL0     H60825  10.096   9.777   7.036  1.6796  0.8238  2.6638
  451MOL0     H60826  10.042   9.989   7.185 -0.6099 -3.0161  0.1675
  451MOL0     H60827  10.207   9.934   7.162 -0.5740 -0.2429  0.2056
  451MOL0     H60828  10.196  10.135   6.961  0.1618 -0.7505  0.0115
  451MOL0     H60829  10.050  10.160   7.061 -0.1829 -1.1602  1.2739
  451MOL0     H60830  10.243  10.302   7.144  1.3966 -0.8209 -1.0611
  451MOL0     H60831  10.207  10.184   7.266  3.1528 -1.4631  0.6300
  451MOL0     H60832  10.407  10.101   7.055 -1.8830  0.6397 -0.5849
  451MOL0     H60833  10.390  10.057   7.228 -2.8662 -0.6093  0.0156
  451MOL0     H60834  10.580  10.189   7.207 -1.5602 -0.8389  3.9914
  451MOL0     H60835  10.496  10.316   7.118 -1.7089  0.0542 -0.1535
  451MOL0     H60836  10.549  10.212   7.474 -0.3236  0.6175  0.3671
  451MOL0     H60837  10.541  10.355   7.712 -1.0563 -3.0083 -1.5412
  451MOL0     H60838  10.464  10.516   7.685 -2.7952  0.1283  0.3924
  451MOL0     H60839  10.231  10.370   7.692 -0.2633  1.8316  1.2504
  451MOL0     H60840  10.333  10.246   7.759 -3.0500 -0.4109 -2.3227
  451MOL0     H60841  10.350  10.528   7.866 -3.2791  0.4825  0.4210
  451MOL0     H60842  10.393  10.386   7.951 -0.5269 -2.7008 -0.7684
  451MOL0     H60843  10.114  10.465   7.897  1.8051  1.2921 -2.5423
  451MOL0     H60844  10.192  10.464   8.052  0.3854 -0.4978  0.9506
  451MOL0     H60845   9.992  10.308   7.774 -2.0113 -0.7243 -1.7864
  451MOL0     H60846   9.917  10.138   7.643 -0.3837  2.8837  2.1659
  451MOL0     H60847   9.778   9.868   7.332 -2.1567  1.3894  2.6419
  451MOL0     H60848   9.631   9.691   7.231 -0.7199 -2.2303 -0.1841
  451MOL0     H60849   9.504   9.563   7.181  0.9729  0.9472  1.6154
  451MOL0     H60850   9.402   9.428   7.242 -1.9886  1.3427 -3.5425
  451MOL0     H60851   9.385   9.713   7.329  0.8512 -0.5186 -0.1302
  451MOL0     H60852   9.291   9.664   7.188  0.9965  0.6542  0.4780
  451MOL0     H60853   9.238   9.495   7.426  1.2722  1.0330  0.3732
  451MOL0     H60854   9.158   9.640   7.407  0.0160 -2.4041  1.1677
  451MOL0     H60855   9.157   9.416   7.197 -0.7476  2.5403 -2.5127
  451MOL0     H60856   9.100   9.571   7.168  1.4329  0.0229 -0.2483
  451MOL0     H60857   8.926   9.545   7.341 -1.3687 -0.8580  0.4923
  451MOL0     H60858   9.008   9.396   7.403 -1.5752  0.9636  1.4100
  451MOL0     H60859   8.892   9.408   7.135  2.7489  0.7979  0.2244
  451MOL0     H60860   8.957   9.270   7.226 -0.5213 -0.7416  1.1643
  451MOL0     H60861   8.774   9.319   7.414  1.5256 -1.6700  0.1450
  451MOL0     H60862   8.712   9.249   7.261  1.6409 -1.7341  0.4011
  451MOL0     H60863   8.565   9.423   7.359 -1.8592  2.6941 -2.8472
  451MOL0     H60864   8.691   9.548   7.349 -2.8004  1.4893 -0.5021
  451MOL0     H60865   9.623   9.515   7.633 -0.5720  1.2638  0.6132
  451MOL0     H60866   9.786   9.659   7.695  0.7288 -1.1658  0.3372
  451MOL0     H60867  10.123   9.837   7.874  0.9506  0.2323 -0.2962
  451MOL0     H60868  10.218  10.017   8.003  0.9220  1.5077 -0.7872
  451MOL0     H60869   9.806   9.498   7.127 -1.4053  0.4146  1.2126
  451MOL0     H60870   9.678   9.323   7.014  1.4769  0.4643 -0.8090
  451MOL0     H60871   9.398   9.238   6.651  0.2888 -0.1479  3.1345
  451MOL0     H60872   9.260   9.172   6.464 -0.5899  2.1036 -1.3265
  451MOL0     H60873   9.131   9.128   6.324  0.6039 -2.8597  1.9814
  451MOL0     H60874   8.972   9.120   6.253 -1.5525  0.7984  0.1445
  451MOL0     H60875   9.041   9.004   6.532  2.1956  0.9563 -1.0039
  451MOL0     H60876   9.058   8.921   6.381  1.2165  3.4676 -2.8297
  451MOL0     H60877   8.805   9.021   6.491  0.4144  2.7338 -1.5241
  451MOL0     H60878   8.866   8.849   6.466 -0.9103 -0.3351 -1.2655
  451MOL0     H60879   8.688   8.904   6.297 -0.2516 -0.1344  1.7772
  451MOL0     H60880   8.775   9.038   6.239  0.2598  0.5578 -0.6103
  451MOL0     H60881   8.964   8.684   6.076 -0.0632 -1.2939 -0.2694
  451MOL0     H60882   8.933   9.390   6.621  0.2957  0.1623 -0.9226
  451MOL0     H60883   9.085   9.483   6.944 -0.5797 -1.1199 -0.0671
  451MOL0     H60884   9.078   9.595   6.801  1.4556  0.2944  1.1946
  451MOL0     H60885   8.954   9.477   6.831 -0.9475  0.4575  1.2306
  452MOL0     O60886  10.823   7.167   9.214  0.3603  0.2517 -0.1656
  452MOL0     C60887  10.887   7.138   9.117 -0.4933  0.2484 -0.2402
  452MOL0     O60888  11.022   7.112   9.116  0.1894  0.0103  0.5183
  452MOL0     C60889  11.092   7.150   9.224 -0.9427 -0.5846  0.2079
  452MOL0     C60890  11.090   7.282   9.277  0.7820 -0.2846 -0.0082
  452MOL0     C60891  11.157   7.319   9.388  0.8113 -0.4593 -0.2727
  452MOL0     C60892  11.240   7.227   9.458 -0.2945  0.2374 -0.1561
  452MOL0     O60893  11.290   7.254   9.580  0.2777  0.5170  0.3559
  452MOL0     C60894  11.416   7.181   9.620  0.0738 -0.2339 -0.2763
  452MOL0     C60895  11.490   7.273   9.718  0.4713  0.0821  0.2427
  452MOL0     C60896  11.600   7.189   9.788  1.3946  0.2616 -0.4973
  452MOL0     C60897  11.638   7.265   9.906  0.3105  0.7195 -0.0772
  452MOL0     C60898  11.773   7.212   9.973 -1.0172  0.5847  0.7084
  452MOL0     C60899  11.902   7.248   9.903 -0.4435  0.1818 -0.0574
  452MOL0     C60900  12.019   7.211   9.987 -0.1637 -0.1319 -0.0930
  452MOL0     C60901  12.084   7.077   9.930 -0.0944  0.4893 -0.1739
  452MOL0     N60902  12.158   7.014  10.033  0.2119  0.1308  0.0396
  452MOL0     C60903  12.290   7.023  10.061 -0.4429  0.2483  0.8037
  452MOL0     C60904  12.317   6.946  10.158 -0.1005  0.0862  0.0753
  452MOL0     C60905  12.453   6.935  10.228 -0.0817 -0.5206  0.0383
  452MOL0     C60906  12.532   7.069  10.248  0.7882  0.3305 -1.0175
  452MOL0     C60907  12.669   7.015  10.313  0.2538  1.1516 -0.7163
  452MOL0     C60908  12.758   7.128  10.344 -0.6551 -0.2099 -0.2600
  452MOL0     O60909  12.833   7.181  10.234 -0.7761  0.3193 -0.7094
  452MOL0     C60910  12.895   7.302  10.255 -0.8047 -0.5112  0.0777
  452MOL0     C60911  12.961   7.337  10.368 -0.4211 -0.0792 -1.0607
  452MOL0     C60912  13.048   7.450  10.377 -0.7079 -0.3578 -0.4355
  452MOL0     C60913  13.084   7.523  10.259  0.1238 -0.2956 -1.1355
  452MOL0     C60914  13.184   7.631  10.265  0.6488  0.0241  0.2465
  452MOL0     O60915  13.212   7.697  10.147  0.5254  0.5771 -0.7867
  452MOL0     C60916  13.336   7.754  10.133  0.6007 -0.7811 -0.0380
  452MOL0     C60917  13.453   7.716  10.204 -0.7830  0.3709  0.7963
  452MOL0     C60918  13.569   7.783  10.195 -0.6699 -0.1140  0.2882
  452MOL0     C60919  13.576   7.892  10.115 -0.7724 -0.5236  1.1721
  452MOL0     O60920  13.695   7.961  10.097 -0.6368  0.2457 -0.6039
  452MOL0     C60921  13.814   7.916  10.169  0.5290  0.6261  0.4455
  452MOL0     C60922  13.941   8.000  10.115 -0.2953  0.3560  0.0236
  452MOL0     C60923  13.986   7.953   9.976  0.7463  0.4418  0.0657
  452MOL0     C60924  13.937   8.042   9.853  0.3818  0.1775 -0.3532
  452MOL0     C60925  13.965   7.985   9.712  0.1560 -0.3786 -0.8593
  452MOL0     C60926  13.856   8.027   9.616  0.2339  0.8356  0.9053
  452MOL0     C60927  13.870   7.943   9.490 -0.3671 -0.1395  0.8078
  452MOL0     C60928  14.001   7.972   9.410 -0.2216 -0.2020  0.2805
  452MOL0    Cl60929  14.000   7.889   9.249  0.1428  0.0727  0.1747
  452MOL0     C60930  13.469   7.932  10.036 -0.6981 -0.0593 -0.1565
  452MOL0     C60931  13.345   7.862  10.054  0.1440  0.6436  0.0566
  452MOL0     O60932  13.241   7.647  10.376 -0.0250 -0.8225 -0.4051
  452MOL0     C60933  13.012   7.487  10.138 -0.5802  0.5318 -0.4695
  452MOL0     C60934  12.928   7.377  10.137 -0.4164  1.1701 -0.0230
  452MOL0     N60935  12.191   6.894  10.199  0.1577  0.5004 -0.6890
  452MOL0     N60936  12.096   6.929  10.121  0.2381  0.0143  0.4401
  452MOL0     C60937  11.265   7.101   9.392 -0.7150  0.3900  0.0997
  452MOL0     C60938  11.191   7.065   9.275  0.6944 -0.5851  1.3022
  452MOL0     C60939  10.809   7.111   8.990 -0.0900 -0.2165 -0.0697
  452MOL0     C60940  10.857   7.017   8.911 -0.2391  0.2048  1.5677
  452MOL0     C60941  10.790   6.969   8.789 -1.0238  0.2611 -0.5307
  452MOL0     C60942  10.673   7.030   8.750 -0.0336 -0.2488  0.5984
  452MOL0     O60943  10.612   6.992   8.628  0.2217  0.4725 -0.0993
  452MOL0     C60944  10.491   6.922   8.636 -0.4854  0.6717 -0.1537
  452MOL0     C60945  10.378   6.987   8.569  0.8327 -0.4596  0.4885
  452MOL0     C60946  10.255   6.890   8.546  0.1768  0.7355  0.0192
  452MOL0     C60947  10.159   6.886   8.661 -0.2309 -0.3981  0.9505
  452MOL0     C60948  10.062   6.778   8.654 -0.0636 -0.3967  0.3120
  452MOL0     C60949   9.983   6.684   8.650  0.2939  0.0057 -1.6553
  452MOL0     C60950  10.633   7.143   8.817  0.1051 -0.3960 -0.7927
  452MOL0     C60951  10.691   7.180   8.941  0.3573  0.4323 -0.2030
  452MOL0     C60952  10.625   7.299   9.009  0.7245  0.5478  0.3018
  452MOL0     H60953  11.034   7.362   9.229  1.5539  0.4188  0.2296
  452MOL0     H60954  11.144   7.424   9.414  2.9385 -0.0551 -0.6834
  452MOL0     H60955  11.382   7.087   9.664  1.6186  0.3993  2.4883
  452MOL0     H60956  11.484   7.155   9.539 -1.2880  3.6982 -2.9832
  452MOL0     H60957  11.423   7.323   9.789  1.0980 -0.5174  1.2872
  452MOL0     H60958  11.543   7.350   9.661  0.4582 -0.4484 -0.4991
  452MOL0     H60959  11.683   7.155   9.725  0.3103 -2.8540 -0.3939
  452MOL0     H60960  11.543   7.105   9.826 -0.6721  1.0552 -1.6813
  452MOL0     H60961  11.648   7.372   9.882 -2.1591  0.5188 -2.4611
  452MOL0     H60962  11.557   7.266   9.979  0.5364  0.0170  0.1969
  452MOL0     H60963  11.776   7.241  10.078 -1.1247 -2.3600  1.6130
  452MOL0     H60964  11.772   7.104   9.993  2.0699  0.5835  1.3354
  452MOL0     H60965  11.907   7.197   9.807  2.0952  1.8838 -0.9156
  452MOL0     H60966  11.903   7.355   9.881 -1.4949  0.2254  0.0533
  452MOL0     H60967  11.987   7.203  10.091  3.5935  4.1175  1.7370
  452MOL0     H60968  12.099   7.285   9.995  0.1553 -0.4537 -0.3098
  452MOL0     H60969  12.002   7.018   9.888 -0.9476  1.8040 -0.4288
  452MOL0     H60970  12.151   7.099   9.847  1.5476 -0.6593  0.7835
  452MOL0     H60971  12.361   7.089  10.012 -0.4126  0.0699  0.6027
  452MOL0     H60972  12.448   6.887  10.326  0.9671 -2.5062 -0.8365
  452MOL0     H60973  12.515   6.871  10.165  1.4587 -0.3758  1.3530
  452MOL0     H60974  12.556   7.118  10.154  3.9408  1.0431  0.0352
  452MOL0     H60975  12.478   7.137  10.314  2.1872 -0.1886  0.7500
  452MOL0     H60976  12.722   6.946  10.246 -0.2609 -0.0749  0.0963
  452MOL0     H60977  12.648   6.954  10.402  2.5820  0.7932 -0.3543
  452MOL0     H60978  12.826   7.096  10.424  0.8531 -1.0583 -1.8163
  452MOL0     H60979  12.698   7.209  10.385 -1.0828 -1.6590  2.1662
  452MOL0     H60980  12.943   7.269  10.451  2.4294  1.6075  1.1458
  452MOL0     H60981  13.088   7.490  10.469 -1.4371  1.3484 -0.8354
  452MOL0     H60982  13.456   7.633  10.274 -2.1657 -0.1633  0.2610
  452MOL0     H60983  13.650   7.737  10.251  0.5444 -0.0368 -1.3290
  452MOL0     H60984  13.795   7.940  10.274 -1.8300 -0.8005  0.4168
  452MOL0     H60985  13.831   7.809  10.152 -2.1877  0.5373 -2.4807
  452MOL0     H60986  13.919   8.107  10.119 -2.8035 -0.1087  0.4382
  452MOL0     H60987  14.017   7.981  10.191 -2.2109  0.5109  2.0943
  452MOL0     H60988  14.092   7.925   9.980  0.4045 -0.8202  3.0958
  452MOL0     H60989  13.923   7.864   9.964  0.1454  1.0171 -1.3017
  452MOL0     H60990  13.981   8.140   9.874 -0.4238  0.4579  0.0666
  452MOL0     H60991  13.830   8.064   9.862  0.6509  0.7675  2.1327
  452MOL0     H60992  13.966   7.876   9.711  0.4417 -0.3766 -1.1366
  452MOL0     H60993  14.066   8.011   9.680  1.1933 -0.5489  2.0517
  452MOL0     H60994  13.755   8.007   9.655 -0.7555  2.0371 -0.8535
  452MOL0     H60995  13.866   8.131   9.584 -1.8580  0.2832 -1.9063
  452MOL0     H60996  13.794   7.970   9.417  0.5127  0.4339  0.0825
  452MOL0     H60997  13.858   7.836   9.510  4.6224 -1.4474 -1.6375
  452MOL0     H60998  14.004   8.079   9.390 -2.4325 -0.4172 -1.6837
  452MOL0     H60999  14.094   7.943   9.460 -1.0391 -2.2698  0.6936
  452MOL0     H61000  13.482   8.023   9.979 -1.7897  0.6588  0.7086
  452MOL0     H61001  13.264   7.891   9.988 -1.4706  1.1031  2.1465
  452MOL0     H61002  13.027   7.539  10.044 -1.3774 -0.8148 -1.3663
  452MOL0     H61003  12.886   7.345  10.042  0.8706 -0.0811 -0.2086
  452MOL0     H61004  11.324   7.020   9.433  0.1754 -1.5747 -4.4791
  452MOL0     H61005  11.212   6.967   9.233 -0.7492 -2.0147  3.6947
  452MOL0     H61006  10.953   6.971   8.929  0.3708 -0.1386 -1.7884
  452MOL0     H61007  10.825   6.883   8.732 -3.6142 -1.5605  0.4598
  452MOL0     H61008  10.459   6.906   8.739  0.2386 -0.7855 -0.1304
  452MOL0     H61009  10.510   6.825   8.590 -1.2354 -0.3198  1.5338
  452MOL0     H61010  10.412   7.031   8.475 -1.9998 -0.2723 -0.5548
  452MOL0     H61011  10.347   7.073   8.629 -1.0296 -1.0114  0.3931
  452MOL0     H61012  10.299   6.790   8.539  0.7452  1.0193 -0.6441
  452MOL0     H61013  10.206   6.910   8.450  0.6889  2.7565  0.1190
  452MOL0     H61014  10.206   6.876   8.760 -0.7288 -0.1642  1.2147
  452MOL0     H61015  10.110   6.983   8.667  0.6997  0.2943 -1.4881
  452MOL0     H61016   9.904   6.618   8.682  0.7786  0.3109  0.2791
  452MOL0     H61017  10.550   7.204   8.785  1.0158  0.1734 -2.1583
  452MOL0     H61018  10.685   7.387   8.982  3.8379  0.8506  6.3643
  452MOL0     H61019  10.526   7.325   8.971  1.0765  0.4903 -0.6885
  452MOL0     H61020  10.626   7.280   9.117  0.3241 -1.2446  0.0138
  453MOL0     O61021   4.777  11.306   6.250  0.1766  0.1586 -0.0521
  453MOL0     C61022   4.805  11.237   6.348 -0.5609  0.3455  1.1666
  453MOL0     O61023   4.925  11.171   6.356 -0.6824  0.1527 -0.2614
  453MOL0     C61024   5.013  11.155   6.266 -0.0028  0.4865  0.3973
  453MOL0     C61025   4.981  11.135   6.127  0.2141  1.3996  0.1987
  453MOL0     C61026   5.071  11.132   6.023 -0.5489  0.1335 -0.4072
  453MOL0     C61027   5.210  11.145   6.061  0.7094 -0.3006  0.4705
  453MOL0     O61028   5.316  11.160   5.970  0.5006 -0.0407  0.1527
  453MOL0     C61029   5.325  11.062   5.876 -0.9642 -0.1082 -0.1782
  453MOL0     C61030   5.431  11.083   5.763  0.5634  0.1881 -0.0039
  453MOL0     C61031   5.420  11.221   5.715  0.2772 -0.3929 -1.2128
  453MOL0     C61032   5.472  11.236   5.581 -0.1834 -0.9498 -0.5375
  453MOL0     C61033   5.616  11.175   5.548 -0.9538 -0.3911  0.2274
  453MOL0     C61034   5.727  11.243   5.635 -0.1594 -0.0544 -0.6555
  453MOL0     C61035   5.872  11.189   5.599  0.7377 -0.1030 -0.1494
  453MOL0     C61036   5.977  11.250   5.683  1.0545 -0.1951 -0.8695
  453MOL0     N61037   5.974  11.198   5.827  0.1315 -0.4660  0.1195
  453MOL0     C61038   5.931  11.077   5.863  0.6754  0.1236 -0.2734
  453MOL0     C61039   5.993  11.049   5.975 -0.4045  0.1046 -0.3514
  453MOL0     C61040   5.983  10.924   6.055 -0.4220  0.5997  0.0429
  453MOL0     C61041   6.067  10.813   6.007 -0.1455  0.2375 -0.1388
  453MOL0     C61042   6.080  10.700   6.118  0.3509 -0.1449  1.3315
  453MOL0     C61043   5.957  10.613   6.138  0.4659 -0.5891 -0.6096
  453MOL0     O61044   5.959  10.516   6.040  0.3589  0.9509 -0.2616
  453MOL0     C61045   5.869  10.409   6.050 -0.0986  0.6015  0.4534
  453MOL0     C61046   5.744  10.416   6.110  0.2353 -0.8219 -0.2967
  453MOL0     C61047   5.661  10.303   6.141 -0.1911  0.9825 -0.3352
  453MOL0     C61048   5.692  10.179   6.084  0.3516 -0.4388  0.2274
  453MOL0     C61049   5.599  10.058   6.075 -0.5513 -0.4467  0.8448
  453MOL0     O61050   5.649   9.946   6.003 -0.6507  0.4388 -0.0103
  453MOL0     C61051   5.543   9.863   5.976 -0.1535 -0.7009 -0.2862
  453MOL0     C61052   5.480   9.870   5.856  0.4164 -0.2881  0.5453
  453MOL0     C61053   5.384   9.776   5.814  0.5923  0.1421 -0.3152
  453MOL0     C61054   5.356   9.666   5.899  0.4670  0.4540  0.2476
  453MOL0     O61055   5.274   9.555   5.869  0.3004 -0.4567 -0.4700
  453MOL0     C61056   5.188   9.577   5.759 -1.2120  0.0390  0.0724
  453MOL0     C61057   5.054   9.493   5.765 -0.0916  0.7339 -0.6013
  453MOL0     C61058   4.971   9.521   5.889  0.1518  0.1441  0.5794
  453MOL0     C61059   4.906   9.658   5.900 -0.4001  0.0001  0.4505
  453MOL0     C61060   4.813   9.685   6.018  0.7120 -0.2226  0.1824
  453MOL0     C61061   4.884   9.673   6.150 -0.2429 -0.1685  0.4729
  453MOL0     C61062   5.028   9.732   6.147  0.3328 -0.5371  0.4575
  453MOL0     C61063   5.088   9.756   6.291  0.3663 -0.4106 -0.0662
  453MOL0    Cl61064   5.249   9.838   6.278  0.5103 -0.3281 -0.5661
  453MOL0     C61065   5.428   9.656   6.028  0.1513  0.3339 -0.0889
  453MOL0     C61066   5.524   9.754   6.065  0.2313 -0.6390 -0.0483
  453MOL0     O61067   5.492  10.067   6.137 -0.5804 -0.2739 -0.1012
  453MOL0     C61068   5.808  10.173   6.013 -0.0166  0.5713 -1.0372
  453MOL0     C61069   5.898  10.281   5.995  0.0761  0.0941 -0.7644
  453MOL0     N61070   6.060  11.157   6.015  0.1618 -0.2986 -0.2637
  453MOL0     N61071   6.049  11.245   5.923 -0.9255 -0.1785 -0.8920
  453MOL0     C61072   5.242  11.160   6.194  0.0546 -0.8370  0.1207
  453MOL0     C61073   5.152  11.158   6.302 -1.0258 -0.9746 -0.6557
  453MOL0     C61074   4.699  11.207   6.444 -0.1476 -0.5254 -0.2409
  453MOL0     C61075   4.722  11.109   6.546 -0.0497  0.3291  0.5669
  453MOL0     C61076   4.625  11.087   6.652 -0.2474  0.3074 -0.3666
  453MOL0     C61077   4.501  11.153   6.643  0.2121  0.2489  0.4488
  453MOL0     O61078   4.405  11.149   6.742 -0.2845  0.6857 -0.0127
  453MOL0     C61079   4.417  11.063   6.861  0.4580  0.3721 -0.2572
  453MOL0     C61080   4.277  11.048   6.922  0.4239  0.1578 -0.0720
  453MOL0     C61081   4.286  10.932   7.015  0.1315 -0.1216 -0.5558
  453MOL0     C61082   4.160  10.921   7.104 -0.2578 -0.3486 -0.0502
  453MOL0     C61083   4.137  10.795   7.186 -0.9490 -0.0353  0.6432
  453MOL0     C61084   4.122  10.695   7.252 -0.0810  0.0398 -0.2562
  453MOL0     C61085   4.482  11.237   6.536  0.3473 -1.0085 -0.5659
  453MOL0     C61086   4.577  11.275   6.443  0.3495  0.2873 -0.7926
  453MOL0     C61087   4.543  11.403   6.371  0.3214  0.1363  0.0415
  453MOL0     H61088   4.877  11.127   6.095  0.4839  1.1114 -0.6343
  453MOL0     H61089   5.044  11.132   5.918 -4.4102  2.6896  0.3841
  453MOL0     H61090   5.354  10.971   5.929 -3.0086 -0.7895 -0.1500
  453MOL0     H61091   5.229  11.049   5.825 -0.0982 -2.7718 -1.2971
  453MOL0     H61092   5.403  11.009   5.689 -0.5783 -0.2492  0.8416
  453MOL0     H61093   5.534  11.077   5.801  0.4685  1.7175  0.5796
  453MOL0     H61094   5.484  11.288   5.774 -0.2170 -0.4465 -0.6097
  453MOL0     H61095   5.322  11.265   5.728  1.1441  1.4885 -0.7521
  453MOL0     H61096   5.402  11.194   5.508 -0.9590  0.7726 -0.8397
  453MOL0     H61097   5.476  11.340   5.547  0.2065 -0.9262 -0.4236
  453MOL0     H61098   5.600  11.071   5.578 -3.7474  0.5440  2.5037
  453MOL0     H61099   5.640  11.187   5.442  1.1457 -0.4500  0.6488
  453MOL0     H61100   5.717  11.348   5.607  2.0184  0.5344  0.5461
  453MOL0     H61101   5.719  11.231   5.743  3.2463 -1.5613 -0.4273
  453MOL0     H61102   5.901  11.230   5.502  1.3339 -0.1282  0.0135
  453MOL0     H61103   5.880  11.080   5.591 -0.2672 -0.1834 -0.0945
  453MOL0     H61104   6.062  11.235   5.616  0.3746  0.6602 -1.9748
  453MOL0     H61105   5.955  11.357   5.681 -0.0153 -0.4007 -0.9366
  453MOL0     H61106   5.860  11.012   5.813  0.1698  0.3703  0.1140
  453MOL0     H61107   6.023  10.955   6.152  2.2260  0.1747 -0.8231
  453MOL0     H61108   5.878  10.896   6.071 -0.8222  2.2134  0.3883
  453MOL0     H61109   6.038  10.773   5.909  0.8963 -0.5218 -0.1540
  453MOL0     H61110   6.172  10.843   6.005 -0.3138  1.0221  1.2493
  453MOL0     H61111   6.093  10.755   6.211 -1.6635  2.3380  0.2702
  453MOL0     H61112   6.165  10.638   6.089  0.2752  0.5818 -0.5915
  453MOL0     H61113   5.860  10.664   6.135  0.4651 -0.6265 -1.3217
  453MOL0     H61114   5.967  10.575   6.240  1.7623  2.1445  0.3818
  453MOL0     H61115   5.724  10.515   6.152  0.0791  0.7476 -3.7251
  453MOL0     H61116   5.567  10.334   6.186 -0.8836 -0.4164 -0.7588
  453MOL0     H61117   5.500   9.953   5.789  1.6251 -0.5312  0.5841
  453MOL0     H61118   5.329   9.791   5.722  0.0870 -0.9387 -0.2084
  453MOL0     H61119   5.160   9.683   5.754 -2.7662 -0.3958 -2.5672
  453MOL0     H61120   5.228   9.541   5.664 -0.1671 -1.4468  1.0318
  453MOL0     H61121   4.995   9.506   5.674 -0.9923  0.4246 -0.0735
  453MOL0     H61122   5.073   9.385   5.760 -2.7188  0.2037 -0.5087
  453MOL0     H61123   4.890   9.447   5.889 -1.6997  1.9632 -1.9337
  453MOL0     H61124   5.020   9.489   5.981  0.3834 -1.2842 -0.0216
  453MOL0     H61125   4.844   9.673   5.812  0.2720  1.3084  0.1845
  453MOL0     H61126   4.984   9.733   5.890  1.3305 -1.0436  4.1494
  453MOL0     H61127   4.732   9.612   6.024  3.9102 -4.1858 -0.4664
  453MOL0     H61128   4.763   9.782   6.021 -1.6179 -1.2758 -1.3742
  453MOL0     H61129   4.827   9.707   6.237  0.0384  1.7039 -0.0333
  453MOL0     H61130   4.905   9.567   6.164 -1.3176 -1.2209 -4.1457
  453MOL0     H61131   5.027   9.827   6.093  2.6356  0.2391  1.6184
  453MOL0     H61132   5.084   9.659   6.088  1.2215 -1.8291  2.7610
  453MOL0     H61133   5.015   9.820   6.342 -0.6887 -1.2665 -0.4677
  453MOL0     H61134   5.101   9.662   6.346 -0.6770 -0.8969 -0.6261
  453MOL0     H61135   5.418   9.577   6.102  1.4194 -0.3090 -0.5699
  453MOL0     H61136   5.575   9.750   6.161 -0.0012  2.5066  0.3093
  453MOL0     H61137   5.838  10.076   5.975  1.3460  0.0513  1.1577
  453MOL0     H61138   5.994  10.266   5.947  1.5069  0.6702  1.7240
  453MOL0     H61139   5.349  11.178   6.207 -0.3007  0.8354  0.9276
  453MOL0     H61140   5.191  11.180   6.401 -1.3098  2.1838 -1.1669
  453MOL0     H61141   4.810  11.045   6.552 -1.8811 -2.3990  0.0604
  453MOL0     H61142   4.658  11.030   6.739 -1.0359 -2.0717 -1.5336
  453MOL0     H61143   4.484  11.108   6.935  0.5365 -0.1581 -0.0074
  453MOL0     H61144   4.454  10.963   6.840 -2.0471 -0.8561  0.8038
  453MOL0     H61145   4.205  11.022   6.843 -0.4341 -2.7620  1.5263
  453MOL0     H61146   4.238  11.132   6.979 -0.8084  0.3523 -1.1366
  453MOL0     H61147   4.372  10.947   7.080  1.3672  0.3029 -2.2149
  453MOL0     H61148   4.302  10.839   6.961  2.5352 -0.2829  0.3442
  453MOL0     H61149   4.154  11.001   7.179  1.7250  2.4143 -2.5734
  453MOL0     H61150   4.080  10.943   7.032 -0.7071  1.6414  0.9792
  453MOL0     H61151   4.099  10.607   7.308 -1.9214  0.5280 -0.1726
  453MOL0     H61152   4.391  11.293   6.551  1.3602  0.5453  0.0160
  453MOL0     H61153   4.472  11.474   6.415  2.4212  1.2444  1.8036
  453MOL0     H61154   4.633  11.464   6.370  1.7968 -1.9225 -0.9904
  453MOL0     H61155   4.520  11.377   6.267  2.1895 -0.1837 -0.3243
  454MOL0     O61156  11.383   1.532   5.860 -0.0872  0.2500  0.1379
  454MOL0     C61157  11.334   1.514   5.967  0.3506 -0.7287 -0.1186
  454MOL0     O61158  11.214   1.443   5.980  0.2714 -0.3271  0.1800
  454MOL0     C61159  11.148   1.406   5.864 -0.0389 -0.4216  0.0830
  454MOL0     C61160  11.069   1.503   5.809 -0.0084  0.1649  0.4236
  454MOL0     C61161  10.979   1.463   5.703  0.0491  0.1205 -0.8557
  454MOL0     C61162  10.978   1.333   5.652  0.0549  1.1718  0.1571
  454MOL0     O61163  10.876   1.300   5.558 -0.1583  0.5929 -0.2981
  454MOL0     C61164  10.929   1.243   5.442  1.0168  1.0287  0.2250
  454MOL0     C61165  10.896   1.100   5.420 -0.6041  0.4753  0.6427
  454MOL0     C61166  10.744   1.063   5.416 -0.4386  0.3143 -0.3802
  454MOL0     C61167  10.727   0.907   5.393  0.4543 -0.0530 -0.1123
  454MOL0     C61168  10.582   0.881   5.431 -0.5235 -0.0348  0.9364
  454MOL0     C61169  10.528   0.749   5.391 -0.1537 -0.0827  0.1267
  454MOL0     C61170  10.408   0.715   5.468 -0.5998 -0.0034 -0.5641
  454MOL0     C61171  10.431   0.627   5.597 -0.5646 -0.0111  0.5089
  454MOL0     N61172  10.320   0.601   5.690 -0.0416 -0.3099  1.0476
  454MOL0     C61173  10.212   0.534   5.637 -0.2951  0.1545 -0.5759
  454MOL0     C61174  10.131   0.536   5.749  0.0707 -0.5564  0.3270
  454MOL0     C61175   9.994   0.487   5.759  0.1626  0.8806 -0.1911
  454MOL0     C61176   9.991   0.336   5.748  0.5002 -0.0072  0.4969
  454MOL0     C61177   9.843   0.296   5.766 -0.4164 -0.6773 -0.3933
  454MOL0     C61178   9.840   0.140   5.786  0.2731 -1.1423  0.2484
  454MOL0     O61179   9.706   0.090   5.778 -0.0476  0.4620  0.3941
  454MOL0     C61180   9.705  -0.047   5.777  0.3822  0.4092  0.3085
  454MOL0     C61181   9.756  -0.116   5.670 -0.5625 -0.0085 -0.3452
  454MOL0     C61182   9.739  -0.254   5.660 -0.1968 -0.1016  1.1303
  454MOL0     C61183   9.659  -0.327   5.744  0.4787 -0.7719 -1.8415
  454MOL0     C61184   9.634  -0.470   5.722  1.2085 -1.0008 -0.1639
  454MOL0     O61185   9.557  -0.544   5.815 -0.0205 -0.3357  0.0383
  454MOL0     C61186   9.527  -0.670   5.781 -0.1809  0.0131  0.3310
  454MOL0     C61187   9.467  -0.702   5.663 -0.4706  0.3227  0.0911
  454MOL0     C61188   9.428  -0.832   5.638  0.1059  0.5256  0.4708
  454MOL0     C61189   9.453  -0.928   5.730  0.2742  0.4459  0.1371
  454MOL0     O61190   9.419  -1.060   5.706  0.2220 -1.0503  0.2398
  454MOL0     C61191   9.279  -1.082   5.704  0.3397 -0.1221  0.4782
  454MOL0     C61192   9.193  -1.069   5.835 -0.5710  0.5621  0.4015
  454MOL0     C61193   9.171  -0.926   5.875  0.0268  0.2055 -0.6623
  454MOL0     C61194   9.104  -0.933   6.012  0.7528 -0.2204 -0.4233
  454MOL0     C61195   9.074  -0.797   6.070 -0.4067  0.1024 -0.5973
  454MOL0     C61196   8.977  -0.796   6.191  0.0745 -0.3470  0.3015
  454MOL0     C61197   8.841  -0.850   6.147  0.0884 -0.1260 -0.4456
  454MOL0     C61198   8.708  -0.790   6.209  0.0958 -0.5304  0.3251
  454MOL0    Cl61199   8.717  -0.795   6.382  0.2314 -0.2052 -0.1277
  454MOL0     C61200   9.520  -0.899   5.847  0.0715  0.5999 -0.8316
  454MOL0     C61201   9.555  -0.770   5.877 -0.4262  0.2730 -0.1481
  454MOL0     O61202   9.683  -0.519   5.620  0.6704 -0.2040  0.1609
  454MOL0     C61203   9.608  -0.258   5.856 -0.3775 -0.1599  0.7510
  454MOL0     C61204   9.632  -0.122   5.869 -0.3660  0.4435 -0.4624
  454MOL0     N61205  10.186   0.589   5.860  0.5158 -1.2661  0.0729
  454MOL0     N61206  10.304   0.628   5.826  0.2646 -1.2548  0.2446
  454MOL0     C61207  11.068   1.236   5.708 -0.2016 -0.5624  0.3221
  454MOL0     C61208  11.156   1.267   5.821  0.8991  0.3576 -0.6227
  454MOL0     C61209  11.396   1.583   6.078 -0.1833 -0.3192 -0.0615
  454MOL0     C61210  11.504   1.668   6.062  0.1230 -0.7787  0.1873
  454MOL0     C61211  11.562   1.743   6.162 -0.3740 -0.0857  0.0196
  454MOL0     C61212  11.520   1.729   6.292 -0.3569 -0.1944  0.1524
  454MOL0     O61213  11.588   1.808   6.388  0.1753 -0.2953  0.0117
  454MOL0     C61214  11.550   1.804   6.527 -0.0733 -0.1235  0.2279
  454MOL0     C61215  11.468   1.929   6.556 -0.6148 -0.4737 -1.2838
  454MOL0     C61216  11.447   1.937   6.711  0.3755 -0.2951 -0.4127
  454MOL0     C61217  11.579   1.962   6.788 -0.6292 -1.8930  0.2718
  454MOL0     C61218  11.553   2.002   6.928 -0.2989 -0.5739  1.1742
  454MOL0     C61219  11.535   2.040   7.041 -0.5636  0.7739  0.3421
  454MOL0     C61220  11.410   1.651   6.310 -0.0933 -0.1951 -0.2252
  454MOL0     C61221  11.346   1.576   6.210  0.7292 -0.5305 -0.0393
  454MOL0     C61222  11.229   1.488   6.248 -0.4902  0.6742 -0.1580
  454MOL0     H61223  11.052   1.600   5.855 -0.4480  0.1731  0.2506
  454MOL0     H61224  10.920   1.540   5.656 -2.0899 -0.7873  0.2260
  454MOL0     H61225  10.895   1.288   5.349  1.8656  3.2066  0.8961
  454MOL0     H61226  11.038   1.253   5.448  1.0655 -0.2623  3.4095
  454MOL0     H61227  10.943   1.045   5.502 -0.6898 -2.0225 -0.8513
  454MOL0     H61228  10.941   1.067   5.326 -0.5613  2.3678 -0.0325
  454MOL0     H61229  10.685   1.109   5.336 -2.6578 -0.7736  0.5480
  454MOL0     H61230  10.708   1.092   5.515  1.5570 -0.7523  0.7212
  454MOL0     H61231  10.746   0.871   5.291  1.8500 -1.6787  0.6708
  454MOL0     H61232  10.788   0.844   5.459 -1.5124 -2.3603 -0.3512
  454MOL0     H61233  10.572   0.890   5.540 -1.0174 -1.3250  1.0143
  454MOL0     H61234  10.517   0.954   5.382 -0.5076 -1.9958 -2.2715
  454MOL0     H61235  10.507   0.741   5.284 -0.9671  0.4418  0.2423
  454MOL0     H61236  10.594   0.663   5.408 -2.4364 -1.4930  2.7885
  454MOL0     H61237  10.342   0.657   5.403 -0.4756 -0.0198 -0.6722
  454MOL0     H61238  10.351   0.803   5.499 -2.0583 -0.7045 -1.1164
  454MOL0     H61239  10.472   0.531   5.562 -1.5198 -0.1610 -0.2237
  454MOL0     H61240  10.513   0.672   5.654 -0.9296  1.1786  0.1120
  454MOL0     H61241  10.209   0.499   5.534  0.7983 -1.7354  0.0066
  454MOL0     H61242   9.949   0.515   5.855 -0.7279 -0.8641 -0.0725
  454MOL0     H61243   9.924   0.522   5.683  0.4138 -0.3594 -1.0296
  454MOL0     H61244  10.013   0.299   5.647 -0.7936 -1.8530  0.8600
  454MOL0     H61245  10.063   0.288   5.814 -0.4551 -3.2824 -0.6469
  454MOL0     H61246   9.783   0.332   5.682 -0.8538  2.3272  1.0638
  454MOL0     H61247   9.800   0.338   5.857 -1.4126  1.6459 -1.8347
  454MOL0     H61248   9.886   0.121   5.884  1.0993  1.7064  0.5189
  454MOL0     H61249   9.902   0.093   5.709  0.9686  0.2468 -0.0835
  454MOL0     H61250   9.804  -0.060   5.590  0.3710  0.2571  0.3799
  454MOL0     H61251   9.780  -0.299   5.571 -0.1426 -0.5630  1.3830
  454MOL0     H61252   9.451  -0.627   5.586 -1.2158 -0.3648 -0.4456
  454MOL0     H61253   9.384  -0.851   5.540 -0.5390 -2.8667  1.3184
  454MOL0     H61254   9.221  -1.034   5.625 -0.3993 -0.1031  1.0088
  454MOL0     H61255   9.272  -1.188   5.675  1.0087  0.5061 -2.2318
  454MOL0     H61256   9.100  -1.124   5.818  0.7050 -1.2119 -1.3804
  454MOL0     H61257   9.256  -1.119   5.910  1.7676 -0.8578 -2.3054
  454MOL0     H61258   9.262  -0.867   5.879 -1.4942  2.8750 -2.3948
  454MOL0     H61259   9.102  -0.869   5.812 -0.1878  2.1313  1.2045
  454MOL0     H61260   9.173  -0.989   6.075 -1.2010 -2.1306  0.1520
  454MOL0     H61261   9.017  -1.000   6.007  2.1460 -2.6847  3.7539
  454MOL0     H61262   9.039  -0.729   5.992 -1.5493  2.1127  1.5663
  454MOL0     H61263   9.170  -0.753   6.098  0.0420 -0.9307 -0.4266
  454MOL0     H61264   9.002  -0.846   6.286 -3.5455 -0.3475  1.4137
  454MOL0     H61265   8.974  -0.691   6.221  1.8988  0.5686 -2.4172
  454MOL0     H61266   8.837  -0.957   6.172 -1.1626  0.5131  2.4821
  454MOL0     H61267   8.836  -0.833   6.039  1.0347  1.1963 -0.3046
  454MOL0     H61268   8.686  -0.684   6.191 -3.8214 -0.9200  1.8480
  454MOL0     H61269   8.617  -0.832   6.167  0.1344  1.3481 -1.8545
  454MOL0     H61270   9.540  -0.977   5.920 -1.7384  0.7049 -0.1566
  454MOL0     H61271   9.605  -0.743   5.970  0.4389 -1.8545  0.0784
  454MOL0     H61272   9.549  -0.313   5.929 -0.4294  0.3051  1.0657
  454MOL0     H61273   9.595  -0.069   5.956  2.2824 -0.4691  1.3335
  454MOL0     H61274  11.044   1.133   5.683 -2.9056 -0.1002  0.7425
  454MOL0     H61275  11.208   1.186   5.872  0.1657 -0.6399 -1.3972
  454MOL0     H61276  11.529   1.698   5.961  1.1999  1.2364  1.0007
  454MOL0     H61277  11.654   1.798   6.145 -1.5734  1.7275 -0.8818
  454MOL0     H61278  11.639   1.803   6.590 -0.8086  0.9236  1.3396
  454MOL0     H61279  11.488   1.718   6.552 -1.1434  0.9122  1.2961
  454MOL0     H61280  11.370   1.926   6.508  0.6947  0.5754 -4.2686
  454MOL0     H61281  11.529   2.014   6.524  1.4267 -1.4778 -0.2547
  454MOL0     H61282  11.394   1.847   6.744 -0.0442 -0.5517 -1.7366
  454MOL0     H61283  11.371   2.011   6.735  0.1407 -0.4460 -0.6919
  454MOL0     H61284  11.640   1.871   6.791 -0.1819 -1.5678  1.9454
  454MOL0     H61285  11.638   2.035   6.732  2.1400 -3.3952  1.0353
  454MOL0     H61286  11.523   2.066   7.145 -3.0480  2.4804 -0.2525
  454MOL0     H61287  11.372   1.636   6.411  3.2934 -1.1158  1.0586
  454MOL0     H61288  11.206   1.487   6.355 -1.4510  1.1936 -0.3505
  454MOL0     H61289  11.141   1.530   6.199 -1.7367 -1.0567  0.5044
  454MOL0     H61290  11.235   1.384   6.212 -2.3536  1.1126 -1.9415
  455MOL0     O61291   6.275  10.846   1.437  0.2251 -0.0099  0.5257
  455MOL0     C61292   6.171  10.784   1.476  0.4198  0.0318 -0.2641
  455MOL0     O61293   6.146  10.652   1.450  0.0302 -0.3264 -0.6202
  455MOL0     C61294   6.249  10.584   1.379  0.1116 -0.2550 -0.4741
  455MOL0     C61295   6.330  10.493   1.438 -0.0997 -0.5487 -0.3758
  455MOL0     C61296   6.422  10.425   1.362 -0.5125  0.0579 -0.1128
  455MOL0     C61297   6.436  10.455   1.227 -0.1237 -0.4914  1.3272
  455MOL0     O61298   6.524  10.397   1.140  0.0427  0.1104  0.0585
  455MOL0     C61299   6.652  10.466   1.153  0.7539 -0.7225  0.2773
  455MOL0     C61300   6.740  10.420   1.268 -0.1374 -0.3398 -0.5886
  455MOL0     C61301   6.885  10.469   1.258 -0.5602  0.4017  0.4352
  455MOL0     C61302   6.971  10.374   1.168 -0.3637 -0.1591  0.5738
  455MOL0     C61303   7.109  10.367   1.229 -0.4275  0.5400  0.4185
  455MOL0     C61304   7.185  10.247   1.169 -0.7097 -0.0573  0.3560
  455MOL0     C61305   7.334  10.234   1.188  0.0099  0.5552  0.5462
  455MOL0     C61306   7.383  10.218   1.339  0.2962 -0.1647  0.6911
  455MOL0     N61307   7.527  10.222   1.340  0.2050  0.6163 -0.3484
  455MOL0     C61308   7.604  10.109   1.321  0.1911  0.2948  1.1652
  455MOL0     C61309   7.734  10.154   1.337  0.1452  0.3140  0.5524
  455MOL0     C61310   7.857  10.065   1.324  0.3320 -0.6422 -0.2497
  455MOL0     C61311   7.913  10.022   1.464  0.1236 -0.8141  0.4203
  455MOL0     C61312   8.022   9.923   1.444 -0.3217 -0.5565  0.5422
  455MOL0     C61313   8.150   9.987   1.397 -0.4781 -0.5818 -0.2004
  455MOL0     O61314   8.247   9.881   1.365 -0.1681 -0.5847 -0.0410
  455MOL0     C61315   8.313   9.837   1.480  0.1754 -0.0855  0.8710
  455MOL0     C61316   8.405   9.917   1.557  0.1064  0.2105 -0.1055
  455MOL0     C61317   8.471   9.868   1.668 -0.3195  0.4481  0.1087
  455MOL0     C61318   8.459   9.727   1.706  0.2146 -1.5004  0.3663
  455MOL0     C61319   8.540   9.682   1.815 -0.4397 -0.1613 -1.1334
  455MOL0     O61320   8.513   9.559   1.861 -0.6608 -0.4844  0.5121
  455MOL0     C61321   8.602   9.488   1.937 -0.1364  0.3027  0.1628
  455MOL0     C61322   8.742   9.488   1.905  0.2171 -0.3300 -0.2979
  455MOL0     C61323   8.833   9.411   1.980 -0.7265  0.4738 -0.0606
  455MOL0     C61324   8.793   9.334   2.095 -0.0511 -0.5397 -0.2067
  455MOL0     O61325   8.883   9.266   2.166 -0.4872  0.2747 -0.5345
  455MOL0     C61326   8.910   9.321   2.295  0.2240 -0.5826 -0.2198
  455MOL0     C61327   9.029   9.250   2.366 -0.1804 -0.0601 -0.4028
  455MOL0     C61328   9.094   9.316   2.488 -0.1873 -0.1064  0.8601
  455MOL0     C61329   8.994   9.334   2.597  0.4159  0.2918 -0.4454
  455MOL0     C61330   9.057   9.391   2.736 -0.2294 -0.1306  0.9650
  455MOL0     C61331   9.151   9.510   2.714 -0.4606 -0.1379 -0.0882
  455MOL0     C61332   9.154   9.610   2.821 -0.6479  0.2698 -1.5989
  455MOL0     C61333   9.279   9.700   2.821  0.4846  0.8685 -0.2660
  455MOL0    Cl61334   9.253   9.839   2.928 -0.3153 -0.1266 -0.6106
  455MOL0     C61335   8.656   9.332   2.122 -0.3350  0.8804  0.5001
  455MOL0     C61336   8.564   9.410   2.044 -0.2054  0.2243 -1.1611
  455MOL0     O61337   8.631   9.760   1.860  0.5995 -0.2639 -1.1201
  455MOL0     C61338   8.364   9.646   1.632  0.3509 -0.9247  0.4783
  455MOL0     C61339   8.299   9.701   1.526  0.3053  0.3598 -0.1993
  455MOL0     N61340   7.732  10.287   1.372 -0.3552 -0.2112  0.6164
  455MOL0     N61341   7.606  10.317   1.394  0.1345  0.8987  0.2811
  455MOL0     C61342   6.345  10.542   1.163 -0.2942  0.6830  0.2063
  455MOL0     C61343   6.249  10.613   1.241 -0.4700  0.4574  0.2160
  455MOL0     C61344   6.074  10.871   1.548  0.1952  0.1573  0.3828
  455MOL0     C61345   5.940  10.862   1.505 -0.1245  0.0891  0.8037
  455MOL0     C61346   5.837  10.945   1.552  0.1416  0.0649 -0.1149
  455MOL0     C61347   5.866  11.024   1.662 -0.1029 -0.2030 -0.3442
  455MOL0     O61348   5.772  11.103   1.720  0.2854  0.0946  0.6997
  455MOL0     C61349   5.636  11.067   1.726  0.2014  1.1389 -0.1709
  455MOL0     C61350   5.550  11.162   1.804 -0.5819  0.0152 -0.3210
  455MOL0     C61351   5.560  11.307   1.746 -0.4192 -0.4499 -0.2628
  455MOL0     C61352   5.456  11.408   1.792  0.5699 -0.3286  0.1577
  455MOL0     C61353   5.445  11.433   1.930  0.2771  0.0161 -1.1930
  455MOL0     C61354   5.434  11.454   2.051 -1.2822  0.5431 -0.4477
  455MOL0     C61355   6.002  11.042   1.696 -0.9477  0.7565 -0.5049
  455MOL0     C61356   6.109  10.976   1.638 -0.6095  0.1389  0.7965
  455MOL0     C61357   6.257  11.002   1.675  0.2118  0.7094 -0.7483
  455MOL0     H61358   6.315  10.449   1.536  0.1338 -2.9244 -1.3363
  455MOL0     H61359   6.473  10.339   1.404 -1.8348 -0.2329  0.9496
  455MOL0     H61360   6.709  10.467   1.059  1.6078 -0.9975  0.7797
  455MOL0     H61361   6.633  10.569   1.182  1.4871 -1.3068  3.1309
  455MOL0     H61362   6.738  10.312   1.285  0.0926  0.2478  5.1982
  455MOL0     H61363   6.701  10.463   1.360  0.9914  0.2573 -0.3737
  455MOL0     H61364   6.925  10.463   1.360 -1.1379 -1.0853  0.5925
  455MOL0     H61365   6.884  10.574   1.227 -0.4994  0.3263  0.1786
  455MOL0     H61366   6.935  10.271   1.179  0.3398 -0.7245 -1.9094
  455MOL0     H61367   6.967  10.408   1.064 -0.9031 -0.0501  0.6262
  455MOL0     H61368   7.166  10.453   1.193  1.0187 -0.2006  0.8581
  455MOL0     H61369   7.110  10.357   1.338 -0.4830  0.2565  0.3939
  455MOL0     H61370   7.133  10.160   1.210 -1.9885  0.5620  0.1039
  455MOL0     H61371   7.165  10.245   1.061  1.4666  2.0613 -0.1761
  455MOL0     H61372   7.380  10.327   1.151 -1.5843  2.5537  3.2048
  455MOL0     H61373   7.380  10.150   1.135  1.0638  0.0538  2.1943
  455MOL0     H61374   7.339  10.297   1.401  0.7618  0.7272 -0.1036
  455MOL0     H61375   7.353  10.125   1.388  0.8550 -0.3701  0.6470
  455MOL0     H61376   7.576  10.015   1.275  3.1293  0.3463 -0.9795
  455MOL0     H61377   7.806   9.986   1.268  0.4370 -1.4823  0.8241
  455MOL0     H61378   7.937  10.113   1.267  1.7786 -0.2042  2.0315
  455MOL0     H61379   7.937  10.117   1.513 -3.2522  2.4933 -3.5158
  455MOL0     H61380   7.829   9.976   1.517 -1.2853  0.5570 -0.5313
  455MOL0     H61381   7.999   9.843   1.374  0.2044 -0.7612  0.5948
  455MOL0     H61382   8.040   9.867   1.536  1.4163 -1.7657 -0.4839
  455MOL0     H61383   8.180  10.059   1.474  1.3930  0.7454 -2.0339
  455MOL0     H61384   8.129  10.053   1.312  1.1952 -0.2911 -0.4382
  455MOL0     H61385   8.410  10.022   1.529  1.2377  0.3120  0.3998
  455MOL0     H61386   8.539   9.939   1.713  0.7764  0.1804 -1.0715
  455MOL0     H61387   8.774   9.551   1.822  1.0245 -0.4453 -0.0835
  455MOL0     H61388   8.938   9.407   1.954 -0.4665 -1.1980  1.0908
  455MOL0     H61389   8.933   9.427   2.299 -0.0664 -0.5376  0.7572
  455MOL0     H61390   8.827   9.324   2.367  0.4566  0.9969  0.0115
  455MOL0     H61391   8.993   9.155   2.407  0.3713  0.9239  2.5968
  455MOL0     H61392   9.105   9.232   2.289  0.4626  0.9781 -0.0273
  455MOL0     H61393   9.168   9.248   2.529  0.5462 -0.2467 -0.6297
  455MOL0     H61394   9.135   9.412   2.455 -0.4968 -0.2168  0.1248
  455MOL0     H61395   8.959   9.230   2.607  4.4812 -1.5866 -3.2107
  455MOL0     H61396   8.927   9.411   2.558  0.0020 -0.4572 -1.2456
  455MOL0     H61397   9.121   9.315   2.780  0.2743  0.4859  1.3088
  455MOL0     H61398   8.973   9.412   2.803 -0.4707  2.1911  0.0415
  455MOL0     H61399   9.252   9.479   2.685 -0.0435  3.0893 -2.5803
  455MOL0     H61400   9.115   9.566   2.627 -0.1002 -0.0363 -0.1749
  455MOL0     H61401   9.156   9.562   2.920 -0.1896  1.6178 -0.9334
  455MOL0     H61402   9.065   9.672   2.814  1.5675  3.9727 -0.0618
  455MOL0     H61403   9.354   9.634   2.865 -2.8746 -1.0184  3.2061
  455MOL0     H61404   9.289   9.730   2.716 -1.5700 -1.5696 -1.2807
  455MOL0     H61405   8.613   9.277   2.206 -0.2142 -1.5158 -0.9222
  455MOL0     H61406   8.458   9.415   2.068 -0.1693  3.7892 -1.3042
  455MOL0     H61407   8.354   9.546   1.672  1.1393 -0.7429  1.1530
  455MOL0     H61408   8.243   9.638   1.458  0.3697  0.1357 -0.0453
  455MOL0     H61409   6.373  10.566   1.061  0.3637 -2.3391 -0.4094
  455MOL0     H61410   6.167  10.676   1.207  0.4529  2.3630  1.3167
  455MOL0     H61411   5.921  10.786   1.430 -0.9475  0.9892  0.0782
  455MOL0     H61412   5.741  10.934   1.501  1.5140 -1.1963 -2.6018
  455MOL0     H61413   5.628  10.965   1.764  2.7323  1.4512  1.4815
  455MOL0     H61414   5.597  11.055   1.624 -0.8456  0.7320  0.2741
  455MOL0     H61415   5.586  11.163   1.907  2.7473 -0.3316 -1.3567
  455MOL0     H61416   5.449  11.121   1.799 -1.7911  2.7317 -0.1733
  455MOL0     H61417   5.553  11.312   1.637 -0.2585  0.0561 -0.2546
  455MOL0     H61418   5.655  11.355   1.773 -2.3603  2.4080  2.1099
  455MOL0     H61419   5.474  11.508   1.750 -0.1325  0.3993  1.4987
  455MOL0     H61420   5.358  11.392   1.747 -0.6823  1.2626  2.1151
  455MOL0     H61421   5.443  11.480   2.155  0.1698  1.9216 -0.8826
  455MOL0     H61422   6.017  11.119   1.771 -0.4784  1.9967 -1.8377
  455MOL0     H61423   6.313  11.027   1.585 -1.7670  1.1409 -1.9003
  455MOL0     H61424   6.265  11.076   1.755  2.5403  0.3948 -0.6104
  455MOL0     H61425   6.316  10.913   1.699  1.7160  1.7987 -0.2766
  456MOL0     O61426   7.027   4.962   7.269 -0.8831  0.1010  0.0753
  456MOL0     C61427   7.036   5.088   7.265  0.3522 -1.0594  0.6234
  456MOL0     O61428   6.924   5.172   7.284 -0.3923  0.0813  0.7921
  456MOL0     C61429   6.802   5.113   7.293  0.4358 -0.3745  1.0123
  456MOL0     C61430   6.705   5.182   7.370 -1.3330 -0.0134  0.2536
  456MOL0     C61431   6.576   5.142   7.365  0.0070  0.3788  0.2000
  456MOL0     C61432   6.526   5.042   7.280  1.3863  0.3652  0.6469
  456MOL0     O61433   6.388   5.034   7.266 -0.4059 -0.6175 -0.1465
  456MOL0     C61434   6.310   5.011   7.385 -0.0369 -0.3548  0.6160
  456MOL0     C61435   6.172   5.059   7.352  0.3805  0.1842 -0.2474
  456MOL0     C61436   6.090   5.113   7.473  0.2728 -0.3850  0.1006
  456MOL0     C61437   5.957   5.169   7.436 -0.7972 -0.1660  0.9756
  456MOL0     C61438   5.906   5.260   7.546  0.5358 -0.7864  0.0469
  456MOL0     C61439   5.985   5.390   7.545  0.1384 -1.2817 -0.1549
  456MOL0     C61440   5.921   5.504   7.629 -0.0350  0.8327 -0.3368
  456MOL0     C61441   5.819   5.597   7.559 -0.0684 -0.2637  0.3797
  456MOL0     N61442   5.724   5.654   7.651  0.1407  0.0320 -0.4153
  456MOL0     C61443   5.738   5.753   7.744 -0.9666  0.2788  0.4383
  456MOL0     C61444   5.613   5.753   7.793  0.3068 -0.5426 -0.0557
  456MOL0     C61445   5.585   5.848   7.897  1.0563 -0.6792 -0.6963
  456MOL0     C61446   5.545   5.991   7.848 -0.2196 -0.5547  0.9793
  456MOL0     C61447   5.427   5.977   7.750  0.1244 -0.1705 -0.1090
  456MOL0     C61448   5.397   6.099   7.659 -0.0093  0.1464  0.0646
  456MOL0     O61449   5.505   6.131   7.573 -0.2079  0.1560  0.1058
  456MOL0     C61450   5.565   6.043   7.488  0.3416 -0.4058  0.7243
  456MOL0     C61451   5.478   5.971   7.404 -0.2937  0.8922 -0.1540
  456MOL0     C61452   5.537   5.876   7.314 -0.2548  0.2203  0.1830
  456MOL0     C61453   5.679   5.850   7.311  1.3651  0.1595 -0.3842
  456MOL0     C61454   5.732   5.732   7.256  0.8186  0.0672  0.8028
  456MOL0     O61455   5.863   5.723   7.256  0.1555  0.0311 -0.6164
  456MOL0     C61456   5.942   5.618   7.194  0.0052 -0.0476 -0.7053
  456MOL0     C61457   6.054   5.642   7.124  0.2961  1.4399  0.0673
  456MOL0     C61458   6.110   5.544   7.042  0.8772 -1.1477 -0.0506
  456MOL0     C61459   6.068   5.413   7.030 -0.3309  0.0572 -0.1307
  456MOL0     O61460   6.144   5.327   6.954 -0.3260 -0.0500  0.5144
  456MOL0     C61461   6.086   5.211   6.897  0.1848  0.7884  0.0809
  456MOL0     C61462   6.173   5.161   6.780 -0.1331 -1.3348 -0.0741
  456MOL0     C61463   6.179   5.271   6.667 -0.2877 -0.1789 -0.0828
  456MOL0     C61464   6.296   5.243   6.578 -0.0134 -0.0352  0.3646
  456MOL0     C61465   6.300   5.353   6.477  0.3677 -1.4184  0.2837
  456MOL0     C61466   6.429   5.345   6.387  1.2635  0.2862 -0.6055
  456MOL0     C61467   6.426   5.461   6.289  0.2149 -0.2695  0.5689
  456MOL0     C61468   6.298   5.475   6.208 -0.1235 -0.4941  0.3848
  456MOL0    Cl61469   6.276   5.315   6.123  0.1145  0.5003  0.8770
  456MOL0     C61470   5.952   5.382   7.105  0.2734 -0.7455 -0.2284
  456MOL0     C61471   5.893   5.489   7.192  0.0202  0.0942  0.8170
  456MOL0     O61472   5.655   5.666   7.189  0.1504  0.4088  0.2246
  456MOL0     C61473   5.754   5.942   7.377 -0.4634  0.6287 -0.3935
  456MOL0     C61474   5.701   6.040   7.460  0.4523  0.6803  0.3043
  456MOL0     N61475   5.533   5.649   7.748 -0.2629  0.0138  0.1883
  456MOL0     N61476   5.596   5.597   7.656 -0.8194 -0.0940 -0.4259
  456MOL0     C61477   6.622   4.973   7.194 -0.0837  0.1852  0.6762
  456MOL0     C61478   6.760   5.009   7.206  0.4556  0.1849  0.3067
  456MOL0     C61479   7.160   5.162   7.263 -0.2635  0.6002 -0.0799
  456MOL0     C61480   7.162   5.302   7.293 -0.0883  0.6055  0.4015
  456MOL0     C61481   7.283   5.374   7.303 -0.3019 -0.7393  0.7201
  456MOL0     C61482   7.406   5.314   7.280 -0.5814  0.1964  0.1522
  456MOL0     O61483   7.508   5.401   7.296 -0.7816  0.1124  0.4306
  456MOL0     C61484   7.646   5.355   7.265  0.6639  0.6863 -0.2751
  456MOL0     C61485   7.720   5.313   7.396 -0.2646 -0.1328  1.1025
  456MOL0     C61486   7.660   5.186   7.466  0.3340 -0.1850 -0.9508
  456MOL0     C61487   7.745   5.126   7.581 -0.2652 -1.1148  0.1013
  456MOL0     C61488   7.773   5.233   7.680  1.0044  0.1343  0.1480
  456MOL0     C61489   7.770   5.332   7.746  0.3204  0.2826 -0.2812
  456MOL0     C61490   7.409   5.171   7.252 -0.3049  0.0972 -0.0469
  456MOL0     C61491   7.288   5.095   7.248  0.5579 -0.6974  0.1802
  456MOL0     C61492   7.304   4.951   7.231  0.0687 -0.5334  0.2729
  456MOL0     H61493   6.736   5.261   7.438 -0.1005 -0.7085  0.5276
  456MOL0     H61494   6.504   5.204   7.417  1.1847  0.0975  2.3168
  456MOL0     H61495   6.298   4.905   7.412 -2.0914 -0.2216  0.3950
  456MOL0     H61496   6.345   5.061   7.476 -0.7074  1.0649  0.1262
  456MOL0     H61497   6.109   4.979   7.312 -0.4638  0.8936 -0.3863
  456MOL0     H61498   6.170   5.136   7.274  1.9006 -0.1393 -0.6310
  456MOL0     H61499   6.164   5.175   7.524  1.8449 -1.1468 -1.1659
  456MOL0     H61500   6.070   5.031   7.543  0.2129  0.3743  0.9931
  456MOL0     H61501   5.967   5.220   7.339 -0.3259  0.4693  1.3548
  456MOL0     H61502   5.889   5.085   7.418  1.0369 -1.8952  1.6948
  456MOL0     H61503   5.801   5.287   7.536  0.9959  1.3231  0.3390
  456MOL0     H61504   5.924   5.212   7.642  2.4259  0.2396  0.2717
  456MOL0     H61505   6.083   5.368   7.589 -0.6860 -1.2294  1.8162
  456MOL0     H61506   5.983   5.431   7.443  1.6935 -1.9820 -0.5015
  456MOL0     H61507   6.007   5.570   7.646 -1.6151  4.0211 -3.5538
  456MOL0     H61508   5.886   5.469   7.727  1.4367  3.9045  1.4482
  456MOL0     H61509   5.878   5.676   7.513  0.8341 -1.6670 -0.9867
  456MOL0     H61510   5.766   5.542   7.481 -0.7433 -1.1267  1.4192
  456MOL0     H61511   5.826   5.814   7.760 -0.2657 -0.4160 -0.6140
  456MOL0     H61512   5.508   5.808   7.964 -1.4211  0.6036 -2.6017
  456MOL0     H61513   5.671   5.858   7.965  0.6538 -0.3853 -0.2153
  456MOL0     H61514   5.523   6.060   7.930  3.5342  0.0864  1.6177
  456MOL0     H61515   5.632   6.034   7.797 -2.9308  3.2537 -0.9693
  456MOL0     H61516   5.341   5.955   7.815  0.6049 -0.9354  0.2779
  456MOL0     H61517   5.452   5.892   7.687  4.5118  1.4064 -0.8530
  456MOL0     H61518   5.376   6.188   7.720 -1.2950  0.9134 -1.4168
  456MOL0     H61519   5.311   6.080   7.595 -0.3251  1.5970  0.0264
  456MOL0     H61520   5.372   5.996   7.414  0.0862  1.8204  2.7044
  456MOL0     H61521   5.481   5.799   7.261  3.4701 -1.3673 -1.8353
  456MOL0     H61522   6.093   5.743   7.117  2.0469  0.8822  1.1799
  456MOL0     H61523   6.199   5.570   6.986 -1.8435  1.7980 -3.4693
  456MOL0     H61524   6.089   5.129   6.968 -2.1959  0.1265 -0.5069
  456MOL0     H61525   5.984   5.230   6.862  0.0099  0.5645  0.4655
  456MOL0     H61526   6.271   5.138   6.824 -0.2952  0.8026  1.5855
  456MOL0     H61527   6.137   5.071   6.730 -1.1245 -0.8169 -0.3064
  456MOL0     H61528   6.088   5.256   6.608 -1.2330 -2.6182  1.7847
  456MOL0     H61529   6.175   5.374   6.705 -0.9353 -0.2599  0.0768
  456MOL0     H61530   6.285   5.151   6.519  0.6931 -0.0343  0.2169
  456MOL0     H61531   6.383   5.233   6.642 -0.4264 -5.2703  0.5048
  456MOL0     H61532   6.300   5.453   6.520 -1.3073 -1.0526 -0.4954
  456MOL0     H61533   6.207   5.341   6.420 -2.4344 -1.5034  4.4422
  456MOL0     H61534   6.525   5.354   6.440  0.3130  1.2650  1.0379
  456MOL0     H61535   6.432   5.252   6.330 -2.7695  2.0508 -4.1988
  456MOL0     H61536   6.511   5.454   6.220  1.6687  0.8428  2.1733
  456MOL0     H61537   6.433   5.554   6.345 -0.2653 -0.0506  0.2728
  456MOL0     H61538   6.206   5.496   6.264  0.1513 -0.4737  0.8312
  456MOL0     H61539   6.305   5.552   6.131 -2.0848  2.4102  2.8639
  456MOL0     H61540   5.912   5.282   7.108  1.2762 -1.1334  1.9499
  456MOL0     H61541   5.796   5.467   7.234  0.4262  1.3340  2.5184
  456MOL0     H61542   5.862   5.932   7.367 -0.3817 -3.0718  2.1113
  456MOL0     H61543   5.765   6.107   7.517  1.9010 -2.9400  3.4127
  456MOL0     H61544   6.598   4.903   7.115  0.5856  0.6448  0.0572
  456MOL0     H61545   6.827   4.961   7.135 -1.9072  1.5587 -3.0609
  456MOL0     H61546   7.069   5.357   7.296  0.1800  1.3151 -2.0391
  456MOL0     H61547   7.299   5.475   7.340  0.4162 -0.9352  0.9594
  456MOL0     H61548   7.698   5.444   7.228 -0.8877  3.1171  2.8890
  456MOL0     H61549   7.644   5.280   7.186  0.3595  0.6621 -0.2457
  456MOL0     H61550   7.718   5.395   7.469 -3.2540 -0.0298  1.0484
  456MOL0     H61551   7.817   5.281   7.357 -1.3461 -2.1774 -0.0749
  456MOL0     H61552   7.640   5.098   7.405  1.9038 -0.0260 -1.7457
  456MOL0     H61553   7.559   5.208   7.502 -0.0063 -2.6166 -0.2621
  456MOL0     H61554   7.685   5.050   7.630 -3.3036  1.6622  1.0859
  456MOL0     H61555   7.838   5.077   7.550 -0.3077 -1.2977  0.2674
  456MOL0     H61556   7.787   5.425   7.798 -2.0278  1.9266 -2.2415
  456MOL0     H61557   7.499   5.121   7.217  0.9277 -1.2043  4.3961
  456MOL0     H61558   7.265   4.910   7.324  0.4345 -0.1460  0.6001
  456MOL0     H61559   7.250   4.915   7.143  2.5164 -3.3526 -0.2691
  456MOL0     H61560   7.410   4.925   7.222  0.3116  0.7138 -0.7209
  457MOL0     O61561   0.339   5.850   2.869 -0.2216  0.6627 -0.5401
  457MOL0     C61562   0.224   5.884   2.842  0.2709  0.5555 -0.2355
  457MOL0     O61563   0.114   5.797   2.850  0.1813 -0.4171  0.5775
  457MOL0     C61564   0.116   5.669   2.904 -0.0995 -0.0977 -0.6426
  457MOL0     C61565   0.014   5.621   2.997 -0.5695  0.7874  0.5217
  457MOL0     C61566   0.026   5.493   3.047  0.2062  0.5932 -0.2461
  457MOL0     C61567   0.131   5.414   3.017 -0.8633 -0.2152 -0.0864
  457MOL0     O61568   0.154   5.289   3.075 -0.4127 -0.2147  0.2918
  457MOL0     C61569   0.118   5.177   2.996 -0.3781 -0.3062 -0.0075
  457MOL0     C61570   0.218   5.050   2.999  0.7756 -0.4456 -0.5097
  457MOL0     C61571   0.372   5.086   3.008  0.0207 -1.0552  0.2501
  457MOL0     C61572   0.424   5.104   3.157 -0.7083  0.3305 -0.4836
  457MOL0     C61573   0.575   5.082   3.178  0.0223 -0.2276 -0.0825
  457MOL0     C61574   0.604   5.080   3.326 -0.2216  0.3186  0.4184
  457MOL0     C61575   0.752   5.102   3.344 -0.5033  0.1860 -0.1438
  457MOL0     C61576   0.826   5.037   3.460  0.1350  0.2105 -0.9876
  457MOL0     N61577   0.954   5.093   3.479 -0.2099  0.1550  0.9068
  457MOL0     C61578   1.061   5.010   3.465 -0.4636 -0.7685 -0.7428
  457MOL0     C61579   1.168   5.090   3.433 -0.4993  0.0623 -0.1192
  457MOL0     C61580   1.308   5.035   3.401 -0.3158  1.3106  1.2859
  457MOL0     C61581   1.364   4.954   3.523  0.4295 -0.8421 -0.0292
  457MOL0     C61582   1.504   4.901   3.498  0.6614  0.3271 -0.6877
  457MOL0     C61583   1.625   5.005   3.476  0.6034 -0.8915 -0.1369
  457MOL0     O61584   1.607   5.107   3.581 -0.1004 -0.3862  0.2272
  457MOL0     C61585   1.670   5.222   3.544  0.1998  0.1957 -0.6104
  457MOL0     C61586   1.589   5.311   3.473  0.3583 -0.2977 -0.6206
  457MOL0     C61587   1.637   5.443   3.443  0.5324  1.0405  0.8294
  457MOL0     C61588   1.759   5.480   3.486  0.0504 -0.2353 -0.2534
  457MOL0     C61589   1.804   5.617   3.455 -0.4654  0.1541 -0.1719
  457MOL0     O61590   1.910   5.657   3.519 -0.5384 -0.4861  0.8745
  457MOL0     C61591   1.985   5.775   3.496  0.1995 -0.1817  0.4055
  457MOL0     C61592   2.036   5.815   3.373  0.7243  0.0193  0.1064
  457MOL0     C61593   2.127   5.913   3.361  0.1460 -0.9176 -0.5147
  457MOL0     C61594   2.169   5.991   3.476 -0.2087  0.3842 -0.6938
  457MOL0     O61595   2.264   6.093   3.471 -0.7285  0.7369 -0.2507
  457MOL0     C61596   2.406   6.049   3.451  1.5704  0.5564  0.4434
  457MOL0     C61597   2.495   6.166   3.421  0.9533  0.3512 -0.4283
  457MOL0     C61598   2.474   6.286   3.512 -0.4289 -0.5911  0.3550
  457MOL0     C61599   2.588   6.387   3.510 -0.7617  0.9734  0.5048
  457MOL0     C61600   2.595   6.477   3.384 -0.0746 -0.8537  0.2958
  457MOL0     C61601   2.711   6.577   3.383  0.2616 -0.2744 -0.5545
  457MOL0     C61602   2.840   6.515   3.347 -0.4115  0.0875  0.1210
  457MOL0     C61603   2.953   6.607   3.390 -0.2443  0.1096 -1.4189
  457MOL0    Cl61604   2.936   6.770   3.303 -0.3363  0.5141 -0.1488
  457MOL0     C61605   2.109   5.965   3.601  0.1064  1.0315 -0.0809
  457MOL0     C61606   2.010   5.857   3.610 -1.2462  0.1165  0.1511
  457MOL0     O61607   1.742   5.681   3.371 -0.2572  0.4884  0.4007
  457MOL0     C61608   1.844   5.396   3.556 -0.3032  0.4980 -0.4640
  457MOL0     C61609   1.796   5.267   3.588 -0.6369 -0.5485 -0.5386
  457MOL0     N61610   1.126   5.228   3.432  0.5459 -0.2796 -1.0375
  457MOL0     N61611   0.997   5.227   3.455  0.2705 -0.6218 -0.7374
  457MOL0     C61612   0.235   5.464   2.929  1.1425  0.2903 -0.3915
  457MOL0     C61613   0.221   5.586   2.865  0.7978  1.4405 -0.6155
  457MOL0     C61614   0.190   6.018   2.807  0.6759 -0.8951  0.3492
  457MOL0     C61615   0.078   6.032   2.716  0.6269 -0.4398 -0.0942
  457MOL0     C61616   0.040   6.156   2.663  0.3225 -0.8464 -0.5457
  457MOL0     C61617   0.104   6.273   2.696  0.3218 -0.0220  0.9938
  457MOL0     O61618   0.061   6.386   2.634  0.1013  0.5213  0.1112
  457MOL0     C61619   0.128   6.506   2.665  0.1020 -0.6241 -0.1023
  457MOL0     C61620   0.088   6.619   2.572 -0.2809 -0.0554 -0.2242
  457MOL0     C61621   0.113   6.584   2.421 -0.0729  0.6012  0.0827
  457MOL0     C61622   0.090   6.713   2.338 -0.6775 -0.6968  0.2275
  457MOL0     C61623  -0.049   6.753   2.328 -0.2879 -0.1106  0.5669
  457MOL0     C61624  -0.167   6.777   2.309  0.5377 -1.0339 -0.4179
  457MOL0     C61625   0.221   6.260   2.778 -0.1147  0.3781  0.6956
  457MOL0     C61626   0.260   6.138   2.831 -0.9390 -0.1689  0.7145
  457MOL0     C61627   0.385   6.148   2.919  0.5477 -0.1222 -0.3096
  457MOL0     H61628  -0.071   5.685   3.020 -0.6439  1.0808 -0.5073
  457MOL0     H61629  -0.049   5.444   3.108 -0.6430 -3.9652 -4.2672
  457MOL0     H61630   0.018   5.138   3.017 -1.8896  0.5618 -4.3789
  457MOL0     H61631   0.102   5.218   2.895 -1.4517  2.2540  1.1012
  457MOL0     H61632   0.195   4.988   2.912 -3.1202  1.4174 -1.0487
  457MOL0     H61633   0.192   4.990   3.087  0.2891 -0.1949 -0.4771
  457MOL0     H61634   0.396   5.184   2.964  0.8341 -1.4234 -0.1551
  457MOL0     H61635   0.425   5.006   2.955  1.1085 -1.5542  1.9980
  457MOL0     H61636   0.399   5.202   3.198 -1.2827 -0.1999  0.4985
  457MOL0     H61637   0.385   5.020   3.216  1.2616 -0.7051 -0.5679
  457MOL0     H61638   0.617   4.990   3.137  0.1891 -0.0748 -0.2589
  457MOL0     H61639   0.622   5.159   3.117 -0.8335  0.4637  0.1016
  457MOL0     H61640   0.554   5.154   3.389  0.2685 -1.1528  2.6682
  457MOL0     H61641   0.579   4.980   3.363  1.7816 -0.1426  0.6250
  457MOL0     H61642   0.772   5.210   3.347  2.4909 -0.2892  0.8956
  457MOL0     H61643   0.804   5.066   3.255  0.9319 -1.2064  1.2001
  457MOL0     H61644   0.771   5.060   3.552  1.8204  0.0700  0.0841
  457MOL0     H61645   0.826   4.931   3.433 -1.2970  0.2106 -1.0708
  457MOL0     H61646   1.065   4.902   3.452 -1.0286 -1.0622  1.1261
  457MOL0     H61647   1.309   4.963   3.318 -1.8196  1.2363  1.3050
  457MOL0     H61648   1.365   5.124   3.372  1.7337  0.2946  1.9874
  457MOL0     H61649   1.363   5.021   3.610 -1.3239  0.5462 -1.0507
  457MOL0     H61650   1.295   4.873   3.549  2.6287 -2.2079  1.9953
  457MOL0     H61651   1.502   4.824   3.421 -1.6716  2.2650 -2.7219
  457MOL0     H61652   1.528   4.844   3.588  1.1331  1.1900 -0.2550
  457MOL0     H61653   1.616   5.035   3.371  0.8892 -5.0548 -1.5187
  457MOL0     H61654   1.720   4.952   3.489  0.2196 -1.3680  0.7811
  457MOL0     H61655   1.494   5.264   3.450  0.9386 -2.0270  0.3758
  457MOL0     H61656   1.568   5.507   3.388  1.0165  3.3109  2.6818
  457MOL0     H61657   2.005   5.760   3.285  2.0915 -1.0950  0.2926
  457MOL0     H61658   2.187   5.947   3.277 -0.6984  0.3443 -0.6315
  457MOL0     H61659   2.444   5.997   3.540 -0.5047  0.2918  1.2462
  457MOL0     H61660   2.410   5.982   3.365 -1.3309 -0.6318  1.0813
  457MOL0     H61661   2.599   6.135   3.430  1.0177  1.1070  1.8622
  457MOL0     H61662   2.474   6.202   3.319 -1.6401  0.1916 -0.0160
  457MOL0     H61663   2.385   6.343   3.482  0.2465  0.1725 -0.2653
  457MOL0     H61664   2.463   6.255   3.616  0.4598 -0.3332  0.5370
  457MOL0     H61665   2.679   6.327   3.514 -0.1866  1.6467 -1.6029
  457MOL0     H61666   2.592   6.439   3.606 -1.1696  2.0077 -0.0259
  457MOL0     H61667   2.502   6.533   3.385 -0.4112 -1.4097  0.6729
  457MOL0     H61668   2.598   6.414   3.295 -2.1716 -1.6543  0.7470
  457MOL0     H61669   2.688   6.650   3.305  1.2616 -1.5303 -2.0723
  457MOL0     H61670   2.712   6.628   3.480 -0.6815  1.4118 -1.3826
  457MOL0     H61671   2.855   6.497   3.240 -0.5916  1.0142 -0.0627
  457MOL0     H61672   2.845   6.420   3.402  3.9068  0.6774  1.0668
  457MOL0     H61673   2.947   6.628   3.497  1.9795  1.3803 -1.4753
  457MOL0     H61674   3.047   6.553   3.373 -1.3759 -2.4410 -0.1182
  457MOL0     H61675   2.142   6.014   3.693  0.8204  0.6057 -0.0987
  457MOL0     H61676   1.975   5.843   3.712  1.1146 -0.1159  0.9893
  457MOL0     H61677   1.942   5.428   3.590  0.3895 -0.8928 -1.0833
  457MOL0     H61678   1.854   5.189   3.637 -2.9414  0.4425  4.3661
  457MOL0     H61679   0.314   5.394   2.902 -0.7237 -2.2939  0.4532
  457MOL0     H61680   0.294   5.627   2.795  1.3841  0.1298 -0.8082
  457MOL0     H61681   0.009   5.951   2.690  1.1680 -0.5440 -1.2910
  457MOL0     H61682  -0.043   6.159   2.593 -0.8992  2.8067  0.8496
  457MOL0     H61683   0.236   6.497   2.648  0.6133  2.9914  0.5709
  457MOL0     H61684   0.123   6.530   2.772  0.0794  1.3392 -0.5066
  457MOL0     H61685   0.154   6.701   2.600 -1.1932  0.3442  0.8537
  457MOL0     H61686  -0.009   6.666   2.590  0.1039  1.4157 -1.7860
  457MOL0     H61687   0.037   6.514   2.385 -2.9266  2.2549  2.4410
  457MOL0     H61688   0.214   6.545   2.405 -0.6319 -0.6863 -0.4543
  457MOL0     H61689   0.137   6.800   2.384 -0.7905  0.7686 -2.2737
  457MOL0     H61690   0.137   6.684   2.244 -0.2551  1.3840 -0.2454
  457MOL0     H61691  -0.270   6.805   2.299  0.5303  0.7821  3.1980
  457MOL0     H61692   0.280   6.350   2.790  0.3025  0.1748  0.1983
  457MOL0     H61693   0.372   6.251   2.956 -2.3122 -0.4176 -0.2687
  457MOL0     H61694   0.388   6.082   3.006  0.6649  0.7253  0.3471
  457MOL0     H61695   0.485   6.130   2.878  1.3005  2.2176  0.3323
  458MOL0     O61696   9.843   9.765   9.733  0.1347 -0.2597 -0.1160
  458MOL0     C61697   9.743   9.692   9.720  0.8681 -0.3345 -0.0285
  458MOL0     O61698   9.652   9.705   9.618  0.1651 -0.4038 -0.4868
  458MOL0     C61699   9.654   9.806   9.520  0.5930  0.4457 -0.2407
  458MOL0     C61700   9.632   9.942   9.551  0.9333  0.6699 -0.1091
  458MOL0     C61701   9.666  10.040   9.457 -0.2019  0.1802 -0.3419
  458MOL0     C61702   9.690  10.006   9.324 -1.3128  0.3831  0.4220
  458MOL0     O61703   9.712  10.092   9.211  0.4138  0.2596 -0.3593
  458MOL0     C61704   9.721  10.235   9.242  0.1721 -0.1267 -0.5915
  458MOL0     C61705   9.856  10.281   9.305  0.9000  0.0880  0.8541
  458MOL0     C61706   9.976  10.238   9.219  0.1749  0.6825 -0.0471
  458MOL0     C61707   9.964  10.292   9.070 -0.3767 -0.5069  0.0161
  458MOL0     C61708  10.099  10.261   9.005  0.4045  0.7073  0.1736
  458MOL0     C61709  10.209  10.351   9.043 -0.0752 -0.4802 -0.1680
  458MOL0     C61710  10.310  10.360   8.930  0.0904  0.7347  0.7908
  458MOL0     C61711  10.405  10.477   8.945  0.8872 -0.8651 -0.5863
  458MOL0     N61712  10.535  10.461   8.866 -0.7378  0.0990 -0.4542
  458MOL0     C61713  10.646  10.383   8.893  0.5613 -0.8278 -0.0776
  458MOL0     C61714  10.734  10.426   8.801  1.2861  0.1291  0.0266
  458MOL0     C61715  10.858  10.340   8.762  0.2813  1.4733  0.6306
  458MOL0     C61716  10.975  10.371   8.865 -0.3247 -0.0135 -0.3025
  458MOL0     C61717  11.124  10.327   8.830 -0.3987  0.1474  0.5102
  458MOL0     C61718  11.121  10.177   8.819 -0.1190  0.5335 -0.6501
  458MOL0     O61719  11.246  10.120   8.776  0.2873 -0.6677  0.6673
  458MOL0     C61720  11.355  10.114   8.858 -0.4715  0.9321 -0.3827
  458MOL0     C61721  11.465  10.044   8.801  0.1508  0.1520 -0.2647
  458MOL0     C61722  11.594  10.051   8.865  0.2474  0.3953 -0.7049
  458MOL0     C61723  11.607  10.116   8.988 -0.0623  0.1475 -0.4990
  458MOL0     C61724  11.743  10.121   9.045  1.4151 -0.4196 -0.2274
  458MOL0     O61725  11.850  10.106   8.965  0.0833  0.3903  0.0330
  458MOL0     C61726  11.972  10.117   9.030 -0.4435 -0.5730  0.3525
  458MOL0     C61727  12.024  10.245   9.050 -0.2929 -0.0536 -0.2819
  458MOL0     C61728  12.144  10.270   9.118 -0.5268  0.1087 -0.1631
  458MOL0     C61729  12.221  10.158   9.166 -0.2901 -0.3033 -0.9785
  458MOL0     O61730  12.351  10.160   9.219  0.0975 -0.0520  0.6609
  458MOL0     C61731  12.367  10.256   9.322  0.2358  0.5012 -0.0576
  458MOL0     C61732  12.516  10.275   9.371  0.1353  0.4285  0.3465
  458MOL0     C61733  12.613  10.302   9.252  0.3014  0.8302  0.0947
  458MOL0     C61734  12.719  10.404   9.295 -1.2081  0.2355 -0.0844
  458MOL0     C61735  12.802  10.452   9.179  0.8759 -0.8239  0.3488
  458MOL0     C61736  12.895  10.567   9.230 -0.1364  0.8897  0.9635
  458MOL0     C61737  12.985  10.641   9.113  0.4096 -0.3575  0.6023
  458MOL0     C61738  13.117  10.689   9.150  0.7176  0.1036 -0.0130
  458MOL0    Cl61739  13.106  10.845   9.234  0.1651  0.7693 -0.0664
  458MOL0     C61740  12.167  10.027   9.145 -0.0203  0.2356  0.2386
  458MOL0     C61741  12.051  10.007   9.072  0.4431  0.0794  0.7039
  458MOL0     O61742  11.740  10.131   9.166 -0.6807 -0.6283  0.0177
  458MOL0     C61743  11.491  10.154   9.058 -0.0080  0.6244  0.5033
  458MOL0     C61744  11.369  10.162   8.992 -0.1822  0.5723 -0.3564
  458MOL0     N61745  10.682  10.539   8.734 -0.6493  0.4006 -0.1587
  458MOL0     N61746  10.558  10.552   8.771  0.1223  0.0254 -0.4489
  458MOL0     C61747   9.719   9.866   9.301  0.2051  1.0850  0.6304
  458MOL0     C61748   9.707   9.767   9.394  0.0564 -0.9871  0.5984
  458MOL0     C61749   9.712   9.608   9.835  0.3112  0.2838 -0.7407
  458MOL0     C61750   9.632   9.664   9.938 -0.2612  1.4342 -0.0769
  458MOL0     C61751   9.596   9.593  10.047  0.3555 -0.8506  0.4428
  458MOL0     C61752   9.621   9.461  10.047 -0.4578  0.5871 -0.1284
  458MOL0     O61753   9.583   9.382  10.155 -0.5234  0.1504  0.1790
  458MOL0     C61754   9.455   9.414  10.219  0.0907 -0.1528  0.2731
  458MOL0     C61755   9.395   9.280  10.266 -0.1860 -0.2220  0.5224
  458MOL0     C61756   9.490   9.225  10.381  0.0487 -0.1966  0.2914
  458MOL0     C61757   9.431   9.104  10.462 -0.0701  0.7164 -0.3531
  458MOL0     C61758   9.291   9.123  10.523 -0.6076 -0.8088  0.1879
  458MOL0     C61759   9.184   9.153  10.556  0.3017  1.0573 -0.4503
  458MOL0     C61760   9.695   9.396   9.949  0.7761  0.2905 -0.7502
  458MOL0     C61761   9.742   9.466   9.836 -0.1453 -0.5362 -0.1338
  458MOL0     C61762   9.804   9.388   9.729 -0.6007 -0.4096 -0.0596
  458MOL0     H61763   9.604   9.976   9.651  0.4194 -0.0347 -0.0045
  458MOL0     H61764   9.671  10.142   9.493  3.4601 -0.0362  0.1377
  458MOL0     H61765   9.688  10.275   9.146 -0.3717  0.0789 -0.3242
  458MOL0     H61766   9.645  10.261   9.316  1.6061  1.1157  0.5307
  458MOL0     H61767   9.876  10.238   9.404  1.4177 -1.8317 -0.0519
  458MOL0     H61768   9.855  10.391   9.313 -3.2913  0.2777  0.3039
  458MOL0     H61769   9.983  10.130   9.204  0.8686  0.8620 -1.1880
  458MOL0     H61770  10.059  10.287   9.271 -0.3065  1.4917 -0.0273
  458MOL0     H61771   9.882  10.246   9.014 -1.1927  0.5219  0.3160
  458MOL0     H61772   9.943  10.400   9.065  2.1676  0.0172 -0.5101
  458MOL0     H61773  10.128  10.157   9.021 -0.3918  0.1807 -1.5486
  458MOL0     H61774  10.077  10.267   8.898 -0.7221 -3.5530  0.0052
  458MOL0     H61775  10.175  10.454   9.057  1.0374 -0.2831  1.3920
  458MOL0     H61776  10.267  10.312   9.127  1.0593  0.9261 -0.2529
  458MOL0     H61777  10.255  10.378   8.837  2.4767 -0.2526 -0.9202
  458MOL0     H61778  10.368  10.268   8.923  0.3292  1.0035 -2.2837
  458MOL0     H61779  10.351  10.570   8.927 -1.2609 -1.0838  3.5332
  458MOL0     H61780  10.434  10.478   9.051 -0.8464  3.1590 -0.0024
  458MOL0     H61781  10.652  10.304   8.967 -0.2429  1.9166  3.1398
  458MOL0     H61782  10.823  10.237   8.770 -0.4709  1.2284 -3.6379
  458MOL0     H61783  10.893  10.362   8.661 -0.6647 -0.6282 -0.2042
  458MOL0     H61784  10.975  10.480   8.874 -0.0029 -0.1501  1.6724
  458MOL0     H61785  10.945  10.347   8.967 -0.2092  1.1899  0.0259
  458MOL0     H61786  11.191  10.369   8.906  0.6997  3.5189 -2.0669
  458MOL0     H61787  11.143  10.371   8.732 -1.4579 -2.1380 -0.7983
  458MOL0     H61788  11.051  10.126   8.752  3.3010 -0.5702 -3.6797
  458MOL0     H61789  11.092  10.144   8.919  2.5841  1.0426  0.3691
  458MOL0     H61790  11.454  10.000   8.702  1.7235 -0.1544 -0.3259
  458MOL0     H61791  11.679  10.003   8.817  1.1381 -1.8836  2.7555
  458MOL0     H61792  11.958  10.317   9.002  0.2570 -0.0657 -1.0633
  458MOL0     H61793  12.183  10.371   9.126 -0.2884 -0.0972  1.9038
  458MOL0     H61794  12.334  10.350   9.277 -1.5269 -1.6874 -3.7660
  458MOL0     H61795  12.296  10.227   9.400  2.9111  2.0809  3.2504
  458MOL0     H61796  12.522  10.354   9.447 -0.2517  2.0493 -1.2513
  458MOL0     H61797  12.550  10.187   9.426  0.6767  1.0176  0.9896
  458MOL0     H61798  12.670  10.213   9.223  3.0418  2.0683  1.2618
  458MOL0     H61799  12.563  10.343   9.164 -1.1353 -1.3535 -0.1524
  458MOL0     H61800  12.781  10.365   9.377 -1.7660 -0.4026  0.0401
  458MOL0     H61801  12.672  10.488   9.346  1.0041  0.8226  1.1240
  458MOL0     H61802  12.737  10.496   9.103 -2.2396  0.6565  3.5851
  458MOL0     H61803  12.873  10.375   9.146  2.5912  1.3525 -1.3316
  458MOL0     H61804  12.824  10.637   9.277 -2.4820 -0.3339 -0.5722
  458MOL0     H61805  12.964  10.524   9.303 -1.4354  0.9785  2.2984
  458MOL0     H61806  12.929  10.727   9.076  0.4152 -1.3532 -1.9407
  458MOL0     H61807  12.996  10.575   9.026 -3.0624  0.7469 -0.8347
  458MOL0     H61808  13.171  10.612   9.205 -0.1519  1.4044  2.8452
  458MOL0     H61809  13.163  10.718   9.054  1.4610  1.3646  0.6859
  458MOL0     H61810  12.231   9.944   9.173  0.1262 -0.3044 -1.5927
  458MOL0     H61811  12.020   9.908   9.041 -4.3244  1.9460 -1.4399
  458MOL0     H61812  11.506  10.201   9.155 -0.0215  2.3885 -0.3072
  458MOL0     H61813  11.287  10.214   9.041 -1.2592 -0.2129 -1.2876
  458MOL0     H61814   9.757   9.838   9.203 -1.1623  0.5205  0.2249
  458MOL0     H61815   9.742   9.669   9.363 -1.0552 -1.0139 -0.6570
  458MOL0     H61816   9.603   9.768   9.935 -1.5964  1.0797 -0.0851
  458MOL0     H61817   9.534   9.644  10.120 -0.4090  0.0287 -0.7854
  458MOL0     H61818   9.388   9.467  10.149  1.1307  2.9731  1.4493
  458MOL0     H61819   9.459   9.483  10.303  2.2568  2.4237 -1.7365
  458MOL0     H61820   9.399   9.215  10.178  1.6130  2.3645 -1.4573
  458MOL0     H61821   9.292   9.306  10.293 -0.3154 -2.2489  2.2703
  458MOL0     H61822   9.508   9.301  10.457  0.8223 -1.0189  0.9674
  458MOL0     H61823   9.581   9.183  10.336 -0.0559 -0.1757  0.0588
  458MOL0     H61824   9.426   9.020  10.392 -0.7787 -0.2824  0.8537
  458MOL0     H61825   9.487   9.060  10.545 -2.5005 -0.0648  0.9753
  458MOL0     H61826   9.086   9.170  10.596  1.0133 -1.0896  2.5588
  458MOL0     H61827   9.720   9.291   9.940 -2.8390 -0.5937 -2.6979
  458MOL0     H61828   9.733   9.307   9.708  1.2682 -2.3194  0.5275
  458MOL0     H61829   9.817   9.447   9.638 -3.4651  0.4139 -0.0200
  458MOL0     H61830   9.897   9.340   9.763  0.9203  0.6546 -2.4861
  459MOL0     O61831   1.459   5.037   1.439 -0.9545  0.4034  0.7585
  459MOL0     C61832   1.387   4.938   1.421  0.4256 -0.3594  0.2406
  459MOL0     O61833   1.254   4.939   1.441  0.6766  0.3118  0.3333
  459MOL0     C61834   1.173   5.048   1.463 -0.3471 -0.2352  0.2392
  459MOL0     C61835   1.203   5.179   1.421 -0.0232 -0.2865 -0.4463
  459MOL0     C61836   1.112   5.289   1.440 -0.1065 -0.5954  0.4316
  459MOL0     C61837   0.987   5.263   1.488 -0.4618  0.7658  1.0130
  459MOL0     O61838   0.902   5.370   1.509  0.3533 -0.0894 -0.5743
  459MOL0     C61839   0.824   5.375   1.630  0.2547 -0.0628 -0.5902
  459MOL0     C61840   0.761   5.513   1.622 -0.5523 -0.4386  0.0951
  459MOL0     C61841   0.688   5.547   1.755  0.1077 -0.4580  0.9795
  459MOL0     C61842   0.641   5.690   1.764 -0.4168  0.8530 -0.8406
  459MOL0     C61843   0.526   5.700   1.857  0.4390 -0.1665  0.1529
  459MOL0     C61844   0.498   5.837   1.915 -0.3810  0.0786  0.2224
  459MOL0     C61845   0.370   5.840   2.011  0.2174  0.0586  0.4883
  459MOL0     C61846   0.239   5.797   1.948 -0.7407  0.2772  0.5106
  459MOL0     N61847   0.114   5.833   2.009 -0.2223 -0.2644  0.2281
  459MOL0     C61848   0.095   5.925   2.109  0.4191 -0.0033  0.0543
  459MOL0     C61849  -0.043   5.929   2.123  0.4023 -0.0394 -0.9045
  459MOL0     C61850  -0.105   6.006   2.242 -0.2972  0.8679  0.5113
  459MOL0     C61851  -0.161   6.134   2.185 -0.1598 -1.1145  0.0613
  459MOL0     C61852  -0.256   6.202   2.283  0.0715 -0.5583  0.0025
  459MOL0     C61853  -0.362   6.282   2.201 -0.0597 -0.3271  0.4455
  459MOL0     O61854  -0.292   6.363   2.102 -0.4208 -0.9732 -0.1011
  459MOL0     C61855  -0.359   6.389   1.986  0.3523  0.0653 -0.9364
  459MOL0     C61856  -0.287   6.394   1.874  0.1176 -0.0436 -0.8723
  459MOL0     C61857  -0.340   6.422   1.749  0.1900  0.4908 -0.4073
  459MOL0     C61858  -0.477   6.464   1.737 -1.1261 -0.7574  0.7182
  459MOL0     C61859  -0.531   6.513   1.604  1.2079  0.0397  0.2404
  459MOL0     O61860  -0.643   6.594   1.611 -0.5590 -0.5869 -0.6122
  459MOL0     C61861  -0.662   6.689   1.521  0.3423  0.9089  0.4623
  459MOL0     C61862  -0.788   6.725   1.525  0.5107  0.7606  0.2302
  459MOL0     C61863  -0.841   6.812   1.427 -0.8188 -1.4477  0.1255
  459MOL0     C61864  -0.756   6.880   1.336 -0.9134  0.2339  0.4444
  459MOL0     O61865  -0.801   6.970   1.244  0.4737  0.4665 -0.2130
  459MOL0     C61866  -0.925   6.953   1.174 -0.0576 -0.2770  0.2329
  459MOL0     C61867  -1.005   7.073   1.190  1.1656 -0.0531  0.2027
  459MOL0     C61868  -1.105   7.103   1.079  0.8815 -0.2429 -0.4166
  459MOL0     C61869  -1.189   7.232   1.114 -0.2134  0.0858 -0.6310
  459MOL0     C61870  -1.299   7.275   1.023  0.3159 -0.2814  0.4491
  459MOL0     C61871  -1.420   7.189   1.016 -0.2153  1.1996  0.6078
  459MOL0     C61872  -1.540   7.232   0.930  1.1697 -0.1110  0.3905
  459MOL0     C61873  -1.620   7.113   0.871 -1.0539 -0.1340 -0.4806
  459MOL0    Cl61874  -1.763   7.176   0.794 -0.3214 -0.2418 -0.0437
  459MOL0     C61875  -0.620   6.853   1.349 -0.3465 -0.5010  0.1448
  459MOL0     C61876  -0.570   6.761   1.443  1.1201  0.4094  0.0564
  459MOL0     O61877  -0.473   6.486   1.499  0.0225  0.5555  0.4271
  459MOL0     C61878  -0.553   6.465   1.852 -0.0496  0.2019 -0.3454
  459MOL0     C61879  -0.502   6.417   1.976  0.3462  0.0007  0.3766
  459MOL0     N61880  -0.097   5.836   2.036  0.3241  0.2341  0.9271
  459MOL0     N61881  -0.004   5.777   1.967 -0.2217 -0.0291  0.4240
  459MOL0     C61882   0.956   5.129   1.526  0.0502 -0.6575 -0.4444
  459MOL0     C61883   1.053   5.031   1.529  0.0377 -0.1491  0.4584
  459MOL0     C61884   1.450   4.800   1.401 -0.4286  0.7010 -0.1880
  459MOL0     C61885   1.365   4.688   1.412  0.1839 -0.4136 -0.4530
  459MOL0     C61886   1.403   4.555   1.408 -0.2443 -0.1568  0.4369
  459MOL0     C61887   1.537   4.530   1.370  0.4357  0.1333 -0.0353
  459MOL0     O61888   1.588   4.403   1.368 -0.9243 -0.0631  0.2553
  459MOL0     C61889   1.513   4.289   1.417 -0.3051 -0.2406  0.2887
  459MOL0     C61890   1.571   4.153   1.382 -0.6170 -0.3030 -0.1005
  459MOL0     C61891   1.496   4.041   1.442 -0.4158  0.3390  0.1233
  459MOL0     C61892   1.534   3.897   1.408  0.0571 -0.9815 -0.0453
  459MOL0     C61893   1.678   3.862   1.439  0.6949  0.1977 -0.1908
  459MOL0     C61894   1.792   3.853   1.474  0.1246  0.0225  0.7263
  459MOL0     C61895   1.623   4.642   1.359 -0.2754  0.9172 -0.4592
  459MOL0     C61896   1.587   4.774   1.381  0.0743  0.3702 -0.6918
  459MOL0     C61897   1.694   4.880   1.374 -0.2746  0.2507  0.2386
  459MOL0     H61898   1.299   5.193   1.371 -0.2780  0.1626 -0.8173
  459MOL0     H61899   1.126   5.388   1.398 -2.0314 -0.4673 -0.0014
  459MOL0     H61900   0.761   5.286   1.624  1.8808 -1.1762 -2.2955
  459MOL0     H61901   0.891   5.366   1.716 -1.0892  2.9319  0.9340
  459MOL0     H61902   0.686   5.517   1.543  1.2010 -1.6820 -1.7447
  459MOL0     H61903   0.830   5.596   1.606 -2.8450  1.5653  0.1015
  459MOL0     H61904   0.749   5.517   1.840  1.5064 -1.0562 -0.1893
  459MOL0     H61905   0.599   5.483   1.750 -1.9850  2.3289 -0.9498
  459MOL0     H61906   0.725   5.752   1.797  2.0689 -1.9920 -1.4184
  459MOL0     H61907   0.620   5.742   1.670  0.7254  1.1259 -0.9688
  459MOL0     H61908   0.436   5.660   1.809  0.2737 -1.3639  1.4146
  459MOL0     H61909   0.540   5.626   1.936 -0.0093 -0.6649 -0.2311
  459MOL0     H61910   0.576   5.868   1.986  0.0078 -2.4721  1.0060
  459MOL0     H61911   0.480   5.911   1.836  0.3067  1.4924  1.3403
  459MOL0     H61912   0.355   5.942   2.047  0.2132 -0.0233  0.7232
  459MOL0     H61913   0.387   5.777   2.099 -0.8414  0.2714  0.8644
  459MOL0     H61914   0.234   5.840   1.847 -1.4420 -1.7749 -0.3754
  459MOL0     H61915   0.231   5.688   1.941 -0.3430  0.2148  0.9986
  459MOL0     H61916   0.164   5.988   2.164 -0.2901 -0.3638  1.4091
  459MOL0     H61917  -0.176   5.930   2.275 -1.0865  0.8839 -1.0736
  459MOL0     H61918  -0.028   6.022   2.318  2.1920 -0.6777 -1.5108
  459MOL0     H61919  -0.079   6.199   2.152  1.0235 -2.7237 -0.2961
  459MOL0     H61920  -0.219   6.107   2.096 -0.4844 -3.2222  0.8459
  459MOL0     H61921  -0.202   6.266   2.354 -0.2609  0.5454 -0.7184
  459MOL0     H61922  -0.315   6.135   2.346 -0.1315 -0.3874 -0.0046
  459MOL0     H61923  -0.422   6.351   2.262  0.5902  1.3501 -0.7433
  459MOL0     H61924  -0.439   6.219   2.156 -1.3949 -0.9453  3.3259
  459MOL0     H61925  -0.179   6.384   1.882 -0.0514 -0.4838  1.4859
  459MOL0     H61926  -0.279   6.422   1.659  0.2800  1.3991 -0.3509
  459MOL0     H61927  -0.858   6.687   1.598 -1.3018 -0.1696 -1.8773
  459MOL0     H61928  -0.947   6.833   1.419 -0.4029  0.2320 -1.7746
  459MOL0     H61929  -0.896   6.949   1.069  1.0050 -0.2627  0.5117
  459MOL0     H61930  -0.981   6.861   1.195  2.5848 -1.7643  1.3035
  459MOL0     H61931  -1.065   7.048   1.278  1.8150 -3.3973 -0.1446
  459MOL0     H61932  -0.946   7.164   1.195  1.4683 -0.1546 -1.0716
  459MOL0     H61933  -1.055   7.129   0.985 -0.3119  0.0177 -0.9923
  459MOL0     H61934  -1.160   7.011   1.061 -2.3931  1.2716  1.1031
  459MOL0     H61935  -1.124   7.321   1.122  0.3627 -0.2553 -1.3455
  459MOL0     H61936  -1.235   7.220   1.212 -2.2058  1.6739 -1.3089
  459MOL0     H61937  -1.250   7.286   0.926 -0.2181  1.7055  0.3613
  459MOL0     H61938  -1.337   7.372   1.059  1.7233  0.8636 -1.0105
  459MOL0     H61939  -1.389   7.095   0.969  1.6241 -0.0204  3.9040
  459MOL0     H61940  -1.442   7.146   1.114  2.5808  1.7550  1.5903
  459MOL0     H61941  -1.501   7.310   0.863  5.4365 -1.9300  0.4243
  459MOL0     H61942  -1.610   7.286   0.994  0.1631 -1.5272  0.5137
  459MOL0     H61943  -1.562   7.071   0.789  0.2199  1.4159 -0.4358
  459MOL0     H61944  -1.638   7.043   0.953 -2.1265  0.4931 -0.1612
  459MOL0     H61945  -0.552   6.910   1.288 -0.2092 -1.1232 -0.2918
  459MOL0     H61946  -0.465   6.739   1.458  0.5951 -1.5239  1.3456
  459MOL0     H61947  -0.646   6.520   1.848 -0.6283 -0.8039 -1.1074
  459MOL0     H61948  -0.559   6.416   2.068  2.4500 -0.5747  1.7448
  459MOL0     H61949   0.854   5.111   1.556 -0.4917 -0.3666 -2.0004
  459MOL0     H61950   1.036   4.930   1.565  2.3959 -0.7102  0.2143
  459MOL0     H61951   1.260   4.706   1.434  0.4580 -0.0806  0.6479
  459MOL0     H61952   1.334   4.477   1.439 -0.0100 -0.8102 -0.6302
  459MOL0     H61953   1.412   4.290   1.377 -0.8566 -2.3959  1.4625
  459MOL0     H61954   1.509   4.301   1.525 -1.2894 -1.7633  0.4576
  459MOL0     H61955   1.669   4.147   1.430  0.4634  0.0510 -2.1309
  459MOL0     H61956   1.593   4.146   1.275  3.3210  1.5230  0.3884
  459MOL0     H61957   1.389   4.049   1.418  0.0716  1.2766 -1.9337
  459MOL0     H61958   1.512   4.046   1.550 -0.1491 -1.0636  0.1775
  459MOL0     H61959   1.460   3.832   1.455 -2.5295  1.7833  0.0440
  459MOL0     H61960   1.528   3.882   1.300  3.5237 -3.6463 -0.0296
  459MOL0     H61961   1.889   3.851   1.519  0.9090  1.3475 -0.8335
  459MOL0     H61962   1.724   4.608   1.339 -1.4236 -3.0168 -0.4553
  459MOL0     H61963   1.697   4.955   1.453  3.0959 -0.2351  0.7208
  459MOL0     H61964   1.797   4.842   1.375  0.4311  2.0888  0.0707
  459MOL0     H61965   1.675   4.936   1.282  0.4790 -0.8234 -0.5983
  460MOL0     O61966   9.572   7.158  11.092  0.0872 -0.7433  0.0297
  460MOL0     C61967   9.474   7.161  11.170 -0.6417  0.1344 -0.1779
  460MOL0     O61968   9.490   7.151  11.302  0.4231 -0.7578  0.1972
  460MOL0     C61969   9.606   7.199  11.358  0.2512  0.0376 -0.5260
  460MOL0     C61970   9.648   7.331  11.385  0.0458  0.3045 -0.1244
  460MOL0     C61971   9.776   7.360  11.435 -0.5682 -0.6814  0.2460
  460MOL0     C61972   9.869   7.266  11.468  0.4144 -0.9439 -0.9747
  460MOL0     O61973   9.989   7.306  11.501 -0.3141  0.3030  0.3578
  460MOL0     C61974  10.105   7.220  11.521 -0.1428  1.1552 -0.4397
  460MOL0     C61975  10.239   7.300  11.506  0.3225  0.1348 -0.4082
  460MOL0     C61976  10.375   7.217  11.529  0.6801  0.0422 -0.4769
  460MOL0     C61977  10.393   7.208  11.687 -0.6648  0.0530 -0.1930
  460MOL0     C61978  10.533   7.174  11.736 -0.0110  0.1377 -0.7434
  460MOL0     C61979  10.648   7.272  11.695 -0.2769 -0.1949 -0.2744
  460MOL0     C61980  10.776   7.251  11.778  0.1307 -0.7825 -0.1004
  460MOL0     C61981  10.897   7.335  11.730 -1.1227  0.0094  0.0664
  460MOL0     N61982  11.000   7.328  11.832  0.5088 -0.1456  0.1260
  460MOL0     C61983  11.125   7.389  11.815  0.8176 -0.0746 -0.1722
  460MOL0     C61984  11.194   7.358  11.929 -0.1000  0.4955 -0.5969
  460MOL0     C61985  11.330   7.399  11.972  0.5241  0.5734 -0.3628
  460MOL0     C61986  11.439   7.314  11.898 -0.0989 -0.1088 -0.7978
  460MOL0     C61987  11.424   7.168  11.916 -0.1018 -0.4548  0.1928
  460MOL0     C61988  11.436   7.129  12.066 -0.3847 -0.1164  0.1064
  460MOL0     O61989  11.553   7.197  12.110  0.6055 -0.1415  0.3563
  460MOL0     C61990  11.561   7.208  12.250 -0.3152  0.7529 -0.5925
  460MOL0     C61991  11.475   7.153  12.351 -0.2196  1.2414 -0.0044
  460MOL0     C61992  11.503   7.156  12.492 -0.3999  0.4772  0.4874
  460MOL0     C61993  11.620   7.223  12.532  0.6101  0.2454  0.4368
  460MOL0     C61994  11.640   7.230  12.673  0.8791 -0.0289  0.1547
  460MOL0     O61995  11.546   7.194  12.765  0.8593 -0.5387  0.6959
  460MOL0     C61996  11.586   7.188  12.891 -0.1276 -0.0393  0.3876
  460MOL0     C61997  11.570   7.299  12.970  0.4535 -0.7587 -0.3920
  460MOL0     C61998  11.606   7.296  13.111 -0.2347  0.0495 -0.3138
  460MOL0     C61999  11.672   7.179  13.148 -0.2469  0.1845  0.1577
  460MOL0     O62000  11.703   7.142  13.282 -0.5161 -0.4483 -0.2863
  460MOL0     C62001  11.623   7.204  13.384  0.6233 -0.7498 -0.0760
  460MOL0     C62002  11.627   7.137  13.519 -0.0937 -0.4265  0.0581
  460MOL0     C62003  11.567   7.226  13.636 -0.0783  0.2189  0.3119
  460MOL0     C62004  11.516   7.165  13.764  0.2765  1.4781 -0.1838
  460MOL0     C62005  11.383   7.235  13.817  0.0836  0.6219  0.3057
  460MOL0     C62006  11.366   7.194  13.967 -1.0026  0.1037 -0.1575
  460MOL0     C62007  11.310   7.053  13.987  0.8449  0.2919  0.2186
  460MOL0     C62008  11.313   6.997  14.127 -0.4188  0.1837  0.0243
  460MOL0    Cl62009  11.256   6.822  14.166 -0.3129 -0.3535 -0.0807
  460MOL0     C62010  11.707   7.078  13.059 -0.1637 -0.3621  1.1925
  460MOL0     C62011  11.660   7.077  12.931  0.7631 -0.0669  0.4314
  460MOL0     O62012  11.751   7.270  12.693  0.4501 -0.3214  0.1037
  460MOL0     C62013  11.697   7.276  12.430 -0.0893  0.0171 -0.0673
  460MOL0     C62014  11.680   7.260  12.302 -0.3653  0.4228  0.3697
  460MOL0     N62015  11.114   7.283  12.004  0.2764  0.7703  0.4224
  460MOL0     N62016  10.993   7.277  11.960  0.5499  0.5436 -0.3658
  460MOL0     C62017   9.830   7.135  11.452  0.3429  0.1833  0.1856
  460MOL0     C62018   9.701   7.108  11.398 -0.0264 -0.1830 -0.0321
  460MOL0     C62019   9.344   7.148  11.111 -0.3007 -0.2466  0.2376
  460MOL0     C62020   9.234   7.114  11.195 -1.3194 -0.7515  0.9304
  460MOL0     C62021   9.109   7.085  11.142  1.0445 -0.0974 -0.0437
  460MOL0     C62022   9.094   7.091  11.003  1.5279  0.5787 -0.0579
  460MOL0     O62023   8.974   7.062  10.936  0.1653 -0.5784 -0.5822
  460MOL0     C62024   8.855   7.070  11.018 -0.6499  0.1808  0.4494
  460MOL0     C62025   8.737   7.059  10.923  0.1780 -0.1185  0.4511
  460MOL0     C62026   8.598   7.042  10.980  0.2242 -0.6477  0.3695
  460MOL0     C62027   8.506   7.018  10.858 -0.0778  0.2370 -0.2059
  460MOL0     C62028   8.374   7.076  10.883 -0.2084  0.0489  0.3807
  460MOL0     C62029   8.254   7.102  10.907  0.9050 -0.5998 -0.1319
  460MOL0     C62030   9.195   7.121  10.920 -0.2168 -0.0579  0.5806
  460MOL0     C62031   9.317   7.149  10.968 -1.5048 -0.2805  0.3341
  460MOL0     C62032   9.415   7.180  10.864 -0.7494 -0.4247  0.5068
  460MOL0     H62033   9.583   7.409  11.348 -0.9496  0.2582  1.4360
  460MOL0     H62034   9.805   7.465  11.440  0.2818 -0.8851 -0.2703
  460MOL0     H62035  10.094   7.181  11.623  0.4174  2.6518  0.2314
  460MOL0     H62036  10.097   7.139  11.449  1.1428  1.9036 -1.4625
  460MOL0     H62037  10.237   7.381  11.580  1.0460 -1.3273  1.2833
  460MOL0     H62038  10.245   7.349  11.408  1.0885  0.9199  0.0113
  460MOL0     H62039  10.459   7.279  11.496  1.0042  1.4108  2.5580
  460MOL0     H62040  10.377   7.125  11.470 -0.6659  0.3151 -0.9941
  460MOL0     H62041  10.363   7.303  11.731 -0.3514  1.5363 -2.9547
  460MOL0     H62042  10.321   7.137  11.729  1.5327  0.0097  3.9615
  460MOL0     H62043  10.531   7.162  11.845 -0.5497 -4.1485 -1.0773
  460MOL0     H62044  10.557   7.076  11.694  0.5124 -1.3503  2.6700
  460MOL0     H62045  10.661   7.245  11.590  0.4632  0.6392 -0.4064
  460MOL0     H62046  10.619   7.377  11.704 -1.9917 -0.4747 -1.9022
  460MOL0     H62047  10.809   7.146  11.776  2.1040 -0.2061 -1.4102
  460MOL0     H62048  10.742   7.289  11.875  1.0953  0.8982 -0.3785
  460MOL0     H62049  10.937   7.297  11.636  1.9991 -1.5872  1.8435
  460MOL0     H62050  10.872   7.440  11.712  1.6591  1.2220  2.4407
  460MOL0     H62051  11.162   7.448  11.732 -1.2006 -2.0941 -2.6726
  460MOL0     H62052  11.345   7.503  11.940 -0.3215  0.6668 -0.4836
  460MOL0     H62053  11.327   7.406  12.081 -1.7032  0.9841 -0.3974
  460MOL0     H62054  11.435   7.338  11.791 -0.6146  0.5846 -0.6284
  460MOL0     H62055  11.543   7.338  11.921 -0.3710 -2.0969  3.2796
  460MOL0     H62056  11.495   7.108  11.857 -1.0708 -0.7341 -0.7359
  460MOL0     H62057  11.326   7.131  11.882  0.3918 -3.9342  2.1182
  460MOL0     H62058  11.457   7.023  12.084 -0.9334  0.1763  3.0250
  460MOL0     H62059  11.350   7.161  12.126 -0.1977  0.7225 -0.0638
  460MOL0     H62060  11.375   7.127  12.316 -0.9329  0.8222  2.1915
  460MOL0     H62061  11.433   7.122  12.568  0.9396  1.2226  2.1209
  460MOL0     H62062  11.529   7.392  12.934  1.9915 -0.1193 -0.5526
  460MOL0     H62063  11.578   7.377  13.177  0.1655  0.9537 -1.2161
  460MOL0     H62064  11.659   7.306  13.400 -3.2777  0.5360  1.7791
  460MOL0     H62065  11.520   7.207  13.346  0.1756  3.5362  0.9940
  460MOL0     H62066  11.569   7.045  13.511 -0.7849 -0.4661  3.6496
  460MOL0     H62067  11.722   7.104  13.561 -0.1518  0.4397  0.9198
  460MOL0     H62068  11.654   7.290  13.654  1.3497 -1.1288 -1.4062
  460MOL0     H62069  11.479   7.279  13.597  1.3307  1.8692 -0.7754
  460MOL0     H62070  11.598   7.158  13.835  0.2154  1.2064 -0.1391
  460MOL0     H62071  11.486   7.062  13.741 -0.9919  1.5063  1.1733
  460MOL0     H62072  11.300   7.204  13.754 -0.8678  0.0712  1.7655
  460MOL0     H62073  11.398   7.343  13.813  2.2212  0.3709  0.1980
  460MOL0     H62074  11.463   7.194  14.018 -1.4492 -1.1091  0.7449
  460MOL0     H62075  11.306   7.272  14.014 -0.4394  0.3223  0.2047
  460MOL0     H62076  11.374   6.994  13.921  0.2964  0.0675 -0.1185
  460MOL0     H62077  11.216   7.033  13.936 -0.3990 -2.5667  3.3149
  460MOL0     H62078  11.418   6.992  14.157 -0.2985 -1.2507 -0.5382
  460MOL0     H62079  11.277   7.070  14.200  1.9751  1.0870  0.3740
  460MOL0     H62080  11.763   6.992  13.095  1.1369 -0.0992 -0.0968
  460MOL0     H62081  11.675   6.999  12.857 -0.7143 -0.2705  0.3234
  460MOL0     H62082  11.785   7.332  12.461 -0.3832  0.5144 -0.1203
  460MOL0     H62083  11.761   7.278  12.231 -0.3145  1.5534  0.6968
  460MOL0     H62084   9.896   7.050  11.468 -1.3055 -1.7672 -2.4804
  460MOL0     H62085   9.674   7.007  11.365 -1.2855  0.6711 -1.8023
  460MOL0     H62086   9.251   7.108  11.301  2.0601 -2.4536  0.4213
  460MOL0     H62087   9.025   7.053  11.203 -1.1735 -1.4888 -3.4931
  460MOL0     H62088   8.846   7.165  11.072 -0.2650  0.2236  0.4406
  460MOL0     H62089   8.846   6.983  11.084 -1.7412  0.9114  1.3026
  460MOL0     H62090   8.757   6.985  10.846  1.9597  1.2440 -0.4807
  460MOL0     H62091   8.733   7.150  10.863 -1.1936 -1.5292 -1.6955
  460MOL0     H62092   8.566   7.138  11.023  0.4797 -0.1915 -0.4516
  460MOL0     H62093   8.605   6.958  11.050  0.6681 -3.9091 -3.2433
  460MOL0     H62094   8.546   7.075  10.774  0.3326  3.4949  2.0137
  460MOL0     H62095   8.494   6.913  10.830  0.3904 -0.3417  1.6637
  460MOL0     H62096   8.155   7.142  10.921 -0.9111 -4.4204 -0.7493
  460MOL0     H62097   9.183   7.125  10.812  0.1548  0.8170  0.5615
  460MOL0     H62098   9.473   7.095  10.827  0.4812  0.5473  0.1293
  460MOL0     H62099   9.375   7.214  10.768  1.7032 -3.6575 -1.8888
  460MOL0     H62100   9.473   7.268  10.895 -1.7092  0.8070 -1.0473
  461MOL0     O62101  10.650   8.714   9.430  0.1259 -0.0369 -0.2252
  461MOL0     C62102  10.638   8.824   9.478 -0.1020  0.0961 -0.1485
  461MOL0     O62103  10.725   8.863   9.579 -0.2625  0.0297  0.0296
  461MOL0     C62104  10.845   8.817   9.576 -1.0324  0.6946 -0.4071
  461MOL0     C62105  10.947   8.890   9.516 -0.1711 -0.5723 -0.0729
  461MOL0     C62106  11.075   8.840   9.512  0.4125 -0.7111  0.5683
  461MOL0     C62107  11.108   8.708   9.572 -1.0738 -0.0942 -0.0330
  461MOL0     O62108  11.233   8.656   9.561 -0.4357  0.7731  0.1902
  461MOL0     C62109  11.346   8.731   9.501  0.5576 -0.1855 -0.0373
  461MOL0     C62110  11.408   8.843   9.581 -0.6893 -0.7747  0.5673
  461MOL0     C62111  11.502   8.927   9.490  0.6011  0.4922  0.2870
  461MOL0     C62112  11.524   9.068   9.562 -0.1334 -0.3282  0.8685
  461MOL0     C62113  11.651   9.139   9.504 -0.3517  0.1210  0.0174
  461MOL0     C62114  11.672   9.295   9.529 -0.0549 -0.5720 -0.8024
  461MOL0     C62115  11.586   9.375   9.435 -0.1337 -0.1260 -0.7928
  461MOL0     C62116  11.595   9.530   9.480  0.4970  0.8769  0.3221
  461MOL0     N62117  11.499   9.609   9.403  0.6178 -0.8875  0.0258
  461MOL0     C62118  11.533   9.692   9.303  0.2209 -0.1218  0.7325
  461MOL0     C62119  11.416   9.730   9.248 -0.6651 -0.5253  0.4308
  461MOL0     C62120  11.405   9.813   9.117 -0.2172  0.1658 -0.0127
  461MOL0     C62121  11.341   9.724   9.001  0.4195 -0.3600 -0.2533
  461MOL0     C62122  11.191   9.682   9.042 -0.3860  0.0003 -0.1348
  461MOL0     C62123  11.103   9.659   8.914 -0.3578  0.1808 -0.1048
  461MOL0     O62124  11.094   9.776   8.829  0.9737  0.0728  0.7547
  461MOL0     C62125  10.974   9.831   8.817  0.5423 -0.0907 -0.0244
  461MOL0     C62126  10.886   9.794   8.711  0.7366  0.7491  0.0186
  461MOL0     C62127  10.757   9.846   8.699  0.3178  0.0617 -0.0063
  461MOL0     C62128  10.694   9.922   8.804  0.3533  0.5789  0.6961
  461MOL0     C62129  10.553   9.959   8.803 -0.1148  0.4298  0.8277
  461MOL0     O62130  10.477   9.890   8.712  0.9266  0.2931 -0.0699
  461MOL0     C62131  10.344   9.913   8.710 -0.1923 -0.0197 -0.1331
  461MOL0     C62132  10.289  10.040   8.703 -1.1722  0.4468 -0.2065
  461MOL0     C62133  10.145  10.066   8.708 -0.0935  0.3017 -0.5024
  461MOL0     C62134  10.065   9.950   8.709 -0.0136 -0.2399 -1.3104
  461MOL0     O62135   9.933   9.964   8.682 -0.3996  0.3518  0.3040
  461MOL0     C62136   9.861  10.063   8.744  0.1569  0.0157 -0.2379
  461MOL0     C62137   9.710  10.056   8.700 -0.1219 -0.0210 -1.0009
  461MOL0     C62138   9.626  10.176   8.758 -0.0375  0.0609  0.5047
  461MOL0     C62139   9.500  10.205   8.678  0.4234  0.6740 -0.2899
  461MOL0     C62140   9.400  10.086   8.656 -0.3803 -0.5452  0.0436
  461MOL0     C62141   9.346  10.042   8.791 -0.1315 -0.4968 -0.5277
  461MOL0     C62142   9.211   9.976   8.793 -0.3685 -0.1303 -0.9936
  461MOL0     C62143   9.196   9.846   8.709 -0.4448  0.1520 -0.4376
  461MOL0    Cl62144   9.156   9.900   8.532 -0.2296 -0.1293  0.3729
  461MOL0     C62145  10.113   9.819   8.710  0.1154 -0.3905 -0.5203
  461MOL0     C62146  10.256   9.804   8.716 -0.5454  0.6183  0.0913
  461MOL0     O62147  10.521  10.066   8.864 -0.2537 -0.8490 -0.2984
  461MOL0     C62148  10.775   9.960   8.908 -0.2000 -0.1751 -0.1811
  461MOL0     C62149  10.916   9.913   8.917 -0.8679  0.4141 -1.0523
  461MOL0     N62150  11.315   9.686   9.339  0.1553 -1.1268  0.2840
  461MOL0     N62151  11.360   9.601   9.427 -0.6044 -0.3821  0.9730
  461MOL0     C62152  11.009   8.639   9.639  0.4363 -0.6194 -0.3034
  461MOL0     C62153  10.878   8.687   9.641  0.8158  0.0885  0.8065
  461MOL0     C62154  10.512   8.897   9.458  0.5170 -0.0730  0.3798
  461MOL0     C62155  10.481   8.993   9.558  0.1636  0.5516 -1.1753
  461MOL0     C62156  10.357   9.055   9.562  0.3429  0.1360  0.3070
  461MOL0     C62157  10.265   9.026   9.463 -0.5382 -0.5547  0.4939
  461MOL0     O62158  10.154   9.100   9.477  0.0128  0.6706 -0.2644
  461MOL0     C62159  10.041   9.094   9.388 -0.0258  0.6644 -0.9182
  461MOL0     C62160   9.967   8.966   9.405  0.2902  0.4509 -0.7031
  461MOL0     C62161   9.912   8.945   9.553 -1.0677 -0.3912 -0.4428
  461MOL0     C62162   9.759   8.920   9.565  0.0304  0.6079 -0.3281
  461MOL0     C62163   9.690   8.944   9.700 -0.0954 -0.5510 -0.7443
  461MOL0     C62164   9.622   8.969   9.803  0.1389  0.0817  0.0130
  461MOL0     C62165  10.290   8.945   9.359  0.4845  1.6136  0.7472
  461MOL0     C62166  10.419   8.875   9.355 -0.3872 -0.0545  0.0808
  461MOL0     C62167  10.447   8.774   9.245  0.4339 -0.3689 -0.5084
  461MOL0     H62168  10.924   8.982   9.463  0.3051  0.1145  0.8748
  461MOL0     H62169  11.144   8.887   9.443  0.9713 -2.4794 -0.1493
  461MOL0     H62170  11.415   8.652   9.471  0.6496  0.3234 -1.2146
  461MOL0     H62171  11.317   8.770   9.403 -0.3148  2.2345  1.0931
  461MOL0     H62172  11.464   8.795   9.662 -0.9288  0.1246  1.2730
  461MOL0     H62173  11.331   8.906   9.625 -0.1068 -0.6355  1.4058
  461MOL0     H62174  11.458   8.925   9.390 -0.1017 -1.1785  0.5943
  461MOL0     H62175  11.600   8.877   9.488 -0.6805 -2.2242 -0.1317
  461MOL0     H62176  11.433   9.127   9.556  0.7454  1.1812  1.6992
  461MOL0     H62177  11.544   9.061   9.669  0.4060  0.7333  0.8546
  461MOL0     H62178  11.741   9.090   9.542 -0.8336 -0.7116  0.1132
  461MOL0     H62179  11.653   9.131   9.395  0.1400  0.6546 -0.0182
  461MOL0     H62180  11.665   9.311   9.637  3.0768 -0.6372 -0.5030
  461MOL0     H62181  11.769   9.330   9.493 -1.5941  1.2878 -3.5249
  461MOL0     H62182  11.487   9.332   9.451 -0.0746  1.0358  4.4586
  461MOL0     H62183  11.607   9.364   9.328 -2.8985 -2.8039 -1.1861
  461MOL0     H62184  11.574   9.539   9.587  2.9370 -1.4722  1.1007
  461MOL0     H62185  11.699   9.557   9.463  0.5915 -0.1785 -1.0579
  461MOL0     H62186  11.633   9.695   9.261  0.9876  0.1277  2.5233
  461MOL0     H62187  11.351   9.907   9.131 -0.5216 -0.0539  0.3285
  461MOL0     H62188  11.503   9.852   9.091  0.2211 -1.9359 -1.7983
  461MOL0     H62189  11.329   9.785   8.911 -0.4696 -0.9653 -0.5537
  461MOL0     H62190  11.413   9.643   8.985  0.3180 -0.6863  0.8880
  461MOL0     H62191  11.142   9.768   9.090 -0.7339 -0.4729  0.3819
  461MOL0     H62192  11.188   9.596   9.111 -1.8278 -0.1968 -0.4011
  461MOL0     H62193  11.004   9.622   8.941  0.2263 -2.6913 -1.5524
  461MOL0     H62194  11.144   9.583   8.847  0.4061 -0.7613  1.3644
  461MOL0     H62195  10.913   9.731   8.627 -2.9161  0.2639 -0.9801
  461MOL0     H62196  10.694   9.812   8.617 -3.2120  1.5836  1.8577
  461MOL0     H62197  10.351  10.127   8.681 -1.3613  0.4358 -0.8009
  461MOL0     H62198  10.118  10.171   8.704 -3.2964  0.1330  5.5492
  461MOL0     H62199   9.868  10.047   8.852 -1.4353  2.4381  0.3220
  461MOL0     H62200   9.908  10.159   8.719  2.8001 -1.4359 -1.2804
  461MOL0     H62201   9.715  10.049   8.590 -2.1896 -0.4324 -1.1204
  461MOL0     H62202   9.650   9.970   8.732 -1.3114  0.4852 -1.7827
  461MOL0     H62203   9.607  10.167   8.865 -1.4579  0.9846  0.3574
  461MOL0     H62204   9.686  10.268   8.763 -2.0930  1.4073  2.0002
  461MOL0     H62205   9.530  10.239   8.579  0.8194  2.1862  0.3330
  461MOL0     H62206   9.452  10.294   8.720  3.6558  3.0946 -1.3292
  461MOL0     H62207   9.460  10.003   8.617 -0.4301 -1.1619  1.2589
  461MOL0     H62208   9.321  10.110   8.585 -0.8341  0.3162  0.8296
  461MOL0     H62209   9.418   9.983   8.848  0.1002 -0.5568 -0.8809
  461MOL0     H62210   9.323  10.139   8.837  0.0395 -0.6847 -0.0393
  461MOL0     H62211   9.132  10.046   8.763 -1.8889 -1.5557 -0.4900
  461MOL0     H62212   9.189   9.960   8.899 -0.2123 -0.6744 -1.0407
  461MOL0     H62213   9.277   9.774   8.717 -1.6825 -1.1100  1.3624
  461MOL0     H62214   9.106   9.798   8.747  0.8690 -1.0374  1.2919
  461MOL0     H62215  10.049   9.731   8.705 -1.1213  0.4075  0.6433
  461MOL0     H62216  10.303   9.706   8.724  2.3365  1.8432 -0.6643
  461MOL0     H62217  10.722  10.015   8.985  1.2294  0.3268  0.4892
  461MOL0     H62218  10.978   9.931   9.004 -0.5418 -2.2050 -0.6771
  461MOL0     H62219  11.034   8.544   9.684 -0.4290 -0.9129 -0.4313
  461MOL0     H62220  10.797   8.631   9.686 -1.2611  1.9506 -0.4080
  461MOL0     H62221  10.536   9.009   9.650  0.0969 -2.4215 -0.5439
  461MOL0     H62222  10.344   9.129   9.640 -1.1775 -2.7532  2.9922
  461MOL0     H62223  10.072   9.107   9.284  0.8317  0.9563 -0.6333
  461MOL0     H62224   9.972   9.173   9.421  2.9720  2.2737  2.0714
  461MOL0     H62225  10.016   8.876   9.366 -0.3843  0.9013 -2.7324
  461MOL0     H62226   9.886   8.975   9.332  0.3501  0.8376 -0.7240
  461MOL0     H62227   9.921   9.043   9.601 -3.3583  0.6406 -1.9431
  461MOL0     H62228   9.971   8.870   9.607 -0.2661 -0.1860 -1.0082
  461MOL0     H62229   9.708   8.971   9.483 -2.9318 -1.1630  0.2691
  461MOL0     H62230   9.735   8.817   9.538 -0.3389  0.6351 -0.1101
  461MOL0     H62231   9.569   8.988   9.893 -0.0410  0.3958 -0.1578
  461MOL0     H62232  10.226   8.923   9.274  1.1254 -1.9948  1.0530
  461MOL0     H62233  10.522   8.808   9.174  0.3610 -2.6719 -1.7727
  461MOL0     H62234  10.486   8.678   9.281 -1.9365 -1.3324 -0.3026
  461MOL0     H62235  10.360   8.739   9.189 -0.5545  0.7568  0.2823
  462MOL0     O62236   0.614   9.561   0.749 -0.1529 -0.2252 -0.1466
  462MOL0     C62237   0.680   9.657   0.790 -0.4207  0.3358 -0.3514
  462MOL0     O62238   0.629   9.766   0.844 -0.4566  0.3305  0.3530
  462MOL0     C62239   0.499   9.791   0.836  1.0624  0.2824 -1.1909
  462MOL0     C62240   0.437   9.856   0.950 -0.3427 -0.9734 -0.2440
  462MOL0     C62241   0.300   9.892   0.956 -0.1850 -0.0203  0.1120
  462MOL0     C62242   0.218   9.851   0.850 -0.1421  0.2164 -0.6215
  462MOL0     O62243   0.085   9.862   0.839  0.1007 -0.2231  0.4192
  462MOL0     C62244   0.003   9.750   0.890 -0.2124 -0.3674 -0.4416
  462MOL0     C62245  -0.128   9.817   0.944  0.8936 -0.1155 -1.1252
  462MOL0     C62246  -0.207   9.909   0.849 -0.3926 -0.9149  0.3771
  462MOL0     C62247  -0.203   9.860   0.698  0.0694 -0.8221 -0.4381
  462MOL0     C62248  -0.278   9.958   0.603 -1.0968 -0.6362  0.2053
  462MOL0     C62249  -0.265   9.899   0.458 -0.7702  0.4350  0.6132
  462MOL0     C62250  -0.364   9.963   0.365 -0.4958  0.0543 -0.1022
  462MOL0     C62251  -0.350  10.123   0.361 -0.0747  0.6925 -0.0537
  462MOL0     N62252  -0.455  10.188   0.278  0.6351 -0.0542 -0.5552
  462MOL0     C62253  -0.483  10.145   0.154  0.3880 -0.5411 -0.3229
  462MOL0     C62254  -0.559  10.242   0.096 -0.3448 -0.3323 -0.8145
  462MOL0     C62255  -0.638  10.237  -0.034 -0.1123 -0.1446 -0.1935
  462MOL0     C62256  -0.554  10.204  -0.169 -0.1360  0.4835  0.5275
  462MOL0     C62257  -0.643  10.202  -0.285 -0.1245  0.3104 -0.5134
  462MOL0     C62258  -0.736  10.076  -0.294  0.4227  0.6309 -0.9135
  462MOL0     O62259  -0.842  10.108  -0.383  0.1954 -0.0572  0.1671
  462MOL0     C62260  -0.968  10.049  -0.377  0.2036  0.9618  0.2532
  462MOL0     C62261  -1.003   9.958  -0.272  1.3976 -0.6054  0.2445
  462MOL0     C62262  -1.127   9.895  -0.278 -0.3603  0.3089  0.9039
  462MOL0     C62263  -1.214   9.916  -0.386  0.4971 -0.3468 -0.0330
  462MOL0     C62264  -1.338   9.834  -0.396  0.3590  0.2052 -1.3116
  462MOL0     O62265  -1.433   9.875  -0.488 -0.2163 -0.4124 -0.3003
  462MOL0     C62266  -1.539   9.795  -0.508 -0.6258  1.1960  1.1378
  462MOL0     C62267  -1.663   9.827  -0.458  0.2768  0.4563 -0.3385
  462MOL0     C62268  -1.767   9.737  -0.459  0.5406 -0.0381 -0.0360
  462MOL0     C62269  -1.748   9.601  -0.494 -0.2164  0.3370  0.4762
  462MOL0     O62270  -1.852   9.515  -0.510 -0.1292 -0.9672 -0.2247
  462MOL0     C62271  -1.986   9.571  -0.519 -0.3565 -0.0148 -0.2144
  462MOL0     C62272  -2.095   9.477  -0.588 -0.8888  0.8630  0.2095
  462MOL0     C62273  -2.228   9.550  -0.604 -0.9092 -0.1484 -0.0417
  462MOL0     C62274  -2.344   9.456  -0.645 -0.2013 -0.7510 -0.5718
  462MOL0     C62275  -2.489   9.524  -0.635  0.2321  0.2660  0.5128
  462MOL0     C62276  -2.610   9.448  -0.702 -0.0510  0.1880  0.1071
  462MOL0     C62277  -2.740   9.529  -0.666  0.3089 -1.3009  0.4024
  462MOL0     C62278  -2.862   9.437  -0.691  0.6251  0.9953 -0.0005
  462MOL0    Cl62279  -2.864   9.415  -0.870  0.0668  0.1909  0.4311
  462MOL0     C62280  -1.617   9.565  -0.543  0.3866  0.2464 -0.0431
  462MOL0     C62281  -1.515   9.660  -0.551  0.4248  0.4307 -0.6125
  462MOL0     O62282  -1.339   9.730  -0.318  0.2792 -0.0349 -0.3365
  462MOL0     C62283  -1.181  10.009  -0.489  0.2348  0.6978  0.2733
  462MOL0     C62284  -1.058  10.080  -0.480  0.7798 -0.0228 -0.2491
  462MOL0     N62285  -0.579  10.339   0.185  0.2768  0.1015 -0.8284
  462MOL0     N62286  -0.510  10.321   0.296 -0.6069 -0.2193  0.4083
  462MOL0     C62287   0.272   9.795   0.739 -0.1733  0.2926 -0.6471
  462MOL0     C62288   0.411   9.772   0.731 -0.2624 -0.8154  0.1238
  462MOL0     C62289   0.826   9.634   0.798  0.5031 -0.3517  0.3633
  462MOL0     C62290   0.901   9.719   0.885 -0.8291 -0.0664  0.4785
  462MOL0     C62291   1.033   9.685   0.926  0.7864 -0.4441  0.3992
  462MOL0     C62292   1.095   9.572   0.878  0.3191  0.2547  0.8127
  462MOL0     O62293   1.225   9.544   0.929 -0.3605  0.7630  0.8501
  462MOL0     C62294   1.278   9.414   0.898  0.6194 -0.6336 -0.2102
  462MOL0     C62295   1.424   9.400   0.944  0.5708 -0.6552 -0.2120
  462MOL0     C62296   1.486   9.259   0.925 -0.1474 -0.3277 -0.3445
  462MOL0     C62297   1.635   9.258   0.941 -0.0713  0.6209  0.2164
  462MOL0     C62298   1.666   9.242   1.083 -0.4791 -0.8353 -0.1564
  462MOL0     C62299   1.711   9.239   1.197  0.3619 -1.0160 -0.5763
  462MOL0     C62300   1.025   9.501   0.779  0.2681  0.7413  0.0696
  462MOL0     C62301   0.892   9.525   0.736 -0.3063 -0.1451 -0.2481
  462MOL0     C62302   0.831   9.434   0.628 -0.3365 -0.9178 -0.0014
  462MOL0     H62303   0.500   9.859   1.038 -0.0097  2.4822 -0.4790
  462MOL0     H62304   0.265   9.955   1.037  4.5993  4.7507 -0.9600
  462MOL0     H62305  -0.018   9.684   0.805  0.2134  2.5074 -2.9165
  462MOL0     H62306   0.048   9.687   0.968  3.1515  0.3727 -1.6234
  462MOL0     H62307  -0.092   9.867   1.034  0.2664  1.6085 -1.8019
  462MOL0     H62308  -0.191   9.732   0.971  1.5490 -0.8924 -1.9611
  462MOL0     H62309  -0.173  10.013   0.858 -2.6262 -0.1790  0.8232
  462MOL0     H62310  -0.312   9.923   0.875 -0.6200  0.0103 -0.9487
  462MOL0     H62311  -0.100   9.858   0.661 -0.1447 -1.2084 -1.0323
  462MOL0     H62312  -0.245   9.759   0.697  1.9428 -1.7550  2.5182
  462MOL0     H62313  -0.385   9.956   0.628 -1.3486  0.7301 -0.6467
  462MOL0     H62314  -0.236  10.059   0.612 -0.7063 -0.8676  1.0157
  462MOL0     H62315  -0.163   9.922   0.425 -0.3877 -4.4815 -2.6679
  462MOL0     H62316  -0.277   9.791   0.450 -0.3745  0.4776 -0.8275
  462MOL0     H62317  -0.465   9.936   0.396  0.1051  0.3687  2.3995
  462MOL0     H62318  -0.342   9.921   0.267 -0.3896 -0.0211 -0.0465
  462MOL0     H62319  -0.353  10.180   0.454 -0.8483  1.2169 -0.3898
  462MOL0     H62320  -0.258  10.148   0.307  0.6967 -1.3281  0.2488
  462MOL0     H62321  -0.470  10.046   0.111 -2.8228 -2.0056  1.7456
  462MOL0     H62322  -0.716  10.164  -0.013 -0.8119  1.0707  1.7343
  462MOL0     H62323  -0.678  10.337  -0.053  1.3246  0.3595 -0.7655
  462MOL0     H62324  -0.468  10.271  -0.180 -1.3099  2.1725  1.1970
  462MOL0     H62325  -0.508  10.105  -0.158  3.8145  1.8949 -1.0750
  462MOL0     H62326  -0.582  10.214  -0.375 -1.0477  2.1362 -0.9517
  462MOL0     H62327  -0.706  10.291  -0.278  0.9252  0.9136  2.9592
  462MOL0     H62328  -0.784  10.057  -0.197  1.1272 -0.5210 -0.7626
  462MOL0     H62329  -0.678   9.993  -0.336  1.8516  2.8259 -3.6418
  462MOL0     H62330  -0.937   9.941  -0.188  0.9575  1.4479  1.0640
  462MOL0     H62331  -1.161   9.817  -0.211  1.0330 -0.8952  0.2760
  462MOL0     H62332  -1.681   9.928  -0.424 -1.4184  0.1269 -0.1439
  462MOL0     H62333  -1.863   9.778  -0.431  0.3759  0.1860 -0.8958
  462MOL0     H62334  -2.027   9.578  -0.418  0.0137  2.2984 -0.1739
  462MOL0     H62335  -1.992   9.671  -0.563 -3.1550 -0.2692 -0.6084
  462MOL0     H62336  -2.065   9.444  -0.688 -0.8444  0.0148  0.4994
  462MOL0     H62337  -2.121   9.393  -0.524 -1.7954  0.6865 -0.3633
  462MOL0     H62338  -2.250   9.605  -0.513  2.0445  4.1264 -1.5883
  462MOL0     H62339  -2.216   9.628  -0.680 -1.2052  2.0003  2.0257
  462MOL0     H62340  -2.344   9.374  -0.573 -1.9504  0.0570  0.3948
  462MOL0     H62341  -2.319   9.430  -0.748 -1.6625 -2.7580 -0.4769
  462MOL0     H62342  -2.472   9.611  -0.698  2.3663 -1.9472 -2.2648
  462MOL0     H62343  -2.505   9.541  -0.528 -1.9267 -0.7440  0.4204
  462MOL0     H62344  -2.607   9.428  -0.810 -0.5431  3.4577 -0.6330
  462MOL0     H62345  -2.620   9.353  -0.649 -2.2271  1.3346  1.9128
  462MOL0     H62346  -2.752   9.619  -0.728  2.3613 -0.5614  1.0129
  462MOL0     H62347  -2.735   9.546  -0.558  0.5860  0.1407  0.1902
  462MOL0     H62348  -2.866   9.341  -0.640 -1.5890  0.5993 -0.8360
  462MOL0     H62349  -2.947   9.496  -0.655 -1.9313 -1.5283 -1.4665
  462MOL0     H62350  -1.593   9.463  -0.572 -1.8569  0.1532 -1.8553
  462MOL0     H62351  -1.416   9.636  -0.589  1.9277  0.0198  3.1355
  462MOL0     H62352  -1.247  10.011  -0.575 -0.9649  0.7530  1.1563
  462MOL0     H62353  -1.041  10.158  -0.553  3.1581 -0.2037  0.0466
  462MOL0     H62354   0.211   9.758   0.658  2.0367 -0.9749 -1.8520
  462MOL0     H62355   0.441   9.744   0.630 -3.2578 -2.5572 -0.4049
  462MOL0     H62356   0.848   9.804   0.928  0.3879 -0.0072  1.9328
  462MOL0     H62357   1.085   9.743   1.002 -2.1011  1.2824  1.2142
  462MOL0     H62358   1.280   9.391   0.791  0.5291  0.3301 -0.4312
  462MOL0     H62359   1.218   9.338   0.948  1.0566 -0.7106  0.2035
  462MOL0     H62360   1.431   9.433   1.048  1.4120  0.5334 -0.6237
  462MOL0     H62361   1.471   9.471   0.876  1.0467 -0.2374  0.5314
  462MOL0     H62362   1.478   9.231   0.820 -0.5600  0.5181 -0.5443
  462MOL0     H62363   1.429   9.187   0.985  1.2475 -0.6688  0.6208
  462MOL0     H62364   1.677   9.179   0.878 -0.3180  0.7903 -0.1696
  462MOL0     H62365   1.691   9.351   0.922  2.7488 -0.7789  1.1611
  462MOL0     H62366   1.740   9.253   1.299 -1.1512  0.2288 -0.2820
  462MOL0     H62367   1.092   9.432   0.728 -0.4657  0.0822 -0.0066
  462MOL0     H62368   0.914   9.379   0.584  1.2339 -0.6013  2.3595
  462MOL0     H62369   0.758   9.371   0.681 -3.3443  0.3917 -2.3144
  462MOL0     H62370   0.790   9.501   0.552  2.7430 -1.9481 -2.7698
  463MOL0     O62371   8.186   9.610   6.942  0.2437  0.7937  0.6111
  463MOL0     C62372   8.138   9.721   6.947 -0.3908  0.4801 -0.0847
  463MOL0     O62373   8.186   9.822   6.866  0.0292 -0.1275  0.0085
  463MOL0     C62374   8.319   9.827   6.821  1.0293 -0.7354  0.6285
  463MOL0     C62375   8.349   9.911   6.715  0.5042  0.4049 -0.2522
  463MOL0     C62376   8.480   9.924   6.669 -0.4687 -0.4558  0.3996
  463MOL0     C62377   8.588   9.856   6.730  0.4489 -0.2948  0.1571
  463MOL0     O62378   8.717   9.853   6.684 -0.3398 -0.6440 -0.8538
  463MOL0     C62379   8.745   9.865   6.547  0.6865  0.5899 -0.1880
  463MOL0     C62380   8.861   9.756   6.521 -0.4303 -0.7562  0.2432
  463MOL0     C62381   8.917   9.753   6.379  0.4419  0.9089 -0.1534
  463MOL0     C62382   8.992   9.615   6.355 -0.1513 -1.0282  0.6015
  463MOL0     C62383   9.076   9.634   6.230  0.3253  0.3202 -0.3380
  463MOL0     C62384   9.170   9.515   6.202 -0.2207 -0.0373  0.0200
  463MOL0     C62385   9.294   9.519   6.279 -0.1663  0.1085 -0.0031
  463MOL0     C62386   9.402   9.413   6.231  0.7876 -0.1479  0.3138
  463MOL0     N62387   9.538   9.423   6.288 -0.0131  0.2061 -0.5527
  463MOL0     C62388   9.588   9.345   6.391 -0.5461 -0.4767  0.1990
  463MOL0     C62389   9.723   9.390   6.391 -0.3626  0.8196 -0.5541
  463MOL0     C62390   9.842   9.331   6.463 -0.1526  0.7867 -0.8503
  463MOL0     C62391   9.829   9.356   6.619  0.4476  0.1181  0.4514
  463MOL0     C62392   9.960   9.322   6.693 -0.2153 -0.3185 -0.4166
  463MOL0     C62393   9.950   9.366   6.841  0.1820 -0.1322  1.2873
  463MOL0     O62394  10.072   9.319   6.911 -0.6174 -0.0178  0.0279
  463MOL0     C62395  10.152   9.417   6.969 -0.1915 -0.5732  0.3822
  463MOL0     C62396  10.258   9.476   6.918 -0.6254  0.0806 -0.0684
  463MOL0     C62397  10.327   9.567   6.987 -0.7561 -0.3208 -0.5541
  463MOL0     C62398  10.295   9.602   7.124 -0.3815 -0.2781  0.3416
  463MOL0     C62399  10.376   9.698   7.193  0.0095  0.1197  0.4479
  463MOL0     O62400  10.356   9.709   7.322 -0.5283 -0.4891 -0.1242
  463MOL0     C62401  10.425   9.800   7.400 -1.3673 -0.0355 -0.9313
  463MOL0     C62402  10.558   9.823   7.385 -0.6742 -0.4695 -0.4733
  463MOL0     C62403  10.623   9.897   7.483 -1.0158  0.7552  0.1201
  463MOL0     C62404  10.557   9.955   7.590  0.7747 -0.8312 -0.6682
  463MOL0     O62405  10.624  10.017   7.691 -0.4810  0.1393  0.3337
  463MOL0     C62406  10.726   9.928   7.753 -0.5470 -0.1479  0.3622
  463MOL0     C62407  10.866   9.988   7.743  0.5076  0.1882 -0.0268
  463MOL0     C62408  10.878  10.131   7.794  0.3793  0.3060 -0.6276
  463MOL0     C62409  10.870  10.135   7.950  0.7416 -0.4023  0.6930
  463MOL0     C62410  10.941  10.259   7.993 -0.3417 -0.4713  0.8270
  463MOL0     C62411  10.850  10.383   7.991  0.7543 -0.1660  0.5267
  463MOL0     C62412  10.905  10.503   8.051 -1.0387 -0.8757 -0.5469
  463MOL0     C62413  11.010  10.568   7.946 -0.1666  0.6230 -0.1104
  463MOL0    Cl62414  10.930  10.694   7.859  0.0011  0.1340  0.2678
  463MOL0     C62415  10.419   9.934   7.600  0.6163 -0.3190 -0.2124
  463MOL0     C62416  10.356   9.859   7.498 -0.6768  0.8686 -0.6105
  463MOL0     O62417  10.458   9.762   7.124 -0.3067 -0.6449 -0.3315
  463MOL0     C62418  10.186   9.543   7.178  0.3757 -0.5675  0.0143
  463MOL0     C62419  10.107   9.459   7.097  0.2075  0.9965 -0.1788
  463MOL0     N62420   9.744   9.486   6.295 -0.1707 -0.7238 -0.1229
  463MOL0     N62421   9.636   9.502   6.229 -0.0014  0.8528  0.2150
  463MOL0     C62422   8.555   9.765   6.822  0.3136 -0.5627 -0.7008
  463MOL0     C62423   8.425   9.751   6.869 -0.2262  1.3400 -0.0311
  463MOL0     C62424   8.008   9.742   7.028 -0.2876  0.5966 -0.2843
  463MOL0     C62425   7.959   9.873   7.029 -0.1016 -0.5243 -0.1789
  463MOL0     C62426   7.843   9.906   7.099  0.1708  0.3637  0.5740
  463MOL0     C62427   7.785   9.814   7.191  0.1022 -0.3683 -0.1929
  463MOL0     O62428   7.665   9.837   7.265 -0.1831 -0.1349  0.0261
  463MOL0     C62429   7.566   9.920   7.207 -0.3776  0.8230 -0.6314
  463MOL0     C62430   7.440   9.918   7.297 -0.9298  0.3884 -0.5555
  463MOL0     C62431   7.305   9.955   7.226  0.1129 -0.1937  1.2729
  463MOL0     C62432   7.263  10.101   7.229 -1.1631 -0.2199 -0.3260
  463MOL0     C62433   7.118  10.123   7.224  0.7119  1.2356 -1.2729
  463MOL0     C62434   6.998  10.149   7.214  0.0653 -0.1984 -0.1802
  463MOL0     C62435   7.839   9.688   7.199  0.1782  0.1834  0.4245
  463MOL0     C62436   7.954   9.647   7.123  0.8399 -0.4638  0.9340
  463MOL0     C62437   8.007   9.511   7.139  0.1373  0.1413  0.3542
  463MOL0     H62438   8.288   9.991   6.674 -0.9911 -0.3637  0.4033
  463MOL0     H62439   8.498   9.998   6.592 -4.8990  0.7106  0.2046
  463MOL0     H62440   8.652   9.842   6.494  1.1476 -0.8331 -0.4117
  463MOL0     H62441   8.782   9.964   6.519  2.6363 -0.2195 -0.6451
  463MOL0     H62442   8.819   9.662   6.557  0.7688  0.2603  5.0170
  463MOL0     H62443   8.941   9.776   6.593  2.2411 -2.7954 -1.9183
  463MOL0     H62444   8.985   9.837   6.364  1.1974  1.0115  3.1936
  463MOL0     H62445   8.830   9.758   6.312 -0.2519 -1.8837  0.4052
  463MOL0     H62446   9.059   9.594   6.440  0.6156  0.4635  0.4110
  463MOL0     H62447   8.923   9.535   6.330 -1.4818 -0.1281  1.2884
  463MOL0     H62448   9.012   9.636   6.141  2.3360 -1.8599 -1.9759
  463MOL0     H62449   9.137   9.724   6.234  1.5799 -0.4446 -1.3576
  463MOL0     H62450   9.123   9.419   6.220 -1.3554  0.5898  0.4844
  463MOL0     H62451   9.195   9.515   6.096 -1.5527  1.1464 -0.3230
  463MOL0     H62452   9.258   9.512   6.382 -1.3856  0.6222 -0.3803
  463MOL0     H62453   9.347   9.614   6.279  0.0936  0.1153 -3.8477
  463MOL0     H62454   9.352   9.317   6.246 -0.5001  0.5685  0.7165
  463MOL0     H62455   9.425   9.435   6.126  2.4816  2.8961  1.2010
  463MOL0     H62456   9.542   9.263   6.447 -0.0383 -2.0792 -1.6034
  463MOL0     H62457   9.847   9.222   6.454 -0.4699  0.4000  2.2973
  463MOL0     H62458   9.938   9.374   6.432  2.2062 -3.3721 -0.1085
  463MOL0     H62459   9.794   9.459   6.633 -1.0042 -0.3281  0.2903
  463MOL0     H62460   9.747   9.296   6.658 -1.5507  0.9530 -2.1383
  463MOL0     H62461  10.043   9.377   6.648 -1.3187  0.5470 -1.4358
  463MOL0     H62462   9.988   9.216   6.688  1.9778  0.2542 -1.6265
  463MOL0     H62463   9.865   9.306   6.873  0.4773 -1.1938  0.1599
  463MOL0     H62464   9.934   9.473   6.857  1.2236  0.0558  1.1436
  463MOL0     H62465  10.292   9.441   6.821  0.5622 -2.7011  1.2425
  463MOL0     H62466  10.412   9.620   6.945 -1.4950  2.5914  1.3637
  463MOL0     H62467  10.611   9.774   7.304 -1.9159 -0.0875 -1.5414
  463MOL0     H62468  10.731   9.907   7.478 -1.0644  1.7220  0.7814
  463MOL0     H62469  10.707   9.918   7.860 -0.6383 -1.5136  0.2327
  463MOL0     H62470  10.718   9.833   7.699 -1.1206  0.6055 -0.9199
  463MOL0     H62471  10.931   9.923   7.803  1.2646  0.1471 -0.8747
  463MOL0     H62472  10.906   9.986   7.642  3.3250 -0.2455  1.0132
  463MOL0     H62473  10.967  10.176   7.750  0.1459 -0.0428 -1.4687
  463MOL0     H62474  10.802  10.201   7.757  1.6600  1.2625 -1.5228
  463MOL0     H62475  10.922  10.045   7.986  0.1265 -2.0823 -2.2569
  463MOL0     H62476  10.767  10.118   7.983  0.6391 -0.0805  0.5357
  463MOL0     H62477  11.030  10.280   7.933 -1.2276 -2.5468 -1.3746
  463MOL0     H62478  10.962  10.239   8.098  0.3191 -1.3538  0.5402
  463MOL0     H62479  10.819  10.409   7.889  2.8971 -1.5461 -0.5593
  463MOL0     H62480  10.765  10.357   8.055  0.3402 -0.0836  0.0207
  463MOL0     H62481  10.956  10.480   8.145 -2.1178 -0.0531  0.2665
  463MOL0     H62482  10.833  10.582   8.075 -1.0467 -1.8972  3.6698
  463MOL0     H62483  11.097  10.605   8.002 -0.3308  1.6269 -0.5086
  463MOL0     H62484  11.041  10.486   7.880 -0.2453 -0.2606  0.9100
  463MOL0     H62485  10.362   9.978   7.681 -1.5381 -4.3885  0.7354
  463MOL0     H62486  10.248   9.847   7.501 -0.5490 -0.4531 -0.8487
  463MOL0     H62487  10.156   9.567   7.279 -0.4949  4.4076 -1.1607
  463MOL0     H62488  10.021   9.402   7.129  1.1119 -0.4302 -0.2234
  463MOL0     H62489   8.639   9.708   6.859 -0.2714 -2.0497 -1.5855
  463MOL0     H62490   8.413   9.674   6.945 -1.2760  0.8473 -0.6645
  463MOL0     H62491   7.998   9.950   6.963  2.2778 -0.1444  1.5572
  463MOL0     H62492   7.789  10.000   7.094 -0.8677  0.0808  4.0169
  463MOL0     H62493   7.538   9.880   7.109 -0.9058  0.4642 -0.3414
  463MOL0     H62494   7.597  10.021   7.179  0.9995  0.6566  0.1891
  463MOL0     H62495   7.452   9.983   7.384  1.3327  0.5769 -0.9648
  463MOL0     H62496   7.440   9.818   7.341  0.9787 -0.0321 -1.4063
  463MOL0     H62497   7.227   9.895   7.273 -1.7264  1.2651  0.2242
  463MOL0     H62498   7.301   9.907   7.129 -2.3805 -1.4246  1.9167
  463MOL0     H62499   7.331  10.161   7.290 -0.4357  0.5107 -1.7985
  463MOL0     H62500   7.288  10.150   7.134 -0.4571  2.7417  1.2460
  463MOL0     H62501   6.897  10.181   7.201 -1.0522 -4.0306 -2.7780
  463MOL0     H62502   7.784   9.610   7.251 -0.0161 -1.8344 -2.5825
  463MOL0     H62503   8.026   9.465   7.042 -1.8237 -1.1852  0.5307
  463MOL0     H62504   8.093   9.527   7.205  1.1526 -0.8710 -0.6729
  463MOL0     H62505   7.933   9.448   7.191 -0.9971  1.8828  0.9578
  464MOL0     O62506   8.162   2.369   6.902  0.3773  0.3346  0.3248
  464MOL0     C62507   8.097   2.448   6.975 -0.7486  0.1013  0.2596
  464MOL0     O62508   8.104   2.450   7.113  0.2368 -0.2939 -1.0580
  464MOL0     C62509   8.170   2.360   7.179 -0.7164 -0.1925 -0.1649
  464MOL0     C62510   8.295   2.381   7.212 -0.3407  0.2692 -0.9026
  464MOL0     C62511   8.371   2.288   7.282  0.4635  0.2218  0.4650
  464MOL0     C62512   8.321   2.153   7.306 -0.7805  0.2000 -0.4915
  464MOL0     O62513   8.407   2.068   7.372  0.2528  0.0301  0.3378
  464MOL0     C62514   8.410   1.932   7.307  0.2852 -0.0745  0.3174
  464MOL0     C62515   8.531   1.870   7.380  1.5826 -0.1707 -0.2494
  464MOL0     C62516   8.538   1.716   7.347  0.0320  0.3108  0.0121
  464MOL0     C62517   8.652   1.645   7.431  0.5497  1.2314  1.1096
  464MOL0     C62518   8.794   1.698   7.403 -0.4618 -0.0844 -0.5715
  464MOL0     C62519   8.904   1.584   7.409  0.5430 -0.4436 -0.0247
  464MOL0     C62520   9.037   1.638   7.399  0.5559 -0.2824 -0.0216
  464MOL0     C62521   9.111   1.593   7.279 -0.7353 -0.0112 -0.0529
  464MOL0     N62522   9.224   1.679   7.261 -0.3428 -0.5954  0.7052
  464MOL0     C62523   9.357   1.638   7.260  1.0933 -0.1958 -0.0905
  464MOL0     C62524   9.426   1.753   7.273  0.1519 -0.0848 -0.4468
  464MOL0     C62525   9.574   1.750   7.298  0.1406 -0.3230  0.5183
  464MOL0     C62526   9.650   1.794   7.176  0.2507  0.1458 -0.1613
  464MOL0     C62527   9.794   1.755   7.173 -0.5229 -0.7532 -0.4856
  464MOL0     C62528   9.860   1.813   7.047  0.3154 -0.3885 -0.9080
  464MOL0     O62529  10.001   1.793   7.048 -0.1902  0.4743 -0.4453
  464MOL0     C62530  10.081   1.835   6.946  0.8905 -0.2444 -0.0847
  464MOL0     C62531  10.041   1.912   6.840 -0.2843  0.3596 -0.1965
  464MOL0     C62532  10.140   1.966   6.750  0.2250  1.0408  0.7114
  464MOL0     C62533  10.281   1.929   6.765 -1.3329 -0.3140  0.0938
  464MOL0     C62534  10.379   1.982   6.668  0.3685 -0.6637  0.2879
  464MOL0     O62535  10.504   1.927   6.675  0.1692  0.3483 -0.1875
  464MOL0     C62536  10.591   1.947   6.574  0.2439 -0.6653 -0.0026
  464MOL0     C62537  10.567   1.969   6.442 -0.1431  0.0196  0.2443
  464MOL0     C62538  10.674   1.997   6.355 -0.5031  0.3134 -0.4255
  464MOL0     C62539  10.803   2.005   6.408  0.5210  0.4137  0.9306
  464MOL0     O62540  10.912   2.004   6.321  0.2380  0.0217 -0.2424
  464MOL0     C62541  10.907   1.922   6.205 -0.7406 -0.1977  0.2115
  464MOL0     C62542  11.036   1.838   6.184 -0.3795 -0.3645 -0.2787
  464MOL0     C62543  11.032   1.788   6.033  0.6257 -0.3703 -0.1986
  464MOL0     C62544  11.020   1.895   5.917 -0.1026  0.0532 -0.3464
  464MOL0     C62545  11.138   1.996   5.921 -0.0722 -0.9237 -0.8120
  464MOL0     C62546  11.259   1.922   5.885 -0.7750  0.0413 -0.3612
  464MOL0     C62547  11.381   2.007   5.852 -0.3973  0.1381 -1.0762
  464MOL0     C62548  11.363   2.088   5.720  0.1123  0.8625 -0.4377
  464MOL0    Cl62549  11.518   2.170   5.680  0.0891 -0.0942 -0.2662
  464MOL0     C62550  10.828   1.991   6.545 -0.3840 -0.2714 -1.0930
  464MOL0     C62551  10.721   1.958   6.630 -0.5487  0.2155 -0.3837
  464MOL0     O62552  10.347   2.073   6.593  0.5439  0.2602 -0.9061
  464MOL0     C62553  10.310   1.852   6.875  0.6181  0.9630 -0.5484
  464MOL0     C62554  10.210   1.800   6.959  0.0787  0.1457  0.2410
  464MOL0     N62555   9.343   1.864   7.261 -0.3445 -0.0650  0.8782
  464MOL0     N62556   9.229   1.813   7.235 -0.2340  0.0311 -1.1088
  464MOL0     C62557   8.190   2.130   7.276 -0.5360  0.5952  0.4336
  464MOL0     C62558   8.111   2.229   7.207 -0.2382  0.7561  0.0907
  464MOL0     C62559   8.002   2.534   6.914  0.8387 -1.1329 -0.7705
  464MOL0     C62560   7.937   2.622   7.007 -0.2244 -1.2023 -0.3999
  464MOL0     C62561   7.859   2.733   6.965  0.4937  0.7008 -0.2252
  464MOL0     C62562   7.821   2.742   6.833  0.5261  0.1088 -0.8807
  464MOL0     O62563   7.725   2.839   6.823  0.5698 -0.6388  0.4511
  464MOL0     C62564   7.659   2.869   6.697  0.2605 -0.0474  0.4921
  464MOL0     C62565   7.569   3.003   6.715 -0.0582 -0.1083 -0.2680
  464MOL0     C62566   7.473   2.997   6.841  0.3748 -0.0921 -0.2624
  464MOL0     C62567   7.350   2.910   6.810 -0.0442  0.3087  0.3004
  464MOL0     C62568   7.262   2.901   6.919 -0.0561  0.1865  1.1008
  464MOL0     C62569   7.202   2.902   7.021 -0.2368  1.0275 -0.3518
  464MOL0     C62570   7.867   2.657   6.733 -0.2329 -0.9184 -0.1549
  464MOL0     C62571   7.957   2.552   6.774 -0.2769  0.1294 -0.3147
  464MOL0     C62572   8.004   2.449   6.675 -0.6155 -1.0728 -0.9121
  464MOL0     H62573   8.357   2.470   7.207  4.2687 -2.2306  2.6224
  464MOL0     H62574   8.474   2.314   7.304 -0.4227  1.3687  3.7163
  464MOL0     H62575   8.320   1.876   7.331  0.1918  0.2744  0.8023
  464MOL0     H62576   8.417   1.933   7.198 -1.9535  1.3907  0.1242
  464MOL0     H62577   8.524   1.887   7.488 -1.1250 -0.3400 -0.3489
  464MOL0     H62578   8.625   1.923   7.358  1.1320  1.1639  0.8828
  464MOL0     H62579   8.553   1.694   7.241  0.5121 -1.2208  0.3738
  464MOL0     H62580   8.443   1.666   7.367  1.2073 -2.2246 -0.2634
  464MOL0     H62581   8.633   1.659   7.538  2.7070  1.6837  1.4862
  464MOL0     H62582   8.651   1.538   7.410  1.0525  1.1913  1.2783
  464MOL0     H62583   8.790   1.743   7.303  0.2207  1.1679 -0.0520
  464MOL0     H62584   8.817   1.779   7.473 -1.7778 -1.4084  1.4980
  464MOL0     H62585   8.881   1.520   7.495 -0.8145 -1.5951 -1.2017
  464MOL0     H62586   8.876   1.509   7.335 -2.0526 -0.0121  0.4103
  464MOL0     H62587   9.087   1.608   7.492  1.6043 -1.3917 -0.9148
  464MOL0     H62588   9.038   1.747   7.396  0.2205 -0.2956 -1.3227
  464MOL0     H62589   9.150   1.493   7.299 -2.0335  0.1541  4.4728
  464MOL0     H62590   9.047   1.603   7.191  1.4444  1.3836 -1.5833
  464MOL0     H62591   9.383   1.537   7.288  2.0125  0.3430  1.0957
  464MOL0     H62592   9.587   1.814   7.386 -0.0791  3.5577 -2.0019
  464MOL0     H62593   9.615   1.653   7.329 -0.4404 -1.2936 -1.5992
  464MOL0     H62594   9.606   1.740   7.091 -2.4086 -0.3853  1.4413
  464MOL0     H62595   9.637   1.901   7.160 -0.0061  0.3196  1.1148
  464MOL0     H62596   9.822   1.649   7.169  4.1359  0.1813  0.8115
  464MOL0     H62597   9.845   1.798   7.260  1.9490  0.3199 -2.3298
  464MOL0     H62598   9.829   1.918   7.037 -3.1325 -1.1502  0.4088
  464MOL0     H62599   9.811   1.763   6.963 -1.4980 -0.3657  0.0949
  464MOL0     H62600   9.935   1.934   6.831 -1.2848 -1.9052  3.6969
  464MOL0     H62601  10.106   2.017   6.661  2.1044 -0.6015 -1.0509
  464MOL0     H62602  10.467   1.953   6.403  0.1856 -1.8669  0.0995
  464MOL0     H62603  10.670   2.001   6.247 -0.2057 -0.9526 -0.4937
  464MOL0     H62604  10.812   1.869   6.194 -1.3142  0.8382 -0.0053
  464MOL0     H62605  10.903   2.002   6.130 -1.6895 -1.0525 -0.6867
  464MOL0     H62606  11.126   1.899   6.195 -0.7753  0.2323 -0.3588
  464MOL0     H62607  11.036   1.755   6.255 -1.0479  1.1428  1.5570
  464MOL0     H62608  11.123   1.729   6.021  1.3896  0.7604 -0.0605
  464MOL0     H62609  10.943   1.724   6.028  1.3100 -2.0752  4.3763
  464MOL0     H62610  10.928   1.953   5.932 -0.3552  0.1209 -2.0109
  464MOL0     H62611  11.004   1.845   5.821  0.3785  0.3512 -0.5856
  464MOL0     H62612  11.149   2.046   6.017  2.1534  1.1506 -2.0151
  464MOL0     H62613  11.115   2.078   5.851 -1.4392  0.2835  0.9539
  464MOL0     H62614  11.288   1.859   5.969  1.3793  1.6480  0.1763
  464MOL0     H62615  11.250   1.870   5.789  0.3919  1.0587 -1.0570
  464MOL0     H62616  11.474   1.951   5.837  1.2649  1.4240  2.8457
  464MOL0     H62617  11.399   2.075   5.937  0.4720  1.9251 -2.5977
  464MOL0     H62618  11.326   2.033   5.633  0.4180  1.9178 -1.2503
  464MOL0     H62619  11.285   2.162   5.740 -1.3760 -1.0605  1.2835
  464MOL0     H62620  10.928   1.994   6.588 -0.8727  0.2624  0.0516
  464MOL0     H62621  10.736   1.954   6.738 -1.8555 -1.1101 -0.2181
  464MOL0     H62622  10.414   1.831   6.897  0.0485 -1.7895 -0.1323
  464MOL0     H62623  10.231   1.742   7.049  0.6584  1.5205  1.0334
  464MOL0     H62624   8.133   2.038   7.292 -0.0179  0.1914 -0.0012
  464MOL0     H62625   8.012   2.210   7.165 -0.1929  0.0807  0.2743
  464MOL0     H62626   7.952   2.606   7.113  0.1734 -1.4127 -0.4881
  464MOL0     H62627   7.822   2.796   7.046  1.0041 -0.7552  1.2073
  464MOL0     H62628   7.592   2.792   6.658 -0.9652  1.3838 -0.3351
  464MOL0     H62629   7.737   2.887   6.622 -0.5768  0.7328 -0.2162
  464MOL0     H62630   7.503   3.024   6.631 -0.9928 -3.7537 -0.6239
  464MOL0     H62631   7.647   3.079   6.730 -0.3809  0.0467  0.7376
  464MOL0     H62632   7.439   3.097   6.867  1.4990  0.2542 -0.0547
  464MOL0     H62633   7.535   2.962   6.925  0.5269  2.1013  0.5925
  464MOL0     H62634   7.295   2.963   6.731  0.5846 -0.9308 -1.0086
  464MOL0     H62635   7.387   2.816   6.767  1.3212  1.7809 -1.9916
  464MOL0     H62636   7.160   2.910   7.120  1.7382  2.0279  0.4608
  464MOL0     H62637   7.830   2.656   6.630  2.3454 -1.3611 -1.1409
  464MOL0     H62638   7.946   2.451   6.582 -0.4999  3.3314 -1.1160
  464MOL0     H62639   8.111   2.459   6.653 -0.8396  1.0432 -1.3149
  464MOL0     H62640   8.005   2.348   6.716  2.8165 -1.2596 -1.1417
  465MOL0     O62641  10.827  10.679   5.403  0.3860  0.4126 -0.3423
  465MOL0     C62642  10.852  10.606   5.494 -0.3273  0.4952 -0.6927
  465MOL0     O62643  10.969  10.542   5.516 -0.5333  0.9084 -0.3466
  465MOL0     C62644  11.068  10.563   5.429  0.2386 -0.3298 -1.1463
  465MOL0     C62645  11.069  10.504   5.301 -0.2052 -0.2394  1.0883
  465MOL0     C62646  11.158  10.541   5.194 -0.4625  0.4655  0.7520
  465MOL0     C62647  11.254  10.635   5.217  0.2789 -0.7674  0.0224
  465MOL0     O62648  11.346  10.679   5.120  0.5364  0.6510  0.0566
  465MOL0     C62649  11.320  10.807   5.059 -0.4541  0.4064 -0.3614
  465MOL0     C62650  11.351  10.788   4.915  0.6730  0.0612  0.9008
  465MOL0     C62651  11.335  10.911   4.827  0.1257 -0.7154  0.3647
  465MOL0     C62652  11.428  10.907   4.708  0.1880  0.6172  0.2334
  465MOL0     C62653  11.459  11.051   4.652  0.0993  0.5943  0.8474
  465MOL0     C62654  11.339  11.144   4.627 -0.9317  0.1707 -0.4664
  465MOL0     C62655  11.397  11.280   4.599  0.3986 -0.9032 -0.4936
  465MOL0     C62656  11.452  11.280   4.452 -0.4125  0.5799  0.3698
  465MOL0     N62657  11.461  11.413   4.388 -0.0165  0.0709 -0.1052
  465MOL0     C62658  11.567  11.494   4.402  0.9355  0.3949 -0.1247
  465MOL0     C62659  11.533  11.606   4.332 -0.0085 -0.1818 -0.4771
  465MOL0     C62660  11.632  11.708   4.297  0.0473  0.1702 -0.2796
  465MOL0     C62661  11.786  11.669   4.317  0.1388  0.4226 -0.5558
  465MOL0     C62662  11.880  11.774   4.265  0.5038  0.6692  0.7011
  465MOL0     C62663  12.026  11.747   4.299 -0.3186  0.4017 -0.9720
  465MOL0     O62664  12.099  11.876   4.286 -0.7529  0.2360 -0.0432
  465MOL0     C62665  12.160  11.938   4.380  0.6728  0.2691 -1.0694
  465MOL0     C62666  12.203  12.072   4.378  0.6711 -0.0360  0.5802
  465MOL0     C62667  12.261  12.148   4.476 -0.1521  0.9385  0.0489
  465MOL0     C62668  12.288  12.083   4.590  0.3598  0.9415 -1.0608
  465MOL0     C62669  12.357  12.162   4.704  0.0167 -0.5952  0.3180
  465MOL0     O62670  12.395  12.290   4.667 -0.1950  0.5103  0.4087
  465MOL0     C62671  12.468  12.362   4.760  0.4750  0.0669 -0.7376
  465MOL0     C62672  12.581  12.315   4.829  0.7768 -0.0572 -0.5634
  465MOL0     C62673  12.636  12.404   4.927 -0.4528 -0.5659  0.1194
  465MOL0     C62674  12.590  12.533   4.953  0.3858  0.6102  0.5604
  465MOL0     O62675  12.654  12.610   5.045  0.4361 -0.8508  0.7658
  465MOL0     C62676  12.601  12.738   5.072  0.3253 -0.3943  0.1620
  465MOL0     C62677  12.682  12.793   5.199  0.4275 -0.1281 -0.2029
  465MOL0     C62678  12.833  12.813   5.175 -0.4983  0.2045  0.2506
  465MOL0     C62679  12.862  12.914   5.062  0.0492  0.0711  0.0426
  465MOL0     C62680  12.963  13.022   5.118  0.6691  0.1925  0.6986
  465MOL0     C62681  12.993  13.114   4.995  0.0341 -0.0274 -0.2771
  465MOL0     C62682  13.081  13.231   5.034 -1.1833  0.4043  0.2541
  465MOL0     C62683  13.214  13.181   5.105  0.5997 -0.3594 -0.6282
  465MOL0    Cl62684  13.287  13.041   5.008 -0.1983 -0.1960 -0.3268
  465MOL0     C62685  12.469  12.564   4.893  0.6822  0.4407 -0.1188
  465MOL0     C62686  12.411  12.480   4.803  0.5008  0.0144  0.1191
  465MOL0     O62687  12.388  12.106   4.814 -0.3540  0.2091  0.6447
  465MOL0     C62688  12.259  11.943   4.606 -0.1870 -0.3327  0.8700
  465MOL0     C62689  12.196  11.871   4.504 -0.5058  0.5366  0.3612
  465MOL0     N62690  11.398  11.605   4.296 -0.1571  0.6683  0.4714
  465MOL0     N62691  11.362  11.480   4.319 -0.4147  0.3231  0.6891
  465MOL0     C62692  11.253  10.702   5.344  0.3485  1.3783 -0.6372
  465MOL0     C62693  11.162  10.666   5.450  0.0820 -0.6855  0.4151
  465MOL0     C62694  10.740  10.565   5.582 -0.4275 -0.5130  0.5596
  465MOL0     C62695  10.792  10.509   5.708  0.5509 -0.0934  0.3111
  465MOL0     C62696  10.695  10.500   5.808  0.1087  1.1268  0.7892
  465MOL0     C62697  10.553  10.504   5.786  0.5469  0.2019 -0.0350
  465MOL0     O62698  10.468  10.469   5.884  0.0688 -0.1893 -0.9778
  465MOL0     C62699  10.332  10.454   5.855  0.0695 -0.4842 -0.8179
  465MOL0     C62700  10.241  10.411   5.978  0.0830  0.3978  0.7879
  465MOL0     C62701  10.292  10.273   6.046 -0.2970  0.4970 -1.2983
  465MOL0     C62702  10.234  10.267   6.191 -0.2528 -0.1534  0.5436
  465MOL0     C62703  10.327  10.330   6.287 -0.9873  0.7809  0.2032
  465MOL0     C62704  10.411  10.390   6.349 -0.2941 -0.6616 -0.0390
  465MOL0     C62705  10.508  10.532   5.650 -0.4044  0.5354 -0.4992
  465MOL0     C62706  10.602  10.574   5.552  0.1606  0.6863  0.3691
  465MOL0     C62707  10.547  10.598   5.409  0.8090  0.6447  0.0667
  465MOL0     H62708  10.986  10.436   5.282 -0.7936  0.7205  0.0744
  465MOL0     H62709  11.142  10.499   5.095  1.4038  3.5516 -0.9905
  465MOL0     H62710  11.221  10.848   5.082 -1.0369  0.6411 -2.9679
  465MOL0     H62711  11.394  10.873   5.105 -1.6388  0.4072  1.6644
  465MOL0     H62712  11.283  10.711   4.877  1.6212  0.0528 -0.8769
  465MOL0     H62713  11.455  10.754   4.913  0.4244 -0.7022  0.3806
  465MOL0     H62714  11.346  11.002   4.886 -0.9170 -1.5932  1.9866
  465MOL0     H62715  11.236  10.923   4.784  1.3571  1.6199 -2.1256
  465MOL0     H62716  11.528  10.869   4.730 -0.0331  0.7322  1.5215
  465MOL0     H62717  11.382  10.844   4.631 -0.5422  3.1012 -1.5026
  465MOL0     H62718  11.542  11.091   4.712  1.9100 -1.0507 -0.4182
  465MOL0     H62719  11.505  11.031   4.555 -2.2397  0.1270 -0.2259
  465MOL0     H62720  11.278  11.109   4.543 -1.8864  1.6859 -0.4484
  465MOL0     H62721  11.279  11.152   4.719  0.5367 -3.7856  1.0473
  465MOL0     H62722  11.467  11.307   4.679 -0.7935 -1.0238  0.6222
  465MOL0     H62723  11.313  11.351   4.598 -0.4486 -1.8891 -1.5594
  465MOL0     H62724  11.546  11.224   4.449 -1.1210 -0.6626 -2.5994
  465MOL0     H62725  11.380  11.231   4.386  0.8152 -0.0415 -0.5605
  465MOL0     H62726  11.665  11.455   4.427  0.1296 -1.3746  0.4392
  465MOL0     H62727  11.612  11.738   4.194 -0.2149  1.7575  0.2035
  465MOL0     H62728  11.606  11.787   4.368 -1.2957  0.1122 -0.6921
  465MOL0     H62729  11.802  11.665   4.425  1.6620 -1.3633 -0.7967
  465MOL0     H62730  11.800  11.567   4.279  0.6070 -0.7488  2.4266
  465MOL0     H62731  11.862  11.873   4.308  4.3192  1.1240  1.6435
  465MOL0     H62732  11.864  11.782   4.157 -5.7672 -1.0995  1.1102
  465MOL0     H62733  12.066  11.664   4.239 -1.6473  0.1977 -1.6087
  465MOL0     H62734  12.026  11.712   4.403 -1.6953 -0.3438 -1.2097
  465MOL0     H62735  12.199  12.120   4.281  1.4776 -0.1778  0.4695
  465MOL0     H62736  12.248  12.256   4.467  0.5072  1.3902  3.2678
  465MOL0     H62737  12.615  12.214   4.809 -0.3653 -0.6873  0.5607
  465MOL0     H62738  12.727  12.383   4.983  0.0273  0.7715 -0.1278
  465MOL0     H62739  12.617  12.806   4.988 -2.0315 -1.3813 -1.1724
  465MOL0     H62740  12.497  12.733   5.104  0.4467 -3.2075  0.3847
  465MOL0     H62741  12.639  12.891   5.224  0.9654 -0.2745  1.3855
  465MOL0     H62742  12.663  12.720   5.279  1.4432 -1.6284 -1.2898
  465MOL0     H62743  12.883  12.825   5.271  1.9155 -0.0219 -0.9135
  465MOL0     H62744  12.872  12.717   5.139 -0.4983  0.1013  0.5282
  465MOL0     H62745  12.778  12.981   5.041  0.8477  1.0685 -0.0561
  465MOL0     H62746  12.894  12.861   4.972 -1.6947  0.2796 -0.7606
  465MOL0     H62747  13.053  12.973   5.156 -0.4796 -1.3193  1.5923
  465MOL0     H62748  12.914  13.071   5.202  0.2409  0.7807  0.1129
  465MOL0     H62749  13.026  13.055   4.909 -4.4880 -1.9363 -0.9868
  465MOL0     H62750  12.903  13.165   4.959  1.3766  1.7042 -1.3404
  465MOL0     H62751  13.033  13.302   5.101 -1.2681  0.8431 -0.2657
  465MOL0     H62752  13.098  13.288   4.943 -1.0712 -2.9115 -1.9964
  465MOL0     H62753  13.289  13.261   5.108 -0.5589  0.7767 -0.7415
  465MOL0     H62754  13.176  13.156   5.205  2.5775  2.2509  0.9253
  465MOL0     H62755  12.429  12.663   4.912  1.3971  1.4037 -3.0809
  465MOL0     H62756  12.320  12.513   4.754  0.1406 -0.2336  0.6166
  465MOL0     H62757  12.290  11.881   4.689 -4.1541 -0.6273  2.3497
  465MOL0     H62758  12.184  11.763   4.505  1.7666  0.1576 -2.3618
  465MOL0     H62759  11.320  10.781   5.378  1.1736 -0.1059  1.4027
  465MOL0     H62760  11.169  10.707   5.550 -1.7346 -0.8562  0.6446
  465MOL0     H62761  10.897  10.490   5.728  0.0140 -3.8701  0.3461
  465MOL0     H62762  10.719  10.468   5.909  0.9470  1.2260  0.6266
  465MOL0     H62763  10.331  10.384   5.771  0.6605 -1.4127 -0.0688
  465MOL0     H62764  10.285  10.545   5.817  0.3439 -1.0442 -2.5798
  465MOL0     H62765  10.144  10.389   5.934  1.1616 -0.0431 -1.4862
  465MOL0     H62766  10.229  10.493   6.050  0.4354  2.8553 -1.7797
  465MOL0     H62767  10.401  10.264   6.042 -0.2728  0.7007 -1.1019
  465MOL0     H62768  10.253  10.200   5.974 -3.6062 -0.8179  1.5207
  465MOL0     H62769  10.135  10.314   6.196 -0.3710 -0.2968 -0.2861
  465MOL0     H62770  10.223  10.162   6.220  1.6062 -0.2622  0.9417
  465MOL0     H62771  10.491  10.448   6.390  0.7617  0.7517 -3.6789
  465MOL0     H62772  10.404  10.516   5.623 -0.0329  2.5404 -3.6389
  465MOL0     H62773  10.547  10.700   5.370 -4.0654  0.7527 -0.2172
  465MOL0     H62774  10.601  10.528   5.345  1.8076  2.6868 -1.4577
  465MOL0     H62775  10.442  10.571   5.391  1.2165 -0.4812 -0.7139
  466MOL0     O62776   0.099   4.338   1.626  0.2601  0.3442 -0.0004
  466MOL0     C62777  -0.012   4.297   1.625  1.1838  0.4007 -0.1703
  466MOL0     O62778  -0.048   4.183   1.569  0.7053 -0.3039  0.3776
  466MOL0     C62779   0.029   4.067   1.564  0.4572 -0.0017  0.4708
  466MOL0     C62780  -0.006   3.980   1.469 -1.2234  0.2650  0.4447
  466MOL0     C62781   0.064   3.860   1.457  0.1456  0.9475  0.0073
  466MOL0     C62782   0.160   3.812   1.548  0.0149  0.0383  0.3216
  466MOL0     O62783   0.231   3.695   1.545 -0.2682  0.3432 -0.1394
  466MOL0     C62784   0.252   3.647   1.415  0.4672 -0.1334  0.2889
  466MOL0     C62785   0.375   3.559   1.400  0.0652  0.2748  0.1686
  466MOL0     C62786   0.500   3.640   1.432 -0.2179 -1.4430 -0.2743
  466MOL0     C62787   0.532   3.666   1.582 -0.3717  0.3938  0.1332
  466MOL0     C62788   0.671   3.621   1.626  0.2107  0.1515 -0.3720
  466MOL0     C62789   0.700   3.648   1.768 -0.3141  0.7090 -0.5235
  466MOL0     C62790   0.848   3.655   1.809 -0.0314 -0.1963  0.0568
  466MOL0     C62791   0.917   3.519   1.813  0.1688  0.0292  0.0896
  466MOL0     N62792   1.054   3.526   1.862  0.9525  0.0113  0.7927
  466MOL0     C62793   1.166   3.571   1.784 -0.3947 -0.2533 -0.6176
  466MOL0     C62794   1.275   3.555   1.870  0.7095  0.4487 -0.6419
  466MOL0     C62795   1.420   3.561   1.834 -0.2532 -0.5284 -0.2549
  466MOL0     C62796   1.481   3.687   1.896 -0.1459 -0.2154  1.7270
  466MOL0     C62797   1.623   3.694   1.861 -0.2845 -0.0396  0.6112
  466MOL0     C62798   1.717   3.704   1.991 -0.2638  0.0044 -0.8771
  466MOL0     O62799   1.744   3.842   2.027 -0.8471 -0.4840  1.2985
  466MOL0     C62800   1.787   3.885   2.151  0.8978 -0.2526 -0.0191
  466MOL0     C62801   1.827   3.791   2.244  0.3974 -0.5485  0.2804
  466MOL0     C62802   1.860   3.830   2.375 -0.7928 -0.0088 -0.8749
  466MOL0     C62803   1.852   3.961   2.415 -0.0982  0.4629  0.6631
  466MOL0     C62804   1.871   3.995   2.559 -0.2378  0.3314  0.3439
  466MOL0     O62805   1.854   4.130   2.590  1.2926  0.2860  0.7544
  466MOL0     C62806   1.913   4.187   2.701 -0.6258  0.9514  0.1268
  466MOL0     C62807   1.930   4.329   2.681  0.1449 -0.1794 -0.6505
  466MOL0     C62808   1.990   4.399   2.790  0.5699 -0.1515  0.2534
  466MOL0     C62809   2.009   4.334   2.914  0.5592 -0.9515  0.4231
  466MOL0     O62810   2.059   4.412   3.011 -0.2398 -0.7809 -0.3302
  466MOL0     C62811   2.086   4.338   3.132 -0.7010 -0.8577  0.1008
  466MOL0     C62812   2.152   4.442   3.237  0.3240 -1.0381  0.0424
  466MOL0     C62813   2.040   4.516   3.310 -0.2145  0.3820  0.3421
  466MOL0     C62814   2.090   4.615   3.416 -0.3246  0.4436  0.9192
  466MOL0     C62815   1.982   4.716   3.449 -0.2363  0.1955  0.2297
  466MOL0     C62816   2.035   4.841   3.514  0.3255 -0.6581 -0.8476
  466MOL0     C62817   2.071   4.957   3.411 -0.3018 -0.2129  0.5813
  466MOL0     C62818   2.170   4.929   3.301  0.6016  0.8197 -0.1448
  466MOL0    Cl62819   2.198   5.060   3.201  0.3517  0.6460  0.4253
  466MOL0     C62820   1.981   4.199   2.924 -1.3473  0.1481  0.0047
  466MOL0     C62821   1.937   4.117   2.820 -0.5489  0.5713 -0.3938
  466MOL0     O62822   1.922   3.916   2.638  0.0141 -0.0228  0.1667
  466MOL0     C62823   1.817   4.055   2.315 -0.3312  0.0700  0.3907
  466MOL0     C62824   1.789   4.024   2.181  0.2412  0.2782  0.4407
  466MOL0     N62825   1.224   3.489   1.987  0.0047  0.9208  0.3934
  466MOL0     N62826   1.099   3.478   1.983  0.2559 -0.2570  0.4916
  466MOL0     C62827   0.189   3.903   1.649  0.6399 -0.0338  0.1450
  466MOL0     C62828   0.117   4.023   1.662 -0.0835 -0.1252 -0.6965
  466MOL0     C62829  -0.128   4.370   1.682  0.1858  0.8452 -0.2976
  466MOL0     C62830  -0.242   4.388   1.606  0.2341  0.8508 -1.5085
  466MOL0     C62831  -0.340   4.459   1.663 -0.6685  0.0224 -0.1885
  466MOL0     C62832  -0.333   4.517   1.790  0.1333 -0.0591  0.0439
  466MOL0     O62833  -0.449   4.563   1.846  0.4410 -0.6807  0.7928
  466MOL0     C62834  -0.438   4.654   1.957  0.6666 -0.3808  0.1776
  466MOL0     C62835  -0.576   4.730   1.974 -0.1552  0.0495 -0.1292
  466MOL0     C62836  -0.599   4.835   1.871  0.2001  0.1545  0.0803
  466MOL0     C62837  -0.700   4.924   1.927 -0.0392 -0.1012 -0.2907
  466MOL0     C62838  -0.765   5.013   1.826  0.0909 -0.0590 -0.5051
  466MOL0     C62839  -0.806   5.100   1.745 -1.1093  0.4127 -0.6691
  466MOL0     C62840  -0.220   4.505   1.866 -0.2004 -0.6637 -0.0197
  466MOL0     C62841  -0.113   4.430   1.813  0.2286 -0.8614 -0.9447
  466MOL0     C62842   0.009   4.423   1.900 -0.0518  0.3488  0.4730
  466MOL0     H62843  -0.057   4.014   1.379 -3.8760 -1.3307  1.2578
  466MOL0     H62844   0.039   3.806   1.366  2.2766 -2.2000  1.1351
  466MOL0     H62845   0.165   3.582   1.404  0.9003 -0.8687  1.0229
  466MOL0     H62846   0.244   3.721   1.336  1.4903 -1.1295 -0.7965
  466MOL0     H62847   0.390   3.528   1.296 -2.8374  0.1943 -0.3099
  466MOL0     H62848   0.375   3.467   1.459 -1.6026  0.4372  0.4794
  466MOL0     H62849   0.504   3.736   1.381  2.1412  0.1493  2.5449
  466MOL0     H62850   0.589   3.585   1.399 -0.1480 -1.1366 -0.5890
  466MOL0     H62851   0.512   3.774   1.590  1.7198  0.8472 -0.0181
  466MOL0     H62852   0.460   3.617   1.648  0.0441  2.4098  2.2348
  466MOL0     H62853   0.679   3.512   1.614  0.2979  0.3221 -2.1687
  466MOL0     H62854   0.745   3.672   1.563  2.0378 -0.8311  0.8870
  466MOL0     H62855   0.670   3.751   1.788  2.9639  1.4129  1.4629
  466MOL0     H62856   0.644   3.577   1.829  1.2796  0.1510  0.3520
  466MOL0     H62857   0.866   3.684   1.913  1.7627 -1.5253  0.1651
  466MOL0     H62858   0.908   3.721   1.746 -0.5691 -0.9809 -1.3169
  466MOL0     H62859   0.851   3.450   1.867 -2.0182  0.9528 -1.2740
  466MOL0     H62860   0.930   3.481   1.712 -0.4826  1.7057 -0.6730
  466MOL0     H62861   1.163   3.611   1.683 -1.5511  1.3308 -0.0046
  466MOL0     H62862   1.472   3.473   1.872  3.0201 -0.1448 -3.3259
  466MOL0     H62863   1.426   3.576   1.726 -0.2758  0.9496 -0.0673
  466MOL0     H62864   1.437   3.781   1.861 -0.2019 -1.0940 -0.7237
  466MOL0     H62865   1.475   3.681   2.005  3.0871 -1.5477  1.9760
  466MOL0     H62866   1.629   3.782   1.795  0.3230 -0.9840 -0.6466
  466MOL0     H62867   1.646   3.611   1.794  1.1164 -0.0044  1.0045
  466MOL0     H62868   1.813   3.654   1.974 -0.0573  0.7239 -1.9456
  466MOL0     H62869   1.658   3.661   2.073 -0.3250  0.2457 -0.7950
  466MOL0     H62870   1.825   3.684   2.222  1.3552 -0.7839  1.2505
  466MOL0     H62871   1.905   3.747   2.429  1.8679 -0.2744 -3.2889
  466MOL0     H62872   1.882   4.387   2.603  0.3726  0.5994 -0.2268
  466MOL0     H62873   2.007   4.506   2.784 -1.0877  0.1830  0.9284
  466MOL0     H62874   1.993   4.295   3.170 -2.5442 -0.2412 -3.3315
  466MOL0     H62875   2.155   4.254   3.122 -0.9312 -1.4122  2.4944
  466MOL0     H62876   2.205   4.399   3.322 -2.0771  0.9307  2.7354
  466MOL0     H62877   2.217   4.510   3.181 -0.7669  0.9541  1.0566
  466MOL0     H62878   1.969   4.557   3.238  0.0091 -0.2488 -0.2473
  466MOL0     H62879   1.993   4.439   3.372 -0.8191  1.8397  1.7555
  466MOL0     H62880   2.171   4.662   3.359 -0.7851 -1.7059 -1.7382
  466MOL0     H62881   2.125   4.568   3.508 -0.2028  2.3771  1.9208
  466MOL0     H62882   1.914   4.679   3.526  0.1908 -1.0897  0.0082
  466MOL0     H62883   1.920   4.742   3.363  0.1896 -2.0384 -0.8120
  466MOL0     H62884   1.959   4.879   3.583 -0.8335 -0.2253 -2.2861
  466MOL0     H62885   2.122   4.819   3.576 -1.0698  2.2815  2.4647
  466MOL0     H62886   2.102   5.049   3.461  0.1664  0.2139 -0.4703
  466MOL0     H62887   1.981   4.998   3.364 -0.5756 -0.7143  0.6525
  466MOL0     H62888   2.266   4.897   3.342 -0.4058 -3.9180 -0.9183
  466MOL0     H62889   2.138   4.848   3.235  1.9238  2.4571 -3.0036
  466MOL0     H62890   1.989   4.142   3.016 -0.6108 -2.6334 -1.6640
  466MOL0     H62891   1.914   4.015   2.848 -0.2858  0.3999 -0.7992
  466MOL0     H62892   1.813   4.158   2.349  2.7804 -0.1953  1.9329
  466MOL0     H62893   1.765   4.097   2.105 -0.7402 -1.0988 -0.6302
  466MOL0     H62894   0.266   3.881   1.722  2.5719 -1.2150 -2.0793
  466MOL0     H62895   0.151   4.078   1.749  2.3783 -2.3725 -0.0850
  466MOL0     H62896  -0.279   4.345   1.514 -2.0749  0.6184 -0.5289
  466MOL0     H62897  -0.422   4.481   1.596  1.7346  3.2694 -2.3659
  466MOL0     H62898  -0.357   4.724   1.934 -1.8312  3.2656  1.4490
  466MOL0     H62899  -0.418   4.612   2.057 -5.2394 -0.5523  1.6534
  466MOL0     H62900  -0.574   4.776   2.073  1.3729 -1.7334  0.7272
  466MOL0     H62901  -0.654   4.655   1.958 -1.7247  0.8517  3.0504
  466MOL0     H62902  -0.641   4.788   1.782  1.0833  2.8853 -1.8958
  466MOL0     H62903  -0.507   4.883   1.837  0.6312 -0.1253  0.8095
  466MOL0     H62904  -0.791   4.873   1.958 -1.0947  2.1342  0.5597
  466MOL0     H62905  -0.658   4.988   2.005 -0.6921  0.3640 -0.3079
  466MOL0     H62906  -0.853   5.178   1.689 -3.2370 -0.1686  0.2063
  466MOL0     H62907  -0.212   4.547   1.966  2.7376  2.6195 -1.3840
  466MOL0     H62908   0.100   4.475   1.868  2.8081 -4.0276  0.6542
  466MOL0     H62909  -0.017   4.451   2.003  1.7652 -0.4057  1.1840
  466MOL0     H62910   0.034   4.317   1.907  0.9095  0.5708  0.5604
  467MOL0     O62911   7.482  11.127   0.304 -0.0728 -0.5945 -0.0001
  467MOL0     C62912   7.571  11.161   0.228  0.3943 -0.0750  0.5125
  467MOL0     O62913   7.545  11.213   0.102 -0.5594 -0.1621 -0.1097
  467MOL0     C62914   7.417  11.225   0.059  0.3131  0.2632  0.3801
  467MOL0     C62915   7.366  11.159  -0.055  0.1489  0.2033 -0.6005
  467MOL0     C62916   7.227  11.177  -0.100 -0.6675 -0.5203 -0.0751
  467MOL0     C62917   7.147  11.275  -0.033  0.2343 -0.0536 -0.5113
  467MOL0     O62918   7.015  11.297  -0.061 -0.0016  0.6394  0.0234
  467MOL0     C62919   6.920  11.188  -0.079  0.0600  0.6257  0.6338
  467MOL0     C62920   6.782  11.240  -0.109 -1.0263 -0.1007 -0.4890
  467MOL0     C62921   6.736  11.350  -0.018 -0.3302 -0.2527  0.1942
  467MOL0     C62922   6.590  11.384  -0.034  0.5662 -0.9348 -0.2857
  467MOL0     C62923   6.504  11.282   0.036 -0.2589  0.3132  0.4937
  467MOL0     C62924   6.361  11.347   0.043 -0.4139  0.1337 -0.0105
  467MOL0     C62925   6.236  11.273   0.089  0.1452  0.5188  0.2947
  467MOL0     C62926   6.163  11.190  -0.016  1.4891 -0.1531 -0.2466
  467MOL0     N62927   6.234  11.065  -0.048 -0.7835  0.3943  0.0209
  467MOL0     C62928   6.275  11.032  -0.173 -0.0412  0.0948  0.4487
  467MOL0     C62929   6.333  10.914  -0.155 -0.1861  0.1709 -0.0685
  467MOL0     C62930   6.370  10.826  -0.274 -0.3174 -0.2542 -0.5284
  467MOL0     C62931   6.507  10.866  -0.333 -0.0894 -0.0046  0.1207
  467MOL0     C62932   6.624  10.819  -0.246 -0.1003  0.3620 -0.0716
  467MOL0     C62933   6.762  10.850  -0.296 -0.0364  0.5107  0.1026
  467MOL0     O62934   6.845  10.833  -0.182  0.5979 -0.2191  0.1293
  467MOL0     C62935   6.980  10.825  -0.200  0.1609  0.1043 -0.8715
  467MOL0     C62936   7.046  10.762  -0.097 -0.2239  0.1604 -0.2334
  467MOL0     C62937   7.186  10.760  -0.092  0.3598 -0.2407  0.7155
  467MOL0     C62938   7.265  10.822  -0.197  0.4474  0.4395 -0.1983
  467MOL0     C62939   7.407  10.809  -0.190 -0.1900 -1.1418  0.7331
  467MOL0     O62940   7.460  10.812  -0.059  0.3788  0.5715  0.1096
  467MOL0     C62941   7.599  10.791  -0.044  0.1237  0.1276 -0.8607
  467MOL0     C62942   7.684  10.718  -0.132  0.4291 -0.4628  0.6772
  467MOL0     C62943   7.823  10.719  -0.117 -0.1404  0.9852 -0.1797
  467MOL0     C62944   7.871  10.745   0.011  0.2508  0.3784 -0.2799
  467MOL0     O62945   8.002  10.712   0.046  0.6304  0.0753 -0.0107
  467MOL0     C62946   8.090  10.826   0.027 -0.1425  0.3041 -0.0531
  467MOL0     C62947   8.225  10.792  -0.038  0.3375  0.5392  0.0397
  467MOL0     C62948   8.345  10.834   0.041 -0.9573  0.6549 -0.2103
  467MOL0     C62949   8.462  10.815  -0.043 -1.1635  0.8596  0.8622
  467MOL0     C62950   8.585  10.866   0.032 -0.1293 -0.1472  0.4985
  467MOL0     C62951   8.705  10.855  -0.059 -0.1349  0.4348 -0.0888
  467MOL0     C62952   8.837  10.902  -0.004  0.9566 -0.5919  0.5002
  467MOL0     C62953   8.881  10.855   0.137 -0.4367  0.5113  0.5065
  467MOL0    Cl62954   9.006  10.952   0.218  0.7452  0.1312 -0.2080
  467MOL0     C62955   7.783  10.795   0.113 -0.5168 -0.5088  0.3552
  467MOL0     C62956   7.648  10.825   0.081 -0.0641 -0.4161  0.3003
  467MOL0     O62957   7.467  10.803  -0.302  0.5323 -0.5196 -1.0554
  467MOL0     C62958   7.192  10.889  -0.301  0.1986  1.0921  0.2323
  467MOL0     C62959   7.055  10.890  -0.295 -0.1134 -0.1300 -0.3685
  467MOL0     N62960   6.318  10.872  -0.023  0.6354 -0.3204  0.3058
  467MOL0     N62961   6.258  10.967   0.040  0.2807  0.6464  0.7040
  467MOL0     C62962   7.202  11.346   0.075 -0.2151 -0.1571 -0.4876
  467MOL0     C62963   7.334  11.316   0.119  0.8828  0.0124 -0.0566
  467MOL0     C62964   7.711  11.122   0.266  0.3644  0.1489  0.3847
  467MOL0     C62965   7.726  11.062   0.394 -0.2124  0.0178 -1.0966
  467MOL0     C62966   7.848  10.999   0.431 -0.3055 -0.6296  0.6745
  467MOL0     C62967   7.959  11.005   0.338  0.0136 -0.3071 -0.5524
  467MOL0     O62968   8.085  10.949   0.366  0.2082 -0.0835  0.0553
  467MOL0     C62969   8.118  10.868   0.479  0.4012 -0.5172  0.5573
  467MOL0     C62970   8.235  10.931   0.553 -0.4660 -0.1840  0.3391
  467MOL0     C62971   8.364  10.965   0.473 -0.2607  0.7032 -0.8508
  467MOL0     C62972   8.358  11.096   0.393  0.7984 -0.5750  0.3048
  467MOL0     C62973   8.493  11.113   0.343  0.4490  0.1416  0.4202
  467MOL0     C62974   8.598  11.122   0.289 -0.4068 -0.1940 -0.5156
  467MOL0     C62975   7.943  11.076   0.218  0.6394 -0.2539 -0.3169
  467MOL0     C62976   7.823  11.130   0.181  0.0726  0.4851 -0.8492
  467MOL0     C62977   7.824  11.214   0.053  0.6592  0.3681  0.6797
  467MOL0     H62978   7.425  11.079  -0.099 -2.4835 -1.8043 -0.7124
  467MOL0     H62979   7.171  11.125  -0.177 -1.0852  1.8980 -1.5104
  467MOL0     H62980   6.946  11.125  -0.165 -2.1912  2.1628 -1.2931
  467MOL0     H62981   6.911  11.113  -0.000 -2.0022 -1.7154 -1.6112
  467MOL0     H62982   6.721  11.149  -0.102 -0.0194 -0.6648  4.1780
  467MOL0     H62983   6.784  11.273  -0.213  1.5489 -0.9088 -0.7563
  467MOL0     H62984   6.805  11.432  -0.042  3.1388 -2.6894  1.0543
  467MOL0     H62985   6.755  11.333   0.089 -1.0041  1.2888  0.5817
  467MOL0     H62986   6.568  11.475   0.022 -0.7466 -1.0555 -0.5937
  467MOL0     H62987   6.565  11.397  -0.139  1.5854 -1.4678 -0.6150
  467MOL0     H62988   6.504  11.193  -0.027  1.5578  1.6233 -1.4832
  467MOL0     H62989   6.532  11.258   0.139  0.1405 -1.7669 -0.0546
  467MOL0     H62990   6.376  11.433   0.109  1.7701  0.4799 -0.8651
  467MOL0     H62991   6.342  11.388  -0.056  3.1693  1.3836 -0.3413
  467MOL0     H62992   6.158  11.339   0.130 -0.9049 -0.0736 -0.6730
  467MOL0     H62993   6.260  11.205   0.172  1.3017 -0.7311 -1.0050
  467MOL0     H62994   6.067  11.158   0.026  0.4160 -0.0717 -2.4986
  467MOL0     H62995   6.141  11.249  -0.106  0.8890  0.5722  0.3595
  467MOL0     H62996   6.280  11.089  -0.265 -0.4081  4.6984  2.9586
  467MOL0     H62997   6.377  10.730  -0.222 -1.2865  0.5556  1.1873
  467MOL0     H62998   6.290  10.838  -0.348 -4.5280  2.9168  3.9289
  467MOL0     H62999   6.518  10.836  -0.437 -1.1060  1.1013 -0.3337
  467MOL0     H63000   6.506  10.975  -0.345 -0.0050 -0.2305 -2.4401
  467MOL0     H63001   6.609  10.713  -0.223 -1.0033  0.1969 -1.3414
  467MOL0     H63002   6.611  10.870  -0.151 -0.9422  1.3666 -0.7096
  467MOL0     H63003   6.773  10.953  -0.331  0.6980  1.5798  3.1572
  467MOL0     H63004   6.803  10.784  -0.373  0.3321  2.4319 -1.4231
  467MOL0     H63005   6.977  10.718  -0.026 -1.1960 -1.1733 -1.9212
  467MOL0     H63006   7.235  10.710  -0.010 -0.0378 -1.5825  0.1719
  467MOL0     H63007   7.638  10.671  -0.218 -0.2448 -1.4528  1.5508
  467MOL0     H63008   7.901  10.675  -0.179  2.6563  0.3699  3.3736
  467MOL0     H63009   8.034  10.912  -0.012 -4.4171 -2.6020 -0.9874
  467MOL0     H63010   8.119  10.852   0.130 -1.3727 -0.5806  0.5340
  467MOL0     H63011   8.234  10.683  -0.042  2.2351  0.5044  2.3573
  467MOL0     H63012   8.227  10.829  -0.141 -1.2897 -2.1990 -1.0825
  467MOL0     H63013   8.339  10.937   0.076 -1.5486 -0.7969  4.7660
  467MOL0     H63014   8.359  10.768   0.128 -2.3731  0.4956 -0.0811
  467MOL0     H63015   8.442  10.868  -0.136 -1.3106  0.3811  0.6147
  467MOL0     H63016   8.478  10.713  -0.080 -3.8094  1.1623 -1.4624
  467MOL0     H63017   8.594  10.823   0.133 -0.9589  3.2870  2.2037
  467MOL0     H63018   8.576  10.974   0.045 -1.1983  0.1344 -2.0516
  467MOL0     H63019   8.733  10.753  -0.088 -1.0665  0.5795 -1.6395
  467MOL0     H63020   8.675  10.915  -0.146 -2.7596  1.2711  1.2947
  467MOL0     H63021   8.836  11.011   0.007  1.2717 -0.6446  1.1192
  467MOL0     H63022   8.920  10.880  -0.072  1.6928 -0.8798  1.4827
  467MOL0     H63023   8.799  10.859   0.209  1.3921  0.8783  2.6511
  467MOL0     H63024   8.913  10.752   0.123 -1.8869  0.0671  0.1960
  467MOL0     H63025   7.823  10.810   0.213  0.6549  1.0468 -0.3094
  467MOL0     H63026   7.579  10.872   0.150 -0.2617 -0.2022 -0.0411
  467MOL0     H63027   7.230  10.955  -0.378 -2.7289  3.1240  0.3500
  467MOL0     H63028   7.006  10.938  -0.379  2.6391  2.3724 -0.7347
  467MOL0     H63029   7.139  11.410   0.137  3.2831  4.1772 -0.9347
  467MOL0     H63030   7.382  11.373   0.198 -1.7397 -1.0015  2.4465
  467MOL0     H63031   7.652  11.060   0.473  1.1149 -1.6219  0.1613
  467MOL0     H63032   7.851  10.950   0.528 -2.6332 -2.8001 -0.2210
  467MOL0     H63033   8.148  10.769   0.441 -0.2790 -1.1910  1.7170
  467MOL0     H63034   8.037  10.841   0.547  2.6801 -0.5193  3.4631
  467MOL0     H63035   8.270  10.866   0.634  1.7509 -1.7693 -1.7459
  467MOL0     H63036   8.202  11.021   0.604  0.6140  1.3668 -1.5663
  467MOL0     H63037   8.393  10.887   0.402 -0.0492  0.4770 -0.5179
  467MOL0     H63038   8.448  10.969   0.543 -0.5890 -2.5649 -0.1019
  467MOL0     H63039   8.279  11.080   0.319 -0.2901 -0.6022  1.4546
  467MOL0     H63040   8.312  11.179   0.447 -0.7341  0.6767 -2.6985
  467MOL0     H63041   8.687  11.136   0.232  2.0889 -2.5734  2.4234
  467MOL0     H63042   8.030  11.079   0.152  1.3095 -0.6653  0.5181
  467MOL0     H63043   7.788  11.314   0.079  0.7433  0.3948  0.6947
  467MOL0     H63044   7.924  11.221   0.010 -0.0184 -0.1634 -1.0890
  467MOL0     H63045   7.766  11.166  -0.027  0.7193  1.6656 -0.1848
  468MOL0     O63046   1.118   4.632   4.650 -0.5282 -0.0519 -0.3839
  468MOL0     C63047   1.054   4.552   4.583 -0.6996  0.2442 -0.2891
  468MOL0     O63048   0.936   4.590   4.511 -0.1189 -1.2058 -0.1541
  468MOL0     C63049   0.904   4.522   4.403 -0.1367  0.5950 -0.1620
  468MOL0     C63050   0.770   4.535   4.376 -0.4384 -0.5794 -0.4311
  468MOL0     C63051   0.713   4.473   4.269  0.4907 -0.0441 -0.5873
  468MOL0     C63052   0.787   4.394   4.189  0.3994 -0.3752  1.1422
  468MOL0     O63053   0.717   4.336   4.084  0.0500  0.0826  0.6504
  468MOL0     C63054   0.772   4.260   3.977  0.1551  0.6655  0.5292
  468MOL0     C63055   0.852   4.349   3.881  0.8214  0.1512 -0.1358
  468MOL0     C63056   0.945   4.258   3.784 -0.1925  0.3492  0.1100
  468MOL0     C63057   1.095   4.280   3.814  0.2447 -0.2196  0.4875
  468MOL0     C63058   1.197   4.215   3.721  1.4805  0.1973 -0.9193
  468MOL0     C63059   1.171   4.075   3.663  0.4935 -0.6202 -0.4702
  468MOL0     C63060   1.298   4.002   3.610 -0.1954 -0.3973 -0.5015
  468MOL0     C63061   1.263   3.870   3.540 -0.8017 -0.6538  0.4312
  468MOL0     N63062   1.382   3.795   3.495  0.2813 -0.6350 -0.5543
  468MOL0     C63063   1.454   3.696   3.562  0.3899  0.4710  1.1677
  468MOL0     C63064   1.558   3.666   3.471 -0.3049 -0.4652 -0.2613
  468MOL0     C63065   1.677   3.574   3.482 -0.3598 -0.9548 -0.6331
  468MOL0     C63066   1.799   3.640   3.550 -0.3907 -0.1803 -0.1500
  468MOL0     C63067   1.918   3.549   3.583  1.2709  0.5040  0.5691
  468MOL0     C63068   2.030   3.529   3.481  0.1334 -1.1893 -0.1643
  468MOL0     O63069   2.128   3.631   3.505  0.8471  0.2450  0.6569
  468MOL0     C63070   2.247   3.621   3.433 -0.2155 -0.6001 -0.4852
  468MOL0     C63071   2.353   3.712   3.451  0.6119  0.1078  0.0407
  468MOL0     C63072   2.476   3.700   3.380  0.5457 -0.2693 -0.2060
  468MOL0     C63073   2.501   3.586   3.298 -0.4345 -0.3371 -0.0493
  468MOL0     C63074   2.640   3.556   3.261 -0.1422 -0.4353 -0.0298
  468MOL0     O63075   2.722   3.656   3.246 -0.3893  0.1204  0.1872
  468MOL0     C63076   2.857   3.639   3.243 -0.2722  0.8985 -0.2410
  468MOL0     C63077   2.911   3.587   3.116  0.5798 -0.4132 -0.2931
  468MOL0     C63078   3.043   3.547   3.121  0.0310 -1.3933  0.4441
  468MOL0     C63079   3.131   3.577   3.230  1.8144 -0.7695 -0.8287
  468MOL0     O63080   3.261   3.541   3.227 -0.0457  0.0487 -0.3710
  468MOL0     C63081   3.353   3.640   3.273  0.2806  0.4712  1.3441
  468MOL0     C63082   3.505   3.620   3.219 -0.0133  0.1313  0.1269
  468MOL0     C63083   3.608   3.714   3.286 -0.1145 -1.0486 -0.3496
  468MOL0     C63084   3.670   3.651   3.414  0.0826 -0.3069  1.3039
  468MOL0     C63085   3.782   3.728   3.482  0.0332  0.6998 -0.2045
  468MOL0     C63086   3.754   3.879   3.501 -0.2956  0.3895  0.1262
  468MOL0     C63087   3.883   3.953   3.545  0.8023  0.3433 -0.2519
  468MOL0     C63088   3.862   4.063   3.648  0.1775  0.7599 -0.3893
  468MOL0    Cl63089   4.016   4.132   3.701  0.6419  0.1522  0.1129
  468MOL0     C63090   3.070   3.637   3.340 -0.7831  0.4841  0.1294
  468MOL0     C63091   2.938   3.661   3.358  1.0162 -0.4445  0.8161
  468MOL0     O63092   2.675   3.444   3.252  0.2492  0.3447  0.0449
  468MOL0     C63093   2.388   3.496   3.283 -0.0710  0.7272 -0.7042
  468MOL0     C63094   2.266   3.511   3.351 -0.0153 -0.3468  1.5231
  468MOL0     N63095   1.541   3.746   3.356 -0.1891 -0.2306 -0.6743
  468MOL0     N63096   1.438   3.810   3.371 -0.0935 -0.5922  1.0332
  468MOL0     C63097   0.924   4.367   4.219 -0.3159 -0.3921 -0.8471
  468MOL0     C63098   0.982   4.436   4.327 -0.2167  1.0053  0.1750
  468MOL0     C63099   1.108   4.411   4.606 -0.2358  0.2257  1.5694
  468MOL0     C63100   1.012   4.308   4.627  0.5321 -0.4164  0.1092
  468MOL0     C63101   1.050   4.180   4.663 -0.3247  0.6466  0.2640
  468MOL0     C63102   1.188   4.148   4.688  0.9784 -0.0566 -0.1614
  468MOL0     O63103   1.243   4.027   4.707 -0.0852 -0.4890  0.3454
  468MOL0     C63104   1.188   3.946   4.806 -0.6926  0.1375 -1.4509
  468MOL0     C63105   1.303   3.898   4.886  0.1520 -0.3415  0.5298
  468MOL0     C63106   1.239   3.814   4.999  0.2014  0.1182 -0.2006
  468MOL0     C63107   1.352   3.770   5.101 -0.0839  0.1844  1.0413
  468MOL0     C63108   1.318   3.637   5.159  0.1590 -0.1184  0.0345
  468MOL0     C63109   1.307   3.533   5.218  1.1670  0.7861  1.4884
  468MOL0     C63110   1.278   4.246   4.657 -0.1257  0.5142  0.0765
  468MOL0     C63111   1.247   4.377   4.609  0.5798 -0.1019 -0.2298
  468MOL0     C63112   1.359   4.476   4.567 -0.3768  0.1367 -0.2032
  468MOL0     H63113   0.721   4.613   4.434  0.6101 -0.2481  0.0419
  468MOL0     H63114   0.611   4.501   4.245  0.1715 -0.7626 -0.1162
  468MOL0     H63115   0.841   4.187   4.021  1.0282  1.4752  0.5447
  468MOL0     H63116   0.701   4.202   3.918  0.7430  1.2897 -0.8500
  468MOL0     H63117   0.909   4.419   3.943 -1.3405  0.6984  1.3382
  468MOL0     H63118   0.788   4.412   3.819  2.9738 -0.3042 -3.0240
  468MOL0     H63119   0.908   4.270   3.682 -2.8887  2.6183  1.2393
  468MOL0     H63120   0.925   4.154   3.812  1.5649  0.2605  1.2293
  468MOL0     H63121   1.109   4.388   3.801 -0.7637  0.0240  1.2756
  468MOL0     H63122   1.105   4.243   3.917  0.1616  1.7519  1.2509
  468MOL0     H63123   1.206   4.281   3.635  0.0592 -0.2265 -1.4213
  468MOL0     H63124   1.292   4.230   3.772  0.1805  1.5604  1.2795
  468MOL0     H63125   1.124   4.014   3.740 -1.0438  0.7079 -0.2937
  468MOL0     H63126   1.100   4.076   3.580 -0.2319 -0.1020  0.1427
  468MOL0     H63127   1.358   3.967   3.694 -0.0245 -0.8516 -0.8114
  468MOL0     H63128   1.359   4.066   3.545 -0.3331 -0.2368 -0.4729
  468MOL0     H63129   1.201   3.801   3.599  0.3716 -1.8821  0.2675
  468MOL0     H63130   1.204   3.891   3.450  1.1957 -0.4953 -0.8989
  468MOL0     H63131   1.443   3.648   3.659  1.3861 -2.0295  0.1396
  468MOL0     H63132   1.641   3.487   3.537  0.1371 -0.0358  1.2268
  468MOL0     H63133   1.706   3.540   3.382  2.6862 -0.0416 -0.1789
  468MOL0     H63134   1.837   3.725   3.492 -1.4499 -0.4538 -1.2863
  468MOL0     H63135   1.769   3.679   3.648 -2.5193 -0.6237 -0.5824
  468MOL0     H63136   1.878   3.448   3.589 -0.1039  0.4640 -4.3925
  468MOL0     H63137   1.963   3.575   3.679  0.5234  0.4997  0.9254
  468MOL0     H63138   1.995   3.532   3.378  2.1384 -0.8912 -0.8843
  468MOL0     H63139   2.067   3.426   3.493  0.3789 -0.8536  2.7609
  468MOL0     H63140   2.334   3.807   3.500  0.3753 -0.3798  0.9064
  468MOL0     H63141   2.552   3.775   3.394  2.8367 -2.7296  1.8337
  468MOL0     H63142   2.844   3.562   3.034 -1.6256 -0.1400  1.3170
  468MOL0     H63143   3.081   3.500   3.030 -0.9434 -1.1592 -0.1084
  468MOL0     H63144   3.315   3.733   3.231  0.9397  0.9809  1.8584
  468MOL0     H63145   3.359   3.646   3.382 -0.9154  1.5784  1.3746
  468MOL0     H63146   3.532   3.514   3.219  0.2056  0.1646 -1.2606
  468MOL0     H63147   3.507   3.644   3.112 -2.1243  1.0535  0.2447
  468MOL0     H63148   3.687   3.732   3.212  1.0507  1.0043  1.2597
  468MOL0     H63149   3.554   3.807   3.305 -0.8514 -1.1890 -1.6488
  468MOL0     H63150   3.696   3.548   3.389 -0.6533 -0.8958  2.8143
  468MOL0     H63151   3.591   3.639   3.489  1.3337 -0.8134  2.5930
  468MOL0     H63152   3.871   3.729   3.417 -1.6397 -0.8451 -2.7297
  468MOL0     H63153   3.800   3.685   3.581  0.9987 -1.3262 -1.1853
  468MOL0     H63154   3.725   3.927   3.408 -0.9218  1.2595  0.7508
  468MOL0     H63155   3.691   3.902   3.587  2.1867  0.0053  2.2015
  468MOL0     H63156   3.940   4.001   3.465 -1.7982  1.2287 -1.7026
  468MOL0     H63157   3.943   3.872   3.585  0.5243 -0.1032 -0.7256
  468MOL0     H63158   3.793   4.137   3.605 -0.6183  1.6334  2.1822
  468MOL0     H63159   3.818   4.008   3.732  1.8971 -1.0078 -0.5909
  468MOL0     H63160   3.139   3.657   3.422  0.3879 -2.6009  0.0504
  468MOL0     H63161   2.908   3.699   3.455 -0.3981 -0.7553  0.5218
  468MOL0     H63162   2.408   3.404   3.230 -0.2134  1.0648 -1.3553
  468MOL0     H63163   2.194   3.430   3.342  1.1108 -1.1181 -2.2646
  468MOL0     H63164   0.978   4.303   4.150  0.1534  0.4191 -1.2425
  468MOL0     H63165   1.087   4.420   4.353 -1.0418  0.0782  3.4175
  468MOL0     H63166   0.907   4.336   4.630  1.2806  2.8079  1.3528
  468MOL0     H63167   0.972   4.107   4.678  3.0259 -3.0551  1.4826
  468MOL0     H63168   1.124   3.869   4.761 -1.2882 -0.5213  0.4125
  468MOL0     H63169   1.113   4.001   4.864  1.2464  2.1234 -0.6999
  468MOL0     H63170   1.362   3.981   4.927 -0.8017 -0.3446  1.9597
  468MOL0     H63171   1.364   3.837   4.819  2.2766  0.0802  1.9583
  468MOL0     H63172   1.179   3.730   4.965 -2.3755  2.6141 -2.3605
  468MOL0     H63173   1.165   3.874   5.054 -2.2654 -2.2392 -0.7642
  468MOL0     H63174   1.444   3.754   5.044 -2.1784  0.5861 -2.8091
  468MOL0     H63175   1.369   3.849   5.175  1.5006  3.3167 -2.3756
  468MOL0     H63176   1.294   3.430   5.243  0.5573 -0.0553 -1.8617
  468MOL0     H63177   1.384   4.223   4.664 -0.0723  0.1504 -1.5725
  468MOL0     H63178   1.446   4.419   4.534  1.0861  0.2941  2.9688
  468MOL0     H63179   1.331   4.554   4.495 -1.2565 -0.8127 -0.9296
  468MOL0     H63180   1.374   4.524   4.665  2.7871  0.1922 -0.6146
  469MOL0     O63181   8.050   6.382   3.374 -0.1941 -0.0757 -0.0489
  469MOL0     C63182   7.977   6.328   3.455  0.7385  0.3950  0.7146
  469MOL0     O63183   7.977   6.193   3.471 -0.2195  0.1139  0.9258
  469MOL0     C63184   8.040   6.104   3.390 -0.2217 -0.5990 -0.2850
  469MOL0     C63185   8.161   6.115   3.316  0.6815 -0.5773  0.6296
  469MOL0     C63186   8.211   6.008   3.239  0.5317 -0.4869 -0.1053
  469MOL0     C63187   8.139   5.889   3.253  0.5320 -0.2514 -0.1058
  469MOL0     O63188   8.169   5.781   3.184  0.5671 -0.2492 -0.4342
  469MOL0     C63189   8.305   5.769   3.155 -0.8490  0.2939  0.1239
  469MOL0     C63190   8.331   5.650   3.077  0.4477 -0.6125 -0.7423
  469MOL0     C63191   8.481   5.625   3.047  1.0366  0.3157  0.2239
  469MOL0     C63192   8.492   5.526   2.936  0.7595  0.1194 -1.1155
  469MOL0     C63193   8.615   5.440   2.954 -0.0652 -0.5482 -0.0570
  469MOL0     C63194   8.654   5.339   2.847  0.1880 -0.9354 -0.2303
  469MOL0     C63195   8.785   5.261   2.874  0.4083  0.1259  0.4068
  469MOL0     C63196   8.906   5.365   2.841  0.7692  0.2161  0.3197
  469MOL0     N63197   9.026   5.308   2.897  0.0996 -0.5541 -0.2338
  469MOL0     C63198   9.078   5.184   2.873  0.1722 -0.2852 -0.2483
  469MOL0     C63199   9.201   5.183   2.913 -1.7899  0.3988  0.5141
  469MOL0     C63200   9.285   5.059   2.900  0.6883 -0.0015 -0.0289
  469MOL0     C63201   9.343   5.041   2.764  0.4456 -0.9399  0.0873
  469MOL0     C63202   9.250   4.956   2.665  0.0126  0.1681  0.0342
  469MOL0     C63203   9.226   4.811   2.703  0.4282  0.7277  0.3488
  469MOL0     O63204   9.101   4.800   2.777  0.0680  0.3033  0.3709
  469MOL0     C63205   9.074   4.687   2.846 -0.4032  0.0181  0.0063
  469MOL0     C63206   9.107   4.564   2.791 -0.8664 -0.6053  0.1678
  469MOL0     C63207   9.055   4.444   2.837  0.5537  0.5799 -0.7137
  469MOL0     C63208   8.968   4.449   2.953  0.1879  0.0118 -0.0368
  469MOL0     C63209   8.892   4.334   2.998  0.0738 -0.5224 -0.8229
  469MOL0     O63210   8.786   4.350   3.087  0.2661 -0.9915  0.4019
  469MOL0     C63211   8.705   4.241   3.126 -0.7607 -0.4134 -0.1692
  469MOL0     C63212   8.661   4.145   3.040  0.7001  0.6471 -0.2509
  469MOL0     C63213   8.570   4.038   3.085 -0.2328 -0.0333  0.9733
  469MOL0     C63214   8.551   4.029   3.222  0.3142 -0.5052  0.2363
  469MOL0     O63215   8.478   3.925   3.275  0.0718  0.8607  0.6629
  469MOL0     C63216   8.367   3.874   3.188  0.5859  0.4337 -0.7438
  469MOL0     C63217   8.289   3.766   3.268  0.0610  0.0948 -0.9455
  469MOL0     C63218   8.382   3.662   3.345 -0.3326 -0.0561 -0.5785
  469MOL0     C63219   8.498   3.611   3.253  1.6519 -0.9751  0.2405
  469MOL0     C63220   8.599   3.534   3.349  0.6358  0.2673  0.4969
  469MOL0     C63221   8.714   3.466   3.279  0.1555 -0.6702 -0.7679
  469MOL0     C63222   8.797   3.367   3.359  0.0086  0.2833  0.8871
  469MOL0     C63223   8.718   3.231   3.389  0.7313  0.5442 -0.2314
  469MOL0    Cl63224   8.827   3.091   3.424 -0.2340 -0.2261 -0.0409
  469MOL0     C63225   8.599   4.127   3.308  0.6405  0.1134 -1.1483
  469MOL0     C63226   8.669   4.237   3.256  0.0733  0.3156 -1.0947
  469MOL0     O63227   8.952   4.227   2.974  0.3418 -0.6959 -0.3174
  469MOL0     C63228   8.926   4.573   3.000  0.8947 -0.9691  0.7102
  469MOL0     C63229   8.978   4.692   2.943  0.0777  1.0737 -0.7323
  469MOL0     N63230   9.235   5.299   2.976  0.4155 -0.1072  0.3159
  469MOL0     N63231   9.129   5.371   2.971 -0.3994  0.4386  1.0906
  469MOL0     C63232   8.011   5.885   3.312  0.3472  0.4740 -0.3499
  469MOL0     C63233   7.961   5.998   3.378 -0.0212  0.6009  0.5990
  469MOL0     C63234   7.880   6.401   3.544 -0.9570 -0.5459 -0.2245
  469MOL0     C63235   7.857   6.355   3.671 -0.1305 -0.7383 -0.2140
  469MOL0     C63236   7.788   6.436   3.765  0.1118  1.1595  0.0431
  469MOL0     C63237   7.735   6.554   3.723  0.5887 -0.3424  1.1527
  469MOL0     O63238   7.676   6.630   3.824 -0.5028 -0.2454 -0.2938
  469MOL0     C63239   7.616   6.762   3.807  0.3807  1.1587  0.2001
  469MOL0     C63240   7.473   6.755   3.770 -0.0423  0.2349 -0.2966
  469MOL0     C63241   7.399   6.886   3.732 -0.0753  0.0447  0.4287
  469MOL0     C63242   7.378   6.993   3.840 -0.3900 -0.2334 -0.0294
  469MOL0     C63243   7.293   6.946   3.941  0.7648  0.5166 -0.3048
  469MOL0     C63244   7.221   6.908   4.034  0.3570  0.2533 -0.0417
  469MOL0     C63245   7.755   6.608   3.591 -0.1317 -0.9786 -0.9064
  469MOL0     C63246   7.827   6.531   3.508 -0.6185 -0.9721  0.2177
  469MOL0     C63247   7.833   6.586   3.368 -0.4959  0.4016  0.1897
  469MOL0     H63248   8.215   6.209   3.314 -1.0464  0.4621 -1.2756
  469MOL0     H63249   8.304   6.021   3.184  0.0038  3.0011 -0.4440
  469MOL0     H63250   8.352   5.852   3.100  4.0308 -2.1862 -0.0152
  469MOL0     H63251   8.354   5.767   3.253 -2.7533  4.3781  1.3986
  469MOL0     H63252   8.270   5.658   2.987  0.4052  2.7043 -0.5213
  469MOL0     H63253   8.295   5.564   3.134 -2.8661  0.4387 -1.0361
  469MOL0     H63254   8.537   5.584   3.132 -0.6419 -1.4685  0.5441
  469MOL0     H63255   8.508   5.722   3.005  1.0968  0.1960 -0.0095
  469MOL0     H63256   8.408   5.455   2.935  1.3170 -0.5643 -3.1491
  469MOL0     H63257   8.484   5.578   2.840  1.8512 -2.0361 -2.4562
  469MOL0     H63258   8.695   5.509   2.981 -0.4953  1.6141 -3.6522
  469MOL0     H63259   8.592   5.377   3.040  0.1196 -0.2854  0.1877
  469MOL0     H63260   8.573   5.267   2.833  0.5983 -1.3736 -0.3653
  469MOL0     H63261   8.675   5.386   2.750 -3.3407 -2.0705 -1.7343
  469MOL0     H63262   8.784   5.169   2.815  0.7340  0.0645  0.4931
  469MOL0     H63263   8.792   5.236   2.980 -0.0841 -0.2497  0.3533
  469MOL0     H63264   8.929   5.391   2.737  0.5684  0.8809  0.4379
  469MOL0     H63265   8.884   5.454   2.901  1.1512  0.5201  0.0117
  469MOL0     H63266   9.028   5.112   2.809 -0.1355  0.7127 -1.1701
  469MOL0     H63267   9.365   5.066   2.974  0.2541  1.0032  0.3595
  469MOL0     H63268   9.221   4.974   2.924  1.5266 -1.2569 -2.0387
  469MOL0     H63269   9.366   5.140   2.723 -0.5147 -0.8848 -0.3419
  469MOL0     H63270   9.436   4.984   2.766  0.8671 -0.4047 -1.8905
  469MOL0     H63271   9.309   4.959   2.573  0.4879  2.3057  0.3465
  469MOL0     H63272   9.158   5.013   2.647 -0.8771 -0.6357  1.7551
  469MOL0     H63273   9.306   4.790   2.776  0.8769 -0.2554 -0.4160
  469MOL0     H63274   9.224   4.757   2.608 -2.0923  1.9050 -0.3445
  469MOL0     H63275   9.181   4.545   2.714 -1.2955 -0.3667 -0.3067
  469MOL0     H63276   9.094   4.351   2.797 -0.2297  0.1367 -0.4708
  469MOL0     H63277   8.697   4.150   2.938  0.7281 -3.0602 -0.5751
  469MOL0     H63278   8.550   3.961   3.011 -2.4286  0.1997  1.2502
  469MOL0     H63279   8.302   3.958   3.161 -2.3602 -0.3389  3.1054
  469MOL0     H63280   8.388   3.828   3.091 -2.0717 -2.5107 -0.0868
  469MOL0     H63281   8.217   3.809   3.338 -0.7564 -2.1083 -0.3546
  469MOL0     H63282   8.236   3.701   3.198 -2.5237 -0.1901  1.1341
  469MOL0     H63283   8.416   3.702   3.441  0.4923 -1.3746 -0.2933
  469MOL0     H63284   8.330   3.575   3.384  4.1098 -2.2726  1.1295
  469MOL0     H63285   8.548   3.694   3.202 -1.7065  0.8882 -0.3211
  469MOL0     H63286   8.460   3.550   3.171  0.1403  3.0969 -2.3772
  469MOL0     H63287   8.543   3.454   3.398 -1.4692 -0.5995 -2.9613
  469MOL0     H63288   8.640   3.599   3.427  0.8771  0.7835 -0.0450
  469MOL0     H63289   8.670   3.429   3.185 -0.9790  0.2269 -0.6134
  469MOL0     H63290   8.793   3.539   3.262  1.6554 -1.7947  0.9866
  469MOL0     H63291   8.829   3.415   3.452 -2.6002 -0.1559  2.0968
  469MOL0     H63292   8.886   3.348   3.297  0.5025  1.6968  1.1115
  469MOL0     H63293   8.637   3.249   3.459 -0.8767 -0.0924 -1.8569
  469MOL0     H63294   8.659   3.205   3.301 -0.3565  0.2856  0.5522
  469MOL0     H63295   8.569   4.120   3.412 -0.6396  4.1458 -1.0996
  469MOL0     H63296   8.692   4.320   3.323 -0.8130 -0.7327  0.5865
  469MOL0     H63297   8.847   4.591   3.072  1.1113  2.3954  0.2427
  469MOL0     H63298   8.938   4.783   2.987  1.3452  1.8976 -1.2138
  469MOL0     H63299   7.952   5.794   3.316  2.9519 -1.2738  2.1567
  469MOL0     H63300   7.862   5.988   3.421 -0.9917 -1.4253 -1.8109
  469MOL0     H63301   7.911   6.267   3.704 -1.0341 -0.2487  2.9311
  469MOL0     H63302   7.788   6.401   3.868  0.4095 -1.8554 -0.8650
  469MOL0     H63303   7.666   6.829   3.736  0.8476  0.9575  0.3354
  469MOL0     H63304   7.617   6.826   3.895 -1.2228  0.6057  0.6577
  469MOL0     H63305   7.421   6.722   3.860 -1.5793 -0.7140 -1.4815
  469MOL0     H63306   7.457   6.684   3.688 -0.5682  0.8332 -0.7232
  469MOL0     H63307   7.306   6.854   3.684  1.3505 -2.6837 -0.6889
  469MOL0     H63308   7.458   6.927   3.649  0.3558 -2.6792 -0.6986
  469MOL0     H63309   7.473   7.032   3.878 -0.3324 -0.8788  0.5189
  469MOL0     H63310   7.332   7.078   3.789 -0.3260 -0.0108  0.2783
  469MOL0     H63311   7.173   6.876   4.124 -2.1130  2.0625 -0.6152
  469MOL0     H63312   7.702   6.698   3.564  2.4710  0.3842 -1.8540
  469MOL0     H63313   7.861   6.512   3.293 -1.4412  1.6991 -1.5160
  469MOL0     H63314   7.736   6.625   3.335  0.5794  2.4964 -0.6829
  469MOL0     H63315   7.887   6.681   3.374 -1.0060  0.6612  0.7592
  470MOL0     O63316   4.924   9.531   3.667 -0.4657 -0.5030 -0.6002
  470MOL0     C63317   5.029   9.468   3.646 -0.3366 -0.7398  0.1201
  470MOL0     O63318   5.032   9.349   3.577  0.1452  0.1724  0.4058
  470MOL0     C63319   4.933   9.259   3.592  0.4950 -0.0234  0.1248
  470MOL0     C63320   4.812   9.275   3.520  0.6937  1.0824  0.2821
  470MOL0     C63321   4.705   9.181   3.544  0.4455  0.1835  1.0735
  470MOL0     C63322   4.703   9.095   3.654 -0.2094  0.1877 -0.4337
  470MOL0     O63323   4.593   9.023   3.694  0.4464  0.7023  1.3436
  470MOL0     C63324   4.505   8.999   3.584  0.1208  0.0810  0.0921
  470MOL0     C63325   4.416   8.883   3.632 -0.8366  0.0361  0.0843
  470MOL0     C63326   4.266   8.929   3.619  0.3129  0.1057  0.6538
  470MOL0     C63327   4.171   8.826   3.660 -0.2450 -0.2225  0.3398
  470MOL0     C63328   4.019   8.862   3.657  1.3228  0.3930  0.4845
  470MOL0     C63329   3.964   8.973   3.756 -0.1369  0.5747  0.5722
  470MOL0     C63330   4.009   8.948   3.903  0.7828  0.5034 -0.7533
  470MOL0     C63331   4.021   9.089   3.968  0.2485  0.2444 -0.5651
  470MOL0     N63332   4.135   9.172   3.904  0.4123 -0.5467  0.0003
  470MOL0     C63333   4.272   9.162   3.926 -0.4269  0.9622 -0.6193
  470MOL0     C63334   4.329   9.269   3.878  0.3599  0.2535 -0.5337
  470MOL0     C63335   4.477   9.309   3.876  0.2988 -0.0039  0.2301
  470MOL0     C63336   4.513   9.430   3.969  0.5058  0.3373  0.2232
  470MOL0     C63337   4.473   9.427   4.122  0.0287  0.3902  0.0405
  470MOL0     C63338   4.505   9.288   4.185 -0.0778 -0.0516  0.3745
  470MOL0     O63339   4.551   9.306   4.322  0.2450 -0.3108  0.0538
  470MOL0     C63340   4.676   9.353   4.362  1.1609  0.5840 -0.5989
  470MOL0     C63341   4.762   9.429   4.280 -0.8045  0.1197 -0.7506
  470MOL0     C63342   4.878   9.478   4.342 -1.2701 -1.1670  0.0583
  470MOL0     C63343   4.914   9.444   4.472 -0.8106  0.0129  0.8611
  470MOL0     C63344   5.039   9.487   4.528 -0.1312 -0.1136  0.3339
  470MOL0     O63345   5.041   9.515   4.653 -0.2013  0.1473  0.9938
  470MOL0     C63346   5.137   9.598   4.701 -0.0244  0.4769 -0.7462
  470MOL0     C63347   5.218   9.550   4.804 -0.5269 -0.0175  0.0683
  470MOL0     C63348   5.290   9.641   4.884 -0.3182 -0.7171  0.0124
  470MOL0     C63349   5.289   9.782   4.852  0.0349  0.4540  0.1522
  470MOL0     O63350   5.361   9.883   4.902 -0.2238  0.2346 -0.3755
  470MOL0     C63351   5.464   9.849   5.000  0.7379 -1.1448  0.2481
  470MOL0     C63352   5.529   9.975   5.044 -0.4609  0.0322  0.4644
  470MOL0     C63353   5.637   9.968   5.150  0.2934  0.1092 -0.3442
  470MOL0     C63354   5.676  10.111   5.199  0.6537 -0.4878  0.3352
  470MOL0     C63355   5.780  10.092   5.309  0.3963  0.0980  0.4029
  470MOL0     C63356   5.777  10.198   5.419  0.0849 -0.5362 -0.4415
  470MOL0     C63357   5.662  10.172   5.523  0.3826  0.6889  0.7793
  470MOL0     C63358   5.673  10.267   5.639  0.0101  0.4446 -0.9992
  470MOL0    Cl63359   5.540  10.223   5.757 -0.0475  0.1307  0.4072
  470MOL0     C63360   5.204   9.822   4.749 -0.9129  1.0159  0.5799
  470MOL0     C63361   5.120   9.728   4.681 -0.3900  0.5555  0.2906
  470MOL0     O63362   5.133   9.508   4.451  0.2624 -0.5226  0.2520
  470MOL0     C63363   4.829   9.371   4.554  0.0591  0.1412  0.0364
  470MOL0     C63364   4.711   9.326   4.494 -0.4688  1.2993  0.3959
  470MOL0     N63365   4.228   9.346   3.821 -0.0812  0.6203 -0.2766
  470MOL0     N63366   4.115   9.295   3.856 -0.3770  0.7454  0.0606
  470MOL0     C63367   4.826   9.079   3.728  0.4506  0.6428  0.0226
  470MOL0     C63368   4.939   9.165   3.701 -0.9185 -0.3473 -0.3143
  470MOL0     C63369   5.158   9.541   3.677 -0.0528  0.2102  1.5096
  470MOL0     C63370   5.271   9.501   3.597  0.1792  1.0221 -0.4276
  470MOL0     C63371   5.397   9.551   3.628 -0.0172 -0.2018 -0.7699
  470MOL0     C63372   5.425   9.623   3.746  1.2851 -0.1291 -0.1511
  470MOL0     O63373   5.550   9.650   3.778  0.2912  1.1594  0.0355
  470MOL0     C63374   5.584   9.641   3.913  0.9135 -0.1743 -0.0073
  470MOL0     C63375   5.631   9.504   3.940  0.5804  0.1781 -0.6458
  470MOL0     C63376   5.659   9.490   4.092  0.3497  0.1389  0.1412
  470MOL0     C63377   5.789   9.562   4.132  0.6484  0.0729  0.9149
  470MOL0     C63378   5.823   9.549   4.274  0.8805 -0.0326  1.0185
  470MOL0     C63379   5.856   9.562   4.389 -0.5845 -0.5831 -0.1808
  470MOL0     C63380   5.315   9.663   3.815  0.7850 -0.2044 -0.3793
  470MOL0     C63381   5.176   9.622   3.784  0.3071  0.0531 -0.7751
  470MOL0     C63382   5.064   9.668   3.878 -0.5229 -0.3428 -0.2479
  470MOL0     H63383   4.821   9.344   3.436  2.5862 -1.1654 -1.5316
  470MOL0     H63384   4.610   9.199   3.494  0.3043 -1.5283  0.6532
  470MOL0     H63385   4.447   9.092   3.572 -0.8917 -0.6035 -0.4946
  470MOL0     H63386   4.554   8.971   3.490 -2.5958  1.1330 -1.7735
  470MOL0     H63387   4.436   8.835   3.728  0.2009 -0.6860 -0.4776
  470MOL0     H63388   4.424   8.796   3.566 -2.4564 -0.6127  0.7149
  470MOL0     H63389   4.241   8.957   3.516  1.9902 -0.8813 -0.0788
  470MOL0     H63390   4.245   9.019   3.676 -5.1011  0.1106 -0.7319
  470MOL0     H63391   4.180   8.738   3.596  1.4066  0.3879 -0.3286
  470MOL0     H63392   4.208   8.802   3.760  3.1817 -0.3315 -0.8279
  470MOL0     H63393   3.996   8.896   3.556  1.8661  0.6481  0.4477
  470MOL0     H63394   3.968   8.768   3.682 -1.7951  1.8066 -0.0289
  470MOL0     H63395   3.984   9.072   3.714  1.3678 -0.1606 -0.5518
  470MOL0     H63396   3.855   8.974   3.758 -0.3886 -4.1446  1.0081
  470MOL0     H63397   4.107   8.899   3.914  1.7425  2.6706  1.3137
  470MOL0     H63398   3.940   8.891   3.966 -0.5777 -0.4526 -3.0147
  470MOL0     H63399   3.933   9.152   3.955 -1.0328 -1.3206  0.2544
  470MOL0     H63400   4.028   9.075   4.076 -0.6157  0.2021 -0.5122
  470MOL0     H63401   4.327   9.093   3.989  0.0600 -0.1128 -2.1599
  470MOL0     H63402   4.545   9.232   3.915 -0.5104 -0.9624 -0.2267
  470MOL0     H63403   4.508   9.330   3.774  3.7002 -0.2806  1.0829
  470MOL0     H63404   4.619   9.451   3.951  0.4031  0.4783 -0.2309
  470MOL0     H63405   4.463   9.514   3.919  0.8961 -0.1416 -1.0162
  470MOL0     H63406   4.364   9.435   4.122 -0.0289 -0.0764  1.5211
  470MOL0     H63407   4.521   9.511   4.173  1.7310  0.2923 -1.2900
  470MOL0     H63408   4.588   9.248   4.128  0.4014  2.5295 -0.9097
  470MOL0     H63409   4.421   9.218   4.180 -0.3217  0.2704 -0.1664
  470MOL0     H63410   4.741   9.458   4.178 -1.1035 -1.1239 -1.0701
  470MOL0     H63411   4.939   9.549   4.288 -1.5349  0.7307  2.1170
  470MOL0     H63412   5.228   9.444   4.823  0.7378 -0.1344 -1.1019
  470MOL0     H63413   5.356   9.614   4.965  1.5480  0.5545 -0.9939
  470MOL0     H63414   5.417   9.809   5.091 -3.2977 -0.5765 -1.3755
  470MOL0     H63415   5.536   9.777   4.961  0.3276 -0.0599 -2.7892
  470MOL0     H63416   5.561  10.015   4.947  0.3749  0.9772  1.1064
  470MOL0     H63417   5.449  10.034   5.089 -1.4604 -0.5175 -0.5497
  470MOL0     H63418   5.594   9.920   5.238 -1.2111  0.0668 -1.0683
  470MOL0     H63419   5.727   9.914   5.119 -0.6552 -1.5274 -0.3347
  470MOL0     H63420   5.583  10.157   5.234  0.4597 -1.7092  1.5220
  470MOL0     H63421   5.705  10.173   5.114  0.5803 -0.5621  0.2555
  470MOL0     H63422   5.878  10.081   5.263  0.4254  0.1955  0.4412
  470MOL0     H63423   5.759   9.997   5.361 -1.2112  1.6199  2.7517
  470MOL0     H63424   5.873  10.187   5.470  0.8560  1.2241 -1.4187
  470MOL0     H63425   5.772  10.304   5.392  0.2855 -0.7280 -1.2593
  470MOL0     H63426   5.679  10.068   5.553  0.6004  0.6902  0.6611
  470MOL0     H63427   5.566  10.179   5.472  1.0380 -0.0941 -0.6384
  470MOL0     H63428   5.771  10.268   5.688 -0.8640 -0.7967  0.9346
  470MOL0     H63429   5.651  10.363   5.593  0.7885 -0.9967 -4.7151
  470MOL0     H63430   5.196   9.925   4.716  4.4048  0.8989 -2.1622
  470MOL0     H63431   5.050   9.764   4.607 -0.1167  1.2208  0.3466
  470MOL0     H63432   4.841   9.352   4.660 -1.1856  0.3443  0.2320
  470MOL0     H63433   4.644   9.268   4.557  1.9059 -2.8068 -0.5139
  470MOL0     H63434   4.846   9.004   3.803 -0.4179  0.4817  0.1013
  470MOL0     H63435   5.021   9.157   3.771 -1.0954  2.0941  0.2653
  470MOL0     H63436   5.272   9.440   3.508  1.5268  0.5122 -0.0866
  470MOL0     H63437   5.491   9.532   3.576  1.8468 -1.7484  2.8477
  470MOL0     H63438   5.514   9.673   3.991 -0.3094 -1.3481 -0.5906
  470MOL0     H63439   5.671   9.708   3.917 -0.8255  2.5794 -3.2672
  470MOL0     H63440   5.721   9.483   3.881  0.9397  1.2338 -0.4920
  470MOL0     H63441   5.564   9.422   3.916  2.4376 -1.8960  0.8745
  470MOL0     H63442   5.655   9.385   4.124  2.1946 -0.3909 -1.1903
  470MOL0     H63443   5.574   9.532   4.147  0.8792 -0.2281  1.2673
  470MOL0     H63444   5.871   9.516   4.077 -0.6813 -3.1626  1.4340
  470MOL0     H63445   5.784   9.670   4.112 -1.1652  0.1871  1.8388
  470MOL0     H63446   5.882   9.557   4.493  0.3593 -1.0758 -0.4312
  470MOL0     H63447   5.314   9.733   3.898 -3.3690 -0.9426  0.3807
  470MOL0     H63448   5.008   9.753   3.838  0.2451  0.5790  0.5791
  470MOL0     H63449   4.983   9.595   3.892 -1.5405  0.8391  0.2651
  470MOL0     H63450   5.108   9.710   3.969  1.5264  0.1417 -1.4134
  471MOL0     O63451   8.253   6.613   0.500  0.0130  0.6074 -0.1072
  471MOL0     C63452   8.198   6.620   0.606 -0.0399 -1.0428  0.5492
  471MOL0     O63453   8.069   6.596   0.631  0.4384  0.5108 -0.0420
  471MOL0     C63454   7.998   6.516   0.550  0.6718 -0.2421 -0.6796
  471MOL0     C63455   7.948   6.395   0.606 -0.4998  0.3720  0.4743
  471MOL0     C63456   7.878   6.298   0.532 -0.1214  0.8126  0.1731
  471MOL0     C63457   7.865   6.319   0.393  0.6379 -0.0549 -0.3683
  471MOL0     O63458   7.806   6.231   0.303 -0.3180 -0.3995 -0.1988
  471MOL0     C63459   7.737   6.115   0.358  0.6935 -0.8241 -0.9345
  471MOL0     C63460   7.640   6.050   0.262  0.5165 -0.3783  0.8003
  471MOL0     C63461   7.730   5.989   0.151  0.5588 -0.0259  0.1223
  471MOL0     C63462   7.657   5.897   0.055  0.9638  0.3250  0.4065
  471MOL0     C63463   7.750   5.820  -0.046  0.7004 -0.5150 -0.2093
  471MOL0     C63464   7.838   5.708   0.024 -0.2134  0.8528  0.8544
  471MOL0     C63465   7.929   5.639  -0.092 -0.7707 -1.1126  0.3780
  471MOL0     C63466   8.022   5.533  -0.030 -0.2555 -0.0040 -0.6605
  471MOL0     N63467   7.959   5.434   0.062 -0.3951  0.7537 -0.2289
  471MOL0     C63468   7.897   5.313   0.037 -0.2212 -0.5414 -0.0751
  471MOL0     C63469   7.879   5.250   0.157 -0.0298  0.4040 -0.5201
  471MOL0     C63470   7.839   5.107   0.194  0.1109  0.4488 -0.6467
  471MOL0     C63471   7.699   5.086   0.250 -0.3478  0.1648  0.1157
  471MOL0     C63472   7.680   4.939   0.308 -0.3033 -0.2777 -0.2168
  471MOL0     C63473   7.697   4.839   0.191 -0.4932  0.7101  0.5108
  471MOL0     O63474   7.605   4.865   0.085 -0.2670 -0.4500 -0.0308
  471MOL0     C63475   7.575   4.756   0.011  0.2745 -0.4282 -0.5242
  471MOL0     C63476   7.673   4.665  -0.034  0.6805  0.1286  0.1412
  471MOL0     C63477   7.633   4.550  -0.099 -0.4948  0.6414 -0.2002
  471MOL0     C63478   7.495   4.530  -0.130  1.0223 -0.9048  0.0912
  471MOL0     C63479   7.453   4.414  -0.209  0.5430  0.0452 -0.8420
  471MOL0     O63480   7.545   4.337  -0.259  0.1301  0.3612  0.3765
  471MOL0     C63481   7.517   4.250  -0.373 -0.2013 -0.1948  0.2536
  471MOL0     C63482   7.615   4.231  -0.460 -0.6391 -0.0690  0.5225
  471MOL0     C63483   7.584   4.152  -0.580  0.0285  0.0100 -0.1642
  471MOL0     C63484   7.461   4.087  -0.604  0.3263  0.7574 -0.3828
  471MOL0     O63485   7.434   4.004  -0.713 -0.3058 -0.0906  0.2754
  471MOL0     C63486   7.361   4.068  -0.814  0.6075  0.0026  0.0115
  471MOL0     C63487   7.309   3.960  -0.907 -0.4341 -0.1503 -1.0288
  471MOL0     C63488   7.410   3.884  -0.986 -0.3438 -0.3863 -0.1901
  471MOL0     C63489   7.341   3.799  -1.085  0.1597  0.8771 -0.7301
  471MOL0     C63490   7.449   3.729  -1.177  0.4274 -0.0194  0.5268
  471MOL0     C63491   7.392   3.608  -1.267  0.3034  0.4978  0.5496
  471MOL0     C63492   7.377   3.491  -1.178  0.1256 -0.5811  0.0004
  471MOL0     C63493   7.283   3.374  -1.230 -0.8644 -0.5487  0.4295
  471MOL0    Cl63494   7.125   3.431  -1.295 -0.1866  0.0489  0.5322
  471MOL0     C63495   7.369   4.091  -0.499 -0.0002  0.6119  0.6766
  471MOL0     C63496   7.397   4.169  -0.388  0.1543  0.0258 -0.3241
  471MOL0     O63497   7.331   4.403  -0.227  0.7393  0.7272  0.2630
  471MOL0     C63498   7.395   4.624  -0.078 -0.1672  0.7927 -0.2203
  471MOL0     C63499   7.440   4.733  -0.017  0.0132 -0.0941 -0.0420
  471MOL0     N63500   7.931   5.335   0.251 -0.0850 -0.2887 -0.5394
  471MOL0     N63501   7.980   5.438   0.204  0.2460 -0.7940 -0.2166
  471MOL0     C63502   7.913   6.444   0.343 -0.1294 -0.2863 -0.6599
  471MOL0     C63503   7.979   6.537   0.417 -0.3274 -0.1850  0.7210
  471MOL0     C63504   8.270   6.688   0.717  0.3478  0.7134  0.1911
  471MOL0     C63505   8.202   6.785   0.781  0.2763  0.8348  0.1947
  471MOL0     C63506   8.270   6.858   0.879 -0.1510  0.2191 -0.8009
  471MOL0     C63507   8.394   6.832   0.921 -0.4316 -0.6670  0.9118
  471MOL0     O63508   8.438   6.902   1.027 -0.9897  0.5257 -0.3177
  471MOL0     C63509   8.420   6.842   1.160  0.1739 -0.6195  0.9239
  471MOL0     C63510   8.528   6.741   1.202  0.0654 -0.6038 -0.1958
  471MOL0     C63511   8.677   6.807   1.188  0.8563 -0.3639 -0.1187
  471MOL0     C63512   8.699   6.921   1.292  1.0442  0.5448  0.1270
  471MOL0     C63513   8.690   6.872   1.429 -0.0600  0.9320  0.8651
  471MOL0     C63514   8.672   6.851   1.550 -0.3217  0.1825 -0.0673
  471MOL0     C63515   8.465   6.740   0.855 -0.3237  0.8374  0.5891
  471MOL0     C63516   8.408   6.667   0.754  1.2182 -0.9012  0.4066
  471MOL0     C63517   8.479   6.550   0.687 -0.2831 -0.1602 -0.8546
  471MOL0     H63518   7.959   6.393   0.714 -2.2906 -1.7080  0.6868
  471MOL0     H63519   7.840   6.213   0.588 -3.1392  1.0837 -1.3091
  471MOL0     H63520   7.811   6.040   0.388  1.4140 -0.5102 -1.8594
  471MOL0     H63521   7.689   6.163   0.444  1.5266  0.4573 -1.1516
  471MOL0     H63522   7.576   6.126   0.214  1.6914 -0.0205 -0.2581
  471MOL0     H63523   7.577   5.973   0.307 -2.1504  0.3559 -1.3528
  471MOL0     H63524   7.810   5.929   0.196  0.2893 -0.1120  0.4884
  471MOL0     H63525   7.777   6.068   0.092 -0.8152  0.5885 -0.1766
  471MOL0     H63526   7.599   5.827   0.116 -1.7629  1.7120 -0.4295
  471MOL0     H63527   7.577   5.950   0.002  1.0558 -0.8071 -0.9377
  471MOL0     H63528   7.686   5.761  -0.111 -0.0730 -0.8877  0.8542
  471MOL0     H63529   7.823   5.885  -0.095  1.2826 -0.8425  0.1945
  471MOL0     H63530   7.900   5.749   0.104  2.9140 -0.8461 -0.5129
  471MOL0     H63531   7.771   5.636   0.071 -0.8026  2.0955  1.9960
  471MOL0     H63532   7.986   5.717  -0.143 -2.5047 -0.5268 -0.7480
  471MOL0     H63533   7.855   5.598  -0.161 -2.5378  1.2363  0.7668
  471MOL0     H63534   8.065   5.480  -0.116 -0.8223 -0.5284 -0.6272
  471MOL0     H63535   8.108   5.577   0.022  0.6056 -2.3448  0.0154
  471MOL0     H63536   7.891   5.264  -0.059  0.5637 -0.9217  0.0642
  471MOL0     H63537   7.861   5.050   0.103  2.1829 -0.6811  0.4650
  471MOL0     H63538   7.906   5.063   0.269 -1.2718 -0.4764  0.0865
  471MOL0     H63539   7.692   5.152   0.337 -0.2431  0.8596 -0.3945
  471MOL0     H63540   7.613   5.122   0.193  0.4861  0.8524 -0.7393
  471MOL0     H63541   7.584   4.927   0.360  0.6069 -1.1175  1.3305
  471MOL0     H63542   7.755   4.915   0.383 -0.3843 -3.6904 -1.0680
  471MOL0     H63543   7.690   4.737   0.229 -2.1403  1.1485  1.4840
  471MOL0     H63544   7.797   4.860   0.152 -0.2678  1.1487  1.3073
  471MOL0     H63545   7.778   4.690  -0.023  0.5125  0.0803  2.3333
  471MOL0     H63546   7.698   4.466  -0.121  0.7360  1.6028 -0.3304
  471MOL0     H63547   7.706   4.285  -0.437 -0.8423  0.7107 -0.4331
  471MOL0     H63548   7.667   4.141  -0.650  0.5363  0.7853  0.2887
  471MOL0     H63549   7.284   4.134  -0.773  2.3369  0.1615  3.4339
  471MOL0     H63550   7.438   4.129  -0.862  0.3336 -1.6078 -2.6730
  471MOL0     H63551   7.255   3.882  -0.853  0.2408  1.1332  1.6774
  471MOL0     H63552   7.252   4.024  -0.976  0.6503  0.9526 -0.9338
  471MOL0     H63553   7.483   3.949  -1.035 -1.0151  2.2092  2.0374
  471MOL0     H63554   7.454   3.806  -0.923  0.0642 -0.9757 -1.1772
  471MOL0     H63555   7.269   3.854  -1.146  0.3252  0.8615 -0.9402
  471MOL0     H63556   7.287   3.717  -1.036 -2.0448 -0.4348 -4.8586
  471MOL0     H63557   7.526   3.696  -1.106  0.6032 -1.1483 -0.1442
  471MOL0     H63558   7.498   3.795  -1.249 -3.4180  1.1122 -1.2941
  471MOL0     H63559   7.302   3.649  -1.314  1.2063  0.7104 -1.0660
  471MOL0     H63560   7.460   3.580  -1.348 -0.6565  0.6694 -0.3327
  471MOL0     H63561   7.337   3.524  -1.082 -0.4609  0.2991 -0.5223
  471MOL0     H63562   7.479   3.451  -1.170  1.3361  2.0280 -0.9289
  471MOL0     H63563   7.345   3.319  -1.303  1.2551  2.7905 -0.5065
  471MOL0     H63564   7.280   3.303  -1.147  1.5956 -1.1421  0.1132
  471MOL0     H63565   7.276   4.039  -0.521 -0.0679  1.0847 -0.1990
  471MOL0     H63566   7.333   4.166  -0.300  0.6470 -0.9137  0.0088
  471MOL0     H63567   7.291   4.622  -0.111  0.1037  1.6000 -1.1628
  471MOL0     H63568   7.360   4.805  -0.004 -0.8330 -0.8074 -1.1392
  471MOL0     H63569   7.908   6.465   0.236  1.1517 -0.2527 -0.7219
  471MOL0     H63570   8.016   6.628   0.370  0.3051  0.2437  2.0026
  471MOL0     H63571   8.094   6.792   0.778  0.2223  0.5872  1.1239
  471MOL0     H63572   8.207   6.910   0.951 -1.0488  0.0754 -1.4660
  471MOL0     H63573   8.323   6.792   1.168 -1.7218  2.5390 -0.4854
  471MOL0     H63574   8.418   6.919   1.238 -2.7393 -0.9876  1.3300
  471MOL0     H63575   8.516   6.643   1.154 -1.8331 -0.2101 -0.5842
  471MOL0     H63576   8.503   6.720   1.307  1.2424  1.1587  0.4817
  471MOL0     H63577   8.700   6.854   1.093  0.8200  1.1366  0.5868
  471MOL0     H63578   8.742   6.720   1.204  0.1112 -0.8096  0.6377
  471MOL0     H63579   8.795   6.973   1.284 -0.1679  2.6711 -2.2624
  471MOL0     H63580   8.624   7.000   1.276 -0.2829 -0.8648 -1.0162
  471MOL0     H63581   8.681   6.828   1.654  2.0206 -2.7525 -0.7906
  471MOL0     H63582   8.570   6.721   0.877 -0.4860 -0.5759  0.2839
  471MOL0     H63583   8.581   6.533   0.722 -0.6503  1.2870  1.0763
  471MOL0     H63584   8.421   6.457   0.697 -0.0643 -0.4178 -1.8519
  471MOL0     H63585   8.493   6.572   0.581  1.6241  0.5008 -0.5024
  472MOL0     O63586   2.353   8.003   7.604 -0.1658 -0.3090 -0.0827
  472MOL0     C63587   2.315   7.954   7.504 -0.4102  0.6500 -1.4340
  472MOL0     O63588   2.213   7.852   7.501 -0.5062 -0.5942  0.3136
  472MOL0     C63589   2.160   7.818   7.620  1.0191  1.3006  0.1438
  472MOL0     C63590   2.056   7.896   7.676 -0.0015  0.5863  0.9665
  472MOL0     C63591   1.993   7.853   7.791 -0.3683 -0.4298  0.3012
  472MOL0     C63592   2.039   7.744   7.868 -1.1739 -0.0625  1.2571
  472MOL0     O63593   1.983   7.714   7.990  0.2940 -0.6395 -0.4199
  472MOL0     C63594   2.050   7.625   8.082 -0.0899  0.3234  0.4374
  472MOL0     C63595   1.997   7.652   8.219  0.0595  0.3173  0.2127
  472MOL0     C63596   2.041   7.567   8.328  0.5630 -0.7959 -0.1992
  472MOL0     C63597   1.980   7.429   8.314 -0.2011 -0.8688 -0.3875
  472MOL0     C63598   1.983   7.363   8.451  0.4843  0.2273 -0.4249
  472MOL0     C63599   1.909   7.234   8.441 -0.1256  0.0907 -0.6941
  472MOL0     C63600   1.895   7.159   8.568  0.4909  0.4761 -0.3580
  472MOL0     C63601   2.020   7.111   8.640  0.6752  0.2659  0.2216
  472MOL0     N63602   1.976   7.064   8.775  0.0794 -0.4009  0.4174
  472MOL0     C63603   1.889   7.125   8.871  0.3334  1.2845  0.2182
  472MOL0     C63604   1.871   7.023   8.965 -0.2158  0.2153  0.3017
  472MOL0     C63605   1.761   7.034   9.073  0.5064  0.1390 -0.0918
  472MOL0     C63606   1.783   6.936   9.182 -0.1831  0.9584 -0.2551
  472MOL0     C63607   1.736   6.978   9.332 -0.8035 -0.6544 -0.3134
  472MOL0     C63608   1.599   6.919   9.351 -0.1928  0.1754  0.2755
  472MOL0     O63609   1.519   6.943   9.237  1.1091 -0.1359 -0.0046
  472MOL0     C63610   1.391   6.899   9.229  0.9127  0.4130  0.3156
  472MOL0     C63611   1.314   6.871   9.343  0.0557  0.2342  0.2561
  472MOL0     C63612   1.179   6.836   9.332 -0.9124  0.6559  0.1212
  472MOL0     C63613   1.119   6.833   9.209 -0.4249  0.4573  0.1701
  472MOL0     C63614   0.979   6.783   9.181  0.0878  0.6298 -0.1185
  472MOL0     O63615   0.938   6.773   9.056 -0.2450  0.2203  0.6266
  472MOL0     C63616   0.814   6.715   9.021 -0.3596  0.2275  0.8995
  472MOL0     C63617   0.693   6.730   9.094  0.1434 -0.2566  0.4552
  472MOL0     C63618   0.578   6.673   9.047 -0.3338 -1.6454 -0.2179
  472MOL0     C63619   0.564   6.645   8.912  0.6736  0.1844  0.3334
  472MOL0     O63620   0.434   6.607   8.888  0.3159 -0.3488 -0.2990
  472MOL0     C63621   0.410   6.508   8.786 -0.0003 -0.1030  0.0714
  472MOL0     C63622   0.378   6.570   8.651  0.0328 -0.2593 -0.2503
  472MOL0     C63623   0.224   6.594   8.633 -0.4777 -0.2418  0.0156
  472MOL0     C63624   0.163   6.707   8.705 -0.3617 -1.0720  0.1023
  472MOL0     C63625   0.016   6.721   8.684  0.8785 -0.6475  0.2481
  472MOL0     C63626  -0.029   6.814   8.572 -1.2236  0.0059 -0.5219
  472MOL0     C63627  -0.181   6.828   8.567 -0.2672  0.2603 -0.4091
  472MOL0     C63628  -0.221   6.878   8.431  0.4190 -0.2636  0.2698
  472MOL0    Cl63629  -0.397   6.917   8.409  0.0043  0.2657 -0.1842
  472MOL0     C63630   0.681   6.652   8.829 -0.3796  0.4417 -0.2598
  472MOL0     C63631   0.815   6.667   8.885 -0.0501  0.1117 -0.0690
  472MOL0     O63632   0.920   6.743   9.284  0.0137  0.1390 -0.2508
  472MOL0     C63633   1.201   6.867   9.094 -0.3041 -0.7258  0.4169
  472MOL0     C63634   1.337   6.897   9.103  1.4207  0.2077  0.0958
  472MOL0     N63635   1.953   6.919   8.922 -0.4436  0.0272  0.5028
  472MOL0     N63636   2.014   6.946   8.821  0.3544 -0.7130  0.7282
  472MOL0     C63637   2.141   7.665   7.806 -0.0744  0.0781 -0.5746
  472MOL0     C63638   2.196   7.698   7.686  0.0248 -0.2560  0.7239
  472MOL0     C63639   2.381   7.978   7.372  0.5103 -0.5417  0.3522
  472MOL0     C63640   2.311   7.931   7.257  0.0636 -0.3401 -0.2233
  472MOL0     C63641   2.372   7.913   7.125 -0.4691  0.0083 -0.2365
  472MOL0     C63642   2.510   7.938   7.112 -1.0306  0.0041 -0.0439
  472MOL0     O63643   2.591   7.915   7.003 -0.6144  0.1030 -0.6412
  472MOL0     C63644   2.530   7.837   6.899  1.1704  0.4043 -0.1319
  472MOL0     C63645   2.469   7.920   6.782 -0.0535  0.2893 -0.1999
  472MOL0     C63646   2.430   7.846   6.654  0.4898  0.5298  0.3113
  472MOL0     C63647   2.522   7.850   6.532 -0.8611 -0.4474  0.5428
  472MOL0     C63648   2.663   7.821   6.575  0.4077 -0.3454  0.3415
  472MOL0     C63649   2.780   7.821   6.616 -0.4048  0.1598 -0.4437
  472MOL0     C63650   2.573   7.992   7.222  0.0679  1.2481  0.1175
  472MOL0     C63651   2.516   8.016   7.350  0.8756 -0.3522  0.4109
  472MOL0     C63652   2.586   8.084   7.464  0.3944 -0.7275  0.8612
  472MOL0     H63653   2.026   7.979   7.613 -1.5760  0.2939  1.2990
  472MOL0     H63654   1.909   7.908   7.830  0.8180  1.2346  0.6102
  472MOL0     H63655   2.042   7.524   8.041 -1.9476  1.6118 -2.7738
  472MOL0     H63656   2.152   7.665   8.088 -1.1067  2.8462  2.2506
  472MOL0     H63657   1.888   7.654   8.221  0.0155 -0.5549 -0.3229
  472MOL0     H63658   2.016   7.758   8.232  0.2678  0.6009 -1.9887
  472MOL0     H63659   2.019   7.610   8.426  2.0121  1.1202 -0.6506
  472MOL0     H63660   2.150   7.562   8.324  0.5803 -2.1354  1.0538
  472MOL0     H63661   1.876   7.444   8.286 -0.6205 -2.6747  0.0947
  472MOL0     H63662   2.032   7.375   8.234  0.0992 -1.4785  0.2060
  472MOL0     H63663   2.086   7.342   8.482  0.1105  0.9147  1.4348
  472MOL0     H63664   1.932   7.432   8.518 -0.1533 -0.7384  0.0962
  472MOL0     H63665   1.807   7.262   8.414 -1.0588 -0.1226  2.2497
  472MOL0     H63666   1.951   7.178   8.357 -1.7570 -0.8419 -0.9504
  472MOL0     H63667   1.825   7.076   8.554 -0.3884  1.0383  0.5732
  472MOL0     H63668   1.853   7.237   8.632  1.7630  1.7528 -1.0191
  472MOL0     H63669   2.058   7.027   8.580 -1.2884 -1.4398  1.2192
  472MOL0     H63670   2.096   7.187   8.656  1.4455 -0.6288  0.8966
  472MOL0     H63671   1.846   7.224   8.861  2.0000  1.8471 -2.6989
  472MOL0     H63672   1.769   7.135   9.115  1.3750  1.3924 -2.9922
  472MOL0     H63673   1.663   7.018   9.026  0.0374  1.6157  0.3348
  472MOL0     H63674   1.736   6.839   9.161  1.1371  0.4997 -1.2406
  472MOL0     H63675   1.889   6.910   9.184 -0.1326  1.2181  0.7533
  472MOL0     H63676   1.746   7.087   9.338 -0.9910 -0.6351 -0.3652
  472MOL0     H63677   1.808   6.928   9.398 -1.1027 -1.5253 -0.6347
  472MOL0     H63678   1.550   6.963   9.439  1.0958 -0.1635  1.1857
  472MOL0     H63679   1.600   6.811   9.367 -0.7348  0.3918  1.9979
  472MOL0     H63680   1.336   6.893   9.447 -0.4836  0.0534  0.4117
  472MOL0     H63681   1.128   6.808   9.424  1.2300 -2.3882  0.5434
  472MOL0     H63682   0.688   6.757   9.199  1.6452  2.0584  0.0103
  472MOL0     H63683   0.486   6.673   9.105  0.7555  2.1779  1.8252
  472MOL0     H63684   0.499   6.446   8.771  0.3302  0.5593 -0.8269
  472MOL0     H63685   0.329   6.442   8.817 -1.8470  0.7798 -2.5373
  472MOL0     H63686   0.437   6.658   8.621  0.9828 -0.9261 -0.3790
  472MOL0     H63687   0.405   6.487   8.585  1.7726  0.5265 -0.5863
  472MOL0     H63688   0.199   6.600   8.526 -2.0148  0.9768  0.4124
  472MOL0     H63689   0.174   6.504   8.669 -0.4459  0.2181  1.2318
  472MOL0     H63690   0.215   6.798   8.673  1.1957 -0.4749  3.9248
  472MOL0     H63691   0.176   6.695   8.812 -2.4135  0.2678  0.5606
  472MOL0     H63692  -0.034   6.749   8.777 -2.1176 -2.6018 -0.6280
  472MOL0     H63693  -0.024   6.622   8.659 -0.3344 -0.0578 -0.1824
  472MOL0     H63694   0.009   6.915   8.586 -1.4489  0.0729 -0.3776
  472MOL0     H63695   0.013   6.779   8.477  1.1616 -1.3986  0.9493
  472MOL0     H63696  -0.220   6.896   8.644  0.0224 -0.0793  0.0428
  472MOL0     H63697  -0.215   6.727   8.592  0.6912  0.1860  0.7085
  472MOL0     H63698  -0.170   6.972   8.406  0.8539 -0.3530  0.8021
  472MOL0     H63699  -0.190   6.818   8.345 -1.5255  0.5329 -1.0723
  472MOL0     H63700   0.658   6.655   8.723  0.9351  0.7771 -0.5487
  472MOL0     H63701   0.906   6.665   8.825 -0.1923 -0.8186 -0.2724
  472MOL0     H63702   1.165   6.871   8.992 -0.6584  1.1858  0.5842
  472MOL0     H63703   1.396   6.940   9.023 -0.3707  4.9946  1.0001
  472MOL0     H63704   2.195   7.583   7.853 -0.8672 -1.0265 -1.5444
  472MOL0     H63705   2.273   7.639   7.637  1.4588  2.5805 -0.6563
  472MOL0     H63706   2.214   7.885   7.273 -0.1374  0.3047  0.5095
  472MOL0     H63707   2.323   7.892   7.031  0.7860 -1.0964 -0.6753
  472MOL0     H63708   2.454   7.767   6.934  1.1210  0.7757  0.5133
  472MOL0     H63709   2.613   7.773   6.867  1.6237 -0.6600  2.8270
  472MOL0     H63710   2.544   7.997   6.761  3.0542 -2.0914  1.2723
  472MOL0     H63711   2.385   7.968   6.833 -0.6458  0.2439 -1.1305
  472MOL0     H63712   2.326   7.867   6.625 -0.4536  0.5157  3.3511
  472MOL0     H63713   2.412   7.740   6.676 -1.5711 -0.2023 -3.8234
  472MOL0     H63714   2.488   7.781   6.453 -0.1202  0.1818 -0.3504
  472MOL0     H63715   2.511   7.948   6.484 -1.7876  0.0521  1.7339
  472MOL0     H63716   2.875   7.831   6.663  0.0476  0.4387 -1.3782
  472MOL0     H63717   2.677   8.022   7.211 -0.1364  1.9774  0.0857
  472MOL0     H63718   2.684   8.118   7.429 -0.6021  1.6199  0.1673
  472MOL0     H63719   2.523   8.161   7.509 -0.0365 -0.2287 -0.5545
  472MOL0     H63720   2.613   8.007   7.536  2.6325  0.0525  0.9293
  473MOL0     O63721   9.260   3.168   6.422  0.1463  0.8314 -0.0515
  473MOL0     C63722   9.319   3.111   6.515 -0.5161 -0.3949 -0.4913
  473MOL0     O63723   9.443   3.132   6.563  0.6187  0.0005 -0.3919
  473MOL0     C63724   9.475   3.262   6.566 -0.1331 -0.4091 -0.6173
  473MOL0     C63725   9.603   3.290   6.525 -0.2717 -0.9477 -0.0679
  473MOL0     C63726   9.643   3.426   6.540 -0.5341 -0.7361  0.4727
  473MOL0     C63727   9.559   3.524   6.599  0.2288  0.1484 -0.7261
  473MOL0     O63728   9.591   3.655   6.592  0.5346  0.8222  0.2510
  473MOL0     C63729   9.715   3.702   6.644  0.5083  0.8024 -0.2369
  473MOL0     C63730   9.729   3.846   6.594 -0.2142 -0.4440  0.2472
  473MOL0     C63731   9.863   3.915   6.622 -0.5571  0.0947 -0.7233
  473MOL0     C63732   9.979   3.834   6.577 -1.3774  0.4150 -0.0573
  473MOL0     C63733  10.114   3.917   6.563 -0.2708  0.2589 -0.4074
  473MOL0     C63734  10.231   3.818   6.566  0.2135  0.4661 -0.2050
  473MOL0     C63735  10.370   3.853   6.495  0.0597  0.3372  0.2433
  473MOL0     C63736  10.387   4.004   6.461  0.5622  0.6296  0.0410
  473MOL0     N63737  10.521   4.034   6.411  0.0305  0.0556 -0.2838
  473MOL0     C63738  10.596   4.145   6.439  0.5782 -0.4219 -0.0118
  473MOL0     C63739  10.702   4.132   6.362 -0.1761  0.3305 -0.5585
  473MOL0     C63740  10.787   4.251   6.328  0.2745  0.3043  0.9913
  473MOL0     C63741  10.925   4.210   6.345 -0.0983  0.1348 -0.1203
  473MOL0     C63742  10.974   4.197   6.494 -0.1606 -0.2002  0.5894
  473MOL0     C63743  11.114   4.135   6.505 -0.0321 -0.4631 -0.1901
  473MOL0     O63744  11.166   4.174   6.632 -0.3764  0.0707  0.2020
  473MOL0     C63745  11.257   4.280   6.620  0.0395  0.6755 -0.6130
  473MOL0     C63746  11.378   4.252   6.547  0.2064 -0.9160  0.3615
  473MOL0     C63747  11.482   4.353   6.551  1.1031 -0.0964 -0.2346
  473MOL0     C63748  11.458   4.476   6.612  0.6195  0.3612  0.1027
  473MOL0     C63749  11.579   4.567   6.625  0.9088 -0.7825  0.5388
  473MOL0     O63750  11.558   4.682   6.691 -0.1765 -0.3848  0.0538
  473MOL0     C63751  11.675   4.758   6.693 -0.1032 -0.7073  0.3546
  473MOL0     C63752  11.706   4.861   6.602 -0.0867 -0.8664  0.7032
  473MOL0     C63753  11.831   4.933   6.618 -0.7697  0.1669  0.0031
  473MOL0     C63754  11.926   4.890   6.714 -0.4572  0.4978  0.4729
  473MOL0     O63755  12.058   4.950   6.720  0.3067  0.0622  0.0242
  473MOL0     C63756  12.155   4.898   6.628 -0.3590 -0.0154  0.4089
  473MOL0     C63757  12.269   4.992   6.624 -0.5933 -1.3045  0.4213
  473MOL0     C63758  12.395   4.926   6.583 -0.0768  0.3382 -0.6129
  473MOL0     C63759  12.521   5.022   6.555  0.2580 -0.0483 -1.1955
  473MOL0     C63760  12.583   5.063   6.686 -0.2716 -0.3186  0.0555
  473MOL0     C63761  12.673   5.186   6.690  0.5620 -0.3409  0.9005
  473MOL0     C63762  12.777   5.178   6.579 -1.0850  0.8962  0.8577
  473MOL0     C63763  12.877   5.292   6.611 -0.7990  0.1183  0.6865
  473MOL0    Cl63764  13.001   5.279   6.486  0.2345  0.4568 -0.1966
  473MOL0     C63765  11.898   4.789   6.803 -0.2599  0.5472 -0.6432
  473MOL0     C63766  11.770   4.724   6.797 -0.6944 -0.8699  0.0357
  473MOL0     O63767  11.698   4.535   6.574  1.4497  0.4429 -0.0897
  473MOL0     C63768  11.344   4.492   6.692 -0.3155 -0.9117  0.5842
  473MOL0     C63769  11.247   4.391   6.702  0.6123 -0.2343  0.2652
  473MOL0     N63770  10.710   4.003   6.310 -0.0100 -0.5311 -0.2830
  473MOL0     N63771  10.598   3.944   6.340 -0.2062  0.4150 -0.0010
  473MOL0     C63772   9.447   3.480   6.675 -0.3837  0.7997 -0.3700
  473MOL0     C63773   9.403   3.353   6.646 -0.1894  0.7547  0.0154
  473MOL0     C63774   9.244   2.999   6.586  0.3745 -0.1059  0.2679
  473MOL0     C63775   9.149   3.024   6.681  1.2504 -0.0273  0.4478
  473MOL0     C63776   9.085   2.923   6.746  0.1713  0.2391 -0.9897
  473MOL0     C63777   9.123   2.792   6.729  0.0058 -0.1631  0.8070
  473MOL0     O63778   9.060   2.689   6.796  0.6810  1.3791 -0.2191
  473MOL0     C63779   9.111   2.667   6.928 -0.3579  0.1517  0.2552
  473MOL0     C63780   9.022   2.585   7.032 -0.7445 -0.1156 -0.1033
  473MOL0     C63781   9.020   2.433   7.012 -0.7087 -0.2172  0.0326
  473MOL0     C63782   9.160   2.378   7.052 -0.4635  0.4188 -0.6961
  473MOL0     C63783   9.160   2.235   7.075  0.0029  0.5945 -0.8752
  473MOL0     C63784   9.154   2.112   7.094  0.6331  0.4387 -0.7357
  473MOL0     C63785   9.213   2.765   6.622 -0.0758 -0.3662  0.1946
  473MOL0     C63786   9.267   2.871   6.548 -0.8751  0.9311 -0.0737
  473MOL0     C63787   9.370   2.831   6.440  0.5857 -0.0508 -0.9081
  473MOL0     H63788   9.676   3.218   6.490  0.5688 -1.2503  2.1754
  473MOL0     H63789   9.734   3.453   6.488  0.0285  0.1769  1.8751
  473MOL0     H63790   9.713   3.712   6.753  2.1300  3.5368 -0.3704
  473MOL0     H63791   9.803   3.644   6.615  0.2216  0.8674 -1.2745
  473MOL0     H63792   9.662   3.911   6.652  3.0051  1.4576  2.1080
  473MOL0     H63793   9.702   3.853   6.488 -0.8944  2.5333  0.5145
  473MOL0     H63794   9.876   3.931   6.730 -1.4558 -2.9145 -0.0753
  473MOL0     H63795   9.861   4.005   6.560  0.5782  1.4254  1.0705
  473MOL0     H63796  10.004   3.748   6.640  0.1677  0.9364  0.0921
  473MOL0     H63797   9.961   3.806   6.473 -1.3212 -0.9381  0.2893
  473MOL0     H63798  10.123   3.970   6.468 -2.4672 -1.5755 -1.7454
  473MOL0     H63799  10.119   3.989   6.645 -0.6883  0.4119 -0.5100
  473MOL0     H63800  10.246   3.781   6.667  1.4964 -3.0355 -1.5309
  473MOL0     H63801  10.186   3.728   6.522 -3.1389  1.4894  0.8041
  473MOL0     H63802  10.372   3.808   6.395 -0.1282  0.4361  0.1931
  473MOL0     H63803  10.460   3.825   6.550 -0.7167 -2.4485  0.2211
  473MOL0     H63804  10.318   4.033   6.381  0.3311  3.9307  1.2906
  473MOL0     H63805  10.370   4.052   6.557  0.4250  1.3274 -0.3256
  473MOL0     H63806  10.557   4.228   6.496  1.0645  0.1070 -0.4304
  473MOL0     H63807  10.753   4.286   6.230 -0.9808 -0.0037  1.3008
  473MOL0     H63808  10.764   4.341   6.387  2.3840  0.8960  0.9897
  473MOL0     H63809  10.952   4.125   6.282 -1.2670  0.0980 -0.5863
  473MOL0     H63810  10.990   4.292   6.312  1.4362 -0.2190  1.8434
  473MOL0     H63811  10.899   4.135   6.544 -3.7333  4.0075  1.0410
  473MOL0     H63812  10.969   4.296   6.540  0.6368 -0.4436  1.2218
  473MOL0     H63813  11.180   4.170   6.426 -0.8882  1.1424 -0.2301
  473MOL0     H63814  11.103   4.026   6.493  0.7593 -0.5560 -0.1211
  473MOL0     H63815  11.397   4.153   6.508  2.4264  1.2760 -5.2900
  473MOL0     H63816  11.573   4.353   6.492  1.8907 -0.1130  0.9428
  473MOL0     H63817  11.644   4.881   6.515 -0.6658 -3.1857  0.5292
  473MOL0     H63818  11.854   5.017   6.554 -2.0485  0.0967 -0.5733
  473MOL0     H63819  12.189   4.808   6.679 -0.0274 -0.2640 -0.2319
  473MOL0     H63820  12.119   4.878   6.527 -1.8101  3.5129  0.0834
  473MOL0     H63821  12.256   5.075   6.555  1.4028 -0.4699  0.9883
  473MOL0     H63822  12.280   5.047   6.718 -1.2633  2.2895 -1.4191
  473MOL0     H63823  12.424   4.850   6.657  0.0707  0.8483 -0.1442
  473MOL0     H63824  12.367   4.871   6.492 -0.5049  0.5968 -0.6400
  473MOL0     H63825  12.492   5.109   6.495  1.0716  1.1628  0.1282
  473MOL0     H63826  12.598   4.974   6.494 -0.3531 -2.4893 -0.1543
  473MOL0     H63827  12.641   4.979   6.728  0.2429 -0.3182 -0.6268
  473MOL0     H63828  12.504   5.065   6.761  1.1623 -1.4515  1.6908
  473MOL0     H63829  12.610   5.276   6.678 -0.3884 -0.7111  2.7088
  473MOL0     H63830  12.720   5.198   6.788  2.2589 -0.5609  0.1312
  473MOL0     H63831  12.733   5.186   6.479  2.1570 -0.8016 -0.8534
  473MOL0     H63832  12.823   5.081   6.597 -1.1758  0.9172  1.2047
  473MOL0     H63833  12.827   5.389   6.617 -1.9535 -0.4866  6.8278
  473MOL0     H63834  12.927   5.276   6.707  0.7015 -0.6931 -0.1876
  473MOL0     H63835  11.960   4.787   6.892 -1.7588  3.5625  0.5942
  473MOL0     H63836  11.738   4.656   6.875 -0.1456 -3.2256 -1.6787
  473MOL0     H63837  11.326   4.576   6.759  0.0690 -2.5587  2.8661
  473MOL0     H63838  11.155   4.400   6.758  0.4619 -1.7040  0.2960
  473MOL0     H63839   9.382   3.549   6.727  1.3008  2.2422 -0.0779
  473MOL0     H63840   9.315   3.307   6.689 -0.4768 -1.3617 -2.6232
  473MOL0     H63841   9.129   3.129   6.704 -2.2489 -0.8569  1.7277
  473MOL0     H63842   9.016   2.952   6.825 -0.2959  0.6963 -1.5549
  473MOL0     H63843   9.139   2.767   6.962  0.0736 -0.0486  0.5045
  473MOL0     H63844   9.208   2.619   6.911 -0.0261  0.2048  1.8749
  473MOL0     H63845   8.920   2.626   7.029 -0.0551  1.5992 -1.2610
  473MOL0     H63846   9.065   2.619   7.127 -2.0823  1.1370  0.0925
  473MOL0     H63847   8.995   2.409   6.908 -1.0521  2.1835 -0.5010
  473MOL0     H63848   8.941   2.395   7.077 -0.7998  0.8670  0.5856
  473MOL0     H63849   9.221   2.404   6.965  1.2978 -0.5828  0.1935
  473MOL0     H63850   9.190   2.423   7.147 -0.9094  0.1292 -0.4131
  473MOL0     H63851   9.136   2.008   7.110 -0.6490  0.9872  1.9172
  473MOL0     H63852   9.243   2.665   6.592  3.5791  1.0671 -1.5906
  473MOL0     H63853   9.365   2.727   6.407  0.0405  0.6184 -3.0611
  473MOL0     H63854   9.355   2.890   6.350 -0.9122  1.2128  0.1249
  473MOL0     H63855   9.468   2.864   6.475 -0.9660  2.4058  1.5641
  474MOL0     O63856   1.255  10.915   7.652 -0.3501 -0.8577 -0.2798
  474MOL0     C63857   1.187  10.854   7.737  0.7320 -0.7598  0.6206
  474MOL0     O63858   1.209  10.843   7.868  0.0115 -0.1518  0.7670
  474MOL0     C63859   1.321  10.874   7.934  0.0998 -0.0098 -1.5178
  474MOL0     C63860   1.447  10.913   7.886 -0.0355 -0.4314  0.2604
  474MOL0     C63861   1.555  10.907   7.962 -0.1064  0.8076  0.3246
  474MOL0     C63862   1.556  10.883   8.100 -0.8126  0.2180 -0.1942
  474MOL0     O63863   1.677  10.886   8.169 -0.1917  0.2857 -0.1842
  474MOL0     C63864   1.668  10.863   8.308 -0.5675  0.7433  0.4505
  474MOL0     C63865   1.800  10.816   8.368 -1.0417  0.2159 -0.0515
  474MOL0     C63866   1.890  10.938   8.402  0.1354 -1.0832  0.2279
  474MOL0     C63867   2.036  10.894   8.441  0.4267  0.6269 -0.5894
  474MOL0     C63868   2.141  11.005   8.445  0.7452  0.1178 -1.3565
  474MOL0     C63869   2.289  10.956   8.480  0.1951  0.4599  0.2852
  474MOL0     C63870   2.402  11.045   8.430 -0.4482  0.1475 -1.0648
  474MOL0     C63871   2.539  10.979   8.438  0.2075  0.7016 -0.1434
  474MOL0     N63872   2.643  11.076   8.418  0.3796  0.4063  0.3493
  474MOL0     C63873   2.725  11.128   8.514 -0.3910  1.2466  0.4455
  474MOL0     C63874   2.815  11.197   8.447 -0.4649 -0.5604  0.2520
  474MOL0     C63875   2.929  11.265   8.517  0.2548 -0.4463 -0.8853
  474MOL0     C63876   3.052  11.268   8.428 -0.4372  0.2021 -0.9903
  474MOL0     C63877   3.128  11.135   8.436 -0.2205  1.1759 -0.3941
  474MOL0     C63878   3.279  11.156   8.392  0.2448 -0.0624  0.1119
  474MOL0     O63879   3.375  11.234   8.466 -0.4411  0.6118  0.1084
  474MOL0     C63880   3.501  11.256   8.414  0.8508  1.0650 -0.0501
  474MOL0     C63881   3.555  11.203   8.294 -0.5421  0.4650  0.9686
  474MOL0     C63882   3.684  11.244   8.260  0.4956 -0.4008  0.0874
  474MOL0     C63883   3.770  11.307   8.351  0.0667 -0.0634 -0.1058
  474MOL0     C63884   3.911  11.324   8.311 -1.0474  0.4236  0.8315
  474MOL0     O63885   3.947  11.280   8.194 -0.2555 -0.1422  0.0412
  474MOL0     C63886   4.044  11.327   8.112 -1.1200 -0.9808  0.5573
  474MOL0     C63887   4.096  11.242   8.016 -0.4741 -0.0659  0.3088
  474MOL0     C63888   4.211  11.281   7.944  0.2025 -0.1479 -0.0978
  474MOL0     C63889   4.263  11.404   7.961 -0.1125 -0.1666 -0.3456
  474MOL0     O63890   4.362  11.433   7.869 -0.2866  0.4086 -0.4994
  474MOL0     C63891   4.436  11.560   7.888 -0.1593 -0.4246 -0.0758
  474MOL0     C63892   4.541  11.567   7.779  0.0212  0.3361 -0.0346
  474MOL0     C63893   4.650  11.651   7.818  0.7614  1.0845 -0.7118
  474MOL0     C63894   4.757  11.682   7.712 -0.4196 -0.1813 -0.8190
  474MOL0     C63895   4.832  11.812   7.749  0.0729 -0.2635  0.5015
  474MOL0     C63896   4.917  11.792   7.877  0.0320 -0.7466  0.1494
  474MOL0     C63897   5.017  11.913   7.889  0.1306  0.9933 -0.7154
  474MOL0     C63898   4.953  12.048   7.884 -0.4173  0.2382  0.0487
  474MOL0    Cl63899   4.824  12.080   8.009  0.1489  0.0755 -0.1456
  474MOL0     C63900   4.196  11.498   8.047  0.0393 -0.9629  0.9800
  474MOL0     C63901   4.089  11.456   8.120  0.4174 -0.7273  0.2433
  474MOL0     O63902   3.982  11.393   8.388 -0.2132  1.0936  0.0925
  474MOL0     C63903   3.718  11.355   8.473  0.1210 -0.1708  0.2105
  474MOL0     C63904   3.585  11.324   8.504 -0.7814  0.2267  0.7702
  474MOL0     N63905   2.789  11.188   8.315 -0.0564 -0.3649  1.0090
  474MOL0     N63906   2.682  11.113   8.288 -0.4252 -0.3386 -1.0279
  474MOL0     C63907   1.427  10.858   8.153 -0.6882 -0.3118 -0.1494
  474MOL0     C63908   1.311  10.874   8.074 -0.2457 -0.3014 -0.6972
  474MOL0     C63909   1.075  10.785   7.678 -0.6945  0.3647  0.0231
  474MOL0     C63910   1.043  10.654   7.717 -0.3903  0.5655 -0.7631
  474MOL0     C63911   0.934  10.593   7.663 -0.9498 -0.0719 -0.9392
  474MOL0     C63912   0.852  10.647   7.565 -0.1464 -0.4213  1.2278
  474MOL0     O63913   0.743  10.577   7.517  0.4695  0.1203 -0.0283
  474MOL0     C63914   0.711  10.593   7.379  0.4889  0.6551 -0.4748
  474MOL0     C63915   0.612  10.486   7.341  0.0767 -0.4256  0.5195
  474MOL0     C63916   0.557  10.492   7.199 -0.8000  0.0228  0.2766
  474MOL0     C63917   0.454  10.379   7.177 -0.5857 -1.1386  1.2025
  474MOL0     C63918   0.529  10.252   7.148  0.6724 -0.4537  0.0963
  474MOL0     C63919   0.605  10.160   7.119  0.9819  0.1486  0.1945
  474MOL0     C63920   0.887  10.776   7.530 -0.0720  1.2485 -0.1500
  474MOL0     C63921   0.988  10.850   7.587 -0.6924  0.7564 -0.3481
  474MOL0     C63922   0.998  10.988   7.535 -0.1235  0.0518  0.2094
  474MOL0     H63923   1.452  10.934   7.779 -0.4137  1.3411  0.5613
  474MOL0     H63924   1.650  10.921   7.912 -0.3215 -1.3181 -0.8141
  474MOL0     H63925   1.617  10.944   8.360 -0.8120 -1.0325  3.1988
  474MOL0     H63926   1.609  10.771   8.320  3.7625 -2.3075  0.6324
  474MOL0     H63927   1.857  10.751   8.302 -3.1348 -0.8666 -0.8868
  474MOL0     H63928   1.772  10.763   8.460 -1.7491  1.4901  0.4965
  474MOL0     H63929   1.845  10.994   8.485 -0.3825 -0.1416 -0.6645
  474MOL0     H63930   1.889  11.016   8.325  1.7601  2.2184  3.2878
  474MOL0     H63931   2.046  10.858   8.544 -0.6309  3.0718  0.4437
  474MOL0     H63932   2.070  10.816   8.372 -2.8716 -1.3774 -0.1852
  474MOL0     H63933   2.132  11.056   8.349  1.7698  2.0414 -0.4925
  474MOL0     H63934   2.106  11.070   8.526 -0.7593 -0.9984 -1.0758
  474MOL0     H63935   2.299  10.953   8.589 -0.1832 -1.8016  0.3076
  474MOL0     H63936   2.293  10.851   8.448  0.6240 -0.5044  3.1469
  474MOL0     H63937   2.397  11.142   8.481 -0.6875  1.1123 -2.8441
  474MOL0     H63938   2.391  11.069   8.324  1.1759  3.9031 -0.5767
  474MOL0     H63939   2.549  10.923   8.531  2.6466  1.4823  0.1280
  474MOL0     H63940   2.549  10.903   8.360 -0.3591  1.0454 -0.5603
  474MOL0     H63941   2.711  11.098   8.617 -2.2246 -2.9911 -0.8041
  474MOL0     H63942   2.891  11.362   8.550 -2.7396 -2.5110  2.4289
  474MOL0     H63943   2.950  11.207   8.607  0.0041  0.6306 -0.1192
  474MOL0     H63944   3.021  11.295   8.326 -2.2359  1.4179 -0.1684
  474MOL0     H63945   3.127  11.341   8.461 -1.2368  0.2929  0.7210
  474MOL0     H63946   3.083  11.075   8.356  2.1498  1.8086 -2.3234
  474MOL0     H63947   3.113  11.079   8.528  1.1931  0.1497 -0.7540
  474MOL0     H63948   3.273  11.198   8.291 -2.2517 -0.9544 -0.1808
  474MOL0     H63949   3.326  11.057   8.387  1.2254  0.4214 -0.4544
  474MOL0     H63950   3.501  11.155   8.213 -0.1209  0.4112  0.7175
  474MOL0     H63951   3.721  11.222   8.161 -2.5860 -2.7987 -0.6864
  474MOL0     H63952   4.039  11.150   8.010 -1.6454  0.7289 -2.1268
  474MOL0     H63953   4.239  11.203   7.874  0.0895 -1.1426  0.9204
  474MOL0     H63954   4.369  11.644   7.872 -1.2077 -1.3446 -0.6961
  474MOL0     H63955   4.494  11.572   7.980  2.0632 -0.2502 -1.4154
  474MOL0     H63956   4.578  11.465   7.766 -2.6258 -1.0225  2.0668
  474MOL0     H63957   4.491  11.593   7.685  0.2865 -2.4919 -1.0490
  474MOL0     H63958   4.606  11.747   7.848 -1.6380 -0.4789  1.1758
  474MOL0     H63959   4.700  11.605   7.903 -0.6853 -0.1945 -0.5118
  474MOL0     H63960   4.721  11.703   7.610  0.1620  0.4333 -0.9010
  474MOL0     H63961   4.833  11.604   7.703 -1.8976 -1.7813 -0.1666
  474MOL0     H63962   4.758  11.889   7.773 -0.0203 -0.2493  0.1797
  474MOL0     H63963   4.896  11.840   7.665 -0.0299 -2.2898 -0.3177
  474MOL0     H63964   4.853  11.807   7.964  0.8034  3.6051  0.2198
  474MOL0     H63965   4.966  11.695   7.892  1.2388 -0.1758  0.0727
  474MOL0     H63966   5.098  11.893   7.818  0.5186  1.4663 -0.4133
  474MOL0     H63967   5.067  11.892   7.984  0.1356 -0.3891 -0.9987
  474MOL0     H63968   5.030  12.122   7.909 -0.0551  0.0091 -0.3611
  474MOL0     H63969   4.921  12.072   7.782  0.1266  1.5891  0.1750
  474MOL0     H63970   4.242  11.596   8.043  0.2515 -1.0669  0.8686
  474MOL0     H63971   4.054  11.526   8.195 -0.5545 -2.2253  1.2358
  474MOL0     H63972   3.771  11.404   8.554 -1.8160 -1.0460  2.1211
  474MOL0     H63973   3.564  11.354   8.606  2.4475  0.7320  1.3973
  474MOL0     H63974   1.423  10.847   8.261 -0.3194 -0.8088 -0.1845
  474MOL0     H63975   1.212  10.855   8.113  1.0390 -0.0168  3.0323
  474MOL0     H63976   1.099  10.604   7.795  0.8410  2.1958 -0.5516
  474MOL0     H63977   0.904  10.501   7.711  2.4106 -1.4191 -1.1154
  474MOL0     H63978   0.801  10.569   7.322  1.4464 -0.0584  1.2865
  474MOL0     H63979   0.673  10.691   7.348 -2.3490 -0.4219 -0.6567
  474MOL0     H63980   0.524  10.505   7.404  1.8671  1.1862  2.7126
  474MOL0     H63981   0.659  10.390   7.363  2.1563  0.5621  0.5987
  474MOL0     H63982   0.642  10.496   7.129  0.0286  1.9230  1.3326
  474MOL0     H63983   0.507  10.588   7.185  1.7410  1.5455  0.8723
  474MOL0     H63984   0.389  10.358   7.262  0.6537 -2.5223  1.8603
  474MOL0     H63985   0.390  10.396   7.090  3.5367  1.9680 -1.6268
  474MOL0     H63986   0.678  10.110   7.059  0.0717  0.1754 -0.9804
  474MOL0     H63987   0.828  10.820   7.450  0.0561 -1.2115 -1.6989
  474MOL0     H63988   1.007  11.061   7.617  0.7493  3.2295 -2.4961
  474MOL0     H63989   1.083  10.993   7.467 -0.0823  1.0695  0.3219
  474MOL0     H63990   0.914  11.022   7.473  0.7399  0.5756 -0.6909
  475MOL0     O63991   9.146  11.044   5.096  0.7027 -0.2280  0.1409
  475MOL0     C63992   9.061  10.965   5.053  0.1683  0.8746  0.4276
  475MOL0     O63993   9.044  10.937   4.914  0.3826 -0.5266 -0.2708
  475MOL0     C63994   9.136  10.991   4.827 -0.4097 -0.6252  0.9199
  475MOL0     C63995   9.138  11.127   4.801  0.1096  0.3284 -0.1911
  475MOL0     C63996   9.232  11.195   4.718 -0.2750 -0.2837  0.1637
  475MOL0     C63997   9.317  11.102   4.648  0.3045 -1.0674 -0.1270
  475MOL0     O63998   9.394  11.135   4.541 -0.6142 -0.2235 -0.2277
  475MOL0     C63999   9.456  11.269   4.543 -0.3149 -0.4465  0.0535
  475MOL0     C64000   9.551  11.294   4.424 -0.9351  0.4445  0.4235
  475MOL0     C64001   9.606  11.433   4.411 -0.0974 -0.6235 -0.2798
  475MOL0     C64002   9.741  11.455   4.482  0.1152 -0.2599  0.1986
  475MOL0     C64003   9.817  11.565   4.410  0.3550  0.1445  0.9306
  475MOL0     C64004   9.761  11.703   4.420  0.9409  0.4531 -0.1989
  475MOL0     C64005   9.864  11.810   4.387 -0.1017 -0.1579  0.5271
  475MOL0     C64006   9.803  11.948   4.427 -0.2600 -0.8484 -0.0456
  475MOL0     N64007   9.905  12.053   4.427  0.5453  0.5536 -0.2518
  475MOL0     C64008   9.982  12.094   4.324 -0.2271 -0.7839 -0.3661
  475MOL0     C64009  10.076  12.179   4.376 -0.3610 -0.2456  1.6569
  475MOL0     C64010  10.192  12.260   4.311  1.2002 -0.1624  0.1304
  475MOL0     C64011  10.305  12.297   4.407 -0.4647  1.1255  0.9561
  475MOL0     C64012  10.417  12.187   4.401  0.1789 -0.5534  0.1457
  475MOL0     C64013  10.407  12.087   4.511 -0.0531 -0.1957 -0.3609
  475MOL0     O64014  10.510  11.986   4.498 -0.4301 -1.2265 -0.4497
  475MOL0     C64015  10.640  12.027   4.516 -0.5628 -0.0611 -0.1098
  475MOL0     C64016  10.727  11.986   4.413  0.5617  0.1946 -0.4936
  475MOL0     C64017  10.863  12.013   4.436 -0.7641 -0.6144 -0.2986
  475MOL0     C64018  10.915  12.060   4.557 -0.4386 -0.4783  1.4982
  475MOL0     C64019  11.059  12.080   4.572 -0.1114  0.2160  0.1389
  475MOL0     O64020  11.096  12.141   4.688 -0.4290  0.0988 -0.1944
  475MOL0     C64021  11.226  12.142   4.730  0.1910 -0.7014 -0.6736
  475MOL0     C64022  11.299  12.267   4.723 -0.3702  0.6057  0.0522
  475MOL0     C64023  11.434  12.271   4.756  0.1495  1.1892 -0.3320
  475MOL0     C64024  11.493  12.144   4.792  0.0296  0.2360 -0.0231
  475MOL0     O64025  11.632  12.141   4.820  0.0417 -0.1570 -0.3659
  475MOL0     C64026  11.687  12.052   4.920 -0.9102 -0.1402  0.8213
  475MOL0     C64027  11.843  12.064   4.926  1.0596 -0.1272 -0.2734
  475MOL0     C64028  11.929  12.043   4.796  0.5162 -0.1304  0.0491
  475MOL0     C64029  11.899  11.910   4.727  1.1244  0.5102 -0.0794
  475MOL0     C64030  11.957  11.791   4.793 -0.1667  0.4253 -0.6057
  475MOL0     C64031  11.923  11.648   4.725 -0.3329 -0.5546  0.5220
  475MOL0     C64032  11.968  11.511   4.780 -0.8791 -0.0463  0.0017
  475MOL0     C64033  11.877  11.396   4.754 -0.6120  0.3502 -0.7338
  475MOL0    Cl64034  11.819  11.407   4.582  0.2787 -0.1329  0.1495
  475MOL0     C64035  11.416  12.027   4.800  1.0495  1.0049  0.8027
  475MOL0     C64036  11.281  12.027   4.767 -0.0450  0.1936 -0.4345
  475MOL0     O64037  11.137  12.031   4.486 -0.1714  0.1931 -0.0968
  475MOL0     C64038  10.831  12.099   4.652  1.2748 -1.2272  0.1856
  475MOL0     C64039  10.694  12.095   4.629  0.4765 -0.3006 -0.3575
  475MOL0     N64040  10.041  12.206   4.509  0.7429  0.4161 -0.1854
  475MOL0     N64041   9.940  12.131   4.535  0.2508 -0.2428  0.3763
  475MOL0     C64042   9.326  10.965   4.677  0.2254  0.5137  0.3653
  475MOL0     C64043   9.233  10.905   4.763 -0.2689 -0.4607 -0.5998
  475MOL0     C64044   8.977  10.882   5.142  0.1780 -0.0275  0.2593
  475MOL0     C64045   8.945  10.947   5.260  0.6390 -0.2792 -0.4363
  475MOL0     C64046   8.861  10.886   5.354 -0.0898 -0.3150 -0.6124
  475MOL0     C64047   8.816  10.757   5.338  0.4968  0.3004 -0.1871
  475MOL0     O64048   8.721  10.703   5.430  0.1145  0.0197  0.4708
  475MOL0     C64049   8.612  10.642   5.371 -0.1820 -0.2062  0.4745
  475MOL0     C64050   8.487  10.666   5.459  0.3301 -0.0689 -0.8468
  475MOL0     C64051   8.393  10.546   5.461 -0.0210 -0.5162 -0.6005
  475MOL0     C64052   8.285  10.574   5.570  0.5507 -0.2946 -0.0966
  475MOL0     C64053   8.235  10.450   5.645 -0.7601  0.6137  0.1353
  475MOL0     C64054   8.188  10.345   5.693 -1.0838 -0.0746  0.0976
  475MOL0     C64055   8.842  10.690   5.218 -0.8339  0.0153  0.4610
  475MOL0     C64056   8.934  10.754   5.125  1.1785  1.1170 -0.6918
  475MOL0     C64057   8.972  10.668   5.011 -0.1474 -0.5915  1.0357
  475MOL0     H64058   9.062  11.184   4.854  1.4715 -0.2919  2.6070
  475MOL0     H64059   9.232  11.303   4.704 -0.8651  0.2513  3.5477
  475MOL0     H64060   9.379  11.345   4.528 -0.1412 -0.2023  0.3883
  475MOL0     H64061   9.504  11.294   4.638  1.3984  1.5787 -1.2636
  475MOL0     H64062   9.492  11.273   4.334 -1.9170  1.8350  0.7034
  475MOL0     H64063   9.641  11.235   4.443 -0.7421  0.2517 -1.0144
  475MOL0     H64064   9.531  11.505   4.446  0.8548  0.3033 -0.1316
  475MOL0     H64065   9.623  11.450   4.305 -1.6804  0.9450 -0.3294
  475MOL0     H64066   9.726  11.482   4.586  1.1646 -0.0892  0.3132
  475MOL0     H64067   9.790  11.358   4.471  2.7594  1.1460 -1.5307
  475MOL0     H64068   9.908  11.576   4.470 -0.6419  3.0539  2.0847
  475MOL0     H64069   9.838  11.535   4.307  0.7893  2.8730  0.1429
  475MOL0     H64070   9.673  11.719   4.357  0.6532  2.6231  0.6766
  475MOL0     H64071   9.734  11.712   4.525  3.5821  0.6418  0.5357
  475MOL0     H64072   9.885  11.815   4.280 -1.7998  1.7564  0.2250
  475MOL0     H64073   9.959  11.791   4.437  0.5787  0.0658 -0.6485
  475MOL0     H64074   9.726  11.973   4.355 -0.8984 -0.7090  0.6699
  475MOL0     H64075   9.757  11.939   4.526 -1.5320 -0.7729 -0.6087
  475MOL0     H64076   9.976  12.069   4.218 -0.9188  2.0794 -1.1035
  475MOL0     H64077  10.224  12.209   4.219 -0.4639  0.1531 -0.6690
  475MOL0     H64078  10.146  12.347   4.263 -0.0776 -0.8929 -0.0383
  475MOL0     H64079  10.345  12.383   4.353 -1.3033  0.9420  0.0165
  475MOL0     H64080  10.267  12.311   4.508 -3.7737 -1.5333  0.2720
  475MOL0     H64081  10.514  12.236   4.407 -0.7493  1.7084 -1.8947
  475MOL0     H64082  10.419  12.135   4.304  0.4420 -0.7644  0.2628
  475MOL0     H64083  10.307  12.043   4.511 -0.7548  1.2603  1.5313
  475MOL0     H64084  10.422  12.136   4.607  2.6283 -0.7929 -0.3989
  475MOL0     H64085  10.686  11.934   4.328  1.2136  0.6940 -1.1244
  475MOL0     H64086  10.926  11.995   4.349  0.1128  2.0126 -0.3095
  475MOL0     H64087  11.247  12.356   4.689  0.1306  0.5396 -0.9104
  475MOL0     H64088  11.500  12.357   4.753  0.6524  0.7691 -3.3341
  475MOL0     H64089  11.640  12.091   5.011  1.5633  1.4412  1.5142
  475MOL0     H64090  11.667  11.946   4.907 -0.3710 -0.3778  1.8455
  475MOL0     H64091  11.875  12.163   4.961 -0.3536 -0.0017  0.7547
  475MOL0     H64092  11.869  11.991   5.003  1.7206  0.4714  0.0765
  475MOL0     H64093  11.908  12.125   4.728 -0.9953 -1.2566 -0.8956
  475MOL0     H64094  12.036  12.037   4.820  0.3685  2.2805  1.6940
  475MOL0     H64095  11.935  11.905   4.624 -0.2786  1.7789 -0.6687
  475MOL0     H64096  11.790  11.915   4.717  1.1392  0.7565 -0.1181
  475MOL0     H64097  11.925  11.784   4.897 -1.5373 -1.3838 -1.0910
  475MOL0     H64098  12.066  11.797   4.789  0.1521 -3.3445 -2.0099
  475MOL0     H64099  11.817  11.651   4.699  0.1205  2.7886 -1.5470
  475MOL0     H64100  11.971  11.655   4.627 -0.1265 -1.1024  0.5815
  475MOL0     H64101  11.983  11.529   4.887 -1.1504  0.9187 -0.1129
  475MOL0     H64102  12.071  11.503   4.743 -0.5015  1.4579  0.6446
  475MOL0     H64103  11.927  11.301   4.774 -0.6316  0.4439 -0.2307
  475MOL0     H64104  11.793  11.395   4.824 -0.1407 -1.2567 -0.1512
  475MOL0     H64105  11.461  11.937   4.840  0.9556  0.6054  0.0324
  475MOL0     H64106  11.226  11.934   4.778 -1.4331  0.5675 -3.2438
  475MOL0     H64107  10.866  12.153   4.739  2.1013 -0.8842 -0.3410
  475MOL0     H64108  10.634  12.122   4.715  3.8072 -0.3005  2.2053
  475MOL0     H64109   9.403  10.906   4.627 -2.6414 -2.4682 -0.9578
  475MOL0     H64110   9.237  10.804   4.802 -0.3180 -0.5317 -0.7806
  475MOL0     H64111   8.990  11.041   5.292 -1.8318  0.4611  1.1593
  475MOL0     H64112   8.834  10.956   5.432  1.3893  0.6254 -0.8972
  475MOL0     H64113   8.637  10.535   5.361 -1.2460 -0.7473  2.8460
  475MOL0     H64114   8.584  10.688   5.276 -0.8633  0.6002  1.0520
  475MOL0     H64115   8.436  10.756   5.424  0.5460  0.1873 -0.5099
  475MOL0     H64116   8.518  10.677   5.564 -1.0287  3.6737 -0.6958
  475MOL0     H64117   8.456  10.461   5.489 -1.1112  0.2375  5.4448
  475MOL0     H64118   8.351  10.538   5.360  0.1851  0.1086 -0.7412
  475MOL0     H64119   8.322  10.633   5.654  1.9122  1.1171 -1.5946
  475MOL0     H64120   8.208  10.637   5.525 -2.5667 -3.9941 -0.4945
  475MOL0     H64121   8.153  10.255   5.739 -1.1007  0.3424  0.9242
  475MOL0     H64122   8.808  10.589   5.198  1.4362 -0.3909 -1.8350
  475MOL0     H64123   8.882  10.647   4.951  0.9474 -2.8944  0.0540
  475MOL0     H64124   9.039  10.700   4.931 -1.4686  1.2526  0.6068
  475MOL0     H64125   9.014  10.576   5.052  1.3558 -1.0074 -1.2376
  476MOL0     O64126   6.832   3.166   6.284  0.4670  0.4472 -0.3670
  476MOL0     C64127   6.819   3.045   6.277  0.6815 -0.1451  0.1945
  476MOL0     O64128   6.919   2.957   6.244 -0.4781  0.0325 -0.3288
  476MOL0     C64129   7.045   3.003   6.246 -0.1280  0.7240 -0.5018
  476MOL0     C64130   7.138   2.947   6.336 -0.0301  0.4452  0.7501
  476MOL0     C64131   7.270   2.985   6.335 -0.2237 -0.0349  0.1281
  476MOL0     C64132   7.317   3.076   6.246  0.2050 -0.6900  0.1196
  476MOL0     O64133   7.443   3.133   6.245 -1.1242 -0.5444 -0.3828
  476MOL0     C64134   7.543   3.080   6.329  0.1134  0.0680  0.3931
  476MOL0     C64135   7.674   3.097   6.255  1.1048 -0.3314  0.7114
  476MOL0     C64136   7.803   3.078   6.344 -0.5000  0.3035  0.0683
  476MOL0     C64137   7.821   3.215   6.414 -0.6756 -0.1217  0.1988
  476MOL0     C64138   7.931   3.204   6.513 -0.5573  0.2564  0.4206
  476MOL0     C64139   7.971   3.340   6.559  0.0288  0.5919  0.1881
  476MOL0     C64140   8.042   3.422   6.452  0.0602 -0.1865  0.2261
  476MOL0     C64141   8.120   3.549   6.481 -0.0037 -0.4649 -0.1977
  476MOL0     N64142   8.235   3.526   6.570 -0.8010  0.9054 -0.7414
  476MOL0     C64143   8.211   3.501   6.706 -0.1889 -0.1563  0.0925
  476MOL0     C64144   8.334   3.465   6.754 -0.4244 -0.2154 -0.4251
  476MOL0     C64145   8.347   3.425   6.895 -0.0801 -0.3147 -0.4850
  476MOL0     C64146   8.492   3.402   6.931 -0.5574  0.0969  0.2096
  476MOL0     C64147   8.546   3.419   7.071  0.4157  0.2444  0.0248
  476MOL0     C64148   8.483   3.533   7.149  0.0373 -0.7404  0.1041
  476MOL0     O64149   8.565   3.540   7.266 -0.3752  0.1527  0.2553
  476MOL0     C64150   8.518   3.600   7.378  0.4219  0.4384 -0.4423
  476MOL0     C64151   8.420   3.704   7.376 -0.0095 -0.9079 -0.0731
  476MOL0     C64152   8.374   3.760   7.501 -0.5241 -0.1557  0.6324
  476MOL0     C64153   8.424   3.707   7.630  0.3775 -0.3834  0.2831
  476MOL0     C64154   8.364   3.771   7.756 -0.4922 -0.1708 -0.1433
  476MOL0     O64155   8.228   3.778   7.761  0.6666  0.2756 -0.1269
  476MOL0     C64156   8.179   3.801   7.886 -0.3338  1.4182 -0.6456
  476MOL0     C64157   8.131   3.921   7.925 -0.9443 -0.8241  0.4379
  476MOL0     C64158   8.087   3.943   8.053 -0.4444 -0.3233 -0.2084
  476MOL0     C64159   8.094   3.835   8.146 -0.0434  0.2530  0.2605
  476MOL0     O64160   8.028   3.846   8.272 -0.0369 -0.2286  0.0955
  476MOL0     C64161   7.947   3.957   8.310  0.1829 -1.3849 -0.0235
  476MOL0     C64162   7.810   3.958   8.234  0.3771 -0.4744  0.3845
  476MOL0     C64163   7.712   3.845   8.243 -0.0203  0.5808  0.2843
  476MOL0     C64164   7.587   3.869   8.152 -0.8972  0.1226 -0.0160
  476MOL0     C64165   7.474   3.763   8.155  0.0810  0.3216  0.4715
  476MOL0     C64166   7.522   3.630   8.099 -0.4805 -0.4586 -0.1431
  476MOL0     C64167   7.414   3.522   8.069 -0.0126  0.0070 -0.0984
  476MOL0     C64168   7.379   3.450   8.191  0.5091  0.4414 -0.3938
  476MOL0    Cl64169   7.311   3.300   8.139 -0.1630  0.0410 -0.0967
  476MOL0     C64170   8.147   3.710   8.112 -0.0699  0.2130  0.6761
  476MOL0     C64171   8.189   3.689   7.984 -0.0050 -1.2203  0.5663
  476MOL0     O64172   8.445   3.810   7.847  0.2057  0.3212 -1.1054
  476MOL0     C64173   8.523   3.611   7.626 -0.4060 -0.0018  0.7750
  476MOL0     C64174   8.562   3.559   7.505 -0.2753 -0.2786  0.9466
  476MOL0     N64175   8.422   3.456   6.644 -0.1415  0.7626  0.1371
  476MOL0     N64176   8.363   3.488   6.533  0.4331 -0.4296 -0.4295
  476MOL0     C64177   7.224   3.131   6.153 -0.0594  0.4971 -0.1496
  476MOL0     C64178   7.087   3.091   6.151 -1.2357  0.5487 -0.5347
  476MOL0     C64179   6.690   2.985   6.312 -0.3190  0.3483  0.4891
  476MOL0     C64180   6.679   2.840   6.275  0.4525 -0.2634 -0.2449
  476MOL0     C64181   6.559   2.773   6.282  0.1492 -0.2041 -0.4567
  476MOL0     C64182   6.454   2.833   6.346  0.5549 -0.4793  1.1638
  476MOL0     O64183   6.330   2.778   6.358  0.3238 -0.8722 -0.0234
  476MOL0     C64184   6.273   2.691   6.254 -1.0856  1.0361 -0.4813
  476MOL0     C64185   6.126   2.658   6.273  0.0743 -0.3948 -0.0035
  476MOL0     C64186   6.032   2.784   6.268 -0.4013 -0.0519  0.5557
  476MOL0     C64187   5.874   2.756   6.269 -0.0345 -0.0304  0.2759
  476MOL0     C64188   5.831   2.670   6.384  0.4723 -0.6046 -0.5703
  476MOL0     C64189   5.778   2.598   6.469 -0.5294  0.1169  0.0221
  476MOL0     C64190   6.467   2.963   6.398 -0.4403 -0.6895 -0.1208
  476MOL0     C64191   6.575   3.046   6.380 -0.4894  0.4623  0.5757
  476MOL0     C64192   6.581   3.182   6.427 -0.1600  0.6041 -0.0856
  476MOL0     H64193   7.102   2.864   6.396 -2.1109  1.3727  0.8905
  476MOL0     H64194   7.319   2.937   6.419 -1.1205 -1.7150 -0.2600
  476MOL0     H64195   7.534   3.121   6.430 -1.0339  0.9217 -0.0357
  476MOL0     H64196   7.525   2.973   6.344  0.1671  0.1428  1.0322
  476MOL0     H64197   7.658   3.201   6.228 -0.9504  0.7167  5.0950
  476MOL0     H64198   7.673   3.032   6.166 -0.0888  2.4272 -1.4584
  476MOL0     H64199   7.884   3.049   6.277  0.0893  1.1172  0.4220
  476MOL0     H64200   7.802   3.005   6.425 -2.1779  3.3216  3.0154
  476MOL0     H64201   7.849   3.288   6.338  1.6691 -2.7182 -1.6319
  476MOL0     H64202   7.733   3.252   6.468 -1.4456  0.8744 -1.6461
  476MOL0     H64203   7.900   3.140   6.596  1.3399  0.0286  1.0051
  476MOL0     H64204   8.010   3.156   6.456 -2.3875 -0.9573 -1.2018
  476MOL0     H64205   7.883   3.398   6.590 -0.7668 -0.4092 -0.1327
  476MOL0     H64206   8.032   3.320   6.647  3.1448 -1.6502 -2.2285
  476MOL0     H64207   7.959   3.457   6.390  1.2825 -0.2959 -1.5597
  476MOL0     H64208   8.105   3.355   6.393  1.8762 -0.3162  2.1757
  476MOL0     H64209   8.156   3.586   6.384  1.7899  2.7957  1.5501
  476MOL0     H64210   8.050   3.625   6.518  0.8793  0.3442 -0.1550
  476MOL0     H64211   8.117   3.516   6.759  1.7533  3.0962  3.0452
  476MOL0     H64212   8.310   3.503   6.962  2.0956 -0.8919  1.5495
  476MOL0     H64213   8.279   3.341   6.915 -2.7983  1.7971 -0.3804
  476MOL0     H64214   8.522   3.304   6.892 -3.7606 -0.0152 -2.3930
  476MOL0     H64215   8.544   3.478   6.872  0.9073 -0.0766  1.2144
  476MOL0     H64216   8.654   3.435   7.067  0.7639 -1.9174 -0.4896
  476MOL0     H64217   8.545   3.329   7.133 -0.5685  2.2352  3.1109
  476MOL0     H64218   8.379   3.509   7.174  0.5783 -1.1297  2.1823
  476MOL0     H64219   8.492   3.619   7.081 -1.7343 -0.4118  0.2434
  476MOL0     H64220   8.385   3.727   7.276  1.2398 -3.9126 -1.3279
  476MOL0     H64221   8.312   3.849   7.505  1.4759  1.4371 -1.4319
  476MOL0     H64222   8.140   4.004   7.855  0.0896 -0.5031  0.9364
  476MOL0     H64223   8.042   4.037   8.082 -0.3585 -0.0029 -1.0636
  476MOL0     H64224   7.931   3.957   8.419  2.4469 -2.3724  0.3592
  476MOL0     H64225   8.001   4.052   8.300 -1.3556  0.3550  4.9990
  476MOL0     H64226   7.757   4.048   8.268 -0.5770 -0.3518 -1.3325
  476MOL0     H64227   7.824   3.970   8.126 -2.2835  1.7778  0.1977
  476MOL0     H64228   7.765   3.761   8.196 -0.7959  0.9534 -1.3274
  476MOL0     H64229   7.680   3.824   8.345  0.5840  1.8735  0.7586
  476MOL0     H64230   7.623   3.872   8.049 -0.1696  0.5519  0.2401
  476MOL0     H64231   7.548   3.970   8.167  0.5212  0.9542 -1.6286
  476MOL0     H64232   7.379   3.793   8.110  1.5677  4.1270 -0.5476
  476MOL0     H64233   7.459   3.741   8.261  2.2220  0.1857  0.7895
  476MOL0     H64234   7.569   3.663   8.006  1.8829  3.2008  2.1424
  476MOL0     H64235   7.596   3.595   8.171 -0.4719  1.5768  0.8970
  476MOL0     H64236   7.466   3.464   7.992 -1.9454 -0.7267 -0.9143
  476MOL0     H64237   7.325   3.570   8.027  1.7068  1.0211 -2.9448
  476MOL0     H64238   7.463   3.422   8.255  1.0861  0.5904 -1.0639
  476MOL0     H64239   7.305   3.503   8.251  0.7461 -0.0134  0.3067
  476MOL0     H64240   8.142   3.627   8.181  2.2089  1.0673  1.9787
  476MOL0     H64241   8.224   3.590   7.954  1.8923  0.4486 -3.6456
  476MOL0     H64242   8.571   3.569   7.714 -1.2625 -4.1923 -0.5179
  476MOL0     H64243   8.639   3.484   7.489 -0.1006  0.0665  0.1024
  476MOL0     H64244   7.270   3.212   6.098  0.2857  0.4848  0.1115
  476MOL0     H64245   7.012   3.135   6.085 -0.7256 -0.0617 -1.5405
  476MOL0     H64246   6.756   2.782   6.225  2.7747 -0.0252  2.7671
  476MOL0     H64247   6.552   2.669   6.253 -0.6747 -0.3151  0.1023
  476MOL0     H64248   6.327   2.598   6.275  0.4904  2.1063  0.3778
  476MOL0     H64249   6.300   2.734   6.157  1.9316  0.5764  0.0505
  476MOL0     H64250   6.115   2.612   6.371 -1.3872  3.9143  2.1120
  476MOL0     H64251   6.092   2.585   6.198  2.0043 -0.9997 -0.3468
  476MOL0     H64252   6.061   2.844   6.182 -1.3001  2.6670  2.0289
  476MOL0     H64253   6.058   2.843   6.357 -1.1519  0.9841  0.1155
  476MOL0     H64254   5.817   2.849   6.271 -0.1142 -0.0641  2.5943
  476MOL0     H64255   5.849   2.708   6.174  1.6335  1.8469 -1.1976
  476MOL0     H64256   5.719   2.541   6.538 -2.0347  1.0411 -0.4481
  476MOL0     H64257   6.385   3.010   6.453 -1.6655  0.0541 -2.4596
  476MOL0     H64258   6.503   3.196   6.503 -0.4172  0.6944 -0.3612
  476MOL0     H64259   6.679   3.186   6.474 -0.3318  0.6911  0.2728
  476MOL0     H64260   6.579   3.254   6.345 -0.1689 -0.9959 -1.5440
  477MOL0     O64261   7.912  10.698   7.395 -0.0333  0.6195 -0.2504
  477MOL0     C64262   7.803  10.752   7.414  0.0087 -1.5804  0.3007
  477MOL0     O64263   7.751  10.789   7.539 -0.7444 -0.4553  0.1800
  477MOL0     C64264   7.818  10.779   7.660 -0.3895  0.6848  0.6023
  477MOL0     C64265   7.957  10.778   7.676  0.6124  0.0058 -0.3357
  477MOL0     C64266   8.013  10.775   7.804 -0.0538 -0.3024  0.4382
  477MOL0     C64267   7.923  10.784   7.919 -0.2554  0.0886  1.4887
  477MOL0     O64268   7.975  10.800   8.040 -0.9068 -0.0988  0.8974
  477MOL0     C64269   7.989  10.682   8.119 -0.8591 -0.1291  0.2316
  477MOL0     C64270   8.094  10.702   8.226 -0.8008  0.9509  0.2785
  477MOL0     C64271   8.230  10.724   8.155  1.2749 -0.4777 -0.4637
  477MOL0     C64272   8.349  10.753   8.245 -0.1590  0.0445  0.3828
  477MOL0     C64273   8.480  10.789   8.160  0.6515  0.0628  0.7179
  477MOL0     C64274   8.603  10.781   8.253 -0.6997 -0.1941  0.1938
  477MOL0     C64275   8.735  10.789   8.169 -0.2194 -0.1908 -0.3256
  477MOL0     C64276   8.849  10.801   8.272  0.7295  0.1105 -0.2976
  477MOL0     N64277   8.986  10.810   8.209  0.1615  0.4292  0.6214
  477MOL0     C64278   9.024  10.907   8.125  0.1338  0.2545  0.2236
  477MOL0     C64279   9.139  10.873   8.072  0.0100  0.2340  0.0249
  477MOL0     C64280   9.221  10.956   7.968  0.5511 -0.2092  0.7025
  477MOL0     C64281   9.305  11.050   8.053 -0.0140 -0.2891 -0.0283
  477MOL0     C64282   9.408  11.125   7.971  0.0730 -0.1041 -0.0489
  477MOL0     C64283   9.351  11.204   7.851 -0.1641 -0.8945 -0.2521
  477MOL0     O64284   9.457  11.293   7.802 -0.0095  1.0294  0.3675
  477MOL0     C64285   9.523  11.262   7.682  1.6019  0.6074  0.8882
  477MOL0     C64286   9.633  11.332   7.652  0.2210 -0.5024 -0.4738
  477MOL0     C64287   9.706  11.301   7.535 -0.2342 -0.2416 -0.1054
  477MOL0     C64288   9.657  11.207   7.436 -0.0833 -0.0862 -0.0755
  477MOL0     C64289   9.744  11.182   7.318  0.0556  0.3007  0.3695
  477MOL0     O64290   9.681  11.112   7.212  0.4286  0.4526 -0.3700
  477MOL0     C64291   9.761  11.070   7.109 -0.2571 -0.5817  0.4912
  477MOL0     C64292   9.764  11.148   6.986  0.3752 -0.4734  0.3548
  477MOL0     C64293   9.828  11.089   6.877  0.5721  0.2486 -0.7071
  477MOL0     C64294   9.912  10.982   6.885 -0.5255  0.2433  0.4502
  477MOL0     O64295  10.001  10.934   6.792 -0.2441  0.2789  0.4471
  477MOL0     C64296  10.109  11.011   6.734  0.2518 -0.1410 -0.5817
  477MOL0     C64297  10.107  10.987   6.582  0.3963 -0.1260 -0.4630
  477MOL0     C64298  10.148  10.840   6.536  1.6778 -0.9036  0.7725
  477MOL0     C64299  10.177  10.839   6.375  0.1272 -0.0179 -0.2691
  477MOL0     C64300  10.181  10.695   6.310  0.3015 -0.1673 -0.3002
  477MOL0     C64301  10.041  10.615   6.333 -0.0594  0.4371  1.0253
  477MOL0     C64302   9.914  10.695   6.315  0.9609  0.2816  0.3400
  477MOL0     C64303   9.875  10.747   6.176 -0.0111  0.6491 -0.0815
  477MOL0    Cl64304   9.733  10.855   6.196 -0.1218  0.1667  0.4211
  477MOL0     C64305   9.911  10.912   7.005 -0.4839 -0.3190 -0.1703
  477MOL0     C64306   9.829  10.949   7.112 -0.0003  0.4888 -0.1934
  477MOL0     O64307   9.864  11.206   7.337 -0.6354 -0.2311 -0.0101
  477MOL0     C64308   9.550  11.127   7.468 -0.4761 -0.2793 -0.0043
  477MOL0     C64309   9.482  11.156   7.587  1.2508  0.3231  0.6378
  477MOL0     N64310   9.181  10.751   8.136  0.6299  0.1468  0.7308
  477MOL0     N64311   9.087  10.718   8.219  0.0025  0.0188  0.2176
  477MOL0     C64312   7.784  10.791   7.897 -0.0184  0.0895 -0.2618
  477MOL0     C64313   7.734  10.783   7.765 -0.2448  0.2674 -0.9769
  477MOL0     C64314   7.721  10.786   7.291  0.0129 -0.2606  0.1575
  477MOL0     C64315   7.739  10.710   7.170  0.1323 -0.0264  0.2372
  477MOL0     C64316   7.668  10.728   7.051 -0.3529 -0.0330  0.0011
  477MOL0     C64317   7.566  10.825   7.051 -0.6227 -0.4153 -0.6890
  477MOL0     O64318   7.498  10.875   6.944  0.4251 -0.3269 -0.1944
  477MOL0     C64319   7.552  10.840   6.811  0.3604 -0.1667 -0.4252
  477MOL0     C64320   7.474  10.909   6.696  1.0531  0.2290  0.7355
  477MOL0     C64321   7.315  10.869   6.685 -0.3212 -0.3414 -0.6270
  477MOL0     C64322   7.304  10.771   6.565  0.8237  0.2727  0.2932
  477MOL0     C64323   7.365  10.646   6.590 -0.0108  0.6233  0.5206
  477MOL0     C64324   7.425  10.546   6.623 -0.3903 -0.1727  0.3030
  477MOL0     C64325   7.537  10.895   7.176 -0.1421 -0.5805 -0.4077
  477MOL0     C64326   7.616  10.881   7.292 -0.3743  0.0495 -0.5855
  477MOL0     C64327   7.578  10.978   7.403 -0.0258  0.1243  0.8355
  477MOL0     H64328   8.019  10.782   7.587  0.6824  3.0693 -0.2775
  477MOL0     H64329   8.119  10.763   7.825 -0.3403 -1.6283  1.2770
  477MOL0     H64330   7.888  10.654   8.149 -0.5736  0.8571  2.2390
  477MOL0     H64331   8.027  10.606   8.049 -3.8352  0.7310 -2.5763
  477MOL0     H64332   8.097  10.604   8.274 -3.9194 -0.3618 -1.8398
  477MOL0     H64333   8.070  10.787   8.290  1.7413  1.8810  0.0791
  477MOL0     H64334   8.215  10.808   8.085  0.5484  0.8468  1.2204
  477MOL0     H64335   8.261  10.633   8.102  3.0516 -1.2057  1.6839
  477MOL0     H64336   8.327  10.827   8.323  2.5894  3.2095 -1.5702
  477MOL0     H64337   8.368  10.658   8.297 -0.2897  0.2816  0.8696
  477MOL0     H64338   8.493  10.717   8.079 -2.2964 -0.4250  0.5884
  477MOL0     H64339   8.458  10.886   8.115  1.1406 -0.8605 -1.6735
  477MOL0     H64340   8.596  10.860   8.329  0.4088  0.5867 -0.4764
  477MOL0     H64341   8.617  10.685   8.303  3.1335 -0.8407 -1.7329
  477MOL0     H64342   8.737  10.879   8.107 -0.6638  1.1283  1.4633
  477MOL0     H64343   8.743  10.704   8.101  2.7248  0.6760 -1.1869
  477MOL0     H64344   8.831  10.897   8.323  0.8521 -0.0129 -0.0200
  477MOL0     H64345   8.839  10.730   8.355  3.0770  1.7386  1.5398
  477MOL0     H64346   8.971  10.998   8.098  1.2986  1.2258  1.0704
  477MOL0     H64347   9.283  10.899   7.898  1.2131  3.4651 -2.0198
  477MOL0     H64348   9.160  11.009   7.894 -0.3704 -4.1746 -1.6295
  477MOL0     H64349   9.237  11.120   8.103 -1.3522 -1.5789  0.0340
  477MOL0     H64350   9.357  10.995   8.132 -0.5317  0.6587  0.9941
  477MOL0     H64351   9.484  11.053   7.938 -1.7016 -3.4852  2.6153
  477MOL0     H64352   9.472  11.187   8.035 -0.9205  0.3116  0.5731
  477MOL0     H64353   9.278  11.275   7.892  2.2556  1.2049  0.6661
  477MOL0     H64354   9.306  11.146   7.770  1.1815 -0.4596 -1.3391
  477MOL0     H64355   9.658  11.409   7.724 -1.0877 -1.2170  0.7931
  477MOL0     H64356   9.792  11.364   7.517 -1.4100  1.5462  0.3496
  477MOL0     H64357   9.712  11.243   6.988  2.2742  0.6092  1.2350
  477MOL0     H64358   9.812  11.146   6.786 -2.7903  3.2743  1.4795
  477MOL0     H64359  10.108  11.117   6.759 -4.1875  0.3436 -1.9295
  477MOL0     H64360  10.207  10.980   6.772 -0.1561 -0.0328  0.5980
  477MOL0     H64361  10.010  11.005   6.534  0.5141  0.8536 -0.3515
  477MOL0     H64362  10.171  11.063   6.537  0.8559 -1.4426 -2.0935
  477MOL0     H64363  10.226  10.799   6.600 -0.9569 -4.4163  2.0539
  477MOL0     H64364  10.059  10.778   6.549  1.0965 -0.0218  1.1614
  477MOL0     H64365  10.264  10.897   6.343  0.6050 -1.5667 -1.9938
  477MOL0     H64366  10.101  10.896   6.319 -0.1327  0.8839  0.9670
  477MOL0     H64367  10.257  10.629   6.352  0.9845  1.5863  1.3855
  477MOL0     H64368  10.193  10.696   6.202 -0.5757 -1.3804 -0.4284
  477MOL0     H64369  10.048  10.526   6.269  1.8605  0.6172  0.9277
  477MOL0     H64370  10.041  10.578   6.436  0.4805  1.0363  1.2452
  477MOL0     H64371   9.903  10.779   6.384  3.4553  0.1041  1.0757
  477MOL0     H64372   9.830  10.634   6.349  0.0830 -0.2535 -2.5648
  477MOL0     H64373   9.960  10.798   6.128  2.1463 -1.6744  1.0746
  477MOL0     H64374   9.843  10.665   6.112  1.9364  0.0156 -0.3239
  477MOL0     H64375   9.969  10.821   7.010  0.6247  0.3535 -0.3811
  477MOL0     H64376   9.828  10.884   7.199 -1.4139  0.8171  0.0663
  477MOL0     H64377   9.536  11.041   7.404  2.7020 -0.2652 -0.8899
  477MOL0     H64378   9.395  11.092   7.601  1.3086 -0.1260 -0.8580
  477MOL0     H64379   7.722  10.778   7.985  3.1905 -2.0997  1.8959
  477MOL0     H64380   7.626  10.781   7.754 -0.1882 -0.4568 -1.4295
  477MOL0     H64381   7.817  10.634   7.168  0.2401  0.0987 -0.6550
  477MOL0     H64382   7.677  10.677   6.955 -5.2094 -0.5289 -0.4408
  477MOL0     H64383   7.542  10.732   6.795  2.2372  0.0794 -4.4775
  477MOL0     H64384   7.656  10.871   6.802 -0.3807  1.8666 -4.8307
  477MOL0     H64385   7.522  10.883   6.601 -0.3275  0.7571 -0.1310
  477MOL0     H64386   7.486  11.016   6.710  0.4405  0.0734  2.8154
  477MOL0     H64387   7.252  10.955   6.657  0.2417 -0.5391 -2.6975
  477MOL0     H64388   7.286  10.829   6.782 -1.9968  2.5854  0.2130
  477MOL0     H64389   7.196  10.762   6.550  0.4696  2.4829  1.1401
  477MOL0     H64390   7.345  10.809   6.471 -2.0601 -0.4423 -1.3832
  477MOL0     H64391   7.494  10.464   6.632 -0.7092 -0.5024 -0.2281
  477MOL0     H64392   7.461  10.972   7.177  0.8414  0.4288  0.8606
  477MOL0     H64393   7.666  11.020   7.452  0.5471  0.1902 -0.2232
  477MOL0     H64394   7.531  11.069   7.365 -1.7323 -1.4557 -1.0368
  477MOL0     H64395   7.500  10.945   7.473 -0.4136  5.1885  3.2078
  478MOL0     O64396   8.713   7.447   4.963  0.7811  0.9069  0.2244
  478MOL0     C64397   8.593   7.446   4.998  0.1004 -0.2997  0.6295
  478MOL0     O64398   8.553   7.485   5.119  0.8190  0.0862  0.2768
  478MOL0     C64399   8.629   7.500   5.233 -0.8396 -0.2071  1.3859
  478MOL0     C64400   8.737   7.420   5.268  0.4435 -0.1867 -0.5539
  478MOL0     C64401   8.806   7.452   5.385  0.9348 -0.7026 -0.2422
  478MOL0     C64402   8.769   7.551   5.475  0.4828 -0.3073 -0.3373
  478MOL0     O64403   8.857   7.565   5.580 -0.0237  0.5743  0.2279
  478MOL0     C64404   8.809   7.646   5.690  0.0125 -0.0380 -0.7124
  478MOL0     C64405   8.886   7.599   5.827 -0.1728 -1.3082 -0.2719
  478MOL0     C64406   9.027   7.655   5.827 -1.0847 -0.1190 -0.0205
  478MOL0     C64407   9.109   7.616   5.701  0.1095  0.0387  0.0701
  478MOL0     C64408   9.252   7.657   5.726 -0.2626  0.6619 -0.3699
  478MOL0     C64409   9.339   7.636   5.600  0.4575  0.1669  0.9792
  478MOL0     C64410   9.493   7.637   5.628 -0.0126  0.7206  1.4407
  478MOL0     C64411   9.529   7.519   5.727  0.5069  0.0292  0.0272
  478MOL0     N64412   9.572   7.551   5.865 -0.7115 -0.2208 -0.1920
  478MOL0     C64413   9.696   7.599   5.914  0.3006  0.9769 -1.1587
  478MOL0     C64414   9.676   7.603   6.051 -0.5864  0.3535  0.5814
  478MOL0     C64415   9.778   7.652   6.143 -0.4758 -1.4942 -0.4804
  478MOL0     C64416   9.920   7.595   6.107 -0.1105  0.7729 -0.6449
  478MOL0     C64417   9.996   7.579   6.243  1.1966 -0.6361  0.3316
  478MOL0     C64418  10.126   7.514   6.214 -0.3290 -0.0834  0.9910
  478MOL0     O64419  10.193   7.473   6.331 -0.1180  0.0053  0.5458
  478MOL0     C64420  10.316   7.408   6.313  0.0992  0.0627 -0.6602
  478MOL0     C64421  10.372   7.342   6.429 -0.2927 -0.7172  0.0025
  478MOL0     C64422  10.507   7.303   6.418  0.2673  0.1024 -0.1878
  478MOL0     C64423  10.589   7.317   6.304  1.3502  0.2347  0.9013
  478MOL0     C64424  10.732   7.279   6.304 -0.3771 -0.1071 -0.4900
  478MOL0     O64425  10.792   7.268   6.429 -0.4958 -0.1057  0.4485
  478MOL0     C64426  10.925   7.241   6.424  0.0634 -0.3985 -0.3648
  478MOL0     C64427  10.965   7.122   6.486 -0.0181 -0.4575 -0.5341
  478MOL0     C64428  11.096   7.077   6.500 -0.0548 -0.4620  0.7827
  478MOL0     C64429  11.195   7.163   6.456 -0.0869 -0.9491 -0.2485
  478MOL0     O64430  11.327   7.138   6.494 -0.4145 -0.1613 -1.0035
  478MOL0     C64431  11.435   7.226   6.486 -0.0560  0.4787 -0.5230
  478MOL0     C64432  11.561   7.174   6.554 -1.0663 -0.3032 -0.1670
  478MOL0     C64433  11.603   7.030   6.520  0.2745 -0.0914 -0.6137
  478MOL0     C64434  11.717   6.976   6.603 -0.7222 -0.1688 -0.7443
  478MOL0     C64435  11.802   6.876   6.531 -0.7599 -1.3312  1.1946
  478MOL0     C64436  11.920   6.853   6.625 -0.6091 -0.3515  0.0080
  478MOL0     C64437  12.023   6.754   6.565 -0.2688  0.4761 -0.4962
  478MOL0     C64438  12.121   6.682   6.663 -0.3192  0.1607  0.4690
  478MOL0    Cl64439  12.219   6.785   6.783 -0.3777 -0.8149 -0.0966
  478MOL0     C64440  11.166   7.284   6.389  0.2744 -0.7029 -0.2016
  478MOL0     C64441  11.030   7.325   6.371  1.0392 -0.5524  0.1021
  478MOL0     O64442  10.786   7.273   6.195  0.2859 -0.2915 -0.1905
  478MOL0     C64443  10.521   7.375   6.194 -0.5496 -0.4238  0.9144
  478MOL0     C64444  10.387   7.410   6.198 -0.4050 -0.3169 -0.3210
  478MOL0     N64445   9.555   7.569   6.076 -0.3906  0.6185  0.3132
  478MOL0     N64446   9.492   7.536   5.969  0.6188 -0.7451 -0.3977
  478MOL0     C64447   8.655   7.622   5.449  0.3326  0.5306 -0.1573
  478MOL0     C64448   8.594   7.598   5.327 -0.3074  0.1469  0.1361
  478MOL0     C64449   8.494   7.401   4.899 -0.5233 -0.6530  0.4781
  478MOL0     C64450   8.544   7.391   4.768  0.6055 -0.5741  0.1466
  478MOL0     C64451   8.455   7.355   4.664  0.0234  0.1759 -0.1964
  478MOL0     C64452   8.325   7.322   4.689  0.1485  0.3631 -0.6055
  478MOL0     O64453   8.247   7.280   4.578  0.0562 -0.6090  0.1059
  478MOL0     C64454   8.113   7.233   4.599  0.0111  0.0663 -0.0043
  478MOL0     C64455   8.036   7.232   4.462  0.2005  0.1746 -0.2500
  478MOL0     C64456   7.894   7.202   4.499  0.1782 -0.4768  0.0808
  478MOL0     C64457   7.861   7.058   4.527  0.3839  0.0220  0.4008
  478MOL0     C64458   7.721   7.025   4.554  0.4282 -0.4709 -0.5173
  478MOL0     C64459   7.605   7.002   4.594 -0.2928 -0.1293 -0.1753
  478MOL0     C64460   8.272   7.331   4.821 -0.9417 -0.2246  0.1207
  478MOL0     C64461   8.363   7.359   4.921 -0.0419 -0.2689 -0.6611
  478MOL0     C64462   8.319   7.318   5.063  0.1905  0.0967  0.1833
  478MOL0     H64463   8.774   7.331   5.216  0.6048 -2.9005  3.7277
  478MOL0     H64464   8.896   7.393   5.402  0.7114 -0.3357  2.6342
  478MOL0     H64465   8.812   7.754   5.676  1.6661  0.4104  2.2790
  478MOL0     H64466   8.711   7.606   5.715  0.9731 -1.7813  0.4541
  478MOL0     H64467   8.877   7.491   5.837 -3.8237 -1.1522 -0.7782
  478MOL0     H64468   8.829   7.648   5.906 -1.7834  0.8915 -2.6354
  478MOL0     H64469   9.076   7.608   5.913 -0.2554 -1.2917 -1.0853
  478MOL0     H64470   9.003   7.761   5.830 -4.0827 -0.7386  1.0656
  478MOL0     H64471   9.102   7.509   5.682  2.8434 -0.7750  2.8030
  478MOL0     H64472   9.069   7.670   5.615  0.8283 -0.7524 -0.7750
  478MOL0     H64473   9.258   7.766   5.738 -1.3098  0.9455 -2.1364
  478MOL0     H64474   9.297   7.601   5.809 -0.6339  0.0988 -0.5426
  478MOL0     H64475   9.301   7.549   5.546 -3.9065  0.8502  2.5384
  478MOL0     H64476   9.315   7.704   5.517 -3.5877 -3.3115 -1.1007
  478MOL0     H64477   9.527   7.733   5.669  2.1682  0.4235  0.4285
  478MOL0     H64478   9.547   7.617   5.535 -2.2275 -0.3024  0.3065
  478MOL0     H64479   9.442   7.453   5.729  0.1625  0.4661 -0.2020
  478MOL0     H64480   9.614   7.469   5.680  1.7096  1.7917  0.1986
  478MOL0     H64481   9.793   7.616   5.867  1.3498 -2.0364 -0.3017
  478MOL0     H64482   9.791   7.759   6.128 -2.1184 -1.4218 -1.5324
  478MOL0     H64483   9.748   7.624   6.244  0.8896 -0.1380  0.3432
  478MOL0     H64484   9.895   7.502   6.055 -0.2901  1.2344 -1.3909
  478MOL0     H64485   9.967   7.669   6.042 -0.8638  2.4066  0.5883
  478MOL0     H64486   9.927   7.523   6.307 -0.3407  1.8972  1.0353
  478MOL0     H64487  10.008   7.680   6.282 -1.6436  0.6912 -1.8160
  478MOL0     H64488  10.199   7.571   6.155 -0.2622 -2.6145 -1.6336
  478MOL0     H64489  10.113   7.423   6.154  1.5406 -0.3012  0.8379
  478MOL0     H64490  10.319   7.334   6.523  0.1155  2.6707  0.6413
  478MOL0     H64491  10.547   7.260   6.510 -1.0161 -1.1171 -0.1734
  478MOL0     H64492  10.892   7.049   6.519  1.4394 -1.9170 -0.3772
  478MOL0     H64493  11.123   6.985   6.551 -1.6767 -0.1756  2.2626
  478MOL0     H64494  11.460   7.212   6.380  0.0113 -0.0549 -0.4413
  478MOL0     H64495  11.414   7.327   6.522 -1.6109 -0.6382  1.9724
  478MOL0     H64496  11.648   7.236   6.530 -0.3168 -1.2131  0.1601
  478MOL0     H64497  11.543   7.183   6.662  0.3253 -0.0901  0.0591
  478MOL0     H64498  11.519   6.961   6.536  1.6604 -1.6919 -0.0284
  478MOL0     H64499  11.624   7.027   6.412 -1.3538  1.7254 -1.0337
  478MOL0     H64500  11.680   6.927   6.693 -1.1615  0.1091 -0.7732
  478MOL0     H64501  11.782   7.060   6.629  1.7151 -2.2833  0.5242
  478MOL0     H64502  11.842   6.925   6.441  1.3455 -0.4353  2.5277
  478MOL0     H64503  11.761   6.777   6.509 -0.2468 -1.3696  0.3430
  478MOL0     H64504  11.967   6.940   6.672  3.0394 -1.7895 -0.6453
  478MOL0     H64505  11.882   6.800   6.712 -2.8395  1.0154 -0.0354
  478MOL0     H64506  12.076   6.807   6.485  0.8122  1.0021  0.5369
  478MOL0     H64507  11.972   6.674   6.510 -1.8690  2.4841 -2.1174
  478MOL0     H64508  12.061   6.615   6.725  1.4460 -1.1275  0.8761
  478MOL0     H64509  12.191   6.622   6.604 -1.0845  1.5502 -2.0045
  478MOL0     H64510  11.246   7.351   6.358 -1.0073 -0.4916 -3.3870
  478MOL0     H64511  11.009   7.416   6.314  3.2418 -2.0816 -3.5036
  478MOL0     H64512  10.569   7.398   6.099  0.1776  0.9959  1.5899
  478MOL0     H64513  10.345   7.448   6.105  0.5155  0.0986 -0.5778
  478MOL0     H64514   8.614   7.693   5.520  2.2864  3.3035 -1.6232
  478MOL0     H64515   8.509   7.665   5.323  1.6096  2.7096 -3.0349
  478MOL0     H64516   8.647   7.411   4.741 -0.2389  1.9142 -1.5424
  478MOL0     H64517   8.488   7.327   4.564 -1.6856 -0.7193 -0.5669
  478MOL0     H64518   8.058   7.294   4.671 -2.8318 -1.0358 -1.0808
  478MOL0     H64519   8.122   7.131   4.636  2.7667  0.8606  1.7882
  478MOL0     H64520   8.073   7.156   4.393 -1.3756  0.1281 -1.0934
  478MOL0     H64521   8.049   7.334   4.424 -1.3300  1.1082  1.5727
  478MOL0     H64522   7.830   7.235   4.416  1.7956  2.8769 -0.0155
  478MOL0     H64523   7.866   7.257   4.589 -1.0510  0.6149 -0.9061
  478MOL0     H64524   7.907   6.994   4.451 -0.2792  0.8535 -0.7406
  478MOL0     H64525   7.912   7.039   4.622  2.0521  1.9433 -0.0499
  478MOL0     H64526   7.504   6.995   4.628 -0.8750  3.2087 -0.8862
  478MOL0     H64527   8.170   7.302   4.839 -1.2030 -0.2603 -1.3188
  478MOL0     H64528   8.402   7.293   5.129  0.5880  4.4265  1.6500
  478MOL0     H64529   8.260   7.400   5.107 -2.2557 -0.6440 -1.4996
  478MOL0     H64530   8.265   7.225   5.042 -1.1132  1.2162 -1.7724
  479MOL0     O64531   0.886   7.470   9.941  0.3439  0.6758  0.1356
  479MOL0     C64532   0.935   7.572   9.890  0.3883 -0.7787  0.0387
  479MOL0     O64533   0.881   7.638   9.779  0.8272  0.0073  0.2925
  479MOL0     C64534   0.788   7.568   9.706 -1.0364  0.2373 -0.3923
  479MOL0     C64535   0.656   7.621   9.712  0.3174  0.7406  0.1760
  479MOL0     C64536   0.552   7.549   9.636  0.5818 -0.6885 -0.1420
  479MOL0     C64537   0.583   7.430   9.570 -0.2840 -0.1816  0.6886
  479MOL0     O64538   0.495   7.359   9.494 -0.4132 -0.3344 -1.2988
  479MOL0     C64539   0.368   7.428   9.448 -1.2420 -0.2466  0.9464
  479MOL0     C64540   0.294   7.343   9.342  0.4895  0.6269  0.0557
  479MOL0     C64541   0.168   7.411   9.304 -0.0158 -0.3247 -0.5303
  479MOL0     C64542   0.100   7.347   9.183 -0.4166 -0.8822  0.3821
  479MOL0     C64543  -0.027   7.423   9.147  1.7497  0.9339  0.4410
  479MOL0     C64544  -0.079   7.377   9.012 -0.6955 -0.1622  0.4123
  479MOL0     C64545  -0.199   7.452   8.961 -0.0440 -0.0074  0.0913
  479MOL0     C64546  -0.171   7.598   8.927  0.6367 -0.2346  0.4473
  479MOL0     N64547  -0.281   7.680   8.879  0.8974  0.8434  0.0183
  479MOL0     C64548  -0.371   7.638   8.781  0.8754 -0.0333 -0.7828
  479MOL0     C64549  -0.428   7.758   8.742 -0.3491  0.2731  0.5288
  479MOL0     C64550  -0.542   7.803   8.654 -0.0590  0.1309 -0.0366
  479MOL0     C64551  -0.532   7.703   8.536 -0.6427 -0.9648 -0.6703
  479MOL0     C64552  -0.600   7.560   8.562 -0.9452 -0.3904  0.0837
  479MOL0     C64553  -0.588   7.472   8.436  1.0276 -0.5395  0.0043
  479MOL0     O64554  -0.454   7.448   8.394 -0.1325 -0.7415 -0.2196
  479MOL0     C64555  -0.352   7.390   8.474 -0.1060  0.1031  0.8226
  479MOL0     C64556  -0.221   7.428   8.447 -0.1977 -0.0040 -0.2716
  479MOL0     C64557  -0.113   7.361   8.512  0.6877 -0.1370  0.0750
  479MOL0     C64558  -0.135   7.261   8.612 -0.4593 -0.2203 -1.6498
  479MOL0     C64559  -0.033   7.186   8.690 -0.6383 -0.6129 -0.3634
  479MOL0     O64560   0.092   7.230   8.679 -0.3361 -0.0821  0.0280
  479MOL0     C64561   0.198   7.191   8.754  0.1294  0.5950 -0.0675
  479MOL0     C64562   0.206   7.070   8.830 -0.5034  0.0544 -0.0471
  479MOL0     C64563   0.326   7.034   8.890 -0.3577 -0.5274 -0.4086
  479MOL0     C64564   0.439   7.121   8.879  1.0652 -0.5343  0.1734
  479MOL0     O64565   0.558   7.098   8.932 -0.3153  0.3109  0.0095
  479MOL0     C64566   0.546   7.072   9.073 -0.2131  0.3229  0.1826
  479MOL0     C64567   0.684   7.076   9.143 -0.2985  0.5118  0.0971
  479MOL0     C64568   0.767   7.197   9.102  0.8699  0.0239 -0.6616
  479MOL0     C64569   0.860   7.224   9.209 -0.5267  0.7707 -0.1054
  479MOL0     C64570   1.004   7.166   9.190  1.3690 -0.2634 -0.2862
  479MOL0     C64571   1.095   7.198   9.304 -0.1617 -0.9185 -0.5439
  479MOL0     C64572   1.141   7.342   9.307  0.2012 -0.4950 -0.2963
  479MOL0     C64573   1.261   7.374   9.221  0.7839 -0.4695  0.0436
  479MOL0    Cl64574   1.397   7.269   9.281 -0.0759 -0.3374  0.0546
  479MOL0     C64575   0.426   7.242   8.806 -0.3607 -0.3292 -0.4237
  479MOL0     C64576   0.306   7.270   8.745  0.5710 -0.0664  0.1826
  479MOL0     O64577  -0.072   7.094   8.764 -0.4678 -0.4887  0.0355
  479MOL0     C64578  -0.269   7.218   8.624  0.8231 -0.1538 -0.4222
  479MOL0     C64579  -0.379   7.283   8.562  0.0888  0.1137  0.1600
  479MOL0     N64580  -0.373   7.856   8.816  0.2530 -0.4017  0.1101
  479MOL0     N64581  -0.289   7.814   8.897  0.3628  0.9319  0.7219
  479MOL0     C64582   0.712   7.381   9.568 -0.2544 -0.4443  0.7494
  479MOL0     C64583   0.816   7.454   9.630  0.5101  0.1147 -0.5495
  479MOL0     C64584   1.054   7.630   9.958 -1.0544  0.0021 -0.3096
  479MOL0     C64585   1.035   7.768   9.973  0.5955 -0.1764 -0.0728
  479MOL0     C64586   1.129   7.845  10.040  0.3986 -0.5428 -0.1498
  479MOL0     C64587   1.244   7.792  10.103 -0.3495  0.1483  0.2701
  479MOL0     O64588   1.333   7.877  10.172 -0.8192 -0.0851  0.0257
  479MOL0     C64589   1.462   7.841  10.220 -0.3157 -0.4179  0.2395
  479MOL0     C64590   1.565   7.936  10.162 -0.0278  0.7352 -0.1688
  479MOL0     C64591   1.553   8.083  10.215  0.1033  0.3670 -0.4475
  479MOL0     C64592   1.689   8.156  10.213 -0.0857 -0.4381 -0.4936
  479MOL0     C64593   1.782   8.078  10.297  0.5027  0.2335  0.2186
  479MOL0     C64594   1.851   8.000  10.368 -0.2745 -0.4786  0.0587
  479MOL0     C64595   1.259   7.657  10.088 -0.8156 -0.3220 -0.4245
  479MOL0     C64596   1.168   7.570  10.019  0.3582 -0.6049 -0.1972
  479MOL0     C64597   1.192   7.424  10.025 -0.5690 -0.1372  0.4565
  479MOL0     H64598   0.633   7.710   9.769  1.1077  0.9924  0.1203
  479MOL0     H64599   0.449   7.581   9.631  1.1507  1.4217  0.5747
  479MOL0     H64600   0.303   7.438   9.535 -1.4396  4.1362  0.4895
  479MOL0     H64601   0.385   7.526   9.403 -1.6854  0.1397  1.6130
  479MOL0     H64602   0.275   7.243   9.383  1.3348  0.1856 -0.5965
  479MOL0     H64603   0.350   7.311   9.253 -2.1710 -0.4702 -1.3162
  479MOL0     H64604   0.188   7.517   9.284  2.1360 -0.6101 -0.1143
  479MOL0     H64605   0.101   7.409   9.391  0.9728 -0.6913  0.2390
  479MOL0     H64606   0.181   7.347   9.109  0.2857  0.7801  1.1021
  479MOL0     H64607   0.075   7.243   9.204  0.0682 -1.0577  0.1184
  479MOL0     H64608  -0.115   7.403   9.209 -1.4635 -1.6131 -4.2778
  479MOL0     H64609   0.001   7.529   9.137 -0.7442  1.5872 -0.5287
  479MOL0     H64610  -0.002   7.379   8.934 -2.1541 -2.5817 -1.2270
  479MOL0     H64611  -0.123   7.278   9.027 -1.9166  0.4760  1.1326
  479MOL0     H64612  -0.282   7.444   9.032 -0.8046 -1.0789 -0.8754
  479MOL0     H64613  -0.232   7.397   8.873  1.0828 -3.3106  1.5699
  479MOL0     H64614  -0.124   7.641   9.016  0.7419 -0.0008  0.2773
  479MOL0     H64615  -0.106   7.597   8.839 -1.9651  1.4164 -1.6406
  479MOL0     H64616  -0.388   7.539   8.741 -0.6914  1.4044 -4.0262
  479MOL0     H64617  -0.639   7.806   8.704 -0.3677 -0.6303 -0.5642
  479MOL0     H64618  -0.531   7.907   8.619 -0.2660  0.6644  1.4182
  479MOL0     H64619  -0.578   7.755   8.451 -0.4197  1.2245  0.4985
  479MOL0     H64620  -0.425   7.682   8.529  0.5120  2.9993  2.0675
  479MOL0     H64621  -0.706   7.567   8.587 -0.3065 -0.3648  3.0994
  479MOL0     H64622  -0.552   7.507   8.645 -0.9160 -3.1322 -1.5393
  479MOL0     H64623  -0.645   7.517   8.355  1.3932 -0.5643 -0.2712
  479MOL0     H64624  -0.636   7.375   8.452  0.9818 -0.4666  0.3282
  479MOL0     H64625  -0.216   7.511   8.377 -1.8592  0.7835  0.4849
  479MOL0     H64626  -0.011   7.393   8.491  0.3470  0.7752 -0.1885
  479MOL0     H64627   0.134   6.989   8.839  1.3092 -1.4187  3.0431
  479MOL0     H64628   0.338   6.946   8.953  0.3125 -1.3297 -1.5930
  479MOL0     H64629   0.492   7.156   9.115  1.2440  0.1495  2.6432
  479MOL0     H64630   0.498   6.980   9.107  2.1830  0.0842  3.4437
  479MOL0     H64631   0.661   7.073   9.249 -1.8140 -1.7649 -0.2075
  479MOL0     H64632   0.748   6.990   9.118  0.2342  1.3864 -1.7176
  479MOL0     H64633   0.818   7.177   9.007  0.8315  0.3020 -0.7401
  479MOL0     H64634   0.700   7.282   9.090  2.1376  0.7766 -3.1285
  479MOL0     H64635   0.821   7.199   9.308 -1.1184  2.4012  0.1068
  479MOL0     H64636   0.872   7.332   9.213  2.8198  0.4878  2.0123
  479MOL0     H64637   1.049   7.196   9.094  1.4182  0.6393  0.0098
  479MOL0     H64638   1.000   7.057   9.185 -0.8146 -0.2517 -0.0162
  479MOL0     H64639   1.048   7.174   9.400 -0.0076 -2.8234 -0.8896
  479MOL0     H64640   1.183   7.132   9.298  0.9489 -0.4062  4.7914
  479MOL0     H64641   1.165   7.363   9.412  0.8120  2.8007 -0.9785
  479MOL0     H64642   1.054   7.405   9.286  1.5180  2.3127  1.9294
  479MOL0     H64643   1.231   7.350   9.118  0.6785  0.3367 -0.1235
  479MOL0     H64644   1.299   7.477   9.226 -0.9833  0.2191  0.2222
  479MOL0     H64645   0.511   7.308   8.793 -2.2641  2.3876 -0.1744
  479MOL0     H64646   0.288   7.360   8.687  1.7936  0.3293  0.3719
  479MOL0     H64647  -0.305   7.136   8.686 -4.7018  2.1578  0.0509
  479MOL0     H64648  -0.478   7.245   8.584  0.6816 -0.1802  2.5634
  479MOL0     H64649   0.744   7.297   9.507  2.4003 -0.5129  2.0795
  479MOL0     H64650   0.914   7.406   9.625 -0.0679 -1.0245 -1.4586
  479MOL0     H64651   0.957   7.834   9.935  1.0005  1.3867  1.6515
  479MOL0     H64652   1.121   7.954  10.043 -0.1710 -0.5724 -0.4590
  479MOL0     H64653   1.483   7.736  10.198 -1.9171 -0.8022  0.4031
  479MOL0     H64654   1.472   7.842  10.329 -0.9198 -1.3109  0.3163
  479MOL0     H64655   1.541   7.922  10.056 -0.5318 -1.6563  0.2154
  479MOL0     H64656   1.665   7.894  10.176 -1.1673 -1.4161  2.2362
  479MOL0     H64657   1.533   8.070  10.322  0.1212  1.2464 -0.3305
  479MOL0     H64658   1.477   8.139  10.160 -0.9161 -1.9188 -1.5001
  479MOL0     H64659   1.722   8.170  10.110  0.2419 -0.0373 -0.3410
  479MOL0     H64660   1.679   8.256  10.257  0.2773 -1.3156  1.7390
  479MOL0     H64661   1.915   7.951  10.439  0.7595  2.1510  1.0821
  479MOL0     H64662   1.349   7.606  10.120 -0.5749 -1.4061 -2.6483
  479MOL0     H64663   1.271   7.391   9.956 -0.3454 -1.9616  1.4991
  479MOL0     H64664   1.220   7.389  10.124 -1.4741  0.7601  1.0431
  479MOL0     H64665   1.107   7.362   9.993  0.0078  0.6651 -3.0185
  480MOL0     O64666   0.773   0.911   0.556 -0.3259 -0.4181 -0.1748
  480MOL0     C64667   0.675   0.984   0.567 -0.1201 -0.3128  0.0011
  480MOL0     O64668   0.677   1.119   0.569 -0.1115 -0.4083  0.2058
  480MOL0     C64669   0.782   1.168   0.641 -0.2980  0.2677 -0.4138
  480MOL0     C64670   0.795   1.151   0.777 -0.1491  0.0463  0.1071
  480MOL0     C64671   0.909   1.180   0.848 -0.6466  0.9465 -0.8838
  480MOL0     C64672   1.016   1.253   0.797  0.4606  0.5037 -0.8219
  480MOL0     O64673   1.123   1.277   0.878 -1.0725 -0.6429  0.3612
  480MOL0     C64674   1.224   1.378   0.839 -0.7580 -0.7493 -0.0674
  480MOL0     C64675   1.315   1.416   0.957 -0.5379 -0.3495  0.3480
  480MOL0     C64676   1.268   1.503   1.079 -0.0878  1.3558 -0.1756
  480MOL0     C64677   1.113   1.469   1.116 -1.0772  0.4506  1.0878
  480MOL0     C64678   1.057   1.557   1.238 -0.6874  0.6116  0.5075
  480MOL0     C64679   0.902   1.543   1.259 -0.4094  0.2375  0.3128
  480MOL0     C64680   0.851   1.405   1.298 -1.0787  0.0988  0.3088
  480MOL0     C64681   0.722   1.401   1.380 -0.5074 -0.0692 -0.8216
  480MOL0     N64682   0.626   1.494   1.327 -0.6259  0.2872  0.3159
  480MOL0     C64683   0.581   1.509   1.198 -0.0494 -0.4209 -0.3518
  480MOL0     C64684   0.486   1.609   1.202 -0.3648 -0.0650  1.0392
  480MOL0     C64685   0.383   1.654   1.107 -0.5892  0.2216  0.2674
  480MOL0     C64686   0.450   1.744   0.992  0.0243 -0.3180 -0.8033
  480MOL0     C64687   0.332   1.808   0.905 -0.2551  0.1028  0.5967
  480MOL0     C64688   0.372   1.912   0.799 -0.4136  0.0685  0.9275
  480MOL0     O64689   0.467   1.857   0.706  0.2324 -0.3304  0.4320
  480MOL0     C64690   0.544   1.939   0.620  0.1698  0.1558 -0.9733
  480MOL0     C64691   0.621   1.874   0.524 -0.0896 -0.4574  0.8513
  480MOL0     C64692   0.717   1.939   0.446 -0.9240 -0.3900  1.1676
  480MOL0     C64693   0.723   2.076   0.453  0.3742 -1.1183  0.9210
  480MOL0     C64694   0.819   2.145   0.367  0.9777  1.4664  0.3477
  480MOL0     O64695   0.875   2.266   0.419  0.1735  0.0858  0.4065
  480MOL0     C64696   0.972   2.321   0.344 -1.2133  0.9004  0.1445
  480MOL0     C64697   1.097   2.343   0.405 -0.2695  0.5417  0.8808
  480MOL0     C64698   1.195   2.413   0.332 -0.2941 -0.7245  0.4875
  480MOL0     C64699   1.167   2.459   0.201 -0.1110  0.0103 -1.0208
  480MOL0     O64700   1.271   2.527   0.144 -1.0268  0.2443  0.4886
  480MOL0     C64701   1.302   2.514   0.007 -0.1590  0.0838 -0.0264
  480MOL0     C64702   1.429   2.600  -0.021 -0.2900 -0.4442 -0.0127
  480MOL0     C64703   1.530   2.505  -0.089 -0.7944 -1.5258 -1.0525
  480MOL0     C64704   1.661   2.569  -0.144 -0.4684 -0.2200 -0.5918
  480MOL0     C64705   1.745   2.464  -0.200 -0.0065 -0.1089 -0.0126
  480MOL0     C64706   1.880   2.514  -0.258  0.4544  0.5938  0.2904
  480MOL0     C64707   1.974   2.398  -0.279 -1.1990 -0.8299 -0.1212
  480MOL0     C64708   2.057   2.370  -0.149  0.2608 -0.1470 -1.3187
  480MOL0    Cl64709   2.188   2.481  -0.116  0.3440 -0.1625 -0.3938
  480MOL0     C64710   1.040   2.441   0.139  0.3341  0.5258 -0.5329
  480MOL0     C64711   0.946   2.367   0.216 -0.8138 -0.3540  0.0571
  480MOL0     O64712   0.843   2.098   0.260  0.6360  0.3177  0.3491
  480MOL0     C64713   0.654   2.148   0.548  0.0890  0.2419  0.2889
  480MOL0     C64714   0.553   2.078   0.631 -0.8959 -0.5490  0.2403
  480MOL0     N64715   0.496   1.669   1.329 -0.3379  0.6216 -0.6116
  480MOL0     N64716   0.573   1.591   1.407  0.0787  0.0096  0.1847
  480MOL0     C64717   1.004   1.277   0.661 -0.5962 -0.5697  0.0595
  480MOL0     C64718   0.891   1.244   0.583  0.4379 -0.3677 -0.5331
  480MOL0     C64719   0.540   0.912   0.541 -0.3463  0.3769 -0.3634
  480MOL0     C64720   0.430   0.993   0.536  0.1440 -0.1589  0.6158
  480MOL0     C64721   0.304   0.936   0.500 -1.0227  0.4270 -0.6207
  480MOL0     C64722   0.287   0.799   0.471  0.0219 -0.3331 -0.8268
  480MOL0     O64723   0.160   0.752   0.443 -0.0071  0.0547 -0.0876
  480MOL0     C64724   0.137   0.608   0.455 -0.8775  0.6995  0.1339
  480MOL0     C64725  -0.006   0.583   0.439 -0.1315  0.3169  0.6014
  480MOL0     C64726  -0.084   0.597   0.556  0.3509  0.5892 -0.5022
  480MOL0     C64727  -0.222   0.565   0.518 -0.1408 -0.1064 -0.0458
  480MOL0     C64728  -0.314   0.572   0.634  0.4932 -0.0766 -0.1749
  480MOL0     C64729  -0.400   0.585   0.719 -0.3235  0.2264 -0.3463
  480MOL0     C64730   0.396   0.720   0.484 -0.2275  1.3664 -0.2105
  480MOL0     C64731   0.525   0.775   0.522  0.2597  0.0905  0.0834
  480MOL0     C64732   0.636   0.677   0.535  0.2522 -0.4567 -0.5284
  480MOL0     H64733   0.726   1.085   0.830 -1.1283  0.2868 -0.8240
  480MOL0     H64734   0.907   1.172   0.956  1.2940 -2.3582 -0.9521
  480MOL0     H64735   1.297   1.326   0.776  0.8531  0.0604  1.0730
  480MOL0     H64736   1.179   1.467   0.794  2.3640  0.9618 -0.1176
  480MOL0     H64737   1.392   1.475   0.906 -1.9127 -1.3093 -3.1253
  480MOL0     H64738   1.362   1.321   0.987  1.4093 -0.1758 -1.8327
  480MOL0     H64739   1.278   1.608   1.052  3.3817  1.0415 -0.5272
  480MOL0     H64740   1.335   1.484   1.163  1.8383  0.9758 -1.7299
  480MOL0     H64741   1.052   1.492   1.028  0.4625 -0.8065 -0.3858
  480MOL0     H64742   1.104   1.364   1.144  0.4314 -0.3284 -1.0972
  480MOL0     H64743   1.111   1.512   1.321 -0.1453 -1.1176 -0.7288
  480MOL0     H64744   1.080   1.662   1.215 -1.3785  0.4596 -0.9746
  480MOL0     H64745   0.867   1.609   1.339  0.2875 -0.6807  1.4143
  480MOL0     H64746   0.859   1.575   1.164 -0.2758 -0.5812 -0.0331
  480MOL0     H64747   0.937   1.362   1.351 -0.3143 -0.1428 -1.0900
  480MOL0     H64748   0.832   1.348   1.206  0.5810 -2.1085  1.2366
  480MOL0     H64749   0.683   1.300   1.363  2.6775 -1.1816 -2.3300
  480MOL0     H64750   0.740   1.400   1.488  1.6736 -2.6321 -1.1181
  480MOL0     H64751   0.606   1.438   1.119 -0.5213 -1.9645  0.8240
  480MOL0     H64752   0.345   1.559   1.069  0.9432  0.4586 -2.0768
  480MOL0     H64753   0.303   1.708   1.159 -1.7694 -0.5517 -0.6877
  480MOL0     H64754   0.515   1.812   1.049  2.1270 -3.1155  0.3737
  480MOL0     H64755   0.516   1.681   0.933  0.6742 -0.3445 -0.0714
  480MOL0     H64756   0.271   1.854   0.983 -0.3787  2.8797 -1.0249
  480MOL0     H64757   0.266   1.729   0.868 -0.6826  0.8489 -0.2741
  480MOL0     H64758   0.438   1.981   0.851 -0.5949  2.5467 -1.8533
  480MOL0     H64759   0.285   1.959   0.751 -0.0642 -0.7479 -0.5755
  480MOL0     H64760   0.613   1.766   0.525 -0.2797 -0.5153  3.9198
  480MOL0     H64761   0.779   1.879   0.381 -0.5433  2.6239 -1.4583
  480MOL0     H64762   1.122   2.301   0.502 -0.8135 -0.3437  0.6515
  480MOL0     H64763   1.291   2.422   0.381  0.9705 -0.9157 -1.8217
  480MOL0     H64764   1.327   2.408  -0.003  0.0489 -0.2993  3.4516
  480MOL0     H64765   1.221   2.544  -0.061 -0.0939  1.6170  0.5297
  480MOL0     H64766   1.418   2.688  -0.085  1.8279  0.7305  1.1494
  480MOL0     H64767   1.480   2.631   0.070  0.0753 -1.1705  0.0344
  480MOL0     H64768   1.548   2.426  -0.016 -4.2688 -0.3570  1.3404
  480MOL0     H64769   1.484   2.453  -0.174 -1.8360  0.2497 -1.6315
  480MOL0     H64770   1.718   2.615  -0.062  0.3611  1.0323 -1.8327
  480MOL0     H64771   1.643   2.647  -0.218 -2.0597  0.3789  0.3601
  480MOL0     H64772   1.686   2.424  -0.282  1.0542  2.3644 -2.1041
  480MOL0     H64773   1.766   2.399  -0.114  1.2005  0.5645  0.2396
  480MOL0     H64774   1.848   2.574  -0.344 -1.8189 -2.1318 -0.9365
  480MOL0     H64775   1.918   2.577  -0.178  1.6711 -0.9330  0.9705
  480MOL0     H64776   2.054   2.418  -0.351 -0.8786 -1.4948  0.0460
  480MOL0     H64777   1.921   2.306  -0.304 -1.4613 -0.9544  0.8481
  480MOL0     H64778   1.989   2.371  -0.064  0.9629 -1.7768 -0.6947
  480MOL0     H64779   2.102   2.271  -0.164  2.5592  0.9746 -2.3820
  480MOL0     H64780   1.020   2.481   0.040 -2.6519 -2.1427 -1.1749
  480MOL0     H64781   0.849   2.346   0.172  0.6476 -0.3520 -3.5828
  480MOL0     H64782   0.662   2.254   0.570 -2.1786 -0.0174  2.7764
  480MOL0     H64783   0.502   2.137   0.707 -0.8032 -0.1965  0.0281
  480MOL0     H64784   1.081   1.326   0.602 -3.6219  0.9693 -2.9898
  480MOL0     H64785   0.883   1.271   0.478 -2.1263  1.8880  0.1620
  480MOL0     H64786   0.436   1.098   0.563  1.3338  0.1762 -0.8194
  480MOL0     H64787   0.217   1.000   0.488  1.3541  4.0346  0.0020
  480MOL0     H64788   0.163   0.577   0.557 -2.4481  1.5671  0.8227
  480MOL0     H64789   0.196   0.556   0.379  0.5348 -1.6667  2.6398
  480MOL0     H64790  -0.029   0.485   0.395 -0.9596  1.0942 -0.7645
  480MOL0     H64791  -0.039   0.660   0.370 -1.1889  1.6178  2.4853
  480MOL0     H64792  -0.093   0.704   0.578 -1.1060  0.1423  1.3708
  480MOL0     H64793  -0.048   0.546   0.646  1.9581  0.3219 -1.2538
  480MOL0     H64794  -0.256   0.631   0.438 -3.3768  1.1332  2.1845
  480MOL0     H64795  -0.236   0.468   0.468  0.4892 -0.4774  0.4753
  480MOL0     H64796  -0.471   0.608   0.796  2.5148 -2.4539  3.4690
  480MOL0     H64797   0.382   0.612   0.484  2.0804  0.9872  1.5988
  480MOL0     H64798   0.694   0.659   0.444  1.1474 -2.7661  0.4388
  480MOL0     H64799   0.705   0.692   0.619 -0.4625 -2.4165  0.4719
  480MOL0     H64800   0.599   0.576   0.556 -0.5836 -0.1746 -0.6164
  481MOL0     O64801   7.336  11.342   1.998  0.2066 -0.0301 -0.5066
  481MOL0     C64802   7.374  11.339   2.115  0.1532  0.7709 -0.2428
  481MOL0     O64803   7.332  11.430   2.209 -0.2502  0.7015  0.0457
  481MOL0     C64804   7.235  11.522   2.171 -0.2455  0.7082 -0.2510
  481MOL0     C64805   7.250  11.652   2.226 -0.2381  0.1753 -0.6237
  481MOL0     C64806   7.146  11.745   2.214  0.0383 -0.3255 -0.0012
  481MOL0     C64807   7.031  11.712   2.140  0.0991  1.3948 -0.0918
  481MOL0     O64808   6.918  11.792   2.135 -0.1345  0.3452  0.2961
  481MOL0     C64809   6.943  11.926   2.096  0.0331 -0.0619  0.2314
  481MOL0     C64810   6.953  11.925   1.943 -0.8745  0.1828 -0.0625
  481MOL0     C64811   6.814  11.916   1.880 -0.2875 -0.3950  1.3638
  481MOL0     C64812   6.801  11.993   1.747 -0.5705 -0.0872  0.3402
  481MOL0     C64813   6.747  11.895   1.637  0.5707  0.1738 -0.1938
  481MOL0     C64814   6.726  11.984   1.510 -0.2490 -0.0285 -0.2771
  481MOL0     C64815   6.649  11.918   1.394  0.9130  0.1268 -0.3185
  481MOL0     C64816   6.677  11.984   1.257  0.3999  0.1907  0.6423
  481MOL0     N64817   6.576  11.954   1.153  1.1668  0.6100 -0.0244
  481MOL0     C64818   6.546  12.039   1.053  0.0329  0.1941 -0.4060
  481MOL0     C64819   6.463  11.979   0.961 -0.8387 -0.8108 -0.4528
  481MOL0     C64820   6.417  12.016   0.822 -1.6994 -0.0764  0.6879
  481MOL0     C64821   6.284  12.092   0.839  0.5689  1.0953  0.1651
  481MOL0     C64822   6.289  12.217   0.922  1.1936  0.6592 -0.0765
  481MOL0     C64823   6.380  12.320   0.876 -0.6590  0.9418  0.8184
  481MOL0     O64824   6.372  12.326   0.733  0.0130 -0.3160  0.8234
  481MOL0     C64825   6.456  12.410   0.664  0.2773  0.4712  0.0537
  481MOL0     C64826   6.439  12.407   0.527  0.5553 -0.6464 -0.1508
  481MOL0     C64827   6.528  12.482   0.436  0.2649  0.3238  0.2283
  481MOL0     C64828   6.633  12.561   0.481  0.2017 -0.0397 -0.3935
  481MOL0     C64829   6.723  12.645   0.396  0.3088  0.2311 -0.9722
  481MOL0     O64830   6.774  12.765   0.449  0.7107 -0.4124 -0.3659
  481MOL0     C64831   6.864  12.837   0.370  0.2405 -0.5268  0.2801
  481MOL0     C64832   7.009  12.827   0.381  0.0907  0.6223  0.1929
  481MOL0     C64833   7.084  12.896   0.288 -0.0205 -1.2985 -0.5259
  481MOL0     C64834   7.030  12.965   0.173 -0.5485 -0.1306 -0.1566
  481MOL0     O64835   7.108  13.037   0.088  0.1556  0.1003  0.0222
  481MOL0     C64836   7.233  13.077   0.128  0.6240  0.3032  0.0486
  481MOL0     C64837   7.303  13.161   0.032 -0.8173 -0.6208 -0.2981
  481MOL0     C64838   7.241  13.298   0.030  0.9555  0.0658 -0.8608
  481MOL0     C64839   7.307  13.376  -0.081  0.2933 -0.0470  0.1907
  481MOL0     C64840   7.247  13.517  -0.075  0.2010  0.6915  0.3889
  481MOL0     C64841   7.243  13.597  -0.211 -0.1117 -0.8730 -0.6994
  481MOL0     C64842   7.401  13.629  -0.238 -0.1222  1.3703  0.4982
  481MOL0     C64843   7.406  13.699  -0.369  0.1852  0.2166 -0.1017
  481MOL0    Cl64844   7.554  13.750  -0.432  0.1709 -0.0199  0.5453
  481MOL0     C64845   6.886  12.976   0.164 -0.5456 -0.1223  0.3855
  481MOL0     C64846   6.812  12.907   0.261  0.3041 -0.5260  0.2219
  481MOL0     O64847   6.750  12.594   0.289  0.2056 -0.0107 -0.7422
  481MOL0     C64848   6.652  12.553   0.622 -0.0286  0.4807  0.0261
  481MOL0     C64849   6.566  12.481   0.707 -0.5185 -0.6292  0.6349
  481MOL0     N64850   6.445  11.849   1.018  0.0057 -0.3450  0.5410
  481MOL0     N64851   6.512  11.840   1.129  0.0343 -0.5206  0.0322
  481MOL0     C64852   7.016  11.585   2.094  0.1347  1.1557 -0.4277
  481MOL0     C64853   7.120  11.489   2.103  1.0311 -0.4297 -0.4192
  481MOL0     C64854   7.471  11.234   2.159  0.5755 -0.5679  0.5471
  481MOL0     C64855   7.558  11.279   2.262 -0.5937  0.2655  0.4992
  481MOL0     C64856   7.657  11.199   2.308  0.3168 -0.1948 -0.8804
  481MOL0     C64857   7.683  11.076   2.248 -0.0653  0.1879  0.2004
  481MOL0     O64858   7.791  10.998   2.292  0.5030 -0.2448 -0.0003
  481MOL0     C64859   7.744  10.878   2.359 -0.1687 -0.0334 -0.3354
  481MOL0     C64860   7.838  10.762   2.327  0.5844  0.4252  0.0605
  481MOL0     C64861   7.976  10.774   2.393  0.6665 -0.2091  0.7383
  481MOL0     C64862   8.094  10.684   2.337  0.8445  0.8929  0.4278
  481MOL0     C64863   8.047  10.564   2.267  0.1120  0.6843 -0.0479
  481MOL0     C64864   7.999  10.461   2.207 -0.1396 -0.2790  0.3748
  481MOL0     C64865   7.599  11.026   2.144  0.0404 -0.6396 -0.5332
  481MOL0     C64866   7.493  11.106   2.092  0.0397 -1.0151  0.3550
  481MOL0     C64867   7.403  11.056   1.977  0.3741 -0.0479 -0.3811
  481MOL0     H64868   7.327  11.681   2.298 -2.9160 -1.3818  3.1621
  481MOL0     H64869   7.158  11.843   2.259 -2.4979 -0.9950  2.4053
  481MOL0     H64870   6.862  11.997   2.118 -1.8813 -0.2679 -4.7541
  481MOL0     H64871   7.038  11.960   2.136 -0.2134 -0.5726  1.2980
  481MOL0     H64872   7.029  11.854   1.910  2.2668  3.0513  0.3916
  481MOL0     H64873   7.004  12.019   1.920 -0.4856 -0.3160 -1.2766
  481MOL0     H64874   6.740  11.949   1.953  0.4960  0.5319  1.7627
  481MOL0     H64875   6.798  11.812   1.850 -0.5492 -0.0705  0.3256
  481MOL0     H64876   6.744  12.084   1.769 -0.4199 -0.6380  3.4354
  481MOL0     H64877   6.900  12.023   1.713 -0.2042  0.2721  1.6787
  481MOL0     H64878   6.814  11.811   1.622 -2.5379 -2.4613 -0.4122
  481MOL0     H64879   6.652  11.850   1.667 -1.2025  2.9075 -1.2457
  481MOL0     H64880   6.672  12.074   1.540  0.9274  0.5949  0.0101
  481MOL0     H64881   6.821  12.020   1.470 -1.0048  1.3338 -0.9153
  481MOL0     H64882   6.542  11.932   1.414  0.9625  0.1418 -0.0554
  481MOL0     H64883   6.674  11.811   1.387  0.6775  0.1163 -0.9719
  481MOL0     H64884   6.697  12.091   1.267  1.5515 -0.0270  0.7570
  481MOL0     H64885   6.775  11.944   1.229  0.7219 -0.0596  2.0629
  481MOL0     H64886   6.598  12.133   1.035  0.1909 -0.5345 -4.8889
  481MOL0     H64887   6.497  12.071   0.773  1.3715  0.1739  5.2894
  481MOL0     H64888   6.410  11.924   0.765 -0.8799  0.4753 -0.3276
  481MOL0     H64889   6.232  12.119   0.746 -0.4805 -0.4911  0.2455
  481MOL0     H64890   6.220  12.018   0.889  1.9152 -2.2433 -2.6487
  481MOL0     H64891   6.303  12.192   1.027  0.5197  0.1300 -0.1024
  481MOL0     H64892   6.192  12.265   0.906 -0.4465 -1.9392  1.2646
  481MOL0     H64893   6.483  12.293   0.900 -1.3110 -0.6144  1.9780
  481MOL0     H64894   6.373  12.419   0.923  0.2767  1.2101  0.4171
  481MOL0     H64895   6.370  12.341   0.476  0.3457 -1.0352  0.6247
  481MOL0     H64896   6.518  12.476   0.328 -0.4972  1.9477  0.1778
  481MOL0     H64897   7.055  12.784   0.469  0.3364  2.8162  1.1954
  481MOL0     H64898   7.189  12.886   0.315  0.2302 -0.4375 -1.1515
  481MOL0     H64899   7.225  13.130   0.223 -1.4498  0.1413 -0.0056
  481MOL0     H64900   7.290  12.985   0.151  0.2495  0.0723  0.0594
  481MOL0     H64901   7.407  13.180   0.060  0.3238 -2.5003 -2.8671
  481MOL0     H64902   7.301  13.113  -0.067  0.1369  3.0726 -2.2778
  481MOL0     H64903   7.138  13.278   0.002  0.8817 -3.4869  1.3453
  481MOL0     H64904   7.263  13.344   0.127  1.3893 -1.0080 -0.4360
  481MOL0     H64905   7.277  13.336  -0.179 -1.2528  0.8014  0.2844
  481MOL0     H64906   7.415  13.378  -0.068  0.3537  0.4713 -0.3571
  481MOL0     H64907   7.309  13.571  -0.002  5.1562  0.8315 -3.3423
  481MOL0     H64908   7.143  13.517  -0.042 -0.3555 -0.0924 -1.2446
  481MOL0     H64909   7.214  13.531  -0.293  4.9510 -1.7389 -2.1602
  481MOL0     H64910   7.166  13.674  -0.206 -3.0155 -3.6790  1.6376
  481MOL0     H64911   7.464  13.540  -0.244 -0.5348  0.8665  2.8161
  481MOL0     H64912   7.440  13.698  -0.162  2.2953  1.4328 -0.6749
  481MOL0     H64913   7.351  13.633  -0.437 -2.3978  2.9102 -0.8184
  481MOL0     H64914   7.343  13.788  -0.357 -0.9358 -0.7977  2.0843
  481MOL0     H64915   6.843  13.034   0.083  2.6563 -1.4420 -2.4956
  481MOL0     H64916   6.704  12.901   0.252  0.3284  0.8336 -1.8753
  481MOL0     H64917   6.710  12.631   0.669 -1.0350 -0.0832  2.3855
  481MOL0     H64918   6.588  12.486   0.813 -0.0110  0.0595  0.5063
  481MOL0     H64919   6.929  11.551   2.037  0.6572 -3.9397  1.3004
  481MOL0     H64920   7.096  11.393   2.057 -3.0193 -0.5471  1.5138
  481MOL0     H64921   7.556  11.379   2.304 -2.0877  1.4785 -2.2109
  481MOL0     H64922   7.715  11.240   2.390  0.6566 -1.5370 -0.4221
  481MOL0     H64923   7.641  10.858   2.329 -0.6943 -2.3948  2.5423
  481MOL0     H64924   7.751  10.903   2.465 -1.5177  1.9724 -0.6730
  481MOL0     H64925   7.851  10.752   2.219 -0.0724 -0.6061  0.0581
  481MOL0     H64926   7.795  10.669   2.364  1.3925  0.6116  1.5432
  481MOL0     H64927   7.971  10.752   2.500  5.0413  1.0268  1.3954
  481MOL0     H64928   8.004  10.879   2.378 -1.6514  0.2809 -0.8111
  481MOL0     H64929   8.154  10.750   2.273  0.6237  0.0039 -0.7094
  481MOL0     H64930   8.172  10.660   2.410  1.7977  0.2114 -0.7842
  481MOL0     H64931   7.961  10.375   2.155 -0.4417  0.4867 -0.7216
  481MOL0     H64932   7.617  10.929   2.099 -2.7117 -1.8158  0.6544
  481MOL0     H64933   7.303  11.042   2.021  2.2899 -1.2633  4.2263
  481MOL0     H64934   7.396  11.116   1.886  1.8718 -1.3769 -1.4184
  481MOL0     H64935   7.437  10.957   1.947  0.0781 -0.7174  1.3764
  482MOL0     O64936   5.250   1.217   1.157 -0.2727 -0.6099  0.5647
  482MOL0     C64937   5.364   1.190   1.167  0.6836 -0.3416 -0.4170
  482MOL0     O64938   5.457   1.228   1.072 -0.1178 -0.1047 -0.3489
  482MOL0     C64939   5.433   1.287   0.949  0.4993 -0.0777 -0.0969
  482MOL0     C64940   5.514   1.244   0.840  0.4394 -0.1094  0.9543
  482MOL0     C64941   5.491   1.295   0.711  0.5154  1.8143 -0.1848
  482MOL0     C64942   5.395   1.394   0.688  0.4009  0.4206 -0.4286
  482MOL0     O64943   5.368   1.455   0.571  0.5890  0.3515 -0.0845
  482MOL0     C64944   5.454   1.445   0.459  0.9569  0.3872 -0.3762
  482MOL0     C64945   5.422   1.560   0.359  0.1329 -0.0587  0.4058
  482MOL0     C64946   5.271   1.587   0.322 -0.6097 -0.2492 -0.2433
  482MOL0     C64947   5.247   1.681   0.193 -0.0836  0.8914 -0.2294
  482MOL0     C64948   5.107   1.680   0.136  0.3765 -0.1615  0.3128
  482MOL0     C64949   5.035   1.548   0.117  0.0643  0.0804  0.0099
  482MOL0     C64950   4.907   1.550   0.048 -0.4542  0.1140  0.1675
  482MOL0     C64951   4.866   1.403   0.016 -0.3002  0.5647 -0.0764
  482MOL0     N64952   4.757   1.408  -0.074  0.2973 -0.8146 -0.4492
  482MOL0     C64953   4.747   1.351  -0.198  0.3646  0.5359  0.2861
  482MOL0     C64954   4.626   1.384  -0.247 -0.6116 -0.1968  0.8537
  482MOL0     C64955   4.573   1.331  -0.375 -0.2778  0.0823  0.9557
  482MOL0     C64956   4.456   1.232  -0.353 -0.9560  0.4382  0.6538
  482MOL0     C64957   4.326   1.272  -0.294  0.9907  0.2976 -0.0931
  482MOL0     C64958   4.260   1.389  -0.378 -0.1246 -0.3960 -1.1071
  482MOL0     O64959   4.136   1.410  -0.325  0.5679  0.2312  0.0330
  482MOL0     C64960   4.038   1.463  -0.409 -0.6090  0.0586  0.4235
  482MOL0     C64961   4.057   1.513  -0.538  0.0455 -0.0498  0.3402
  482MOL0     C64962   3.950   1.586  -0.592 -0.8857 -0.1570 -0.0522
  482MOL0     C64963   3.835   1.616  -0.519 -0.1611 -0.7259  0.2435
  482MOL0     C64964   3.726   1.696  -0.579 -0.7071 -0.0637  0.2900
  482MOL0     O64965   3.756   1.766  -0.696  0.3214 -0.8478 -0.1905
  482MOL0     C64966   3.647   1.806  -0.768 -1.2157 -0.7227  0.6500
  482MOL0     C64967   3.645   1.939  -0.814 -0.0497 -0.0401 -0.1127
  482MOL0     C64968   3.547   1.985  -0.900  0.3958 -0.6081  0.7166
  482MOL0     C64969   3.443   1.905  -0.951 -0.1715 -1.0044 -0.4424
  482MOL0     O64970   3.365   1.961  -1.055 -0.0182  0.3550 -0.3398
  482MOL0     C64971   3.250   1.896  -1.114 -0.9124  0.5995 -0.0953
  482MOL0     C64972   3.118   1.923  -1.052  0.5304  0.4112 -0.4606
  482MOL0     C64973   3.009   1.871  -1.140  0.7577 -0.3665 -0.4758
  482MOL0     C64974   2.873   1.896  -1.081  0.1417 -0.4277 -0.1268
  482MOL0     C64975   2.757   1.854  -1.182  0.3427  0.1441  0.1979
  482MOL0     C64976   2.626   1.918  -1.140  0.9536 -0.6916  0.2400
  482MOL0     C64977   2.502   1.857  -1.209 -0.8378 -0.0734  0.2260
  482MOL0     C64978   2.382   1.894  -1.126  0.0768  0.1588  0.1473
  482MOL0    Cl64979   2.238   1.871  -1.224 -0.1231  0.0766 -0.0610
  482MOL0     C64980   3.443   1.776  -0.902  0.9166  1.0472 -0.0269
  482MOL0     C64981   3.538   1.730  -0.817  0.1178  0.2711 -0.4141
  482MOL0     O64982   3.618   1.668  -0.536 -0.2443 -0.2172 -0.9381
  482MOL0     C64983   3.819   1.571  -0.382 -0.5185  0.5558  0.9477
  482MOL0     C64984   3.917   1.486  -0.346  0.1036 -0.0733  0.4141
  482MOL0     N64985   4.555   1.453  -0.152  0.5120 -0.1740 -0.2431
  482MOL0     N64986   4.631   1.463  -0.049  0.3818  0.2137  0.7057
  482MOL0     C64987   5.316   1.434   0.795 -0.4625  0.6123 -0.4361
  482MOL0     C64988   5.333   1.382   0.926 -0.1254  0.1592  0.1964
  482MOL0     C64989   5.412   1.120   1.294  0.7124 -0.4023  0.2612
  482MOL0     C64990   5.547   1.091   1.309 -0.2683  1.1418 -0.4093
  482MOL0     C64991   5.593   1.028   1.421 -0.8083  0.0276 -0.3950
  482MOL0     C64992   5.509   0.995   1.535  0.2643  0.3218  0.4319
  482MOL0     O64993   5.567   0.929   1.640  0.0194  0.0028 -0.1293
  482MOL0     C64994   5.476   0.869   1.744  0.5992 -0.8681  0.2641
  482MOL0     C64995   5.567   0.803   1.857  0.2311 -0.0399  0.8500
  482MOL0     C64996   5.602   0.905   1.956 -0.4732  0.9633  0.6073
  482MOL0     C64997   5.746   0.875   2.024  0.6620 -0.1902 -0.0401
  482MOL0     C64998   5.723   0.796   2.146  0.4092  0.2221  0.7009
  482MOL0     C64999   5.699   0.733   2.248  0.4238 -0.4215 -0.3509
  482MOL0     C65000   5.375   1.018   1.522 -0.0668 -1.2890  0.0739
  482MOL0     C65001   5.330   1.083   1.404 -0.7802  0.1560 -0.7117
  482MOL0     C65002   5.185   1.107   1.405 -0.3021 -0.0758  0.1696
  482MOL0     H65003   5.583   1.163   0.859 -1.0719 -1.1728  2.2116
  482MOL0     H65004   5.536   1.247   0.624  2.2426  4.0582 -0.6288
  482MOL0     H65005   5.555   1.459   0.496  0.7626 -0.8068  0.6856
  482MOL0     H65006   5.443   1.345   0.414  2.0325 -0.3804  0.9914
  482MOL0     H65007   5.480   1.525   0.273  0.6844  1.0655  0.3094
  482MOL0     H65008   5.465   1.655   0.390 -3.0148  2.0675 -1.1667
  482MOL0     H65009   5.221   1.633   0.407 -1.5985  0.8389 -1.3783
  482MOL0     H65010   5.224   1.491   0.299 -2.8591  0.7694 -0.1686
  482MOL0     H65011   5.275   1.783   0.217  0.5681  0.6654 -0.0212
  482MOL0     H65012   5.317   1.653   0.113 -1.9711  0.8938 -1.9824
  482MOL0     H65013   5.046   1.749   0.195 -0.4020  0.4466 -1.1453
  482MOL0     H65014   5.104   1.724   0.036  0.9370  0.1452  0.4255
  482MOL0     H65015   5.095   1.486   0.050 -1.2035  0.6092 -1.6685
  482MOL0     H65016   5.013   1.501   0.213 -2.2981  0.0736 -0.4835
  482MOL0     H65017   4.914   1.609  -0.043 -4.2986  0.3113 -0.1831
  482MOL0     H65018   4.840   1.607   0.114  0.2158  0.1069  0.8679
  482MOL0     H65019   4.951   1.358  -0.037  0.5414 -0.6363  2.1754
  482MOL0     H65020   4.849   1.341   0.104  1.1544 -2.4823 -1.7501
  482MOL0     H65021   4.824   1.287  -0.240  0.6431  0.1996  1.2706
  482MOL0     H65022   4.546   1.418  -0.436 -1.6227 -0.1863  1.1274
  482MOL0     H65023   4.654   1.279  -0.425  0.5052  3.2108 -1.3422
  482MOL0     H65024   4.444   1.184  -0.451  1.9163 -1.2017  0.9760
  482MOL0     H65025   4.494   1.154  -0.286  3.2689  0.2156 -1.6435
  482MOL0     H65026   4.325   1.293  -0.187 -2.0028  2.1263 -0.3919
  482MOL0     H65027   4.254   1.190  -0.287 -0.2189  1.4717  1.9056
  482MOL0     H65028   4.262   1.353  -0.482  0.4426  0.2719 -1.3345
  482MOL0     H65029   4.317   1.482  -0.373 -0.8461  0.0019 -0.1873
  482MOL0     H65030   4.149   1.497  -0.593  0.3097  0.2073  0.7035
  482MOL0     H65031   3.971   1.615  -0.694  0.6074 -1.5474 -0.1786
  482MOL0     H65032   3.722   2.015  -0.814 -0.3572  0.3695 -2.4833
  482MOL0     H65033   3.539   2.089  -0.928 -0.3433 -0.6280  0.8381
  482MOL0     H65034   3.252   1.917  -1.221  0.7527 -2.3980 -0.7534
  482MOL0     H65035   3.261   1.787  -1.118 -0.3351  0.6731 -0.6765
  482MOL0     H65036   3.120   1.874  -0.954 -3.0977  0.7628 -0.0941
  482MOL0     H65037   3.107   2.027  -1.019  0.1956 -0.4101  2.1885
  482MOL0     H65038   3.005   1.926  -1.234 -3.3282  2.6021  1.1663
  482MOL0     H65039   3.029   1.764  -1.155 -0.1739 -0.7299  0.7089
  482MOL0     H65040   2.877   2.001  -1.050  2.1308 -0.7313  0.8115
  482MOL0     H65041   2.866   1.832  -0.993 -4.7173  0.5853  0.5332
  482MOL0     H65042   2.753   1.747  -1.203 -0.7096  0.7940 -3.5370
  482MOL0     H65043   2.774   1.889  -1.284 -4.6874  0.9162 -0.6467
  482MOL0     H65044   2.619   1.902  -1.032  0.8454 -2.2062  0.0289
  482MOL0     H65045   2.625   2.027  -1.150  1.4143 -0.5756  1.3570
  482MOL0     H65046   2.509   1.748  -1.217  0.8025 -0.0167  0.4855
  482MOL0     H65047   2.500   1.900  -1.310 -6.1034 -0.7855 -0.2745
  482MOL0     H65048   2.378   1.849  -1.026 -1.7407 -0.4526 -0.1770
  482MOL0     H65049   2.389   2.002  -1.112  0.8439  0.0123  1.0854
  482MOL0     H65050   3.360   1.714  -0.935 -0.1117  2.6211 -0.5305
  482MOL0     H65051   3.534   1.625  -0.792 -0.5582 -0.1150 -2.0904
  482MOL0     H65052   3.730   1.574  -0.319 -0.8136  1.2323  0.5022
  482MOL0     H65053   3.905   1.423  -0.258  0.0315  0.4140  0.7578
  482MOL0     H65054   5.242   1.512   0.779  0.8108  2.3637  1.7476
  482MOL0     H65055   5.261   1.422   0.997 -1.0591  1.9086 -1.6283
  482MOL0     H65056   5.615   1.129   1.234  0.3997 -0.4994 -0.6588
  482MOL0     H65057   5.700   1.016   1.437 -0.8573 -0.6584 -0.5628
  482MOL0     H65058   5.402   0.801   1.701 -0.2538  0.7052 -0.8500
  482MOL0     H65059   5.418   0.947   1.795  0.7173  0.5624 -1.7022
  482MOL0     H65060   5.649   0.748   1.809 -0.5929 -1.6574  1.2191
  482MOL0     H65061   5.501   0.733   1.908  0.5161 -2.1078 -1.4553
  482MOL0     H65062   5.523   0.927   2.030 -0.0819  2.7211  0.5512
  482MOL0     H65063   5.610   1.000   1.901 -1.2487 -0.3409 -1.8674
  482MOL0     H65064   5.815   0.817   1.961  0.7380 -2.0245  1.6343
  482MOL0     H65065   5.790   0.971   2.053  0.1866  1.3237 -3.7051
  482MOL0     H65066   5.678   0.686   2.342  0.1606 -1.0860 -0.7388
  482MOL0     H65067   5.303   0.981   1.595  0.0956  2.0984  2.1713
  482MOL0     H65068   5.154   1.212   1.403 -0.1283 -0.0145  0.5033
  482MOL0     H65069   5.144   1.053   1.319  0.1458 -0.4448  0.1835
  482MOL0     H65070   5.132   1.058   1.488  0.5080 -0.5010  0.4432
  483MOL0     O65071   0.500   9.430   0.144  0.3165 -0.0094  0.3486
  483MOL0     C65072   0.596   9.373   0.195  1.2126  0.1144  0.0123
  483MOL0     O65073   0.592   9.286   0.295 -0.4080  0.6217  0.2805
  483MOL0     C65074   0.490   9.263   0.384  0.4921 -0.0739  0.3654
  483MOL0     C65075   0.448   9.136   0.425  0.0551 -0.1350  0.0076
  483MOL0     C65076   0.338   9.119   0.507  0.0844  1.5542 -0.2812
  483MOL0     C65077   0.251   9.219   0.543  0.4430 -0.3138 -0.7226
  483MOL0     O65078   0.140   9.186   0.621 -0.5850 -0.1179 -0.1245
  483MOL0     C65079   0.048   9.287   0.661  0.2347 -0.4063  0.1252
  483MOL0     C65080  -0.032   9.243   0.783  0.3216 -0.0810 -1.4050
  483MOL0     C65081  -0.106   9.370   0.842 -0.0850  0.7948  0.8661
  483MOL0     C65082  -0.179   9.337   0.970  0.8575  0.6396  0.4444
  483MOL0     C65083  -0.239   9.465   1.033  0.6711  0.5391 -0.7873
  483MOL0     C65084  -0.315   9.442   1.159 -0.1258  0.8800 -0.1378
  483MOL0     C65085  -0.362   9.577   1.230 -0.5641  0.0048  0.2258
  483MOL0     C65086  -0.475   9.649   1.159  0.2019 -0.2361  0.1432
  483MOL0     N65087  -0.469   9.792   1.172  0.6352 -0.3008 -0.5214
  483MOL0     C65088  -0.370   9.877   1.224  0.1595  0.3706 -0.0689
  483MOL0     C65089  -0.408  10.001   1.206  0.4515 -0.1461 -0.0421
  483MOL0     C65090  -0.341  10.130   1.249  0.2544 -0.4626  0.2968
  483MOL0     C65091  -0.193  10.121   1.222 -0.1698  0.1428  0.3158
  483MOL0     C65092  -0.126  10.252   1.251 -0.7318  0.3836 -0.6749
  483MOL0     C65093  -0.152  10.352   1.136 -0.3154  0.0097 -0.3180
  483MOL0     O65094  -0.048  10.450   1.138 -0.2209 -0.1084  1.0996
  483MOL0     C65095  -0.072  10.575   1.168 -0.0879  0.2459 -0.3581
  483MOL0     C65096   0.014  10.669   1.115  0.0438 -0.1404  1.1241
  483MOL0     C65097   0.019  10.793   1.166  1.0129 -0.5166  0.9660
  483MOL0     C65098  -0.083  10.836   1.253  0.8025 -0.9915 -0.0601
  483MOL0     C65099  -0.090  10.982   1.272 -0.6696  0.2845 -0.1320
  483MOL0     O65100   0.033  11.047   1.266 -0.2037  0.1621  0.1146
  483MOL0     C65101   0.034  11.185   1.260  0.2221 -0.6283  0.4457
  483MOL0     C65102   0.015  11.257   1.139  0.6582  0.2179 -0.0734
  483MOL0     C65103   0.006  11.401   1.142 -0.2220 -0.0916  0.3503
  483MOL0     C65104   0.032  11.467   1.263  0.0408  0.2103 -0.6702
  483MOL0     O65105   0.007  11.602   1.268 -0.3292  0.3549  0.0603
  483MOL0     C65106   0.104  11.685   1.212 -0.5082 -0.3785 -0.4268
  483MOL0     C65107   0.055  11.763   1.086  0.1411  0.1816  0.6158
  483MOL0     C65108   0.145  11.878   1.039 -0.6543 -0.4219 -0.4902
  483MOL0     C65109   0.142  11.999   1.142  0.1509 -0.1623 -0.9137
  483MOL0     C65110   0.249  12.093   1.107  0.1440  0.4727 -0.1276
  483MOL0     C65111   0.249  12.211   1.208  0.4969  0.5062 -0.0948
  483MOL0     C65112   0.364  12.317   1.178 -0.8594 -0.6740 -0.3056
  483MOL0     C65113   0.358  12.423   1.278  0.1535 -0.7509 -1.3422
  483MOL0    Cl65114   0.479  12.544   1.230  0.0502 -0.3265 -0.1389
  483MOL0     C65115   0.064  11.394   1.382  0.2871 -0.3264 -0.2668
  483MOL0     C65116   0.061  11.256   1.370 -0.4214 -0.1754  0.0817
  483MOL0     O65117  -0.197  11.044   1.295  0.1822  1.0220  0.3741
  483MOL0     C65118  -0.180  10.746   1.294  0.9242  0.1809  0.3753
  483MOL0     C65119  -0.174  10.616   1.251 -0.2581  0.0685  0.1753
  483MOL0     N65120  -0.536   9.996   1.152 -0.2989  0.4579  0.4566
  483MOL0     N65121  -0.578   9.870   1.146  0.8484  0.0110  0.3409
  483MOL0     C65122   0.295   9.350   0.511  0.3764 -0.0026  1.2751
  483MOL0     C65123   0.410   9.369   0.440  0.3279  0.1553  0.9284
  483MOL0     C65124   0.734   9.407   0.149  0.0408 -0.2797  0.0746
  483MOL0     C65125   0.839   9.385   0.236  0.9446 -0.6676  0.5494
  483MOL0     C65126   0.969   9.431   0.206  1.0168 -0.2613 -0.3423
  483MOL0     C65127   0.991   9.494   0.086 -0.6097  0.4350 -0.1874
  483MOL0     O65128   1.106   9.560   0.056  0.7853 -0.4008  0.7049
  483MOL0     C65129   1.220   9.565   0.140  1.3827  0.1249  0.1990
  483MOL0     C65130   1.323   9.653   0.081  0.3323 -0.3663  1.0160
  483MOL0     C65131   1.424   9.699   0.179  0.0132  0.2400 -0.2435
  483MOL0     C65132   1.531   9.602   0.217  0.1893  0.3616  1.0483
  483MOL0     C65133   1.620   9.572   0.098  0.1451  0.0887 -0.0352
  483MOL0     C65134   1.684   9.549   0.000 -0.1066  0.3785  0.1045
  483MOL0     C65135   0.889   9.510  -0.006 -0.8574  0.1607 -0.2369
  483MOL0     C65136   0.758   9.477   0.027 -0.5411 -0.2000 -0.2863
  483MOL0     C65137   0.650   9.507  -0.085 -0.2151 -0.3067 -0.7602
  483MOL0     H65138   0.507   9.051   0.392 -1.1437 -1.3978  1.0038
  483MOL0     H65139   0.312   9.017   0.533  2.8328  0.9256  0.3379
  483MOL0     H65140   0.107   9.374   0.693 -1.1799  0.5126  0.3382
  483MOL0     H65141  -0.023   9.311   0.582 -1.5762 -1.2743  1.4123
  483MOL0     H65142   0.039   9.218   0.862 -0.2689 -0.3039 -0.9422
  483MOL0     H65143  -0.098   9.158   0.769  0.8247 -0.8692  0.6850
  483MOL0     H65144  -0.173   9.400   0.762  1.2588 -0.8728 -0.9830
  483MOL0     H65145  -0.040   9.455   0.860 -0.1496  0.2690  4.2533
  483MOL0     H65146  -0.254   9.260   0.951  1.5454  0.7258 -3.4444
  483MOL0     H65147  -0.107   9.292   1.039 -0.2215  2.0717  2.6384
  483MOL0     H65148  -0.153   9.524   1.064 -0.8392  2.1634  0.5204
  483MOL0     H65149  -0.295   9.524   0.960  0.6884  0.7070 -0.6640
  483MOL0     H65150  -0.404   9.382   1.136  0.2551  0.1348  0.2870
  483MOL0     H65151  -0.271   9.381   1.238 -2.5786 -1.8852 -0.7362
  483MOL0     H65152  -0.280   9.649   1.239  0.0057 -0.7964  1.9288
  483MOL0     H65153  -0.394   9.556   1.332  1.4218  0.6017  1.0360
  483MOL0     H65154  -0.452   9.627   1.054  0.0157  0.4913 -0.0569
  483MOL0     H65155  -0.572   9.609   1.190  0.7433 -0.0367  2.2507
  483MOL0     H65156  -0.279   9.858   1.279  0.3483  2.3945  0.4128
  483MOL0     H65157  -0.384  10.219   1.203 -1.5441 -2.2846 -1.7687
  483MOL0     H65158  -0.352  10.133   1.358  3.6161  0.2341  0.7366
  483MOL0     H65159  -0.150  10.055   1.297 -1.1776 -0.5762  0.2831
  483MOL0     H65160  -0.166  10.082   1.123 -0.0404 -0.7440  0.6897
  483MOL0     H65161  -0.020  10.228   1.264 -1.0251  0.0124  1.3256
  483MOL0     H65162  -0.155  10.289   1.349 -0.4718 -4.8360  1.7004
  483MOL0     H65163  -0.251  10.396   1.153 -0.7880 -0.0828 -2.4770
  483MOL0     H65164  -0.149  10.300   1.039  1.1280  0.4443 -0.5235
  483MOL0     H65165   0.099  10.637   1.056 -0.1098 -0.2841  0.9789
  483MOL0     H65166   0.089  10.869   1.133 -0.5507  0.9793  0.9440
  483MOL0     H65167  -0.005  11.195   1.052  1.2219  0.4852 -0.3972
  483MOL0     H65168  -0.025  11.458   1.055 -0.8381 -0.2525  0.4553
  483MOL0     H65169   0.132  11.751   1.295 -2.1340 -1.4647  1.0483
  483MOL0     H65170   0.188  11.624   1.178 -1.9287 -1.5400 -1.9564
  483MOL0     H65171   0.037  11.693   1.004  0.9177 -0.1099  0.6829
  483MOL0     H65172  -0.040  11.805   1.121  1.4470  3.5232  0.4937
  483MOL0     H65173   0.250  11.850   1.029 -0.8217 -0.4344 -2.4671
  483MOL0     H65174   0.107  11.917   0.944 -0.4349 -0.2993 -0.5280
  483MOL0     H65175   0.158  11.957   1.242  0.9174  0.0031 -0.9588
  483MOL0     H65176   0.046  12.052   1.147 -0.6316 -1.6427  0.9273
  483MOL0     H65177   0.239  12.132   1.005 -1.1811  0.9015  0.1463
  483MOL0     H65178   0.346  12.042   1.116  0.2945  1.0403  1.9286
  483MOL0     H65179   0.155  12.265   1.192 -0.9112 -2.2341 -2.0345
  483MOL0     H65180   0.241  12.181   1.313 -2.4968  0.9340 -0.0924
  483MOL0     H65181   0.342  12.357   1.078 -1.9301  2.2430  0.9856
  483MOL0     H65182   0.463  12.271   1.185 -0.7667 -0.3310  0.7537
  483MOL0     H65183   0.255  12.457   1.261  0.5000  0.1241 -1.7425
  483MOL0     H65184   0.371  12.386   1.380  2.8021  2.0988 -0.5236
  483MOL0     H65185   0.094  11.443   1.474  2.1129 -1.9782  0.0834
  483MOL0     H65186   0.089  11.192   1.454 -0.8104 -1.2879 -0.6180
  483MOL0     H65187  -0.258  10.761   1.368  1.0543 -1.5642  0.8968
  483MOL0     H65188  -0.244  10.542   1.289  1.7550 -2.0363 -0.0251
  483MOL0     H65189   0.251   9.447   0.532  0.8201  0.9883 -1.8600
  483MOL0     H65190   0.441   9.473   0.438 -1.6800  0.8020  1.3777
  483MOL0     H65191   0.835   9.345   0.337  1.5438 -0.4026  0.6869
  483MOL0     H65192   1.051   9.423   0.276  0.9673  0.0388 -0.2482
  483MOL0     H65193   1.263   9.464   0.146  1.2047  0.0370 -0.0117
  483MOL0     H65194   1.189   9.601   0.238 -2.1738 -0.8318 -0.4554
  483MOL0     H65195   1.270   9.732   0.027  1.6286 -1.4290 -2.0405
  483MOL0     H65196   1.372   9.610  -0.007  0.7622  0.2360  0.9546
  483MOL0     H65197   1.368   9.727   0.269 -0.1581 -3.2425  0.8939
  483MOL0     H65198   1.485   9.785   0.150 -0.4006  2.2375  4.0863
  483MOL0     H65199   1.585   9.648   0.300  1.4608  1.0718 -0.1347
  483MOL0     H65200   1.489   9.513   0.265  1.7468 -0.4404  0.9887
  483MOL0     H65201   1.718   9.518  -0.097 -0.0569  0.2322  0.1687
  483MOL0     H65202   0.924   9.576  -0.085  1.3680  0.8515  1.2543
  483MOL0     H65203   0.592   9.591  -0.049 -1.5671 -0.4372 -2.4885
  483MOL0     H65204   0.689   9.529  -0.185  0.7550  0.1182 -0.2981
  483MOL0     H65205   0.584   9.421  -0.104  0.4464 -0.4020 -2.9602
  484MOL0     O65206  10.108   0.850   3.403 -0.1816  0.3577 -0.4318
  484MOL0     C65207  10.072   0.874   3.285  0.0518  0.0068 -0.0570
  484MOL0     O65208  10.136   0.823   3.176  0.3834  0.7677 -0.1222
  484MOL0     C65209  10.258   0.762   3.198  0.4296  0.2795  0.0499
  484MOL0     C65210  10.276   0.628   3.246 -0.4638 -0.4015 -0.6763
  484MOL0     C65211  10.394   0.562   3.239 -0.1221  0.2046  0.6783
  484MOL0     C65212  10.499   0.634   3.197 -0.6003  0.0413 -0.2484
  484MOL0     O65213  10.623   0.577   3.178 -0.4168  0.8356  1.3591
  484MOL0     C65214  10.709   0.556   3.284 -0.3624  0.1271 -0.3733
  484MOL0     C65215  10.850   0.523   3.233 -0.2973 -0.0814  0.5058
  484MOL0     C65216  10.932   0.626   3.151 -0.4525 -0.6258 -0.1442
  484MOL0     C65217  10.912   0.777   3.184 -0.0179  0.9987 -0.6851
  484MOL0     C65218  11.022   0.869   3.115 -0.5050  0.5552 -0.1767
  484MOL0     C65219  10.991   0.901   2.971 -0.1747  0.3178  0.3566
  484MOL0     C65220  11.119   0.959   2.912 -1.0397  0.0400 -0.2638
  484MOL0     C65221  11.093   1.055   2.788 -0.5493 -0.5256  0.2464
  484MOL0     N65222  11.199   1.161   2.775  0.7160  0.7004 -0.2499
  484MOL0     C65223  11.272   1.227   2.870  0.0852 -0.0723 -0.3408
  484MOL0     C65224  11.358   1.295   2.798 -0.6421 -0.1875 -0.0871
  484MOL0     C65225  11.451   1.392   2.864 -0.5591  0.4631 -0.2915
  484MOL0     C65226  11.580   1.335   2.914 -0.7286  0.1725  0.0866
  484MOL0     C65227  11.654   1.262   2.808 -0.3823 -0.2362 -0.0923
  484MOL0     C65228  11.783   1.203   2.861 -0.6032 -0.5684 -1.0303
  484MOL0     O65229  11.758   1.139   2.996  0.2631 -0.1578 -0.5415
  484MOL0     C65230  11.867   1.097   3.073  0.3761 -0.0778 -0.4911
  484MOL0     C65231  11.850   1.085   3.212 -0.2478  1.2132 -0.7582
  484MOL0     C65232  11.954   1.018   3.286  0.1007 -0.2893  0.0343
  484MOL0     C65233  12.072   0.984   3.222 -1.5516 -0.0068  0.0740
  484MOL0     C65234  12.193   0.948   3.306  0.7487 -0.0753  0.0101
  484MOL0     O65235  12.299   0.906   3.240 -0.3379  0.4300  0.2410
  484MOL0     C65236  12.419   0.890   3.305  0.4159 -1.2307  0.2379
  484MOL0     C65237  12.438   0.852   3.442  0.0637  0.4284  0.8818
  484MOL0     C65238  12.564   0.852   3.507  0.4794  0.6400  0.1301
  484MOL0     C65239  12.678   0.892   3.438 -0.7096  0.8716  0.2678
  484MOL0     O65240  12.799   0.894   3.506  0.1621 -0.0013 -0.6961
  484MOL0     C65241  12.909   0.973   3.478 -0.7818  0.0811  0.1793
  484MOL0     C65242  13.016   0.905   3.389  0.3855  0.2642 -0.4766
  484MOL0     C65243  13.103   0.810   3.466 -0.2519 -0.2345 -0.5064
  484MOL0     C65244  13.183   0.719   3.378  0.3493 -0.2123 -0.4466
  484MOL0     C65245  13.272   0.619   3.462 -0.0159  0.1570 -0.0524
  484MOL0     C65246  13.399   0.573   3.389 -0.0327 -0.2250 -0.3619
  484MOL0     C65247  13.502   0.494   3.481  0.4885 -0.4762 -0.5317
  484MOL0     C65248  13.580   0.388   3.405  0.1332 -0.0659 -0.0355
  484MOL0    Cl65249  13.707   0.455   3.303  0.0831 -0.0732 -0.1193
  484MOL0     C65250  12.664   0.942   3.306 -0.1053 -0.3253 -0.4084
  484MOL0     C65251  12.537   0.933   3.245 -0.7394  0.4188  0.0791
  484MOL0     O65252  12.184   0.964   3.431  0.9614 -0.1306  0.2626
  484MOL0     C65253  12.090   1.008   3.088  0.1537  0.1566 -0.0422
  484MOL0     C65254  11.991   1.065   3.012 -0.2268  0.0026 -1.1170
  484MOL0     N65255  11.349   1.266   2.664 -0.1851 -0.3682 -0.7757
  484MOL0     N65256  11.254   1.185   2.652 -0.1921  0.5886  0.1464
  484MOL0     C65257  10.486   0.759   3.147  0.1028 -0.8908  1.0325
  484MOL0     C65258  10.369   0.836   3.151  0.0388  0.5892  0.3683
  484MOL0     C65259   9.964   0.963   3.268  0.2075  0.3420  0.8057
  484MOL0     C65260   9.986   1.063   3.173  0.6297 -0.0209  0.3054
  484MOL0     C65261   9.888   1.162   3.153 -0.1412  0.0613 -0.1398
  484MOL0     C65262   9.767   1.160   3.216 -0.2100 -0.5407 -0.2582
  484MOL0     O65263   9.661   1.247   3.202  0.1049  1.0998 -0.0816
  484MOL0     C65264   9.639   1.294   3.068  0.7084  0.6198  0.6419
  484MOL0     C65265   9.487   1.306   3.035 -1.2820 -0.1633 -0.4786
  484MOL0     C65266   9.430   1.422   3.120  0.2005 -0.0265 -0.2190
  484MOL0     C65267   9.313   1.505   3.063 -0.0376  0.3720 -0.0102
  484MOL0     C65268   9.381   1.577   2.954 -0.7140  0.0823 -0.3879
  484MOL0     C65269   9.444   1.640   2.876  0.5130  0.2921 -1.2729
  484MOL0     C65270   9.737   1.048   3.291 -0.0790  0.1711  0.1575
  484MOL0     C65271   9.835   0.953   3.328 -1.0078 -0.2692 -0.5585
  484MOL0     C65272   9.792   0.832   3.411  0.0676  0.4034 -0.4100
  484MOL0     H65273  10.193   0.580   3.297 -1.1503 -1.4693 -2.6891
  484MOL0     H65274  10.402   0.462   3.281 -4.0926 -1.1472 -1.3524
  484MOL0     H65275  10.707   0.647   3.344  3.1953  0.2878 -0.3258
  484MOL0     H65276  10.678   0.479   3.355  0.7960  0.7983  0.9047
  484MOL0     H65277  10.846   0.429   3.177 -2.1679 -1.5106  2.8547
  484MOL0     H65278  10.894   0.505   3.331 -1.3022 -0.8666  0.8321
  484MOL0     H65279  10.905   0.615   3.046  3.5588  0.5915 -1.4536
  484MOL0     H65280  11.039   0.605   3.150  0.2022  1.9798 -3.4291
  484MOL0     H65281  10.812   0.813   3.156 -0.5966 -0.0080  0.0001
  484MOL0     H65282  10.916   0.779   3.294 -2.8514 -1.1511 -0.4239
  484MOL0     H65283  11.046   0.959   3.172  0.2463  0.1879  0.1058
  484MOL0     H65284  11.110   0.804   3.113 -0.2288  0.9024  0.6291
  484MOL0     H65285  10.951   0.816   2.915  2.1681 -1.6823  1.5139
  484MOL0     H65286  10.918   0.982   2.978 -2.1497 -1.5069  2.6884
  484MOL0     H65287  11.184   0.880   2.872  0.5723  1.3215 -0.2623
  484MOL0     H65288  11.172   1.020   2.985  1.6387 -0.9209 -1.2765
  484MOL0     H65289  11.086   0.993   2.698  1.3689 -1.1704  0.5022
  484MOL0     H65290  10.997   1.106   2.797 -0.0450  0.1865  1.8807
  484MOL0     H65291  11.256   1.238   2.976  0.8218 -2.0220  0.0270
  484MOL0     H65292  11.481   1.469   2.792 -1.5032 -0.2911 -1.5250
  484MOL0     H65293  11.388   1.441   2.939 -4.3497 -0.0337 -2.8739
  484MOL0     H65294  11.642   1.405   2.971 -0.5513 -0.4739  0.7013
  484MOL0     H65295  11.562   1.259   2.990  2.7231 -2.6592 -1.6594
  484MOL0     H65296  11.678   1.336   2.731 -0.8419  0.1492  0.1289
  484MOL0     H65297  11.595   1.182   2.763  0.0432  0.4178 -1.8677
  484MOL0     H65298  11.843   1.288   2.891 -4.4373  2.5914 -1.4781
  484MOL0     H65299  11.837   1.136   2.794  0.7172  2.3342 -3.0726
  484MOL0     H65300  11.761   1.123   3.260 -0.0351  3.6662 -2.1646
  484MOL0     H65301  11.934   0.996   3.390 -2.9376 -1.2637 -0.6423
  484MOL0     H65302  12.355   0.814   3.502  0.2514 -0.4389  0.5926
  484MOL0     H65303  12.569   0.809   3.606  3.3620 -1.1034 -0.6487
  484MOL0     H65304  12.877   1.066   3.430  1.3828  1.1244  0.6525
  484MOL0     H65305  12.962   1.003   3.569  2.0500  1.6050 -1.8061
  484MOL0     H65306  12.969   0.851   3.307 -0.1069  0.9353 -0.6427
  484MOL0     H65307  13.081   0.975   3.336  1.9010 -3.0543 -3.4083
  484MOL0     H65308  13.165   0.873   3.532  0.3816 -2.1908  0.8361
  484MOL0     H65309  13.030   0.756   3.526  0.6858  0.7070  1.5878
  484MOL0     H65310  13.237   0.796   3.322 -0.0271  2.8230  3.0113
  484MOL0     H65311  13.108   0.667   3.318  0.7598 -0.1069 -1.0648
  484MOL0     H65312  13.213   0.528   3.478 -1.3616  0.9157 -0.5491
  484MOL0     H65313  13.303   0.669   3.554 -0.4342  3.7048 -1.6897
  484MOL0     H65314  13.361   0.510   3.309 -0.3010 -1.8345  0.9956
  484MOL0     H65315  13.438   0.660   3.335  1.8252 -1.3416 -0.9027
  484MOL0     H65316  13.443   0.435   3.551 -1.6416  1.1649 -0.8167
  484MOL0     H65317  13.561   0.563   3.542  1.5318 -0.6091 -1.3691
  484MOL0     H65318  13.626   0.324   3.481 -0.4008  0.0684  0.4115
  484MOL0     H65319  13.508   0.321   3.358 -1.7824 -0.0780  2.7022
  484MOL0     H65320  12.752   0.976   3.252  1.2093  0.1958  1.9435
  484MOL0     H65321  12.530   0.961   3.140  0.5281 -1.1153 -0.4583
  484MOL0     H65322  12.183   0.987   3.038  0.4423 -0.1984  0.6290
  484MOL0     H65323  11.995   1.079   2.904 -5.0049  0.5507 -1.4512
  484MOL0     H65324  10.576   0.800   3.101 -0.8163 -1.6762 -1.6594
  484MOL0     H65325  10.373   0.940   3.119  1.3760 -0.4395 -3.2414
  484MOL0     H65326  10.087   1.072   3.134  0.0292  1.2238 -1.1032
  484MOL0     H65327   9.905   1.253   3.096 -3.5370  0.5747 -0.5270
  484MOL0     H65328   9.670   1.217   2.996 -0.1809  0.1301  0.7624
  484MOL0     H65329   9.693   1.384   3.038  0.1491  0.4521 -1.0045
  484MOL0     H65330   9.425   1.221   3.067 -1.7511  1.2593  2.7213
  484MOL0     H65331   9.463   1.323   2.929 -0.2649 -1.7010 -0.9972
  484MOL0     H65332   9.516   1.484   3.149  1.2242 -0.6082 -1.9024
  484MOL0     H65333   9.393   1.380   3.214 -0.7169  1.6611  0.2200
  484MOL0     H65334   9.230   1.444   3.028  1.2523 -0.3018 -2.0674
  484MOL0     H65335   9.278   1.581   3.134  1.8581 -1.1958  2.8113
  484MOL0     H65336   9.503   1.701   2.811 -0.6635  2.2934 -0.5385
  484MOL0     H65337   9.642   1.030   3.340 -1.4580 -2.4500 -3.1225
  484MOL0     H65338   9.684   0.821   3.395 -0.5794  0.1483  3.1262
  484MOL0     H65339   9.852   0.743   3.391  1.4377  1.1510  0.2041
  484MOL0     H65340   9.811   0.853   3.517  0.6968  2.2487 -0.8476
  485MOL0     O65341   7.226   6.066   7.980  0.0037 -0.5985 -0.5903
  485MOL0     C65342   7.311   6.150   8.016 -0.0275  0.1288 -0.2818
  485MOL0     O65343   7.277   6.265   8.076 -0.3622 -0.5298  0.5671
  485MOL0     C65344   7.148   6.298   8.102 -0.1809 -0.2553  0.9326
  485MOL0     C65345   7.088   6.417   8.034 -0.0788  0.0012 -1.0032
  485MOL0     C65346   6.955   6.443   8.047 -0.3226 -0.1026  0.6357
  485MOL0     C65347   6.870   6.360   8.124  0.1102  0.7793 -0.1480
  485MOL0     O65348   6.737   6.406   8.122  0.1692 -0.3127  0.3142
  485MOL0     C65349   6.632   6.313   8.162 -0.6278 -0.5352  0.1389
  485MOL0     C65350   6.502   6.395   8.182  0.3696  0.0991 -0.4823
  485MOL0     C65351   6.414   6.351   8.305 -0.5394 -0.4694  0.1884
  485MOL0     C65352   6.399   6.199   8.306 -0.5553  0.0668  0.5965
  485MOL0     C65353   6.274   6.151   8.391 -0.8434  0.7026 -0.9880
  485MOL0     C65354   6.270   6.198   8.536 -0.1996  0.7512  0.0728
  485MOL0     C65355   6.180   6.115   8.635 -0.3690  0.0432  0.2886
  485MOL0     C65356   6.058   6.046   8.561  0.4788 -0.1776 -0.2494
  485MOL0     N65357   5.961   5.993   8.656  1.4810  0.3211 -1.0161
  485MOL0     C65358   5.931   6.029   8.786  0.1367 -0.7985  0.2592
  485MOL0     C65359   5.869   5.919   8.846 -0.6476 -0.4661  0.6166
  485MOL0     C65360   5.844   5.910   9.001 -0.5910 -0.3299  0.0326
  485MOL0     C65361   5.713   5.839   9.025 -1.5975  0.6356  0.2290
  485MOL0     C65362   5.742   5.679   9.024 -0.2497  1.0961 -0.0902
  485MOL0     C65363   5.609   5.602   9.027  0.6464 -0.1146  0.3833
  485MOL0     O65364   5.509   5.664   8.944  0.7130 -0.0357  0.0437
  485MOL0     C65365   5.384   5.673   9.007 -1.1312  1.0470  1.0091
  485MOL0     C65366   5.326   5.805   8.999  0.0433 -0.4583  0.2290
  485MOL0     C65367   5.202   5.830   9.047 -1.1341 -0.2494 -0.3606
  485MOL0     C65368   5.123   5.722   9.102 -0.3547 -0.3536  0.2790
  485MOL0     C65369   4.987   5.749   9.137  0.7217  0.2389  0.0268
  485MOL0     O65370   4.931   5.861   9.082 -0.7199  0.2553 -0.1223
  485MOL0     C65371   4.808   5.894   9.116  0.0281 -0.3427  0.2852
  485MOL0     C65372   4.750   5.988   9.028 -0.9470  0.0400  0.1167
  485MOL0     C65373   4.618   6.028   9.044 -0.2487  0.4678  1.0288
  485MOL0     C65374   4.530   5.987   9.151  0.0366 -0.3208  0.0015
  485MOL0     O65375   4.399   6.035   9.180 -0.0720 -0.2681  0.6136
  485MOL0     C65376   4.328   6.120   9.087  0.0788  0.1660  0.0331
  485MOL0     C65377   4.189   6.143   9.142 -0.3695 -0.4649 -0.2828
  485MOL0     C65378   4.082   6.168   9.026 -1.0751 -0.3105  0.3597
  485MOL0     C65379   3.933   6.124   9.044 -0.2897 -1.1828  0.1963
  485MOL0     C65380   3.835   6.200   8.965  0.3789 -0.0393  0.8156
  485MOL0     C65381   3.692   6.147   8.992  0.3623  0.1021 -0.2970
  485MOL0     C65382   3.580   6.250   8.945 -1.1700  0.1612 -0.3251
  485MOL0     C65383   3.465   6.162   8.882 -0.1022  0.3473 -0.9527
  485MOL0    Cl65384   3.508   6.094   8.729  0.0930 -0.1424  0.5592
  485MOL0     C65385   4.588   5.905   9.247 -0.6323 -0.3346 -0.4278
  485MOL0     C65386   4.733   5.855   9.231  0.1926  0.3420 -0.4822
  485MOL0     O65387   4.928   5.658   9.197 -0.7490  0.5393 -1.0213
  485MOL0     C65388   5.190   5.605   9.137 -0.9243  0.0587  0.4555
  485MOL0     C65389   5.319   5.574   9.083 -0.0382  0.0202  0.3443
  485MOL0     N65390   5.871   5.822   8.750  0.1403 -0.1927  0.9365
  485MOL0     N65391   5.913   5.865   8.630  0.9761 -0.4664 -0.5528
  485MOL0     C65392   6.925   6.244   8.187 -0.0786 -0.0929  0.3794
  485MOL0     C65393   7.067   6.215   8.186 -0.1687  0.0432  0.4685
  485MOL0     C65394   7.454   6.120   7.995  0.5945 -0.1573 -0.1185
  485MOL0     C65395   7.544   6.192   8.076  0.3842 -0.2771 -0.5282
  485MOL0     C65396   7.679   6.166   8.089 -0.7474  0.3541 -0.9968
  485MOL0     C65397   7.739   6.069   8.003 -0.4115 -0.3642 -0.3965
  485MOL0     O65398   7.878   6.055   7.988 -0.3227  0.9498 -0.0041
  485MOL0     C65399   7.961   6.098   8.101 -0.3473 -0.2105  1.1182
  485MOL0     C65400   8.101   6.042   8.075  0.5744 -0.4907  0.0198
  485MOL0     C65401   8.198   6.063   8.183 -0.5331 -0.3412  1.5997
  485MOL0     C65402   8.336   5.999   8.153 -0.3413  0.0029  0.1687
  485MOL0     C65403   8.404   5.987   8.281  0.1243  0.3013  0.0042
  485MOL0     C65404   8.471   5.969   8.380 -0.5380  0.4976 -0.3172
  485MOL0     C65405   7.656   5.995   7.918  0.3554  0.2724  1.1873
  485MOL0     C65406   7.513   6.019   7.912  0.2565 -0.4404 -0.3820
  485MOL0     C65407   7.423   5.942   7.822 -1.1469 -0.7523 -0.9861
  485MOL0     H65408   7.165   6.478   7.988 -1.0061  1.0445 -1.2253
  485MOL0     H65409   6.914   6.523   7.987 -0.3959 -1.1109 -0.7196
  485MOL0     H65410   6.607   6.231   8.094  0.6625 -1.5698  0.8698
  485MOL0     H65411   6.649   6.261   8.257 -2.9176 -2.0969 -0.2237
  485MOL0     H65412   6.446   6.407   8.088 -0.4088  4.8466  0.3077
  485MOL0     H65413   6.519   6.503   8.191 -1.2974  0.3645 -0.1643
  485MOL0     H65414   6.315   6.397   8.290 -1.5030 -3.3749 -4.4262
  485MOL0     H65415   6.456   6.377   8.402 -0.9150 -2.9728  1.1091
  485MOL0     H65416   6.377   6.166   8.204  2.5080  0.2048 -0.2140
  485MOL0     H65417   6.485   6.139   8.337 -1.0734 -0.6096  0.7525
  485MOL0     H65418   6.187   6.183   8.332 -1.8950 -2.7523 -1.4964
  485MOL0     H65419   6.285   6.043   8.385  0.1818  0.7371 -0.0204
  485MOL0     H65420   6.375   6.200   8.565  0.2148 -0.8039 -1.2092
  485MOL0     H65421   6.224   6.297   8.534 -2.7131 -0.2730 -3.5104
  485MOL0     H65422   6.165   6.179   8.722  3.6427  2.4416 -0.5267
  485MOL0     H65423   6.247   6.037   8.673 -1.4668  0.5499  3.5932
  485MOL0     H65424   6.003   6.111   8.491  1.9180  0.3540 -0.9410
  485MOL0     H65425   6.099   5.972   8.492  1.2777  0.7847 -0.8455
  485MOL0     H65426   5.959   6.123   8.833 -1.0363  0.1484 -0.8475
  485MOL0     H65427   5.928   5.852   9.042  1.5352  1.5273 -1.4330
  485MOL0     H65428   5.840   6.010   9.045 -0.2369 -0.4122  0.2609
  485MOL0     H65429   5.680   5.866   9.126 -0.0553 -0.7707  1.1780
  485MOL0     H65430   5.631   5.868   8.960 -1.1438 -2.8383 -2.1962
  485MOL0     H65431   5.801   5.646   9.110  1.8059 -0.8991 -2.1283
  485MOL0     H65432   5.795   5.650   8.933  0.7981 -0.6813  1.0273
  485MOL0     H65433   5.572   5.608   9.130  0.7713 -1.2804  0.5085
  485MOL0     H65434   5.617   5.495   9.005  0.7559 -0.2047  0.8400
  485MOL0     H65435   5.374   5.885   8.943  0.9149 -0.1954  1.3057
  485MOL0     H65436   5.150   5.926   9.044 -1.8632 -0.6443 -0.7145
  485MOL0     H65437   4.811   6.023   8.945  1.7813  1.7277  2.6000
  485MOL0     H65438   4.581   6.089   8.962  0.1344 -1.8898 -1.0311
  485MOL0     H65439   4.380   6.217   9.081  0.1516  0.0576 -3.2077
  485MOL0     H65440   4.330   6.080   8.985 -3.6254 -2.6630  0.8418
  485MOL0     H65441   4.145   6.058   9.194 -0.4540 -0.2803 -0.0529
  485MOL0     H65442   4.192   6.231   9.207 -3.9486  0.6916 -1.4386
  485MOL0     H65443   4.072   6.276   9.021  0.9899  0.0365  2.2548
  485MOL0     H65444   4.123   6.127   8.933  0.9395 -0.7854  1.3987
  485MOL0     H65445   3.906   6.153   9.145 -0.7965 -1.6800  0.2121
  485MOL0     H65446   3.917   6.016   9.033 -2.0181 -0.8411 -0.9715
  485MOL0     H65447   3.857   6.211   8.859  1.7966  3.8049  1.3442
  485MOL0     H65448   3.845   6.306   8.990  1.9343 -0.4087  1.9051
  485MOL0     H65449   3.674   6.053   8.941 -1.9532 -1.0072  2.2961
  485MOL0     H65450   3.695   6.135   9.101  0.0749  1.2784 -0.1411
  485MOL0     H65451   3.616   6.325   8.873 -0.0177 -1.6682 -1.7308
  485MOL0     H65452   3.539   6.304   9.031 -2.6769  0.8967 -1.4441
  485MOL0     H65453   3.440   6.085   8.956 -2.4968  2.0948  0.2126
  485MOL0     H65454   3.375   6.224   8.875  1.4801  2.9354 -0.1364
  485MOL0     H65455   4.522   5.881   9.330 -2.1220 -0.4554 -1.6098
  485MOL0     H65456   4.771   5.796   9.313 -0.7165  1.4678  0.8049
  485MOL0     H65457   5.137   5.524   9.187 -0.2523  0.6046  2.1291
  485MOL0     H65458   5.371   5.479   9.094 -0.0619 -0.3805 -2.3294
  485MOL0     H65459   6.875   6.172   8.252 -0.3285 -1.7116 -1.5145
  485MOL0     H65460   7.117   6.125   8.222  0.4409 -1.7775 -4.1772
  485MOL0     H65461   7.511   6.277   8.135  0.0757 -0.5903 -0.2517
  485MOL0     H65462   7.744   6.212   8.162 -2.1531  1.7061 -0.5585
  485MOL0     H65463   7.928   6.047   8.192 -1.2744 -3.4419 -0.8956
  485MOL0     H65464   7.954   6.205   8.126 -1.9579 -0.4426  1.8124
  485MOL0     H65465   8.148   6.081   7.984  0.3353  1.4641  0.6849
  485MOL0     H65466   8.088   5.935   8.055  1.6613 -0.0742 -3.5896
  485MOL0     H65467   8.153   6.019   8.273 -4.7580 -1.0595 -0.5792
  485MOL0     H65468   8.200   6.172   8.194  0.5840  0.0390 -1.4287
  485MOL0     H65469   8.327   5.901   8.105  0.8082 -1.4453  2.7077
  485MOL0     H65470   8.398   6.065   8.092  1.5935  0.5349  2.5430
  485MOL0     H65471   8.548   5.949   8.452 -1.1054 -1.8006 -0.2626
  485MOL0     H65472   7.722   5.921   7.874  1.7397 -0.0607  3.6159
  485MOL0     H65473   7.373   6.016   7.760 -1.8317  0.3546  0.8244
  485MOL0     H65474   7.473   5.867   7.759  0.3671  0.7567 -1.6850
  485MOL0     H65475   7.348   5.895   7.886  0.0369  1.9330  2.6738
  486MOL0     O65476   8.460   0.410   8.706 -0.8497 -0.0774 -0.0621
  486MOL0     C65477   8.354   0.459   8.717  0.6652  0.6034 -0.8131
  486MOL0     O65478   8.259   0.415   8.806  0.8949  0.1374  0.2482
  486MOL0     C65479   8.306   0.338   8.911 -0.2894 -0.0408  0.0428
  486MOL0     C65480   8.236   0.214   8.925 -0.1428  0.2129 -0.3859
  486MOL0     C65481   8.281   0.124   9.021 -0.4430  0.6931  0.9006
  486MOL0     C65482   8.386   0.145   9.108  0.6164  0.0433  0.0434
  486MOL0     O65483   8.418   0.067   9.212 -0.0397 -0.7852 -0.6052
  486MOL0     C65484   8.329  -0.039   9.251 -0.5469 -0.0720 -0.6885
  486MOL0     C65485   8.399  -0.162   9.222 -1.6531  0.1252 -0.0647
  486MOL0     C65486   8.502  -0.214   9.321  0.5529  0.0661  0.6960
  486MOL0     C65487   8.630  -0.131   9.330  0.2773  0.3845  0.8281
  486MOL0     C65488   8.752  -0.214   9.355 -0.5085 -0.5263 -0.4780
  486MOL0     C65489   8.876  -0.118   9.353  0.2205  0.1108  0.2697
  486MOL0     C65490   9.002  -0.204   9.353  0.0758  0.0759 -0.3375
  486MOL0     C65491   9.029  -0.272   9.491  0.7268 -0.2338  0.7500
  486MOL0     N65492   9.147  -0.345   9.505  0.4369 -0.4624  0.9393
  486MOL0     C65493   9.230  -0.388   9.395 -0.4855  0.7300 -0.2252
  486MOL0     C65494   9.343  -0.428   9.462  0.1300  0.1360 -0.2617
  486MOL0     C65495   9.460  -0.501   9.392 -0.5014 -0.2818 -0.1017
  486MOL0     C65496   9.595  -0.444   9.430  0.1021 -0.3946 -0.4695
  486MOL0     C65497   9.708  -0.500   9.347  0.0268  0.2155 -0.0482
  486MOL0     C65498   9.717  -0.656   9.350 -0.1989  0.2029  0.2300
  486MOL0     O65499   9.799  -0.697   9.237 -0.5047 -0.0049 -0.6006
  486MOL0     C65500   9.939  -0.692   9.240 -0.0722 -1.2704  0.9346
  486MOL0     C65501  10.017  -0.746   9.338 -0.3746  0.4479  0.0172
  486MOL0     C65502  10.156  -0.738   9.333 -0.2749  1.0015  0.1145
  486MOL0     C65503  10.219  -0.680   9.225  0.6260  1.0640 -0.5079
  486MOL0     C65504  10.365  -0.677   9.210  0.4107  0.1684 -0.0929
  486MOL0     O65505  10.433  -0.785   9.269 -0.3897  0.3072 -0.4963
  486MOL0     C65506  10.574  -0.771   9.268  0.6602  0.4612  0.2076
  486MOL0     C65507  10.637  -0.745   9.150 -0.6057  0.1443 -0.3779
  486MOL0     C65508  10.778  -0.728   9.159 -0.8908  0.0478  0.2581
  486MOL0     C65509  10.856  -0.746   9.274 -0.2765  0.1695 -0.3061
  486MOL0     O65510  10.991  -0.730   9.275 -0.5967 -0.1380 -0.5457
  486MOL0     C65511  11.061  -0.853   9.249 -1.5073 -0.5925  0.2512
  486MOL0     C65512  11.214  -0.830   9.271 -0.3028  0.3779 -1.1378
  486MOL0     C65513  11.256  -0.793   9.413  1.1790  0.1595  0.7958
  486MOL0     C65514  11.413  -0.793   9.427  0.1847 -0.8104 -0.3943
  486MOL0     C65515  11.470  -0.762   9.570  0.8643 -0.2796  0.5057
  486MOL0     C65516  11.626  -0.760   9.567  0.2118  0.2916 -0.0511
  486MOL0     C65517  11.696  -0.762   9.702 -0.7269 -0.7993 -0.6473
  486MOL0     C65518  11.848  -0.786   9.678  0.0478 -0.1253 -0.1364
  486MOL0    Cl65519  11.911  -0.826   9.847 -0.1651 -0.1288  0.4019
  486MOL0     C65520  10.785  -0.762   9.390  0.3315  0.4374 -0.1496
  486MOL0     C65521  10.644  -0.771   9.390  0.4506  0.2644 -0.2793
  486MOL0     O65522  10.412  -0.587   9.138 -0.8997  0.7152  0.1863
  486MOL0     C65523  10.134  -0.614   9.121  0.1404 -0.5203 -0.2878
  486MOL0     C65524  10.005  -0.614   9.141  0.3442 -0.0914  0.0160
  486MOL0     N65525   9.334  -0.379   9.592 -0.1874  0.5647  0.0867
  486MOL0     N65526   9.220  -0.329   9.616 -0.5458  0.5133  0.4395
  486MOL0     C65527   8.453   0.264   9.093  0.5308  0.0838 -0.3605
  486MOL0     C65528   8.414   0.362   9.001 -0.6655  0.0692 -0.1531
  486MOL0     C65529   8.323   0.575   8.630 -0.3893 -0.5177 -0.2085
  486MOL0     C65530   8.432   0.634   8.562  0.2632 -0.4929 -0.7435
  486MOL0     C65531   8.413   0.739   8.470  0.4271  0.9761 -0.5722
  486MOL0     C65532   8.282   0.788   8.444 -0.2234 -0.0645 -1.3631
  486MOL0     O65533   8.256   0.901   8.368  0.2441 -0.6513  0.1576
  486MOL0     C65534   8.371   0.958   8.293  0.0009  0.7414  0.4521
  486MOL0     C65535   8.333   1.086   8.216  0.1980  0.0271  0.0982
  486MOL0     C65536   8.293   1.195   8.317  0.8992 -0.2760  1.4362
  486MOL0     C65537   8.238   1.320   8.258 -0.4002  0.4613  0.0730
  486MOL0     C65538   8.220   1.418   8.366  0.0076  0.5350 -0.0723
  486MOL0     C65539   8.198   1.475   8.470  1.3085 -1.0385 -0.1847
  486MOL0     C65540   8.181   0.737   8.523 -0.1539  0.1929  0.2841
  486MOL0     C65541   8.195   0.628   8.604  0.5980  0.7227 -1.1103
  486MOL0     C65542   8.064   0.577   8.666  0.7148  0.9462 -0.3918
  486MOL0     H65543   8.155   0.199   8.855 -1.0411  0.4378  0.5731
  486MOL0     H65544   8.228   0.030   9.031  0.1217  0.4778  2.0366
  486MOL0     H65545   8.321  -0.028   9.360  0.9133 -0.2989 -0.5327
  486MOL0     H65546   8.227  -0.035   9.214 -0.7814 -1.1663 -0.2062
  486MOL0     H65547   8.435  -0.159   9.119 -0.1762 -0.2927  0.4061
  486MOL0     H65548   8.322  -0.240   9.229  0.3888 -2.5178 -3.7115
  486MOL0     H65549   8.526  -0.320   9.321 -0.2659 -0.1262  0.5096
  486MOL0     H65550   8.469  -0.207   9.426  1.4994  1.8476  0.9217
  486MOL0     H65551   8.643  -0.081   9.233  1.7748  1.7165  1.6567
  486MOL0     H65552   8.633  -0.059   9.412  5.1034 -0.1953  1.4642
  486MOL0     H65553   8.726  -0.258   9.452  3.4804 -2.5241 -0.1158
  486MOL0     H65554   8.772  -0.300   9.290 -1.8372  0.0717 -1.7487
  486MOL0     H65555   8.871  -0.072   9.255  0.4893  0.3170  0.3529
  486MOL0     H65556   8.869  -0.050   9.439 -0.0578  0.1315  0.2331
  486MOL0     H65557   9.087  -0.142   9.323  1.7809 -1.3834  1.2176
  486MOL0     H65558   8.991  -0.279   9.275  0.7354 -1.3260  0.8815
  486MOL0     H65559   9.028  -0.198   9.572  2.5574  0.3896  0.2383
  486MOL0     H65560   8.943  -0.338   9.510 -0.0796  0.3535 -0.7101
  486MOL0     H65561   9.205  -0.394   9.289 -1.0184 -1.2748 -0.0255
  486MOL0     H65562   9.458  -0.609   9.406 -0.3223  0.0038  2.9061
  486MOL0     H65563   9.453  -0.488   9.284 -0.4580 -3.7525 -0.6108
  486MOL0     H65564   9.595  -0.335   9.423  1.1595 -0.3262  0.3205
  486MOL0     H65565   9.628  -0.458   9.533 -1.3592  0.1279  0.0953
  486MOL0     H65566   9.804  -0.456   9.376  0.9154 -2.1479  0.8768
  486MOL0     H65567   9.688  -0.471   9.244  1.6731  1.6886 -0.0126
  486MOL0     H65568   9.620  -0.704   9.335  0.1863 -0.1507 -1.3995
  486MOL0     H65569   9.761  -0.685   9.445 -1.4299 -4.7931 -0.4096
  486MOL0     H65570   9.974  -0.810   9.415 -0.2743 -0.4971 -0.6843
  486MOL0     H65571  10.211  -0.777   9.418  2.8849 -0.7938 -2.5158
  486MOL0     H65572  10.581  -0.743   9.058  0.4177 -0.7241 -1.0435
  486MOL0     H65573  10.823  -0.705   9.063  0.6418 -0.0665  0.9261
  486MOL0     H65574  11.025  -0.924   9.324 -2.1781 -1.0209 -0.4705
  486MOL0     H65575  11.043  -0.889   9.148 -3.3114  1.4162 -0.2208
  486MOL0     H65576  11.272  -0.921   9.257  0.2981  0.4205  0.7940
  486MOL0     H65577  11.250  -0.749   9.207 -0.4686  1.9407  0.6442
  486MOL0     H65578  11.221  -0.691   9.432  2.1740  0.3777  1.5811
  486MOL0     H65579  11.209  -0.867   9.479  1.3926  0.6698  1.5409
  486MOL0     H65580  11.465  -0.724   9.360  0.0127 -0.1146  0.1732
  486MOL0     H65581  11.441  -0.895   9.401 -1.6806 -0.8480 -2.6536
  486MOL0     H65582  11.448  -0.834   9.649 -1.8265 -0.9891 -0.7735
  486MOL0     H65583  11.438  -0.662   9.604  0.3089 -0.7927  1.5366
  486MOL0     H65584  11.661  -0.838   9.499  0.4090 -0.2050  0.6109
  486MOL0     H65585  11.658  -0.671   9.512  0.2614 -1.3321 -2.8320
  486MOL0     H65586  11.658  -0.835   9.774 -2.4140 -0.5321 -1.2393
  486MOL0     H65587  11.696  -0.661   9.743  4.6809 -1.9224  3.2341
  486MOL0     H65588  11.871  -0.861   9.602 -0.3051  0.4092 -0.7874
  486MOL0     H65589  11.905  -0.701   9.641  0.3864 -0.8601 -1.3456
  486MOL0     H65590  10.837  -0.762   9.485 -3.8381 -0.0516  2.3781
  486MOL0     H65591  10.587  -0.766   9.482  0.9729  4.9230  0.0215
  486MOL0     H65592  10.185  -0.578   9.033  1.8127 -0.4724  0.6675
  486MOL0     H65593   9.942  -0.579   9.059  0.7503  0.8428  0.0857
  486MOL0     H65594   8.545   0.278   9.149 -0.2128 -1.5465  1.3974
  486MOL0     H65595   8.468   0.455   8.989  0.6658 -0.8792 -1.9716
  486MOL0     H65596   8.524   0.581   8.587 -0.6384 -1.0712  1.6441
  486MOL0     H65597   8.491   0.790   8.414 -1.4088  4.3194 -0.3060
  486MOL0     H65598   8.399   0.884   8.217 -0.6179  1.1821 -0.2203
  486MOL0     H65599   8.464   0.979   8.347  1.0634  1.7252 -1.6401
  486MOL0     H65600   8.247   1.068   8.152 -1.4256 -0.9373  2.4272
  486MOL0     H65601   8.426   1.119   8.168  0.7403 -0.8748  0.5164
  486MOL0     H65602   8.381   1.220   8.377  1.8782  2.1178 -0.8106
  486MOL0     H65603   8.211   1.162   8.382 -0.3131  2.1245  1.2429
  486MOL0     H65604   8.303   1.368   8.184 -1.3510  0.1290 -0.9929
  486MOL0     H65605   8.143   1.302   8.207  1.1367  2.1770 -3.7894
  486MOL0     H65606   8.179   1.531   8.559  1.3614 -1.1811 -0.0818
  486MOL0     H65607   8.086   0.787   8.535  1.3326  2.9711  1.2446
  486MOL0     H65608   8.058   0.476   8.708 -1.8206  0.5791 -1.4604
  486MOL0     H65609   8.038   0.648   8.745  2.4808 -0.3152  1.4288
  486MOL0     H65610   7.986   0.577   8.590 -1.1723 -0.1745  1.4744
  487MOL0     O65611   0.671  11.155  10.458 -0.1168 -0.1006  0.2124
  487MOL0     C65612   0.618  11.237  10.380  0.7352 -0.2402 -1.1109
  487MOL0     O65613   0.672  11.352  10.339 -0.4173  0.4295  0.9810
  487MOL0     C65614   0.795  11.370  10.398 -0.1981 -0.6758  0.0408
  487MOL0     C65615   0.807  11.426  10.521 -0.8947  0.6794 -0.2006
  487MOL0     C65616   0.934  11.427  10.577  0.1369 -0.2059 -0.3645
  487MOL0     C65617   1.050  11.378  10.514  0.0240  0.0829 -0.5434
  487MOL0     O65618   1.165  11.386  10.591  0.1219  0.2342  0.0101
  487MOL0     C65619   1.295  11.352  10.548 -0.1715  0.1365  0.4234
  487MOL0     C65620   1.410  11.375  10.648  0.8132 -1.1368  1.2702
  487MOL0     C65621   1.389  11.282  10.772 -0.3547 -0.1041 -0.0915
  487MOL0     C65622   1.524  11.283  10.838 -0.7592  0.5445 -0.1118
  487MOL0     C65623   1.507  11.247  10.981 -0.3707  0.5654 -0.2350
  487MOL0     C65624   1.634  11.188  11.036 -0.1265  0.0778  0.1074
  487MOL0     C65625   1.750  11.287  11.071 -0.1310 -0.4567  0.3808
  487MOL0     C65626   1.868  11.217  11.134  0.9586 -0.0475  0.6220
  487MOL0     N65627   1.988  11.298  11.163  0.3558  0.2374  0.0880
  487MOL0     C65628   2.084  11.340  11.075 -0.3144 -0.3200  0.4600
  487MOL0     C65629   2.187  11.392  11.143  0.1543 -0.9845 -0.1869
  487MOL0     C65630   2.306  11.465  11.085  0.8117  0.3741 -0.0657
  487MOL0     C65631   2.409  11.497  11.195 -0.1098 -0.0683 -0.0007
  487MOL0     C65632   2.546  11.503  11.140 -0.1763 -1.2990  0.3663
  487MOL0     C65633   2.648  11.580  11.223  0.0667  0.6275 -0.1562
  487MOL0     O65634   2.776  11.554  11.157  0.2351 -0.4017 -0.3845
  487MOL0     C65635   2.880  11.567  11.246  0.6494 -0.2566  0.3082
  487MOL0     C65636   3.003  11.563  11.179 -0.3069 -0.7852  0.0411
  487MOL0     C65637   3.127  11.570  11.255  0.7046  1.4119 -0.1900
  487MOL0     C65638   3.123  11.613  11.394 -0.1974 -0.6672  0.1782
  487MOL0     C65639   3.247  11.626  11.464  0.2638  0.4888  0.3405
  487MOL0     O65640   3.252  11.649  11.601 -0.0405 -0.4629  0.0408
  487MOL0     C65641   3.377  11.654  11.655 -0.2143 -0.0421  0.3269
  487MOL0     C65642   3.458  11.540  11.662  0.4993  0.2920  0.2730
  487MOL0     C65643   3.585  11.536  11.710  0.3033  0.3039 -0.0933
  487MOL0     C65644   3.641  11.655  11.753  1.2639 -0.3598 -1.0855
  487MOL0     O65645   3.766  11.665  11.800 -0.1408  0.0613  0.6356
  487MOL0     C65646   3.841  11.545  11.825 -0.1495 -0.2115  0.1219
  487MOL0     C65647   3.973  11.586  11.894  0.0289  0.2702 -0.7180
  487MOL0     C65648   4.062  11.463  11.919  0.8062  0.7498 -0.3692
  487MOL0     C65649   4.197  11.518  11.971  0.0141 -0.4850  0.7344
  487MOL0     C65650   4.272  11.397  12.015 -0.3422  0.8005  0.3896
  487MOL0     C65651   4.409  11.437  12.070  0.7374 -0.0431  0.3045
  487MOL0     C65652   4.481  11.314  12.121  0.9220  1.0428  0.2541
  487MOL0     C65653   4.575  11.250  12.023 -0.4580  0.8582 -0.2085
  487MOL0    Cl65654   4.729  11.342  12.014  0.4904  0.0229  0.2078
  487MOL0     C65655   3.562  11.772  11.745 -0.4359  0.0112 -0.3944
  487MOL0     C65656   3.429  11.771  11.700  0.2393 -0.1002  0.4504
  487MOL0     O65657   3.351  11.598  11.400 -0.0128  0.1374 -0.2990
  487MOL0     C65658   3.000  11.638  11.445 -0.5983 -1.1269 -0.7660
  487MOL0     C65659   2.880  11.614  11.380  0.8949 -0.1771  0.1784
  487MOL0     N65660   2.164  11.377  11.273 -0.1410 -0.0920 -0.9967
  487MOL0     N65661   2.042  11.332  11.286  1.6897 -0.0671 -0.3453
  487MOL0     C65662   1.036  11.309  10.393 -0.1001  0.8907  0.2104
  487MOL0     C65663   0.909  11.316  10.330 -0.4935 -1.3147  0.4738
  487MOL0     C65664   0.479  11.210  10.341  0.4129 -0.0382 -0.4100
  487MOL0     C65665   0.383  11.180  10.435  0.4005  0.2889 -0.1985
  487MOL0     C65666   0.251  11.184  10.404  1.3510 -0.6721 -0.1025
  487MOL0     C65667   0.203  11.181  10.274 -0.3133 -0.1069  0.2386
  487MOL0     O65668   0.075  11.165  10.233 -0.5526  0.1087  0.2350
  487MOL0     C65669  -0.019  11.142  10.333 -0.0558  1.1068 -0.1421
  487MOL0     C65670  -0.074  11.266  10.402 -0.7540 -0.6679 -0.0429
  487MOL0     C65671  -0.186  11.246  10.502  0.2851  0.4817  0.1517
  487MOL0     C65672  -0.328  11.279  10.447 -0.2438 -0.2075  0.0996
  487MOL0     C65673  -0.356  11.205  10.319 -0.8862 -0.2259 -1.5500
  487MOL0     C65674  -0.380  11.168  10.208 -0.0944  0.0472 -0.0051
  487MOL0     C65675   0.297  11.202  10.170  0.4591  0.8135  0.8858
  487MOL0     C65676   0.434  11.215  10.206 -0.7329  0.3200  0.1660
  487MOL0     C65677   0.538  11.249  10.094 -0.2888 -0.2016  0.3607
  487MOL0     H65678   0.722  11.446  10.586 -0.8219  0.0052  0.1137
  487MOL0     H65679   0.934  11.472  10.675 -1.2669  1.1919 -0.9579
  487MOL0     H65680   1.299  11.245  10.525 -2.1484  0.1549 -0.2276
  487MOL0     H65681   1.320  11.402  10.454  0.6102 -0.4035  0.3349
  487MOL0     H65682   1.410  11.483  10.669 -2.0549 -0.6853 -0.4080
  487MOL0     H65683   1.503  11.351  10.597 -0.1799  2.4827 -2.9448
  487MOL0     H65684   1.354  11.183  10.740  2.2794 -1.5946  1.3020
  487MOL0     H65685   1.321  11.331  10.842  2.2839 -2.7832  4.8847
  487MOL0     H65686   1.596  11.217  10.789  0.7097  0.2821  2.2333
  487MOL0     H65687   1.564  11.385  10.829 -0.6390  0.4180 -1.1331
  487MOL0     H65688   1.467  11.333  11.035 -1.8064 -0.6681  0.7210
  487MOL0     H65689   1.434  11.168  10.995  0.6990 -0.2876  0.7711
  487MOL0     H65690   1.614  11.130  11.127  3.1971 -0.0794  0.8889
  487MOL0     H65691   1.668  11.118  10.959 -0.0686  0.4311 -0.1962
  487MOL0     H65692   1.723  11.374  11.131  3.3086  1.3407 -0.4312
  487MOL0     H65693   1.790  11.332  10.980 -1.3833  0.7938  0.4242
  487MOL0     H65694   1.825  11.181  11.228  1.7857  1.6161  1.6883
  487MOL0     H65695   1.886  11.128  11.073 -0.5335 -0.7062  1.1010
  487MOL0     H65696   2.071  11.346  10.967  0.0286  1.9695  0.5061
  487MOL0     H65697   2.347  11.413  10.999 -0.8468  1.0666 -1.3361
  487MOL0     H65698   2.281  11.566  11.052  0.0915 -0.3309 -1.7898
  487MOL0     H65699   2.393  11.598  11.234  1.3587  0.0899  0.2468
  487MOL0     H65700   2.395  11.425  11.277 -3.5607 -0.2314 -0.5845
  487MOL0     H65701   2.540  11.551  11.041  0.8868 -1.6942  0.1008
  487MOL0     H65702   2.588  11.403  11.124  0.1033 -1.3488  1.3885
  487MOL0     H65703   2.637  11.548  11.327  1.2672 -0.0790 -0.2196
  487MOL0     H65704   2.623  11.687  11.217 -3.0119 -0.0691 -1.8892
  487MOL0     H65705   3.014  11.551  11.072 -0.1184 -0.2683 -0.0010
  487MOL0     H65706   3.217  11.554  11.196  1.6334 -0.0937  1.5295
  487MOL0     H65707   3.416  11.449  11.619 -1.9254  1.9758 -1.1337
  487MOL0     H65708   3.647  11.447  11.716 -2.1631 -1.4540  1.0065
  487MOL0     H65709   3.791  11.470  11.888  0.3845 -0.9527 -0.3216
  487MOL0     H65710   3.866  11.486  11.737 -2.7385 -0.8678 -0.2614
  487MOL0     H65711   4.020  11.664  11.833 -0.4988 -0.9954 -2.8349
  487MOL0     H65712   3.939  11.645  11.980 -1.5914  2.0396 -2.4915
  487MOL0     H65713   4.021  11.403  12.000  1.2053  1.1193  0.1152
  487MOL0     H65714   4.079  11.404  11.828  2.4810  0.2533  0.2251
  487MOL0     H65715   4.200  11.588  12.055  0.3241 -0.0308  0.3522
  487MOL0     H65716   4.251  11.566  11.888 -1.7763 -2.0187 -1.4194
  487MOL0     H65717   4.287  11.327  11.932  1.2423 -1.0975  2.1484
  487MOL0     H65718   4.206  11.362  12.095  0.1783 -1.3514 -0.0652
  487MOL0     H65719   4.463  11.490  11.991 -0.2974  0.1904 -0.2737
  487MOL0     H65720   4.401  11.498  12.160  4.2466 -1.7605  1.9715
  487MOL0     H65721   4.409  11.236  12.149 -0.9526  2.9150  0.9520
  487MOL0     H65722   4.529  11.338  12.216  0.7562  1.3224  0.2690
  487MOL0     H65723   4.608  11.150  12.053 -0.0768  0.8509 -0.6345
  487MOL0     H65724   4.525  11.243  11.926  0.4618  2.7212 -0.8704
  487MOL0     H65725   3.594  11.869  11.782 -0.9059  0.4024 -0.9870
  487MOL0     H65726   3.363  11.857  11.707 -1.4114 -1.0497 -1.9838
  487MOL0     H65727   3.006  11.680  11.545 -0.3812 -0.9509 -0.8518
  487MOL0     H65728   2.791  11.636  11.439  0.1241 -2.9480  0.2069
  487MOL0     H65729   1.128  11.260  10.362 -0.0105 -0.4104  2.3274
  487MOL0     H65730   0.890  11.268  10.234 -3.5594 -1.0283  0.8199
  487MOL0     H65731   0.394  11.154  10.540 -0.8199 -3.1248 -0.7868
  487MOL0     H65732   0.182  11.189  10.488  3.6253  0.2549  1.8634
  487MOL0     H65733   0.000  11.062  10.405  3.2040  0.4437 -1.5659
  487MOL0     H65734  -0.102  11.094  10.280 -0.1964  1.4120 -0.2036
  487MOL0     H65735  -0.105  11.339  10.326  0.7811 -1.4900 -1.5310
  487MOL0     H65736   0.005  11.317  10.459 -2.7529  3.7842 -0.7950
  487MOL0     H65737  -0.169  11.314  10.586  1.6107  0.4830 -0.1056
  487MOL0     H65738  -0.182  11.146  10.545 -2.2412  0.6956  1.1004
  487MOL0     H65739  -0.400  11.256  10.526 -2.0374  0.6495 -1.2126
  487MOL0     H65740  -0.333  11.380  10.405 -2.6272 -0.7367 -1.0420
  487MOL0     H65741  -0.385  11.131  10.107  0.5505  0.6701 -0.2774
  487MOL0     H65742   0.260  11.203  10.068  1.0952  0.9789  0.6513
  487MOL0     H65743   0.531  11.209   9.993  2.3078 -1.4698  0.5844
  487MOL0     H65744   0.537  11.358  10.089 -0.5576 -0.2380 -0.5474
  487MOL0     H65745   0.635  11.213  10.131  0.6593 -0.0742 -1.8754
  488MOL0     O65746   5.139   3.375   6.346  0.0242 -0.8105  0.1839
  488MOL0     C65747   5.049   3.432   6.283  0.0354  0.1530  0.5245
  488MOL0     O65748   5.064   3.521   6.170 -0.2712  0.5779 -1.1152
  488MOL0     C65749   5.189   3.562   6.139 -0.2077  0.0643  1.4871
  488MOL0     C65750   5.293   3.597   6.224  1.1405  0.0801 -0.8588
  488MOL0     C65751   5.412   3.649   6.166  0.0950 -0.4547 -0.0364
  488MOL0     C65752   5.431   3.659   6.028 -0.0552  0.3612  0.7327
  488MOL0     O65753   5.547   3.724   5.985  0.2294 -0.0313 -0.8222
  488MOL0     C65754   5.539   3.798   5.864 -0.2008  0.0109 -0.8272
  488MOL0     C65755   5.678   3.869   5.845  0.1588  0.1775 -0.2933
  488MOL0     C65756   5.679   3.913   5.705  0.6693 -0.2681  0.3399
  488MOL0     C65757   5.792   4.017   5.681 -0.0715  0.2775  0.3594
  488MOL0     C65758   5.800   4.027   5.526 -0.0041 -0.3886 -0.6591
  488MOL0     C65759   5.879   4.136   5.479 -0.5959 -0.0162 -0.0618
  488MOL0     C65760   6.031   4.143   5.496 -1.1234  0.6030  0.5238
  488MOL0     C65761   6.088   3.998   5.498 -0.0517  0.8475  0.3625
  488MOL0     N65762   6.226   3.989   5.529 -0.2112  0.3241  0.7189
  488MOL0     C65763   6.323   3.924   5.461 -0.0904  0.3423  0.1471
  488MOL0     C65764   6.444   3.961   5.502  0.2299  0.9979 -0.1414
  488MOL0     C65765   6.571   3.938   5.431 -0.9952  0.3025 -0.8929
  488MOL0     C65766   6.592   4.043   5.320 -1.2838 -0.6702  0.7999
  488MOL0     C65767   6.734   4.050   5.270 -0.7725 -0.0956 -0.1551
  488MOL0     C65768   6.836   4.101   5.366 -0.9880 -0.4091 -0.6247
  488MOL0     O65769   6.964   4.128   5.299  0.8850  0.0712 -0.6603
  488MOL0     C65770   7.047   4.191   5.386  1.1763 -0.6016  0.0514
  488MOL0     C65771   7.159   4.125   5.428 -0.8173 -0.1858  0.3800
  488MOL0     C65772   7.264   4.187   5.502 -0.2902  0.2549 -0.3406
  488MOL0     C65773   7.244   4.318   5.542  1.5089  1.1349 -0.6067
  488MOL0     C65774   7.350   4.376   5.635  0.2527 -0.6744  0.6536
  488MOL0     O65775   7.450   4.301   5.679 -0.8568  0.1244  0.0931
  488MOL0     C65776   7.560   4.362   5.740  0.0558  1.4371  0.6237
  488MOL0     C65777   7.563   4.451   5.844  0.2105  1.2187 -0.4602
  488MOL0     C65778   7.688   4.502   5.896 -0.8019  0.3746 -0.3453
  488MOL0     C65779   7.803   4.470   5.831 -0.2995  0.7349  0.9154
  488MOL0     O65780   7.918   4.527   5.873  0.3198  0.3593 -0.0390
  488MOL0     C65781   8.048   4.493   5.821  0.6958 -0.5497 -0.8696
  488MOL0     C65782   8.158   4.567   5.900 -0.8703 -0.4399  0.2127
  488MOL0     C65783   8.199   4.498   6.030  0.7974  1.2613  0.7282
  488MOL0     C65784   8.308   4.581   6.108  0.2124 -0.1296  0.5686
  488MOL0     C65785   8.442   4.607   6.030 -1.0764  0.3295 -0.0259
  488MOL0     C65786   8.545   4.696   6.104 -0.2788  0.1365  0.5554
  488MOL0     C65787   8.667   4.707   6.011 -0.4455  1.3530 -0.3537
  488MOL0     C65788   8.628   4.796   5.888 -0.7533 -0.0440  0.1424
  488MOL0    Cl65789   8.760   4.833   5.788 -0.4452  0.0608 -0.0121
  488MOL0     C65790   7.803   4.377   5.731 -0.4868 -0.7880  0.0717
  488MOL0     C65791   7.683   4.321   5.690 -0.5351  0.3675 -0.0680
  488MOL0     O65792   7.331   4.492   5.674  0.7597 -0.2965  1.0708
  488MOL0     C65793   7.122   4.386   5.507  0.4075 -0.3911  0.1029
  488MOL0     C65794   7.024   4.318   5.430  0.2748  0.8356  0.8506
  488MOL0     N65795   6.426   4.041   5.611  0.5469  0.5140  0.1535
  488MOL0     N65796   6.294   4.055   5.620  0.1086 -0.0299  0.0156
  488MOL0     C65797   5.328   3.621   5.947 -0.5936 -0.4804 -0.3128
  488MOL0     C65798   5.203   3.578   6.002 -0.9484  0.8455 -0.0394
  488MOL0     C65799   4.904   3.394   6.311 -0.3868 -0.5096 -0.5009
  488MOL0     C65800   4.807   3.495   6.284 -0.3002  0.2588  0.0247
  488MOL0     C65801   4.676   3.470   6.342 -0.6599 -0.9229  0.1700
  488MOL0     C65802   4.644   3.359   6.412 -0.5240  0.2315  0.1910
  488MOL0     O65803   4.524   3.337   6.477  0.5386 -0.3830 -0.6450
  488MOL0     C65804   4.438   3.449   6.497 -0.1022 -1.3375 -0.3320
  488MOL0     C65805   4.345   3.463   6.372 -0.2309  0.1753  0.6197
  488MOL0     C65806   4.248   3.585   6.393 -0.4306  0.2184  0.2006
  488MOL0     C65807   4.322   3.720   6.379 -0.1895  0.0596 -0.3102
  488MOL0     C65808   4.405   3.741   6.253  0.1762  0.3857 -0.3345
  488MOL0     C65809   4.464   3.781   6.156 -0.1302 -0.5198 -0.1939
  488MOL0     C65810   4.736   3.253   6.413  0.1060 -0.3070  0.3078
  488MOL0     C65811   4.863   3.267   6.363 -0.4821  0.2672  0.1906
  488MOL0     C65812   4.946   3.145   6.386 -0.1840 -0.4233 -0.2276
  488MOL0     H65813   5.287   3.577   6.331 -1.3904 -1.0621 -1.1655
  488MOL0     H65814   5.501   3.678   6.221  0.4749 -0.4875 -0.6315
  488MOL0     H65815   5.505   3.741   5.777 -2.4367 -1.1535  0.7034
  488MOL0     H65816   5.475   3.884   5.883 -2.1528 -1.3245 -1.0927
  488MOL0     H65817   5.761   3.805   5.876  0.1693  0.5675  0.5027
  488MOL0     H65818   5.678   3.954   5.914  0.8521 -0.3033  0.3120
  488MOL0     H65819   5.587   3.968   5.685  0.8878 -0.1224 -0.2997
  488MOL0     H65820   5.682   3.826   5.639  0.7110 -3.4364  4.1808
  488MOL0     H65821   5.752   4.109   5.726 -1.6278  0.1686 -0.7220
  488MOL0     H65822   5.884   3.986   5.730  0.9387  1.8480 -0.4531
  488MOL0     H65823   5.836   3.935   5.479 -0.5778 -0.4142 -1.0662
  488MOL0     H65824   5.703   4.051   5.481  0.1983 -0.2066 -0.9937
  488MOL0     H65825   5.875   4.129   5.370  2.0016  1.9771 -0.4114
  488MOL0     H65826   5.828   4.232   5.494 -0.3674  0.1693 -0.4523
  488MOL0     H65827   6.061   4.187   5.591  3.2804  0.9155 -0.7673
  488MOL0     H65828   6.081   4.189   5.410 -0.0454 -1.4951 -0.0644
  488MOL0     H65829   6.040   3.933   5.571  2.7997 -1.1578  0.5919
  488MOL0     H65830   6.064   3.949   5.403 -2.0631  2.4375 -0.0254
  488MOL0     H65831   6.309   3.863   5.372  1.3667 -1.0540  0.8337
  488MOL0     H65832   6.650   3.941   5.507  0.0429  0.5718 -1.9482
  488MOL0     H65833   6.563   3.837   5.388 -2.3509 -0.1250  0.2712
  488MOL0     H65834   6.518   4.020   5.243 -1.1002 -2.8788  1.2372
  488MOL0     H65835   6.561   4.140   5.362 -1.9358 -0.8397  0.7232
  488MOL0     H65836   6.743   4.128   5.194 -2.2495  0.2925  0.0333
  488MOL0     H65837   6.769   3.954   5.230 -0.8874 -0.4181  0.5046
  488MOL0     H65838   6.849   4.038   5.454 -0.6922  0.3901 -0.0899
  488MOL0     H65839   6.788   4.192   5.403  1.0048  0.7391 -0.6980
  488MOL0     H65840   7.170   4.018   5.410  0.9802 -0.2064  1.4518
  488MOL0     H65841   7.358   4.137   5.522 -0.3184  0.1179 -0.5536
  488MOL0     H65842   7.464   4.474   5.883 -1.3714 -2.5452 -1.7579
  488MOL0     H65843   7.694   4.568   5.982 -0.2032 -0.5154  0.3134
  488MOL0     H65844   8.067   4.385   5.817 -3.9777 -1.5962 -0.5611
  488MOL0     H65845   8.056   4.519   5.715 -0.6579 -1.5264 -1.2344
  488MOL0     H65846   8.237   4.576   5.826 -1.7203 -1.1893 -0.8107
  488MOL0     H65847   8.131   4.672   5.913 -1.2723 -0.7391  2.2203
  488MOL0     H65848   8.110   4.470   6.087 -0.5985  0.3710 -1.6924
  488MOL0     H65849   8.250   4.402   6.015  1.5216  1.7669 -0.1947
  488MOL0     H65850   8.322   4.547   6.211 -0.8866  0.4842  0.9444
  488MOL0     H65851   8.260   4.679   6.118 -1.7028 -0.6442 -2.2424
  488MOL0     H65852   8.415   4.651   5.934  1.2922  3.0534  0.4356
  488MOL0     H65853   8.491   4.510   6.016 -1.0168  0.4512 -0.6813
  488MOL0     H65854   8.509   4.795   6.130  0.1720 -0.2300  2.7250
  488MOL0     H65855   8.575   4.649   6.198 -0.2909 -0.5376  0.2361
  488MOL0     H65856   8.712   4.609   5.992  1.7149  2.3344 -0.4939
  488MOL0     H65857   8.750   4.756   6.063 -0.4820  0.0168  1.0422
  488MOL0     H65858   8.555   4.751   5.822  1.7128 -0.3200 -2.6127
  488MOL0     H65859   8.579   4.889   5.918  0.6921  0.8695 -0.2006
  488MOL0     H65860   7.897   4.344   5.690  1.2436 -2.9941  5.0263
  488MOL0     H65861   7.698   4.245   5.614  0.4946  1.7049 -1.2584
  488MOL0     H65862   7.127   4.492   5.530  0.0806  0.8496 -4.4786
  488MOL0     H65863   6.934   4.365   5.392  0.7051 -0.3234 -1.8254
  488MOL0     H65864   5.334   3.640   5.841  0.5013  0.9476 -0.0301
  488MOL0     H65865   5.123   3.562   5.931  0.0154 -0.8148 -0.8184
  488MOL0     H65866   4.822   3.594   6.242  0.7666 -0.2115 -0.7342
  488MOL0     H65867   4.623   3.565   6.338  1.4940  0.3527  0.1634
  488MOL0     H65868   4.490   3.545   6.509 -3.7350  0.7001  0.6055
  488MOL0     H65869   4.371   3.440   6.583  0.2852  0.7228  0.2452
  488MOL0     H65870   4.297   3.365   6.360  2.8938 -1.4002 -0.1082
  488MOL0     H65871   4.416   3.471   6.289  0.0644  1.0364  0.9464
  488MOL0     H65872   4.183   3.578   6.480  0.8453  0.2791  1.1982
  488MOL0     H65873   4.185   3.593   6.304  0.8888  2.1240 -0.6240
  488MOL0     H65874   4.244   3.796   6.383 -0.2704  0.0072 -0.8187
  488MOL0     H65875   4.394   3.732   6.461  0.6543 -0.6415 -0.9243
  488MOL0     H65876   4.506   3.834   6.073 -2.2982  1.0020 -0.3997
  488MOL0     H65877   4.705   3.165   6.469 -0.4909 -1.1368 -1.2559
  488MOL0     H65878   5.035   3.143   6.322  0.4483  1.8053  0.4862
  488MOL0     H65879   4.989   3.159   6.486  1.9113  1.3468 -1.2779
  488MOL0     H65880   4.898   3.047   6.379  1.1864 -1.0840 -0.8313
  489MOL0     O65881   7.655   2.217   6.280 -0.0760  0.1928  0.0020
  489MOL0     C65882   7.702   2.194   6.166  0.0361 -1.2749 -0.5503
  489MOL0     O65883   7.627   2.191   6.050  0.5725 -0.2017 -0.3341
  489MOL0     C65884   7.484   2.200   6.070  0.2471 -0.8174  0.3460
  489MOL0     C65885   7.415   2.321   6.090 -0.0039 -0.2291 -0.3829
  489MOL0     C65886   7.276   2.323   6.131 -0.7033  0.3922 -0.4086
  489MOL0     C65887   7.207   2.204   6.155 -0.8853  0.1552 -0.4622
  489MOL0     O65888   7.072   2.210   6.187  0.0977 -0.1461 -0.3462
  489MOL0     C65889   7.000   2.093   6.216  0.4998  0.7822 -0.6926
  489MOL0     C65890   6.846   2.112   6.229 -0.1089  0.9191  0.4893
  489MOL0     C65891   6.764   1.970   6.210 -0.5122  0.5653  0.2775
  489MOL0     C65892   6.622   1.998   6.231 -0.1121 -0.6490 -0.2110
  489MOL0     C65893   6.530   1.876   6.210 -0.3695  0.5952 -0.2916
  489MOL0     C65894   6.389   1.920   6.215 -0.1432  0.0487 -0.1100
  489MOL0     C65895   6.281   1.813   6.174 -0.0969  0.2640 -0.2572
  489MOL0     C65896   6.284   1.755   6.022 -0.3214  0.3436  0.0408
  489MOL0     N65897   6.252   1.856   5.916  0.8636  0.0419 -0.2334
  489MOL0     C65898   6.134   1.919   5.909 -0.9561 -0.2593  0.1565
  489MOL0     C65899   6.158   2.015   5.820  0.2410  0.4113  0.0508
  489MOL0     C65900   6.058   2.100   5.754  0.6738 -0.3820 -0.0857
  489MOL0     C65901   6.081   2.105   5.610  0.1221  0.8810 -0.5103
  489MOL0     C65902   6.072   2.242   5.547 -0.0863 -0.8617  0.2136
  489MOL0     C65903   6.195   2.325   5.578  0.0959 -0.5886  0.7068
  489MOL0     O65904   6.307   2.290   5.497  1.0881 -0.3403 -0.0274
  489MOL0     C65905   6.433   2.339   5.512 -0.1777  0.9911 -0.4127
  489MOL0     C65906   6.536   2.244   5.545 -0.8299 -0.3373  0.8625
  489MOL0     C65907   6.672   2.289   5.543 -0.4533 -0.5889  0.3753
  489MOL0     C65908   6.709   2.414   5.502  0.0896 -0.9955  0.6229
  489MOL0     C65909   6.848   2.467   5.487 -0.1462 -0.9248 -1.0096
  489MOL0     O65910   6.863   2.602   5.499 -0.0889 -0.4055  0.9251
  489MOL0     C65911   6.992   2.644   5.498  0.0186 -0.2028  0.9091
  489MOL0     C65912   7.039   2.715   5.386 -0.2165  1.0502  0.4710
  489MOL0     C65913   7.172   2.750   5.380 -0.1480 -0.3760  0.2543
  489MOL0     C65914   7.259   2.732   5.482  0.0925  0.3174 -0.2553
  489MOL0     O65915   7.393   2.775   5.474 -0.5343 -0.4804 -0.3676
  489MOL0     C65916   7.486   2.766   5.585 -0.6850 -0.2260 -0.3223
  489MOL0     C65917   7.621   2.807   5.536 -0.2934  0.3140  0.1572
  489MOL0     C65918   7.705   2.829   5.662 -0.3121  0.1561 -0.3454
  489MOL0     C65919   7.850   2.855   5.630 -0.1472 -0.1208  0.1289
  489MOL0     C65920   7.930   2.873   5.767 -0.0224  0.0543  1.0805
  489MOL0     C65921   7.917   3.016   5.807  0.5612  0.0541  0.5923
  489MOL0     C65922   7.994   3.055   5.929 -0.3468  0.0537  0.6722
  489MOL0     C65923   7.959   3.194   5.977  0.5787  0.0454  0.0551
  489MOL0    Cl65924   8.091   3.256   6.092 -0.2517  0.0365 -0.0156
  489MOL0     C65925   7.219   2.664   5.593  0.5688  0.4065  0.7748
  489MOL0     C65926   7.083   2.621   5.599  1.4261 -0.7742  0.4600
  489MOL0     O65927   6.937   2.385   5.458 -0.2030 -0.2373 -0.3054
  489MOL0     C65928   6.601   2.505   5.481  0.0184  0.7532  0.9268
  489MOL0     C65929   6.470   2.472   5.492 -0.2491  0.1463  0.6876
  489MOL0     N65930   6.293   2.020   5.790 -0.0065  0.6958  0.4840
  489MOL0     N65931   6.350   1.919   5.851  0.3106  0.4851 -0.1572
  489MOL0     C65932   7.268   2.089   6.116 -0.2324 -0.4458  0.4285
  489MOL0     C65933   7.403   2.079   6.070  0.3972 -0.5328  0.5865
  489MOL0     C65934   7.853   2.189   6.151  0.8365  0.3648 -0.6614
  489MOL0     C65935   7.916   2.213   6.028 -0.9333 -0.6457 -0.2360
  489MOL0     C65936   8.057   2.201   6.005  0.3308  0.0161  0.0549
  489MOL0     C65937   8.147   2.163   6.103 -0.3024 -0.0952  0.3621
  489MOL0     O65938   8.281   2.117   6.087  0.4840  0.1089 -0.2280
  489MOL0     C65939   8.317   2.048   5.968  0.0181 -0.2085  1.1071
  489MOL0     C65940   8.462   2.090   5.935 -0.0216 -0.2089 -0.2722
  489MOL0     C65941   8.544   1.969   5.880 -0.1554 -0.4585  0.2713
  489MOL0     C65942   8.662   2.008   5.792  0.1783 -0.3051  0.9338
  489MOL0     C65943   8.719   1.885   5.735  0.5805  0.1265 -1.0066
  489MOL0     C65944   8.764   1.771   5.724  0.1516 -0.1874  0.7091
  489MOL0     C65945   8.086   2.145   6.228  0.9459 -0.2167  0.6394
  489MOL0     C65946   7.946   2.164   6.256 -0.1662 -0.9263 -0.6023
  489MOL0     C65947   7.906   2.152   6.406 -1.0558 -0.1452  0.5564
  489MOL0     H65948   7.475   2.412   6.085  0.5607 -0.5829 -0.1780
  489MOL0     H65949   7.226   2.417   6.151 -1.8834 -0.3571  0.3401
  489MOL0     H65950   7.015   2.016   6.140 -0.4833 -0.9094  0.7405
  489MOL0     H65951   7.033   2.041   6.307  1.8879  1.6555 -0.6536
  489MOL0     H65952   6.800   2.183   6.159 -4.9074 -0.5356  1.7909
  489MOL0     H65953   6.823   2.153   6.327 -0.8886  0.2185  0.6097
  489MOL0     H65954   6.797   1.900   6.288 -1.7917 -0.2658  0.0915
  489MOL0     H65955   6.780   1.919   6.115 -0.3368  2.6223 -0.8469
  489MOL0     H65956   6.604   2.033   6.333  0.1881  0.0826 -0.4024
  489MOL0     H65957   6.591   2.075   6.160 -0.6608  1.7464  2.4595
  489MOL0     H65958   6.541   1.815   6.120 -0.1579 -3.6459  2.3147
  489MOL0     H65959   6.541   1.803   6.291 -2.5521  0.4073 -0.1144
  489MOL0     H65960   6.359   1.953   6.315  0.0296 -1.1305  0.3474
  489MOL0     H65961   6.389   2.003   6.143 -0.4724 -1.8054 -2.3994
  489MOL0     H65962   6.179   1.851   6.178  0.1631  1.2122 -1.7872
  489MOL0     H65963   6.289   1.723   6.237  2.9010 -1.5334 -2.8816
  489MOL0     H65964   6.386   1.719   6.006  0.5372  2.4515  0.3846
  489MOL0     H65965   6.221   1.665   6.019 -0.3558  0.1334  3.2422
  489MOL0     H65966   6.041   1.881   5.950 -0.7678  0.5245  1.3529
  489MOL0     H65967   5.963   2.052   5.779  0.0117  1.4603  1.1503
  489MOL0     H65968   6.056   2.200   5.800  1.3491  0.6517 -2.1648
  489MOL0     H65969   6.179   2.060   5.592  2.4873  4.9376  0.8768
  489MOL0     H65970   6.001   2.044   5.567  1.6006 -2.5637  1.2290
  489MOL0     H65971   5.985   2.292   5.590  0.0164  0.3886 -0.9756
  489MOL0     H65972   6.053   2.231   5.439 -2.2995 -1.5585  0.6347
  489MOL0     H65973   6.216   2.321   5.685  0.2497  2.3113  0.8582
  489MOL0     H65974   6.179   2.429   5.551  0.2820 -1.1760 -1.9011
  489MOL0     H65975   6.503   2.143   5.570  0.6342 -0.4377  2.6260
  489MOL0     H65976   6.737   2.204   5.564 -1.5204 -1.1726  1.4081
  489MOL0     H65977   6.968   2.736   5.307 -0.6176  2.2259  1.1220
  489MOL0     H65978   7.202   2.807   5.292 -1.2549 -0.4872 -0.2141
  489MOL0     H65979   7.465   2.851   5.650 -0.2138  0.2070 -0.7302
  489MOL0     H65980   7.486   2.666   5.629  0.1999  0.0042  0.2363
  489MOL0     H65981   7.653   2.736   5.459 -1.5160 -0.7190  0.5679
  489MOL0     H65982   7.607   2.900   5.480 -0.3627 -1.6907 -3.4236
  489MOL0     H65983   7.668   2.922   5.707 -0.4962  0.9079 -1.9949
  489MOL0     H65984   7.706   2.743   5.730  2.4644  0.2186 -0.1765
  489MOL0     H65985   7.865   2.938   5.559 -0.6514 -0.8818 -0.8946
  489MOL0     H65986   7.887   2.763   5.584  2.5038  1.5356 -1.3596
  489MOL0     H65987   8.036   2.858   5.744  0.0322 -1.0267  1.9508
  489MOL0     H65988   7.900   2.804   5.845 -4.2244 -2.0263 -1.9955
  489MOL0     H65989   7.948   3.086   5.729 -2.6151  0.2282 -0.6537
  489MOL0     H65990   7.810   3.039   5.811  0.3928 -0.6955  0.5280
  489MOL0     H65991   8.102   3.043   5.913 -0.5104 -3.4494  1.4384
  489MOL0     H65992   7.973   2.985   6.010 -2.2678 -0.1607  0.0364
  489MOL0     H65993   7.948   3.259   5.889 -0.0527  0.9000  0.7432
  489MOL0     H65994   7.861   3.195   6.027  0.4981 -1.1692 -0.0507
  489MOL0     H65995   7.283   2.642   5.678  0.9274 -1.7452  0.0179
  489MOL0     H65996   7.049   2.573   5.690  0.1522  0.0075  0.4306
  489MOL0     H65997   6.621   2.610   5.460 -1.5296  1.6293  3.5239
  489MOL0     H65998   6.389   2.544   5.482  0.7640  1.6143  2.3252
  489MOL0     H65999   7.222   1.991   6.114 -0.8057 -0.1816  0.5351
  489MOL0     H66000   7.449   1.982   6.051 -1.3761 -1.3766  0.3559
  489MOL0     H66001   7.844   2.247   5.954 -2.2357 -2.6577  0.0333
  489MOL0     H66002   8.095   2.211   5.904  1.5739 -0.1019  0.4854
  489MOL0     H66003   8.259   2.078   5.880  1.7250 -0.7504 -0.2526
  489MOL0     H66004   8.313   1.940   5.985  2.7501 -0.9529 -1.8599
  489MOL0     H66005   8.504   2.119   6.032  2.2470 -2.1221 -0.5812
  489MOL0     H66006   8.459   2.175   5.866 -1.0234  1.2922  1.5420
  489MOL0     H66007   8.474   1.913   5.817 -2.1105  3.0215 -0.9176
  489MOL0     H66008   8.576   1.912   5.968 -0.9412  1.0539  1.5858
  489MOL0     H66009   8.635   2.076   5.710  3.3327  1.6619  1.3632
  489MOL0     H66010   8.735   2.064   5.851  0.0526  0.5210  0.3354
  489MOL0     H66011   8.801   1.671   5.718  1.2047  0.2574 -1.2684
  489MOL0     H66012   8.144   2.101   6.308  0.1316 -2.1381  0.2250
  489MOL0     H66013   7.832   2.071   6.411  0.7377 -2.0272 -1.4586
  489MOL0     H66014   7.995   2.128   6.465  1.0092  3.3922 -0.8022
  489MOL0     H66015   7.889   2.250   6.453  4.8132  0.5433  2.0891
  490MOL0     O66016   7.627  11.065   4.312  0.2637  0.0545  0.0323
  490MOL0     C66017   7.687  11.100   4.206 -0.7188  0.2064  0.6828
  490MOL0     O66018   7.623  11.164   4.099 -0.6259 -0.5322 -0.6686
  490MOL0     C66019   7.488  11.168   4.097  0.5739 -0.0909  0.0576
  490MOL0     C66020   7.404  11.220   4.196 -0.6525  0.5673 -1.0295
  490MOL0     C66021   7.272  11.226   4.181  0.2617 -0.2668 -0.8144
  490MOL0     C66022   7.212  11.180   4.068  0.1423 -0.2579 -0.0539
  490MOL0     O66023   7.079  11.176   4.059  0.3221  0.4218  0.3410
  490MOL0     C66024   7.001  11.138   3.936  0.0433 -0.1943 -0.4680
  490MOL0     C66025   6.867  11.203   3.929 -0.4967 -0.0105  0.1714
  490MOL0     C66026   6.873  11.350   3.964 -0.0426  0.0945  0.0456
  490MOL0     C66027   6.743  11.426   3.930 -0.5677  0.5050 -1.2147
  490MOL0     C66028   6.627  11.397   4.023  0.3068  0.7083  0.4344
  490MOL0     C66029   6.518  11.507   3.986  0.4280  0.2777  0.3655
  490MOL0     C66030   6.386  11.479   4.052 -0.5661 -0.2186  0.0974
  490MOL0     C66031   6.369  11.545   4.188 -0.3246 -0.3751  0.4564
  490MOL0     N66032   6.348  11.687   4.187 -0.2611  0.4608  0.2674
  490MOL0     C66033   6.264  11.768   4.111 -0.1981  0.5809  0.8498
  490MOL0     C66034   6.309  11.889   4.116  0.1439 -0.0568  0.1532
  490MOL0     C66035   6.258  11.997   4.032  0.4915 -0.0837 -0.2569
  490MOL0     C66036   6.138  12.068   4.090  0.7196 -0.0424  0.2082
  490MOL0     C66037   6.160  12.142   4.223 -0.2481 -0.3298  0.0030
  490MOL0     C66038   6.209  12.293   4.219  0.2596 -0.0577 -0.3287
  490MOL0     O66039   6.351  12.290   4.228 -0.6632  0.5868 -0.5260
  490MOL0     C66040   6.426  12.402   4.207  0.1133  0.2846 -0.4993
  490MOL0     C66041   6.367  12.532   4.235  0.9998  0.1438 -0.0312
  490MOL0     C66042   6.446  12.646   4.216  0.2611 -0.4343 -0.7227
  490MOL0     C66043   6.581  12.643   4.188  0.3351 -0.1208  0.0105
  490MOL0     C66044   6.670  12.766   4.179  0.4091 -0.2562 -0.4739
  490MOL0     O66045   6.781  12.766   4.109  0.1222 -0.4434 -0.4356
  490MOL0     C66046   6.867  12.881   4.109  0.4013 -0.6274 -0.4142
  490MOL0     C66047   6.999  12.859   4.105  0.1752  0.0404 -0.4149
  490MOL0     C66048   7.083  12.972   4.098 -0.8072  0.9703 -0.0097
  490MOL0     C66049   7.043  13.105   4.078 -0.1778 -0.0153 -0.4622
  490MOL0     O66050   7.136  13.200   4.062 -0.2667 -0.2448  0.6700
  490MOL0     C66051   7.109  13.340   4.050 -0.0467  0.0690 -0.8895
  490MOL0     C66052   7.217  13.410   4.130 -0.4640 -0.7723  0.2685
  490MOL0     C66053   7.338  13.455   4.057  0.1782 -0.3254 -0.3282
  490MOL0     C66054   7.412  13.328   3.994  0.2508 -0.1347 -0.4509
  490MOL0     C66055   7.555  13.367   3.936  0.2858 -0.2105  0.0236
  490MOL0     C66056   7.626  13.498   4.005  0.3540  0.2661 -0.1065
  490MOL0     C66057   7.769  13.538   3.965 -0.2701  0.3297 -0.1509
  490MOL0     C66058   7.876  13.453   4.040 -0.3760  0.2939  0.0199
  490MOL0    Cl66059   7.870  13.278   4.021 -0.6060 -0.2533  0.1977
  490MOL0     C66060   6.907  13.127   4.077 -0.3309  0.4816 -1.1390
  490MOL0     C66061   6.819  13.014   4.091 -0.1524 -0.0031  0.7777
  490MOL0     O66062   6.617  12.870   4.227  0.2041 -0.3397  0.6293
  490MOL0     C66063   6.632  12.521   4.149 -0.1665 -0.3194 -0.4562
  490MOL0     C66064   6.557  12.401   4.170 -0.1004  0.7001 -0.2610
  490MOL0     N66065   6.413  11.886   4.210 -0.0623  0.0084  0.2904
  490MOL0     N66066   6.428  11.772   4.252  0.0476 -0.9270 -0.9385
  490MOL0     C66067   7.292  11.110   3.978  0.6956  0.5300  0.8942
  490MOL0     C66068   7.430  11.106   3.985  0.5846 -0.6727 -0.0790
  490MOL0     C66069   7.839  11.060   4.194  0.0272 -0.0945 -0.2984
  490MOL0     C66070   7.882  10.941   4.259  0.2438 -0.3840 -0.2432
  490MOL0     C66071   8.013  10.903   4.244 -0.5423  0.0494 -0.6320
  490MOL0     C66072   8.105  10.972   4.164  0.5835 -0.0798  0.5403
  490MOL0     O66073   8.225  10.933   4.125 -0.0611 -0.6090  0.1288
  490MOL0     C66074   8.305  10.898   4.238 -0.9591 -0.5000  0.3968
  490MOL0     C66075   8.460  10.915   4.205  0.5995  0.3438 -0.2736
  490MOL0     C66076   8.506  11.051   4.156 -0.2867  0.6605  0.6360
  490MOL0     C66077   8.475  11.175   4.245  0.5275 -0.7280 -0.4042
  490MOL0     C66078   8.537  11.155   4.379  0.1396 -1.0857 -0.0655
  490MOL0     C66079   8.570  11.139   4.492 -0.3959 -0.9360  0.6750
  490MOL0     C66080   8.062  11.087   4.098  0.0608  0.3583  0.6431
  490MOL0     C66081   7.931  11.139   4.122 -0.8981 -0.6883 -0.3819
  490MOL0     C66082   7.893  11.265   4.052  0.2179 -0.7693 -0.3485
  490MOL0     H66083   7.450  11.238   4.293 -0.7500 -2.3100 -0.3590
  490MOL0     H66084   7.210  11.264   4.262  2.1461 -1.5959  1.3965
  490MOL0     H66085   7.059  11.177   3.852 -1.4828  1.9014 -0.6430
  490MOL0     H66086   6.985  11.030   3.931 -1.9707 -0.0432  1.1905
  490MOL0     H66087   6.795  11.147   3.990 -1.3724 -1.0300 -1.6881
  490MOL0     H66088   6.827  11.192   3.827 -0.4743 -3.3993  0.3955
  490MOL0     H66089   6.957  11.389   3.906 -0.4024 -2.3215 -2.3173
  490MOL0     H66090   6.889  11.354   4.072  0.1484 -0.6519  0.0508
  490MOL0     H66091   6.777  11.529   3.946  4.1045 -1.2520  2.3292
  490MOL0     H66092   6.713  11.412   3.825  2.3282 -0.2491 -2.0226
  490MOL0     H66093   6.600  11.295   3.994  2.2603  0.5194 -0.9571
  490MOL0     H66094   6.652  11.401   4.130 -0.2318 -0.5332  0.6195
  490MOL0     H66095   6.550  11.605   4.021  1.8503 -0.3899  1.0218
  490MOL0     H66096   6.503  11.521   3.879 -0.1020  1.2296  0.5535
  490MOL0     H66097   6.361  11.374   4.067  0.2466 -0.4466 -0.1365
  490MOL0     H66098   6.316  11.518   3.976 -0.6129  1.9549  1.1673
  490MOL0     H66099   6.295  11.488   4.244  0.4981 -0.1445  1.8021
  490MOL0     H66100   6.463  11.526   4.240 -0.1030  0.1638  0.2519
  490MOL0     H66101   6.186  11.741   4.042  3.5052 -3.0613 -2.4563
  490MOL0     H66102   6.341  12.068   4.025  0.3166  0.1177 -0.3212
  490MOL0     H66103   6.223  11.971   3.932  1.1523 -0.5267 -0.3747
  490MOL0     H66104   6.108  12.152   4.027  0.8614  1.3266  1.8914
  490MOL0     H66105   6.055  11.997   4.085  0.8805 -0.1615 -2.9536
  490MOL0     H66106   6.233  12.084   4.281 -0.7457 -1.7146 -0.7082
  490MOL0     H66107   6.071  12.141   4.286  0.7059  1.6248  1.4725
  490MOL0     H66108   6.175  12.353   4.304  2.8943  2.3127 -0.7864
  490MOL0     H66109   6.169  12.348   4.132  1.3359  1.7840  0.2765
  490MOL0     H66110   6.267  12.538   4.276  0.9677 -2.6309  0.5518
  490MOL0     H66111   6.405  12.746   4.226  0.2575 -0.5572  0.7463
  490MOL0     H66112   7.022  12.753   4.097  1.2922  0.3934 -4.8345
  490MOL0     H66113   7.190  12.959   4.095 -0.9044 -0.3587  1.2335
  490MOL0     H66114   7.098  13.375   3.947 -0.1540  0.0191 -0.8938
  490MOL0     H66115   7.011  13.365   4.092  0.4625 -0.0062  0.3994
  490MOL0     H66116   7.173  13.504   4.165 -3.0289 -1.1244 -1.6831
  490MOL0     H66117   7.249  13.346   4.213  1.7300 -0.0541  0.0381
  490MOL0     H66118   7.318  13.538   3.988 -0.8926 -0.7000 -0.4893
  490MOL0     H66119   7.402  13.492   4.137  0.5817 -0.2363 -0.6850
  490MOL0     H66120   7.356  13.263   3.926  4.1945 -3.2859 -1.0941
  490MOL0     H66121   7.434  13.268   4.083  1.4452  1.0723  0.0994
  490MOL0     H66122   7.537  13.389   3.830  1.0440 -2.6494 -0.6716
  490MOL0     H66123   7.620  13.280   3.941  0.1251 -0.2716  1.3776
  490MOL0     H66124   7.558  13.580   3.982  1.1711  0.5433 -1.7493
  490MOL0     H66125   7.623  13.486   4.113  1.4821  0.2369 -0.0643
  490MOL0     H66126   7.795  13.640   3.993 -2.7546  0.8347  0.5340
  490MOL0     H66127   7.782  13.542   3.857  1.4581 -3.5259 -0.2601
  490MOL0     H66128   7.975  13.481   4.003  0.6604 -0.9019  1.7675
  490MOL0     H66129   7.859  13.485   4.143 -1.1817  3.4650 -0.9681
  490MOL0     H66130   6.866  13.226   4.061 -0.9921  0.3676 -0.1780
  490MOL0     H66131   6.712  13.036   4.096 -0.0429  0.8479 -0.2828
  490MOL0     H66132   6.729  12.520   4.100  0.0808 -3.9157 -0.1541
  490MOL0     H66133   6.597  12.303   4.147  0.5013  1.1729 -1.2841
  490MOL0     H66134   7.237  11.072   3.892  0.3104  1.1593  0.8538
  490MOL0     H66135   7.486  11.077   3.897  0.7869  1.8042 -0.8462
  490MOL0     H66136   7.812  10.873   4.306 -1.7618  1.6791 -0.0770
  490MOL0     H66137   8.034  10.810   4.296 -2.9504 -0.1780  0.0540
  490MOL0     H66138   8.273  10.797   4.261 -3.1434 -1.2476 -4.5379
  490MOL0     H66139   8.288  10.965   4.323 -0.8566 -2.8394  2.3390
  490MOL0     H66140   8.482  10.836   4.132  1.9489  1.1743 -0.8094
  490MOL0     H66141   8.510  10.893   4.300 -0.1078 -0.1058  0.0037
  490MOL0     H66142   8.452  11.079   4.065 -2.4619 -1.0757  1.2810
  490MOL0     H66143   8.613  11.046   4.136 -0.2621 -2.6452  0.9428
  490MOL0     H66144   8.510  11.266   4.195  0.5988  1.1512  2.7908
  490MOL0     H66145   8.369  11.185   4.268  0.2925  0.9629 -1.9304
  490MOL0     H66146   8.584  11.121   4.596 -2.6071 -0.0406  1.1884
  490MOL0     H66147   8.123  11.138   4.025 -1.3525  2.5626  0.9035
  490MOL0     H66148   7.850  11.336   4.123  3.2685  0.8505  0.0794
  490MOL0     H66149   7.984  11.312   4.012  1.7813 -3.2394  0.1346
  490MOL0     H66150   7.823  11.257   3.968  1.1895 -1.8748 -1.0785
  491MOL0     O66151   9.390   8.301   3.796  0.2870 -0.3499  0.1575
  491MOL0     C66152   9.311   8.315   3.891 -0.2932 -0.4171  0.2285
  491MOL0     O66153   9.340   8.380   4.003  0.3117  0.1012 -0.4450
  491MOL0     C66154   9.466   8.387   4.046 -0.1119 -0.1627 -0.0884
  491MOL0     C66155   9.537   8.508   4.050  1.1045 -0.2294  0.7319
  491MOL0     C66156   9.668   8.525   4.103  0.2112 -0.7494 -0.5752
  491MOL0     C66157   9.735   8.417   4.156 -0.2806 -0.2337 -0.1639
  491MOL0     O66158   9.867   8.446   4.186  0.5584  0.1139 -0.9612
  491MOL0     C66159   9.953   8.340   4.243  0.5888  0.1652  0.6139
  491MOL0     C66160  10.082   8.397   4.299  0.1977  0.1824 -0.1448
  491MOL0     C66161  10.194   8.306   4.335 -0.1259 -0.3310  0.1726
  491MOL0     C66162  10.313   8.378   4.407  0.3469  0.0131  0.6547
  491MOL0     C66163  10.416   8.288   4.480 -0.7371 -0.5161 -0.5497
  491MOL0     C66164  10.354   8.199   4.599  0.3125 -0.0045 -0.0166
  491MOL0     C66165  10.461   8.124   4.683  0.3483 -0.3607 -0.3530
  491MOL0     C66166  10.541   8.217   4.775  0.7689 -1.6671  0.0851
  491MOL0     N66167  10.658   8.142   4.827 -0.1771  0.8048 -0.1388
  491MOL0     C66168  10.668   8.073   4.944  0.4111 -0.1922  0.1180
  491MOL0     C66169  10.797   8.073   4.971 -0.0746  0.5826 -0.3189
  491MOL0     C66170  10.865   8.005   5.096 -0.4087 -0.2209 -0.0374
  491MOL0     C66171  10.893   7.855   5.072  0.1471 -0.1348  0.3098
  491MOL0     C66172  10.765   7.767   5.078  0.1291 -1.0182 -0.9511
  491MOL0     C66173  10.699   7.735   5.214 -0.1652  0.1699  0.4421
  491MOL0     O66174  10.806   7.688   5.296 -0.3634 -0.5919  0.0656
  491MOL0     C66175  10.828   7.551   5.302  1.1141  0.2837  1.2389
  491MOL0     C66176  10.749   7.458   5.232  0.8133 -0.4847  0.2983
  491MOL0     C66177  10.774   7.318   5.250 -0.6310 -1.0484 -1.2198
  491MOL0     C66178  10.871   7.276   5.333 -0.4174 -0.1425  0.4450
  491MOL0     C66179  10.888   7.136   5.354  0.3084 -0.5347  0.4657
  491MOL0     O66180  11.013   7.100   5.394  0.3131  0.4695  0.3060
  491MOL0     C66181  11.049   6.969   5.381 -0.0910  0.9666 -0.2171
  491MOL0     C66182  11.143   6.922   5.477 -0.5812 -0.3844 -0.1368
  491MOL0     C66183  11.193   6.792   5.473 -0.0175 -0.8743 -0.3724
  491MOL0     C66184  11.156   6.705   5.378 -0.1487 -0.5966  0.1745
  491MOL0     O66185  11.180   6.573   5.376  0.0926 -0.0078 -0.5840
  491MOL0     C66186  11.272   6.511   5.468 -0.1044  0.3358  1.1417
  491MOL0     C66187  11.306   6.370   5.414 -0.0641 -0.4857 -1.0906
  491MOL0     C66188  11.449   6.311   5.462 -0.9789  0.2990 -1.0317
  491MOL0     C66189  11.536   6.264   5.354  0.3160  0.4020  0.2524
  491MOL0     C66190  11.487   6.134   5.290 -0.0252 -0.0904 -0.0819
  491MOL0     C66191  11.562   6.097   5.158  0.2598  0.4385  0.5236
  491MOL0     C66192  11.718   6.114   5.154 -1.1044  0.6660  0.3578
  491MOL0     C66193  11.786   6.090   5.011  0.3462 -0.4547 -1.2067
  491MOL0    Cl66194  11.764   5.918   4.952 -0.0904 -0.3687 -0.4475
  491MOL0     C66195  11.052   6.748   5.283  0.2686  1.6833 -0.2878
  491MOL0     C66196  11.012   6.879   5.282  0.7444 -0.5575  0.7300
  491MOL0     O66197  10.793   7.058   5.333  0.0227 -0.7886  0.0591
  491MOL0     C66198  10.946   7.366   5.407  0.4980  0.3736  0.0429
  491MOL0     C66199  10.914   7.502   5.399 -0.3295  0.1359 -0.1865
  491MOL0     N66200  10.872   8.115   4.869 -0.0757  0.7100  1.1852
  491MOL0     N66201  10.787   8.161   4.783  0.3786 -0.5263 -0.4022
  491MOL0     C66202   9.675   8.285   4.140  0.8596 -0.1337 -0.0453
  491MOL0     C66203   9.533   8.278   4.096 -0.2452  0.3224 -0.5039
  491MOL0     C66204   9.164   8.274   3.881 -0.1529 -0.7021 -0.1011
  491MOL0     C66205   9.083   8.288   4.000  0.4921 -0.4696  0.4623
  491MOL0     C66206   8.947   8.246   3.999 -0.0069  0.4987 -0.2937
  491MOL0     C66207   8.894   8.169   3.889  0.1890 -0.4476 -1.2751
  491MOL0     O66208   8.769   8.114   3.883  0.7380  0.0937  0.0631
  491MOL0     C66209   8.672   8.166   3.977 -0.7196  0.1153  0.7239
  491MOL0     C66210   8.536   8.114   3.952 -0.9459 -0.4809  0.0809
  491MOL0     C66211   8.519   7.965   3.940 -0.4270  0.5222  0.1932
  491MOL0     C66212   8.399   7.922   3.856 -0.8564  0.8834  0.1142
  491MOL0     C66213   8.277   7.955   3.930  0.1735 -0.5409  0.2504
  491MOL0     C66214   8.183   7.964   4.001  0.0073 -0.3618  0.6894
  491MOL0     C66215   8.978   8.152   3.778  0.9703  0.0080 -0.5641
  491MOL0     C66216   9.111   8.205   3.766 -0.4189 -0.2592 -0.5158
  491MOL0     C66217   9.188   8.159   3.639  0.2360 -0.5480  0.2031
  491MOL0     H66218   9.482   8.593   4.011  0.5900  0.2032  2.2998
  491MOL0     H66219   9.725   8.617   4.091 -1.2484  0.2602 -0.0193
  491MOL0     H66220   9.911   8.292   4.332  0.4068 -0.7899  0.0282
  491MOL0     H66221   9.967   8.262   4.168  0.3852 -1.7514  2.4607
  491MOL0     H66222  10.066   8.446   4.396 -2.1100 -4.5909  2.1888
  491MOL0     H66223  10.126   8.460   4.221  1.2691  0.3639  0.5789
  491MOL0     H66224  10.240   8.275   4.241 -0.5850 -1.8204  0.4137
  491MOL0     H66225  10.154   8.218   4.386  1.6780 -0.8050  0.8379
  491MOL0     H66226  10.358   8.454   4.343  0.5424 -0.9735 -0.4119
  491MOL0     H66227  10.275   8.430   4.496  0.8314  0.4491  0.6127
  491MOL0     H66228  10.478   8.223   4.419 -0.3333 -1.2704  0.6207
  491MOL0     H66229  10.493   8.355   4.520 -1.7792  0.7303 -0.5433
  491MOL0     H66230  10.282   8.258   4.656 -1.5338 -0.7265 -1.4815
  491MOL0     H66231  10.290   8.122   4.555  2.9545 -1.4163 -1.7377
  491MOL0     H66232  10.515   8.049   4.625 -0.6782 -0.5658 -1.0685
  491MOL0     H66233  10.416   8.056   4.757  1.3366 -0.9651 -0.2891
  491MOL0     H66234  10.575   8.307   4.723 -2.3509  0.0255  0.7454
  491MOL0     H66235  10.475   8.262   4.850  0.5370  0.5594 -1.3550
  491MOL0     H66236  10.590   8.041   5.012 -0.5227  0.3781 -0.6649
  491MOL0     H66237  10.957   8.061   5.111 -1.8671  2.3689 -0.2811
  491MOL0     H66238  10.810   8.026   5.189  0.8386  1.8722  0.2788
  491MOL0     H66239  10.938   7.848   4.973 -0.9041 -1.3831 -0.1220
  491MOL0     H66240  10.962   7.812   5.146 -1.6081 -1.3655  1.3237
  491MOL0     H66241  10.780   7.668   5.033  0.2488 -1.4128 -0.0677
  491MOL0     H66242  10.691   7.814   5.013  1.7495  2.2131 -0.6505
  491MOL0     H66243  10.611   7.671   5.205 -0.0498 -0.1082  1.2037
  491MOL0     H66244  10.667   7.831   5.254  0.5156 -0.0829  1.6501
  491MOL0     H66245  10.673   7.486   5.160 -2.9487 -0.3460  3.8786
  491MOL0     H66246  10.736   7.243   5.181  0.4828 -0.0135 -3.0406
  491MOL0     H66247  11.174   7.001   5.545  0.3999 -0.2655 -0.7036
  491MOL0     H66248  11.263   6.763   5.551  0.9458  4.0705  0.9290
  491MOL0     H66249  11.367   6.564   5.473  0.2610  0.2203 -2.1130
  491MOL0     H66250  11.221   6.503   5.564 -0.7397 -4.7988  0.6540
  491MOL0     H66251  11.218   6.313   5.447 -0.3187  0.0566 -0.8037
  491MOL0     H66252  11.314   6.360   5.306 -0.8941 -3.2897 -0.9557
  491MOL0     H66253  11.508   6.378   5.526  1.8781 -1.0799 -2.0645
  491MOL0     H66254  11.426   6.234   5.536  0.2887 -1.5452 -2.4629
  491MOL0     H66255  11.633   6.234   5.396  1.1907 -0.8564 -2.4659
  491MOL0     H66256  11.535   6.340   5.276 -0.3229 -0.7100 -0.8473
  491MOL0     H66257  11.386   6.162   5.259  1.3532  4.2582 -1.4766
  491MOL0     H66258  11.496   6.048   5.356 -1.2865  0.5086  0.9204
  491MOL0     H66259  11.541   5.993   5.133  4.3530 -1.5262  3.9476
  491MOL0     H66260  11.514   6.153   5.077  0.1482  0.1290  0.3729
  491MOL0     H66261  11.769   6.040   5.217  0.7764 -0.4423 -2.2678
  491MOL0     H66262  11.752   6.213   5.186  3.2004 -1.0470  1.8628
  491MOL0     H66263  11.739   6.160   4.941 -0.7490  0.3861  0.3024
  491MOL0     H66264  11.894   6.109   5.018 -0.0963  1.7592  1.5535
  491MOL0     H66265  11.002   6.689   5.207  1.2476  0.2306  0.1502
  491MOL0     H66266  10.937   6.916   5.213  1.5819 -3.2590 -1.8523
  491MOL0     H66267  11.022   7.321   5.469 -0.2681 -2.6901 -1.0514
  491MOL0     H66268  10.967   7.582   5.451  0.0542 -1.1780  1.5493
  491MOL0     H66269   9.727   8.191   4.155 -2.7452 -2.8284 -2.5413
  491MOL0     H66270   9.490   8.179   4.087 -0.4380  0.3392  0.1431
  491MOL0     H66271   9.119   8.334   4.091 -0.0032  2.6774 -0.7937
  491MOL0     H66272   8.889   8.280   4.084 -0.5564  1.7250 -1.1223
  491MOL0     H66273   8.682   8.274   3.968  1.2975 -0.1018 -0.2468
  491MOL0     H66274   8.707   8.131   4.075 -0.1043 -0.1924  0.4047
  491MOL0     H66275   8.510   8.149   3.851 -0.5638  0.2384  0.2295
  491MOL0     H66276   8.465   8.162   4.021 -3.0957 -0.4235 -2.0161
  491MOL0     H66277   8.504   7.924   4.041 -3.2941 -1.3383 -0.8446
  491MOL0     H66278   8.614   7.932   3.898  0.3266  1.4884  1.0781
  491MOL0     H66279   8.397   7.967   3.756 -1.6907  1.3308  0.3155
  491MOL0     H66280   8.413   7.814   3.849  4.7463  1.2612  1.1974
  491MOL0     H66281   8.098   7.990   4.060  1.4019  3.6715  1.2277
  491MOL0     H66282   8.940   8.083   3.704  0.8160 -0.1505 -0.3369
  491MOL0     H66283   9.134   8.203   3.555  0.3168 -0.1635  0.3512
  491MOL0     H66284   9.297   8.171   3.634  0.5110 -2.0759  1.6193
  491MOL0     H66285   9.182   8.050   3.644  1.0994 -0.6373 -0.4144
  492MOL0     O66286   1.911   7.069   1.488  0.9751 -0.6496 -0.7772
  492MOL0     C66287   1.879   7.002   1.394  0.7988  1.1598  0.1115
  492MOL0     O66288   1.886   7.043   1.257  0.1046 -0.5248  0.0677
  492MOL0     C66289   1.934   7.167   1.222  0.2574 -0.6391 -0.1344
  492MOL0     C66290   1.860   7.285   1.270  0.0578  0.2791  1.2627
  492MOL0     C66291   1.904   7.417   1.234 -0.4372  0.1896 -0.4105
  492MOL0     C66292   2.022   7.424   1.155  0.3873 -0.8619  0.8871
  492MOL0     O66293   2.064   7.540   1.096 -0.2665 -0.8112 -0.5993
  492MOL0     C66294   2.036   7.674   1.151  0.5156  0.5823  0.9708
  492MOL0     C66295   2.164   7.758   1.157 -0.2051  0.2089  0.3336
  492MOL0     C66296   2.296   7.686   1.164  0.7834 -0.6053 -0.5822
  492MOL0     C66297   2.413   7.785   1.120  0.1278  0.1327 -0.5850
  492MOL0     C66298   2.545   7.727   1.165 -0.3323 -0.0661  0.1785
  492MOL0     C66299   2.666   7.816   1.130 -0.0589 -0.0271 -0.1533
  492MOL0     C66300   2.805   7.768   1.181  0.6934  0.4389 -0.2031
  492MOL0     C66301   2.918   7.875   1.157 -0.8518 -0.0521 -0.0499
  492MOL0     N66302   3.049   7.825   1.211 -0.3852  0.2105 -0.1230
  492MOL0     C66303   3.111   7.700   1.189  0.9586 -0.1630  0.5873
  492MOL0     C66304   3.238   7.709   1.231  0.1226 -0.3833  0.0053
  492MOL0     C66305   3.327   7.587   1.238 -0.4142 -0.3709  0.2560
  492MOL0     C66306   3.465   7.586   1.316 -0.3708  0.7275 -0.1244
  492MOL0     C66307   3.571   7.672   1.253 -0.2179  0.9119  0.2720
  492MOL0     C66308   3.649   7.725   1.369  0.7367  0.1041 -0.0267
  492MOL0     O66309   3.734   7.629   1.432 -0.1063  0.0338  0.3979
  492MOL0     C66310   3.870   7.621   1.398  0.4475  1.2987 -0.4256
  492MOL0     C66311   3.954   7.581   1.500 -1.1564 -0.1090 -0.2840
  492MOL0     C66312   4.092   7.569   1.474 -0.0710  0.8786 -0.8167
  492MOL0     C66313   4.148   7.600   1.355  0.0473 -0.7315 -0.3537
  492MOL0     C66314   4.295   7.614   1.332  0.4052  0.0398  0.7205
  492MOL0     O66315   4.367   7.547   1.430 -0.2396 -0.2581 -0.0033
  492MOL0     C66316   4.501   7.568   1.430  0.1998 -1.1218  0.6884
  492MOL0     C66317   4.597   7.534   1.323  0.9029 -0.4709 -0.9550
  492MOL0     C66318   4.723   7.578   1.326 -0.6313 -0.8491 -1.1028
  492MOL0     C66319   4.783   7.647   1.433 -0.1222 -0.0988 -0.9059
  492MOL0     O66320   4.921   7.666   1.433  0.9372 -0.1916  0.0743
  492MOL0     C66321   4.981   7.749   1.531  0.4828 -0.2881  0.0512
  492MOL0     C66322   5.031   7.659   1.650  0.7263 -0.0712  0.3681
  492MOL0     C66323   5.095   7.736   1.773  0.4876  1.1220 -0.8518
  492MOL0     C66324   5.129   7.643   1.886  0.1213  0.4933  0.1744
  492MOL0     C66325   5.148   7.721   2.016 -0.2447 -0.5825 -0.1105
  492MOL0     C66326   5.176   7.624   2.132 -0.6127 -0.1603  1.0561
  492MOL0     C66327   5.047   7.556   2.175 -0.3620 -0.4966 -0.0041
  492MOL0     C66328   5.056   7.478   2.301  0.2833  0.4628  0.7057
  492MOL0    Cl66329   5.117   7.564   2.442  0.1807 -0.0313  0.3838
  492MOL0     C66330   4.699   7.666   1.544 -0.7638  0.0242  0.8935
  492MOL0     C66331   4.563   7.628   1.544  1.6644  0.0867 -0.2382
  492MOL0     O66332   4.333   7.684   1.246 -0.5119 -0.1514  0.4436
  492MOL0     C66333   4.061   7.643   1.243 -0.1131 -0.8331 -0.8456
  492MOL0     C66334   3.924   7.643   1.269  0.3229 -0.8247  0.6946
  492MOL0     N66335   3.257   7.833   1.286  0.9920 -0.5057 -0.4868
  492MOL0     N66336   3.148   7.904   1.267  0.1855  0.0642  0.6701
  492MOL0     C66337   2.088   7.310   1.106  0.1719 -0.0190  0.7416
  492MOL0     C66338   2.042   7.185   1.137 -0.3149  0.1854 -0.2484
  492MOL0     C66339   1.849   6.857   1.426  0.4240 -0.4544  0.0112
  492MOL0     C66340   1.828   6.777   1.309  0.6591 -0.0161 -0.2330
  492MOL0     C66341   1.806   6.640   1.326  0.0667  0.1010  0.0589
  492MOL0     C66342   1.807   6.580   1.451  0.3534  1.2056  0.0557
  492MOL0     O66343   1.805   6.442   1.441  0.0392  0.4560 -0.7637
  492MOL0     C66344   1.770   6.374   1.559  0.6408  0.1087  0.1358
  492MOL0     C66345   1.774   6.226   1.534  0.9935 -0.1161  0.9229
  492MOL0     C66346   1.641   6.184   1.466 -0.1717  0.2952 -0.2095
  492MOL0     C66347   1.620   6.024   1.475  0.2288  0.0998  0.2709
  492MOL0     C66348   1.566   5.984   1.610  0.2721 -0.0887  0.0111
  492MOL0     C66349   1.517   5.950   1.714 -1.1640 -0.8044 -0.4913
  492MOL0     C66350   1.813   6.661   1.565  0.6258  0.3630  0.1387
  492MOL0     C66351   1.829   6.795   1.551  0.1647  0.6105  0.2850
  492MOL0     C66352   1.846   6.868   1.683  0.0213 -0.0339 -0.0349
  492MOL0     H66353   1.762   7.267   1.313 -1.7570 -1.3012 -2.9929
  492MOL0     H66354   1.843   7.500   1.265 -1.9977 -1.2180  0.4603
  492MOL0     H66355   1.967   7.723   1.081  3.6544  1.2454 -1.9188
  492MOL0     H66356   1.996   7.654   1.251 -2.5204 -0.8150 -0.3838
  492MOL0     H66357   2.159   7.818   1.248  0.8736  1.3237 -0.3084
  492MOL0     H66358   2.163   7.828   1.073 -0.0985  0.7917  0.8146
  492MOL0     H66359   2.296   7.600   1.097  0.5388  0.2759 -1.7422
  492MOL0     H66360   2.310   7.653   1.267  0.4602  1.9586  0.3531
  492MOL0     H66361   2.414   7.797   1.011 -0.4349 -2.1166 -0.8840
  492MOL0     H66362   2.407   7.883   1.169  0.5243  0.4103 -1.0828
  492MOL0     H66363   2.556   7.711   1.272  3.2442 -2.2633 -0.3561
  492MOL0     H66364   2.568   7.628   1.126  4.6387 -0.5313  3.3560
  492MOL0     H66365   2.667   7.839   1.023 -1.7825 -0.0789 -0.2169
  492MOL0     H66366   2.640   7.906   1.187 -2.5127  0.3460 -1.6817
  492MOL0     H66367   2.826   7.682   1.116  1.6798  1.3996 -1.1912
  492MOL0     H66368   2.809   7.728   1.283  0.7076  1.2353  0.1134
  492MOL0     H66369   2.933   7.890   1.049  0.6696 -0.9804  0.0115
  492MOL0     H66370   2.885   7.970   1.200 -1.3455 -0.3449  0.2276
  492MOL0     H66371   3.068   7.616   1.135  1.1860 -1.0910  1.7852
  492MOL0     H66372   3.271   7.498   1.268  1.4701 -0.8614  2.6131
  492MOL0     H66373   3.358   7.567   1.135 -0.7869 -4.4721  0.8037
  492MOL0     H66374   3.441   7.623   1.416 -0.3105  2.0808 -0.5806
  492MOL0     H66375   3.509   7.486   1.317  2.3886  1.8480  0.4963
  492MOL0     H66376   3.538   7.761   1.200 -0.5530 -0.2163 -1.4824
  492MOL0     H66377   3.638   7.606   1.197  2.0345 -1.1087  4.7578
  492MOL0     H66378   3.571   7.764   1.434  0.3704 -4.6673  2.8548
  492MOL0     H66379   3.707   7.811   1.335  3.0984 -1.4097 -0.0859
  492MOL0     H66380   3.905   7.540   1.588 -1.1402  0.8831  0.1998
  492MOL0     H66381   4.144   7.525   1.559 -3.2674  0.2104  0.9382
  492MOL0     H66382   4.572   7.470   1.238 -0.4759 -0.1547 -0.7990
  492MOL0     H66383   4.792   7.544   1.250  0.2164 -2.7601  0.4332
  492MOL0     H66384   5.076   7.785   1.490  1.9508 -2.7042  1.0554
  492MOL0     H66385   4.907   7.827   1.550  0.7659 -0.3566  1.5609
  492MOL0     H66386   4.946   7.606   1.694 -1.6424  4.3919  1.8224
  492MOL0     H66387   5.114   7.589   1.633  0.7933 -1.0451  3.8260
  492MOL0     H66388   5.190   7.783   1.746  1.0271  0.6904  0.2324
  492MOL0     H66389   5.036   7.821   1.810 -0.2771 -0.5297  2.0467
  492MOL0     H66390   5.220   7.588   1.860  0.6524  0.8527  1.2227
  492MOL0     H66391   5.048   7.569   1.893 -0.1993  0.8560  0.3482
  492MOL0     H66392   5.065   7.791   2.029  2.0111  2.5195 -1.0379
  492MOL0     H66393   5.231   7.792   2.012  1.8566 -2.8901  0.0060
  492MOL0     H66394   5.254   7.553   2.104 -0.3198  0.9724 -1.1955
  492MOL0     H66395   5.217   7.683   2.214  1.0810 -1.8258  1.4751
  492MOL0     H66396   5.004   7.497   2.094  2.0962 -1.8613 -0.4185
  492MOL0     H66397   4.981   7.642   2.190  1.8165  1.9977 -3.2948
  492MOL0     H66398   4.961   7.426   2.320 -0.0797  0.4683 -0.9689
  492MOL0     H66399   5.136   7.409   2.274 -0.4383 -0.4880  0.9296
  492MOL0     H66400   4.744   7.706   1.635  2.2142  1.0216 -0.8879
  492MOL0     H66401   4.514   7.641   1.640  0.7806 -1.9665 -0.3609
  492MOL0     H66402   4.095   7.654   1.141  1.4438 -2.9254 -0.6222
  492MOL0     H66403   3.852   7.660   1.189  1.5046  0.9522 -0.0613
  492MOL0     H66404   2.185   7.318   1.058 -0.7456 -0.3065 -1.2370
  492MOL0     H66405   2.094   7.101   1.091 -0.3916 -0.5553  0.9599
  492MOL0     H66406   1.843   6.813   1.207 -2.3866 -2.3277 -1.6341
  492MOL0     H66407   1.789   6.568   1.247 -2.3393 -1.6374  1.9696
  492MOL0     H66408   1.674   6.404   1.600 -0.4325 -1.3792 -1.1472
  492MOL0     H66409   1.841   6.402   1.637  0.8649  1.6969 -0.5865
  492MOL0     H66410   1.774   6.176   1.632  0.7408 -0.5500  0.7074
  492MOL0     H66411   1.863   6.201   1.476 -0.7630  2.5684 -3.3811
  492MOL0     H66412   1.656   6.217   1.363  0.2343 -2.6389 -1.1714
  492MOL0     H66413   1.553   6.235   1.507 -0.9390 -1.2935  0.2179
  492MOL0     H66414   1.549   5.981   1.404  0.7475 -4.3602  2.1135
  492MOL0     H66415   1.709   5.964   1.457 -0.0075  0.4794 -2.5794
  492MOL0     H66416   1.486   5.926   1.814  1.7618 -2.8995  0.0492
  492MOL0     H66417   1.822   6.628   1.668 -0.6131 -2.2168 -0.4730
  492MOL0     H66418   1.947   6.911   1.686  0.1110 -0.1258 -1.2234
  492MOL0     H66419   1.771   6.947   1.676  1.2666  1.0700 -1.6631
  492MOL0     H66420   1.827   6.805   1.770 -1.6467  0.8390  0.2764
  493MOL0     O66421   1.677  10.561   6.609 -0.4438 -0.4078 -0.0118
  493MOL0     C66422   1.798  10.558   6.581 -0.2575  0.6764  1.0569
  493MOL0     O66423   1.852  10.471   6.496  0.0732 -0.7924  0.8679
  493MOL0     C66424   1.794  10.353   6.457 -0.1448  0.0986 -0.2271
  493MOL0     C66425   1.699  10.282   6.539  0.0848 -0.2922 -0.0240
  493MOL0     C66426   1.653  10.156   6.500  0.0052 -0.3178 -0.7879
  493MOL0     C66427   1.706  10.090   6.395 -0.1722  0.5373  0.5480
  493MOL0     O66428   1.643   9.971   6.375  0.1623 -0.1375  0.8026
  493MOL0     C66429   1.660   9.899   6.255 -1.8406 -0.0508 -0.0676
  493MOL0     C66430   1.560   9.791   6.240 -0.3158 -0.1916 -0.1888
  493MOL0     C66431   1.426   9.853   6.219  0.3292 -0.1833  0.9082
  493MOL0     C66432   1.311   9.747   6.222 -1.3088 -0.6289 -0.4808
  493MOL0     C66433   1.173   9.815   6.205  0.8301 -0.0050 -0.9132
  493MOL0     C66434   1.119   9.908   6.316  0.1569  0.7511 -0.1939
  493MOL0     C66435   0.997  10.000   6.277 -1.1882 -0.4058 -0.3070
  493MOL0     C66436   0.860   9.932   6.250  0.4598  0.4705 -0.6575
  493MOL0     N66437   0.828   9.836   6.360 -0.3541  0.5089 -0.4793
  493MOL0     C66438   0.742   9.849   6.469 -0.1219 -0.3662  0.8807
  493MOL0     C66439   0.742   9.725   6.520 -0.3017  0.1716 -1.0763
  493MOL0     C66440   0.689   9.678   6.654  0.1108 -0.4320  0.4902
  493MOL0     C66441   0.715   9.767   6.771 -0.1837 -0.1802  0.4301
  493MOL0     C66442   0.863   9.821   6.768  0.5269 -0.0489  0.1850
  493MOL0     C66443   0.918   9.888   6.902 -0.8961 -0.7533  0.3085
  493MOL0     O66444   1.057   9.909   6.873  0.4028  0.4706  0.1709
  493MOL0     C66445   1.132   9.933   6.982  0.2233  0.5473 -0.0902
  493MOL0     C66446   1.225  10.029   6.976 -0.4319 -0.1074 -0.3251
  493MOL0     C66447   1.300  10.050   7.093 -0.0729  0.3383  1.1933
  493MOL0     C66448   1.284   9.976   7.215 -0.2867  0.5194  0.3486
  493MOL0     C66449   1.363  10.003   7.336  1.4285  0.2859 -0.4309
  493MOL0     O66450   1.473  10.083   7.312  0.2642 -0.5969 -0.4892
  493MOL0     C66451   1.568  10.095   7.418 -0.3127  0.0183 -0.5060
  493MOL0     C66452   1.590  10.223   7.466  0.2819 -0.3012 -0.6165
  493MOL0     C66453   1.688  10.237   7.571  0.1634  0.0265  0.3559
  493MOL0     C66454   1.772  10.129   7.594 -0.4703 -0.0651 -1.5299
  493MOL0     O66455   1.877  10.129   7.683 -0.0831 -0.4686  0.7808
  493MOL0     C66456   1.881  10.215   7.793  0.6379  0.4221  0.2169
  493MOL0     C66457   1.843  10.147   7.932 -1.0846  0.4899 -0.0060
  493MOL0     C66458   1.955  10.039   7.966  0.4273 -0.4109  0.0593
  493MOL0     C66459   1.949   9.982   8.115 -0.7339  0.0158 -1.0924
  493MOL0     C66460   2.043  10.066   8.195 -0.0436  0.9483 -1.1248
  493MOL0     C66461   2.040  10.030   8.347  1.0606 -0.2235  0.0201
  493MOL0     C66462   1.918  10.094   8.408  0.0417 -0.1402 -0.2710
  493MOL0     C66463   1.868  10.015   8.542 -0.7228 -0.0455 -0.2284
  493MOL0    Cl66464   1.961  10.037   8.694  0.1708 -0.3732  0.0360
  493MOL0     C66465   1.756  10.010   7.531  0.7203 -0.0964 -0.1890
  493MOL0     C66466   1.652   9.986   7.447 -0.6021  0.0842 -0.0687
  493MOL0     O66467   1.332   9.951   7.446  0.4442 -0.5189  0.3501
  493MOL0     C66468   1.191   9.873   7.215  0.0706  0.6968 -0.2795
  493MOL0     C66469   1.124   9.856   7.098  0.6480 -0.8402  0.9460
  493MOL0     N66470   0.830   9.646   6.453 -0.2927 -0.1681  0.1286
  493MOL0     N66471   0.881   9.711   6.358  0.3003  0.4403  0.6271
  493MOL0     C66472   1.809  10.160   6.315 -0.0202  0.8065 -0.8669
  493MOL0     C66473   1.848  10.288   6.350 -0.3423  0.4473  0.4649
  493MOL0     C66474   1.905  10.651   6.636 -0.5803  0.1144  0.2859
  493MOL0     C66475   2.014  10.678   6.552  0.1811  0.6425  1.0329
  493MOL0     C66476   2.103  10.782   6.587 -0.1344  0.5743 -0.2828
  493MOL0     C66477   2.085  10.859   6.702  0.4848  0.3059  0.4845
  493MOL0     O66478   2.178  10.952   6.763  0.0490  0.5857  0.6337
  493MOL0     C66479   2.307  10.979   6.708  0.0196  0.4944  1.1914
  493MOL0     C66480   2.402  10.869   6.727 -0.5950  0.0296 -0.0856
  493MOL0     C66481   2.524  10.878   6.640 -0.3924  0.4817  0.2082
  493MOL0     C66482   2.651  10.824   6.720  0.2310 -0.0523  0.0613
  493MOL0     C66483   2.645  10.679   6.753  0.0285  0.5662 -0.3023
  493MOL0     C66484   2.636  10.557   6.770  0.5221 -0.3648  0.0339
  493MOL0     C66485   1.967  10.836   6.775  0.4888 -0.1183  0.3752
  493MOL0     C66486   1.870  10.738   6.745 -0.1212 -0.7059  0.1903
  493MOL0     C66487   1.751  10.717   6.839 -0.0303 -0.5538  0.2469
  493MOL0     H66488   1.662  10.331   6.629 -0.2267 -0.5750  0.0042
  493MOL0     H66489   1.579  10.107   6.563  0.1503  1.4306  0.8331
  493MOL0     H66490   1.653   9.967   6.171  0.6759 -2.1946 -2.1994
  493MOL0     H66491   1.757   9.850   6.272 -2.1636 -0.3243  1.0930
  493MOL0     H66492   1.568   9.730   6.331 -0.4712  0.0382 -0.0218
  493MOL0     H66493   1.582   9.723   6.157  1.1373 -4.3881  3.2308
  493MOL0     H66494   1.430   9.911   6.126  4.6502  0.0778  1.0441
  493MOL0     H66495   1.402   9.922   6.300 -1.6873  0.3454 -0.0621
  493MOL0     H66496   1.323   9.679   6.137  1.6880  1.2204 -1.7041
  493MOL0     H66497   1.328   9.700   6.319  0.2172  4.9914  2.3886
  493MOL0     H66498   1.173   9.866   6.108 -1.2197  1.0557 -0.4092
  493MOL0     H66499   1.096   9.738   6.197  0.2729 -0.2558  3.8830
  493MOL0     H66500   1.100   9.853   6.409  1.2669  0.7162  0.0256
  493MOL0     H66501   1.200   9.976   6.345 -2.4296  2.9434  2.6251
  493MOL0     H66502   1.029  10.056   6.189 -1.0262 -1.0884 -0.6925
  493MOL0     H66503   0.984  10.069   6.360 -0.6234 -0.3393 -0.2728
  493MOL0     H66504   0.784  10.009   6.235  0.4732  0.5579 -0.2960
  493MOL0     H66505   0.876   9.874   6.159 -0.7454 -1.0430  0.0477
  493MOL0     H66506   0.697   9.940   6.508 -0.1949 -0.3638  0.7898
  493MOL0     H66507   0.580   9.679   6.641 -0.2551 -1.7831  2.8118
  493MOL0     H66508   0.731   9.579   6.674  4.2527  1.0326  0.1172
  493MOL0     H66509   0.642   9.848   6.760  1.2647  1.1329  0.0679
  493MOL0     H66510   0.692   9.712   6.862 -1.2821 -1.5084 -0.6020
  493MOL0     H66511   0.878   9.888   6.683 -0.7874 -1.2850 -1.0754
  493MOL0     H66512   0.930   9.737   6.753  2.8173  1.4186  1.6166
  493MOL0     H66513   0.886   9.818   6.980 -1.2749 -0.2609  0.5981
  493MOL0     H66514   0.875   9.987   6.919 -0.8725 -0.5881 -0.5650
  493MOL0     H66515   1.226  10.093   6.888 -2.1481  0.9130  0.3487
  493MOL0     H66516   1.376  10.127   7.091 -1.2482  1.7579 -4.1963
  493MOL0     H66517   1.533  10.303   7.420  0.9526  0.8551  0.4976
  493MOL0     H66518   1.701  10.340   7.603  3.3897 -0.9925  2.8873
  493MOL0     H66519   1.980  10.259   7.804 -0.2062  2.2571  0.9481
  493MOL0     H66520   1.823  10.307   7.781  0.2192 -0.2158 -4.6616
  493MOL0     H66521   1.834  10.220   8.013 -0.2167  2.1341 -1.3261
  493MOL0     H66522   1.754  10.084   7.933  0.1413 -1.3458  1.4066
  493MOL0     H66523   1.943   9.959   7.892 -4.3925 -0.0201  0.1176
  493MOL0     H66524   2.052  10.089   7.959  0.4409 -0.4033  0.3045
  493MOL0     H66525   1.979   9.877   8.115 -1.8919 -0.3595 -2.7427
  493MOL0     H66526   1.848   9.962   8.152 -0.3828  1.0376  0.5118
  493MOL0     H66527   2.020  10.169   8.168  0.0834  0.0418 -5.3695
  493MOL0     H66528   2.145  10.048   8.161  0.5945 -2.2164  1.8708
  493MOL0     H66529   2.027   9.923   8.360  0.5675 -0.3800 -1.5538
  493MOL0     H66530   2.130  10.062   8.401  1.0722  0.0031 -0.1277
  493MOL0     H66531   1.834  10.112   8.340  0.7067  1.8013 -0.6286
  493MOL0     H66532   1.953  10.192   8.441  1.3790 -0.4148 -0.8049
  493MOL0     H66533   1.765  10.047   8.565 -1.8517 -1.8937 -2.3206
  493MOL0     H66534   1.858   9.909   8.517 -0.3031 -0.3173  0.7493
  493MOL0     H66535   1.831   9.934   7.550 -0.7132 -1.6500 -0.4865
  493MOL0     H66536   1.654   9.905   7.375 -3.5475  0.7399 -0.9868
  493MOL0     H66537   1.168   9.802   7.294  2.2294 -0.5025 -0.6560
  493MOL0     H66538   1.059   9.769   7.088  0.8770 -0.9616  0.4942
  493MOL0     H66539   1.853  10.116   6.226  0.3755 -1.1675  0.2420
  493MOL0     H66540   1.932  10.323   6.291  1.5013 -3.2380  0.6131
  493MOL0     H66541   2.045  10.623   6.463  1.0783 -0.4938  2.0001
  493MOL0     H66542   2.191  10.797   6.525  0.5621 -2.1028 -0.0890
  493MOL0     H66543   2.338  11.068   6.764  0.4030  1.7128 -0.8591
  493MOL0     H66544   2.293  10.998   6.601 -1.7668  1.0472  1.4843
  493MOL0     H66545   2.352  10.773   6.710 -0.5966 -0.0676  0.4427
  493MOL0     H66546   2.426  10.881   6.833 -3.0948 -0.3547  0.5731
  493MOL0     H66547   2.546  10.977   6.599 -2.4146 -0.4356 -3.5219
  493MOL0     H66548   2.505  10.815   6.553 -2.1924 -4.2462  3.5938
  493MOL0     H66549   2.742  10.850   6.664  0.8962  0.5674  1.3970
  493MOL0     H66550   2.661  10.881   6.812 -1.0887 -0.2588  0.3459
  493MOL0     H66551   2.647  10.451   6.776 -1.6943 -0.6373 -0.0667
  493MOL0     H66552   1.947  10.903   6.858  0.1466 -2.5769  2.4085
  493MOL0     H66553   1.780  10.771   6.930 -0.6045  0.4286 -0.1519
  493MOL0     H66554   1.663  10.766   6.798 -0.7162 -2.1190 -0.2116
  493MOL0     H66555   1.728  10.610   6.850 -0.3983 -1.1330 -4.3480
  494MOL0     O66556   1.204   0.367   4.351  0.2511 -1.1649 -0.1126
  494MOL0     C66557   1.145   0.385   4.459 -0.7999  0.7408 -0.1264
  494MOL0     O66558   1.177   0.479   4.552  0.2545  0.0423  0.5360
  494MOL0     C66559   1.306   0.536   4.527  0.0922 -0.3631  0.1812
  494MOL0     C66560   1.317   0.675   4.522  0.4771  0.3114 -0.4872
  494MOL0     C66561   1.445   0.741   4.496  0.5967  0.8385 -0.4131
  494MOL0     C66562   1.553   0.653   4.475  0.6435  0.5053  0.1212
  494MOL0     O66563   1.678   0.718   4.458  0.0976  0.4318  0.3899
  494MOL0     C66564   1.789   0.654   4.518  0.1202  0.7518 -0.0035
  494MOL0     C66565   1.901   0.751   4.526 -0.0126  0.6964 -0.3596
  494MOL0     C66566   2.021   0.706   4.612 -0.5450  0.1475 -0.1688
  494MOL0     C66567   2.122   0.818   4.637 -0.0853 -0.0062 -0.0506
  494MOL0     C66568   2.216   0.789   4.760 -0.0401  1.0355  0.5041
  494MOL0     C66569   2.349   0.858   4.740  0.2759 -0.4951  0.3285
  494MOL0     C66570   2.458   0.817   4.843  0.3460  0.1218 -0.5447
  494MOL0     C66571   2.453   0.910   4.968 -0.3548  0.6225 -0.5146
  494MOL0     N66572   2.536   0.860   5.079  0.4031 -0.6077 -0.1948
  494MOL0     C66573   2.662   0.901   5.106 -0.5531 -1.8049  0.5316
  494MOL0     C66574   2.687   0.870   5.233  0.7078 -0.5539 -0.6171
  494MOL0     C66575   2.820   0.910   5.300  0.7440  0.0469 -0.9083
  494MOL0     C66576   2.826   1.066   5.338  0.5646  0.3633  0.1086
  494MOL0     C66577   2.722   1.094   5.439 -0.2587  0.1560 -0.3856
  494MOL0     C66578   2.699   1.248   5.467 -0.7105  0.1031  1.2755
  494MOL0     O66579   2.642   1.315   5.352  0.5388 -0.5244  0.5685
  494MOL0     C66580   2.545   1.261   5.280  0.2102 -0.3457  0.4054
  494MOL0     C66581   2.428   1.204   5.342 -0.6622  1.0579 -0.3164
  494MOL0     C66582   2.323   1.166   5.260  0.1940 -0.2079 -0.3514
  494MOL0     C66583   2.318   1.198   5.121  0.5290  0.8794 -0.6724
  494MOL0     C66584   2.193   1.185   5.047 -0.2694  0.0295  0.2827
  494MOL0     O66585   2.076   1.179   5.107 -0.4422  0.0483  0.2343
  494MOL0     C66586   1.962   1.157   5.044 -0.2072 -0.3899 -0.2470
  494MOL0     C66587   1.868   1.265   5.047  0.1547  0.1840 -0.0775
  494MOL0     C66588   1.743   1.257   4.984 -0.5208 -0.4239 -0.4524
  494MOL0     C66589   1.707   1.136   4.924  0.1216 -0.6863  0.1084
  494MOL0     O66590   1.574   1.128   4.895 -0.1312  0.5571  0.5980
  494MOL0     C66591   1.528   1.038   4.794 -0.7350 -0.3801 -0.0175
  494MOL0     C66592   1.583   1.111   4.674 -0.5665  1.3668 -0.6323
  494MOL0     C66593   1.524   1.251   4.658 -0.1820  0.2414  0.5024
  494MOL0     C66594   1.374   1.273   4.677  0.7575 -0.2758  0.5643
  494MOL0     C66595   1.279   1.182   4.588 -0.7077 -0.5496 -0.7704
  494MOL0     C66596   1.149   1.256   4.561  0.6932 -0.6700  0.2679
  494MOL0     C66597   1.067   1.162   4.474  0.3229 -0.8576  0.1113
  494MOL0     C66598   0.930   1.218   4.441 -0.6451 -0.2758 -0.5509
  494MOL0    Cl66599   0.939   1.341   4.312 -0.4769  0.0195  0.2746
  494MOL0     C66600   1.802   1.033   4.922  0.7104  0.8602 -0.2306
  494MOL0     C66601   1.932   1.040   4.974  0.9262 -0.7806 -0.4207
  494MOL0     O66602   2.213   1.166   4.927 -0.5475 -0.2194  0.3395
  494MOL0     C66603   2.431   1.252   5.062 -0.1185 -1.3023  0.4055
  494MOL0     C66604   2.547   1.283   5.143  0.3228 -0.6173 -0.0165
  494MOL0     N66605   2.572   0.810   5.286  0.0030  0.4333 -0.0514
  494MOL0     N66606   2.484   0.811   5.192  0.6144  0.6658 -1.0392
  494MOL0     C66607   1.541   0.510   4.480  0.1448  0.2772  1.3806
  494MOL0     C66608   1.421   0.456   4.511  0.1959 -0.7147  0.0284
  494MOL0     C66609   1.054   0.278   4.487 -0.1250 -0.6400 -0.3463
  494MOL0     C66610   1.047   0.227   4.613 -0.2234 -0.0682 -0.7389
  494MOL0     C66611   0.957   0.123   4.644 -0.1905  0.7652  0.9130
  494MOL0     C66612   0.879   0.062   4.549 -0.8284 -0.6572  0.8575
  494MOL0     O66613   0.807  -0.046   4.596 -0.4480  0.4482  0.5607
  494MOL0     C66614   0.728  -0.125   4.494  0.2578  0.0336 -0.2319
  494MOL0     C66615   0.701  -0.270   4.545 -0.0554 -0.3710 -0.0405
  494MOL0     C66616   0.836  -0.348   4.581  0.4305  0.1495  0.3917
  494MOL0     C66617   0.808  -0.481   4.648  1.2380 -1.3331  0.2967
  494MOL0     C66618   0.922  -0.553   4.709  0.1148  0.2903  0.3120
  494MOL0     C66619   1.013  -0.610   4.775 -0.9395  0.3394  0.4952
  494MOL0     C66620   0.878   0.118   4.426  0.2460  0.1212 -0.0509
  494MOL0     C66621   0.966   0.223   4.386  0.1144  0.1056 -0.2171
  494MOL0     C66622   0.956   0.276   4.244 -0.5533  0.5296  0.5109
  494MOL0     H66623   1.223   0.729   4.534 -0.3685 -1.1348 -0.4133
  494MOL0     H66624   1.448   0.850   4.487 -2.1465  1.6731  4.7733
  494MOL0     H66625   1.777   0.609   4.617  1.1553 -0.6939 -0.5032
  494MOL0     H66626   1.822   0.587   4.438  2.7030  1.8275  0.0572
  494MOL0     H66627   1.859   0.850   4.547 -1.4986 -0.3855  2.1724
  494MOL0     H66628   1.947   0.759   4.427  2.0410 -0.5481  0.4273
  494MOL0     H66629   2.087   0.637   4.559 -1.0275  1.8503 -3.2530
  494MOL0     H66630   1.991   0.662   4.707 -2.2661 -0.1471 -0.8099
  494MOL0     H66631   2.176   0.824   4.542 -0.6641  1.6695 -0.2976
  494MOL0     H66632   2.075   0.917   4.640 -0.4507 -0.1806  0.0306
  494MOL0     H66633   2.165   0.833   4.846  0.5066 -2.0812  2.5723
  494MOL0     H66634   2.237   0.682   4.764  0.7449  1.0802 -1.4521
  494MOL0     H66635   2.384   0.830   4.640  2.3547 -0.4750  0.9966
  494MOL0     H66636   2.336   0.966   4.746 -0.2508 -0.6093  1.7657
  494MOL0     H66637   2.558   0.826   4.801  0.3389 -3.3545 -1.6301
  494MOL0     H66638   2.433   0.713   4.869 -0.6340 -0.1724 -2.4690
  494MOL0     H66639   2.486   1.010   4.939 -0.8122  0.8482 -0.2672
  494MOL0     H66640   2.352   0.916   5.009 -0.5158  0.0547 -0.8269
  494MOL0     H66641   2.731   0.952   5.039 -1.7677 -1.1969 -0.2795
  494MOL0     H66642   2.825   0.851   5.392  0.9509 -1.2494 -1.7220
  494MOL0     H66643   2.904   0.878   5.238  0.1204 -0.0723 -1.7199
  494MOL0     H66644   2.926   1.087   5.376  1.5020 -2.4722 -0.5106
  494MOL0     H66645   2.802   1.118   5.245 -1.3760  0.1439  0.4384
  494MOL0     H66646   2.772   1.059   5.529  0.6560 -0.1584 -0.9975
  494MOL0     H66647   2.632   1.037   5.412 -0.7100  0.3777  0.6061
  494MOL0     H66648   2.795   1.291   5.496 -0.6399  2.8977 -2.3825
  494MOL0     H66649   2.627   1.265   5.548 -1.1768  1.2566  0.6475
  494MOL0     H66650   2.417   1.198   5.449 -0.8339  2.9190 -0.2129
  494MOL0     H66651   2.226   1.130   5.293 -0.3348 -1.4161 -2.9675
  494MOL0     H66652   1.901   1.356   5.097  0.0262  0.9737 -1.3791
  494MOL0     H66653   1.671   1.338   4.974 -0.3994 -0.4741 -2.1717
  494MOL0     H66654   1.569   0.938   4.811 -3.3218 -1.7532 -1.1823
  494MOL0     H66655   1.419   1.027   4.790 -0.8355  0.5884 -0.2700
  494MOL0     H66656   1.691   1.117   4.655 -0.1448  0.4863  1.2730
  494MOL0     H66657   1.560   1.042   4.592  0.6465  0.1713  0.0015
  494MOL0     H66658   1.578   1.315   4.727 -0.2096 -1.1977  1.9286
  494MOL0     H66659   1.531   1.285   4.554  3.3620  2.2117  1.2461
  494MOL0     H66660   1.362   1.375   4.640  1.6635 -0.0183  0.9654
  494MOL0     H66661   1.333   1.285   4.778 -2.3992  1.7248 -0.7911
  494MOL0     H66662   1.255   1.085   4.633  1.7245 -0.3683  1.1966
  494MOL0     H66663   1.323   1.161   4.490  1.7062  3.8120 -0.8539
  494MOL0     H66664   1.103   1.278   4.658 -1.0891 -0.2187 -0.6361
  494MOL0     H66665   1.158   1.351   4.508 -1.7745 -0.2685  0.4865
  494MOL0     H66666   1.068   1.068   4.531 -0.4868 -1.5304 -0.9543
  494MOL0     H66667   1.119   1.127   4.384 -0.5574 -4.3130  0.8131
  494MOL0     H66668   0.860   1.136   4.423 -0.2074 -1.7988  3.7015
  494MOL0     H66669   0.890   1.270   4.528  2.6754 -0.0202  0.9659
  494MOL0     H66670   1.787   0.931   4.887  1.6092 -0.0130  1.8042
  494MOL0     H66671   2.003   0.959   4.974  0.9528 -0.8793  2.7082
  494MOL0     H66672   2.440   1.276   4.957 -0.2209 -2.8464  0.0236
  494MOL0     H66673   2.635   1.323   5.094  1.1869  0.2794  2.1529
  494MOL0     H66674   1.625   0.442   4.469 -0.1938  0.1894 -1.3596
  494MOL0     H66675   1.416   0.348   4.522 -1.3558 -0.3926  3.9386
  494MOL0     H66676   1.108   0.268   4.693 -0.8433 -1.6849  0.6535
  494MOL0     H66677   0.970   0.095   4.748 -0.1412 -0.1393  0.6680
  494MOL0     H66678   0.787  -0.130   4.402 -1.1242 -0.3062 -1.1279
  494MOL0     H66679   0.633  -0.076   4.473  0.6491  0.9374  0.0448
  494MOL0     H66680   0.665  -0.324   4.457  2.2035 -0.3672 -1.0203
  494MOL0     H66681   0.630  -0.271   4.629  1.0576  0.7351  0.9506
  494MOL0     H66682   0.898  -0.283   4.643  1.2689  2.2032 -2.3536
  494MOL0     H66683   0.895  -0.370   4.491 -1.2377  1.7886 -1.2093
  494MOL0     H66684   0.740  -0.447   4.727  0.1017  0.9076 -1.5382
  494MOL0     H66685   0.753  -0.546   4.580 -3.1641 -0.0623  2.3004
  494MOL0     H66686   1.097  -0.649   4.828  1.8558  2.4582 -2.0040
  494MOL0     H66687   0.805   0.079   4.355  1.6502  1.0250 -2.1072
  494MOL0     H66688   0.880   0.221   4.187 -0.7425 -0.2993  1.5416
  494MOL0     H66689   0.945   0.384   4.255  1.5623  0.5568  3.1355
  494MOL0     H66690   1.051   0.259   4.193 -0.4647  3.6516 -0.5970
  495MOL0     O66691   0.518   0.090   2.366 -0.2353  0.9934  0.2591
  495MOL0     C66692   0.566  -0.003   2.438  0.4342 -0.5762 -0.2429
  495MOL0     O66693   0.492  -0.095   2.510  0.5460 -0.6336 -0.0205
  495MOL0     C66694   0.355  -0.082   2.534 -0.6409  0.2680 -0.7910
  495MOL0     C66695   0.252  -0.099   2.442  0.1683 -0.2645 -0.2420
  495MOL0     C66696   0.119  -0.088   2.475 -0.2888  0.0639 -0.0042
  495MOL0     C66697   0.081  -0.057   2.607  0.2892  0.5697  0.7901
  495MOL0     O66698  -0.054  -0.043   2.642  0.5525 -0.3467 -0.3180
  495MOL0     C66699  -0.151  -0.042   2.537 -1.0540  0.3354  0.0163
  495MOL0     C66700  -0.272   0.018   2.597 -0.5035 -0.5443  0.4572
  495MOL0     C66701  -0.378   0.054   2.492  0.1629  0.3228  0.0986
  495MOL0     C66702  -0.504   0.103   2.561  0.3311  0.2969 -0.1618
  495MOL0     C66703  -0.615   0.138   2.463 -0.2862  0.2617  0.2277
  495MOL0     C66704  -0.749   0.175   2.538 -1.0585  0.4771  0.5042
  495MOL0     C66705  -0.862   0.200   2.427 -0.4862  0.6522 -0.4092
  495MOL0     C66706  -0.935   0.062   2.396  0.8772 -0.0816  0.1022
  495MOL0     N66707  -1.044   0.020   2.490  0.7587 -0.3553 -0.2201
  495MOL0     C66708  -1.040  -0.075   2.597  0.3781 -0.4869 -0.6457
  495MOL0     C66709  -1.154  -0.057   2.670 -0.3130 -0.3297  0.2064
  495MOL0     C66710  -1.194  -0.119   2.804  0.2701 -0.2596 -1.1083
  495MOL0     C66711  -1.153  -0.254   2.827 -0.0238 -0.1943 -0.8439
  495MOL0     C66712  -1.186  -0.290   2.975  0.4324 -0.3711  0.1853
  495MOL0     C66713  -1.162  -0.439   2.996 -0.0819 -0.1204 -0.7458
  495MOL0     O66714  -1.029  -0.483   2.973 -0.6761 -0.7878  0.7324
  495MOL0     C66715  -0.941  -0.510   3.076 -0.1626 -0.3934  1.0775
  495MOL0     C66716  -0.938  -0.622   3.157 -0.0377 -0.2144 -0.5921
  495MOL0     C66717  -0.836  -0.637   3.257 -0.3996  0.4085  0.2232
  495MOL0     C66718  -0.745  -0.527   3.284  0.3876  0.4992 -0.5451
  495MOL0     C66719  -0.632  -0.549   3.371  0.8037 -0.2286  0.6022
  495MOL0     O66720  -0.600  -0.463   3.471  1.0239  0.5430  0.8991
  495MOL0     C66721  -0.503  -0.487   3.558  0.3071  0.0003  0.4465
  495MOL0     C66722  -0.431  -0.380   3.593  0.0727  0.1953 -1.2725
  495MOL0     C66723  -0.336  -0.389   3.692 -0.5470 -0.2827  0.0144
  495MOL0     C66724  -0.309  -0.505   3.759 -0.7813 -0.5161 -0.1614
  495MOL0     O66725  -0.206  -0.518   3.857  0.3767  0.3655  0.5567
  495MOL0     C66726  -0.188  -0.393   3.924  0.9627  0.1499 -0.2785
  495MOL0     C66727  -0.172  -0.436   4.072  0.2849 -0.8880 -0.1142
  495MOL0     C66728  -0.060  -0.542   4.098  0.2514  0.7850 -1.0831
  495MOL0     C66729   0.064  -0.479   4.163 -0.2651  0.7761  0.7245
  495MOL0     C66730   0.169  -0.585   4.222  0.6895 -0.3351  1.1997
  495MOL0     C66731   0.303  -0.514   4.256  0.4158  0.2188 -0.4164
  495MOL0     C66732   0.390  -0.499   4.137 -0.8182 -0.1252 -0.6352
  495MOL0     C66733   0.526  -0.430   4.190  0.4190 -0.8439  0.6652
  495MOL0    Cl66734   0.470  -0.270   4.238  0.4966 -0.0129  0.1044
  495MOL0     C66735  -0.384  -0.615   3.720 -0.0627  0.1187  0.3097
  495MOL0     C66736  -0.483  -0.606   3.622 -0.5204  0.5566 -1.0662
  495MOL0     O66737  -0.591  -0.666   3.365 -0.2993  0.7343  0.5980
  495MOL0     C66738  -0.765  -0.406   3.212 -0.3886 -0.2146 -0.2083
  495MOL0     C66739  -0.865  -0.397   3.113 -1.5387  0.2835  0.6048
  495MOL0     N66740  -1.224   0.037   2.594  0.7097  0.8188 -0.2600
  495MOL0     N66741  -1.162   0.073   2.488 -0.4617  0.0172  0.2795
  495MOL0     C66742   0.182  -0.039   2.702 -0.2863  0.5384  0.2426
  495MOL0     C66743   0.323  -0.060   2.665  0.4078 -0.0732 -1.1232
  495MOL0     C66744   0.709  -0.031   2.441 -0.4341  1.1687  0.1573
  495MOL0     C66745   0.745  -0.173   2.445  0.3983 -0.3776 -0.0848
  495MOL0     C66746   0.879  -0.216   2.431  0.7739 -0.5012 -0.4916
  495MOL0     C66747   0.983  -0.126   2.433  0.8717 -0.1997 -0.6754
  495MOL0     O66748   1.123  -0.161   2.432  0.2205  0.0145  1.1466
  495MOL0     C66749   1.165  -0.299   2.442 -0.5254 -0.9720  0.4063
  495MOL0     C66750   1.310  -0.298   2.483  0.1086  0.1192 -0.1913
  495MOL0     C66751   1.336  -0.232   2.623 -0.2445  0.9175  0.4748
  495MOL0     C66752   1.278  -0.323   2.739  0.4513 -0.1131  0.6830
  495MOL0     C66753   1.281  -0.252   2.868 -0.0123  0.0322 -1.5596
  495MOL0     C66754   1.286  -0.204   2.976 -1.0416  0.1489  0.1313
  495MOL0     C66755   0.950   0.010   2.426  0.1928 -0.0108 -0.4809
  495MOL0     C66756   0.814   0.060   2.430  0.0476  0.0848  1.0544
  495MOL0     C66757   0.791   0.203   2.400 -0.1094  0.4774  0.3912
  495MOL0     H66758   0.278  -0.109   2.337  0.7774 -0.0597 -0.1146
  495MOL0     H66759   0.050  -0.105   2.392 -1.6122 -1.4881  1.3442
  495MOL0     H66760  -0.111   0.014   2.453  1.0244 -0.0808  0.6572
  495MOL0     H66761  -0.184  -0.144   2.513 -2.6178  0.4010  1.6797
  495MOL0     H66762  -0.246   0.112   2.646  0.4432 -0.6369  0.1650
  495MOL0     H66763  -0.308  -0.054   2.671  1.6957 -1.0618  1.1057
  495MOL0     H66764  -0.418  -0.024   2.426  0.4395 -2.0577  2.5501
  495MOL0     H66765  -0.338   0.135   2.430  1.6896 -0.8466 -0.5206
  495MOL0     H66766  -0.546   0.029   2.629  1.9554  0.6077  1.2573
  495MOL0     H66767  -0.483   0.192   2.621 -1.5608  0.8102 -0.2184
  495MOL0     H66768  -0.582   0.218   2.396 -2.1839  0.9342  0.0169
  495MOL0     H66769  -0.635   0.057   2.392  1.1312  1.0949 -1.1999
  495MOL0     H66770  -0.782   0.088   2.596  0.9849 -0.6134  0.1458
  495MOL0     H66771  -0.737   0.258   2.608  0.0801  0.9894 -0.2720
  495MOL0     H66772  -0.799   0.248   2.351 -0.6541  0.6819 -0.5280
  495MOL0     H66773  -0.935   0.275   2.459 -1.2806  0.7022 -2.2654
  495MOL0     H66774  -0.972   0.075   2.293 -2.1170  0.5521  1.1497
  495MOL0     H66775  -0.861  -0.018   2.402  0.6816 -0.4227 -1.5473
  495MOL0     H66776  -0.957  -0.136   2.631  0.8115  0.2489 -0.3594
  495MOL0     H66777  -1.159  -0.053   2.884  2.0627 -1.2633 -1.0038
  495MOL0     H66778  -1.303  -0.110   2.802  0.2646 -0.4006 -3.1340
  495MOL0     H66779  -1.191  -0.323   2.752 -0.5047 -0.4070 -0.4130
  495MOL0     H66780  -1.044  -0.263   2.823 -0.1536 -3.9246  0.3171
  495MOL0     H66781  -1.295  -0.281   2.983  0.5009  1.2002 -0.3488
  495MOL0     H66782  -1.119  -0.245   3.048  1.3298 -1.7662  0.2471
  495MOL0     H66783  -1.230  -0.500   2.936 -3.0165 -0.1056  2.2327
  495MOL0     H66784  -1.191  -0.464   3.099 -1.1229  2.4748 -0.3290
  495MOL0     H66785  -0.999  -0.711   3.158 -0.6168  0.1479  1.3510
  495MOL0     H66786  -0.827  -0.731   3.310 -0.3660  0.0244 -0.4605
  495MOL0     H66787  -0.453  -0.289   3.539 -0.3631  0.5762 -0.4689
  495MOL0     H66788  -0.277  -0.298   3.698 -0.0846 -0.5941  0.2374
  495MOL0     H66789  -0.107  -0.329   3.888  1.2855 -0.3340 -0.4161
  495MOL0     H66790  -0.275  -0.328   3.918 -0.2109 -1.4970 -1.9797
  495MOL0     H66791  -0.154  -0.350   4.137 -1.3785 -0.1968 -0.5006
  495MOL0     H66792  -0.272  -0.472   4.099  0.2612  0.2773  1.5318
  495MOL0     H66793  -0.096  -0.606   4.179  1.6533  0.3253 -0.7889
  495MOL0     H66794  -0.035  -0.604   4.011 -0.3949 -1.9519  0.5485
  495MOL0     H66795   0.039  -0.399   4.233  3.6054  0.3909  2.8725
  495MOL0     H66796   0.122  -0.431   4.084  0.3189 -0.2733  0.4929
  495MOL0     H66797   0.176  -0.670   4.153 -3.4744 -0.0454  0.1344
  495MOL0     H66798   0.142  -0.632   4.317  1.8437 -1.0568  1.1861
  495MOL0     H66799   0.285  -0.415   4.300  2.0383  0.4738 -0.2425
  495MOL0     H66800   0.363  -0.568   4.329  0.4607 -0.5058 -0.9766
  495MOL0     H66801   0.349  -0.443   4.053 -1.2378 -0.4083 -0.6227
  495MOL0     H66802   0.410  -0.595   4.089 -1.7035  0.3176 -1.9296
  495MOL0     H66803   0.572  -0.487   4.271  2.2241 -1.9001 -0.9873
  495MOL0     H66804   0.599  -0.429   4.108 -0.2478 -2.9736 -0.0246
  495MOL0     H66805  -0.359  -0.715   3.755  3.0880  0.2018 -1.3265
  495MOL0     H66806  -0.538  -0.693   3.589  1.4610 -1.3150  0.3036
  495MOL0     H66807  -0.699  -0.321   3.230  0.1853 -1.0928  2.2495
  495MOL0     H66808  -0.871  -0.306   3.054  1.2214 -0.7085 -1.3830
  495MOL0     H66809   0.151   0.007   2.795 -2.7697  0.5722 -0.5413
  495MOL0     H66810   0.408  -0.033   2.726  1.0754  0.4456 -2.2452
  495MOL0     H66811   0.664  -0.245   2.443  2.9110 -3.4418 -3.0637
  495MOL0     H66812   0.885  -0.324   2.426  0.5090 -0.5591  0.2249
  495MOL0     H66813   1.146  -0.365   2.357 -1.2568  1.1968 -1.2239
  495MOL0     H66814   1.108  -0.345   2.523 -1.7017  0.3394  0.3562
  495MOL0     H66815   1.359  -0.236   2.407  1.1978  1.5362  1.5880
  495MOL0     H66816   1.348  -0.400   2.477 -0.0912  0.0087  0.4195
  495MOL0     H66817   1.306  -0.127   2.631  4.0002  2.7595 -3.3932
  495MOL0     H66818   1.445  -0.231   2.635  0.0513 -0.7940 -1.4738
  495MOL0     H66819   1.173  -0.349   2.720  0.5252 -1.8943  2.3520
  495MOL0     H66820   1.339  -0.413   2.752  1.0326  0.4857  2.3237
  495MOL0     H66821   1.291  -0.166   3.076 -1.5595 -3.0841  1.5058
  495MOL0     H66822   1.035   0.077   2.424 -1.0523  1.6238 -0.6336
  495MOL0     H66823   0.793   0.200   2.291  2.3270 -2.2286  0.3950
  495MOL0     H66824   0.691   0.231   2.435  0.0522 -0.0623  1.3127
  495MOL0     H66825   0.862   0.279   2.432  0.4964  0.2416 -0.3720
  496MOL0     O66826   7.848   8.134   8.600 -0.3823 -0.1660 -0.3325
  496MOL0     C66827   7.793   8.187   8.505  0.4736  0.2484  0.3579
  496MOL0     O66828   7.852   8.282   8.432  0.2741  0.6300  0.5000
  496MOL0     C66829   7.950   8.363   8.487 -0.0952  0.2324 -0.3532
  496MOL0     C66830   8.047   8.410   8.399  0.7215 -0.7474 -0.3967
  496MOL0     C66831   8.157   8.486   8.453 -0.1565  0.1561 -0.6780
  496MOL0     C66832   8.147   8.541   8.586 -0.6706  0.2600  0.4740
  496MOL0     O66833   8.242   8.637   8.632 -0.5152  0.0492  0.1736
  496MOL0     C66834   8.377   8.654   8.572  0.4796 -1.0936  0.0514
  496MOL0     C66835   8.468   8.734   8.667 -0.3446  0.8392  0.8016
  496MOL0     C66836   8.586   8.787   8.587  0.9353  0.6279  0.4062
  496MOL0     C66837   8.675   8.882   8.677  0.3886 -0.2097  0.4630
  496MOL0     C66838   8.771   8.962   8.591 -0.3980 -0.0126 -0.0446
  496MOL0     C66839   8.852   9.056   8.677 -0.2676  0.1759  0.6737
  496MOL0     C66840   8.941   8.980   8.776 -0.9033  0.5946  0.0573
  496MOL0     C66841   9.009   8.860   8.705 -0.3110  0.7746 -1.2581
  496MOL0     N66842   9.100   8.787   8.796 -0.5889  0.6854  0.4189
  496MOL0     C66843   9.080   8.773   8.932 -0.0471  1.3313 -0.1213
  496MOL0     C66844   9.196   8.724   8.976 -0.4266  0.9562  0.5196
  496MOL0     C66845   9.244   8.698   9.120  0.1588  0.2449  0.2027
  496MOL0     C66846   9.393   8.744   9.143  0.0191  0.8477 -0.2099
  496MOL0     C66847   9.420   8.892   9.178  0.1770  1.2067  0.0531
  496MOL0     C66848   9.333   8.994   9.104 -0.6556 -0.1074  0.2910
  496MOL0     O66849   9.208   9.010   9.176 -0.4258  0.5658 -0.6322
  496MOL0     C66850   9.122   9.100   9.118  0.4277  0.2581  0.0861
  496MOL0     C66851   8.991   9.119   9.173 -0.0668  0.3393  1.0886
  496MOL0     C66852   8.913   9.227   9.125  0.0843  0.2972 -0.2967
  496MOL0     C66853   8.962   9.310   9.021 -0.0054 -0.8063  0.2258
  496MOL0     C66854   8.894   9.429   8.972 -0.3420 -0.1551  1.3140
  496MOL0     O66855   8.950   9.488   8.860  0.1861  0.3483  0.5045
  496MOL0     C66856   8.894   9.598   8.819  0.3914 -0.4466  1.3472
  496MOL0     C66857   8.891   9.719   8.898 -0.4430  0.1667  1.0964
  496MOL0     C66858   8.839   9.834   8.841 -0.1530 -0.0308 -0.1488
  496MOL0     C66859   8.816   9.845   8.703  0.0090  0.4913  0.2830
  496MOL0     O66860   8.796   9.964   8.637 -0.3539  0.5562  1.0359
  496MOL0     C66861   8.736  10.065   8.708  0.1919 -1.2024  1.0127
  496MOL0     C66862   8.664  10.170   8.624  0.4230 -0.3667  0.1785
  496MOL0     C66863   8.678  10.315   8.686 -0.7016  0.2746 -0.2574
  496MOL0     C66864   8.633  10.419   8.593  0.2385  0.1882 -1.2027
  496MOL0     C66865   8.654  10.566   8.652 -0.4627 -0.1589  0.7109
  496MOL0     C66866   8.793  10.624   8.637  0.1384  0.3211  0.2826
  496MOL0     C66867   8.788  10.777   8.643  0.1752 -0.1689 -0.1109
  496MOL0     C66868   8.927  10.829   8.616  0.1562  0.1559  0.1754
  496MOL0    Cl66869   8.924  11.006   8.563 -0.2914 -0.0747  0.2311
  496MOL0     C66870   8.811   9.727   8.627 -0.8630 -0.7271 -0.4633
  496MOL0     C66871   8.845   9.607   8.686 -0.1938  0.0123 -0.1505
  496MOL0     O66872   8.790   9.458   9.027  1.3468  0.3812  0.4753
  496MOL0     C66873   9.082   9.291   8.961 -0.6524  0.4605  0.1600
  496MOL0     C66874   9.161   9.190   9.016  0.3213  0.1531 -0.3379
  496MOL0     N66875   9.278   8.696   8.867  0.4595  0.7735  0.2817
  496MOL0     N66876   9.212   8.720   8.759 -0.1258 -0.4281 -0.8243
  496MOL0     C66877   8.039   8.504   8.669 -0.0748  0.8032  0.5231
  496MOL0     C66878   7.946   8.413   8.621  0.2322  0.4359 -0.6631
  496MOL0     C66879   7.658   8.155   8.446  0.2257  0.1515  0.4040
  496MOL0     C66880   7.653   8.088   8.328 -0.3282 -0.0055  0.5732
  496MOL0     C66881   7.536   8.078   8.260 -0.1836 -0.2726  0.5048
  496MOL0     C66882   7.415   8.125   8.313  0.8189  0.9839 -0.6363
  496MOL0     O66883   7.301   8.135   8.247  0.1915 -0.3575  0.8375
  496MOL0     C66884   7.257   8.009   8.199  0.5430 -0.4810  0.5082
  496MOL0     C66885   7.211   7.912   8.308 -0.1584 -0.4067 -0.2257
  496MOL0     C66886   7.088   7.960   8.376 -0.1422  0.8153  0.8393
  496MOL0     C66887   7.033   7.859   8.468  0.7292  0.7206  0.1058
  496MOL0     C66888   6.975   7.742   8.391  1.1796 -0.4702 -1.7512
  496MOL0     C66889   6.896   7.657   8.355 -0.8100  0.2201  0.7766
  496MOL0     C66890   7.425   8.202   8.433  0.7106 -0.9356  0.3451
  496MOL0     C66891   7.545   8.217   8.506 -0.5575 -0.2523  0.7827
  496MOL0     C66892   7.550   8.299   8.634  0.2502  0.2586 -0.1333
  496MOL0     H66893   8.027   8.391   8.294 -0.6517  3.1791 -1.0080
  496MOL0     H66894   8.235   8.528   8.390 -1.1172  1.7892 -0.8298
  496MOL0     H66895   8.428   8.561   8.546  2.4454  0.0615 -0.4179
  496MOL0     H66896   8.367   8.701   8.474 -3.7344  0.0940  0.8546
  496MOL0     H66897   8.502   8.673   8.751 -0.4728 -1.1006 -0.4808
  496MOL0     H66898   8.408   8.817   8.704 -1.9210  0.1976 -0.2144
  496MOL0     H66899   8.543   8.838   8.501  2.3005  1.8206  0.3947
  496MOL0     H66900   8.655   8.709   8.551 -1.0651 -0.0157 -2.3486
  496MOL0     H66901   8.604   8.943   8.733 -1.1504 -1.7034  0.1966
  496MOL0     H66902   8.729   8.827   8.754  2.6454  0.4166 -0.5771
  496MOL0     H66903   8.830   8.901   8.522 -0.4286 -0.6563  0.4855
  496MOL0     H66904   8.709   9.025   8.526  0.6785 -2.3582 -3.6550
  496MOL0     H66905   8.924   9.105   8.611  0.4998 -1.0680  0.5501
  496MOL0     H66906   8.791   9.131   8.728  2.0828  0.4468  3.3493
  496MOL0     H66907   8.872   8.947   8.853 -1.3298  2.1690  0.3805
  496MOL0     H66908   9.017   9.040   8.828  0.7325 -0.2049 -1.2934
  496MOL0     H66909   8.933   8.785   8.682 -1.6824  0.8914  2.3025
  496MOL0     H66910   9.071   8.885   8.618  2.3837 -2.1638 -0.3952
  496MOL0     H66911   8.994   8.796   8.994  0.1043  0.6365  0.3606
  496MOL0     H66912   9.171   8.736   9.192 -0.6166 -3.0507  1.3329
  496MOL0     H66913   9.236   8.589   9.129 -1.7735 -0.2848 -4.7963
  496MOL0     H66914   9.438   8.700   9.233 -2.6756  2.5323  2.1217
  496MOL0     H66915   9.454   8.709   9.059 -1.4152  0.1461 -1.0036
  496MOL0     H66916   9.524   8.909   9.151  0.6263 -1.0311  0.1629
  496MOL0     H66917   9.410   8.904   9.287  0.6529 -2.1983  0.5908
  496MOL0     H66918   9.319   8.955   9.003 -0.5872 -0.6434  0.4859
  496MOL0     H66919   9.379   9.093   9.093  1.1114 -0.9779 -0.5107
  496MOL0     H66920   8.942   9.043   9.233 -2.7209 -0.5527 -1.9395
  496MOL0     H66921   8.812   9.252   9.158  0.1462  2.5551 -1.5608
  496MOL0     H66922   8.939   9.731   8.995  1.7990  2.0707 -0.1259
  496MOL0     H66923   8.838   9.930   8.892 -2.2773  1.4581 -2.7017
  496MOL0     H66924   8.664  10.022   8.778  0.3665  0.0462  1.9850
  496MOL0     H66925   8.815  10.114   8.766  0.0193  1.2113 -0.6331
  496MOL0     H66926   8.705  10.163   8.522 -0.6532 -0.4634 -0.2607
  496MOL0     H66927   8.557  10.152   8.615  0.4698 -0.0208 -1.3127
  496MOL0     H66928   8.624  10.334   8.779  0.2155  2.7935 -0.1631
  496MOL0     H66929   8.783  10.333   8.712 -1.0720  0.5436  1.1046
  496MOL0     H66930   8.527  10.400   8.576  0.1468 -2.5050  1.4996
  496MOL0     H66931   8.682  10.410   8.495 -2.9411 -0.3669 -2.9000
  496MOL0     H66932   8.629  10.582   8.757  0.1460  2.2277  0.5450
  496MOL0     H66933   8.582  10.624   8.594 -0.3995 -1.5646 -0.8637
  496MOL0     H66934   8.856  10.581   8.715 -1.4299 -1.9848  0.3750
  496MOL0     H66935   8.813  10.590   8.535 -5.8556  0.0381 -1.1700
  496MOL0     H66936   8.746  10.817   8.736 -0.6286  1.0557 -0.9731
  496MOL0     H66937   8.725  10.807   8.559 -0.3947 -0.4569  0.2072
  496MOL0     H66938   9.000  10.815   8.696  2.4440  3.1207 -1.1943
  496MOL0     H66939   8.968  10.768   8.534  0.3627 -0.4771  0.7421
  496MOL0     H66940   8.784   9.722   8.522 -0.0981  1.7446 -0.8252
  496MOL0     H66941   8.856   9.515   8.630 -1.7815 -2.4447  3.2533
  496MOL0     H66942   9.128   9.354   8.887  2.2686 -1.4471  0.1972
  496MOL0     H66943   9.251   9.184   8.956  0.5794 -1.9160  0.1687
  496MOL0     H66944   8.032   8.552   8.766  1.5323  1.5038  0.3269
  496MOL0     H66945   7.863   8.390   8.687  0.9033 -1.4631 -0.4237
  496MOL0     H66946   7.741   8.039   8.287  0.4482 -0.3397  2.4990
  496MOL0     H66947   7.547   8.021   8.168  2.1988  1.0711 -0.1204
  496MOL0     H66948   7.340   7.951   8.157  0.5525 -0.3632  0.3633
  496MOL0     H66949   7.186   8.040   8.122  0.8534  3.7046  1.6051
  496MOL0     H66950   7.290   7.892   8.380  0.4568 -0.2945 -0.8606
  496MOL0     H66951   7.183   7.817   8.260 -1.2997 -1.2216  1.8870
  496MOL0     H66952   7.017   7.986   8.296  1.8898  0.8417 -1.0694
  496MOL0     H66953   7.124   8.050   8.426  2.1009  0.2051  0.4182
  496MOL0     H66954   7.111   7.828   8.538  0.8367 -1.1994 -0.7834
  496MOL0     H66955   6.960   7.904   8.535  1.1668  0.6138  0.6555
  496MOL0     H66956   6.816   7.589   8.337 -0.5785  0.4953 -1.6371
  496MOL0     H66957   7.339   8.245   8.483  2.8208  1.8320  1.8719
  496MOL0     H66958   7.599   8.246   8.716  2.6259  0.1816 -1.4942
  496MOL0     H66959   7.612   8.388   8.624  1.0874 -0.1132  1.3889
  496MOL0     H66960   7.449   8.332   8.658 -0.3010  0.1101 -2.0261
  497MOL0     O66961   5.725   0.774   0.197  0.0113 -0.1935 -0.3595
  497MOL0     C66962   5.784   0.668   0.182 -0.4072 -0.0510 -0.0470
  497MOL0     O66963   5.750   0.551   0.245 -0.6068 -0.1809  0.5799
  497MOL0     C66964   5.634   0.545   0.313 -0.4985 -0.1078  0.1630
  497MOL0     C66965   5.524   0.468   0.265 -0.3315  0.2729  0.2270
  497MOL0     C66966   5.406   0.458   0.340 -0.4980  1.6342 -0.1634
  497MOL0     C66967   5.393   0.524   0.458 -0.2418  0.1818 -1.1607
  497MOL0     O66968   5.277   0.501   0.525  1.1560  0.2427  0.6957
  497MOL0     C66969   5.234   0.599   0.622 -0.3599  0.0148 -1.2722
  497MOL0     C66970   5.109   0.541   0.689  0.6391  0.0849  0.9180
  497MOL0     C66971   5.143   0.416   0.771  0.2793  0.8434  0.2293
  497MOL0     C66972   5.235   0.441   0.892  0.2288 -0.0848 -0.5585
  497MOL0     C66973   5.301   0.312   0.931  0.4619  0.1551  0.0216
  497MOL0     C66974   5.198   0.217   0.995 -1.0271  0.3142 -0.3689
  497MOL0     C66975   5.266   0.099   1.076 -0.2234 -0.4348  0.3904
  497MOL0     C66976   5.322   0.159   1.212  0.2596  0.8179  1.1180
  497MOL0     N66977   5.407   0.054   1.271 -0.2532  0.4696  0.1740
  497MOL0     C66978   5.532   0.005   1.240 -0.4058  0.2092  1.3541
  497MOL0     C66979   5.555  -0.089   1.331  0.2117  1.1732 -0.7725
  497MOL0     C66980   5.682  -0.178   1.349 -0.6414  0.1470 -0.8139
  497MOL0     C66981   5.813  -0.102   1.352  0.1952 -0.6872 -0.4798
  497MOL0     C66982   5.943  -0.180   1.365  0.8156  0.1655 -0.3449
  497MOL0     C66983   6.056  -0.111   1.298 -1.4131  0.7146 -0.2634
  497MOL0     O66984   6.171  -0.201   1.296 -0.2493  0.7640  0.5856
  497MOL0     C66985   6.292  -0.151   1.264  1.1207 -0.2006 -0.2720
  497MOL0     C66986   6.326  -0.016   1.228  0.4512 -0.5894 -0.2667
  497MOL0     C66987   6.457   0.025   1.205 -0.0530 -0.0367 -0.2117
  497MOL0     C66988   6.562  -0.066   1.216 -0.7175 -0.4996 -0.6824
  497MOL0     C66989   6.704  -0.028   1.192 -0.3664 -0.0464 -0.1642
  497MOL0     O66990   6.783  -0.125   1.152  0.1083  0.5329  0.1500
  497MOL0     C66991   6.918  -0.102   1.144 -0.6752  0.0313  0.5471
  497MOL0     C66992   6.984  -0.090   1.019  0.1826 -0.4634  0.9338
  497MOL0     C66993   7.122  -0.076   1.000  0.1919 -0.7008 -0.9145
  497MOL0     C66994   7.199  -0.080   1.117 -1.9362  0.0153 -0.0127
  497MOL0     O66995   7.337  -0.058   1.084  1.1269 -0.1224 -0.2565
  497MOL0     C66996   7.427  -0.075   1.194 -0.8514 -0.4256  0.3689
  497MOL0     C66997   7.566  -0.052   1.119  0.5055 -0.0766  0.5480
  497MOL0     C66998   7.681  -0.143   1.165 -1.1708 -0.1617 -0.6435
  497MOL0     C66999   7.806  -0.110   1.085  0.4046 -0.7988  0.4783
  497MOL0     C67000   7.928  -0.207   1.099  0.5404 -0.3850 -0.0717
  497MOL0     C67001   8.067  -0.161   1.053  0.1504 -0.5638  0.3289
  497MOL0     C67002   8.056  -0.130   0.898  0.1624 -0.9139  0.4437
  497MOL0     C67003   8.192  -0.095   0.832  0.7594  0.2562 -0.1342
  497MOL0    Cl67004   8.293  -0.252   0.819  0.3716  0.2896  0.4290
  497MOL0     C67005   7.138  -0.082   1.251 -0.7785  0.6094  0.1651
  497MOL0     C67006   7.003  -0.101   1.264  0.0782 -0.1483  0.6452
  497MOL0     O67007   6.735   0.090   1.202 -0.1977  0.2492  0.1261
  497MOL0     C67008   6.530  -0.191   1.268  0.4943  0.1206  0.2375
  497MOL0     C67009   6.399  -0.243   1.286  0.6283  0.0312 -0.0958
  497MOL0     N67010   5.451  -0.090   1.425 -1.0174  0.1756 -1.1692
  497MOL0     N67011   5.362  -0.006   1.383 -0.8775 -0.0723 -1.4229
  497MOL0     C67012   5.496   0.607   0.505  0.4999  0.2915  0.7454
  497MOL0     C67013   5.618   0.613   0.433  0.4961 -0.7736 -0.1946
  497MOL0     C67014   5.906   0.662   0.101  0.0575  0.1130 -0.8680
  497MOL0     C67015   6.004   0.564   0.139  0.7009  0.6051  0.7611
  497MOL0     C67016   6.134   0.563   0.068 -0.2811 -0.0378  1.0743
  497MOL0     C67017   6.162   0.658  -0.035 -0.3731 -0.2056 -0.3531
  497MOL0     O67018   6.284   0.654  -0.091 -0.6415 -0.1044 -0.1675
  497MOL0     C67019   6.315   0.758  -0.185 -0.1559 -0.0318  0.4491
  497MOL0     C67020   6.464   0.750  -0.226  0.3900 -0.0206  0.7109
  497MOL0     C67021   6.565   0.809  -0.129 -0.3588  0.3440 -0.8652
  497MOL0     C67022   6.705   0.775  -0.173  0.0553  0.3497  0.0691
  497MOL0     C67023   6.789   0.867  -0.100  0.2481 -0.2988  0.0300
  497MOL0     C67024   6.849   0.957  -0.043  0.6491  0.1591 -0.7171
  497MOL0     C67025   6.062   0.751  -0.067  0.7223 -0.6392 -0.1352
  497MOL0     C67026   5.937   0.767   0.001 -0.1849  0.5775  0.2938
  497MOL0     C67027   5.849   0.885  -0.056 -0.0600 -0.4750  0.3881
  497MOL0     H67028   5.558   0.412   0.179  3.4109  1.8768  0.4427
  497MOL0     H67029   5.320   0.405   0.301 -1.1204  1.7423  1.0055
  497MOL0     H67030   5.301   0.615   0.706 -3.3238 -1.4378  1.6069
  497MOL0     H67031   5.217   0.699   0.579  0.2222 -0.0163 -1.5816
  497MOL0     H67032   5.033   0.511   0.615  2.4599  0.2709 -1.1440
  497MOL0     H67033   5.047   0.609   0.748 -0.6630  2.7060 -3.0496
  497MOL0     H67034   5.190   0.344   0.703 -2.9247 -0.6988 -0.5194
  497MOL0     H67035   5.052   0.366   0.805  0.8891 -1.7621 -1.7062
  497MOL0     H67036   5.312   0.518   0.877 -0.6658  0.5942 -1.7971
  497MOL0     H67037   5.172   0.487   0.969 -1.5667 -1.6023 -1.0640
  497MOL0     H67038   5.351   0.250   0.855  1.2675 -1.4215  1.7298
  497MOL0     H67039   5.375   0.348   1.004 -0.6431 -1.2629  1.9572
  497MOL0     H67040   5.139   0.279   1.063  0.0347  2.8189 -1.6141
  497MOL0     H67041   5.133   0.165   0.923 -0.2327 -1.3961  0.0798
  497MOL0     H67042   5.347   0.065   1.011  0.3232  1.2471  0.1553
  497MOL0     H67043   5.199   0.014   1.092 -1.3588 -0.1003 -2.0760
  497MOL0     H67044   5.389   0.246   1.207  0.2048  0.8016 -0.9720
  497MOL0     H67045   5.251   0.196   1.286  0.8692  3.1062  0.6549
  497MOL0     H67046   5.595   0.038   1.159 -0.4270 -1.6480  0.5586
  497MOL0     H67047   5.667  -0.241   1.437 -1.0992 -1.2333 -1.8422
  497MOL0     H67048   5.681  -0.242   1.261  1.0242 -0.0206 -0.7310
  497MOL0     H67049   5.808  -0.049   1.256 -2.0601 -2.2750 -1.3363
  497MOL0     H67050   5.822  -0.026   1.430  0.0877  1.1310 -2.1604
  497MOL0     H67051   5.923  -0.279   1.325 -1.3817 -1.5140  4.1970
  497MOL0     H67052   5.965  -0.202   1.470 -0.1681 -1.8681 -0.5185
  497MOL0     H67053   6.093  -0.024   1.352  1.2674 -0.5393  0.0995
  497MOL0     H67054   6.038  -0.074   1.197  5.3046 -0.4878 -2.4581
  497MOL0     H67055   6.255   0.060   1.197 -0.4343 -1.8487 -1.4182
  497MOL0     H67056   6.476   0.128   1.179 -1.0742  1.0667  2.9123
  497MOL0     H67057   6.914  -0.090   0.936  1.4736 -3.2421 -0.3181
  497MOL0     H67058   7.157  -0.057   0.899 -0.7438  1.4682 -0.8813
  497MOL0     H67059   7.403  -0.003   1.273 -3.1844 -0.1071 -0.5417
  497MOL0     H67060   7.411  -0.168   1.249 -1.1787 -0.6135 -0.0422
  497MOL0     H67061   7.550  -0.058   1.011 -1.5668  0.0389  0.7933
  497MOL0     H67062   7.607   0.049   1.131 -1.2014  0.6908  0.2892
  497MOL0     H67063   7.696  -0.133   1.273  4.0257 -0.4971 -1.0748
  497MOL0     H67064   7.666  -0.249   1.143 -0.0848 -0.7485  1.1865
  497MOL0     H67065   7.833  -0.006   1.107 -2.4296 -0.4589  2.7859
  497MOL0     H67066   7.781  -0.109   0.978  0.1409  1.6557  0.5073
  497MOL0     H67067   7.892  -0.300   1.052  0.2676 -0.1494 -0.3375
  497MOL0     H67068   7.929  -0.224   1.207 -1.1259  4.5971  1.0157
  497MOL0     H67069   8.103  -0.070   1.102 -1.1926 -1.0814  2.4084
  497MOL0     H67070   8.133  -0.241   1.089 -0.2102 -0.8957  0.2629
  497MOL0     H67071   7.990  -0.044   0.885  0.6416 -0.2953  1.8717
  497MOL0     H67072   8.004  -0.213   0.849  2.6290 -0.7286 -2.7585
  497MOL0     H67073   8.173  -0.053   0.733  1.2356  4.4173  1.3413
  497MOL0     H67074   8.248  -0.024   0.893 -0.4549  0.2674  1.0196
  497MOL0     H67075   7.198  -0.063   1.339 -0.3794  0.8537 -0.1578
  497MOL0     H67076   6.958  -0.113   1.362  2.9163 -1.1779  1.9337
  497MOL0     H67077   6.606  -0.266   1.280  0.8512 -0.0440 -2.4128
  497MOL0     H67078   6.378  -0.338   1.332 -0.3245  0.4478  0.3587
  497MOL0     H67079   5.492   0.663   0.597  3.5569  0.8435  0.6503
  497MOL0     H67080   5.700   0.664   0.483  0.5782  1.8115 -2.6978
  497MOL0     H67081   5.986   0.494   0.219  1.3712  0.6372  0.9451
  497MOL0     H67082   6.213   0.493   0.094  0.4647  0.3950  0.0709
  497MOL0     H67083   6.295   0.855  -0.140  0.5971  1.3468 -2.0261
  497MOL0     H67084   6.250   0.739  -0.272 -1.1732 -2.3995  1.6176
  497MOL0     H67085   6.469   0.802  -0.322 -0.8422  1.1735  1.2525
  497MOL0     H67086   6.479   0.644  -0.247 -2.3776 -0.4002  0.2349
  497MOL0     H67087   6.559   0.764  -0.030  0.1839  0.6350 -0.6945
  497MOL0     H67088   6.554   0.918  -0.117 -2.2551  0.4124 -2.6263
  497MOL0     H67089   6.719   0.669  -0.152 -2.2522  0.3032  1.7375
  497MOL0     H67090   6.727   0.793  -0.278  1.2162  2.5056  0.6084
  497MOL0     H67091   6.912   1.035  -0.005  1.3910  1.0590 -3.5213
  497MOL0     H67092   6.080   0.826  -0.143 -0.2626 -0.4774 -0.2309
  497MOL0     H67093   5.899   0.936  -0.139 -1.7413 -1.4222 -1.2706
  497MOL0     H67094   5.746   0.853  -0.074 -1.0864  2.2369  0.8046
  497MOL0     H67095   5.832   0.958   0.024 -0.2259 -0.2214  0.1229
  498MOL0     O67096   4.162   3.671   6.719 -0.0780  0.0690  0.7138
  498MOL0     C67097   4.078   3.665   6.806 -0.2916 -0.2959 -0.4338
  498MOL0     O67098   4.093   3.600   6.925  1.0517  0.3095  0.5351
  498MOL0     C67099   4.204   3.517   6.963  0.3456  0.0356  0.3936
  498MOL0     C67100   4.180   3.447   7.080  1.0774 -0.0124 -0.9765
  498MOL0     C67101   4.272   3.361   7.137  0.2065 -0.0040  0.2670
  498MOL0     C67102   4.391   3.331   7.069  0.7904  0.1773 -0.0374
  498MOL0     O67103   4.488   3.250   7.120 -0.4085  0.1814  0.4065
  498MOL0     C67104   4.444   3.163   7.224 -0.1869  0.0162 -0.3311
  498MOL0     C67105   4.559   3.068   7.254  0.0861  0.4464 -0.1175
  498MOL0     C67106   4.501   2.947   7.326  0.5610  0.8702 -0.1920
  498MOL0     C67107   4.434   2.988   7.454  0.0465 -0.2673  0.3958
  498MOL0     C67108   4.358   2.870   7.525 -0.1480  0.3122  0.2075
  498MOL0     C67109   4.256   2.921   7.635  0.4296  0.5429 -0.2426
  498MOL0     C67110   4.137   2.826   7.663  0.7378  1.0826  0.1034
  498MOL0     C67111   4.168   2.678   7.689  0.1127 -0.1864  0.6117
  498MOL0     N67112   4.269   2.657   7.792  0.2519 -0.0810 -0.8204
  498MOL0     C67113   4.237   2.613   7.911  1.1317  0.0888 -0.4233
  498MOL0     C67114   4.353   2.571   7.970  0.1292 -0.5055  0.4391
  498MOL0     C67115   4.360   2.509   8.107 -0.4137 -0.4116 -0.7610
  498MOL0     C67116   4.289   2.371   8.124 -1.1974  0.1795 -0.2546
  498MOL0     C67117   4.358   2.277   8.016  0.0719  0.2615  0.0995
  498MOL0     C67118   4.272   2.140   8.012 -0.4988 -0.1477  0.0344
  498MOL0     O67119   4.128   2.167   8.026 -0.6552 -0.1157 -0.1991
  498MOL0     C67120   4.052   2.236   7.937 -0.3324 -0.3067  0.2692
  498MOL0     C67121   3.925   2.282   7.984  0.4523  0.0636 -0.5690
  498MOL0     C67122   3.847   2.357   7.899  0.2109 -0.5703  0.0242
  498MOL0     C67123   3.890   2.396   7.767  0.1592  0.8782  0.3220
  498MOL0     C67124   3.814   2.486   7.676  0.5632  0.2464 -0.0294
  498MOL0     O67125   3.860   2.511   7.554 -0.0777  0.0086  0.4516
  498MOL0     C67126   3.801   2.589   7.459 -0.4055  0.5624 -0.1742
  498MOL0     C67127   3.886   2.666   7.380  0.6537 -0.1285 -0.4852
  498MOL0     C67128   3.834   2.756   7.291 -0.2730  0.8048  0.1643
  498MOL0     C67129   3.694   2.763   7.271  0.0594 -0.4609  0.2191
  498MOL0     O67130   3.637   2.836   7.173  0.7053  0.2088 -0.5067
  498MOL0     C67131   3.595   2.757   7.057  0.8550  0.1529 -0.7190
  498MOL0     C67132   3.569   2.842   6.943  0.0269  0.1103  1.0644
  498MOL0     C67133   3.525   2.762   6.814  0.6277 -0.1059 -0.0826
  498MOL0     C67134   3.486   2.851   6.696 -0.0319 -0.1052  0.0426
  498MOL0     C67135   3.613   2.894   6.624 -0.0631  0.4533 -0.7977
  498MOL0     C67136   3.655   2.830   6.503  0.3550  0.2712 -0.1247
  498MOL0     C67137   3.759   2.916   6.428 -0.3614  0.7421 -0.0995
  498MOL0     C67138   3.788   2.850   6.288  0.3486 -0.5900 -1.3383
  498MOL0    Cl67139   3.898   2.951   6.201 -0.2875  0.4289 -0.0939
  498MOL0     C67140   3.612   2.679   7.344 -0.0787 -0.2605  0.3335
  498MOL0     C67141   3.669   2.595   7.437  0.4406 -0.2671 -0.2273
  498MOL0     O67142   3.728   2.541   7.739  0.1181  0.2222  0.8248
  498MOL0     C67143   4.013   2.353   7.721  0.1656 -0.6385  0.5151
  498MOL0     C67144   4.089   2.270   7.806  0.3958  0.5330 -0.0067
  498MOL0     N67145   4.451   2.591   7.881  0.3618  0.1614 -0.5496
  498MOL0     N67146   4.403   2.645   7.776 -0.0389  0.5987  0.2305
  498MOL0     C67147   4.414   3.392   6.939  0.3523 -0.6138 -1.1178
  498MOL0     C67148   4.318   3.492   6.892  0.7528 -0.1749 -1.1567
  498MOL0     C67149   3.951   3.744   6.797 -0.3419 -0.1572 -0.1674
  498MOL0     C67150   3.883   3.778   6.910 -0.3370  0.5437  0.1559
  498MOL0     C67151   3.769   3.849   6.911 -0.5076  1.0102 -0.2120
  498MOL0     C67152   3.711   3.888   6.796  0.0728  0.2145  0.5302
  498MOL0     O67153   3.598   3.958   6.780 -0.2493  0.2741 -0.0487
  498MOL0     C67154   3.559   4.033   6.888  0.6238  0.6848  0.0329
  498MOL0     C67155   3.459   4.144   6.840 -0.7512 -0.7050 -0.1940
  498MOL0     C67156   3.460   4.276   6.936 -0.1367  0.0805  0.1481
  498MOL0     C67157   3.362   4.392   6.904 -0.1122  0.9096  0.2379
  498MOL0     C67158   3.380   4.437   6.763  0.4866 -0.0743  0.4085
  498MOL0     C67159   3.391   4.485   6.655 -0.1942  0.1147 -0.0487
  498MOL0     C67160   3.772   3.865   6.679  0.0561  0.4400  0.0170
  498MOL0     C67161   3.898   3.800   6.676 -0.5718 -0.2268  0.2970
  498MOL0     C67162   3.961   3.791   6.538  0.2060 -0.5478  0.2585
  498MOL0     H67163   4.089   3.469   7.136 -0.4179 -2.6455 -2.1884
  498MOL0     H67164   4.253   3.343   7.242  1.1182  1.6478  0.7509
  498MOL0     H67165   4.418   3.221   7.313 -0.1117  1.5330 -1.2715
  498MOL0     H67166   4.353   3.110   7.195 -0.8407  0.2681  1.1328
  498MOL0     H67167   4.633   3.118   7.317 -0.2468  0.8728 -0.0603
  498MOL0     H67168   4.599   3.029   7.160 -0.1531 -0.1136  0.0131
  498MOL0     H67169   4.579   2.873   7.348  0.0938  0.6721  0.8279
  498MOL0     H67170   4.440   2.900   7.249  0.4503  1.9046 -0.7635
  498MOL0     H67171   4.516   3.030   7.512  1.9466  2.1029 -3.5607
  498MOL0     H67172   4.354   3.063   7.454 -1.0874 -1.4158  1.3516
  498MOL0     H67173   4.303   2.814   7.448  2.0739  0.0793 -1.3111
  498MOL0     H67174   4.420   2.785   7.555 -0.9328 -0.4235 -0.2081
  498MOL0     H67175   4.302   2.953   7.729 -0.0699  0.4153  0.0566
  498MOL0     H67176   4.217   3.015   7.596 -2.2024  0.2964  1.5166
  498MOL0     H67177   4.060   2.828   7.585  0.5130 -1.6303  0.1556
  498MOL0     H67178   4.077   2.864   7.746  3.7515  2.1987  1.9072
  498MOL0     H67179   4.074   2.625   7.706 -0.6689  0.7805 -0.4938
  498MOL0     H67180   4.212   2.639   7.597 -0.4786  1.2555 -0.3204
  498MOL0     H67181   4.136   2.617   7.950  0.6947  1.2369 -1.6107
  498MOL0     H67182   4.465   2.498   8.135 -0.4807  4.0269  2.3409
  498MOL0     H67183   4.310   2.585   8.168 -0.9047  1.8409 -3.6934
  498MOL0     H67184   4.307   2.325   8.221  3.0454  1.6526 -0.1279
  498MOL0     H67185   4.181   2.379   8.112 -1.2436 -1.3962 -1.1739
  498MOL0     H67186   4.462   2.254   8.040  1.1701  2.0199 -2.5291
  498MOL0     H67187   4.350   2.315   7.914  2.0515  1.6476  0.4035
  498MOL0     H67188   4.296   2.061   8.084 -1.7054 -1.7763 -1.2583
  498MOL0     H67189   4.288   2.104   7.910  0.4705  0.2215  0.0455
  498MOL0     H67190   3.885   2.252   8.081  1.0102  0.3387 -0.2536
  498MOL0     H67191   3.753   2.390   7.943  1.8121  2.7919  1.2794
  498MOL0     H67192   3.992   2.674   7.401  0.3161  0.4800  1.1787
  498MOL0     H67193   3.896   2.832   7.245  1.2774  0.2527  1.2439
  498MOL0     H67194   3.659   2.669   7.044  0.2622 -0.8895  2.4977
  498MOL0     H67195   3.496   2.714   7.077  1.1601 -0.8331 -1.2536
  498MOL0     H67196   3.480   2.895   6.981  0.6305  1.1292  1.0880
  498MOL0     H67197   3.652   2.910   6.924  0.9005 -0.3552  3.0076
  498MOL0     H67198   3.599   2.692   6.775 -0.1752 -0.7416 -0.4927
  498MOL0     H67199   3.439   2.697   6.832  0.0406  1.1726  2.1265
  498MOL0     H67200   3.428   2.936   6.733 -1.0168 -0.6292 -0.2716
  498MOL0     H67201   3.423   2.796   6.626  0.2344  2.3029 -2.2666
  498MOL0     H67202   3.699   2.897   6.691  0.1118  1.8443 -1.0410
  498MOL0     H67203   3.586   2.995   6.591 -2.4530  0.6539  1.4099
  498MOL0     H67204   3.698   2.734   6.530  0.7413  0.2978 -0.6335
  498MOL0     H67205   3.577   2.805   6.430  2.9190 -0.3651 -2.7991
  498MOL0     H67206   3.853   2.926   6.483  0.8935  2.6085 -2.3909
  498MOL0     H67207   3.727   3.020   6.432 -1.1821  0.5003 -0.2844
  498MOL0     H67208   3.826   2.748   6.300  0.5840 -0.4835 -1.1701
  498MOL0     H67209   3.696   2.843   6.229 -1.8207  0.2698  1.6834
  498MOL0     H67210   3.504   2.673   7.331 -0.1403 -2.1370  1.3927
  498MOL0     H67211   3.600   2.528   7.488 -1.8156 -0.4416 -3.2597
  498MOL0     H67212   4.051   2.393   7.628  0.3418 -1.4701  0.2210
  498MOL0     H67213   4.183   2.231   7.768  0.8282  2.3858 -0.9671
  498MOL0     H67214   4.503   3.372   6.879 -0.2339 -0.1545 -2.1588
  498MOL0     H67215   4.338   3.548   6.801  3.4698  0.2574 -0.3923
  498MOL0     H67216   3.919   3.759   7.010  1.1157 -0.7167 -0.5686
  498MOL0     H67217   3.739   3.876   7.012 -0.1366 -1.0690  0.4982
  498MOL0     H67218   3.634   4.092   6.942 -0.6070  2.9756 -0.6182
  498MOL0     H67219   3.500   3.975   6.959 -0.0715 -2.0129 -2.5862
  498MOL0     H67220   3.360   4.100   6.850 -0.5265 -0.8510  1.9788
  498MOL0     H67221   3.475   4.180   6.738 -1.8472 -0.6078 -0.3425
  498MOL0     H67222   3.562   4.315   6.944  0.1419 -0.3283 -1.1691
  498MOL0     H67223   3.434   4.252   7.039  3.9946 -0.9293  1.1263
  498MOL0     H67224   3.265   4.350   6.930  1.5891 -2.9133  1.1274
  498MOL0     H67225   3.379   4.480   6.966  0.7637  0.3187  0.8641
  498MOL0     H67226   3.391   4.523   6.555 -1.2687 -0.7076 -0.3749
  498MOL0     H67227   3.721   3.898   6.589 -0.2361 -1.0408 -0.3870
  498MOL0     H67228   4.063   3.832   6.543 -0.2164  0.4810  0.9377
  498MOL0     H67229   3.968   3.686   6.510  2.9870 -1.0609  2.3766
  498MOL0     H67230   3.901   3.846   6.465  0.7641  0.8344  0.8030
  499MOL0     O67231   7.714   5.592   9.009  0.3557 -0.9786  0.3050
  499MOL0     C67232   7.676   5.480   8.959  0.0755 -0.3255 -0.9826
  499MOL0     O67233   7.753   5.403   8.870  1.3538 -0.0969 -0.5202
  499MOL0     C67234   7.876   5.457   8.839 -0.8177 -0.0095 -0.1586
  499MOL0     C67235   7.986   5.377   8.880 -0.0064  0.4533  0.1748
  499MOL0     C67236   8.108   5.407   8.814  0.2688 -0.8891 -0.8350
  499MOL0     C67237   8.129   5.522   8.735  0.4997  0.1602  0.0745
  499MOL0     O67238   8.251   5.559   8.682  0.0623  0.0336  0.3484
  499MOL0     C67239   8.352   5.577   8.775 -0.6410 -0.3889 -1.2919
  499MOL0     C67240   8.459   5.682   8.754  0.1706  0.4222  0.1694
  499MOL0     C67241   8.529   5.647   8.627  0.9199 -0.6758  0.5774
  499MOL0     C67242   8.670   5.720   8.616 -0.6014  0.8661  0.2897
  499MOL0     C67243   8.712   5.679   8.481 -1.0090 -0.2143 -0.7707
  499MOL0     C67244   8.859   5.724   8.467  0.1264 -0.8561 -0.0362
  499MOL0     C67245   8.897   5.722   8.327  0.4898 -0.4983  0.7966
  499MOL0     C67246   9.041   5.747   8.303  1.0344  0.0120  0.3010
  499MOL0     N67247   9.073   5.743   8.157  0.0798 -0.0009  0.6043
  499MOL0     C67248   9.103   5.845   8.070 -1.2581 -0.7891 -0.2398
  499MOL0     C67249   9.129   5.779   7.954 -0.4778 -0.6580  0.1727
  499MOL0     C67250   9.173   5.851   7.825 -0.5094 -0.2830  0.6194
  499MOL0     C67251   9.319   5.896   7.829 -0.2005 -0.6822  0.7921
  499MOL0     C67252   9.367   5.948   7.688  0.3454  0.0087 -0.6181
  499MOL0     C67253   9.520   5.997   7.691  0.8571  0.1727  0.8851
  499MOL0     O67254   9.601   5.879   7.720 -0.7263  0.2850 -1.1859
  499MOL0     C67255   9.736   5.900   7.716 -0.5536 -0.3577  0.6091
  499MOL0     C67256   9.821   5.792   7.723 -0.6217  0.1433 -0.6448
  499MOL0     C67257   9.953   5.801   7.717  0.4674  0.3702  0.3170
  499MOL0     C67258  10.021   5.923   7.708 -0.3872 -0.3106  0.5075
  499MOL0     C67259  10.161   5.927   7.702 -0.2774 -0.0362  0.5751
  499MOL0     O67260  10.236   5.810   7.676 -1.1717  0.0219  0.4851
  499MOL0     C67261  10.372   5.828   7.679  0.4215  0.2196 -0.1806
  499MOL0     C67262  10.447   5.783   7.571  0.5515 -0.1094 -0.2542
  499MOL0     C67263  10.583   5.795   7.566  0.0126  0.0328  0.5122
  499MOL0     C67264  10.656   5.838   7.678 -0.2262  0.5768 -0.0986
  499MOL0     O67265  10.791   5.855   7.653 -0.1471  0.4270 -0.7085
  499MOL0     C67266  10.861   5.873   7.777  0.2804 -0.3254 -0.1830
  499MOL0     C67267  11.015   5.854   7.760  0.1245  0.4762  0.0967
  499MOL0     C67268  11.072   5.864   7.892  0.2302 -0.4855 -0.5216
  499MOL0     C67269  11.221   5.862   7.895 -0.2260 -0.1302  0.3552
  499MOL0     C67270  11.256   5.848   8.036  0.0872  0.3215 -0.2281
  499MOL0     C67271  11.402   5.863   8.047  0.0687 -0.8675  0.2244
  499MOL0     C67272  11.442   5.792   8.179  0.0637  0.1096  0.1444
  499MOL0     C67273  11.592   5.827   8.207  0.3121  0.0132 -0.7237
  499MOL0    Cl67274  11.657   5.759   8.353 -0.0629 -0.2609 -0.2071
  499MOL0     C67275  10.582   5.876   7.792 -0.3473  0.1510 -0.5713
  499MOL0     C67276  10.435   5.869   7.790 -0.6158 -0.6667  0.4784
  499MOL0     O67277  10.207   6.032   7.744  0.1218  0.1901  0.0339
  499MOL0     C67278   9.937   6.036   7.690 -0.5743 -1.2447 -0.3195
  499MOL0     C67279   9.793   6.027   7.700  0.0477 -0.2540 -0.4214
  499MOL0     N67280   9.109   5.649   7.970 -0.1773  0.2838 -0.0993
  499MOL0     N67281   9.069   5.623   8.092  0.6751  0.1456  0.0908
  499MOL0     C67282   8.022   5.601   8.707 -0.9144 -0.2582 -0.3910
  499MOL0     C67283   7.894   5.562   8.745 -0.4149  0.8436  0.7733
  499MOL0     C67284   7.531   5.422   8.988  0.3571 -0.2272 -0.4813
  499MOL0     C67285   7.483   5.314   8.905  0.0742 -0.1318  0.2591
  499MOL0     C67286   7.359   5.249   8.926 -0.1878  0.7278  0.7182
  499MOL0     C67287   7.291   5.287   9.032 -0.3512  0.5334 -0.5369
  499MOL0     O67288   7.180   5.204   9.046  0.1299 -0.0996  0.0963
  499MOL0     C67289   7.087   5.246   9.152 -0.3461  0.6827 -0.3257
  499MOL0     C67290   6.991   5.143   9.169  0.6770  1.2192  0.2800
  499MOL0     C67291   6.893   5.123   9.051 -0.0552 -0.0344 -0.6057
  499MOL0     C67292   6.947   5.023   8.948 -0.6158  0.1734 -0.7989
  499MOL0     C67293   6.847   5.019   8.834 -0.2086 -0.5862 -0.0956
  499MOL0     C67294   6.756   5.025   8.755 -0.4524 -0.1097 -0.7440
  499MOL0     C67295   7.324   5.403   9.109  0.6140  0.1231 -0.4470
  499MOL0     C67296   7.451   5.464   9.091  0.2688 -0.0920 -0.2533
  499MOL0     C67297   7.488   5.573   9.191 -0.6254  0.2274 -0.0271
  499MOL0     H67298   7.965   5.297   8.950  1.5712  0.2611  0.4535
  499MOL0     H67299   8.198   5.349   8.832  1.9313  1.2423 -1.7874
  499MOL0     H67300   8.312   5.600   8.874 -0.3769 -4.9922  0.1504
  499MOL0     H67301   8.397   5.478   8.792 -1.4248 -0.3223  1.7308
  499MOL0     H67302   8.532   5.672   8.835  1.6529  0.5191 -1.1138
  499MOL0     H67303   8.415   5.781   8.737  1.2312  0.2999 -4.3056
  499MOL0     H67304   8.464   5.702   8.558 -0.1743  1.3215  3.0328
  499MOL0     H67305   8.555   5.542   8.611  1.3007 -0.2598 -1.9936
  499MOL0     H67306   8.669   5.829   8.621  3.1376  1.0434 -0.0963
  499MOL0     H67307   8.747   5.680   8.682  0.7419 -0.5762 -2.0218
  499MOL0     H67308   8.722   5.570   8.476 -0.6958 -0.2941  0.9560
  499MOL0     H67309   8.649   5.722   8.402  1.3471  2.4291 -1.3862
  499MOL0     H67310   8.890   5.825   8.496 -0.3880 -0.7313  0.1042
  499MOL0     H67311   8.929   5.664   8.525 -1.4843 -3.6833 -0.8358
  499MOL0     H67312   8.836   5.791   8.267  0.3639 -3.1157 -2.4108
  499MOL0     H67313   8.877   5.624   8.283 -0.8865  1.1211 -2.5466
  499MOL0     H67314   9.081   5.844   8.333  2.5789 -1.2694  2.7188
  499MOL0     H67315   9.103   5.671   8.352 -1.2261 -1.5912  0.8317
  499MOL0     H67316   9.118   5.950   8.092 -4.3642  0.3562 -2.7373
  499MOL0     H67317   9.159   5.785   7.739 -0.0636 -0.8743  0.9961
  499MOL0     H67318   9.105   5.932   7.796  0.9619  0.4590 -0.9061
  499MOL0     H67319   9.327   5.980   7.899  0.0248  0.1220 -0.1775
  499MOL0     H67320   9.383   5.812   7.859  0.3374 -0.8524 -0.7814
  499MOL0     H67321   9.312   6.034   7.651  0.7207 -0.1338 -1.5460
  499MOL0     H67322   9.350   5.863   7.621 -0.5753 -2.1564  2.1475
  499MOL0     H67323   9.541   6.072   7.768  2.9979 -0.5769  1.1200
  499MOL0     H67324   9.552   6.026   7.591 -0.6986 -0.9518  0.0308
  499MOL0     H67325   9.783   5.695   7.752 -1.4436  0.5831 -0.2149
  499MOL0     H67326   9.999   5.704   7.732  1.6419  1.0841  1.6394
  499MOL0     H67327  10.401   5.744   7.480  0.3812  3.9457 -2.1386
  499MOL0     H67328  10.635   5.761   7.478 -1.1232 -3.2241  0.9292
  499MOL0     H67329  10.840   5.970   7.823  0.1380  0.1393 -1.2147
  499MOL0     H67330  10.823   5.803   7.852  2.0726 -1.2120 -0.0609
  499MOL0     H67331  11.043   5.755   7.723 -3.7604 -0.5886 -0.4193
  499MOL0     H67332  11.058   5.933   7.698  1.9813 -0.2818  0.3678
  499MOL0     H67333  11.025   5.953   7.936  0.0445 -0.8260 -0.0218
  499MOL0     H67334  11.031   5.773   7.937 -3.0255  0.8122 -0.5324
  499MOL0     H67335  11.275   5.948   7.855 -1.0926 -0.0706 -0.7612
  499MOL0     H67336  11.254   5.766   7.854  0.8334 -0.0191  0.9202
  499MOL0     H67337  11.225   5.746   8.061 -0.6298 -0.2905 -3.2056
  499MOL0     H67338  11.206   5.926   8.094 -1.5940 -0.7038 -0.2348
  499MOL0     H67339  11.457   5.826   7.960 -0.2965 -3.8253  1.1569
  499MOL0     H67340  11.442   5.965   8.050  0.9572 -1.1403 -1.1450
  499MOL0     H67341  11.424   5.685   8.188  2.4112 -0.2269  1.6747
  499MOL0     H67342  11.396   5.840   8.266  1.8026  0.1809  1.0643
  499MOL0     H67343  11.651   5.788   8.124 -1.1738 -0.5602 -1.5557
  499MOL0     H67344  11.616   5.932   8.191  0.1755 -0.1306 -2.0390
  499MOL0     H67345  10.630   5.907   7.885 -0.7744  0.3590 -0.4122
  499MOL0     H67346  10.373   5.883   7.878 -0.9336  2.4758 -0.1071
  499MOL0     H67347   9.983   6.131   7.668 -1.0920 -0.4382  1.8258
  499MOL0     H67348   9.737   6.119   7.689 -1.7191 -1.4016 -1.5146
  499MOL0     H67349   8.034   5.679   8.634  0.1646 -1.3882 -1.4782
  499MOL0     H67350   7.819   5.625   8.699  2.3272  3.4183 -0.5391
  499MOL0     H67351   7.541   5.270   8.825  2.5751  3.2065  0.0135
  499MOL0     H67352   7.339   5.161   8.865  3.4751 -1.8730  2.8947
  499MOL0     H67353   7.037   5.342   9.135  3.2357  2.6568 -0.4988
  499MOL0     H67354   7.132   5.267   9.250  1.3460  0.3036 -0.9934
  499MOL0     H67355   6.939   5.159   9.264 -0.4423  3.3381 -0.6162
  499MOL0     H67356   7.052   5.052   9.175 -1.7130 -0.4668  0.4883
  499MOL0     H67357   6.873   5.223   9.011  2.4610  1.5547  1.7725
  499MOL0     H67358   6.812   5.069   9.101  1.9353  0.0829  3.0837
  499MOL0     H67359   7.047   5.051   8.915  0.1523 -0.3340  0.9793
  499MOL0     H67360   6.953   4.922   8.988  0.6096  0.3765 -0.4328
  499MOL0     H67361   6.675   5.031   8.686 -0.8595  1.1328 -0.1908
  499MOL0     H67362   7.264   5.433   9.194  3.5866 -2.2150  2.7490
  499MOL0     H67363   7.514   5.668   9.144  1.2775 -1.4841 -2.7521
  499MOL0     H67364   7.409   5.577   9.267 -0.1363 -2.6131  0.7555
  499MOL0     H67365   7.572   5.531   9.247 -0.5159 -0.1339 -0.4650
  500MOL0     O67366   1.076   4.424   1.433 -0.1380  0.3577  0.0636
  500MOL0     C67367   0.976   4.359   1.455  0.1700 -1.0152  0.3739
  500MOL0     O67368   0.970   4.236   1.505 -0.5971  1.0436 -0.4059
  500MOL0     C67369   1.073   4.194   1.586  0.0202 -0.6370  0.0050
  500MOL0     C67370   1.152   4.283   1.665  0.3168 -0.0900  0.6208
  500MOL0     C67371   1.265   4.241   1.738 -0.0029  0.1423 -0.0955
  500MOL0     C67372   1.311   4.106   1.731  0.0722 -0.1978  0.3334
  500MOL0     O67373   1.414   4.053   1.807  0.3302  0.0781  0.1838
  500MOL0     C67374   1.469   4.124   1.923 -0.6443 -0.5593  0.1989
  500MOL0     C67375   1.587   4.210   1.871 -1.0109 -1.0948  0.4240
  500MOL0     C67376   1.685   4.125   1.797 -0.7984  0.9215 -0.1871
  500MOL0     C67377   1.815   4.196   1.776  0.5572 -0.7772 -0.3274
  500MOL0     C67378   1.813   4.313   1.669 -0.4044 -1.0133  0.0363
  500MOL0     C67379   1.933   4.414   1.686 -0.0515  0.1631 -0.2042
  500MOL0     C67380   1.900   4.547   1.627  0.1268  0.3866  0.4263
  500MOL0     C67381   2.023   4.637   1.618 -0.7044 -0.7526  0.0045
  500MOL0     N67382   1.994   4.783   1.617  0.3626 -0.3292 -0.4738
  500MOL0     C67383   1.945   4.845   1.732 -0.4484 -0.2306 -0.4250
  500MOL0     C67384   1.913   4.973   1.707  0.0928 -0.3346 -0.7357
  500MOL0     C67385   1.841   5.073   1.791  0.8289 -0.2006  0.1310
  500MOL0     C67386   1.922   5.202   1.816 -0.0277 -0.3228 -0.3427
  500MOL0     C67387   1.862   5.301   1.918  0.0719 -0.1703  0.0522
  500MOL0     C67388   1.934   5.433   1.928 -0.3462 -0.1803 -0.1602
  500MOL0     O67389   2.081   5.414   1.921  0.4889 -0.1937  0.0373
  500MOL0     C67390   2.149   5.530   1.884  0.3874 -0.3875  0.3908
  500MOL0     C67391   2.151   5.649   1.956 -0.3781 -1.1174  0.4304
  500MOL0     C67392   2.239   5.758   1.927  0.5593  0.4218  0.2347
  500MOL0     C67393   2.349   5.730   1.831  0.1248  0.6468  0.7491
  500MOL0     C67394   2.452   5.827   1.809  0.1244 -0.0698 -0.8531
  500MOL0     O67395   2.426   5.946   1.864  0.1681  0.1311 -0.4176
  500MOL0     C67396   2.522   6.044   1.850 -0.7611 -0.2367  0.0226
  500MOL0     C67397   2.540   6.130   1.962  0.1899 -1.1814  0.3784
  500MOL0     C67398   2.630   6.234   1.948  1.5334  0.6925  0.2845
  500MOL0     C67399   2.683   6.260   1.824  0.9189  0.0737  0.0587
  500MOL0     O67400   2.773   6.359   1.813 -0.1688 -0.3395 -0.6765
  500MOL0     C67401   2.830   6.436   1.918 -0.8698 -0.3251  0.3386
  500MOL0     C67402   2.929   6.370   2.019 -1.3529  0.1297  0.0786
  500MOL0     C67403   3.071   6.338   1.962  0.6118 -0.3833 -0.7708
  500MOL0     C67404   3.150   6.459   1.909  0.0391  0.2786 -0.1271
  500MOL0     C67405   3.296   6.450   1.865 -0.0370  0.3246 -0.4227
  500MOL0     C67406   3.388   6.397   1.982  0.2120  0.8513 -0.4556
  500MOL0     C67407   3.525   6.367   1.929  0.1165  0.2185  0.0877
  500MOL0     C67408   3.616   6.305   2.030 -0.0184 -0.1865  0.3451
  500MOL0    Cl67409   3.777   6.254   1.949  0.2660 -0.3709  0.0970
  500MOL0     C67410   2.663   6.176   1.716  0.2325  0.5343  0.1001
  500MOL0     C67411   2.573   6.074   1.728 -0.5236 -1.1217 -0.9136
  500MOL0     O67412   2.558   5.797   1.759  0.2757 -0.5726  0.7337
  500MOL0     C67413   2.349   5.609   1.752  0.3923  0.0246 -0.9063
  500MOL0     C67414   2.248   5.515   1.785  0.5107 -0.3612 -0.0747
  500MOL0     N67415   1.954   4.993   1.573 -0.3477 -0.7775 -0.0977
  500MOL0     N67416   1.998   4.883   1.529  0.0540 -0.3008  0.0491
  500MOL0     C67417   1.232   4.015   1.658  0.1559 -0.1749 -0.2869
  500MOL0     C67418   1.123   4.063   1.579  0.2073 -0.1230 -0.3584
  500MOL0     C67419   0.847   4.409   1.410 -1.1301 -0.9515 -0.1687
  500MOL0     C67420   0.744   4.327   1.360 -1.9128 -0.8364 -0.6527
  500MOL0     C67421   0.634   4.377   1.297 -0.6568  0.1793  0.4569
  500MOL0     C67422   0.600   4.514   1.301  0.1981  0.3980  0.4797
  500MOL0     O67423   0.485   4.566   1.252 -0.3345 -0.4940  0.7037
  500MOL0     C67424   0.419   4.504   1.142 -0.5649 -1.0811  0.0044
  500MOL0     C67425   0.516   4.481   1.029  0.2447  0.4478 -0.9131
  500MOL0     C67426   0.582   4.610   0.976  0.1776  0.2645  0.7727
  500MOL0     C67427   0.593   4.629   0.819  0.5302 -0.4598 -0.1583
  500MOL0     C67428   0.668   4.521   0.757  0.1253 -0.1000  0.5532
  500MOL0     C67429   0.733   4.432   0.709  0.4156  0.2249  0.2868
  500MOL0     C67430   0.694   4.595   1.359 -0.2655  1.2400  1.1680
  500MOL0     C67431   0.819   4.548   1.406  0.2660  0.2581 -0.3095
  500MOL0     C67432   0.907   4.652   1.471 -0.0622 -0.6751 -0.8326
  500MOL0     H67433   1.129   4.389   1.675  2.8715  0.3569  2.6783
  500MOL0     H67434   1.324   4.301   1.807  0.4663 -1.3478  0.8519
  500MOL0     H67435   1.389   4.179   1.973 -1.5585 -2.8861  1.4277
  500MOL0     H67436   1.508   4.053   1.997 -1.9063  0.5219  1.9706
  500MOL0     H67437   1.620   4.255   1.965 -2.5174  2.3923 -0.5468
  500MOL0     H67438   1.561   4.291   1.801  4.4151  3.1663  2.5999
  500MOL0     H67439   1.633   4.090   1.707  2.1677 -1.8309 -1.0245
  500MOL0     H67440   1.705   4.031   1.848 -1.5154  0.8836  0.0398
  500MOL0     H67441   1.846   4.216   1.879 -4.3922 -3.9999  2.1788
  500MOL0     H67442   1.894   4.131   1.737  2.0735  0.5289  0.4367
  500MOL0     H67443   1.799   4.281   1.565  1.1162 -2.8571  0.3486
  500MOL0     H67444   1.728   4.372   1.703  0.4919 -0.8547  2.2089
  500MOL0     H67445   1.950   4.429   1.793 -1.7495 -4.8815  1.0782
  500MOL0     H67446   2.030   4.379   1.649 -0.8872 -1.3339 -1.0763
  500MOL0     H67447   1.830   4.589   1.700 -0.2367 -2.2270  1.6952
  500MOL0     H67448   1.859   4.553   1.526  1.2320  1.1549  0.0060
  500MOL0     H67449   2.075   4.622   1.713 -1.2595 -1.7268  0.1638
  500MOL0     H67450   2.085   4.611   1.531  0.3077  2.0585 -0.2194
  500MOL0     H67451   1.932   4.786   1.822  1.2825 -0.4178 -0.2694
  500MOL0     H67452   1.754   5.117   1.742 -0.0092  1.0217  2.5394
  500MOL0     H67453   1.801   5.033   1.885 -0.1746 -0.2050 -0.2957
  500MOL0     H67454   2.019   5.166   1.853 -0.5221  0.4575  1.8436
  500MOL0     H67455   1.932   5.263   1.726  1.4614 -1.2765 -0.8611
  500MOL0     H67456   1.853   5.249   2.014 -0.7296 -1.1603 -0.5340
  500MOL0     H67457   1.766   5.323   1.870 -0.4900 -0.2326  1.1129
  500MOL0     H67458   1.903   5.475   2.025 -0.4286 -0.0434 -0.2462
  500MOL0     H67459   1.904   5.486   1.838  2.3257 -1.0808 -1.7062
  500MOL0     H67460   2.077   5.671   2.032  0.3403 -2.6775  1.6286
  500MOL0     H67461   2.233   5.847   1.989  0.8729 -0.3603  1.3969
  500MOL0     H67462   2.487   6.112   2.055  1.7756  0.1431  1.6076
  500MOL0     H67463   2.652   6.296   2.034 -0.8825 -2.2461  3.2715
  500MOL0     H67464   2.876   6.523   1.871  0.2165 -0.8919  0.3105
  500MOL0     H67465   2.753   6.482   1.981 -0.1146 -2.3267  2.8996
  500MOL0     H67466   2.954   6.441   2.098  0.1472 -1.1977  0.8628
  500MOL0     H67467   2.884   6.287   2.074 -1.0522 -1.1802 -1.5440
  500MOL0     H67468   3.128   6.290   2.043  1.3109 -0.8345 -1.5213
  500MOL0     H67469   3.066   6.262   1.884 -1.8163 -2.6198  1.3694
  500MOL0     H67470   3.148   6.546   1.975  0.2978  0.9854 -1.0434
  500MOL0     H67471   3.104   6.487   1.814 -2.0492 -2.5809 -0.0881
  500MOL0     H67472   3.335   6.544   1.825  0.5426 -1.1363 -3.5677
  500MOL0     H67473   3.304   6.383   1.780  1.2628 -0.1958  0.0706
  500MOL0     H67474   3.397   6.455   2.075 -1.1329 -0.9676  0.8654
  500MOL0     H67475   3.349   6.303   2.022  1.1048  0.5104 -0.3680
  500MOL0     H67476   3.562   6.459   1.884  1.6377 -0.6300 -0.4716
  500MOL0     H67477   3.503   6.294   1.850  1.5513 -0.8403  0.6280
  500MOL0     H67478   3.637   6.375   2.111 -4.8030  3.3218 -1.0095
  500MOL0     H67479   3.563   6.214   2.061  1.3532 -1.5983 -1.2233
  500MOL0     H67480   2.716   6.188   1.622  0.6816 -1.9365 -0.0070
  500MOL0     H67481   2.557   6.011   1.642 -1.0073 -1.1833 -0.7814
  500MOL0     H67482   2.427   5.598   1.677  0.9828  0.8463 -0.4293
  500MOL0     H67483   2.253   5.425   1.726 -1.8348 -0.2093 -0.5973
  500MOL0     H67484   1.236   3.906   1.653  1.3207 -0.0929 -2.3487
  500MOL0     H67485   1.076   3.996   1.508 -1.2240  3.3354 -2.9601
  500MOL0     H67486   0.751   4.219   1.371  3.8624 -0.7040  0.1386
  500MOL0     H67487   0.578   4.295   1.253 -0.6823 -1.0624  2.6834
  500MOL0     H67488   0.334   4.562   1.106 -0.7449 -0.9559  0.6183
  500MOL0     H67489   0.373   4.412   1.177  0.4163 -1.3161  0.7269
  500MOL0     H67490   0.452   4.432   0.955 -0.0821  0.8742 -0.9135
  500MOL0     H67491   0.595   4.412   1.061 -0.8401 -0.3055  0.2412
  500MOL0     H67492   0.686   4.610   1.010  0.3519 -1.1069  0.2739
  500MOL0     H67493   0.530   4.704   1.000 -2.1737 -0.8616  0.4139
  500MOL0     H67494   0.497   4.629   0.766 -0.2678 -3.1629  1.1250
  500MOL0     H67495   0.635   4.727   0.796  0.3189  0.0525  1.5534
  500MOL0     H67496   0.791   4.360   0.654 -2.8365 -2.2480 -0.1971
  500MOL0     H67497   0.661   4.698   1.368 -0.3245  1.4226 -0.7327
  500MOL0     H67498   0.987   4.690   1.407  0.0505 -0.5168 -0.5993
  500MOL0     H67499   0.854   4.744   1.499  2.7088  2.0819 -3.7286
  500MOL0     H67500   0.953   4.619   1.564  0.0438  0.5996 -0.4057
  501MOL0     O67501   5.121   8.216   9.042  0.3360 -0.2150 -0.5100
  501MOL0     C67502   5.156   8.301   9.129  0.2810 -0.2246 -0.3966
  501MOL0     O67503   5.272   8.376   9.131 -0.1279  0.6576  1.2423
  501MOL0     C67504   5.371   8.378   9.035 -0.7244  0.7120  0.7632
  501MOL0     C67505   5.382   8.311   8.916  0.0557  0.2923 -0.5095
  501MOL0     C67506   5.488   8.326   8.832 -0.0169 -0.1239 -0.0153
  501MOL0     C67507   5.592   8.422   8.857 -0.5607  0.2629  0.1571
  501MOL0     O67508   5.690   8.448   8.756  0.9387 -0.2202 -0.0229
  501MOL0     C67509   5.697   8.590   8.717  0.5219  0.9110  0.9584
  501MOL0     C67510   5.842   8.618   8.673  0.3859  0.6394  0.1628
  501MOL0     C67511   5.870   8.560   8.532  1.2168 -0.2796 -0.3011
  501MOL0     C67512   6.010   8.544   8.494 -0.0438  0.3298 -0.5096
  501MOL0     C67513   6.062   8.681   8.458  0.9400 -0.1164 -0.2311
  501MOL0     C67514   6.198   8.679   8.405  0.3768  0.0777 -0.8376
  501MOL0     C67515   6.248   8.818   8.382 -0.2581  0.2751  0.3631
  501MOL0     C67516   6.378   8.819   8.303 -0.8627 -0.3064  0.3005
  501MOL0     N67517   6.491   8.758   8.381 -0.0559  0.0649  0.8119
  501MOL0     C67518   6.554   8.824   8.477 -1.0649  0.1495 -0.6026
  501MOL0     C67519   6.640   8.730   8.531  0.3783  0.1152 -0.8568
  501MOL0     C67520   6.743   8.746   8.639 -0.0191  0.6363  0.0594
  501MOL0     C67521   6.865   8.661   8.611 -0.4217  0.1980  0.3207
  501MOL0     C67522   6.987   8.713   8.682  0.1983 -0.7798  0.9869
  501MOL0     C67523   7.027   8.857   8.659 -0.1246  0.3002  0.0496
  501MOL0     O67524   7.041   8.894   8.518 -0.3364  0.4284  0.1350
  501MOL0     C67525   7.157   8.886   8.448  0.5238 -0.2035 -0.2975
  501MOL0     C67526   7.283   8.868   8.501  0.1831  0.3365 -0.1546
  501MOL0     C67527   7.407   8.879   8.433  0.2739  0.5237  0.3098
  501MOL0     C67528   7.392   8.929   8.296 -0.0175 -0.5906  0.0803
  501MOL0     C67529   7.517   8.980   8.220  0.5044  0.2581  1.1142
  501MOL0     O67530   7.515   9.049   8.095  0.9149 -0.4683 -0.5596
  501MOL0     C67531   7.631   9.050   8.024  0.2033  0.7508 -0.9314
  501MOL0     C67532   7.677   9.173   7.983  0.0867 -0.2692 -0.2931
  501MOL0     C67533   7.790   9.191   7.907 -0.3276 -0.3829  0.3394
  501MOL0     C67534   7.869   9.083   7.871  0.2241  0.4644 -0.5246
  501MOL0     O67535   7.985   9.105   7.802 -0.2649  0.0332 -0.7726
  501MOL0     C67536   8.100   9.017   7.834 -0.3852  0.2139 -0.0261
  501MOL0     C67537   8.231   9.069   7.760  1.6869  0.9310  0.4083
  501MOL0     C67538   8.360   9.025   7.815  0.0590  0.0698  0.1345
  501MOL0     C67539   8.477   9.067   7.729  0.2747  0.1504  0.1291
  501MOL0     C67540   8.601   9.021   7.805  1.0396 -0.6314 -0.0200
  501MOL0     C67541   8.738   9.062   7.752  0.4380 -0.5582 -0.0017
  501MOL0     C67542   8.780   8.993   7.617  1.0378  0.4036 -0.3627
  501MOL0     C67543   8.917   9.045   7.569 -0.2143 -0.1837 -0.8045
  501MOL0    Cl67544   8.947   8.988   7.407  0.2481  0.3097 -0.0822
  501MOL0     C67545   7.824   8.953   7.905 -0.2190 -0.1780  0.2162
  501MOL0     C67546   7.711   8.938   7.993 -0.3250 -0.1784 -0.5375
  501MOL0     O67547   7.619   8.939   8.268  0.0165 -0.2647 -0.1566
  501MOL0     C67548   7.261   8.949   8.240  0.7664  0.2131  0.0195
  501MOL0     C67549   7.150   8.924   8.318  0.6010 -0.3911  0.5710
  501MOL0     N67550   6.628   8.615   8.454  0.5469 -0.6237 -0.0510
  501MOL0     N67551   6.527   8.631   8.377  0.5456  0.6784 -0.1533
  501MOL0     C67552   5.583   8.489   8.977 -0.9769  0.3133 -0.1543
  501MOL0     C67553   5.478   8.466   9.066  0.3076  0.2528 -0.1761
  501MOL0     C67554   5.072   8.323   9.251  0.1005  0.0783 -1.0582
  501MOL0     C67555   5.125   8.396   9.358  0.4513 -0.6997  1.3202
  501MOL0     C67556   5.057   8.423   9.471  0.5481  0.0277  0.5223
  501MOL0     C67557   4.933   8.368   9.485 -0.2550  0.3442  0.8221
  501MOL0     O67558   4.866   8.395   9.601  0.1653  0.5142  0.0330
  501MOL0     C67559   4.830   8.281   9.677 -0.8642  1.4934 -0.1786
  501MOL0     C67560   4.686   8.295   9.711 -0.2572  0.3421  1.3122
  501MOL0     C67561   4.638   8.171   9.799  0.9205  0.0012  0.1042
  501MOL0     C67562   4.513   8.215   9.884  0.3414 -0.0937 -0.2439
  501MOL0     C67563   4.407   8.278   9.812  0.3645  0.9073  0.6265
  501MOL0     C67564   4.302   8.333   9.775 -0.5404  0.1257 -0.0618
  501MOL0     C67565   4.881   8.281   9.392  0.4683 -0.1657 -1.3980
  501MOL0     C67566   4.946   8.263   9.271  0.3862  0.0560 -0.4269
  501MOL0     C67567   4.864   8.198   9.158  0.1419  0.3609  0.8681
  501MOL0     H67568   5.301   8.243   8.889  1.9056 -2.1120 -0.3946
  501MOL0     H67569   5.482   8.275   8.736 -2.3355 -0.1568  0.1044
  501MOL0     H67570   5.626   8.623   8.641 -0.0194 -1.9727  0.1003
  501MOL0     H67571   5.668   8.650   8.803 -0.0041  4.2116 -1.3365
  501MOL0     H67572   5.917   8.583   8.744  0.6153  2.3595  0.8124
  501MOL0     H67573   5.844   8.727   8.667  2.4321  0.5963 -0.7432
  501MOL0     H67574   5.817   8.625   8.462  1.0670  0.2845  0.3303
  501MOL0     H67575   5.832   8.458   8.522  0.5412 -0.1060  0.3689
  501MOL0     H67576   6.068   8.511   8.580  1.6740  2.4744 -0.7758
  501MOL0     H67577   6.018   8.467   8.416 -2.8425 -0.4776 -0.1306
  501MOL0     H67578   5.992   8.718   8.383  0.1247 -0.6678  0.2297
  501MOL0     H67579   6.041   8.751   8.540 -2.1836  0.0456 -1.0381
  501MOL0     H67580   6.258   8.637   8.485 -1.2122  1.6203  1.2898
  501MOL0     H67581   6.207   8.621   8.313  1.6221  0.1908 -0.7966
  501MOL0     H67582   6.253   8.867   8.480  0.2231 -2.2780  1.6989
  501MOL0     H67583   6.178   8.884   8.329 -0.1634 -1.4317 -2.0183
  501MOL0     H67584   6.368   8.758   8.212  1.3506  1.3758 -1.1750
  501MOL0     H67585   6.391   8.923   8.275 -0.7179 -0.1195  1.0370
  501MOL0     H67586   6.537   8.925   8.514  3.0048 -0.1825  3.0162
  501MOL0     H67587   6.771   8.850   8.660 -1.1992  0.5593  2.2197
  501MOL0     H67588   6.712   8.708   8.736  0.7627  2.2805  0.9995
  501MOL0     H67589   6.841   8.555   8.625 -0.3384  0.2501  0.9065
  501MOL0     H67590   6.892   8.669   8.505  1.6453 -1.2417  0.6606
  501MOL0     H67591   7.079   8.657   8.666  2.6781  2.1314  3.7940
  501MOL0     H67592   6.981   8.708   8.791 -1.2056  1.3692  1.0703
  501MOL0     H67593   7.115   8.882   8.720 -1.2315 -2.4947  3.1413
  501MOL0     H67594   6.953   8.924   8.703  1.1391  0.4005  2.1909
  501MOL0     H67595   7.288   8.843   8.606 -1.4191  4.0153  0.9515
  501MOL0     H67596   7.504   8.861   8.477  1.3373 -2.2472 -2.7607
  501MOL0     H67597   7.624   9.262   8.014  0.5523 -0.8128  2.2481
  501MOL0     H67598   7.821   9.294   7.892 -2.0500  0.6119  3.0523
  501MOL0     H67599   8.117   8.992   7.939  0.0232 -2.3879 -0.6559
  501MOL0     H67600   8.078   8.919   7.793  0.3159  1.0354 -2.5466
  501MOL0     H67601   8.219   9.035   7.657 -2.3704  3.2353 -0.0806
  501MOL0     H67602   8.235   9.178   7.746 -0.5501  1.1699  1.2863
  501MOL0     H67603   8.366   9.055   7.920  0.6409 -1.6650  0.6371
  501MOL0     H67604   8.369   8.916   7.812  1.2295  0.1590  0.0541
  501MOL0     H67605   8.473   9.175   7.716  1.1124  0.1909  0.1363
  501MOL0     H67606   8.473   9.024   7.629  0.5886  0.9990 -0.2552
  501MOL0     H67607   8.595   8.915   7.833 -2.8879 -0.5226  0.1288
  501MOL0     H67608   8.601   9.072   7.902  2.2210 -0.8144  0.0935
  501MOL0     H67609   8.767   9.168   7.746  0.9265 -0.7220 -0.5880
  501MOL0     H67610   8.798   9.012   7.829 -2.5433  0.1722  3.0184
  501MOL0     H67611   8.696   9.023   7.553 -0.1591 -0.3407  0.8098
  501MOL0     H67612   8.776   8.885   7.628  0.9834  0.0351 -3.1752
  501MOL0     H67613   8.916   9.154   7.577 -2.6192 -0.0211 -2.2354
  501MOL0     H67614   8.996   9.002   7.631  2.9343  3.1016 -2.2061
  501MOL0     H67615   7.892   8.869   7.908  2.2054  1.6948  0.2010
  501MOL0     H67616   7.702   8.833   8.019  1.9381 -0.5853 -1.1797
  501MOL0     H67617   7.241   8.974   8.137  2.6921  2.4017  0.0941
  501MOL0     H67618   7.054   8.944   8.273  1.7163 -0.7741 -2.1832
  501MOL0     H67619   5.661   8.563   8.993 -0.0143 -0.9314  1.1178
  501MOL0     H67620   5.491   8.518   9.160  0.5718  0.4452 -0.3175
  501MOL0     H67621   5.218   8.450   9.354 -0.0103  0.0367 -0.6074
  501MOL0     H67622   5.088   8.483   9.556 -2.1341  0.2337  1.4463
  501MOL0     H67623   4.892   8.302   9.765  1.6413 -0.1982 -1.4224
  501MOL0     H67624   4.854   8.185   9.630  2.5362  3.8168 -3.8050
  501MOL0     H67625   4.617   8.294   9.626  1.2136  0.3215  0.0782
  501MOL0     H67626   4.681   8.392   9.762  2.3072  0.2359  1.9078
  501MOL0     H67627   4.715   8.126   9.862  3.4027  1.0070 -2.0230
  501MOL0     H67628   4.592   8.095   9.735 -0.2321 -0.5476  1.5333
  501MOL0     H67629   4.474   8.131   9.943  1.8029 -0.5449  0.1281
  501MOL0     H67630   4.552   8.289   9.954 -1.2960 -0.3735  1.0232
  501MOL0     H67631   4.213   8.389   9.755 -0.6621  0.6011  1.6286
  501MOL0     H67632   4.795   8.216   9.410  0.6940 -0.3123 -0.8411
  501MOL0     H67633   4.919   8.113   9.117  0.7151  1.6558 -1.2044
  501MOL0     H67634   4.768   8.158   9.193  0.4785  0.0302  1.4414
  501MOL0     H67635   4.841   8.270   9.079 -1.4776 -2.1874 -1.1598
  502MOL0     O67636   5.024   6.217  10.162 -0.3974  0.5072  0.4616
  502MOL0     C67637   5.078   6.325  10.146  0.8448 -0.1602 -1.0832
  502MOL0     O67638   5.183   6.361  10.066 -0.1036  0.2855 -0.4524
  502MOL0     C67639   5.294   6.285  10.057 -0.5414 -0.8246  0.3502
  502MOL0     C67640   5.393   6.343   9.975  0.3592 -0.1559  0.4744
  502MOL0     C67641   5.523   6.287   9.963 -0.6023 -0.0285  0.0742
  502MOL0     C67642   5.558   6.167  10.030  0.5890 -0.1013  0.7055
  502MOL0     O67643   5.673   6.094  10.021 -0.3606 -0.2925  0.4903
  502MOL0     C67644   5.786   6.148   9.951 -0.1380  0.5903  0.4092
  502MOL0     C67645   5.880   6.247  10.026  0.1063 -0.4481 -0.3202
  502MOL0     C67646   5.968   6.181  10.131 -0.4358  0.0753 -0.4934
  502MOL0     C67647   6.069   6.081  10.077 -0.0058  0.4216 -1.1272
  502MOL0     C67648   6.171   6.050  10.179 -1.0503  0.1149 -0.0439
  502MOL0     C67649   6.261   5.932  10.130  0.5500  0.1292 -0.4235
  502MOL0     C67650   6.352   5.986  10.008  0.0107  0.4148 -0.3787
  502MOL0     C67651   6.455   5.879   9.977  0.4484  0.4556  0.1038
  502MOL0     N67652   6.544   5.911   9.864  0.9485 -0.5899 -0.1951
  502MOL0     C67653   6.669   5.948   9.881 -0.6651  0.2203 -1.0435
  502MOL0     C67654   6.743   5.922   9.770  0.3998 -0.7030 -0.2068
  502MOL0     C67655   6.890   5.912   9.784  0.2379  0.4192  0.4970
  502MOL0     C67656   6.982   6.033   9.746  0.8051 -0.1438  0.0917
  502MOL0     C67657   6.935   6.100   9.613 -0.3556  1.3943 -0.7625
  502MOL0     C67658   7.018   6.221   9.571 -0.3122  0.3365  0.0470
  502MOL0     O67659   7.148   6.181   9.520 -0.2104  0.2617 -1.3089
  502MOL0     C67660   7.218   6.271   9.460  0.0697 -0.3458  0.2933
  502MOL0     C67661   7.320   6.224   9.378  0.3817 -0.0778 -0.8474
  502MOL0     C67662   7.410   6.305   9.311 -0.2711  0.0342 -0.1237
  502MOL0     C67663   7.397   6.442   9.317 -0.7229  0.1929 -0.6789
  502MOL0     C67664   7.513   6.528   9.263 -0.7429  0.1725 -0.6697
  502MOL0     O67665   7.494   6.662   9.263  0.2083 -1.0093  0.5082
  502MOL0     C67666   7.550   6.750   9.163 -0.6597 -0.4021 -0.4585
  502MOL0     C67667   7.572   6.715   9.030 -0.2736 -0.6053 -0.2332
  502MOL0     C67668   7.629   6.809   8.939 -0.7252 -0.0909 -0.7214
  502MOL0     C67669   7.652   6.941   8.976 -0.2686  0.1395  0.0452
  502MOL0     O67670   7.687   7.050   8.894 -0.2980 -0.4284  0.1497
  502MOL0     C67671   7.769   7.012   8.782 -0.9414 -0.3092 -0.0769
  502MOL0     C67672   7.822   7.143   8.705 -0.8064 -0.3181 -0.5612
  502MOL0     C67673   7.903   7.255   8.772  0.2260 -1.2025 -1.1078
  502MOL0     C67674   8.044   7.204   8.803 -0.2165  0.9652 -0.2879
  502MOL0     C67675   8.085   7.286   8.931 -1.0710 -0.0814  0.6707
  502MOL0     C67676   8.233   7.280   8.979  0.6164 -0.1596  0.0606
  502MOL0     C67677   8.264   7.373   9.093  0.7180  0.4770  0.0165
  502MOL0     C67678   8.404   7.420   9.100  0.1981  0.8283 -0.5456
  502MOL0    Cl67679   8.452   7.498   8.954  0.2957 -0.1451 -0.0844
  502MOL0     C67680   7.635   6.980   9.107  0.8416  0.7176 -0.6010
  502MOL0     C67681   7.590   6.880   9.200 -0.3848  0.8791  0.4678
  502MOL0     O67682   7.595   6.470   9.183  0.6182  0.1779 -1.2501
  502MOL0     C67683   7.287   6.491   9.390 -0.0731  1.0476 -0.9729
  502MOL0     C67684   7.196   6.413   9.461 -0.0359 -0.1807  0.0194
  502MOL0     N67685   6.660   5.862   9.680 -0.4160 -0.1663  0.2785
  502MOL0     N67686   6.537   5.855   9.740  0.1965  0.0851  0.3783
  502MOL0     C67687   5.457   6.109  10.102 -0.4868 -0.3661  0.1483
  502MOL0     C67688   5.331   6.164  10.121  0.9928  0.5273 -0.8819
  502MOL0     C67689   5.001   6.436  10.218 -0.5258  0.3810  0.2584
  502MOL0     C67690   4.877   6.402  10.288 -0.8699 -0.1764 -0.1416
  502MOL0     C67691   4.794   6.497  10.339  0.0199  0.8734 -0.0412
  502MOL0     C67692   4.815   6.629  10.315 -1.2207 -0.2643  0.2108
  502MOL0     O67693   4.713   6.711  10.344 -0.0146  0.0475 -0.1290
  502MOL0     C67694   4.725   6.775  10.475  0.5724  0.1906 -0.2378
  502MOL0     C67695   4.584   6.788  10.539  0.4433 -0.1065 -1.0262
  502MOL0     C67696   4.527   6.655  10.580  1.0687  0.1377 -1.4635
  502MOL0     C67697   4.401   6.680  10.666  0.8479  0.2405 -0.2402
  502MOL0     C67698   4.332   6.549  10.678  0.5957  1.3008  0.0980
  502MOL0     C67699   4.264   6.446  10.675 -0.3151 -0.4782  0.0177
  502MOL0     C67700   4.937   6.661  10.258  0.7250 -0.0403  0.2056
  502MOL0     C67701   5.035   6.574  10.221 -0.6649 -0.3376  0.2862
  502MOL0     C67702   5.134   6.646  10.149  0.0088 -0.0217 -0.0714
  502MOL0     H67703   5.393   6.440   9.927  0.4667 -1.0746 -1.4625
  502MOL0     H67704   5.599   6.337   9.903 -0.4356  0.2104  0.4791
  502MOL0     H67705   5.834   6.061   9.907 -0.1955  1.9559 -2.6649
  502MOL0     H67706   5.755   6.207   9.864 -2.1282 -1.7259 -0.5769
  502MOL0     H67707   5.816   6.317  10.080  2.1230  1.7444 -0.5979
  502MOL0     H67708   5.933   6.312   9.956 -0.9956  1.2840  0.4001
  502MOL0     H67709   5.900   6.142  10.206  0.6447  1.0806  1.0567
  502MOL0     H67710   6.020   6.262  10.183 -1.3896  0.4513 -0.1158
  502MOL0     H67711   6.024   5.991  10.035 -1.3843  0.3633  0.3815
  502MOL0     H67712   6.111   6.131   9.989  0.4224 -0.6881 -1.5738
  502MOL0     H67713   6.249   6.125  10.198  0.8745 -1.2997 -1.8799
  502MOL0     H67714   6.131   6.028  10.278  1.4079  0.5721  1.1311
  502MOL0     H67715   6.319   5.893  10.214 -3.2485  1.6825  3.3286
  502MOL0     H67716   6.205   5.848  10.088 -3.6177  1.8531  1.0693
  502MOL0     H67717   6.414   6.071  10.037  1.0892 -1.6623  4.5879
  502MOL0     H67718   6.298   6.016   9.918 -0.9332 -0.9416 -0.3099
  502MOL0     H67719   6.505   5.862  10.073  1.0392 -3.9698 -0.7694
  502MOL0     H67720   6.409   5.783   9.952  3.4307 -1.2036  0.5635
  502MOL0     H67721   6.703   5.991   9.975 -2.3518 -0.4992 -0.0574
  502MOL0     H67722   6.918   5.885   9.886  3.7895  0.4351 -0.3325
  502MOL0     H67723   6.927   5.834   9.716 -1.3290 -0.8476  1.0601
  502MOL0     H67724   6.970   6.100   9.832  1.0182 -0.1675  0.1397
  502MOL0     H67725   7.085   5.998   9.746  1.4855  1.7408  0.7667
  502MOL0     H67726   6.827   6.120   9.616 -1.3648 -3.0578 -0.9556
  502MOL0     H67727   6.941   6.017   9.543 -3.0165 -1.7856  2.3963
  502MOL0     H67728   7.023   6.297   9.650 -1.3867  2.7223 -2.0478
  502MOL0     H67729   6.968   6.274   9.489 -2.2399 -0.9635  0.3202
  502MOL0     H67730   7.332   6.116   9.374 -2.1982 -0.5093  0.5854
  502MOL0     H67731   7.489   6.254   9.258 -2.3248 -1.6660 -1.7535
  502MOL0     H67732   7.572   6.613   8.992 -2.5494 -0.4752 -0.7321
  502MOL0     H67733   7.658   6.774   8.841 -0.9238 -2.6009  0.0532
  502MOL0     H67734   7.853   6.960   8.829 -0.2597  1.2998  0.5443
  502MOL0     H67735   7.715   6.947   8.713 -0.4178  1.8994 -2.7640
  502MOL0     H67736   7.873   7.102   8.617 -2.6246 -1.7503 -1.0127
  502MOL0     H67737   7.732   7.189   8.664 -1.0565 -1.2982 -1.1397
  502MOL0     H67738   7.914   7.340   8.704 -1.3171 -1.3942 -1.6340
  502MOL0     H67739   7.854   7.293   8.862  1.4452 -0.3911 -0.7596
  502MOL0     H67740   8.116   7.224   8.724 -0.4577  2.8256 -0.0773
  502MOL0     H67741   8.053   7.097   8.824  2.9698  0.8075 -1.8894
  502MOL0     H67742   8.035   7.250   9.022  0.0977  0.4515  1.5446
  502MOL0     H67743   8.063   7.391   8.912  1.9453  0.8890  1.9000
  502MOL0     H67744   8.269   7.178   8.999  0.5398 -1.0990 -3.7991
  502MOL0     H67745   8.284   7.319   8.890 -0.7250  0.9157 -0.2545
  502MOL0     H67746   8.251   7.310   9.181 -1.7312  0.3383 -0.3560
  502MOL0     H67747   8.187   7.448   9.109 -0.0014  0.0893 -1.3985
  502MOL0     H67748   8.414   7.479   9.191 -0.2258 -1.1750  0.8800
  502MOL0     H67749   8.476   7.339   9.110 -0.4156  0.3844  0.4847
  502MOL0     H67750   7.663   7.076   9.149 -2.5661  1.1596  1.0816
  502MOL0     H67751   7.587   6.906   9.305  0.1565 -1.1703  1.0374
  502MOL0     H67752   7.260   6.595   9.403  2.0473  1.5070  0.0470
  502MOL0     H67753   7.116   6.464   9.513  1.1343  0.3911  1.3045
  502MOL0     H67754   5.488   6.029  10.169 -0.0499  0.4586  0.9485
  502MOL0     H67755   5.261   6.123  10.194  0.5735 -1.8847 -2.5368
  502MOL0     H67756   4.854   6.297  10.304  0.9908 -0.9540 -1.9246
  502MOL0     H67757   4.705   6.456  10.385  1.8000 -0.5223  2.4315
  502MOL0     H67758   4.766   6.875  10.463 -4.2173  2.3508 -1.2075
  502MOL0     H67759   4.785   6.705  10.534 -1.1487 -1.2500 -0.0745
  502MOL0     H67760   4.506   6.835  10.478  0.4243  0.4258 -0.5937
  502MOL0     H67761   4.600   6.859  10.620  1.7960 -0.0667 -1.3148
  502MOL0     H67762   4.596   6.594  10.639  0.1379 -0.3939 -0.8940
  502MOL0     H67763   4.493   6.603  10.490 -3.8616  0.3010  0.0039
  502MOL0     H67764   4.435   6.728  10.758  0.1046 -0.6910  0.5470
  502MOL0     H67765   4.335   6.748  10.612  0.5761 -0.1398 -0.3909
  502MOL0     H67766   4.217   6.353  10.651  1.0196 -1.3246  0.5690
  502MOL0     H67767   4.940   6.768  10.241 -1.2239  0.3800  2.0148
  502MOL0     H67768   5.193   6.582  10.083  0.6668  3.0135 -2.7290
  502MOL0     H67769   5.103   6.730  10.085 -0.0265 -0.5031 -0.6976
  502MOL0     H67770   5.204   6.690  10.220 -1.8519  3.6407 -0.2555
  503MOL0     O67771   1.633   5.614   0.611  0.6454  0.3454  0.3969
  503MOL0     C67772   1.614   5.494   0.649 -0.3333 -0.3414  0.3514
  503MOL0     O67773   1.707   5.401   0.680 -0.3485  0.2494 -0.0748
  503MOL0     C67774   1.832   5.457   0.711 -0.2945  1.0662  0.3719
  503MOL0     C67775   1.944   5.394   0.653 -0.1047 -0.0175  0.6600
  503MOL0     C67776   2.073   5.441   0.682 -0.1064  0.6296  0.0331
  503MOL0     C67777   2.092   5.542   0.784 -0.2514  0.9308  0.2199
  503MOL0     O67778   2.217   5.592   0.820  0.7435  0.1734 -0.3756
  503MOL0     C67779   2.234   5.689   0.927  0.1362 -0.5208  0.1467
  503MOL0     C67780   2.380   5.703   0.942  1.0278  0.4771  0.3358
  503MOL0     C67781   2.402   5.832   1.025 -0.1055 -0.2875 -0.3353
  503MOL0     C67782   2.545   5.895   1.005  1.6032 -0.6713  0.7533
  503MOL0     C67783   2.652   5.808   1.054 -0.2643  0.1410  0.3549
  503MOL0     C67784   2.792   5.868   1.027  0.4075  0.5893  0.1110
  503MOL0     C67785   2.814   5.976   1.132 -0.0074 -0.0554 -0.1582
  503MOL0     C67786   2.946   6.041   1.119 -0.4775  0.5454 -0.0300
  503MOL0     N67787   2.966   6.144   1.016  0.1731 -0.9688 -0.1078
  503MOL0     C67788   2.898   6.164   0.902  0.8115 -0.3155  0.3463
  503MOL0     C67789   2.926   6.287   0.852  0.1066  0.1757 -0.4071
  503MOL0     C67790   2.878   6.314   0.707 -0.3355 -0.2321  0.2770
  503MOL0     C67791   2.760   6.405   0.737  0.9612 -0.0518 -0.0185
  503MOL0     C67792   2.635   6.347   0.794  0.4920 -0.5362 -0.7059
  503MOL0     C67793   2.582   6.233   0.704  0.4110  0.2699 -0.6517
  503MOL0     O67794   2.506   6.289   0.589  0.2904  0.6055 -0.3113
  503MOL0     C67795   2.382   6.347   0.626 -0.3242 -0.8521 -0.0888
  503MOL0     C67796   2.278   6.275   0.683 -0.1306  0.0169 -0.6243
  503MOL0     C67797   2.158   6.340   0.709 -0.2182  0.0406 -0.0113
  503MOL0     C67798   2.137   6.478   0.676 -0.3220 -0.1061 -0.8207
  503MOL0     C67799   2.016   6.549   0.701  0.1362 -0.6682 -0.0519
  503MOL0     O67800   1.925   6.489   0.784  0.2496 -0.4694  0.4299
  503MOL0     C67801   1.808   6.560   0.815  0.7713  0.0852  0.3162
  503MOL0     C67802   1.773   6.615   0.939 -0.1058  1.0703  0.1068
  503MOL0     C67803   1.667   6.700   0.950  1.2914  0.3260  0.0639
  503MOL0     C67804   1.570   6.708   0.848  0.6854  0.4773  0.2586
  503MOL0     O67805   1.445   6.758   0.893  0.7671  0.0580 -0.2428
  503MOL0     C67806   1.321   6.715   0.823  0.1029  0.4893 -0.5847
  503MOL0     C67807   1.195   6.804   0.817  0.0583  0.1178 -0.1164
  503MOL0     C67808   1.143   6.853   0.950  0.7771 -0.5869 -0.2918
  503MOL0     C67809   1.120   6.748   1.063  0.5403  0.2204  1.0498
  503MOL0     C67810   1.054   6.818   1.193  0.2488 -0.6736 -0.2349
  503MOL0     C67811   1.054   6.724   1.313 -0.6915 -0.1707  0.7333
  503MOL0     C67812   0.994   6.784   1.442 -0.1769  0.5008 -0.9280
  503MOL0     C67813   1.100   6.878   1.500  0.6576 -0.3111  0.0166
  503MOL0    Cl67814   1.041   6.938   1.661  0.3770  0.1491 -0.6672
  503MOL0     C67815   1.597   6.650   0.723  0.7528  0.3089  0.1212
  503MOL0     C67816   1.715   6.571   0.710 -0.6332  0.0841  0.7175
  503MOL0     O67817   1.993   6.642   0.632 -0.9109  0.2527 -0.1890
  503MOL0     C67818   2.243   6.550   0.621 -0.1903  1.0839  0.2500
  503MOL0     C67819   2.364   6.485   0.589 -0.1391  0.3794  0.0972
  503MOL0     N67820   3.009   6.343   0.942  0.5911  0.0937 -0.4620
  503MOL0     N67821   3.035   6.259   1.034  0.7125 -0.0933 -0.4884
  503MOL0     C67822   1.974   5.609   0.833  0.7673 -0.5738  1.2794
  503MOL0     C67823   1.847   5.567   0.791  0.0909 -0.0178 -0.7240
  503MOL0     C67824   1.473   5.459   0.632  1.5707 -0.0063 -0.0669
  503MOL0     C67825   1.393   5.425   0.748 -0.0232 -0.3209  0.7672
  503MOL0     C67826   1.258   5.386   0.729  0.7853  1.0835 -0.6972
  503MOL0     C67827   1.197   5.356   0.607 -0.2419 -0.3132  0.3777
  503MOL0     O67828   1.068   5.323   0.607 -0.4716 -0.0635  0.4771
  503MOL0     C67829   0.989   5.355   0.495  0.0962 -0.1997  0.1714
  503MOL0     C67830   0.848   5.368   0.552 -0.2628  0.0168  0.9949
  503MOL0     C67831   0.732   5.404   0.457  0.7396  0.1445 -0.3524
  503MOL0     C67832   0.594   5.441   0.504  0.1567  0.0035 -0.3860
  503MOL0     C67833   0.553   5.370   0.625  0.3873  0.2968 -0.1297
  503MOL0     C67834   0.506   5.319   0.725 -0.4227  0.0450 -0.4224
  503MOL0     C67835   1.272   5.370   0.491 -0.0537 -1.0229 -0.3774
  503MOL0     C67836   1.409   5.432   0.506 -0.0319  0.2853 -0.0699
  503MOL0     C67837   1.472   5.478   0.377 -1.1164 -0.8974 -0.2914
  503MOL0     H67838   1.928   5.311   0.584  1.7586  0.7330 -0.7637
  503MOL0     H67839   2.158   5.404   0.626 -0.9006 -1.1610 -0.0705
  503MOL0     H67840   2.193   5.787   0.899  0.2240  0.5306  3.2930
  503MOL0     H67841   2.184   5.654   1.017  0.0564 -1.8795 -0.3934
  503MOL0     H67842   2.426   5.713   0.843  0.8887 -1.3586  0.0530
  503MOL0     H67843   2.411   5.605   0.982 -2.2414 -1.5042 -1.5776
  503MOL0     H67844   2.393   5.813   1.133 -0.1145  2.7762  0.3098
  503MOL0     H67845   2.326   5.909   1.013 -2.2199 -2.0466  0.9466
  503MOL0     H67846   2.561   5.926   0.901 -0.0813 -0.9813  0.3600
  503MOL0     H67847   2.536   5.989   1.061 -1.2126 -0.7816  0.6255
  503MOL0     H67848   2.646   5.799   1.163 -1.9577  0.1189  0.2796
  503MOL0     H67849   2.640   5.707   1.012  1.0403 -0.4645  1.3407
  503MOL0     H67850   2.866   5.789   1.045 -0.4090 -0.5987 -1.4426
  503MOL0     H67851   2.798   5.907   0.926 -1.2180 -0.9463 -0.6388
  503MOL0     H67852   2.816   5.942   1.236 -2.4025  1.7420  0.5444
  503MOL0     H67853   2.742   6.057   1.119  1.6803  1.3996 -0.8441
  503MOL0     H67854   2.966   6.099   1.210  1.1133  0.0301 -0.0128
  503MOL0     H67855   3.025   5.965   1.112 -1.5677 -0.6407  0.2512
  503MOL0     H67856   2.829   6.094   0.856 -1.5068  0.7876  1.9269
  503MOL0     H67857   2.958   6.357   0.646 -1.4857  3.8486  1.3351
  503MOL0     H67858   2.852   6.213   0.672  0.6206  0.0306 -1.2698
  503MOL0     H67859   2.790   6.479   0.813  2.5876 -1.4319  0.7588
  503MOL0     H67860   2.739   6.467   0.650  0.1646 -2.5011 -1.6688
  503MOL0     H67861   2.559   6.426   0.800 -1.8795 -2.8159  2.5049
  503MOL0     H67862   2.660   6.308   0.893  2.1684  2.4315  0.1564
  503MOL0     H67863   2.506   6.181   0.763 -1.3810  1.0519 -2.1674
  503MOL0     H67864   2.653   6.153   0.681  0.3733  0.7437 -2.5387
  503MOL0     H67865   2.302   6.170   0.701  1.0907  0.1489 -1.4066
  503MOL0     H67866   2.077   6.283   0.752  0.0629 -0.1843  0.2199
  503MOL0     H67867   1.849   6.604   1.016  2.5161 -0.2144 -2.4739
  503MOL0     H67868   1.651   6.753   1.043  2.1274  1.4891 -0.4374
  503MOL0     H67869   1.344   6.677   0.722  2.8403 -3.4443  1.2604
  503MOL0     H67870   1.281   6.631   0.880  0.3916  1.5002  1.1728
  503MOL0     H67871   1.217   6.894   0.760  1.1698 -0.8528 -1.2748
  503MOL0     H67872   1.120   6.742   0.766  0.8781  0.0987 -1.3154
  503MOL0     H67873   1.210   6.925   0.998  0.5179 -1.1122  0.9239
  503MOL0     H67874   1.051   6.906   0.924 -0.9208 -2.7666  0.9614
  503MOL0     H67875   1.217   6.704   1.089 -0.4171 -2.1634  0.9003
  503MOL0     H67876   1.049   6.672   1.029 -0.2324  0.3918  2.2323
  503MOL0     H67877   0.948   6.843   1.180  0.4421  2.8941  3.1650
  503MOL0     H67878   1.115   6.907   1.213  0.2889 -0.5576 -0.8482
  503MOL0     H67879   0.982   6.644   1.292 -0.5190  0.2309 -1.6448
  503MOL0     H67880   1.159   6.695   1.330 -0.3873  0.6493  0.3125
  503MOL0     H67881   0.982   6.707   1.519 -1.3907  0.2071 -1.3802
  503MOL0     H67882   0.894   6.827   1.429 -1.7656 -2.5132  0.3260
  503MOL0     H67883   1.190   6.816   1.502  1.5285  0.8979 -0.5031
  503MOL0     H67884   1.113   6.966   1.437  1.2494 -1.3738 -1.3796
  503MOL0     H67885   1.530   6.645   0.638  1.3320  3.2085 -0.6225
  503MOL0     H67886   1.737   6.538   0.608  1.2420  0.8258  0.8424
  503MOL0     H67887   2.232   6.652   0.587 -0.3816  0.3724 -2.0214
  503MOL0     H67888   2.438   6.536   0.528  0.8258 -2.7651 -1.5632
  503MOL0     H67889   1.983   5.698   0.895 -2.5977  0.0021  1.1354
  503MOL0     H67890   1.766   5.630   0.830 -0.0871 -0.0637 -1.0192
  503MOL0     H67891   1.430   5.439   0.849  1.1331 -1.0016  0.4634
  503MOL0     H67892   1.193   5.379   0.816 -1.7877  1.3639 -2.5062
  503MOL0     H67893   0.991   5.278   0.418  0.0774 -1.3310  1.2753
  503MOL0     H67894   1.020   5.451   0.453 -2.2829  0.6461  0.1794
  503MOL0     H67895   0.857   5.445   0.629 -0.3150  0.5999  0.4285
  503MOL0     H67896   0.828   5.271   0.597  0.5888 -0.0482  1.2611
  503MOL0     H67897   0.715   5.326   0.382  0.1734 -0.1873  0.1077
  503MOL0     H67898   0.755   5.491   0.395  1.0351  0.1699 -0.2107
  503MOL0     H67899   0.585   5.548   0.527 -2.2020 -0.1754 -0.2536
  503MOL0     H67900   0.518   5.419   0.428 -0.4561 -2.3180  0.8211
  503MOL0     H67901   0.474   5.260   0.809 -0.2651 -2.1683 -1.8244
  503MOL0     H67902   1.237   5.356   0.389 -0.7841  2.3979 -0.7197
  503MOL0     H67903   1.401   5.438   0.304 -3.3380 -1.8482  2.2639
  503MOL0     H67904   1.459   5.587   0.371  2.1320 -0.3978 -0.3535
  503MOL0     H67905   1.579   5.462   0.362  0.0876  3.4554  2.0295
  504MOL0     O67906   4.226   7.463  10.565 -0.5889 -0.6420  0.5278
  504MOL0     C67907   4.326   7.426  10.623  0.7228 -0.3417 -0.0907
  504MOL0     O67908   4.339   7.320  10.701 -0.0084  0.6689  0.2445
  504MOL0     C67909   4.228   7.233  10.714  0.6387  1.0780  0.1485
  504MOL0     C67910   4.113   7.266  10.780  0.4604  0.3553 -0.4201
  504MOL0     C67911   4.003   7.170  10.795 -0.8408 -0.2809 -0.5688
  504MOL0     C67912   4.020   7.041  10.745  0.0317  0.5695  0.0409
  504MOL0     O67913   3.932   6.940  10.762 -0.1057 -0.2459  0.1245
  504MOL0     C67914   3.793   6.973  10.785 -0.3574  0.1377 -0.0177
  504MOL0     C67915   3.688   6.867  10.760 -0.2825  0.7286  1.2450
  504MOL0     C67916   3.545   6.930  10.759  0.0554  0.7072  0.1317
  504MOL0     C67917   3.441   6.825  10.731 -0.1159 -0.0201 -0.0618
  504MOL0     C67918   3.309   6.887  10.775  0.8795  0.1223 -0.1768
  504MOL0     C67919   3.192   6.788  10.761 -0.0050  0.1104  0.4646
  504MOL0     C67920   3.062   6.839  10.821 -0.8204 -1.3233  0.6535
  504MOL0     C67921   3.030   6.791  10.962  1.1287 -0.2688  0.6124
  504MOL0     N67922   2.948   6.673  10.954  0.0881  0.1732 -0.1967
  504MOL0     C67923   2.816   6.665  10.962  1.0417 -0.1319 -0.1842
  504MOL0     C67924   2.786   6.538  10.947  0.1907 -0.3691 -0.6955
  504MOL0     C67925   2.651   6.485  10.953  0.4786  0.7069  0.0593
  504MOL0     C67926   2.553   6.552  10.849 -0.1221  0.0224  0.4419
  504MOL0     C67927   2.600   6.512  10.707  0.2418  0.0393  0.5315
  504MOL0     C67928   2.537   6.590  10.588  0.1057 -0.3812  0.6876
  504MOL0     O67929   2.599   6.720  10.575  0.4577  0.5352  0.5702
  504MOL0     C67930   2.722   6.715  10.509 -0.4833  0.4369  0.4586
  504MOL0     C67931   2.780   6.840  10.484 -0.2873  0.2739  0.0713
  504MOL0     C67932   2.891   6.850  10.400  0.1267  0.0852 -0.6469
  504MOL0     C67933   2.958   6.729  10.360  0.3281 -0.2112 -0.4291
  504MOL0     C67934   3.096   6.736  10.305  0.8159  0.2972 -0.7309
  504MOL0     O67935   3.154   6.610  10.290  0.0164 -0.1748 -0.3977
  504MOL0     C67936   3.291   6.608  10.280 -0.2562  0.3538  1.2482
  504MOL0     C67937   3.351   6.607  10.154  1.0447  0.4701 -0.3544
  504MOL0     C67938   3.490   6.610  10.145  0.1101  0.5595  0.8939
  504MOL0     C67939   3.568   6.603  10.262  0.6771  0.1996 -0.0344
  504MOL0     O67940   3.705   6.603  10.250  0.5196 -0.1937  0.1094
  504MOL0     C67941   3.757   6.705  10.170  0.6626  0.5964  0.4791
  504MOL0     C67942   3.859   6.785  10.252 -0.6079  0.4526 -0.2271
  504MOL0     C67943   3.800   6.858  10.370  0.0040 -0.9064  0.2391
  504MOL0     C67944   3.744   7.000  10.329  0.7892  0.3582  0.6717
  504MOL0     C67945   3.586   6.999  10.318 -0.2752 -0.7747  0.0640
  504MOL0     C67946   3.527   7.116  10.232  0.3239  0.2869 -0.1968
  504MOL0     C67947   3.374   7.109  10.233  0.6479  0.2413  0.0153
  504MOL0     C67948   3.298   7.200  10.145  0.7829 -0.5200  1.4126
  504MOL0    Cl67949   3.305   7.166   9.968 -0.0156 -0.3541  0.4096
  504MOL0     C67950   3.508   6.588  10.387  0.9213  0.0598  0.0726
  504MOL0     C67951   3.370   6.592  10.397  0.3905  1.0622  0.3395
  504MOL0     O67952   3.154   6.842  10.292 -0.4120 -0.2252 -0.1468
  504MOL0     C67953   2.895   6.608  10.370  0.9348 -0.0411  0.1431
  504MOL0     C67954   2.772   6.606  10.434 -0.0056  0.1892 -0.5060
  504MOL0     N67955   2.907   6.463  10.945 -0.7356  0.0794  0.0433
  504MOL0     N67956   3.006   6.547  10.939  0.7838 -0.0263 -0.8381
  504MOL0     C67957   4.125   7.014  10.656  0.1126  0.5709  0.2452
  504MOL0     C67958   4.238   7.110  10.645  0.4965  0.0801 -0.0701
  504MOL0     C67959   4.436   7.509  10.613 -0.6247 -0.6156 -0.4960
  504MOL0     C67960   4.465   7.584  10.732 -0.0668  1.3147  0.5214
  504MOL0     C67961   4.562   7.686  10.728 -0.7660 -0.1537 -0.1197
  504MOL0     C67962   4.636   7.711  10.611  1.4679  0.1490  1.1199
  504MOL0     O67963   4.718   7.823  10.588 -0.1685  0.5699 -0.2441
  504MOL0     C67964   4.826   7.845  10.679 -0.0650  0.2831 -0.8170
  504MOL0     C67965   4.945   7.739  10.657 -0.1653  0.1967 -0.2375
  504MOL0     C67966   4.993   7.725  10.517  0.0513 -0.4504 -1.2264
  504MOL0     C67967   5.073   7.601  10.503 -0.2103  0.8068  1.1859
  504MOL0     C67968   5.155   7.608  10.385  0.5881  0.0077  0.0105
  504MOL0     C67969   5.228   7.628  10.290  0.1583 -0.4774  0.0062
  504MOL0     C67970   4.610   7.631  10.495 -0.1186  0.4211 -0.4447
  504MOL0     C67971   4.509   7.534  10.498 -0.4615 -0.2459  0.1932
  504MOL0     C67972   4.489   7.453  10.374  0.1880 -0.4288 -0.9249
  504MOL0     H67973   4.109   7.363  10.830 -0.0558  0.5807 -0.8952
  504MOL0     H67974   3.921   7.178  10.866  1.3498 -2.7687  2.5490
  504MOL0     H67975   3.784   7.016  10.885  0.1683  0.0844  0.0547
  504MOL0     H67976   3.781   7.051  10.709 -3.3189 -2.2548 -2.2844
  504MOL0     H67977   3.702   6.790  10.836  1.2692 -1.2562 -0.8892
  504MOL0     H67978   3.697   6.829  10.657  1.0094 -0.6468  1.8364
  504MOL0     H67979   3.541   6.998  10.674  2.5908 -1.3365 -1.7944
  504MOL0     H67980   3.538   7.000  10.843  0.6614 -0.9664  1.6719
  504MOL0     H67981   3.438   6.810  10.623 -0.2863  1.6586 -0.3130
  504MOL0     H67982   3.467   6.737  10.791  0.2129 -0.1950 -0.4560
  504MOL0     H67983   3.315   6.938  10.872  3.0834  0.3902 -0.3868
  504MOL0     H67984   3.283   6.966  10.704 -0.6803 -0.9025 -0.7827
  504MOL0     H67985   3.171   6.765  10.656 -2.5007 -1.8600  1.2910
  504MOL0     H67986   3.214   6.696  10.816 -0.5772 -0.9499 -0.9931
  504MOL0     H67987   2.983   6.808  10.753 -0.8026 -0.0403  0.0085
  504MOL0     H67988   3.058   6.948  10.810 -0.2227 -1.3058  0.6059
  504MOL0     H67989   3.124   6.783  11.019  0.8014 -0.5025  1.1272
  504MOL0     H67990   2.966   6.862  11.015 -0.5807 -0.8763 -0.5804
  504MOL0     H67991   2.742   6.740  10.988 -2.1718 -2.9892 -0.3394
  504MOL0     H67992   2.665   6.379  10.928  0.4451 -0.8247  5.3997
  504MOL0     H67993   2.614   6.488  11.056 -0.3681 -0.0507 -0.2072
  504MOL0     H67994   2.450   6.522  10.870  0.1419 -0.3027  1.3064
  504MOL0     H67995   2.549   6.661  10.861 -1.1902  0.0867 -0.3575
  504MOL0     H67996   2.572   6.408  10.689  0.8966 -0.4816  2.2835
  504MOL0     H67997   2.709   6.521  10.699  0.1235  0.3871 -0.8953
  504MOL0     H67998   2.432   6.600  10.616 -0.2657 -0.0039 -0.7788
  504MOL0     H67999   2.542   6.523  10.502  1.1010 -1.5217  1.5838
  504MOL0     H68000   2.747   6.933  10.530  3.0481  0.4644  2.4170
  504MOL0     H68001   2.934   6.947  10.379 -0.3866  0.2082 -1.1695
  504MOL0     H68002   3.289   6.614  10.065  0.0994 -1.2327  0.1245
  504MOL0     H68003   3.543   6.618  10.051  0.5032  2.6255  1.2475
  504MOL0     H68004   3.814   6.664  10.086  1.1074  0.5589  0.7943
  504MOL0     H68005   3.679   6.769  10.127  0.2837  2.6997  3.9373
  504MOL0     H68006   3.934   6.713  10.284 -1.5284 -0.6284 -0.4367
  504MOL0     H68007   3.912   6.858  10.190  0.6512 -2.6368 -3.0239
  504MOL0     H68008   3.724   6.797  10.420 -0.2085 -0.2170  0.7708
  504MOL0     H68009   3.884   6.870  10.438  1.2287  0.0514 -1.3810
  504MOL0     H68010   3.769   7.037  10.230 -0.1965  3.1285  1.3731
  504MOL0     H68011   3.779   7.077  10.398 -0.5375  1.1070  0.5438
  504MOL0     H68012   3.541   6.990  10.417 -1.9345 -0.9247 -0.6762
  504MOL0     H68013   3.557   6.910  10.262 -5.0943 -0.6237  1.9134
  504MOL0     H68014   3.558   7.211  10.276  0.6995  0.1914 -0.2570
  504MOL0     H68015   3.566   7.109  10.130 -0.2028  1.3654 -0.4886
  504MOL0     H68016   3.328   7.134  10.330 -2.7815  0.9577 -1.6346
  504MOL0     H68017   3.347   7.005  10.210  1.3798 -0.4586  2.0641
  504MOL0     H68018   3.191   7.203  10.168  0.8724 -0.0560  1.7950
  504MOL0     H68019   3.352   7.295  10.152  1.0352  0.4159 -6.0288
  504MOL0     H68020   3.579   6.579  10.468  1.6230  0.4809 -0.4852
  504MOL0     H68021   3.339   6.580  10.501 -0.8392 -2.2070 -0.2637
  504MOL0     H68022   2.939   6.510  10.357 -2.3690 -1.5694 -0.5123
  504MOL0     H68023   2.732   6.505  10.441  1.4071 -0.5074 -1.7703
  504MOL0     H68024   4.138   6.915  10.614  0.9731  0.3619  0.9805
  504MOL0     H68025   4.328   7.110  10.584  3.0669  2.2656  3.3075
  504MOL0     H68026   4.397   7.558  10.812 -0.1524  0.0852  0.0832
  504MOL0     H68027   4.574   7.757  10.809  1.4410  1.1359 -1.4669
  504MOL0     H68028   4.795   7.858  10.784  2.2795  1.7777 -0.2313
  504MOL0     H68029   4.871   7.939  10.646  0.0488 -0.6406 -3.5097
  504MOL0     H68030   4.891   7.647  10.683 -0.5454  0.7393  0.9785
  504MOL0     H68031   5.028   7.766  10.722  0.4347  1.8906 -1.6232
  504MOL0     H68032   5.051   7.815  10.494 -0.7794 -0.1369 -2.1357
  504MOL0     H68033   4.902   7.724  10.456  0.3641 -1.1457 -1.6991
  504MOL0     H68034   5.141   7.591  10.588 -1.7404  2.7925  2.7404
  504MOL0     H68035   5.009   7.513  10.491 -0.5474  1.0182  1.4269
  504MOL0     H68036   5.304   7.659  10.220  1.4015 -1.1846  1.0015
  504MOL0     H68037   4.677   7.640  10.410  0.9568 -2.4867 -0.0159
  504MOL0     H68038   4.563   7.466  10.294 -0.4509 -1.7652 -1.7796
  504MOL0     H68039   4.485   7.345  10.391  4.1952 -0.4014  1.5063
  504MOL0     H68040   4.393   7.489  10.336  0.6592  0.7927 -1.0090
  505MOL0     O68041   1.785  10.726   2.986  0.2739  0.1373  0.8210
  505MOL0     C68042   1.826  10.771   3.096  0.0660 -0.3237  0.0203
  505MOL0     O68043   1.780  10.723   3.219  0.9657 -0.1510 -0.9020
  505MOL0     C68044   1.651  10.684   3.240  1.1185  0.3008  0.0072
  505MOL0     C68045   1.542  10.730   3.154 -0.6854 -0.1318 -0.1064
  505MOL0     C68046   1.413  10.677   3.167 -0.4605 -0.5631 -0.2006
  505MOL0     C68047   1.385  10.581   3.261 -0.2990 -0.5501  0.6938
  505MOL0     O68048   1.251  10.535   3.268  0.1282 -0.7920 -0.2379
  505MOL0     C68049   1.206  10.411   3.319 -0.1898  0.2640  0.3078
  505MOL0     C68050   1.083  10.347   3.258  0.0249  0.5236  1.1374
  505MOL0     C68051   0.958  10.437   3.299 -0.5535 -0.0797 -0.2351
  505MOL0     C68052   0.833  10.369   3.259 -0.4952  0.4030  0.3455
  505MOL0     C68053   0.769  10.443   3.138 -0.0002 -0.1723  0.0949
  505MOL0     C68054   0.648  10.372   3.078 -0.0806  0.1394 -0.6591
  505MOL0     C68055   0.520  10.388   3.159 -0.0236 -0.1638 -0.3588
  505MOL0     C68056   0.464  10.258   3.199  0.1245 -0.4140 -0.3287
  505MOL0     N68057   0.327  10.281   3.251 -0.2143 -0.3705  0.5081
  505MOL0     C68058   0.287  10.326   3.377  0.0741 -0.2324 -0.0750
  505MOL0     C68059   0.148  10.327   3.375  0.4985  0.0560 -0.9890
  505MOL0     C68060   0.066  10.390   3.486  0.5489 -0.5806 -0.0893
  505MOL0     C68061   0.017  10.531   3.447  0.3928  0.7713 -0.2586
  505MOL0     C68062  -0.090  10.594   3.544 -0.0530  0.2391  0.8594
  505MOL0     C68063  -0.031  10.673   3.660  0.5388  0.8582  0.6148
  505MOL0     O68064   0.016  10.786   3.604 -1.1255  0.1197  0.3629
  505MOL0     C68065   0.137  10.842   3.632  0.3126 -0.4561 -0.3528
  505MOL0     C68066   0.236  10.787   3.715 -0.3694  0.2314  0.4191
  505MOL0     C68067   0.356  10.850   3.747  0.2019 -0.9084 -0.3759
  505MOL0     C68068   0.383  10.975   3.692 -0.1691 -0.6680  0.9254
  505MOL0     C68069   0.497  11.065   3.738  0.2474 -0.6420 -0.1666
  505MOL0     O68070   0.503  11.190   3.695 -0.6203 -0.7582  0.1303
  505MOL0     C68071   0.607  11.271   3.743 -0.2306 -0.4044 -0.2525
  505MOL0     C68072   0.700  11.309   3.650 -0.3016 -0.8345 -0.4590
  505MOL0     C68073   0.804  11.400   3.681  0.2967 -0.3448 -0.1044
  505MOL0     C68074   0.828  11.440   3.813  0.3043  0.3697  0.0070
  505MOL0     O68075   0.932  11.511   3.861 -0.1961 -0.3170 -0.0942
  505MOL0     C68076   1.012  11.600   3.786  0.8124 -0.1591 -0.1935
  505MOL0     C68077   1.154  11.641   3.860 -0.2806  0.0998  0.0747
  505MOL0     C68078   1.234  11.754   3.802  0.0425 -0.3361  0.1110
  505MOL0     C68079   1.309  11.837   3.899  0.0022  0.0877 -1.4220
  505MOL0     C68080   1.375  11.956   3.837  0.4769  0.1584  0.1154
  505MOL0     C68081   1.422  12.056   3.944  0.7823 -0.5054  1.0642
  505MOL0     C68082   1.499  12.174   3.878 -0.3646  0.5804 -0.5093
  505MOL0     C68083   1.526  12.279   3.985  0.1760  0.5992  0.5653
  505MOL0    Cl68084   1.615  12.397   3.881  0.2739 -0.0634 -0.3986
  505MOL0     C68085   0.738  11.392   3.910  1.1339 -0.3534 -0.3687
  505MOL0     C68086   0.626  11.314   3.881  0.1608 -0.5037 -0.1901
  505MOL0     O68087   0.585  11.016   3.808  0.4636  0.2192 -0.6615
  505MOL0     C68088   0.292  11.033   3.602  0.1289  0.8933 -0.0017
  505MOL0     C68089   0.165  10.967   3.589  1.1001 -0.2574  0.5956
  505MOL0     N68090   0.114  10.278   3.245 -0.4184 -0.2196 -0.6569
  505MOL0     N68091   0.218  10.253   3.174 -0.6872 -0.4159  0.8393
  505MOL0     C68092   1.481  10.531   3.346  0.0579  0.3844  0.0847
  505MOL0     C68093   1.614  10.581   3.335 -0.6026 -0.4045  0.0017
  505MOL0     C68094   1.966  10.835   3.099 -0.1517 -0.4001  0.4816
  505MOL0     C68095   2.075  10.765   3.044 -0.5696 -0.1915 -0.9426
  505MOL0     C68096   2.207  10.819   3.052  0.2828  0.4621 -0.3189
  505MOL0     C68097   2.235  10.938   3.126  0.4926  0.4887  0.0826
  505MOL0     O68098   2.367  10.974   3.148  0.1552 -0.5475 -0.3814
  505MOL0     C68099   2.397  11.094   3.222 -0.0759  0.2018 -0.4860
  505MOL0     C68100   2.525  11.097   3.306  0.4798  0.5021 -0.2231
  505MOL0     C68101   2.655  11.043   3.246  0.6419 -0.3948 -0.3761
  505MOL0     C68102   2.671  11.097   3.089  0.5408  1.0241  0.4626
  505MOL0     C68103   2.784  11.037   3.016 -0.6930 -0.6484  0.0577
  505MOL0     C68104   2.873  10.989   2.948  0.1283 -0.3049  0.1902
  505MOL0     C68105   2.125  11.006   3.173 -0.5405 -0.5702  1.2806
  505MOL0     C68106   1.994  10.959   3.164  0.8890 -0.7646 -0.0216
  505MOL0     C68107   1.889  11.048   3.223  0.0348  0.7478 -0.9511
  505MOL0     H68108   1.566  10.812   3.087  0.6105 -0.3334  0.0844
  505MOL0     H68109   1.332  10.723   3.112  0.2421  0.8932 -0.0769
  505MOL0     H68110   1.285  10.334   3.316  1.0241  1.4762  0.2295
  505MOL0     H68111   1.181  10.438   3.422 -0.8642  2.1355 -0.3100
  505MOL0     H68112   1.061  10.245   3.289 -1.4310  1.1754  2.4291
  505MOL0     H68113   1.094  10.346   3.149  0.6699  1.8524  1.1578
  505MOL0     H68114   0.960  10.535   3.250 -1.3945 -0.1612 -0.4517
  505MOL0     H68115   0.960  10.462   3.405  3.7143  2.0353 -0.5905
  505MOL0     H68116   0.856  10.264   3.238  1.5073  0.4856  1.8765
  505MOL0     H68117   0.763  10.371   3.343  0.5132  1.9286  1.2011
  505MOL0     H68118   0.742  10.539   3.182  0.9560  0.4695 -0.6542
  505MOL0     H68119   0.843  10.448   3.057  3.2592 -2.8064  2.5718
  505MOL0     H68120   0.623  10.401   2.975 -3.4574 -0.3954 -0.1216
  505MOL0     H68121   0.679  10.267   3.072 -0.0179  0.0864  0.4044
  505MOL0     H68122   0.450  10.442   3.093  1.3029  0.6054 -1.1792
  505MOL0     H68123   0.531  10.446   3.251 -0.5550 -3.1602  1.7608
  505MOL0     H68124   0.463  10.182   3.120 -0.9544 -1.4741  0.6660
  505MOL0     H68125   0.527  10.210   3.275  1.3507 -0.4527 -1.3453
  505MOL0     H68126   0.359  10.357   3.453 -0.6231  2.8468 -0.5570
  505MOL0     H68127  -0.023  10.329   3.499  0.1869 -0.6379 -2.3587
  505MOL0     H68128   0.120  10.390   3.581  0.5118 -3.8706  0.0432
  505MOL0     H68129   0.105  10.597   3.452  0.3062  0.8309  0.7676
  505MOL0     H68130  -0.029  10.515   3.350  1.8495 -4.7377 -0.3359
  505MOL0     H68131  -0.155  10.516   3.584  0.0229 -0.2935 -0.0312
  505MOL0     H68132  -0.157  10.662   3.490  0.2470  0.5836  0.9100
  505MOL0     H68133   0.043  10.604   3.700  0.6535 -0.7869 -2.1915
  505MOL0     H68134  -0.107  10.707   3.732 -4.2153 -2.4311 -2.2953
  505MOL0     H68135   0.224  10.691   3.764 -0.5071  0.4844  0.8928
  505MOL0     H68136   0.430  10.813   3.817 -0.1846 -1.9585 -0.5016
  505MOL0     H68137   0.690  11.276   3.547 -0.1498  1.5813 -1.3337
  505MOL0     H68138   0.881  11.423   3.608  2.0326 -1.0520  1.4351
  505MOL0     H68139   1.038  11.550   3.692 -0.9707 -0.0901 -0.7707
  505MOL0     H68140   0.959  11.692   3.759  0.1755 -0.6464 -0.6522
  505MOL0     H68141   1.120  11.649   3.964 -1.1109  0.4914 -0.2127
  505MOL0     H68142   1.216  11.551   3.856 -0.3347  0.0316  0.6710
  505MOL0     H68143   1.303  11.700   3.737 -0.5294 -1.0432  0.0790
  505MOL0     H68144   1.167  11.816   3.742  1.0077  0.9987  0.3746
  505MOL0     H68145   1.382  11.770   3.944 -1.7854 -1.6738 -1.0270
  505MOL0     H68146   1.239  11.873   3.975  0.1542 -1.8835 -0.2958
  505MOL0     H68147   1.321  12.002   3.753 -1.2592 -1.4283  0.3031
  505MOL0     H68148   1.462  11.923   3.780  0.2816 -0.5743  0.2370
  505MOL0     H68149   1.324  12.096   3.972  0.8942  0.5611  0.0464
  505MOL0     H68150   1.476  11.999   4.020 -0.0128  1.0588  2.8875
  505MOL0     H68151   1.435  12.215   3.800  0.9646  1.2025 -1.3117
  505MOL0     H68152   1.600  12.146   3.847  1.5153  4.3128  1.5627
  505MOL0     H68153   1.433  12.324   4.021 -0.8482 -0.2847 -0.9006
  505MOL0     H68154   1.594  12.239   4.061  0.6195 -0.7350 -0.5083
  505MOL0     H68155   0.760  11.412   4.014 -0.2195 -2.4889  0.4098
  505MOL0     H68156   0.553  11.287   3.956 -0.8566  1.6247 -0.3692
  505MOL0     H68157   0.312  11.131   3.560  1.2219  0.7612  0.1746
  505MOL0     H68158   0.081  11.020   3.543 -0.2694 -1.9999  0.9916
  505MOL0     H68159   1.457  10.449   3.412  0.7195  0.7180  0.7625
  505MOL0     H68160   1.697  10.544   3.395 -1.1062 -1.3343  0.1389
  505MOL0     H68161   2.058  10.683   2.975 -0.9322 -0.2955 -0.7327
  505MOL0     H68162   2.286  10.755   3.016  0.2392  1.4759 -2.3257
  505MOL0     H68163   2.317  11.102   3.297  0.1269 -2.3732  0.0868
  505MOL0     H68164   2.386  11.179   3.155 -2.7101  0.7412  0.5182
  505MOL0     H68165   2.516  11.029   3.392  2.0771  2.1892  1.3908
  505MOL0     H68166   2.536  11.199   3.345  0.8290  0.7942 -1.0640
  505MOL0     H68167   2.640  10.935   3.249 -0.0792 -0.2666  1.6987
  505MOL0     H68168   2.754  11.067   3.285  1.9462 -2.1905 -2.3464
  505MOL0     H68169   2.587  11.067   3.025  2.3283 -0.8885 -1.1204
  505MOL0     H68170   2.676  11.206   3.099  1.1086  0.8315  2.8578
  505MOL0     H68171   2.959  10.950   2.897 -1.4895 -2.6180 -0.9630
  505MOL0     H68172   2.129  11.097   3.231  1.3193 -0.4492  1.0515
  505MOL0     H68173   1.787  11.019   3.195 -0.0964  0.6922 -0.4347
  505MOL0     H68174   1.901  11.040   3.332 -1.2914  2.1769 -0.6654
  505MOL0     H68175   1.913  11.150   3.193  2.4945  0.2652 -0.7999
  506MOL0     O68176   2.495   7.230   6.156 -0.1791 -0.8646 -0.2801
  506MOL0     C68177   2.469   7.257   6.035  0.0404  0.3301  0.1308
  506MOL0     O68178   2.540   7.256   5.926  0.7647 -0.6254  0.5262
  506MOL0     C68179   2.665   7.208   5.936  0.7946 -0.8691 -0.1834
  506MOL0     C68180   2.675   7.068   5.955 -0.5483 -0.1667  0.2905
  506MOL0     C68181   2.807   7.007   5.940 -0.4634 -0.6095  0.1558
  506MOL0     C68182   2.925   7.084   5.924  0.8908 -0.7313 -0.7614
  506MOL0     O68183   3.046   7.017   5.915 -0.2670  0.2400  0.6620
  506MOL0     C68184   3.170   7.096   5.891  0.3154 -0.2478  0.5603
  506MOL0     C68185   3.262   6.975   5.871 -0.6086  0.1619 -0.5193
  506MOL0     C68186   3.411   7.019   5.857  0.6519  0.6001 -1.0930
  506MOL0     C68187   3.495   6.893   5.822 -0.4270  0.1019  0.5336
  506MOL0     C68188   3.641   6.920   5.864  0.4154  0.3194 -0.5321
  506MOL0     C68189   3.718   6.803   5.814  0.6040  0.7629 -0.0076
  506MOL0     C68190   3.865   6.814   5.838  0.1142  0.4558 -0.7019
  506MOL0     C68191   3.889   6.826   5.992 -0.5514 -0.8613 -0.6279
  506MOL0     N68192   4.028   6.795   6.033  0.0984 -0.1089  0.2391
  506MOL0     C68193   4.059   6.757   6.165 -0.1721 -0.3046 -0.7461
  506MOL0     C68194   4.184   6.710   6.157  0.4675 -0.0522  0.5397
  506MOL0     C68195   4.275   6.652   6.269 -0.4816 -0.5170 -0.1033
  506MOL0     C68196   4.386   6.745   6.329 -0.0265 -0.0788  0.0740
  506MOL0     C68197   4.503   6.773   6.228  0.0260 -0.3224 -0.0094
  506MOL0     C68198   4.569   6.651   6.152  0.1930 -0.3357  0.4957
  506MOL0     O68199   4.595   6.546   6.233 -0.3952 -0.1731 -0.4042
  506MOL0     C68200   4.727   6.547   6.281 -0.0676  0.6811  0.6745
  506MOL0     C68201   4.743   6.525   6.409  1.0294 -0.3266 -0.2477
  506MOL0     C68202   4.864   6.507   6.473 -0.2033 -0.9534  0.3811
  506MOL0     C68203   4.979   6.521   6.395  0.6693 -0.9141 -0.9540
  506MOL0     C68204   5.113   6.514   6.455 -0.4694 -0.3518  0.4756
  506MOL0     O68205   5.212   6.607   6.410 -0.9688  0.1211  0.5880
  506MOL0     C68206   5.342   6.608   6.465  0.5720 -0.0229  0.0387
  506MOL0     C68207   5.422   6.692   6.392 -0.2821 -0.1511  0.0580
  506MOL0     C68208   5.552   6.701   6.429  0.3008 -0.0477  1.3186
  506MOL0     C68209   5.601   6.627   6.532 -0.0931  0.2018 -0.1060
  506MOL0     O68210   5.742   6.650   6.542 -0.3934  0.5874 -0.2711
  506MOL0     C68211   5.802   6.606   6.670  0.5938 -0.1987  0.6475
  506MOL0     C68212   5.939   6.663   6.670 -0.7649 -0.0479  0.1883
  506MOL0     C68213   5.935   6.811   6.699  0.3315  0.7139  0.0159
  506MOL0     C68214   6.073   6.864   6.688 -0.2106 -0.6148  0.1341
  506MOL0     C68215   6.068   7.017   6.712 -0.4736 -0.8787  0.6091
  506MOL0     C68216   6.013   7.101   6.594 -0.4729  0.1936 -0.1869
  506MOL0     C68217   6.038   7.255   6.607 -0.7631  1.3275  0.4827
  506MOL0     C68218   6.025   7.290   6.750 -0.0027 -0.9281  0.0914
  506MOL0    Cl68219   5.973   7.461   6.750  0.3170  0.0912 -0.1309
  506MOL0     C68220   5.521   6.551   6.617  0.8111 -0.0769  1.5685
  506MOL0     C68221   5.389   6.543   6.575 -0.6889  0.7904 -0.1912
  506MOL0     O68222   5.128   6.424   6.541  0.2568  0.6053 -0.0400
  506MOL0     C68223   4.971   6.561   6.262  1.1009  1.2538  0.6739
  506MOL0     C68224   4.841   6.563   6.199  0.3897  0.0869  0.5621
  506MOL0     N68225   4.232   6.726   6.029  0.6171  0.5845  0.4034
  506MOL0     N68226   4.143   6.776   5.953  0.7491  0.6208 -0.1716
  506MOL0     C68227   2.905   7.222   5.936 -0.6066  0.2590  1.1107
  506MOL0     C68228   2.781   7.291   5.927  0.5003  0.0113 -0.6689
  506MOL0     C68229   2.335   7.309   6.011  0.6808  0.5050  1.1569
  506MOL0     C68230   2.313   7.453   6.029 -0.3673  0.2814 -0.3501
  506MOL0     C68231   2.187   7.509   6.023  0.1562  0.5062 -1.0363
  506MOL0     C68232   2.083   7.426   5.994  0.5266 -0.4559 -0.0745
  506MOL0     O68233   1.952   7.476   6.000  0.3202 -0.0423 -0.1328
  506MOL0     C68234   1.914   7.613   6.016 -0.4748  0.0230  0.1098
  506MOL0     C68235   1.766   7.618   6.062 -0.3197  0.0602  0.1036
  506MOL0     C68236   1.742   7.536   6.189 -0.1747  0.2867  0.3169
  506MOL0     C68237   1.602   7.548   6.253  0.2997 -0.3035 -0.5173
  506MOL0     C68238   1.508   7.458   6.190  0.8807 -0.2615  0.2988
  506MOL0     C68239   1.407   7.399   6.150  0.1063  0.5498  0.0606
  506MOL0     C68240   2.099   7.295   5.961 -0.1557 -0.1321  0.2521
  506MOL0     C68241   2.228   7.232   5.963  0.0713 -0.1001 -0.5102
  506MOL0     C68242   2.253   7.090   5.921  0.0144 -0.3610 -0.1072
  506MOL0     H68243   2.590   7.001   5.960 -1.3827  0.3668 -3.4012
  506MOL0     H68244   2.823   6.900   5.939 -1.2998 -0.7448 -0.4289
  506MOL0     H68245   3.163   7.170   5.811 -0.1708  1.3380  2.0274
  506MOL0     H68246   3.199   7.160   5.975  0.5361 -0.7479  0.8701
  506MOL0     H68247   3.239   6.917   5.781  1.4825 -0.0833 -0.9324
  506MOL0     H68248   3.251   6.917   5.963 -0.7567 -0.0993 -0.7005
  506MOL0     H68249   3.444   7.056   5.954  1.4376  0.9396 -1.4795
  506MOL0     H68250   3.422   7.096   5.780 -3.4317  1.6897 -0.7743
  506MOL0     H68251   3.470   6.802   5.879  2.1487 -0.2703  1.2284
  506MOL0     H68252   3.475   6.874   5.716 -0.3057  5.4810 -0.6916
  506MOL0     H68253   3.677   7.013   5.819 -3.7641  1.2886 -2.4144
  506MOL0     H68254   3.659   6.932   5.971  2.9925  0.5405 -0.9353
  506MOL0     H68255   3.683   6.716   5.869  1.6644 -0.5536 -1.3374
  506MOL0     H68256   3.698   6.801   5.706 -0.1614 -1.3741  0.1298
  506MOL0     H68257   3.918   6.880   5.768  1.1710 -1.0991 -1.4330
  506MOL0     H68258   3.893   6.714   5.803 -1.4730 -0.6279  0.9824
  506MOL0     H68259   3.875   6.926   6.033  3.2839 -0.7752  0.8778
  506MOL0     H68260   3.820   6.759   6.044  0.0129 -1.8662 -1.1166
  506MOL0     H68261   3.998   6.752   6.255  1.2676 -0.9889  0.2427
  506MOL0     H68262   4.218   6.639   6.362  0.5022  3.2463  1.1860
  506MOL0     H68263   4.323   6.555   6.249  1.6230  0.5042 -0.2614
  506MOL0     H68264   4.336   6.839   6.354  1.7469  0.9286 -0.0528
  506MOL0     H68265   4.424   6.714   6.427 -1.7590 -0.5724  0.6327
  506MOL0     H68266   4.587   6.829   6.270  0.0444  0.7613 -1.4329
  506MOL0     H68267   4.465   6.843   6.153  0.2941 -0.4578 -0.2763
  506MOL0     H68268   4.650   6.685   6.087  0.6295 -0.2337  1.0830
  506MOL0     H68269   4.492   6.613   6.085  0.6082 -0.9860  0.3772
  506MOL0     H68270   4.664   6.514   6.483  0.2441  0.2017 -0.9892
  506MOL0     H68271   4.872   6.477   6.578  0.6142  1.2620  1.0019
  506MOL0     H68272   5.380   6.748   6.309 -3.2726 -3.3720 -0.8809
  506MOL0     H68273   5.622   6.765   6.378  0.1447 -0.2172  0.8870
  506MOL0     H68274   5.739   6.655   6.744 -0.3356  1.9728 -1.4517
  506MOL0     H68275   5.802   6.498   6.686 -4.5015 -0.2274  2.1831
  506MOL0     H68276   5.996   6.612   6.749 -0.2320 -0.7392 -0.6176
  506MOL0     H68277   5.989   6.656   6.573 -1.8298 -0.8713 -0.3182
  506MOL0     H68278   5.873   6.861   6.624  0.2193  1.3970  0.5535
  506MOL0     H68279   5.892   6.828   6.798 -0.7492 -0.4526 -0.2224
  506MOL0     H68280   6.113   6.843   6.588 -1.9742  0.3814 -0.8298
  506MOL0     H68281   6.143   6.839   6.768  0.7476 -0.2967 -0.5757
  506MOL0     H68282   6.170   7.055   6.722 -1.3056  1.6752  0.0876
  506MOL0     H68283   6.011   7.044   6.802 -0.2989 -0.8723  0.7200
  506MOL0     H68284   6.051   7.072   6.495  0.5538 -2.5337  0.9223
  506MOL0     H68285   5.905   7.081   6.587 -0.4719  0.1134  0.0268
  506MOL0     H68286   5.964   7.297   6.538 -0.6538 -1.8386 -1.7780
  506MOL0     H68287   6.130   7.291   6.560 -1.0776  4.5619  2.0744
  506MOL0     H68288   5.945   7.233   6.798  0.2201 -1.5027 -0.2163
  506MOL0     H68289   6.116   7.277   6.810 -0.3021 -2.1182  0.3119
  506MOL0     H68290   5.547   6.501   6.710 -0.1289  1.2456  2.5913
  506MOL0     H68291   5.328   6.469   6.627 -0.6883  0.6838 -0.3432
  506MOL0     H68292   5.056   6.584   6.198 -0.0626  3.0110 -0.3254
  506MOL0     H68293   4.839   6.579   6.092 -2.9239  0.5789  0.6054
  506MOL0     H68294   2.998   7.278   5.936  0.0255 -0.7195 -0.3965
  506MOL0     H68295   2.775   7.399   5.936  1.3193 -0.0662  1.4074
  506MOL0     H68296   2.389   7.528   6.051 -0.8090  0.4453  0.7133
  506MOL0     H68297   2.177   7.616   6.039  0.5863  0.7849 -2.5098
  506MOL0     H68298   1.926   7.656   5.916  4.3291  0.2505  0.5538
  506MOL0     H68299   1.985   7.659   6.085  2.5481 -2.8903 -0.7937
  506MOL0     H68300   1.706   7.575   5.981 -0.7504  1.7530 -0.5218
  506MOL0     H68301   1.738   7.722   6.079 -1.4017  0.1205 -1.7157
  506MOL0     H68302   1.818   7.564   6.263 -0.5661  0.6867  0.5755
  506MOL0     H68303   1.754   7.430   6.165 -3.1022  0.1927 -1.1090
  506MOL0     H68304   1.596   7.525   6.359 -2.4200  4.6821  0.7264
  506MOL0     H68305   1.569   7.652   6.248 -1.2809 -0.7792 -0.6837
  506MOL0     H68306   1.310   7.360   6.127  0.2794 -1.1228  1.8638
  506MOL0     H68307   2.007   7.238   5.949 -2.5035  2.6263  3.4278
  506MOL0     H68308   2.319   7.048   5.997  1.4664  2.9690  0.6314
  506MOL0     H68309   2.153   7.045   5.916 -1.7274  3.2435 -1.2912
  506MOL0     H68310   2.298   7.088   5.822  1.7484  1.2525  0.5924
  507MOL0     O68311   6.273   6.113   5.855  0.3743  0.1881 -0.2416
  507MOL0     C68312   6.218   6.026   5.784  0.1563  0.4366  0.8589
  507MOL0     O68313   6.252   6.002   5.655 -0.0206 -0.2144  0.4029
  507MOL0     C68314   6.389   6.015   5.631  0.6478  0.0395 -0.2913
  507MOL0     C68315   6.441   5.895   5.600 -1.0578  1.0915  0.0613
  507MOL0     C68316   6.584   5.883   5.584  1.0577 -1.0208  0.4966
  507MOL0     C68317   6.655   6.005   5.578 -1.0926 -0.0351  0.2640
  507MOL0     O68318   6.792   6.014   5.583 -0.7669  0.1830  0.2789
  507MOL0     C68319   6.856   5.937   5.686 -0.4525  0.5973  0.1986
  507MOL0     C68320   6.893   6.002   5.820  0.2312 -1.1012  0.9517
  507MOL0     C68321   7.022   6.093   5.798  0.1355  0.1590  0.5712
  507MOL0     C68322   7.155   6.020   5.794 -0.0418 -0.1308  0.6914
  507MOL0     C68323   7.255   6.037   5.673  1.0006 -0.0431 -0.9454
  507MOL0     C68324   7.370   5.930   5.711  0.0103 -0.8266 -0.4292
  507MOL0     C68325   7.487   5.930   5.613  0.4381 -0.9523  0.8977
  507MOL0     C68326   7.618   5.867   5.648  0.7706  0.7813  0.2466
  507MOL0     N68327   7.726   5.926   5.571 -0.1484  0.4828  0.3429
  507MOL0     C68328   7.765   5.883   5.446  0.1773 -0.2975  0.0691
  507MOL0     C68329   7.880   5.937   5.415 -0.9083  0.2360  0.3718
  507MOL0     C68330   7.942   5.923   5.282  1.0766 -0.8763 -0.3429
  507MOL0     C68331   8.096   5.941   5.292  0.2654 -0.5520  0.5508
  507MOL0     C68332   8.160   5.950   5.156  0.5374  0.2075 -0.3059
  507MOL0     C68333   8.279   6.051   5.148 -0.1953 -0.0642  0.2532
  507MOL0     O68334   8.304   6.079   5.007  0.4449  0.0740 -0.5237
  507MOL0     C68335   8.428   6.108   4.955  0.5986  1.3380 -0.2776
  507MOL0     C68336   8.445   6.107   4.815  0.3554 -0.1279  0.0215
  507MOL0     C68337   8.559   6.153   4.761  0.7885 -0.2582 -0.0779
  507MOL0     C68338   8.665   6.189   4.846 -0.5078 -0.1597  0.0353
  507MOL0     C68339   8.793   6.221   4.776 -0.3909  0.2980 -0.5200
  507MOL0     O68340   8.795   6.253   4.642 -0.1191 -0.3136 -0.1511
  507MOL0     C68341   8.920   6.254   4.584  0.5996  0.1772  0.7521
  507MOL0     C68342   8.994   6.138   4.574 -0.7492  0.6899 -0.9742
  507MOL0     C68343   9.107   6.134   4.499 -0.1694  0.1885 -0.4270
  507MOL0     C68344   9.150   6.248   4.428 -0.0118  0.1088  0.1350
  507MOL0     O68345   9.264   6.215   4.345 -0.1147  0.1051  0.3688
  507MOL0     C68346   9.354   6.311   4.292  0.4971 -0.1254 -0.3009
  507MOL0     C68347   9.323   6.341   4.146 -0.1140 -1.2110 -0.4958
  507MOL0     C68348   9.198   6.429   4.110 -0.2610  0.2947 -0.5297
  507MOL0     C68349   9.215   6.575   4.156  0.1753  0.0871 -0.6376
  507MOL0     C68350   9.089   6.654   4.145  1.1916 -0.2969  0.6245
  507MOL0     C68351   9.034   6.683   4.004  0.6033 -0.0753  0.2633
  507MOL0     C68352   8.916   6.777   4.003 -0.3176 -0.0373 -0.0814
  507MOL0     C68353   8.782   6.711   4.014 -0.0299 -0.1608  0.0140
  507MOL0    Cl68354   8.653   6.810   3.946  0.4468 -0.0329 -0.2520
  507MOL0     C68355   9.079   6.366   4.433  0.4064  0.4014 -0.3217
  507MOL0     C68356   8.970   6.370   4.519  1.2519  0.1422  0.9311
  507MOL0     O68357   8.901   6.219   4.841 -0.3423  0.1163  0.1739
  507MOL0     C68358   8.649   6.197   4.981  0.1975 -0.0972 -0.3068
  507MOL0     C68359   8.532   6.154   5.034 -0.7440  0.1682 -0.2680
  507MOL0     N68360   7.911   6.019   5.522  0.1430  0.7203 -0.3498
  507MOL0     N68361   7.819   6.018   5.608  0.7078  0.4114 -0.4575
  507MOL0     C68362   6.597   6.129   5.597 -0.8384  0.2256 -0.2306
  507MOL0     C68363   6.460   6.139   5.629  0.2751  0.4331 -0.8604
  507MOL0     C68364   6.119   5.936   5.846  0.6221  0.0728  0.0857
  507MOL0     C68365   6.115   5.803   5.810  1.2593  0.4640  0.9022
  507MOL0     C68366   6.054   5.709   5.885  0.1242 -0.2616 -0.2020
  507MOL0     C68367   5.968   5.743   5.989  1.2603  0.0152 -0.1769
  507MOL0     O68368   5.907   5.639   6.052 -0.2344  0.1888  0.3061
  507MOL0     C68369   5.832   5.659   6.171 -0.6830 -0.4592  0.0912
  507MOL0     C68370   5.772   5.529   6.219 -0.8069 -0.4275  0.1313
  507MOL0     C68371   5.721   5.527   6.367  0.1355  0.0540  0.8431
  507MOL0     C68372   5.597   5.601   6.387 -0.3249 -0.3575  0.0191
  507MOL0     C68373   5.493   5.509   6.451 -0.2494 -0.5407 -0.0071
  507MOL0     C68374   5.416   5.446   6.521 -0.8447  0.2295 -0.5127
  507MOL0     C68375   5.957   5.880   6.025 -0.5096  0.0651 -0.2086
  507MOL0     C68376   6.033   5.977   5.954 -0.1305  0.3315 -0.2556
  507MOL0     C68377   6.030   6.117   6.010  0.3791  1.1856  0.6014
  507MOL0     H68378   6.384   5.804   5.582  1.6990 -0.9299  0.9289
  507MOL0     H68379   6.616   5.781   5.565 -3.4283 -2.2090 -1.9321
  507MOL0     H68380   6.803   5.844   5.709  3.3702 -2.8740 -3.1815
  507MOL0     H68381   6.943   5.891   5.638 -1.2008 -2.1596  1.2654
  507MOL0     H68382   6.915   5.933   5.902 -1.4969 -2.4946  0.3197
  507MOL0     H68383   6.810   6.065   5.854 -1.6375 -2.0274 -1.5094
  507MOL0     H68384   7.028   6.157   5.887 -2.5192 -0.0957  1.0136
  507MOL0     H68385   7.012   6.164   5.716 -0.1746 -1.7636 -1.1179
  507MOL0     H68386   7.212   6.042   5.885  1.8359  0.0253 -0.4677
  507MOL0     H68387   7.134   5.913   5.808 -2.6128 -0.2242 -2.6962
  507MOL0     H68388   7.201   6.003   5.584 -0.9055  2.3943 -0.8426
  507MOL0     H68389   7.295   6.139   5.664  1.3017  0.2688  2.5894
  507MOL0     H68390   7.408   5.955   5.811  1.9945 -1.2484 -1.0236
  507MOL0     H68391   7.324   5.831   5.711 -0.8239 -0.4445 -0.3255
  507MOL0     H68392   7.507   6.037   5.604  2.5224 -1.2699  1.2991
  507MOL0     H68393   7.459   5.894   5.513 -0.5806 -2.1985  1.5926
  507MOL0     H68394   7.625   5.874   5.757 -3.4624 -3.2391  1.0473
  507MOL0     H68395   7.617   5.760   5.630  1.9840  0.3670  2.2913
  507MOL0     H68396   7.725   5.806   5.380 -0.4339  0.5859 -0.6259
  507MOL0     H68397   7.918   5.827   5.235 -1.0451 -2.2340  3.1516
  507MOL0     H68398   7.902   6.007   5.224  0.1068 -0.8091  0.3888
  507MOL0     H68399   8.119   6.031   5.349  0.3713 -0.7606  0.8368
  507MOL0     H68400   8.141   5.858   5.347  2.2868  0.8773  1.1526
  507MOL0     H68401   8.078   5.980   5.090  0.0395 -2.2462 -0.9213
  507MOL0     H68402   8.194   5.855   5.113  0.1648 -0.8956  1.7070
  507MOL0     H68403   8.373   6.030   5.199  0.1797  1.6875  0.3555
  507MOL0     H68404   8.251   6.141   5.204 -2.6400 -0.3871 -0.3060
  507MOL0     H68405   8.365   6.082   4.747  0.0038  3.7580 -1.1933
  507MOL0     H68406   8.574   6.168   4.655  0.4703  1.9202  0.1399
  507MOL0     H68407   8.939   6.055   4.619 -2.8351  2.2932 -0.4006
  507MOL0     H68408   9.158   6.042   4.472 -0.0964  0.5131 -1.4245
  507MOL0     H68409   9.359   6.401   4.354  1.0692 -0.6612  0.4471
  507MOL0     H68410   9.450   6.263   4.310  0.7110  0.7964  1.1678
  507MOL0     H68411   9.412   6.393   4.109 -2.0069  0.9697 -2.2877
  507MOL0     H68412   9.316   6.247   4.092 -1.6269 -1.6246  0.3768
  507MOL0     H68413   9.190   6.411   4.003 -2.1583 -2.0557 -0.0795
  507MOL0     H68414   9.105   6.383   4.144 -1.5805 -0.8496 -5.1080
  507MOL0     H68415   9.296   6.632   4.108  0.2618 -0.8027 -1.5884
  507MOL0     H68416   9.254   6.569   4.258  1.4521  0.8711 -1.0537
  507MOL0     H68417   9.104   6.743   4.208 -3.8274  0.5207  1.0220
  507MOL0     H68418   9.014   6.587   4.187 -1.0780  0.7796 -1.5138
  507MOL0     H68419   9.118   6.727   3.950  0.9667  0.0670  0.9450
  507MOL0     H68420   9.012   6.591   3.949  3.0118  0.7965 -2.3831
  507MOL0     H68421   8.915   6.833   3.908  1.4084  0.9085  0.4246
  507MOL0     H68422   8.918   6.857   4.077  2.1075 -1.2619  1.3029
  507MOL0     H68423   8.795   6.613   3.965  1.4488  1.2595 -2.6711
  507MOL0     H68424   8.756   6.682   4.116 -1.1930 -1.5363 -0.6357
  507MOL0     H68425   9.105   6.454   4.375  1.2800  0.3102 -0.0733
  507MOL0     H68426   8.911   6.459   4.538 -0.4931 -1.1305  1.8353
  507MOL0     H68427   8.733   6.225   5.044 -0.5366  3.2712 -0.6762
  507MOL0     H68428   8.523   6.172   5.141 -1.1694 -2.8565  0.2893
  507MOL0     H68429   6.655   6.219   5.615 -0.4104 -0.2442  0.8036
  507MOL0     H68430   6.395   6.221   5.657 -3.4591 -1.0482 -4.2249
  507MOL0     H68431   6.176   5.775   5.725 -0.1740  0.6518 -0.2408
  507MOL0     H68432   6.082   5.607   5.863  0.7356  0.1365 -1.3473
  507MOL0     H68433   5.759   5.736   6.144  1.3496  2.6517  2.6388
  507MOL0     H68434   5.895   5.697   6.252 -1.8713 -1.3282  1.4757
  507MOL0     H68435   5.850   5.453   6.212 -1.6674 -1.1557 -3.8050
  507MOL0     H68436   5.690   5.508   6.150 -1.3573  1.3630  0.1965
  507MOL0     H68437   5.806   5.558   6.428  2.6687 -0.8538 -2.0127
  507MOL0     H68438   5.699   5.424   6.397 -0.8944  0.5993  2.0942
  507MOL0     H68439   5.617   5.691   6.447  1.3908 -0.1398 -0.8013
  507MOL0     H68440   5.551   5.627   6.291 -1.8199  2.7793  1.4292
  507MOL0     H68441   5.356   5.378   6.578 -1.8453  0.6009 -1.1047
  507MOL0     H68442   5.890   5.914   6.103 -0.1194  1.8271 -0.6003
  507MOL0     H68443   5.971   6.125   6.102 -0.9364  1.4333 -0.2273
  507MOL0     H68444   6.129   6.155   6.034 -0.1096  1.1521  2.9313
  507MOL0     H68445   5.984   6.179   5.932  0.5271  1.0002  0.3644
  508MOL0     O68446  10.926   4.777   4.265 -0.3342 -0.3919  0.5570
  508MOL0     C68447  10.836   4.775   4.349 -0.0433 -0.5463 -0.1803
  508MOL0     O68448  10.765   4.888   4.387 -0.1113 -0.1324 -0.0493
  508MOL0     C68449  10.794   5.018   4.342 -0.0515 -0.0143 -0.4298
  508MOL0     C68450  10.694   5.099   4.290 -0.2664 -0.0259  0.1812
  508MOL0     C68451  10.724   5.232   4.269  0.7283  0.3040 -0.2515
  508MOL0     C68452  10.858   5.287   4.279  0.7548 -0.3521  0.4786
  508MOL0     O68453  10.858   5.421   4.241  0.1905  0.2794 -1.1150
  508MOL0     C68454  10.972   5.501   4.217  0.2116  0.1124 -0.4754
  508MOL0     C68455  10.958   5.641   4.275  0.9589 -0.3752  0.2187
  508MOL0     C68456  10.914   5.634   4.417  0.0462  0.2858 -1.0740
  508MOL0     C68457  10.901   5.775   4.472  0.6812  0.0509 -0.2128
  508MOL0     C68458  10.864   5.768   4.629  0.2041  0.8524  0.2970
  508MOL0     C68459  10.849   5.908   4.704  1.3071 -0.2419 -0.3694
  508MOL0     C68460  10.707   5.962   4.665 -0.3799  0.1029  0.1025
  508MOL0     C68461  10.693   6.106   4.712  1.0789  0.4394 -0.0160
  508MOL0     N68462  10.568   6.154   4.650  0.5164 -0.3854  0.0859
  508MOL0     C68463  10.448   6.158   4.712 -0.4168 -0.5530  0.0747
  508MOL0     C68464  10.371   6.245   4.632 -1.5757  0.4106  0.2243
  508MOL0     C68465  10.254   6.314   4.684  0.3878  1.0615  0.1719
  508MOL0     C68466  10.177   6.367   4.568 -0.5297  1.0492  0.3457
  508MOL0     C68467  10.047   6.428   4.619 -0.1994 -0.9297 -0.0978
  508MOL0     C68468  10.074   6.570   4.669  0.1496  0.0299 -0.7421
  508MOL0     O68469  10.119   6.576   4.805  0.3018  0.6520  0.2428
  508MOL0     C68470  10.146   6.682   4.875  0.2163 -0.4005 -0.0817
  508MOL0     C68471  10.045   6.736   4.951 -0.0411 -0.9214 -0.0062
  508MOL0     C68472  10.081   6.840   5.039  0.5737  0.1123  0.2943
  508MOL0     C68473  10.206   6.886   5.059  0.5317  0.2497 -0.2674
  508MOL0     C68474  10.234   7.010   5.140  1.2514  0.4980  0.0454
  508MOL0     O68475  10.366   7.048   5.141 -0.0241  0.1058 -0.1984
  508MOL0     C68476  10.390   7.172   5.208  0.1506  0.3553 -0.4031
  508MOL0     C68477  10.477   7.168   5.326  0.0692 -0.5387 -0.2745
  508MOL0     C68478  10.506   7.278   5.393  0.3610 -0.0827 -0.5359
  508MOL0     C68479  10.443   7.405   5.356  0.3800  0.9808 -0.0497
  508MOL0     O68480  10.445   7.520   5.430  0.4773  0.0489 -0.0114
  508MOL0     C68481  10.436   7.521   5.570 -0.4637  0.5220  0.2117
  508MOL0     C68482  10.460   7.662   5.617  0.8205 -0.5343  0.2277
  508MOL0     C68483  10.502   7.668   5.764 -0.1381 -0.5436 -0.0880
  508MOL0     C68484  10.619   7.580   5.819 -0.6569 -0.3637 -0.3660
  508MOL0     C68485  10.745   7.559   5.727  0.0309  0.5837 -0.3795
  508MOL0     C68486  10.870   7.489   5.788  0.0174  0.0120  0.9001
  508MOL0     C68487  10.841   7.343   5.798 -0.4553  0.0426 -0.2458
  508MOL0     C68488  10.971   7.277   5.845  0.0717 -0.2689  0.0733
  508MOL0    Cl68489  11.119   7.288   5.735  0.4090  0.3369  0.1948
  508MOL0     C68490  10.360   7.410   5.240  0.5768  0.0593 -0.4639
  508MOL0     C68491  10.336   7.297   5.169  0.0633  0.9742  0.1580
  508MOL0     O68492  10.135   7.080   5.176  0.4731  0.2167 -0.5616
  508MOL0     C68493  10.310   6.826   4.985  0.0074  0.5760 -0.2188
  508MOL0     C68494  10.275   6.721   4.886 -0.3672  0.6290 -0.2721
  508MOL0     N68495  10.459   6.293   4.527  0.8116 -0.1531  0.4853
  508MOL0     N68496  10.572   6.225   4.532  0.2526 -0.7752  0.3323
  508MOL0     C68497  10.962   5.203   4.318 -0.5723  0.0948  0.3511
  508MOL0     C68498  10.929   5.070   4.346  0.6933 -0.2793  0.1558
  508MOL0     C68499  10.783   4.639   4.393  0.3456  0.4177 -0.2573
  508MOL0     C68500  10.830   4.523   4.334 -0.0991  0.3243 -0.4667
  508MOL0     C68501  10.770   4.402   4.354  1.5187  0.1910  0.3123
  508MOL0     C68502  10.670   4.380   4.445 -0.3932  0.5672  0.0392
  508MOL0     O68503  10.596   4.265   4.464 -0.1579 -0.1540  0.3390
  508MOL0     C68504  10.668   4.140   4.438 -0.0106  0.1412 -1.5133
  508MOL0     C68505  10.592   4.031   4.519 -0.6523  0.5693  0.1808
  508MOL0     C68506  10.448   4.026   4.483 -0.0305 -0.4174 -0.0411
  508MOL0     C68507  10.392   3.898   4.506 -0.4577 -0.8483 -0.3457
  508MOL0     C68508  10.248   3.899   4.481 -0.3401  0.1323  0.0040
  508MOL0     C68509  10.127   3.875   4.455  0.0443  0.5481 -0.6662
  508MOL0     C68510  10.620   4.488   4.503  0.3712  0.4255  0.4551
  508MOL0     C68511  10.670   4.615   4.477  0.2778 -0.4542 -0.0454
  508MOL0     C68512  10.619   4.719   4.568  0.0894 -0.2915 -0.5133
  508MOL0     H68513  10.593   5.061   4.274  0.7408 -1.5328 -3.6443
  508MOL0     H68514  10.640   5.300   4.258 -0.8426 -0.9436  2.8122
  508MOL0     H68515  11.062   5.446   4.246  0.6616  0.4526 -1.2009
  508MOL0     H68516  10.991   5.507   4.109  1.8663 -0.8535 -0.2787
  508MOL0     H68517  10.884   5.683   4.206  2.6902  0.2615 -1.3340
  508MOL0     H68518  11.051   5.697   4.267  0.5846 -0.0430 -3.3711
  508MOL0     H68519  10.989   5.583   4.478  2.0569  0.9233 -2.8979
  508MOL0     H68520  10.822   5.575   4.429 -0.0303  0.0802 -2.5182
  508MOL0     H68521  10.992   5.835   4.461  1.2661 -0.8807 -0.5709
  508MOL0     H68522  10.813   5.821   4.427  0.1286 -0.2908  0.4959
  508MOL0     H68523  10.774   5.707   4.637  0.4222  0.5650  0.5488
  508MOL0     H68524  10.927   5.701   4.687  1.0124  2.5166  1.4100
  508MOL0     H68525  10.851   5.881   4.810 -0.7274 -0.1030 -0.2615
  508MOL0     H68526  10.926   5.976   4.669 -2.7247  4.5659 -0.9523
  508MOL0     H68527  10.618   5.907   4.695 -0.3752 -2.5632 -3.9546
  508MOL0     H68528  10.714   5.965   4.556  1.1454 -2.2991  0.0703
  508MOL0     H68529  10.689   6.096   4.821 -2.4233  0.5435 -0.0196
  508MOL0     H68530  10.772   6.174   4.678  0.6736  1.0605  0.2596
  508MOL0     H68531  10.413   6.128   4.811 -1.6474  2.3001  0.5899
  508MOL0     H68532  10.191   6.252   4.748 -3.8641  4.8068  0.0819
  508MOL0     H68533  10.282   6.400   4.746 -2.1675  2.6194 -0.6906
  508MOL0     H68534  10.238   6.443   4.518  2.8031  0.5173  3.1756
  508MOL0     H68535  10.148   6.287   4.500 -1.4416  1.8723 -0.2422
  508MOL0     H68536   9.992   6.374   4.697 -0.5947 -0.8942 -0.3499
  508MOL0     H68537   9.980   6.450   4.536 -0.1030  2.5632  0.6197
  508MOL0     H68538   9.988   6.636   4.656 -0.1022  0.1685  1.3349
  508MOL0     H68539  10.161   6.604   4.612  1.4255  0.8879  1.5837
  508MOL0     H68540   9.937   6.720   4.948 -0.2267  0.1611  0.1196
  508MOL0     H68541  10.001   6.887   5.095  1.6913  1.8563  0.5209
  508MOL0     H68542  10.506   7.068   5.357  1.2932 -0.1626 -0.1242
  508MOL0     H68543  10.561   7.264   5.485 -3.1637  1.7753  2.1032
  508MOL0     H68544  10.336   7.492   5.602 -0.9090  0.1778 -1.4292
  508MOL0     H68545  10.512   7.457   5.616 -1.0721 -1.6928 -1.6969
  508MOL0     H68546  10.540   7.693   5.549  0.4381  0.6619  0.2912
  508MOL0     H68547  10.370   7.723   5.601 -0.1193 -2.2217 -1.4002
  508MOL0     H68548  10.526   7.772   5.790  1.4670 -1.0663  0.6948
  508MOL0     H68549  10.416   7.640   5.825  1.2282  0.4947  2.4541
  508MOL0     H68550  10.570   7.483   5.834  1.1812 -2.0600 -4.0821
  508MOL0     H68551  10.664   7.619   5.910  2.3919 -2.4102 -0.8385
  508MOL0     H68552  10.773   7.657   5.688  1.3398 -0.2227 -1.5530
  508MOL0     H68553  10.714   7.500   5.640 -1.4558  1.8097 -0.7292
  508MOL0     H68554  10.950   7.519   5.720  0.0353  3.1802  2.1686
  508MOL0     H68555  10.900   7.529   5.885 -1.5515 -0.8428  1.7825
  508MOL0     H68556  10.808   7.300   5.703 -2.2854  1.0706 -0.1163
  508MOL0     H68557  10.759   7.328   5.868  0.4006  1.1306  1.0445
  508MOL0     H68558  10.998   7.323   5.941  1.4567 -1.3486  0.2393
  508MOL0     H68559  10.952   7.170   5.856  2.5061 -1.4369 -4.4918
  508MOL0     H68560  10.304   7.497   5.207  0.5485 -0.7913 -2.9038
  508MOL0     H68561  10.278   7.303   5.077 -0.5024 -0.4724  0.4129
  508MOL0     H68562  10.411   6.856   5.010 -0.1744 -0.2435  1.6695
  508MOL0     H68563  10.349   6.662   4.834 -1.9989 -2.3396  0.5217
  508MOL0     H68564  11.064   5.236   4.301 -0.5187 -1.1631 -2.2116
  508MOL0     H68565  11.007   5.001   4.378  0.2750 -1.7643 -1.7916
  508MOL0     H68566  10.907   4.540   4.260 -0.5531  6.9249 -0.0437
  508MOL0     H68567  10.819   4.323   4.297  2.0785  2.3673 -2.4532
  508MOL0     H68568  10.770   4.158   4.473 -1.6121  3.9076  2.1509
  508MOL0     H68569  10.661   4.109   4.334  0.7958  2.2848 -2.2738
  508MOL0     H68570  10.604   4.044   4.627 -3.6184 -0.1528  0.6804
  508MOL0     H68571  10.629   3.934   4.487 -2.4366 -0.5881  1.4542
  508MOL0     H68572  10.437   4.066   4.381 -2.5789  0.6747  0.5792
  508MOL0     H68573  10.409   4.108   4.544 -0.6425  1.1714 -2.4020
  508MOL0     H68574  10.442   3.817   4.453  1.2500 -1.2235  1.6706
  508MOL0     H68575  10.408   3.882   4.613 -0.9604 -2.6853 -0.5282
  508MOL0     H68576  10.022   3.861   4.438  0.4402 -3.8180 -0.6164
  508MOL0     H68577  10.531   4.477   4.564 -0.2944  0.1781 -0.5392
  508MOL0     H68578  10.701   4.775   4.614 -0.3805 -0.4879  0.5882
  508MOL0     H68579  10.567   4.798   4.513 -0.2413 -1.1373 -1.4564
  508MOL0     H68580  10.549   4.676   4.640  0.1764  0.3104 -0.0579
  509MOL0     O68581   4.782  10.853   2.769  0.0754 -0.2181  0.0750
  509MOL0     C68582   4.742  10.760   2.840  0.3104  0.2089  0.3578
  509MOL0     O68583   4.823  10.672   2.910 -0.6338 -0.2552 -0.0347
  509MOL0     C68584   4.961  10.685   2.887  0.5514  0.2726 -0.0869
  509MOL0     C68585   5.016  10.606   2.782  0.4535  0.0765  0.3153
  509MOL0     C68586   5.150  10.602   2.750  0.1692  0.5279  0.4600
  509MOL0     C68587   5.237  10.690   2.822 -0.1009 -0.9627  0.1420
  509MOL0     O68588   5.363  10.696   2.771 -0.3385 -0.5229 -0.3391
  509MOL0     C68589   5.466  10.677   2.872 -0.2650  0.0999  0.4754
  509MOL0     C68590   5.517  10.531   2.887 -0.3420 -0.1863  0.6159
  509MOL0     C68591   5.637  10.507   2.794 -0.4547 -0.7366 -1.0501
  509MOL0     C68592   5.622  10.535   2.650  0.5846  0.7824 -0.8732
  509MOL0     C68593   5.740  10.465   2.577  0.4427 -0.0356  1.0819
  509MOL0     C68594   5.770  10.535   2.440 -0.0969 -0.4950 -0.5751
  509MOL0     C68595   5.893  10.474   2.382  0.6332  0.4563  0.0656
  509MOL0     C68596   6.005  10.573   2.331 -0.0695 -0.1532 -0.3784
  509MOL0     N68597   6.124  10.504   2.298  0.2736  0.5159 -0.2551
  509MOL0     C68598   6.132  10.374   2.241 -0.0266 -0.7627 -0.0044
  509MOL0     C68599   6.252  10.323   2.272  0.9057 -0.0576 -1.2531
  509MOL0     C68600   6.285  10.185   2.231 -0.1837  0.3275  0.1534
  509MOL0     C68601   6.402  10.184   2.137 -0.2981 -0.4496 -0.6140
  509MOL0     C68602   6.544  10.197   2.211  0.5187  1.1203  0.5160
  509MOL0     C68603   6.663  10.238   2.127 -0.1292  0.1252 -0.0940
  509MOL0     O68604   6.665  10.386   2.105 -0.2857 -0.6398  0.1842
  509MOL0     C68605   6.784  10.450   2.076  0.2932  0.7285 -0.0230
  509MOL0     C68606   6.877  10.388   1.993  0.0297  0.2732 -0.2530
  509MOL0     C68607   6.998  10.453   1.974 -0.0011 -0.0014  0.5889
  509MOL0     C68608   7.028  10.575   2.023 -0.7682 -0.9959 -0.4752
  509MOL0     C68609   7.165  10.627   2.003 -0.2045  0.0201  0.8348
  509MOL0     O68610   7.241  10.561   1.908  0.1868  0.5103 -0.3878
  509MOL0     C68611   7.377  10.590   1.919 -0.0102  0.6424  0.9865
  509MOL0     C68612   7.459  10.546   2.024 -0.6119 -0.8764 -0.3435
  509MOL0     C68613   7.593  10.591   2.022  0.1138  0.2410 -0.1704
  509MOL0     C68614   7.654  10.648   1.908  0.0334  0.1414  0.0554
  509MOL0     O68615   7.789  10.686   1.928 -0.4719 -0.5907  0.1547
  509MOL0     C68616   7.862  10.737   1.815 -0.2207 -0.2280  0.1819
  509MOL0     C68617   7.900  10.618   1.728 -0.4509  0.3388 -0.2700
  509MOL0     C68618   7.987  10.652   1.604  0.5172  0.0781 -0.0533
  509MOL0     C68619   8.026  10.524   1.519 -0.3143  0.9217 -0.7743
  509MOL0     C68620   8.118  10.561   1.399  0.1552  0.9974 -0.6117
  509MOL0     C68621   8.201  10.440   1.360  0.6105  0.0383  0.7593
  509MOL0     C68622   8.328  10.436   1.441  0.1528  0.1038 -0.5219
  509MOL0     C68623   8.447  10.445   1.344 -0.3950 -0.5733  0.1226
  509MOL0    Cl68624   8.433  10.623   1.276  0.4914 -0.1480 -0.1199
  509MOL0     C68625   7.570  10.698   1.810 -0.1070  0.2356  0.0815
  509MOL0     C68626   7.430  10.670   1.811 -0.3221 -0.5628  0.8107
  509MOL0     O68627   7.196  10.729   2.059  0.1451 -0.1244  0.5681
  509MOL0     C68628   6.937  10.635   2.111 -0.2364  0.0662 -0.6114
  509MOL0     C68629   6.820  10.566   2.144 -0.2627  0.2810 -0.4159
  509MOL0     N68630   6.317  10.417   2.351  0.4581  0.6327  0.5658
  509MOL0     N68631   6.245  10.529   2.364 -0.2411 -0.0177 -0.8720
  509MOL0     C68632   5.181  10.768   2.921  0.1935  0.3162  0.8461
  509MOL0     C68633   5.046  10.758   2.965  0.3100  0.4865 -0.3582
  509MOL0     C68634   4.594  10.721   2.844 -0.0378  0.0845  0.0582
  509MOL0     C68635   4.561  10.617   2.928 -0.4127  1.2192  0.3950
  509MOL0     C68636   4.429  10.585   2.944  0.0280  0.5690 -0.4463
  509MOL0     C68637   4.328  10.659   2.891  0.6636  0.6865  1.0520
  509MOL0     O68638   4.188  10.630   2.901 -0.3321 -0.6712 -0.3890
  509MOL0     C68639   4.152  10.509   2.964  0.1420  0.0161 -0.9530
  509MOL0     C68640   4.176  10.388   2.881 -0.1353  0.3787  0.3536
  509MOL0     C68641   4.126  10.254   2.938  0.2073 -0.2639  0.3639
  509MOL0     C68642   3.968  10.241   2.954  0.0833  0.7481  0.8044
  509MOL0     C68643   3.953  10.111   3.030 -0.2662  0.4470  0.6550
  509MOL0     C68644   3.950  10.016   3.109 -0.1901  0.6498  1.0077
  509MOL0     C68645   4.356  10.764   2.799 -0.0205 -0.0437 -0.2471
  509MOL0     C68646   4.484  10.789   2.773 -0.9091 -0.1647  0.4629
  509MOL0     C68647   4.523  10.900   2.679 -0.4255 -0.0094 -0.5439
  509MOL0     H68648   4.949  10.538   2.731  1.0159 -1.6940  1.8337
  509MOL0     H68649   5.200  10.539   2.677 -0.5901 -0.6434  0.9231
  509MOL0     H68650   5.546  10.745   2.841  1.4148 -1.7536  0.5507
  509MOL0     H68651   5.425  10.711   2.967 -1.2572  1.3970 -0.3657
  509MOL0     H68652   5.438  10.463   2.855  0.1812 -0.5900  0.1419
  509MOL0     H68653   5.545  10.498   2.988  0.2700 -1.4803  0.0607
  509MOL0     H68654   5.656  10.400   2.802 -1.7465 -0.9409 -0.4992
  509MOL0     H68655   5.726  10.562   2.827 -0.2152 -1.0653 -1.1536
  509MOL0     H68656   5.526  10.503   2.609  1.0680 -2.1239  0.0242
  509MOL0     H68657   5.622  10.642   2.626  0.9530  0.6412 -1.5166
  509MOL0     H68658   5.827  10.462   2.643  0.9107  0.1413  0.4712
  509MOL0     H68659   5.711  10.366   2.542  0.2767  1.0457 -2.1570
  509MOL0     H68660   5.694  10.529   2.362  0.8633 -3.0268 -1.4104
  509MOL0     H68661   5.784  10.642   2.455 -0.3815  0.0168 -3.4342
  509MOL0     H68662   5.859  10.417   2.295 -3.1383  0.2889  1.5050
  509MOL0     H68663   5.951  10.408   2.448  5.6734  3.9430 -0.2365
  509MOL0     H68664   5.985  10.635   2.243  0.0730  1.1819  0.5008
  509MOL0     H68665   6.023  10.647   2.410 -0.7257 -1.5368  1.1186
  509MOL0     H68666   6.047  10.327   2.193  0.7116 -2.4068  0.2118
  509MOL0     H68667   6.286  10.118   2.318 -3.2186 -1.9718 -1.3862
  509MOL0     H68668   6.204  10.145   2.170 -0.8357 -1.3361  1.9748
  509MOL0     H68669   6.411  10.090   2.082  0.0702 -0.2073 -0.9826
  509MOL0     H68670   6.396  10.270   2.069 -1.2594 -0.2998 -0.3551
  509MOL0     H68671   6.564  10.097   2.251  1.2669  1.2443  0.4818
  509MOL0     H68672   6.539  10.270   2.292  2.0426  3.6464 -1.4728
  509MOL0     H68673   6.670  10.187   2.031  3.1913  1.9087 -0.9617
  509MOL0     H68674   6.759  10.217   2.175 -0.1559  0.6531  0.2003
  509MOL0     H68675   6.852  10.293   1.947 -2.3950 -1.0952  3.4602
  509MOL0     H68676   7.063  10.400   1.905  1.5043  2.6349 -0.1820
  509MOL0     H68677   7.418  10.490   2.108 -1.3172  1.4600  0.9485
  509MOL0     H68678   7.659  10.575   2.106  3.8862  1.1147 -2.7215
  509MOL0     H68679   7.808  10.818   1.765 -0.8012 -0.7713 -0.0952
  509MOL0     H68680   7.956  10.775   1.854 -1.0326 -0.2598  2.3379
  509MOL0     H68681   7.965  10.555   1.790 -0.1435  1.5276  0.6732
  509MOL0     H68682   7.810  10.563   1.701 -0.0015  0.5511 -2.3870
  509MOL0     H68683   7.937  10.723   1.538  3.2723  1.2903 -0.9908
  509MOL0     H68684   8.070  10.703   1.654 -0.8510  2.6707 -0.2088
  509MOL0     H68685   7.931  10.482   1.484  0.5657  0.0599 -2.2777
  509MOL0     H68686   8.071  10.446   1.583 -2.4584  2.3506  2.7551
  509MOL0     H68687   8.176  10.650   1.425 -0.5717  1.1251  0.6776
  509MOL0     H68688   8.058  10.579   1.309  1.4057  1.9190 -1.2939
  509MOL0     H68689   8.148  10.345   1.372  0.1712  0.1733 -0.0028
  509MOL0     H68690   8.218  10.432   1.252  0.9184 -0.4943  0.8457
  509MOL0     H68691   8.337  10.333   1.477 -0.3596 -0.9622 -3.2703
  509MOL0     H68692   8.320  10.514   1.518 -2.2917 -1.5878  1.0735
  509MOL0     H68693   8.543  10.422   1.391 -0.3377  1.1009  0.8995
  509MOL0     H68694   8.438  10.369   1.266  0.7193 -0.2028 -0.3795
  509MOL0     H68695   7.620  10.753   1.731  1.2577 -2.4299 -1.0606
  509MOL0     H68696   7.370  10.687   1.722  1.2157  0.8004 -0.0330
  509MOL0     H68697   6.963  10.726   2.165 -0.4362 -0.6548  0.7417
  509MOL0     H68698   6.742  10.611   2.205 -0.9553  1.1496 -1.9078
  509MOL0     H68699   5.246  10.845   2.962 -1.5681  1.8746  0.8164
  509MOL0     H68700   5.008  10.827   3.039 -2.4046 -0.4074 -0.8109
  509MOL0     H68701   4.639  10.557   2.974  0.9793  0.2921 -2.8647
  509MOL0     H68702   4.415  10.496   3.005 -0.1740  1.1548  0.3705
  509MOL0     H68703   4.046  10.499   2.990  0.2844  1.2549  0.2492
  509MOL0     H68704   4.197  10.504   3.064 -1.5034 -3.3599 -0.2055
  509MOL0     H68705   4.280  10.380   2.845 -1.5369 -1.5814 -4.0000
  509MOL0     H68706   4.116  10.414   2.793  0.7162  0.7922 -0.1195
  509MOL0     H68707   4.180  10.243   3.032  2.1017 -3.3099 -0.9150
  509MOL0     H68708   4.159  10.171   2.874  1.2151 -1.2150  2.0495
  509MOL0     H68709   3.918  10.319   3.012 -4.8346 -2.2543  1.2409
  509MOL0     H68710   3.919  10.239   2.856 -0.2561  1.1692  0.9653
  509MOL0     H68711   3.951   9.931   3.175  1.1645 -0.1545  0.0091
  509MOL0     H68712   4.268  10.807   2.752 -1.2010 -1.1290  0.8812
  509MOL0     H68713   4.446  10.911   2.603 -0.6241 -1.5454 -0.6125
  509MOL0     H68714   4.542  10.999   2.722 -0.5155  0.2111 -1.0093
  509MOL0     H68715   4.607  10.873   2.614 -2.7064  1.3336 -4.3260
  510MOL0     O68716   6.878   0.310   8.993 -0.5550 -0.1414  0.4490
  510MOL0     C68717   6.804   0.220   9.033 -1.1384  0.0887 -0.6606
  510MOL0     O68718   6.842   0.084   9.053 -1.1086 -0.0876 -0.4804
  510MOL0     C68719   6.956   0.035   8.991  0.6091  0.2362  0.8402
  510MOL0     C68720   7.001   0.085   8.870 -0.3633  0.6729  0.5573
  510MOL0     C68721   7.124   0.041   8.821 -0.0397  0.0827 -0.4561
  510MOL0     C68722   7.204  -0.055   8.882  0.4024  1.1204 -0.1639
  510MOL0     O68723   7.314  -0.090   8.818 -0.4921  0.8223  0.3604
  510MOL0     C68724   7.408  -0.182   8.877 -0.4170  0.1737 -1.2091
  510MOL0     C68725   7.534  -0.194   8.781 -1.1207  0.5197 -0.2028
  510MOL0     C68726   7.490  -0.217   8.629  1.3597  0.0445 -0.3649
  510MOL0     C68727   7.597  -0.196   8.524  0.2241 -0.0702 -0.3823
  510MOL0     C68728   7.535  -0.229   8.384  0.3657  0.0509  0.1531
  510MOL0     C68729   7.505  -0.379   8.357 -0.4981  0.2841  0.5469
  510MOL0     C68730   7.435  -0.386   8.220  0.3055  0.0283  0.9931
  510MOL0     C68731   7.392  -0.532   8.174 -0.0441 -0.1776  0.7974
  510MOL0     N68732   7.292  -0.530   8.071 -0.3169  1.0475  0.6032
  510MOL0     C68733   7.331  -0.563   7.939 -0.2675 -0.6323 -0.4081
  510MOL0     C68734   7.212  -0.567   7.873 -0.4233 -0.2183 -0.6584
  510MOL0     C68735   7.171  -0.618   7.731 -0.0633 -0.3339 -0.1134
  510MOL0     C68736   7.287  -0.652   7.634  0.2804  0.0400 -0.0181
  510MOL0     C68737   7.229  -0.704   7.505 -0.7703  0.3510  1.0039
  510MOL0     C68738   7.334  -0.777   7.419  0.5608 -0.2850 -0.0279
  510MOL0     O68739   7.302  -0.821   7.283  0.2517 -0.1506 -0.1584
  510MOL0     C68740   7.389  -0.900   7.208 -0.3500 -0.7414 -0.6841
  510MOL0     C68741   7.343  -0.928   7.085  0.1768 -0.0836  0.3424
  510MOL0     C68742   7.397  -1.014   6.993 -0.2902 -0.7305  0.3229
  510MOL0     C68743   7.526  -1.077   7.029  0.5921  0.6568  0.1034
  510MOL0     C68744   7.595  -1.171   6.944  0.5822 -0.4456 -0.4017
  510MOL0     O68745   7.532  -1.212   6.834 -0.3308  0.4429  0.6231
  510MOL0     C68746   7.586  -1.317   6.766  0.1139 -0.5537  1.1792
  510MOL0     C68747   7.570  -1.314   6.627 -0.2539 -0.4130  0.4247
  510MOL0     C68748   7.638  -1.391   6.539 -0.0221  0.1803 -0.6256
  510MOL0     C68749   7.702  -1.502   6.586 -0.1809 -0.1563 -0.6141
  510MOL0     O68750   7.751  -1.599   6.494  0.0412 -0.2252  0.0395
  510MOL0     C68751   7.837  -1.705   6.537  0.6254  0.3760  0.3836
  510MOL0     C68752   7.982  -1.656   6.566 -0.1021  1.1443  0.3031
  510MOL0     C68753   8.071  -1.783   6.569  0.6404 -0.8121 -0.0139
  510MOL0     C68754   8.200  -1.768   6.492 -0.0545  0.5159  0.0513
  510MOL0     C68755   8.292  -1.900   6.497  0.1578 -0.5625  0.2279
  510MOL0     C68756   8.395  -1.889   6.377  0.1286  0.5505 -0.4782
  510MOL0     C68757   8.464  -2.014   6.346  0.1924  0.5918  0.3437
  510MOL0     C68758   8.596  -2.023   6.430 -1.2472  0.5924  0.7721
  510MOL0    Cl68759   8.676  -2.169   6.379 -0.3568  0.2920  0.0031
  510MOL0     C68760   7.702  -1.532   6.724  1.4457 -0.5684 -0.1486
  510MOL0     C68761   7.645  -1.434   6.816 -0.3579 -0.3072  0.1093
  510MOL0     O68762   7.711  -1.194   6.975  0.1738 -0.3389 -1.0314
  510MOL0     C68763   7.582  -1.036   7.156 -0.0610 -0.7231  0.4666
  510MOL0     C68764   7.516  -0.953   7.242  0.9698  0.9273 -0.4740
  510MOL0     N68765   7.108  -0.530   7.958  0.7985  0.6680  0.3952
  510MOL0     N68766   7.154  -0.510   8.078  0.3124 -0.2209  0.4287
  510MOL0     C68767   7.150  -0.118   8.997 -0.1530 -1.2519  0.2078
  510MOL0     C68768   7.027  -0.066   9.058 -0.0185 -0.0615  0.0780
  510MOL0     C68769   6.669   0.262   9.065  0.0040 -0.4325  0.5665
  510MOL0     C68770   6.637   0.405   9.083 -0.7011 -0.0449  0.8790
  510MOL0     C68771   6.509   0.457   9.112  0.2993 -0.2756  0.2651
  510MOL0     C68772   6.404   0.365   9.130 -0.5036 -0.5478 -0.3470
  510MOL0     O68773   6.278   0.387   9.170 -0.1379  0.2504 -0.2742
  510MOL0     C68774   6.218   0.510   9.198 -0.4933 -0.2203  0.4431
  510MOL0     C68775   6.069   0.513   9.189  0.5689 -0.0425  0.2728
  510MOL0     C68776   6.015   0.397   9.267  0.0173  0.6824  0.3552
  510MOL0     C68777   6.020   0.432   9.419  0.1094 -0.5102 -0.8108
  510MOL0     C68778   5.955   0.331   9.505  0.1731  0.8657 -0.0710
  510MOL0     C68779   5.903   0.241   9.570  0.1834 -0.6700 -0.1345
  510MOL0     C68780   6.430   0.233   9.109 -0.5156  0.6779 -0.5175
  510MOL0     C68781   6.558   0.186   9.075 -0.8321  0.4726  0.7563
  510MOL0     C68782   6.561   0.035   9.048 -0.1192  0.1320 -0.5444
  510MOL0     H68783   6.933   0.138   8.804 -0.1401  0.4713  0.1581
  510MOL0     H68784   7.164   0.068   8.724 -1.6817  3.4261 -0.3438
  510MOL0     H68785   7.437  -0.135   8.971  2.2688 -1.7640 -0.9692
  510MOL0     H68786   7.365  -0.279   8.903  3.3420 -0.8617  2.1759
  510MOL0     H68787   7.588  -0.284   8.812 -2.0781  0.4946  1.4916
  510MOL0     H68788   7.611  -0.116   8.773  0.5767 -1.0869 -0.2695
  510MOL0     H68789   7.399  -0.159   8.610  0.4558 -0.8290  1.1134
  510MOL0     H68790   7.458  -0.320   8.610  0.9735  0.4199 -1.8909
  510MOL0     H68791   7.634  -0.093   8.523  1.9462 -0.6566 -1.0050
  510MOL0     H68792   7.681  -0.266   8.536  1.0503  0.9407 -0.0605
  510MOL0     H68793   7.444  -0.172   8.365  1.4380  1.1673 -2.0154
  510MOL0     H68794   7.612  -0.192   8.316 -0.7034  2.2037  0.0213
  510MOL0     H68795   7.601  -0.432   8.350 -0.1044  1.1083 -5.6270
  510MOL0     H68796   7.440  -0.417   8.436  0.5104  1.0375  1.7799
  510MOL0     H68797   7.502  -0.339   8.147 -2.2198  1.9080 -0.3041
  510MOL0     H68798   7.343  -0.327   8.227  0.2905  0.2615 -0.6310
  510MOL0     H68799   7.474  -0.596   8.140  0.2699  0.5501  0.1479
  510MOL0     H68800   7.367  -0.590   8.263  2.3118 -0.8257  1.1073
  510MOL0     H68801   7.431  -0.596   7.912 -0.6375 -0.8419 -1.5460
  510MOL0     H68802   7.097  -0.699   7.732  0.5768 -0.9210  0.1631
  510MOL0     H68803   7.110  -0.540   7.684 -0.7643 -0.8131 -0.0054
  510MOL0     H68804   7.329  -0.554   7.610 -2.0025  1.4508  1.3502
  510MOL0     H68805   7.352  -0.726   7.681 -1.8858 -3.1146 -1.6582
  510MOL0     H68806   7.196  -0.613   7.455  0.7704  0.9268  0.9857
  510MOL0     H68807   7.140  -0.766   7.523  0.4218 -1.3747  1.1589
  510MOL0     H68808   7.360  -0.865   7.479 -2.7168 -1.2223  0.1792
  510MOL0     H68809   7.426  -0.718   7.412  1.6474 -1.6422  1.6820
  510MOL0     H68810   7.245  -0.889   7.061 -0.8534 -2.3700  0.6829
  510MOL0     H68811   7.347  -1.032   6.898  1.0988  0.2785 -0.6417
  510MOL0     H68812   7.508  -1.236   6.585  1.3641 -0.1895 -1.7445
  510MOL0     H68813   7.623  -1.381   6.432  1.6065  0.8645 -0.8189
  510MOL0     H68814   7.797  -1.769   6.616 -2.0134 -0.2054 -1.2944
  510MOL0     H68815   7.840  -1.767   6.447  1.8464  3.8837 -2.2350
  510MOL0     H68816   8.022  -1.595   6.484 -1.0550  0.1065 -0.9786
  510MOL0     H68817   7.982  -1.602   6.661  2.8539  1.2047  0.3638
  510MOL0     H68818   8.102  -1.801   6.672 -1.8852  3.7808  1.8467
  510MOL0     H68819   8.019  -1.868   6.524 -0.4369 -1.4548  2.2789
  510MOL0     H68820   8.261  -1.687   6.532  1.9333 -1.7605  1.9474
  510MOL0     H68821   8.171  -1.755   6.387 -1.9541 -0.5452  0.3988
  510MOL0     H68822   8.228  -1.987   6.478  0.3293 -0.4149 -1.1680
  510MOL0     H68823   8.332  -1.911   6.598  1.6868  0.9889 -0.1641
  510MOL0     H68824   8.332  -1.872   6.290 -0.7096  0.0135  0.0100
  510MOL0     H68825   8.454  -1.797   6.378 -1.0146  1.3186  0.6962
  510MOL0     H68826   8.486  -2.017   6.239  1.3942 -1.1063  0.5990
  510MOL0     H68827   8.394  -2.096   6.361  2.9839 -2.0783 -0.2013
  510MOL0     H68828   8.653  -1.935   6.397 -0.6612  0.1479  0.5676
  510MOL0     H68829   8.581  -2.023   6.538 -3.3088  0.5398  0.5277
  510MOL0     H68830   7.743  -1.626   6.759 -0.9324 -2.1764 -1.3839
  510MOL0     H68831   7.644  -1.453   6.923  0.2072  0.0667  0.1813
  510MOL0     H68832   7.679  -1.068   7.192  0.9083 -0.1778 -1.5313
  510MOL0     H68833   7.568  -0.939   7.336  0.7694  0.0646 -0.2261
  510MOL0     H68834   7.202  -0.182   9.067  1.5179  2.8044  3.0742
  510MOL0     H68835   6.985  -0.097   9.153 -3.0921  0.6219 -0.9414
  510MOL0     H68836   6.709   0.481   9.054  1.2497 -2.0814  0.0513
  510MOL0     H68837   6.497   0.565   9.123 -2.9473 -0.3820 -1.0162
  510MOL0     H68838   6.255   0.573   9.116  3.3945 -1.4030  1.0758
  510MOL0     H68839   6.251   0.558   9.290 -4.0031 -0.6351  2.0776
  510MOL0     H68840   6.044   0.488   9.085  1.4399 -1.1752  0.3150
  510MOL0     H68841   6.019   0.599   9.234 -0.8836 -1.3136  1.2068
  510MOL0     H68842   6.066   0.306   9.237 -0.5902  0.4776 -0.0852
  510MOL0     H68843   5.911   0.389   9.232 -1.0813 -0.9390  3.6227
  510MOL0     H68844   6.118   0.458   9.461 -0.7465 -2.1285  2.5392
  510MOL0     H68845   5.962   0.525   9.423  3.9862  2.1392 -0.4984
  510MOL0     H68846   5.864   0.161   9.629 -0.7013 -0.6527 -0.6670
  510MOL0     H68847   6.347   0.167   9.131 -0.6507  1.4496  1.5880
  510MOL0     H68848   6.585   0.021   8.943  0.7749  0.9967 -0.4710
  510MOL0     H68849   6.638  -0.019   9.105  0.5723  0.0581 -1.5326
  510MOL0     H68850   6.469  -0.013   9.084  1.2081  0.5069  3.9750
  511MOL0     O68851   8.111   8.453   7.994 -1.0757 -0.5910  0.1690
  511MOL0     C68852   8.221   8.442   7.939 -0.5753 -0.1435  0.1139
  511MOL0     O68853   8.243   8.414   7.813 -0.0676 -0.3106  0.2336
  511MOL0     C68854   8.131   8.416   7.727 -0.3691  0.0751  0.6137
  511MOL0     C68855   8.054   8.299   7.716  0.6433 -0.2596  0.1007
  511MOL0     C68856   7.940   8.302   7.637  0.0841  1.0084 -0.6959
  511MOL0     C68857   7.882   8.414   7.581  0.2010 -0.0568 -0.9424
  511MOL0     O68858   7.764   8.393   7.514  1.0742 -0.1824 -0.0185
  511MOL0     C68859   7.686   8.516   7.498 -0.5263  1.2619  0.8966
  511MOL0     C68860   7.622   8.558   7.625  0.2843 -0.5201 -0.5439
  511MOL0     C68861   7.490   8.638   7.588  0.0100 -0.1105 -0.4851
  511MOL0     C68862   7.347   8.586   7.613 -0.1293 -0.0695 -0.1910
  511MOL0     C68863   7.309   8.507   7.483  0.2952  0.3588  0.2184
  511MOL0     C68864   7.176   8.430   7.478 -0.9841  0.1854 -0.1341
  511MOL0     C68865   7.054   8.519   7.527 -0.7146  0.1066 -0.0431
  511MOL0     C68866   7.026   8.637   7.439  0.0059 -0.3781 -0.1181
  511MOL0     N68867   6.889   8.682   7.441  0.7453 -0.4360 -0.0964
  511MOL0     C68868   6.784   8.593   7.425 -0.7877  0.2061  0.3174
  511MOL0     C68869   6.676   8.669   7.448 -0.2648  0.0387  0.5083
  511MOL0     C68870   6.538   8.604   7.447  0.3195  0.5073  0.0087
  511MOL0     C68871   6.519   8.487   7.549  0.7738 -0.1252  0.1145
  511MOL0     C68872   6.402   8.401   7.509  0.7206 -0.5217  0.2421
  511MOL0     C68873   6.271   8.492   7.481  0.6523  0.2249 -0.1028
  511MOL0     O68874   6.241   8.583   7.587  0.2075  0.2817 -0.3904
  511MOL0     C68875   6.211   8.532   7.711 -0.2600 -0.6467 -0.5543
  511MOL0     C68876   6.099   8.451   7.726  0.4554 -0.9806  0.2457
  511MOL0     C68877   6.070   8.372   7.839 -0.0163  0.2936 -0.1238
  511MOL0     C68878   6.158   8.383   7.946  0.1661 -0.0692  0.0950
  511MOL0     C68879   6.140   8.317   8.078  0.2879  0.0751  0.8882
  511MOL0     O68880   6.218   8.342   8.183  0.2938  0.5638 -0.0144
  511MOL0     C68881   6.225   8.254   8.294 -0.8714  0.6238  0.7969
  511MOL0     C68882   6.306   8.306   8.399  0.5897  0.1939  0.5150
  511MOL0     C68883   6.331   8.230   8.511 -0.8044  0.1467  0.3573
  511MOL0     C68884   6.290   8.098   8.521 -0.7226 -0.5809  0.1600
  511MOL0     O68885   6.320   8.028   8.640 -0.0092 -0.4542  0.6401
  511MOL0     C68886   6.295   7.887   8.646 -0.6447 -0.1398  0.4634
  511MOL0     C68887   6.271   7.848   8.789 -0.0771 -0.0137  0.6342
  511MOL0     C68888   6.393   7.869   8.871 -0.1385  0.1530 -0.6149
  511MOL0     C68889   6.362   7.869   9.024 -0.2058  1.3165 -0.4777
  511MOL0     C68890   6.486   7.905   9.110 -1.7440 -0.3800 -2.1110
  511MOL0     C68891   6.597   7.793   9.132  0.3903  0.0449  0.5347
  511MOL0     C68892   6.543   7.665   9.193  0.1055 -0.5972  0.4919
  511MOL0     C68893   6.655   7.575   9.239 -0.5619  0.7542  0.5672
  511MOL0    Cl68894   6.721   7.633   9.408  0.6568  0.1252 -0.3765
  511MOL0     C68895   6.221   8.043   8.416 -0.4967  0.1683  0.5450
  511MOL0     C68896   6.186   8.122   8.304 -0.4268  0.2795 -0.5786
  511MOL0     O68897   6.045   8.235   8.076 -0.2411 -1.1882 -0.5302
  511MOL0     C68898   6.267   8.472   7.939 -0.0748 -0.1426 -0.2829
  511MOL0     C68899   6.283   8.546   7.828 -0.1636 -0.4628 -0.4595
  511MOL0     N68900   6.719   8.807   7.479 -0.3417  0.3361  0.5558
  511MOL0     N68901   6.848   8.807   7.478 -0.1653  0.4226  0.9109
  511MOL0     C68902   7.953   8.533   7.607 -0.0648  0.0372  0.6738
  511MOL0     C68903   8.080   8.534   7.677  0.2735 -0.3353 -0.3202
  511MOL0     C68904   8.327   8.457   8.029 -0.2331 -0.0042 -0.1223
  511MOL0     C68905   8.419   8.352   8.037  0.0602 -0.1935 -0.2531
  511MOL0     C68906   8.523   8.367   8.122 -0.4755 -0.5384  0.2073
  511MOL0     C68907   8.556   8.483   8.188  0.3797 -0.7216 -0.3057
  511MOL0     O68908   8.665   8.495   8.276  0.2180 -0.7361 -0.5753
  511MOL0     C68909   8.727   8.374   8.320 -1.4508  0.2867 -0.5720
  511MOL0     C68910   8.786   8.395   8.462  0.1696  0.3311 -0.4915
  511MOL0     C68911   8.911   8.489   8.463  0.6922 -0.4370 -0.1605
  511MOL0     C68912   8.988   8.505   8.594  0.3614  0.4039  0.6877
  511MOL0     C68913   9.058   8.380   8.636 -0.8574  0.1352  0.2337
  511MOL0     C68914   9.133   8.282   8.656  0.3459 -1.4437 -0.0674
  511MOL0     C68915   8.467   8.600   8.178  0.0991  0.1534 -0.4839
  511MOL0     C68916   8.357   8.582   8.085 -0.0444 -0.0155 -0.7955
  511MOL0     C68917   8.260   8.692   8.054  0.8383  0.0790  0.5042
  511MOL0     H68918   8.092   8.204   7.753 -1.6692 -0.4483  2.2559
  511MOL0     H68919   7.892   8.208   7.612 -0.3840  1.6956 -2.5733
  511MOL0     H68920   7.749   8.590   7.447  2.2266 -1.7557 -0.4884
  511MOL0     H68921   7.611   8.487   7.424 -0.0835  0.3057  0.7986
  511MOL0     H68922   7.694   8.610   7.688  0.1622 -0.2069 -0.6632
  511MOL0     H68923   7.584   8.473   7.685  0.5303 -1.9440 -2.3286
  511MOL0     H68924   7.497   8.671   7.484 -3.1666  2.0791 -0.1572
  511MOL0     H68925   7.504   8.728   7.650  0.6516 -1.5145  1.5385
  511MOL0     H68926   7.331   8.539   7.711  0.1115 -2.6797 -1.3274
  511MOL0     H68927   7.270   8.664   7.612 -1.6088 -1.4643  0.0137
  511MOL0     H68928   7.322   8.576   7.400  1.2822  0.4107  0.4030
  511MOL0     H68929   7.390   8.433   7.474  0.4603  0.1242  2.7305
  511MOL0     H68930   7.159   8.383   7.380  1.7530 -1.2778 -0.0122
  511MOL0     H68931   7.182   8.346   7.548 -0.8610 -0.4223 -0.8577
  511MOL0     H68932   7.072   8.543   7.632 -3.0891 -0.5425  0.5658
  511MOL0     H68933   6.963   8.459   7.530  0.3360 -1.5343  0.5354
  511MOL0     H68934   7.096   8.720   7.448 -1.0114  0.3540  1.3511
  511MOL0     H68935   7.043   8.602   7.336 -0.2253  0.7872 -0.5610
  511MOL0     H68936   6.787   8.487   7.403  3.2087  0.3302 -0.5007
  511MOL0     H68937   6.473   8.689   7.468 -1.0818 -0.2311 -1.1420
  511MOL0     H68938   6.516   8.577   7.343  1.0174  0.6371 -0.1737
  511MOL0     H68939   6.611   8.428   7.551  1.0359  0.2899  1.0318
  511MOL0     H68940   6.495   8.521   7.650  1.3515  0.2608  0.1212
  511MOL0     H68941   6.385   8.323   7.584 -1.3953 -0.9135 -0.5832
  511MOL0     H68942   6.431   8.347   7.418 -2.7198 -2.7113  0.2564
  511MOL0     H68943   6.184   8.430   7.455 -0.0392  1.0423  0.2128
  511MOL0     H68944   6.289   8.544   7.387 -0.1210 -1.4624 -1.2522
  511MOL0     H68945   6.028   8.442   7.644  0.0962  3.1640 -0.0959
  511MOL0     H68946   5.986   8.306   7.860  1.2304 -1.0259  0.9425
  511MOL0     H68947   6.321   8.414   8.397  0.4915  0.1995 -0.4119
  511MOL0     H68948   6.388   8.282   8.587 -0.8329  2.0497 -0.8550
  511MOL0     H68949   6.198   7.869   8.600  0.1876  2.0204 -2.4578
  511MOL0     H68950   6.363   7.826   8.585 -1.7329 -0.1438 -0.7696
  511MOL0     H68951   6.180   7.895   8.827 -0.8424 -0.2847 -0.7810
  511MOL0     H68952   6.248   7.741   8.785  2.5195 -0.5871 -1.7727
  511MOL0     H68953   6.464   7.792   8.840  0.6380  1.5000 -2.4114
  511MOL0     H68954   6.432   7.971   8.862 -2.4255  0.9796 -1.9902
  511MOL0     H68955   6.324   7.772   9.057  3.3492  0.2871  0.9840
  511MOL0     H68956   6.283   7.943   9.043 -1.0669 -0.4291  3.6266
  511MOL0     H68957   6.444   7.925   9.209  2.6144 -0.6471 -0.0045
  511MOL0     H68958   6.529   7.994   9.063 -6.0872  1.8619 -2.4256
  511MOL0     H68959   6.652   7.770   9.040  0.0477 -2.4448  0.8751
  511MOL0     H68960   6.679   7.830   9.195 -0.4164  2.8269  0.0826
  511MOL0     H68961   6.480   7.617   9.117  1.3091 -1.6461  0.1123
  511MOL0     H68962   6.472   7.677   9.275 -1.0044 -1.3432 -0.3150
  511MOL0     H68963   6.622   7.471   9.239  2.2510 -0.3422 -2.9111
  511MOL0     H68964   6.738   7.578   9.168 -1.0447 -2.1468 -0.2623
  511MOL0     H68965   6.189   7.939   8.414 -1.0085  0.2734  1.9746
  511MOL0     H68966   6.146   8.074   8.215 -4.4527  0.9090  0.6763
  511MOL0     H68967   6.345   8.473   8.014 -0.7227 -3.4130  0.6066
  511MOL0     H68968   6.374   8.606   7.823 -1.5310  1.6393 -1.5944
  511MOL0     H68969   7.925   8.629   7.564 -0.7960 -1.4449 -2.4788
  511MOL0     H68970   8.131   8.630   7.674  0.8262 -0.6425 -1.0402
  511MOL0     H68971   8.394   8.264   7.979 -1.2098  1.1933 -1.8911
  511MOL0     H68972   8.590   8.282   8.131  0.2649  0.0130 -0.0376
  511MOL0     H68973   8.807   8.335   8.257 -0.2712 -0.4070  1.2673
  511MOL0     H68974   8.660   8.291   8.343  1.2536 -1.4573  1.5619
  511MOL0     H68975   8.806   8.297   8.506  0.2204 -0.1017 -1.4556
  511MOL0     H68976   8.709   8.448   8.518 -1.2172 -1.1797 -0.8656
  511MOL0     H68977   8.863   8.586   8.446  0.3920 -0.8940 -2.0776
  511MOL0     H68978   8.985   8.480   8.384  3.0504 -0.1168  1.8866
  511MOL0     H68979   9.060   8.587   8.585  0.6451  0.7309  4.3617
  511MOL0     H68980   8.919   8.538   8.673  1.1014  2.1961  0.6450
  511MOL0     H68981   9.207   8.204   8.662 -2.1274 -4.0500 -1.1012
  511MOL0     H68982   8.488   8.693   8.229  2.9575 -1.2195  1.1320
  511MOL0     H68983   8.301   8.783   8.099  0.4894  1.1347 -1.2107
  511MOL0     H68984   8.234   8.713   7.950  0.7756  0.6770  0.6407
  511MOL0     H68985   8.164   8.667   8.100  0.3466  0.4352 -0.3249
  512MOL0     O68986   7.810   4.239   9.176 -0.1199 -0.1006  1.2283
  512MOL0     C68987   7.745   4.214   9.279  0.3578 -0.0904  0.3873
  512MOL0     O68988   7.792   4.226   9.405  0.1028  0.5866 -0.5649
  512MOL0     C68989   7.926   4.241   9.442  0.1724  0.5062 -0.2505
  512MOL0     C68990   8.037   4.280   9.359  0.0703  0.2020  0.1660
  512MOL0     C68991   8.164   4.284   9.406  0.6018  0.5507 -0.2439
  512MOL0     C68992   8.186   4.252   9.542  0.0988 -0.5920  0.2571
  512MOL0     O68993   8.314   4.272   9.597 -0.1724  0.2404  0.4501
  512MOL0     C68994   8.423   4.221   9.513  0.3521  0.7013 -0.3702
  512MOL0     C68995   8.534   4.143   9.593 -0.1679 -0.2861 -0.1585
  512MOL0     C68996   8.589   4.224   9.711 -0.3667  0.0118 -0.5767
  512MOL0     C68997   8.712   4.150   9.778 -0.0503 -0.5017 -0.0723
  512MOL0     C68998   8.695   4.123   9.926  0.3139  0.4699 -0.2727
  512MOL0     C68999   8.832   4.073   9.984 -0.0402  0.1711  0.5926
  512MOL0     C69000   8.830   4.044  10.132 -0.6369  0.8325  0.2904
  512MOL0     C69001   8.992   4.026  10.161  0.6627  0.5744 -0.4632
  512MOL0     N69002   9.005   4.043  10.308 -0.4355  0.4392  0.1851
  512MOL0     C69003   9.027   3.943  10.400 -0.4368 -0.6155  0.4916
  512MOL0     C69004   9.027   3.993  10.519 -0.1808 -0.1155 -0.7635
  512MOL0     C69005   9.032   3.903  10.640 -0.0007  0.8142  0.0948
  512MOL0     C69006   9.177   3.898  10.693 -0.0723 -0.6969  0.5473
  512MOL0     C69007   9.207   3.800  10.808  0.3134  0.2974 -0.1421
  512MOL0     C69008   9.089   3.804  10.911  0.0408  0.2602 -0.0407
  512MOL0     O69009   9.136   3.732  11.031  0.4529  0.0771  0.2616
  512MOL0     C69010   9.035   3.701  11.120  0.1468 -0.0240 -0.3899
  512MOL0     C69011   9.083   3.644  11.234  0.0361 -0.7198  0.0384
  512MOL0     C69012   8.994   3.597  11.337 -0.1442 -0.8675 -0.3741
  512MOL0     C69013   8.857   3.593  11.313 -0.2561  0.6066  0.6561
  512MOL0     C69014   8.764   3.530  11.403  1.2179  0.3783  0.9401
  512MOL0     O69015   8.632   3.568  11.405  0.2224 -0.6603  1.0406
  512MOL0     C69016   8.547   3.501  11.489 -0.0418 -0.4173  0.0062
  512MOL0     C69017   8.522   3.363  11.467 -0.1389 -0.8035 -0.9379
  512MOL0     C69018   8.437   3.300  11.560 -0.4665  0.3935 -0.1592
  512MOL0     C69019   8.379   3.374  11.667  0.0302 -0.7740  0.2151
  512MOL0     O69020   8.280   3.322  11.746  0.9965  0.3821 -0.9268
  512MOL0     C69021   8.297   3.176  11.774  0.8906 -0.0700 -1.4454
  512MOL0     C69022   8.417   3.139  11.870  0.1591 -0.3903  0.0426
  512MOL0     C69023   8.445   2.981  11.864  0.3566 -0.8531  1.1391
  512MOL0     C69024   8.322   2.888  11.890 -0.3317 -0.7747 -0.2049
  512MOL0     C69025   8.255   2.928  12.024  0.5032  0.7046 -0.7544
  512MOL0     C69026   8.173   2.812  12.065 -0.7295 -0.4422 -0.4102
  512MOL0     C69027   8.073   2.759  11.973  0.1457 -0.3591  0.9253
  512MOL0     C69028   7.953   2.701  12.053 -0.0957 -0.2122  0.0491
  512MOL0    Cl69029   7.838   2.615  11.942 -0.2500  0.2020  0.2664
  512MOL0     C69030   8.392   3.510  11.672 -0.1530 -0.0566  0.7013
  512MOL0     C69031   8.475   3.574  11.583 -0.5873  0.4843 -1.2996
  512MOL0     O69032   8.812   3.439  11.470 -0.6752 -0.5648 -0.0613
  512MOL0     C69033   8.808   3.643  11.197 -0.4518 -1.0331  0.3507
  512MOL0     C69034   8.895   3.711  11.113 -0.8010 -0.4617  0.5504
  512MOL0     N69035   8.999   4.138  10.510 -1.2896 -1.1081  0.6948
  512MOL0     N69036   8.989   4.161  10.378 -0.0444 -0.5036 -1.0829
  512MOL0     C69037   8.075   4.236   9.629 -0.6245  0.1697 -0.2221
  512MOL0     C69038   7.945   4.229   9.577  0.1997  1.1013 -0.7731
  512MOL0     C69039   7.605   4.162   9.266  0.6751 -0.2760  0.0755
  512MOL0     C69040   7.563   4.065   9.362  0.2211 -0.0314  0.4323
  512MOL0     C69041   7.432   4.024   9.370 -1.3648  0.8368 -0.2158
  512MOL0     C69042   7.338   4.076   9.277  1.2351  0.6789 -0.1176
  512MOL0     O69043   7.215   4.024   9.295 -0.6885  0.7672 -0.2213
  512MOL0     C69044   7.108   4.086   9.212  0.1480  0.3444  0.3375
  512MOL0     C69045   6.973   4.036   9.244  0.5431  0.1184 -0.2966
  512MOL0     C69046   6.933   4.054   9.386 -0.2832  0.0008 -0.5624
  512MOL0     C69047   6.807   3.969   9.421  0.4509  0.1867  1.2792
  512MOL0     C69048   6.700   3.964   9.321  0.6421 -0.1982 -0.9440
  512MOL0     C69049   6.602   3.974   9.249  0.2694  0.2421 -0.6740
  512MOL0     C69050   7.383   4.176   9.184  0.1322 -0.1045  0.2386
  512MOL0     C69051   7.511   4.220   9.184  0.5280  0.8922 -0.0531
  512MOL0     C69052   7.551   4.310   9.075  0.2324  1.9308 -0.0869
  512MOL0     H69053   8.038   4.283   9.250  1.0156 -1.1307  0.1107
  512MOL0     H69054   8.244   4.306   9.336  1.8503 -0.2146  0.8867
  512MOL0     H69055   8.394   4.147   9.438  0.6342  2.0454 -1.8433
  512MOL0     H69056   8.468   4.306   9.461 -0.8101  0.5771 -1.6153
  512MOL0     H69057   8.621   4.132   9.528  0.1954  0.2555  0.2356
  512MOL0     H69058   8.505   4.043   9.626 -2.2966  1.0925  2.6032
  512MOL0     H69059   8.504   4.241   9.778  0.3010  0.3917  0.1866
  512MOL0     H69060   8.632   4.314   9.664  4.9442 -2.0906 -0.3771
  512MOL0     H69061   8.734   4.056   9.728 -1.6680 -0.6334 -0.5832
  512MOL0     H69062   8.801   4.212   9.766  0.8140 -0.8859  3.3644
  512MOL0     H69063   8.670   4.223   9.964  1.1694  1.1368 -1.3842
  512MOL0     H69064   8.610   4.056   9.943  0.4506 -0.1366 -1.8589
  512MOL0     H69065   8.864   3.981   9.934  1.1643  0.6815  0.3816
  512MOL0     H69066   8.912   4.146   9.968  0.8531 -1.4505 -3.6014
  512MOL0     H69067   8.781   3.951  10.160 -0.1532 -0.8943 -3.8396
  512MOL0     H69068   8.782   4.130  10.180 -3.8773 -0.8429  0.3368
  512MOL0     H69069   9.023   3.923  10.142 -1.8745 -0.5565  0.9982
  512MOL0     H69070   9.064   4.098  10.122 -0.7442  2.9598  1.0347
  512MOL0     H69071   9.056   3.840  10.385  3.2959  0.6300 -2.3616
  512MOL0     H69072   8.959   3.937  10.714 -0.9005 -0.9907  0.0943
  512MOL0     H69073   9.005   3.799  10.622  1.8493  0.2389  0.4556
  512MOL0     H69074   9.247   3.876  10.612  0.8587 -2.2886  1.7108
  512MOL0     H69075   9.208   4.001  10.710  1.4198 -0.8017 -1.2546
  512MOL0     H69076   9.303   3.824  10.855  0.0715  0.3246  0.3422
  512MOL0     H69077   9.205   3.697  10.771  1.9414 -0.4196  1.5798
  512MOL0     H69078   8.995   3.762  10.876 -1.9679  1.5318  3.3192
  512MOL0     H69079   9.066   3.905  10.946 -1.2008 -0.4404  1.2528
  512MOL0     H69080   9.187   3.616  11.249 -0.9490 -3.8012  2.4331
  512MOL0     H69081   9.027   3.549  11.428  0.7469  0.7807  0.2147
  512MOL0     H69082   8.560   3.309  11.380 -2.6768 -2.6138 -1.0315
  512MOL0     H69083   8.416   3.195  11.540  0.0223  0.1165  0.7114
  512MOL0     H69084   8.202   3.141  11.815  1.4108  0.5341  0.3597
  512MOL0     H69085   8.309   3.114  11.684 -0.9137 -3.4857  0.4391
  512MOL0     H69086   8.503   3.199  11.837 -0.4988 -0.5759 -2.1242
  512MOL0     H69087   8.401   3.168  11.975  0.7593 -0.0319  0.0432
  512MOL0     H69088   8.490   2.967  11.765 -0.6891  0.1943  0.4800
  512MOL0     H69089   8.518   2.946  11.936  0.8928 -0.9520  0.5521
  512MOL0     H69090   8.355   2.784  11.886  3.9323  0.0351  4.4168
  512MOL0     H69091   8.246   2.905  11.813  0.3672  4.1393 -0.1710
  512MOL0     H69092   8.196   3.020  12.015 -0.3122  0.4509  1.4346
  512MOL0     H69093   8.333   2.946  12.098 -0.0787 -2.2250  0.6736
  512MOL0     H69094   8.227   2.725  12.104 -2.6900 -0.7155  1.8650
  512MOL0     H69095   8.125   2.845  12.157 -0.4135 -1.4627  0.1245
  512MOL0     H69096   8.121   2.682  11.911 -1.5958 -1.2197  0.5899
  512MOL0     H69097   8.042   2.849  11.919  3.6252  0.5576  0.2118
  512MOL0     H69098   7.990   2.633  12.131  0.0788  1.7886  1.8043
  512MOL0     H69099   7.897   2.777  12.107  1.0488 -0.9591  2.4767
  512MOL0     H69100   8.337   3.571  11.744 -0.7418  0.2622 -0.0058
  512MOL0     H69101   8.496   3.680  11.587 -1.2940  0.7085 -2.9016
  512MOL0     H69102   8.704   3.627  11.170 -0.2960 -1.1548 -0.1799
  512MOL0     H69103   8.862   3.771  11.030 -0.5896 -0.0747  0.7447
  512MOL0     H69104   8.098   4.228   9.735 -3.4303 -0.4930  0.4283
  512MOL0     H69105   7.865   4.202   9.645  1.2930 -3.3060 -0.9161
  512MOL0     H69106   7.640   4.042   9.435  4.0442  1.1986 -2.9106
  512MOL0     H69107   7.403   3.960   9.453  0.6424 -0.5141 -0.4857
  512MOL0     H69108   7.125   4.057   9.108  0.6868 -1.0707  0.8106
  512MOL0     H69109   7.105   4.196   9.218 -2.2381  0.3688 -0.0689
  512MOL0     H69110   6.961   3.930   9.219 -1.2969  0.0617  0.6395
  512MOL0     H69111   6.902   4.093   9.183  1.4837  1.2101 -0.4160
  512MOL0     H69112   6.903   4.157   9.408 -3.1640 -0.8194 -0.2595
  512MOL0     H69113   7.025   4.043   9.444 -0.6102  3.2218  0.7861
  512MOL0     H69114   6.836   3.868   9.454 -1.6276 -0.9286 -0.0620
  512MOL0     H69115   6.773   4.006   9.518  0.3620  0.9176  0.9765
  512MOL0     H69116   6.529   3.994   9.174 -1.5800  0.5812  1.1038
  512MOL0     H69117   7.315   4.223   9.115 -0.6395 -1.7285 -0.1618
  512MOL0     H69118   7.602   4.398   9.116  2.4697  1.0442 -0.8108
  512MOL0     H69119   7.619   4.259   9.006 -3.2595  0.3148 -2.6891
  512MOL0     H69120   7.463   4.341   9.016  1.0961  1.8283 -1.4778
  513MOL0     O69121   7.811   6.599  10.548 -0.0340 -1.0263 -0.2828
  513MOL0     C69122   7.750   6.495  10.563  0.2495  0.0427 -0.6133
  513MOL0     O69123   7.782   6.398  10.644 -0.2028 -0.5898  0.1259
  513MOL0     C69124   7.916   6.392  10.687  0.5306 -0.5076  0.3166
  513MOL0     C69125   8.024   6.407  10.615 -1.0189 -0.6691  0.6618
  513MOL0     C69126   8.150   6.381  10.666 -0.5148 -0.2541  0.2080
  513MOL0     C69127   8.174   6.357  10.805 -0.1258  0.0512  0.1063
  513MOL0     O69128   8.306   6.347  10.842  0.1788 -0.5699 -0.9383
  513MOL0     C69129   8.330   6.296  10.971  0.0782  0.1241  0.0398
  513MOL0     C69130   8.480   6.296  10.999 -0.9768 -0.8198 -0.5769
  513MOL0     C69131   8.556   6.200  10.903  0.3460 -0.3173  0.0730
  513MOL0     C69132   8.551   6.057  10.968  0.1360  0.4744 -0.1774
  513MOL0     C69133   8.668   5.968  10.915 -0.8640 -0.5363 -0.6409
  513MOL0     C69134   8.727   5.889  11.028  0.1834  0.5169  0.2202
  513MOL0     C69135   8.845   5.811  10.964  0.5014  0.3157 -0.1467
  513MOL0     C69136   8.886   5.696  11.050  0.1549  0.3975  0.0248
  513MOL0     N69137   8.980   5.601  10.979 -1.1064 -1.3508 -0.3819
  513MOL0     C69138   9.077   5.634  10.893 -0.2214 -0.3199 -0.3100
  513MOL0     C69139   9.114   5.509  10.839 -0.4614  0.5288 -0.4558
  513MOL0     C69140   9.214   5.504  10.725  0.4720  0.7475 -0.2729
  513MOL0     C69141   9.340   5.573  10.763 -0.0218  0.5401 -0.5961
  513MOL0     C69142   9.395   5.543  10.903  0.1632  0.2235  0.7131
  513MOL0     C69143   9.498   5.645  10.938  0.1634  0.2555 -0.3476
  513MOL0     O69144   9.615   5.614  10.853 -0.1211 -0.5690  0.0228
  513MOL0     C69145   9.737   5.665  10.882  0.9069 -0.5095 -0.5402
  513MOL0     C69146   9.763   5.769  10.972 -0.4957 -0.4813 -0.1838
  513MOL0     C69147   9.898   5.814  10.984  0.1099 -0.1837  0.4265
  513MOL0     C69148  10.010   5.742  10.928  0.1159  0.1451  0.0360
  513MOL0     C69149  10.150   5.779  10.955 -0.0466  0.1058  0.0689
  513MOL0     O69150  10.164   5.884  11.037 -0.1874  0.0428 -0.2344
  513MOL0     C69151  10.278   5.956  11.040  0.8625 -0.7106  0.1575
  513MOL0     C69152  10.375   5.942  11.138 -0.0739 -0.3522  0.6022
  513MOL0     C69153  10.491   6.025  11.136 -0.4056  0.5652 -0.9305
  513MOL0     C69154  10.506   6.125  11.037 -0.3803  0.4144  0.1723
  513MOL0     O69155  10.623   6.207  11.037  0.2299  0.0818  0.1443
  513MOL0     C69156  10.637   6.323  10.958  0.8194 -0.6463  0.5615
  513MOL0     C69157  10.780   6.387  10.957 -0.5550 -0.6137  0.2573
  513MOL0     C69158  10.882   6.331  10.850  0.4858  0.2948 -0.0193
  513MOL0     C69159  11.025   6.388  10.868  0.5633 -0.0299 -0.1891
  513MOL0     C69160  11.122   6.301  10.776  0.6665 -0.4880  0.4148
  513MOL0     C69161  11.263   6.353  10.792 -0.5845 -0.2045  0.6949
  513MOL0     C69162  11.324   6.379  10.647 -0.3024 -0.0329 -0.1174
  513MOL0     C69163  11.480   6.401  10.655  1.2408  0.6662  0.1800
  513MOL0    Cl69164  11.537   6.252  10.718  0.6980  0.1792  0.1552
  513MOL0     C69165  10.390   6.147  10.952 -0.1608 -0.1729 -0.0136
  513MOL0     C69166  10.279   6.063  10.956 -0.9218 -0.3567  0.0261
  513MOL0     O69167  10.235   5.728  10.886 -0.3948 -0.1068 -0.1062
  513MOL0     C69168   9.977   5.646  10.838  0.0282  0.1215  0.0324
  513MOL0     C69169   9.845   5.607  10.821  0.3659  0.0450  0.3512
  513MOL0     N69170   9.032   5.408  10.888 -0.2050 -1.0611  0.3368
  513MOL0     N69171   8.963   5.463  10.978  0.3886 -0.2028 -0.2565
  513MOL0     C69172   8.060   6.354  10.886  0.1442 -0.5096  0.1341
  513MOL0     C69173   7.932   6.365  10.824 -0.7345 -0.9003  0.6733
  513MOL0     C69174   7.631   6.476  10.482  0.0620 -0.0827  0.0910
  513MOL0     C69175   7.516   6.467  10.559  0.0277 -0.4646 -0.0537
  513MOL0     C69176   7.392   6.463  10.501  0.0936 -1.2593  0.4238
  513MOL0     C69177   7.380   6.452  10.359  0.3800 -0.4685  0.0452
  513MOL0     O69178   7.265   6.457  10.283 -0.0943  0.1331  0.2177
  513MOL0     C69179   7.224   6.325  10.225  0.6597  0.2582  0.4646
  513MOL0     C69180   7.146   6.242  10.320 -1.2795  0.2781  1.0670
  513MOL0     C69181   7.085   6.120  10.253  0.5136  0.8266 -0.1817
  513MOL0     C69182   6.952   6.107  10.320  0.5301  0.3617  0.5317
  513MOL0     C69183   6.896   5.988  10.258 -0.5239 -0.8020  0.4647
  513MOL0     C69184   6.873   5.879  10.210 -0.1645 -0.2321 -0.3480
  513MOL0     C69185   7.497   6.447  10.281  0.6925  0.7878  0.4370
  513MOL0     C69186   7.622   6.460  10.343 -0.4405 -0.5235 -0.4456
  513MOL0     C69187   7.741   6.484  10.253  0.2439  0.3097 -0.1140
  513MOL0     H69188   8.035   6.440  10.512 -1.2909  0.6536  1.0351
  513MOL0     H69189   8.237   6.393  10.603 -0.4102 -1.9668 -0.0298
  513MOL0     H69190   8.276   6.356  11.044 -2.4998 -0.5955 -1.1538
  513MOL0     H69191   8.291   6.195  10.991  0.9076 -0.1694  0.2387
  513MOL0     H69192   8.499   6.275  11.104 -1.9810  2.7897  0.4845
  513MOL0     H69193   8.537   6.387  10.980  2.1610 -2.7074 -0.9386
  513MOL0     H69194   8.658   6.236  10.888  0.0742  2.4853  3.5443
  513MOL0     H69195   8.515   6.215  10.803  1.1636 -0.3212 -0.2672
  513MOL0     H69196   8.555   6.070  11.077 -1.7505 -1.2557  0.1569
  513MOL0     H69197   8.454   6.012  10.946 -0.4467 -0.4962  3.6242
  513MOL0     H69198   8.620   5.915  10.832 -1.2689 -2.0178  0.4893
  513MOL0     H69199   8.751   6.026  10.875 -1.1285  0.5852  0.4038
  513MOL0     H69200   8.758   5.955  11.109  1.4301  0.0552  0.1415
  513MOL0     H69201   8.652   5.819  11.065  0.0418  1.9307  2.8599
  513MOL0     H69202   8.934   5.875  10.960  2.7664 -2.6220 -0.2929
  513MOL0     H69203   8.822   5.775  10.864 -3.1412  0.2281  0.5747
  513MOL0     H69204   8.939   5.749  11.129  2.1336 -0.1533 -0.8694
  513MOL0     H69205   8.800   5.643  11.092  0.4864 -0.7326 -0.6675
  513MOL0     H69206   9.095   5.737  10.867 -2.8842  0.6990  1.4410
  513MOL0     H69207   9.242   5.400  10.708 -2.2543 -0.1732  0.3090
  513MOL0     H69208   9.165   5.542  10.634 -1.2535 -1.0279 -0.1744
  513MOL0     H69209   9.411   5.551  10.683  1.3698 -0.1110  0.7673
  513MOL0     H69210   9.311   5.678  10.776 -3.6191 -0.3385 -0.7279
  513MOL0     H69211   9.444   5.446  10.900 -0.2822  0.0082  0.2394
  513MOL0     H69212   9.319   5.532  10.981  0.8758 -1.5441  1.2006
  513MOL0     H69213   9.523   5.610  11.039 -0.8584 -0.7975 -0.4406
  513MOL0     H69214   9.471   5.751  10.926  1.0608  0.3080 -2.3233
  513MOL0     H69215   9.682   5.826  11.017 -0.0246  0.5779 -0.6339
  513MOL0     H69216   9.915   5.904  11.043  0.0277  0.6274 -0.7474
  513MOL0     H69217  10.364   5.880  11.227 -4.3177 -1.4226 -0.4450
  513MOL0     H69218  10.571   6.001  11.205  0.1905 -1.4251 -2.2362
  513MOL0     H69219  10.607   6.311  10.853 -0.0626 -0.5790  0.8016
  513MOL0     H69220  10.566   6.397  10.995  0.1225 -0.1916 -1.5209
  513MOL0     H69221  10.763   6.494  10.939 -0.0647 -0.3163  1.4806
  513MOL0     H69222  10.810   6.377  11.061  0.0143 -0.0595  0.1500
  513MOL0     H69223  10.885   6.224  10.872  1.1015  0.3899  0.3768
  513MOL0     H69224  10.847   6.349  10.748  2.9125  0.9800 -0.7834
  513MOL0     H69225  11.064   6.377  10.970  0.3390 -2.3300 -0.3120
  513MOL0     H69226  11.031   6.492  10.836 -0.1913  0.2778  0.6136
  513MOL0     H69227  11.080   6.310  10.676 -1.6948  1.7743  1.4790
  513MOL0     H69228  11.120   6.198  10.814  1.0147 -0.5103  0.3746
  513MOL0     H69229  11.250   6.450  10.839 -4.6646 -0.2287 -0.0091
  513MOL0     H69230  11.330   6.288  10.848 -1.4492 -0.2822  1.6640
  513MOL0     H69231  11.281   6.477  10.621 -0.1044 -0.0426 -0.4893
  513MOL0     H69232  11.286   6.314  10.567 -4.1947  1.2970  0.4561
  513MOL0     H69233  11.522   6.426  10.557 -0.0596  0.6773 -0.3973
  513MOL0     H69234  11.502   6.482  10.725  0.6791 -1.8167  3.4775
  513MOL0     H69235  10.403   6.232  10.887  2.8953  0.6648  1.5007
  513MOL0     H69236  10.205   6.064  10.876 -0.2655 -3.8855 -0.7882
  513MOL0     H69237  10.043   5.587  10.775 -0.8948  0.2439 -1.0780
  513MOL0     H69238   9.825   5.521  10.757  1.9531 -1.2331  1.4753
  513MOL0     H69239   8.043   6.355  10.994 -2.8155 -1.3633 -0.2199
  513MOL0     H69240   7.848   6.387  10.889 -0.6969  1.1657  0.1099
  513MOL0     H69241   7.528   6.471  10.667 -0.7603  3.5705  0.0301
  513MOL0     H69242   7.297   6.462  10.554  0.6016  0.1111  1.4148
  513MOL0     H69243   7.311   6.267  10.192  0.0202 -0.5350  0.1296
  513MOL0     H69244   7.167   6.341  10.132 -0.4585 -0.5316  0.9962
  513MOL0     H69245   7.076   6.303  10.377 -0.1947  2.3141  0.3328
  513MOL0     H69246   7.224   6.201  10.386 -1.7819  0.9792  2.1160
  513MOL0     H69247   7.149   6.031  10.257 -1.7853 -1.2545 -3.9689
  513MOL0     H69248   7.067   6.127  10.145 -0.8685 -2.0417 -0.2285
  513MOL0     H69249   6.972   6.094  10.427  1.6418 -0.0742  0.2952
  513MOL0     H69250   6.887   6.193  10.304 -0.3595  0.1545  2.6724
  513MOL0     H69251   6.846   5.784  10.168  0.7998  0.7054 -3.3623
  513MOL0     H69252   7.488   6.432  10.173  0.4160 -1.9503  0.7677
  513MOL0     H69253   7.720   6.478  10.146 -2.2714 -2.0301  0.3943
  513MOL0     H69254   7.774   6.586  10.275  1.1473 -0.0937  0.4664
  513MOL0     H69255   7.828   6.424  10.279  0.7363  1.0761  0.0392
  514MOL0     O69256   9.480   4.900   3.859  0.1869  0.7432  0.2080
  514MOL0     C69257   9.457   4.784   3.819 -0.1468 -0.8004  0.2056
  514MOL0     O69258   9.528   4.722   3.721  0.2661 -0.1032  0.0825
  514MOL0     C69259   9.642   4.776   3.669 -1.3493  0.3157  0.2588
  514MOL0     C69260   9.649   4.903   3.597  0.6900  0.3192  1.1763
  514MOL0     C69261   9.764   4.946   3.550  0.1532 -0.1651  0.8275
  514MOL0     C69262   9.881   4.885   3.583  0.4111  0.1489  0.0569
  514MOL0     O69263  10.002   4.943   3.547  0.3455  0.7500 -0.2493
  514MOL0     C69264  10.112   4.903   3.634  0.2193 -0.5820 -0.0266
  514MOL0     C69265  10.220   5.006   3.626 -0.2296  1.4590 -0.0739
  514MOL0     C69266  10.335   4.942   3.698 -1.4136 -0.2047 -0.0533
  514MOL0     C69267  10.450   5.039   3.725  1.0409 -0.4760 -0.5529
  514MOL0     C69268  10.545   4.988   3.837 -0.3626 -1.2035 -0.2655
  514MOL0     C69269  10.662   5.088   3.863 -0.1194 -0.3095 -0.4804
  514MOL0     C69270  10.776   5.034   3.950 -0.1762 -0.0425  0.3842
  514MOL0     C69271  10.887   5.143   3.951  0.3273 -0.1811 -0.4493
  514MOL0     N69272  10.931   5.183   3.817 -0.7125 -0.2001  0.1483
  514MOL0     C69273  11.004   5.104   3.733  0.2914 -0.1016 -0.2120
  514MOL0     C69274  11.021   5.176   3.621 -0.3324 -0.2309 -0.1405
  514MOL0     C69275  11.104   5.163   3.496 -0.0357  0.9672 -0.3263
  514MOL0     C69276  11.243   5.234   3.503 -0.2978 -0.4327  1.1141
  514MOL0     C69277  11.320   5.237   3.372 -1.1243  0.1208 -0.4513
  514MOL0     C69278  11.458   5.285   3.408 -0.2380 -0.5840  0.0622
  514MOL0     O69279  11.530   5.189   3.483 -0.2606 -0.1224 -0.3356
  514MOL0     C69280  11.656   5.222   3.533  0.7670 -0.0571 -1.1470
  514MOL0     C69281  11.707   5.353   3.560  0.1439  0.0618  0.4679
  514MOL0     C69282  11.813   5.379   3.632  0.9802  0.4329 -0.2478
  514MOL0     C69283  11.902   5.276   3.668 -0.5186 -0.1798  0.2071
  514MOL0     C69284  12.030   5.301   3.729 -1.0239 -0.3317 -0.5025
  514MOL0     O69285  12.112   5.191   3.756 -0.8316  0.7772  0.5792
  514MOL0     C69286  12.243   5.190   3.803 -0.1544 -0.4441  0.7796
  514MOL0     C69287  12.295   5.078   3.866  0.1588 -0.3985  0.6875
  514MOL0     C69288  12.422   5.069   3.924 -0.6581  0.7646  0.4827
  514MOL0     C69289  12.511   5.174   3.887  0.2733 -0.0459 -0.3089
  514MOL0     O69290  12.647   5.171   3.916 -0.6518  0.3938 -0.4001
  514MOL0     C69291  12.696   5.060   4.000 -0.3374  0.4996  1.3895
  514MOL0     C69292  12.845   5.077   4.031 -0.9941 -0.2655  0.5794
  514MOL0     C69293  12.935   5.180   3.961  0.3480 -0.2820  0.1751
  514MOL0     C69294  13.061   5.203   4.046 -0.6874 -0.3970 -0.5179
  514MOL0     C69295  13.148   5.316   3.995 -0.0016  1.0057  0.4170
  514MOL0     C69296  13.301   5.290   4.013 -0.3426  0.6526 -0.2504
  514MOL0     C69297  13.377   5.418   3.974 -0.3349 -0.7888  0.9422
  514MOL0     C69298  13.530   5.403   3.981 -0.1379 -0.0913 -0.3187
  514MOL0    Cl69299  13.612   5.543   3.884  0.4366  0.8042 -0.2171
  514MOL0     C69300  12.472   5.281   3.812 -1.2061  0.4775 -0.3818
  514MOL0     C69301  12.335   5.296   3.775 -0.1751  0.5612 -0.2322
  514MOL0     O69302  12.055   5.414   3.755 -0.2622 -0.6102  0.3806
  514MOL0     C69303  11.862   5.140   3.630 -0.1412 -0.3114 -0.5303
  514MOL0     C69304  11.736   5.118   3.572 -0.0626  0.2183 -0.2174
  514MOL0     N69305  10.963   5.298   3.634  0.2697  0.2247 -1.2098
  514MOL0     N69306  10.918   5.304   3.757  0.1830 -0.2327 -0.0472
  514MOL0     C69307   9.882   4.762   3.652  0.3683 -0.3848 -0.6182
  514MOL0     C69308   9.760   4.709   3.688 -0.5200 -0.8344 -0.7335
  514MOL0     C69309   9.343   4.721   3.876  0.3825 -0.2145  0.3926
  514MOL0     C69310   9.228   4.794   3.906 -0.2491 -0.5988 -0.4041
  514MOL0     C69311   9.108   4.734   3.955  0.3521  0.4829 -0.0306
  514MOL0     C69312   9.106   4.602   3.986  0.5945  0.4155 -0.7651
  514MOL0     O69313   8.988   4.562   4.044  0.2418  0.0389 -0.1416
  514MOL0     C69314   8.990   4.508   4.178  0.3831 -0.3533 -0.1830
  514MOL0     C69315   8.906   4.606   4.269 -0.3364 -0.2302  1.0741
  514MOL0     C69316   8.976   4.743   4.296  0.5667 -0.3073  0.3625
  514MOL0     C69317   8.895   4.853   4.366 -0.4686 -0.8723 -0.3076
  514MOL0     C69318   8.870   4.825   4.511  0.1704  0.1359 -0.2257
  514MOL0     C69319   8.842   4.810   4.630  0.2380 -1.1239 -0.0175
  514MOL0     C69320   9.228   4.529   3.980 -0.2255 -0.5101 -0.3657
  514MOL0     C69321   9.336   4.581   3.902 -0.0225  1.3396 -1.0435
  514MOL0     C69322   9.458   4.485   3.880  0.0702 -0.6407  0.7298
  514MOL0     H69323   9.564   4.968   3.580 -1.0623 -1.3538  3.0723
  514MOL0     H69324   9.762   5.033   3.486  0.8593 -0.8075 -0.0856
  514MOL0     H69325  10.080   4.887   3.737  1.0302 -2.3453 -0.0108
  514MOL0     H69326  10.159   4.811   3.599  0.7474 -1.1973  2.1356
  514MOL0     H69327  10.198   5.105   3.667 -1.7713  0.9421  0.4239
  514MOL0     H69328  10.244   5.022   3.521 -1.1016 -1.5851 -0.8226
  514MOL0     H69329  10.388   4.861   3.647 -0.8573  0.0371  0.1431
  514MOL0     H69330  10.305   4.902   3.796 -0.3856 -2.1382 -0.4761
  514MOL0     H69331  10.495   5.060   3.627 -0.9883 -3.5056 -2.2844
  514MOL0     H69332  10.407   5.132   3.763 -3.2261 -2.6600  0.5734
  514MOL0     H69333  10.502   4.973   3.936  0.9012  1.2132  0.7365
  514MOL0     H69334  10.599   4.903   3.793  2.2363  1.2012 -2.1231
  514MOL0     H69335  10.710   5.117   3.769 -0.9100 -1.0807 -1.1400
  514MOL0     H69336  10.617   5.178   3.906 -0.9886  0.4021 -2.7106
  514MOL0     H69337  10.812   4.941   3.905  2.7809  2.1728 -2.3283
  514MOL0     H69338  10.756   5.008   4.054  0.6493  2.4320  1.2313
  514MOL0     H69339  10.846   5.228   4.006 -1.1099 -3.1073  3.4926
  514MOL0     H69340  10.974   5.105   4.006  0.1974 -0.3163 -0.3342
  514MOL0     H69341  11.060   5.014   3.758  0.3813 -1.5620 -4.7125
  514MOL0     H69342  11.123   5.056   3.479  0.9325  1.3365 -1.7773
  514MOL0     H69343  11.045   5.206   3.415 -1.8687 -1.1946 -0.2415
  514MOL0     H69344  11.224   5.339   3.529 -5.8702 -0.1382 -2.5305
  514MOL0     H69345  11.306   5.190   3.581  4.3916  1.8871 -0.9719
  514MOL0     H69346  11.278   5.311   3.303  1.0154 -0.3769 -2.4521
  514MOL0     H69347  11.331   5.134   3.335  0.7702 -0.3760  1.3239
  514MOL0     H69348  11.457   5.381   3.460 -0.5169  0.3771 -1.6420
  514MOL0     H69349  11.513   5.303   3.314 -1.5921  3.9783 -0.0809
  514MOL0     H69350  11.657   5.446   3.532 -0.3230  0.3523  2.1577
  514MOL0     H69351  11.823   5.484   3.656 -1.3566  0.7958 -0.6105
  514MOL0     H69352  12.245   4.982   3.852  0.8882 -0.5881 -0.8170
  514MOL0     H69353  12.448   4.977   3.974 -2.3086  0.2256  0.4272
  514MOL0     H69354  12.642   5.060   4.095  1.3314  1.5745  2.3881
  514MOL0     H69355  12.689   4.969   3.940  2.3559  0.8080  0.4644
  514MOL0     H69356  12.849   5.102   4.137 -1.3118  2.8827 -0.0511
  514MOL0     H69357  12.889   4.977   4.029 -2.0790 -0.7713  1.0742
  514MOL0     H69358  12.965   5.148   3.861  0.0610 -0.3121  0.0957
  514MOL0     H69359  12.885   5.276   3.944 -3.0036 -1.8971 -0.0921
  514MOL0     H69360  13.125   5.115   4.037  1.0077  0.9501 -2.8206
  514MOL0     H69361  13.037   5.219   4.151 -1.0153  0.6294 -0.7351
  514MOL0     H69362  13.112   5.407   4.044 -1.3198  0.9525 -0.4112
  514MOL0     H69363  13.133   5.326   3.887  0.5798 -0.8489  0.1254
  514MOL0     H69364  13.305   5.272   4.120 -0.7204  5.5426  0.8410
  514MOL0     H69365  13.331   5.201   3.957 -3.7995 -1.7399  1.3752
  514MOL0     H69366  13.351   5.503   4.038 -1.5818 -1.1858  0.9941
  514MOL0     H69367  13.358   5.451   3.872 -0.2045  2.0427  1.7552
  514MOL0     H69368  13.564   5.408   4.085  2.5852  0.2816 -1.1659
  514MOL0     H69369  13.547   5.301   3.948 -1.5769 -0.7616  0.8530
  514MOL0     H69370  12.533   5.368   3.790  0.7913 -0.9573 -0.7385
  514MOL0     H69371  12.314   5.371   3.700 -2.1348  0.3426  0.0412
  514MOL0     H69372  11.924   5.053   3.643  0.2708 -1.1674 -6.0085
  514MOL0     H69373  11.708   5.014   3.558  2.7575 -0.8546  1.3783
  514MOL0     H69374   9.971   4.707   3.679 -0.2101  0.6212  4.1230
  514MOL0     H69375   9.748   4.615   3.740  0.7546 -0.7343 -0.2337
  514MOL0     H69376   9.224   4.890   3.857 -1.9829 -2.7582 -5.1267
  514MOL0     H69377   9.020   4.789   3.989 -1.6933 -3.1366  1.0912
  514MOL0     H69378   9.091   4.498   4.217  0.4497 -2.2219 -0.7511
  514MOL0     H69379   8.956   4.404   4.179  2.0008 -0.9003 -0.3310
  514MOL0     H69380   8.882   4.562   4.366 -0.9867  0.8436  1.4109
  514MOL0     H69381   8.815   4.618   4.209 -0.2835 -2.7057  0.3908
  514MOL0     H69382   9.011   4.785   4.201 -1.7372 -0.4548 -0.6279
  514MOL0     H69383   9.063   4.731   4.361  0.3815 -3.6958  0.1663
  514MOL0     H69384   8.954   4.945   4.363 -1.6709  0.0274  1.4967
  514MOL0     H69385   8.803   4.874   4.312  0.1671 -1.9063 -1.8911
  514MOL0     H69386   8.840   4.792   4.736 -2.2415 -2.9774 -0.2932
  514MOL0     H69387   9.238   4.424   4.004 -0.1790  0.3394  4.1715
  514MOL0     H69388   9.449   4.442   3.779 -2.0288  3.7729 -1.2733
  514MOL0     H69389   9.555   4.535   3.883  0.2459 -1.0490  2.4814
  514MOL0     H69390   9.458   4.405   3.954  3.0606 -1.0727  0.3582
  515MOL0     O69391   7.689  10.847   1.441 -0.0659  1.0166  0.0159
  515MOL0     C69392   7.637  10.929   1.368 -0.1668  0.0435  0.2602
  515MOL0     O69393   7.651  11.062   1.372  0.0915  0.9104 -0.1360
  515MOL0     C69394   7.720  11.109   1.482 -0.7282  0.0785  0.1350
  515MOL0     C69395   7.655  11.120   1.604 -0.3967  0.0334  0.3312
  515MOL0     C69396   7.727  11.169   1.717  0.5431  0.4475 -0.0675
  515MOL0     C69397   7.862  11.188   1.715 -0.6832  0.6591  0.3968
  515MOL0     O69398   7.936  11.228   1.829  0.0845  0.3451  0.4490
  515MOL0     C69399   7.866  11.182   1.950  0.9075  0.0405  0.6684
  515MOL0     C69400   7.955  11.201   2.073 -0.8323  0.6425  0.5281
  515MOL0     C69401   8.093  11.134   2.057  0.3321 -0.5758  0.9649
  515MOL0     C69402   8.091  10.989   2.079  0.0531 -0.0204  0.4783
  515MOL0     C69403   8.221  10.918   2.030  0.3716  0.2877  0.5459
  515MOL0     C69404   8.243  10.909   1.882  0.6053 -0.4125 -0.0443
  515MOL0     C69405   8.355  10.805   1.862 -0.1605  0.1671 -0.4742
  515MOL0     C69406   8.415  10.807   1.722  0.9835  0.3640  0.7743
  515MOL0     N69407   8.513  10.908   1.710  0.0358  0.3933  1.1649
  515MOL0     C69408   8.506  11.044   1.708  1.2875  0.1851  0.0626
  515MOL0     C69409   8.631  11.087   1.682 -0.1056 -0.6329 -0.3754
  515MOL0     C69410   8.698  11.220   1.668 -0.5637 -0.4738  0.9865
  515MOL0     C69411   8.629  11.320   1.566  0.3994  0.3804 -0.4286
  515MOL0     C69412   8.681  11.464   1.588 -0.1683  0.6336 -0.2159
  515MOL0     C69413   8.618  11.557   1.483  0.2257 -0.0035  0.6936
  515MOL0     O69414   8.676  11.688   1.471  0.9276 -0.4468 -0.0609
  515MOL0     C69415   8.617  11.785   1.550  0.0256 -0.6663  0.1961
  515MOL0     C69416   8.554  11.762   1.669 -0.5117  0.3486 -0.6161
  515MOL0     C69417   8.511  11.867   1.751  0.0189 -0.4022 -0.1354
  515MOL0     C69418   8.544  12.004   1.720  0.3321  0.0951  0.1747
  515MOL0     C69419   8.506  12.116   1.806 -0.5856  0.3553 -0.2865
  515MOL0     O69420   8.422  12.087   1.905 -0.0105  0.2131 -0.1119
  515MOL0     C69421   8.378  12.181   1.993  0.3892 -0.1141 -0.0856
  515MOL0     C69422   8.257  12.240   1.955 -0.2867 -0.1217 -0.4192
  515MOL0     C69423   8.182  12.325   2.040  0.5880 -0.1169 -0.1096
  515MOL0     C69424   8.223  12.353   2.170 -0.1089  0.0467  0.4127
  515MOL0     O69425   8.151  12.437   2.260 -0.0554  0.2344  0.2578
  515MOL0     C69426   8.007  12.444   2.254 -0.8863 -0.5532 -0.5003
  515MOL0     C69427   7.951  12.475   2.390 -0.1086  0.5752 -0.1341
  515MOL0     C69428   7.996  12.609   2.455  0.3152 -0.0812 -0.3241
  515MOL0     C69429   7.996  12.595   2.609 -0.7819 -1.3889 -0.6178
  515MOL0     C69430   7.864  12.646   2.677  0.5312 -0.0466  0.0402
  515MOL0     C69431   7.865  12.631   2.830 -0.6899 -0.3292  0.1313
  515MOL0     C69432   7.914  12.764   2.903 -0.1847 -0.1459  0.5122
  515MOL0     C69433   7.803  12.871   2.940 -0.0169  0.8132 -0.5647
  515MOL0    Cl69434   7.663  12.793   3.028 -0.3791 -0.4824 -0.1373
  515MOL0     C69435   8.350  12.302   2.207  0.3168  0.1465  0.5212
  515MOL0     C69436   8.421  12.213   2.123 -0.6515 -0.5000  0.1317
  515MOL0     O69437   8.558  12.220   1.790  0.8039  0.3854 -0.0198
  515MOL0     C69438   8.600  12.015   1.591 -0.1295 -0.7081 -0.0602
  515MOL0     C69439   8.636  11.918   1.508 -0.9143  0.3269 -0.4278
  515MOL0     N69440   8.706  10.972   1.660 -0.1888  0.5426 -0.2098
  515MOL0     N69441   8.639  10.871   1.681  0.6761  0.1230 -0.3386
  515MOL0     C69442   7.931  11.165   1.595  0.4207 -0.8964  0.1472
  515MOL0     C69443   7.863  11.128   1.482 -0.3656 -0.4647  0.4710
  515MOL0     C69444   7.550  10.867   1.264  0.0810  0.1326  0.1732
  515MOL0     C69445   7.439  10.934   1.220  0.4373  0.8542 -0.5442
  515MOL0     C69446   7.345  10.901   1.126 -0.2218  0.0971 -0.5525
  515MOL0     C69447   7.359  10.777   1.070 -0.0294  0.0823  0.0032
  515MOL0     O69448   7.271  10.705   0.995  0.3456  0.0310 -0.5863
  515MOL0     C69449   7.166  10.778   0.933  0.0525  1.4469  0.0018
  515MOL0     C69450   7.055  10.674   0.914  0.4267 -0.3311 -0.2201
  515MOL0     C69451   6.930  10.730   0.844  0.2623  0.3207 -0.6427
  515MOL0     C69452   6.805  10.640   0.874  0.7321 -0.3135 -0.2612
  515MOL0     C69453   6.687  10.692   0.805  0.6641  0.2433 -0.2241
  515MOL0     C69454   6.595  10.756   0.755 -0.4763  0.8752 -0.1544
  515MOL0     C69455   7.469  10.706   1.106 -0.8614 -0.6366 -1.0223
  515MOL0     C69456   7.567  10.741   1.196 -0.0547  1.0686 -0.2896
  515MOL0     C69457   7.654  10.622   1.242 -0.0175  0.5009 -0.0258
  515MOL0     H69458   7.549  11.103   1.594 -0.4283  0.6853 -0.5839
  515MOL0     H69459   7.666  11.177   1.806  0.5347 -0.5171  0.0239
  515MOL0     H69460   7.772  11.232   1.970  1.7414  1.2819  1.6402
  515MOL0     H69461   7.842  11.075   1.939  1.6008 -0.0838  0.2896
  515MOL0     H69462   7.906  11.171   2.166 -0.7868  0.2660  0.4334
  515MOL0     H69463   7.978  11.306   2.092  2.0508 -0.1028  1.7176
  515MOL0     H69464   8.167  11.181   2.123 -1.1214 -0.7842  2.8036
  515MOL0     H69465   8.135  11.161   1.960 -0.5888  1.6512  1.1284
  515MOL0     H69466   8.070  10.966   2.184 -1.4143 -1.3770 -0.0686
  515MOL0     H69467   8.006  10.946   2.026  1.9384 -0.7992 -2.1074
  515MOL0     H69468   8.306  10.976   2.067  1.5868 -0.8915 -0.3001
  515MOL0     H69469   8.213  10.813   2.062  0.7043  0.1849  0.3024
  515MOL0     H69470   8.152  10.892   1.824 -0.0406 -1.4719  1.2263
  515MOL0     H69471   8.291  11.003   1.853  1.5736 -0.3231  1.6778
  515MOL0     H69472   8.310  10.710   1.892 -3.7605  2.7016  3.2458
  515MOL0     H69473   8.435  10.823   1.933  0.3968 -4.8741  0.5828
  515MOL0     H69474   8.477  10.717   1.714 -1.0827 -1.0511 -0.1052
  515MOL0     H69475   8.329  10.800   1.655  1.1203  2.4172  0.3195
  515MOL0     H69476   8.413  11.096   1.725  1.5602 -0.3298  3.9931
  515MOL0     H69477   8.698  11.255   1.772  0.0147  0.6615  0.6217
  515MOL0     H69478   8.793  11.206   1.616 -1.4584 -0.7708 -0.6245
  515MOL0     H69479   8.663  11.287   1.467  0.9645  0.7783 -0.3714
  515MOL0     H69480   8.520  11.324   1.575  0.3429 -1.3476  0.1386
  515MOL0     H69481   8.785  11.450   1.556 -0.1564 -0.7700  0.3754
  515MOL0     H69482   8.674  11.500   1.691 -1.0658 -0.3983  0.0957
  515MOL0     H69483   8.509  11.567   1.471  0.2800 -0.6529 -0.4690
  515MOL0     H69484   8.636  11.507   1.388 -3.2198  0.1145 -0.1764
  515MOL0     H69485   8.528  11.667   1.715 -0.4231 -0.3634 -1.9883
  515MOL0     H69486   8.464  11.843   1.846 -1.9477 -1.9577 -1.4198
  515MOL0     H69487   8.216  12.212   1.858  1.1041 -3.0921 -0.2618
  515MOL0     H69488   8.095  12.368   1.991  0.8791  0.7072  0.0772
  515MOL0     H69489   7.976  12.530   2.194  2.6964  1.1991 -0.1173
  515MOL0     H69490   7.969  12.347   2.223 -0.2382 -1.5812  1.7377
  515MOL0     H69491   7.842  12.473   2.392 -0.1330  1.6807  0.9828
  515MOL0     H69492   7.986  12.385   2.441 -0.5986 -0.2780 -1.2694
  515MOL0     H69493   8.098  12.614   2.415  0.5314  1.8859  0.3496
  515MOL0     H69494   7.931  12.692   2.425 -0.7580 -0.0940  1.8029
  515MOL0     H69495   8.068  12.670   2.644 -1.9726 -1.8079  3.1930
  515MOL0     H69496   8.033  12.499   2.645 -0.3947 -0.6678  1.0057
  515MOL0     H69497   7.784  12.587   2.629 -1.1079  1.5446  0.6944
  515MOL0     H69498   7.841  12.751   2.655 -0.8511  0.2717  2.5883
  515MOL0     H69499   7.767  12.598   2.867  0.6092 -2.2478  2.0974
  515MOL0     H69500   7.936  12.551   2.849  1.8175  1.9667  1.0804
  515MOL0     H69501   7.992  12.812   2.843 -1.2050 -0.9212 -1.5234
  515MOL0     H69502   7.968  12.733   2.993 -1.2273  0.4635  1.3718
  515MOL0     H69503   7.836  12.960   2.993 -1.6291  2.0012 -1.4621
  515MOL0     H69504   7.766  12.904   2.842 -2.5722  1.2461  0.4602
  515MOL0     H69505   8.370  12.325   2.311  0.5681  0.6552  0.3637
  515MOL0     H69506   8.518  12.179   2.158  0.7093  0.4308 -2.4678
  515MOL0     H69507   8.613  12.118   1.558 -0.7455 -1.0317 -1.3793
  515MOL0     H69508   8.670  11.928   1.405  0.8795 -3.0478 -0.3160
  515MOL0     H69509   8.038  11.181   1.595  0.4142 -0.7509  1.6383
  515MOL0     H69510   7.908  11.108   1.385  0.7897 -2.5284  1.3719
  515MOL0     H69511   7.417  11.022   1.280  1.8253  0.3434  0.8020
  515MOL0     H69512   7.267  10.976   1.113  1.4805  1.6560 -2.5532
  515MOL0     H69513   7.209  10.811   0.838 -0.8668  2.4712 -0.0823
  515MOL0     H69514   7.127  10.865   0.987 -0.5637  0.7246  0.7565
  515MOL0     H69515   7.020  10.645   1.013  1.1459  2.0342  0.8136
  515MOL0     H69516   7.099  10.593   0.855  0.2379 -1.2312  0.8491
  515MOL0     H69517   6.945  10.749   0.738  1.1483  0.6568 -0.4746
  515MOL0     H69518   6.894  10.830   0.872 -3.7969 -1.3440  0.7783
  515MOL0     H69519   6.837  10.544   0.833 -0.5177 -0.0498 -1.9511
  515MOL0     H69520   6.773  10.635   0.979  2.4535  1.7679  0.4306
  515MOL0     H69521   6.522  10.822   0.712 -3.9981 -0.7890  2.7069
  515MOL0     H69522   7.478  10.600   1.080  2.7440 -1.1647  1.5591
  515MOL0     H69523   7.742  10.605   1.180  0.7294 -0.2705  1.1973
  515MOL0     H69524   7.700  10.647   1.339  0.5791 -1.4197  0.2169
  515MOL0     H69525   7.602  10.526   1.245  0.1616  0.3593 -1.1618
  516MOL0     O69526  10.896   9.779   0.074  0.0042  0.6766  0.4049
  516MOL0     C69527  10.852   9.667   0.040  0.1009  0.1552 -1.3146
  516MOL0     O69528  10.930   9.553   0.025  0.0935  0.1121 -0.3140
  516MOL0     C69529  11.070   9.566   0.034  0.8427 -0.7458  0.2507
  516MOL0     C69530  11.152   9.551  -0.080 -0.3223  0.3075  0.0112
  516MOL0     C69531  11.289   9.586  -0.068  0.7766  0.1875 -0.2219
  516MOL0     C69532  11.347   9.636   0.047  0.6388 -0.2844 -0.0075
  516MOL0     O69533  11.470   9.684   0.067 -0.7575  0.1503  0.5155
  516MOL0     C69534  11.527   9.744  -0.054  0.4991  0.3607 -0.7086
  516MOL0     C69535  11.643   9.666  -0.108 -0.4714  0.4513 -0.3357
  516MOL0     C69536  11.731   9.760  -0.204  0.2860  0.0692  0.0115
  516MOL0     C69537  11.641   9.821  -0.316  0.2548  0.1393  0.0408
  516MOL0     C69538  11.726   9.906  -0.413 -0.0904 -0.1788  0.4698
  516MOL0     C69539  11.644   9.927  -0.538 -0.8148  0.8721 -0.5928
  516MOL0     C69540  11.732   9.940  -0.653 -0.9396 -0.0555 -0.8344
  516MOL0     C69541  11.656   9.991  -0.778  0.5876 -0.4071 -0.0544
  516MOL0     N69542  11.747   9.986  -0.887 -0.1402 -0.0122  0.2147
  516MOL0     C69543  11.792  10.094  -0.967  0.2216  0.7021  0.9182
  516MOL0     C69544  11.850  10.027  -1.071 -0.3011  0.7547 -0.3355
  516MOL0     C69545  11.942  10.086  -1.167 -0.0597  0.9406 -0.7270
  516MOL0     C69546  11.872  10.152  -1.274  0.4961  0.0559 -0.3349
  516MOL0     C69547  11.942  10.240  -1.373 -0.4885  0.1061  0.6660
  516MOL0     C69548  12.071  10.179  -1.439  1.0514 -1.0173  0.6507
  516MOL0     O69549  12.140  10.268  -1.526  0.5138 -0.1937  0.1024
  516MOL0     C69550  12.269  10.246  -1.573  0.7602 -0.9446 -0.8804
  516MOL0     C69551  12.333  10.348  -1.636  0.1616  1.1613 -0.4698
  516MOL0     C69552  12.463  10.338  -1.685  1.1262 -0.2032  0.0464
  516MOL0     C69553  12.542  10.219  -1.665  0.0885  0.9813 -0.1470
  516MOL0     C69554  12.685  10.224  -1.718 -0.6958  1.0563 -1.0408
  516MOL0     O69555  12.761  10.107  -1.713  0.1703  0.3854  0.8092
  516MOL0     C69556  12.881  10.095  -1.777 -0.7724 -0.4587 -0.2144
  516MOL0     C69557  12.998  10.131  -1.697 -0.3037  0.0068  0.0071
  516MOL0     C69558  13.127  10.105  -1.740  0.8954  0.1536  0.5234
  516MOL0     C69559  13.144  10.073  -1.876  0.3899 -0.3482  0.0043
  516MOL0     O69560  13.272  10.040  -1.914 -0.4409  0.5603 -0.1880
  516MOL0     C69561  13.286   9.957  -2.034  0.2690  0.2739 -0.8283
  516MOL0     C69562  13.424   9.897  -2.039  0.5091 -0.0427  0.2170
  516MOL0     C69563  13.541   9.994  -2.066 -0.7247  0.1219 -0.0741
  516MOL0     C69564  13.662   9.959  -1.974  0.4688  0.6436  0.0690
  516MOL0     C69565  13.770  10.060  -1.989  0.3870 -0.0020  0.4237
  516MOL0     C69566  13.866  10.053  -1.866 -1.3447 -0.7156 -0.8535
  516MOL0     C69567  14.009  10.100  -1.903  0.0792 -1.4061 -0.0472
  516MOL0     C69568  14.101  10.069  -1.796 -0.5436 -0.0686  0.4011
  516MOL0    Cl69569  14.121   9.887  -1.769  0.0191  0.3125  0.2587
  516MOL0     C69570  13.032  10.064  -1.962  0.3023 -0.5061  0.4204
  516MOL0     C69571  12.904  10.079  -1.914  0.1328  0.4510 -0.9059
  516MOL0     O69572  12.714  10.328  -1.781  0.6470 -0.1768 -0.9720
  516MOL0     C69573  12.481  10.108  -1.603 -0.5247  0.0156 -0.1433
  516MOL0     C69574  12.345  10.125  -1.558 -0.2826  0.0819  0.8610
  516MOL0     N69575  11.832   9.887  -1.049  1.0236  0.1144  0.0714
  516MOL0     N69576  11.770   9.863  -0.942 -0.2503  0.2449 -0.5931
  516MOL0     C69577  11.268   9.623   0.160 -0.1778  1.1220  1.0184
  516MOL0     C69578  11.132   9.585   0.149  0.1451  0.3347 -0.3885
  516MOL0     C69579  10.710   9.668   0.013 -0.3059  1.3121 -0.7478
  516MOL0     C69580  10.666   9.591  -0.095 -0.2624  0.4109  0.1560
  516MOL0     C69581  10.534   9.561  -0.113  0.3609 -0.4513  0.2010
  516MOL0     C69582  10.436   9.615  -0.032 -0.0466 -0.4905 -0.8214
  516MOL0     O69583  10.312   9.581  -0.069 -0.1651  0.0571  0.4042
  516MOL0     C69584  10.204   9.598   0.029  0.0903  0.6012  0.9850
  516MOL0     C69585  10.211   9.491   0.139  0.0496 -0.0829  0.9129
  516MOL0     C69586  10.089   9.498   0.235  0.4097 -0.1190 -0.1729
  516MOL0     C69587  10.016   9.625   0.243 -0.7820 -1.0621  0.4712
  516MOL0     C69588   9.883   9.617   0.292 -0.6837  0.3491 -0.3461
  516MOL0     C69589   9.770   9.594   0.338 -0.4945 -0.2198  0.9776
  516MOL0     C69590  10.477   9.696   0.073  0.0552  0.6846 -0.3849
  516MOL0     C69591  10.608   9.726   0.098  0.0605  0.7556  0.4694
  516MOL0     C69592  10.633   9.813   0.220  0.3235  1.2942 -0.3492
  516MOL0     H69593  11.113   9.507  -0.171  0.7825 -0.3183 -0.1929
  516MOL0     H69594  11.349   9.577  -0.159  0.8654 -2.2221  0.0046
  516MOL0     H69595  11.443   9.763  -0.121 -1.7929  2.9247  2.5403
  516MOL0     H69596  11.567   9.841  -0.022  3.8069 -0.7546 -1.0280
  516MOL0     H69597  11.602   9.582  -0.165  1.2329  1.0962 -2.7075
  516MOL0     H69598  11.701   9.626  -0.024 -1.9758  1.4157  1.2208
  516MOL0     H69599  11.809   9.700  -0.251  2.1057  2.7246 -0.5800
  516MOL0     H69600  11.778   9.838  -0.143 -0.4893  1.2628 -0.8784
  516MOL0     H69601  11.600   9.737  -0.374 -1.7407 -0.1146  1.7276
  516MOL0     H69602  11.556   9.881  -0.283 -0.1021 -0.4936  0.2777
  516MOL0     H69603  11.753   9.993  -0.353 -1.3670 -0.1308  1.0076
  516MOL0     H69604  11.814   9.845  -0.433 -1.7955 -2.1076 -1.7659
  516MOL0     H69605  11.586   9.836  -0.560 -1.6598  0.7000  1.9614
  516MOL0     H69606  11.579  10.015  -0.530  1.3077  2.4203  0.3967
  516MOL0     H69607  11.789   9.848  -0.673 -0.0747  0.8108 -2.6280
  516MOL0     H69608  11.811  10.013  -0.630 -2.3477 -0.0002  5.7676
  516MOL0     H69609  11.569   9.929  -0.799 -0.5146  1.1085 -0.0854
  516MOL0     H69610  11.611  10.090  -0.764  2.7687  1.4428 -4.1833
  516MOL0     H69611  11.795  10.198  -0.935 -0.9543  0.4606  1.8730
  516MOL0     H69612  12.008  10.155  -1.114  2.5806 -0.4742 -1.9561
  516MOL0     H69613  12.017  10.017  -1.207  0.1225  1.2186 -0.8702
  516MOL0     H69614  11.807  10.079  -1.322  0.2433 -1.7365  2.5148
  516MOL0     H69615  11.797  10.219  -1.230 -1.1109 -1.5087 -0.6004
  516MOL0     H69616  11.976  10.326  -1.314  2.1422 -1.4419  1.5917
  516MOL0     H69617  11.869  10.280  -1.444 -0.9659 -0.4173  0.8503
  516MOL0     H69618  12.033  10.099  -1.503 -3.0178 -0.0639  1.6348
  516MOL0     H69619  12.126  10.143  -1.351 -2.1278  0.3344  3.3816
  516MOL0     H69620  12.280  10.436  -1.671 -2.4954 -1.4014 -3.5773
  516MOL0     H69621  12.506  10.430  -1.724 -1.3606 -0.0592 -2.6708
  516MOL0     H69622  12.974  10.165  -1.597  3.9808  0.4439  1.0969
  516MOL0     H69623  13.212  10.108  -1.673  2.6287 -0.4208 -1.5379
  516MOL0     H69624  13.228   9.865  -2.024 -0.4401  0.7384 -0.5834
  516MOL0     H69625  13.254  10.001  -2.129 -3.9154 -1.4050 -0.4304
  516MOL0     H69626  13.434   9.835  -1.949 -1.7543 -3.0884 -1.4348
  516MOL0     H69627  13.414   9.829  -2.124  0.2685 -0.9080  0.9208
  516MOL0     H69628  13.578   9.971  -2.167 -2.4229 -2.1536 -0.2578
  516MOL0     H69629  13.500  10.094  -2.054  0.0993  0.4024  0.4677
  516MOL0     H69630  13.701   9.858  -1.987 -0.4682  0.3171 -0.2982
  516MOL0     H69631  13.629   9.958  -1.870  2.6453  0.2670  0.8161
  516MOL0     H69632  13.724  10.158  -2.008 -2.2964 -1.4379 -1.1552
  516MOL0     H69633  13.841  10.040  -2.070  2.1980  1.9192  1.4315
  516MOL0     H69634  13.835  10.127  -1.792 -3.7185  2.2494 -4.4166
  516MOL0     H69635  13.871   9.954  -1.821 -1.0965  0.1767  1.1916
  516MOL0     H69636  14.007  10.208  -1.915  1.0046 -0.9948  2.8287
  516MOL0     H69637  14.033  10.065  -2.004 -3.3039 -1.0698 -1.0804
  516MOL0     H69638  14.196  10.114  -1.826 -1.1803  1.3694  0.4460
  516MOL0     H69639  14.073  10.110  -1.698 -0.9289  2.1246 -0.5661
  516MOL0     H69640  13.032  10.042  -2.068 -1.3205  2.8036 -0.3878
  516MOL0     H69641  12.822  10.045  -1.976 -1.8747  1.6448  0.9666
  516MOL0     H69642  12.528  10.012  -1.582 -1.5164 -1.5579 -4.2440
  516MOL0     H69643  12.300  10.031  -1.530 -2.8840  1.5804  2.0755
  516MOL0     H69644  11.317   9.637   0.256  2.2423  1.6769 -0.2016
  516MOL0     H69645  11.069   9.591   0.238  0.7109  1.2000 -0.0325
  516MOL0     H69646  10.729   9.541  -0.167 -2.5780 -1.7486 -0.5011
  516MOL0     H69647  10.509   9.495  -0.195  0.9814  0.4238 -0.7198
  516MOL0     H69648  10.121   9.606  -0.041  1.9188  3.2256 -1.1137
  516MOL0     H69649  10.214   9.697   0.074 -1.9152  0.3399  2.1014
  516MOL0     H69650  10.297   9.522   0.198 -0.8107  4.4201  0.1516
  516MOL0     H69651  10.216   9.389   0.099 -0.3933 -0.8711  2.7500
  516MOL0     H69652  10.128   9.466   0.332  0.5005 -1.8553 -0.7422
  516MOL0     H69653  10.021   9.416   0.207  0.5397 -0.4555  0.4768
  516MOL0     H69654  10.076   9.690   0.307 -0.9165  1.4649 -1.7601
  516MOL0     H69655  10.011   9.673   0.144 -1.0171 -2.8054 -0.4056
  516MOL0     H69656   9.674   9.589   0.383 -2.7969  0.4608 -3.2714
  516MOL0     H69657  10.407   9.742   0.143  0.3657  2.6539 -1.3011
  516MOL0     H69658  10.675   9.912   0.201  3.5086  0.5631  2.1097
  516MOL0     H69659  10.543   9.832   0.279 -0.2959 -1.7288 -0.1286
  516MOL0     H69660  10.702   9.755   0.281  0.5012 -0.4601 -2.0822
  517MOL0     O69661  10.622   6.420   8.198 -0.0143 -0.3736  0.7360
  517MOL0     C69662  10.648   6.467   8.306  0.2145 -0.4403  0.2816
  517MOL0     O69663  10.779   6.475   8.364  0.2036  0.5557  0.0857
  517MOL0     C69664  10.890   6.425   8.309  0.2390  0.6384 -0.7386
  517MOL0     C69665  10.892   6.293   8.265 -0.6695 -0.4317  0.5001
  517MOL0     C69666  10.997   6.236   8.197 -0.8433  0.8644 -0.3110
  517MOL0     C69667  11.111   6.316   8.174 -0.9719  0.5707 -0.7627
  517MOL0     O69668  11.225   6.258   8.115  0.6097  0.6488 -0.4684
  517MOL0     C69669  11.337   6.232   8.206  0.5936  0.1977  0.2454
  517MOL0     C69670  11.306   6.151   8.330  0.3309 -0.2287  0.1517
  517MOL0     C69671  11.419   6.147   8.424 -0.0489  0.5007  0.0559
  517MOL0     C69672  11.413   6.259   8.531  0.0051 -0.3335  0.0046
  517MOL0     C69673  11.491   6.217   8.659 -0.1374 -0.0673 -0.4940
  517MOL0     C69674  11.629   6.160   8.628  0.0269 -0.6188  0.4986
  517MOL0     C69675  11.720   6.150   8.754  0.1935  0.2247  0.5340
  517MOL0     C69676  11.667   6.046   8.858 -0.4570  0.0603  0.0811
  517MOL0     N69677  11.570   6.110   8.947 -0.9355  0.3995  0.0877
  517MOL0     C69678  11.434   6.082   8.945  0.5053  0.4758  0.0194
  517MOL0     C69679  11.389   6.146   9.057 -0.1443 -0.2172 -0.4320
  517MOL0     C69680  11.249   6.124   9.109 -0.2933  0.6155 -0.6273
  517MOL0     C69681  11.141   6.225   9.072 -0.4175  0.1799  0.5997
  517MOL0     C69682  11.184   6.363   9.096  1.1870  0.3570 -0.0395
  517MOL0     C69683  11.253   6.444   8.979  0.1096 -0.3966  0.4289
  517MOL0     O69684  11.256   6.586   9.005 -0.2621 -1.0385  0.7410
  517MOL0     C69685  11.365   6.645   9.053  1.0947 -0.0840  0.0737
  517MOL0     C69686  11.371   6.777   9.045  0.4898 -0.5000 -0.0122
  517MOL0     C69687  11.461   6.854   9.120  0.3148  0.3077 -0.6421
  517MOL0     C69688  11.561   6.782   9.189  0.5594 -0.2568  0.4809
  517MOL0     C69689  11.666   6.857   9.266 -0.7291 -0.2248 -0.4936
  517MOL0     O69690  11.745   6.788   9.359  0.2774 -0.3681 -0.1563
  517MOL0     C69691  11.855   6.854   9.421 -0.5041  0.2713 -0.1551
  517MOL0     C69692  11.972   6.771   9.439  0.2474 -0.2307  0.0771
  517MOL0     C69693  12.088   6.825   9.495 -0.0153 -0.3038 -0.3400
  517MOL0     C69694  12.087   6.955   9.556 -0.3296 -0.7327 -0.3445
  517MOL0     O69695  12.191   7.014   9.632 -0.3233 -0.4851 -0.1044
  517MOL0     C69696  12.323   6.984   9.595 -0.0660  0.3842 -0.2595
  517MOL0     C69697  12.406   7.095   9.671  0.6393 -0.7502 -0.1718
  517MOL0     C69698  12.554   7.064   9.689  0.4473  0.1389 -0.6064
  517MOL0     C69699  12.648   7.176   9.724  0.2683 -0.0379 -0.1011
  517MOL0     C69700  12.782   7.139   9.678  0.3696 -1.2305 -0.7255
  517MOL0     C69701  12.879   7.244   9.708 -0.0137 -0.1960 -0.3816
  517MOL0     C69702  12.863   7.372   9.622  0.4247 -0.6384  0.5165
  517MOL0     C69703  12.957   7.488   9.645 -0.2424  0.0489  0.0356
  517MOL0    Cl69704  12.919   7.572   9.798 -0.0034  0.1415 -0.0679
  517MOL0     C69705  11.966   7.031   9.547  0.0067 -0.6855  0.5937
  517MOL0     C69706  11.863   6.989   9.473  0.5703  0.3486 -0.0217
  517MOL0     O69707  11.672   6.982   9.248 -0.4453  0.3821 -0.6552
  517MOL0     C69708  11.579   6.644   9.171 -0.0018 -0.3010 -0.4129
  517MOL0     C69709  11.475   6.580   9.109  0.0717  0.4807 -0.7186
  517MOL0     N69710  11.496   6.207   9.120  0.1257  0.2789  0.4624
  517MOL0     N69711  11.601   6.186   9.059 -0.8936  0.2714  1.3811
  517MOL0     C69712  11.113   6.451   8.220  0.2330  0.4309 -1.3725
  517MOL0     C69713  10.999   6.509   8.282 -0.7805 -0.3708  0.1078
  517MOL0     C69714  10.533   6.490   8.401 -0.4354  0.5113 -0.5576
  517MOL0     C69715  10.571   6.459   8.533 -0.5071  0.5388 -0.2965
  517MOL0     C69716  10.481   6.461   8.639  1.4286  0.9269  0.1160
  517MOL0     C69717  10.343   6.483   8.616  0.2097  0.7778  0.7855
  517MOL0     O69718  10.242   6.473   8.704 -0.3209 -0.2457 -1.2863
  517MOL0     C69719  10.270   6.414   8.838  0.8624  0.4370  0.2210
  517MOL0     C69720  10.140   6.392   8.895  0.8417  0.4261 -0.5984
  517MOL0     C69721  10.153   6.360   9.045 -0.6863 -1.0762  0.4478
  517MOL0     C69722  10.203   6.217   9.078  0.8103 -0.5805 -0.3513
  517MOL0     C69723  10.086   6.129   9.049 -0.0882  0.1721 -0.2218
  517MOL0     C69724  10.009   6.035   9.045  0.0366 -0.6004  0.4820
  517MOL0     C69725  10.305   6.506   8.483 -0.2286 -0.0609  0.1974
  517MOL0     C69726  10.398   6.512   8.376  0.1323 -0.1708  0.0549
  517MOL0     C69727  10.344   6.547   8.233  1.2939  0.2696 -0.9968
  517MOL0     H69728  10.800   6.235   8.262 -0.9761  0.0852 -0.8497
  517MOL0     H69729  10.985   6.131   8.172  0.0504  0.9156 -0.9920
  517MOL0     H69730  11.415   6.171   8.159  1.2322  2.8379 -2.4302
  517MOL0     H69731  11.386   6.328   8.225 -2.9685  2.3163 -0.3451
  517MOL0     H69732  11.284   6.049   8.296  1.4072 -0.1606 -0.7892
  517MOL0     H69733  11.214   6.174   8.385  0.8005  1.7912  0.1477
  517MOL0     H69734  11.509   6.148   8.363 -1.3165  2.4601 -1.9164
  517MOL0     H69735  11.421   6.053   8.480  2.7947  0.7320  0.4859
  517MOL0     H69736  11.460   6.353   8.499 -0.5514  0.6544  1.8897
  517MOL0     H69737  11.314   6.289   8.567  0.7208  0.5010  1.3964
  517MOL0     H69738  11.499   6.296   8.733 -3.9454  2.6913 -2.6686
  517MOL0     H69739  11.434   6.136   8.706  1.1041  0.0839  1.3813
  517MOL0     H69740  11.617   6.059   8.588  0.1448 -1.3688  2.2295
  517MOL0     H69741  11.673   6.228   8.555  3.3006 -3.0217  0.0336
  517MOL0     H69742  11.732   6.247   8.803 -1.6184  3.2178 -4.2326
  517MOL0     H69743  11.820   6.119   8.721 -0.2836  0.5620 -1.3579
  517MOL0     H69744  11.623   5.970   8.792 -3.6488  3.8693 -2.6540
  517MOL0     H69745  11.757   6.005   8.906 -0.0013  0.0055 -0.7963
  517MOL0     H69746  11.392   6.018   8.868  2.1710 -1.5290  0.7106
  517MOL0     H69747  11.214   6.027   9.071  1.4420  1.0489 -3.6766
  517MOL0     H69748  11.256   6.124   9.218 -0.5205  0.7462 -0.6113
  517MOL0     H69749  11.106   6.215   8.969 -1.1141 -0.4944  0.8954
  517MOL0     H69750  11.055   6.208   9.136 -0.1107  0.7259  1.1627
  517MOL0     H69751  11.255   6.351   9.179  3.2336  1.5145 -1.5400
  517MOL0     H69752  11.098   6.425   9.120  0.8096  0.9013 -2.5750
  517MOL0     H69753  11.194   6.440   8.887  1.6881 -1.6977 -0.5937
  517MOL0     H69754  11.352   6.401   8.964 -0.5168 -1.3812 -1.1478
  517MOL0     H69755  11.295   6.822   8.981 -0.0949 -3.2169 -1.4018
  517MOL0     H69756  11.472   6.959   9.097 -0.3606  0.4793 -0.1985
  517MOL0     H69757  11.975   6.665   9.416  0.4140 -0.3118  0.4711
  517MOL0     H69758  12.180   6.770   9.507  1.5882  2.6767  2.6424
  517MOL0     H69759  12.354   6.881   9.613  0.8044  0.0460 -3.1446
  517MOL0     H69760  12.322   6.991   9.485 -1.6182  0.5744 -0.2487
  517MOL0     H69761  12.397   7.183   9.607 -3.5623 -1.9966 -1.6487
  517MOL0     H69762  12.376   7.119   9.774  0.8219 -2.1330  0.2218
  517MOL0     H69763  12.564   6.983   9.762 -0.0818  1.2365  0.7267
  517MOL0     H69764  12.587   7.031   9.590  3.5382 -0.5553  0.5482
  517MOL0     H69765  12.653   7.192   9.832 -2.4083  3.2303 -0.2583
  517MOL0     H69766  12.602   7.269   9.688  0.5796  0.9211  1.8824
  517MOL0     H69767  12.772   7.133   9.569 -2.5372  4.5251 -1.1262
  517MOL0     H69768  12.819   7.050   9.729  3.7926 -0.5003 -1.6908
  517MOL0     H69769  12.861   7.262   9.814 -0.2698 -4.6403  0.5395
  517MOL0     H69770  12.980   7.209   9.685 -0.4212  0.7840 -4.4684
  517MOL0     H69771  12.758   7.405   9.623  0.7734  0.5267  1.1383
  517MOL0     H69772  12.887   7.334   9.523 -1.5369 -1.7887  0.4336
  517MOL0     H69773  13.061   7.454   9.643 -0.6539 -1.2619 -0.1466
  517MOL0     H69774  12.935   7.556   9.563 -0.1919  1.7146  1.3596
  517MOL0     H69775  11.969   7.130   9.591  2.2170  1.8227 -4.3569
  517MOL0     H69776  11.768   7.040   9.463 -1.6699 -2.3132  4.3891
  517MOL0     H69777  11.645   6.571   9.218  0.5234  1.1719  1.2136
  517MOL0     H69778  11.479   6.472   9.117  2.9748  0.6521  1.5423
  517MOL0     H69779  11.203   6.510   8.203 -0.1333  1.5533  0.3221
  517MOL0     H69780  10.995   6.614   8.308  0.9551 -0.4084  0.5985
  517MOL0     H69781  10.674   6.451   8.565 -0.3694  1.0223 -0.6108
  517MOL0     H69782  10.524   6.443   8.737  2.1877 -1.9283 -0.6494
  517MOL0     H69783  10.330   6.481   8.901  2.3716 -1.3428  0.7802
  517MOL0     H69784  10.321   6.318   8.826 -0.4611 -0.1212 -1.2215
  517MOL0     H69785  10.094   6.305   8.846  3.0579 -0.9270 -0.4056
  517MOL0     H69786  10.074   6.476   8.874  0.3549  0.0051 -0.7863
  517MOL0     H69787  10.054   6.385   9.085 -0.5357 -0.8473  0.6776
  517MOL0     H69788  10.212   6.438   9.095 -0.3817 -0.7135 -0.4484
  517MOL0     H69789  10.287   6.191   9.013 -0.7035 -1.9809 -1.8506
  517MOL0     H69790  10.236   6.216   9.182  0.7275 -1.0527 -0.3275
  517MOL0     H69791   9.930   5.967   9.071  0.9353 -0.8720  2.7844
  517MOL0     H69792  10.198   6.517   8.476 -0.2393 -1.0297 -1.7312
  517MOL0     H69793  10.260   6.481   8.211  0.6679  1.5054 -2.4978
  517MOL0     H69794  10.290   6.642   8.229 -3.0677 -1.9417 -1.3137
  517MOL0     H69795  10.411   6.529   8.148  0.6015 -4.7081 -0.8056
  518MOL0     O69796   6.834   4.591   0.742 -0.1546 -0.3562 -0.5951
  518MOL0     C69797   6.843   4.689   0.816  0.3410  1.2765 -0.0612
  518MOL0     O69798   6.793   4.689   0.945  0.0184 -0.3712 -0.2909
  518MOL0     C69799   6.687   4.604   0.968 -0.0301  0.3187 -0.3389
  518MOL0     C69800   6.574   4.599   0.883 -0.2245  1.0112  0.0964
  518MOL0     C69801   6.480   4.500   0.906  0.2345  0.7195  1.1720
  518MOL0     C69802   6.466   4.417   1.019 -0.1231 -0.1743  0.6158
  518MOL0     O69803   6.347   4.353   1.043 -0.3124 -0.7557  0.2625
  518MOL0     C69804   6.295   4.373   1.173  0.2664 -0.6361 -0.2862
  518MOL0     C69805   6.151   4.328   1.184  0.0180 -0.8898  0.0383
  518MOL0     C69806   6.067   4.399   1.289 -0.2088  0.2000 -0.7289
  518MOL0     C69807   6.014   4.541   1.235 -0.1643  0.7152 -0.1131
  518MOL0     C69808   5.972   4.630   1.350  0.7508 -0.2316  0.6067
  518MOL0     C69809   5.833   4.590   1.409  0.4150 -0.5337 -0.5068
  518MOL0     C69810   5.808   4.668   1.537  0.5096 -0.3791 -0.2265
  518MOL0     C69811   5.693   4.623   1.624 -0.0438 -0.0331  0.6566
  518MOL0     N69812   5.559   4.601   1.560 -0.2894  0.9681 -0.7446
  518MOL0     C69813   5.488   4.484   1.563 -0.4143  0.0841 -1.1854
  518MOL0     C69814   5.370   4.515   1.511  0.5177  0.1389 -0.2172
  518MOL0     C69815   5.263   4.417   1.455  0.4613 -0.3446 -0.6621
  518MOL0     C69816   5.252   4.296   1.540 -0.4310 -0.2652 -0.1345
  518MOL0     C69817   5.154   4.202   1.464  1.1872  0.0661  0.2959
  518MOL0     C69818   5.222   4.079   1.400 -0.8631 -0.5282 -0.7197
  518MOL0     O69819   5.291   3.997   1.504 -0.1736 -0.3394 -0.1689
  518MOL0     C69820   5.404   3.939   1.465  0.4042  0.0152 -0.6673
  518MOL0     C69821   5.412   3.867   1.344  0.3203 -0.0161  0.0216
  518MOL0     C69822   5.533   3.804   1.306  0.2846  0.4224 -0.0897
  518MOL0     C69823   5.643   3.817   1.387 -1.2623  0.6985 -0.1087
  518MOL0     C69824   5.777   3.759   1.361  0.3831 -0.4525  0.8785
  518MOL0     O69825   5.800   3.718   1.237  0.2479  0.3188 -0.3896
  518MOL0     C69826   5.924   3.666   1.212  0.2129 -0.0171  0.8974
  518MOL0     C69827   6.001   3.742   1.119  0.0549 -0.4353 -0.2500
  518MOL0     C69828   6.120   3.682   1.065  0.0491 -0.5759  0.3114
  518MOL0     C69829   6.148   3.547   1.078 -0.3277  0.1466 -0.7909
  518MOL0     O69830   6.256   3.495   1.009  0.2588  0.4569 -0.0601
  518MOL0     C69831   6.261   3.353   1.009 -0.3185 -0.4737 -0.0167
  518MOL0     C69832   6.376   3.296   0.914 -0.0986  0.1834 -0.0500
  518MOL0     C69833   6.343   3.314   0.763  0.0874 -0.3917 -0.4402
  518MOL0     C69834   6.451   3.235   0.686 -0.7882  0.2754 -0.0589
  518MOL0     C69835   6.416   3.212   0.530 -0.4349 -0.1982  0.3760
  518MOL0     C69836   6.534   3.152   0.454 -1.0199 -0.5134 -0.4713
  518MOL0     C69837   6.502   3.136   0.303 -0.5065  0.1489  0.7688
  518MOL0     C69838   6.632   3.086   0.221  0.3144  0.2650  0.0648
  518MOL0    Cl69839   6.724   2.952   0.296 -0.4400  0.3259 -0.0492
  518MOL0     C69840   6.065   3.478   1.180  0.0910  0.3675  0.5291
  518MOL0     C69841   5.963   3.540   1.251  0.3740  0.1319  1.0680
  518MOL0     O69842   5.858   3.763   1.452 -0.0641  0.3262 -0.1364
  518MOL0     C69843   5.630   3.886   1.508  0.0042 -0.2530 -0.8580
  518MOL0     C69844   5.512   3.946   1.551  0.7828 -0.0685  0.2300
  518MOL0     N69845   5.367   4.651   1.482 -0.4480  0.6843 -0.2197
  518MOL0     N69846   5.473   4.705   1.533 -0.4639  0.0457  0.6970
  518MOL0     C69847   6.565   4.441   1.115 -0.1871 -0.1671  0.2173
  518MOL0     C69848   6.671   4.533   1.083  0.3753  0.6747  0.9471
  518MOL0     C69849   6.906   4.818   0.773 -0.4648  0.1659 -0.7026
  518MOL0     C69850   6.908   4.922   0.868  0.3717  0.2427  0.1530
  518MOL0     C69851   6.934   5.056   0.839 -0.5070  0.8669 -0.4301
  518MOL0     C69852   6.971   5.090   0.713 -0.9601  0.6926 -0.1136
  518MOL0     O69853   7.002   5.226   0.695 -0.0865  0.3750 -0.4466
  518MOL0     C69854   7.049   5.254   0.566 -0.0661 -0.8018 -0.2801
  518MOL0     C69855   7.111   5.389   0.562 -1.3660  1.0085 -0.3487
  518MOL0     C69856   7.208   5.417   0.684  0.1217  0.2509  0.3032
  518MOL0     C69857   7.286   5.549   0.658 -0.0215 -0.0363 -0.0277
  518MOL0     C69858   7.347   5.593   0.779  0.1780 -0.5382 -0.1225
  518MOL0     C69859   7.385   5.623   0.890 -0.2472  0.0460  0.2966
  518MOL0     C69860   6.968   4.988   0.616 -0.4865 -1.2387 -0.4774
  518MOL0     C69861   6.945   4.852   0.636  0.1139 -0.3260 -0.8901
  518MOL0     C69862   6.936   4.767   0.522  0.3845 -0.8172 -0.0622
  518MOL0     H69863   6.568   4.658   0.792 -1.7259 -2.0126 -1.9758
  518MOL0     H69864   6.407   4.483   0.828 -0.2439  2.8754  1.0736
  518MOL0     H69865   6.352   4.317   1.248 -0.8225 -3.0391 -1.1465
  518MOL0     H69866   6.297   4.482   1.182  1.5809 -0.5312 -1.4392
  518MOL0     H69867   6.162   4.224   1.216  2.6627 -0.8904 -0.6801
  518MOL0     H69868   6.082   4.337   1.099 -2.9900  2.2790  2.5277
  518MOL0     H69869   6.128   4.416   1.379 -0.3126 -0.1657 -0.5905
  518MOL0     H69870   5.978   4.348   1.326 -1.9937  1.8369 -2.4955
  518MOL0     H69871   6.077   4.601   1.168 -1.5691 -0.5329 -2.6956
  518MOL0     H69872   5.922   4.522   1.180 -0.6706 -1.2018  1.2837
  518MOL0     H69873   6.051   4.629   1.425  0.2060 -2.1203  1.2083
  518MOL0     H69874   5.966   4.736   1.321  2.2061 -0.1306  0.6435
  518MOL0     H69875   5.760   4.609   1.329 -0.7295 -0.0075  0.6263
  518MOL0     H69876   5.829   4.484   1.437 -3.3626 -0.5427 -0.5421
  518MOL0     H69877   5.791   4.774   1.521  2.2453 -0.2757 -1.6006
  518MOL0     H69878   5.901   4.652   1.593  0.7722  0.5939 -0.3762
  518MOL0     H69879   5.726   4.532   1.675  1.0124 -0.5575 -0.9051
  518MOL0     H69880   5.695   4.695   1.707 -0.2000 -0.3786  0.9663
  518MOL0     H69881   5.534   4.396   1.605 -0.0936  0.6296 -0.3662
  518MOL0     H69882   5.170   4.472   1.436  1.7495  1.8615 -0.9139
  518MOL0     H69883   5.299   4.394   1.354  1.9652  2.6832 -0.9310
  518MOL0     H69884   5.349   4.246   1.549  0.7002  1.9154  0.5578
  518MOL0     H69885   5.216   4.312   1.642 -0.2444  0.4044 -0.1689
  518MOL0     H69886   5.095   4.259   1.391  2.2237 -0.5517 -1.0875
  518MOL0     H69887   5.083   4.172   1.540  0.0208  0.1972 -0.7116
  518MOL0     H69888   5.300   4.125   1.339  0.2458  0.5478  1.3780
  518MOL0     H69889   5.160   4.007   1.346 -0.7990  0.4256 -2.0969
  518MOL0     H69890   5.328   3.848   1.278  0.1311  0.5708  0.0884
  518MOL0     H69891   5.542   3.749   1.213 -0.6498  0.4063 -0.1722
  518MOL0     H69892   5.968   3.839   1.084  2.3630  1.4084  2.1766
  518MOL0     H69893   6.165   3.750   0.994 -0.9806  2.2965  2.2225
  518MOL0     H69894   6.273   3.323   1.114  0.6200  0.0080  0.0264
  518MOL0     H69895   6.164   3.313   0.978 -1.2865  0.2477  1.9328
  518MOL0     H69896   6.463   3.356   0.942 -1.1443  0.6587  2.3967
  518MOL0     H69897   6.378   3.193   0.951 -2.5243  1.0123  2.7454
  518MOL0     H69898   6.246   3.275   0.728  1.5147 -1.7935 -3.1809
  518MOL0     H69899   6.351   3.418   0.729  0.1727 -0.6624 -1.2919
  518MOL0     H69900   6.464   3.137   0.733  0.9363  1.5178  2.2717
  518MOL0     H69901   6.543   3.294   0.689 -0.1904 -0.5198 -1.5532
  518MOL0     H69902   6.396   3.307   0.480 -0.7721  0.0879  1.0353
  518MOL0     H69903   6.326   3.151   0.518 -0.2663 -0.1366 -1.3248
  518MOL0     H69904   6.620   3.218   0.468 -0.9916 -0.7082  0.3169
  518MOL0     H69905   6.561   3.053   0.493  3.7722  0.4363 -0.7573
  518MOL0     H69906   6.458   3.228   0.266  2.0633  0.4000 -2.0441
  518MOL0     H69907   6.425   3.059   0.298  1.2446 -1.5962 -1.2374
  518MOL0     H69908   6.597   3.055   0.122 -2.4558 -0.2181  1.1067
  518MOL0     H69909   6.696   3.175   0.221  0.2622  0.3114  1.0060
  518MOL0     H69910   6.092   3.374   1.192  3.3366  0.7019 -2.2376
  518MOL0     H69911   5.906   3.468   1.310 -0.8610 -1.5897 -2.0065
  518MOL0     H69912   5.720   3.901   1.566  0.4462 -0.5911 -1.4408
  518MOL0     H69913   5.503   3.996   1.647  2.9864  0.5472  0.1765
  518MOL0     H69914   6.569   4.385   1.207  4.0923 -4.2700 -2.0364
  518MOL0     H69915   6.737   4.561   1.165  1.0205 -1.7132  1.3345
  518MOL0     H69916   6.876   4.903   0.971 -4.7241  0.3734 -1.1235
  518MOL0     H69917   6.925   5.130   0.917  3.1106  0.0134  1.0324
  518MOL0     H69918   6.964   5.251   0.497 -1.0514  1.5118  0.7273
  518MOL0     H69919   7.130   5.187   0.537  3.6383  3.1067 -0.0087
  518MOL0     H69920   7.026   5.458   0.569 -0.9060  1.5047  0.4379
  518MOL0     H69921   7.161   5.404   0.466 -1.1220  0.9486 -0.2321
  518MOL0     H69922   7.280   5.335   0.691 -0.8861 -0.5644  1.8519
  518MOL0     H69923   7.150   5.427   0.776 -1.8620 -1.7483 -0.6455
  518MOL0     H69924   7.365   5.540   0.583  2.2403  0.6516  2.1260
  518MOL0     H69925   7.214   5.627   0.630  0.7191  0.6823  0.0449
  518MOL0     H69926   7.420   5.654   0.987  1.9335  2.7078 -1.1855
  518MOL0     H69927   6.978   5.036   0.519 -0.3161  0.5593  0.3870
  518MOL0     H69928   6.987   4.673   0.546  0.1675 -0.4276  2.1153
  518MOL0     H69929   6.829   4.753   0.506  0.2498  2.3946 -3.1686
  518MOL0     H69930   6.986   4.821   0.442 -1.6530  2.5454  0.7505
  519MOL0     O69931   0.100   3.072   9.448 -0.2006  0.2028  0.2537
  519MOL0     C69932   0.108   2.981   9.366  0.5224  0.1010  0.4880
  519MOL0     O69933   0.043   2.863   9.384 -0.0514 -0.2380  0.1768
  519MOL0     C69934  -0.021   2.822   9.501 -0.1093 -0.3295  0.2855
  519MOL0     C69935   0.044   2.749   9.598 -0.0611  0.8588  0.2182
  519MOL0     C69936  -0.021   2.701   9.698 -0.4284  0.0674 -1.0333
  519MOL0     C69937  -0.160   2.701   9.708  0.4040 -0.1474 -0.0367
  519MOL0     O69938  -0.230   2.632   9.813 -0.3130 -0.4015  0.1077
  519MOL0     C69939  -0.274   2.707   9.919  0.6461  0.3553 -0.8152
  519MOL0     C69940  -0.375   2.618   9.992  0.0474 -0.0044 -0.5878
  519MOL0     C69941  -0.518   2.656   9.959  0.6686 -0.4773 -0.5850
  519MOL0     C69942  -0.569   2.796  10.006  0.3978 -1.1264 -0.7744
  519MOL0     C69943  -0.720   2.828   9.975 -0.8304 -0.0226  0.1535
  519MOL0     C69944  -0.802   2.743  10.066  0.1213 -0.1358 -0.2212
  519MOL0     C69945  -0.947   2.713  10.004 -0.1275  0.3930 -0.3671
  519MOL0     C69946  -1.009   2.572  10.035  0.2140 -0.0877 -0.6950
  519MOL0     N69947  -1.053   2.593  10.169  0.4519 -0.4558 -0.6082
  519MOL0     C69948  -1.160   2.670  10.208 -1.0650  0.0046  0.0334
  519MOL0     C69949  -1.180   2.639  10.337 -0.0192  0.5381 -0.9148
  519MOL0     C69950  -1.265   2.724  10.434  0.4320 -0.2367  0.0198
  519MOL0     C69951  -1.393   2.652  10.479 -0.1969  0.4794 -0.4494
  519MOL0     C69952  -1.477   2.751  10.568  0.9949 -0.1175  0.2924
  519MOL0     C69953  -1.610   2.684  10.627 -0.1651 -0.6490 -0.1406
  519MOL0     O69954  -1.714   2.672  10.530  0.0831  0.1731  0.2845
  519MOL0     C69955  -1.839   2.698  10.570  0.3614 -0.4111 -0.0406
  519MOL0     C69956  -1.882   2.665  10.703 -0.2215 -0.5581 -0.2399
  519MOL0     C69957  -2.014   2.703  10.738  0.0352  0.2711  0.6022
  519MOL0     C69958  -2.102   2.740  10.643 -0.1308  0.2971  0.0107
  519MOL0     C69959  -2.242   2.755  10.682 -0.1555  0.4397  0.8180
  519MOL0     O69960  -2.272   2.706  10.804 -0.4712  0.1964 -0.2301
  519MOL0     C69961  -2.405   2.705  10.847  0.1158  0.7687 -0.0164
  519MOL0     C69962  -2.501   2.632  10.774  0.1577  0.8864  0.4062
  519MOL0     C69963  -2.631   2.614  10.823 -0.6911 -0.5194 -0.1354
  519MOL0     C69964  -2.658   2.657  10.956 -0.0744 -1.6042 -0.1826
  519MOL0     O69965  -2.784   2.668  11.013  0.6929  0.6668 -0.0253
  519MOL0     C69966  -2.894   2.584  10.955 -0.4977 -0.6337  0.1701
  519MOL0     C69967  -3.026   2.627  11.009 -0.2761  0.5552  0.5622
  519MOL0     C69968  -3.046   2.770  10.962  1.1895 -0.4942  0.2481
  519MOL0     C69969  -3.176   2.834  11.008 -0.5531 -0.1061 -0.5784
  519MOL0     C69970  -3.295   2.740  11.003 -0.6262  0.1133  0.1027
  519MOL0     C69971  -3.415   2.827  11.028 -0.4783 -1.1982 -0.6365
  519MOL0     C69972  -3.528   2.750  11.031  0.2859 -0.3035  0.0476
  519MOL0     C69973  -3.607   2.746  11.154  0.5768  0.6614 -0.2752
  519MOL0    Cl69974  -3.679   2.901  11.206  0.2894  0.0356  0.2031
  519MOL0     C69975  -2.555   2.718  11.029  0.1054 -0.0438 -0.5711
  519MOL0     C69976  -2.432   2.749  10.975  0.9992  0.2363 -0.4431
  519MOL0     O69977  -2.321   2.813  10.608  1.1685  0.6013  0.0745
  519MOL0     C69978  -2.060   2.763  10.506 -0.3552  0.7095  0.2363
  519MOL0     C69979  -1.927   2.740  10.473  0.0220 -0.3721  0.5170
  519MOL0     N69980  -1.089   2.540  10.370  0.4945 -0.7324 -0.0481
  519MOL0     N69981  -1.008   2.518  10.275 -0.4469  0.2295  0.3123
  519MOL0     C69982  -0.232   2.761   9.609  0.5260 -0.4365  0.1953
  519MOL0     C69983  -0.163   2.824   9.504 -0.6659  0.3672  0.7285
  519MOL0     C69984   0.171   3.017   9.230  0.5433  0.5710 -0.1486
  519MOL0     C69985   0.114   2.946   9.120 -0.6012 -0.0573 -0.3371
  519MOL0     C69986   0.170   2.958   9.001 -0.2361 -0.5246  1.1823
  519MOL0     C69987   0.270   3.043   8.972 -1.2304 -0.5534 -0.2827
  519MOL0     O69988   0.331   3.064   8.851  0.3902 -0.3646 -0.1091
  519MOL0     C69989   0.316   2.965   8.742  0.3717  0.0387 -0.3685
  519MOL0     C69990   0.370   2.819   8.759 -0.3160 -0.0714  0.2825
  519MOL0     C69991   0.522   2.807   8.779 -0.4333 -0.2634  0.8979
  519MOL0     C69992   0.568   2.667   8.810 -0.5068  0.7219  0.7118
  519MOL0     C69993   0.713   2.659   8.827 -0.4549  0.0497 -0.2147
  519MOL0     C69994   0.835   2.657   8.841 -0.3389  0.2002 -0.3708
  519MOL0     C69995   0.319   3.124   9.077  0.5736 -0.8348 -0.4160
  519MOL0     C69996   0.268   3.126   9.208  0.8631  0.2799 -0.9338
  519MOL0     C69997   0.343   3.221   9.296 -0.3716 -0.8418 -0.3171
  519MOL0     H69998   0.148   2.723   9.584 -0.1453  1.1301 -0.9769
  519MOL0     H69999   0.029   2.645   9.777  1.0300  1.6665 -0.7640
  519MOL0     H70000  -0.188   2.726   9.984  1.8378 -0.2516 -2.1699
  519MOL0     H70001  -0.311   2.801   9.876  1.5363  0.7184 -0.8165
  519MOL0     H70002  -0.357   2.618  10.099 -2.6466 -2.1856 -0.0125
  519MOL0     H70003  -0.345   2.517   9.964  3.6952  0.2978  1.5675
  519MOL0     H70004  -0.580   2.575   9.998 -0.3804  0.3004 -0.5950
  519MOL0     H70005  -0.530   2.648   9.851  0.5000 -0.3027 -0.5787
  519MOL0     H70006  -0.542   2.819  10.109 -0.0164 -2.4538 -0.3475
  519MOL0     H70007  -0.506   2.875   9.962  1.2951  0.8578  3.5583
  519MOL0     H70008  -0.738   2.933   9.996  1.1359  0.7285 -1.5595
  519MOL0     H70009  -0.736   2.818   9.867 -2.5129 -1.3670  0.4750
  519MOL0     H70010  -0.756   2.644  10.068  0.1194 -0.1368 -0.2449
  519MOL0     H70011  -0.822   2.788  10.164 -1.7955 -1.3542  0.0069
  519MOL0     H70012  -0.922   2.703   9.897  1.6782 -1.5461  0.1757
  519MOL0     H70013  -1.021   2.794  10.009 -0.2304  0.2194  3.5716
  519MOL0     H70014  -1.099   2.557   9.974  0.2232 -1.2554 -0.4443
  519MOL0     H70015  -0.933   2.497  10.011  0.6881 -0.6707  2.2710
  519MOL0     H70016  -1.214   2.746  10.153  0.8387  0.5425 -1.1780
  519MOL0     H70017  -1.211   2.757  10.523 -2.9845 -0.9316  2.5532
  519MOL0     H70018  -1.285   2.819  10.384 -3.0787 -1.0370 -0.3308
  519MOL0     H70019  -1.462   2.621  10.400 -0.5027 -0.7769  0.2909
  519MOL0     H70020  -1.369   2.568  10.545  1.6949  1.9153  0.7879
  519MOL0     H70021  -1.512   2.841  10.517  1.6137 -0.1443 -0.1883
  519MOL0     H70022  -1.424   2.782  10.659 -0.3423 -0.2833  1.1611
  519MOL0     H70023  -1.640   2.747  10.711  1.5730  1.6879 -1.1856
  519MOL0     H70024  -1.583   2.585  10.665 -0.4967 -0.7441 -0.1508
  519MOL0     H70025  -1.807   2.629  10.773  0.5726 -0.6075 -1.0803
  519MOL0     H70026  -2.031   2.690  10.845  1.0795  0.9288  0.8615
  519MOL0     H70027  -2.489   2.599  10.671 -0.4693  0.5677  0.4306
  519MOL0     H70028  -2.705   2.566  10.760 -0.1938  1.3285 -2.2561
  519MOL0     H70029  -2.902   2.594  10.846  0.5065 -1.1605  0.0280
  519MOL0     H70030  -2.867   2.479  10.972  2.0947 -0.1797 -0.5458
  519MOL0     H70031  -3.110   2.565  10.978  0.5605  0.5843 -1.9341
  519MOL0     H70032  -3.026   2.624  11.119 -0.4220  0.3397  0.5554
  519MOL0     H70033  -2.963   2.828  11.004  3.5353 -2.9807 -0.6643
  519MOL0     H70034  -3.035   2.787  10.855  1.0023 -0.6759  0.1992
  519MOL0     H70035  -3.183   2.922  10.943  2.4587  2.7302  2.5136
  519MOL0     H70036  -3.158   2.859  11.113 -1.3442 -3.5250  0.4885
  519MOL0     H70037  -3.292   2.665  11.083 -2.4553 -1.3547 -1.1088
  519MOL0     H70038  -3.304   2.689  10.907  1.1507  0.2347 -0.1630
  519MOL0     H70039  -3.418   2.892  11.116 -1.5953  1.8591 -2.7857
  519MOL0     H70040  -3.425   2.899  10.946 -2.6088  0.6737  1.1421
  519MOL0     H70041  -3.509   2.647  10.999  0.6332 -0.0189 -0.7007
  519MOL0     H70042  -3.599   2.789  10.957  1.6525  2.5762  0.0928
  519MOL0     H70043  -3.691   2.686  11.116  1.1087  1.2580 -2.5879
  519MOL0     H70044  -3.544   2.691  11.224 -0.1067 -3.1059 -2.3242
  519MOL0     H70045  -2.560   2.736  11.136  0.2220  0.3412 -0.6291
  519MOL0     H70046  -2.360   2.773  11.053 -1.0084  3.8621  0.4966
  519MOL0     H70047  -2.130   2.790  10.427 -1.2263  2.5054  1.5315
  519MOL0     H70048  -1.876   2.738  10.378  1.7009 -3.2632  1.3616
  519MOL0     H70049  -0.341   2.760   9.612  0.4328  1.5939 -0.5718
  519MOL0     H70050  -0.209   2.875   9.421 -0.1152  1.5872  1.1485
  519MOL0     H70051   0.038   2.872   9.140 -2.8559  1.9070 -1.0590
  519MOL0     H70052   0.135   2.886   8.927 -1.7338  0.8672  0.4734
  519MOL0     H70053   0.360   3.003   8.649 -1.4034 -4.4283 -3.3936
  519MOL0     H70054   0.210   2.957   8.715 -0.3109 -0.6353  2.2030
  519MOL0     H70055   0.336   2.758   8.675 -0.4951  3.1666 -2.1893
  519MOL0     H70056   0.327   2.790   8.856  1.5433 -0.2580  1.0951
  519MOL0     H70057   0.548   2.871   8.864  2.2875 -2.9092  2.2711
  519MOL0     H70058   0.563   2.841   8.684 -2.8951  0.9874  0.2079
  519MOL0     H70059   0.515   2.638   8.901 -1.4626  3.9078  1.3198
  519MOL0     H70060   0.539   2.601   8.728 -1.8050  1.8669  0.2054
  519MOL0     H70061   0.942   2.646   8.844 -0.3612 -0.3130 -1.3628
  519MOL0     H70062   0.381   3.205   9.041 -1.0697  1.1355  0.9125
  519MOL0     H70063   0.373   3.184   9.395 -0.7427 -0.0122  0.1154
  519MOL0     H70064   0.430   3.272   9.253 -0.0199 -0.3922  0.8614
  519MOL0     H70065   0.272   3.302   9.314  0.9764  0.3496 -0.1375
  520MOL0     O70066   7.497   4.468   9.918  0.4132  0.3173 -0.0808
  520MOL0     C70067   7.553   4.572   9.943 -0.5843 -0.5289 -0.6281
  520MOL0     O70068   7.505   4.681  10.013  0.2347  0.3336 -0.2783
  520MOL0     C70069   7.387   4.648  10.075  1.1746 -0.5698  0.3812
  520MOL0     C70070   7.385   4.657  10.210  0.1324  0.5987 -0.7541
  520MOL0     C70071   7.259   4.656  10.285 -1.3375 -0.1205 -1.2302
  520MOL0     C70072   7.140   4.629  10.213  0.5727 -0.2189  0.4611
  520MOL0     O70073   7.020   4.619  10.288  0.0802  0.3998 -0.2147
  520MOL0     C70074   6.955   4.492  10.287 -0.2975  0.5686 -0.7457
  520MOL0     C70075   6.830   4.504  10.196 -0.1554  0.8940  0.3512
  520MOL0     C70076   6.746   4.383  10.182  0.6703 -0.4746 -0.2540
  520MOL0     C70077   6.637   4.412  10.081  0.4467  0.1699  0.2073
  520MOL0     C70078   6.499   4.347  10.090 -0.0782  0.2250  0.5392
  520MOL0     C70079   6.413   4.419  10.187  0.7369  0.8667 -0.1148
  520MOL0     C70080   6.267   4.357  10.195  0.0671 -0.2997 -0.0708
  520MOL0     C70081   6.183   4.439  10.299 -0.4310  0.7531  0.1400
  520MOL0     N70082   6.051   4.377  10.303  0.2448 -0.7484 -0.9293
  520MOL0     C70083   6.021   4.248  10.328 -0.1407  0.2701  1.4329
  520MOL0     C70084   5.889   4.246  10.296 -0.1665  0.0603 -0.7240
  520MOL0     C70085   5.815   4.113  10.291  0.0836 -0.7626 -0.2652
  520MOL0     C70086   5.866   4.026  10.166 -0.2110  0.2986  0.3617
  520MOL0     C70087   5.835   4.112  10.037 -0.0957 -0.1821  0.0728
  520MOL0     C70088   5.950   4.184   9.970  0.7271  0.6586 -0.0640
  520MOL0     O70089   6.070   4.100   9.979 -1.3699  0.4715  0.5942
  520MOL0     C70090   6.185   4.131   9.893 -0.0112  0.7080 -0.1398
  520MOL0     C70091   6.299   4.036   9.880  0.1605 -0.8262 -1.1263
  520MOL0     C70092   6.420   4.084   9.821 -0.9253 -0.1277  0.0714
  520MOL0     C70093   6.420   4.204   9.758  0.4954 -0.1936  1.1297
  520MOL0     C70094   6.542   4.248   9.681 -0.0653  0.3595  0.3894
  520MOL0     O70095   6.541   4.367   9.610 -0.1736 -0.4942  0.2172
  520MOL0     C70096   6.637   4.380   9.510 -0.0969 -0.9582  0.1501
  520MOL0     C70097   6.747   4.466   9.532  0.2021 -1.0257  0.5706
  520MOL0     C70098   6.849   4.485   9.432 -0.4745  0.4042 -0.2247
  520MOL0     C70099   6.844   4.420   9.311 -0.3427 -0.0321 -0.2411
  520MOL0     O70100   6.940   4.430   9.214  0.0259 -0.2945 -0.3367
  520MOL0     C70101   7.061   4.507   9.238  0.3618  0.6422 -0.4139
  520MOL0     C70102   7.141   4.510   9.116  0.9934  0.9310  0.4389
  520MOL0     C70103   7.267   4.602   9.106 -0.4987 -0.8028  0.5789
  520MOL0     C70104   7.293   4.655   8.960 -0.4204  0.0402  0.2677
  520MOL0     C70105   7.424   4.724   8.943 -0.0801  0.0833 -1.0652
  520MOL0     C70106   7.441   4.791   8.808  0.2988  0.0102 -0.7047
  520MOL0     C70107   7.587   4.851   8.789  0.3576  0.7706 -0.9688
  520MOL0     C70108   7.694   4.740   8.814 -0.4144 -0.5889 -0.2622
  520MOL0    Cl70109   7.657   4.598   8.700 -0.2270  0.4991  0.2184
  520MOL0     C70110   6.737   4.334   9.293  0.3845 -0.1279 -0.1151
  520MOL0     C70111   6.638   4.311   9.390  0.3696  0.2278 -0.7275
  520MOL0     O70112   6.643   4.177   9.684 -0.1205  0.6088 -0.0199
  520MOL0     C70113   6.306   4.297   9.764 -0.9659  0.2879 -0.6063
  520MOL0     C70114   6.197   4.260   9.837 -0.6201  0.1695  0.0241
  520MOL0     N70115   5.838   4.370  10.267 -0.0685  0.4901  0.3438
  520MOL0     N70116   5.940   4.445  10.265 -0.2692 -0.5941 -0.1222
  520MOL0     C70117   7.141   4.639  10.073 -0.4702  0.1432  0.1648
  520MOL0     C70118   7.268   4.656  10.006  0.1032 -1.4026  0.6339
  520MOL0     C70119   7.675   4.594   9.860 -0.0654 -0.6397 -1.1565
  520MOL0     C70120   7.697   4.722   9.806 -0.2009  0.6748  0.4832
  520MOL0     C70121   7.812   4.758   9.742  0.4017 -0.6532  0.3881
  520MOL0     C70122   7.896   4.665   9.698  0.1865 -0.8330 -0.3280
  520MOL0     O70123   8.010   4.729   9.645  0.0513  0.7903 -0.3868
  520MOL0     C70124   8.078   4.633   9.553  0.8117 -1.4120  0.1996
  520MOL0     C70125   8.204   4.713   9.503  0.2748 -0.3513 -0.5385
  520MOL0     C70126   8.324   4.744   9.603  0.3232  0.4920  0.6179
  520MOL0     C70127   8.391   4.613   9.658  0.4222  0.3751 -0.1334
  520MOL0     C70128   8.309   4.560   9.766  0.0756  0.5818  0.3708
  520MOL0     C70129   8.233   4.492   9.834 -0.6174  0.7947 -0.6098
  520MOL0     C70130   7.889   4.532   9.749 -0.7682 -0.8956  1.3319
  520MOL0     C70131   7.780   4.502   9.834 -0.3641 -0.5459  0.0601
  520MOL0     C70132   7.774   4.366   9.894  0.6537  0.7173  0.5991
  520MOL0     H70133   7.483   4.671  10.253  0.3607 -0.0007 -1.0707
  520MOL0     H70134   7.266   4.668  10.393  3.4711  2.3242 -1.5836
  520MOL0     H70135   7.010   4.402  10.255 -1.1944  0.4004 -1.8779
  520MOL0     H70136   6.931   4.474  10.392  0.1627  0.1396 -0.7109
  520MOL0     H70137   6.857   4.529  10.093 -2.5091 -0.5377 -0.7023
  520MOL0     H70138   6.771   4.586  10.238  0.8929  1.9160 -0.1205
  520MOL0     H70139   6.701   4.366  10.281 -0.9126  0.3804 -0.7949
  520MOL0     H70140   6.788   4.286  10.152 -2.3945 -1.3491 -2.2070
  520MOL0     H70141   6.636   4.518  10.057  1.9160 -0.5116 -3.5231
  520MOL0     H70142   6.684   4.372   9.991  1.6783 -3.9429  2.4003
  520MOL0     H70143   6.456   4.348   9.989 -1.5631  1.0781  1.1479
  520MOL0     H70144   6.493   4.245  10.129 -0.6181  0.1794  0.3483
  520MOL0     H70145   6.461   4.414  10.285  1.3498  2.8218 -0.2716
  520MOL0     H70146   6.410   4.522  10.152 -0.1920  0.3672 -1.5965
  520MOL0     H70147   6.274   4.256  10.236  2.1295 -0.6773 -1.2225
  520MOL0     H70148   6.218   4.356  10.097  2.0477 -0.7719 -1.1176
  520MOL0     H70149   6.231   4.452  10.397 -2.9186 -0.7791  1.6644
  520MOL0     H70150   6.173   4.543  10.266 -0.0223  0.2635 -1.6534
  520MOL0     H70151   6.077   4.158  10.351 -1.8437 -1.1353  0.3604
  520MOL0     H70152   5.834   4.057  10.383 -2.6401 -2.0442 -0.3940
  520MOL0     H70153   5.709   4.133  10.272  0.3975 -0.4932 -1.9050
  520MOL0     H70154   5.968   3.992  10.186 -0.3356  1.1270  2.7204
  520MOL0     H70155   5.805   3.935  10.166  3.3065 -2.2371 -0.1598
  520MOL0     H70156   5.761   4.190  10.060 -1.7808 -1.4685 -0.8314
  520MOL0     H70157   5.797   4.052   9.954  1.2509 -0.0303 -0.6808
  520MOL0     H70158   5.976   4.274  10.027  0.7316  0.7002 -0.1320
  520MOL0     H70159   5.903   4.213   9.876  0.4505  1.9575  0.4507
  520MOL0     H70160   6.272   3.951   9.942 -0.8672 -0.7090 -1.4063
  520MOL0     H70161   6.501   4.014   9.805  0.8967  2.0939 -0.9709
  520MOL0     H70162   6.746   4.524   9.623  1.5153  2.1112 -1.2323
  520MOL0     H70163   6.928   4.556   9.456 -0.2850 -0.6579  2.6393
  520MOL0     H70164   7.022   4.607   9.258 -2.3471 -0.1964 -1.0630
  520MOL0     H70165   7.109   4.457   9.323 -0.8319 -1.5656 -0.9480
  520MOL0     H70166   7.186   4.411   9.106  0.3118  0.4262  2.0096
  520MOL0     H70167   7.083   4.523   9.024 -0.1552 -1.1400  0.8067
  520MOL0     H70168   7.261   4.679   9.184  0.3016  0.1861 -0.3152
  520MOL0     H70169   7.357   4.551   9.141  1.3855  3.7377  3.2441
  520MOL0     H70170   7.213   4.724   8.936 -0.3847 -0.6207 -1.9658
  520MOL0     H70171   7.299   4.566   8.897 -2.0715  0.3520 -0.3652
  520MOL0     H70172   7.502   4.651   8.966 -2.3349 -2.0951  0.1292
  520MOL0     H70173   7.428   4.792   9.028  0.9515 -1.2112 -0.0333
  520MOL0     H70174   7.416   4.719   8.730  1.1186 -1.9725  0.7729
  520MOL0     H70175   7.365   4.870   8.810  0.1827 -0.1105 -0.0143
  520MOL0     H70176   7.610   4.927   8.865  0.4298 -0.3176  0.1367
  520MOL0     H70177   7.582   4.886   8.686 -1.2722 -1.3084 -1.6454
  520MOL0     H70178   7.791   4.789   8.798 -2.6936  3.4436 -3.9715
  520MOL0     H70179   7.689   4.713   8.919  3.7427 -3.3550 -0.5593
  520MOL0     H70180   6.728   4.287   9.196  1.1425 -1.0222  0.2444
  520MOL0     H70181   6.555   4.245   9.372 -1.4341  2.0038  0.5685
  520MOL0     H70182   6.298   4.394   9.716 -0.7681 -0.3515 -1.9634
  520MOL0     H70183   6.130   4.344   9.855  2.5403  3.0287 -0.3650
  520MOL0     H70184   7.055   4.638  10.007 -1.3250 -1.2155  1.2440
  520MOL0     H70185   7.276   4.662   9.898  0.8392  2.9270  0.7528
  520MOL0     H70186   7.620   4.792   9.836 -3.8879 -2.6672 -0.3167
  520MOL0     H70187   7.817   4.862   9.712 -0.1774 -0.4363  0.9999
  520MOL0     H70188   8.015   4.600   9.469  0.9030 -0.6412 -0.1895
  520MOL0     H70189   8.105   4.546   9.613  3.4250 -0.8771 -0.1025
  520MOL0     H70190   8.171   4.809   9.463  4.1416  0.4389 -2.3011
  520MOL0     H70191   8.234   4.653   9.416 -1.1477 -3.0105  0.6856
  520MOL0     H70192   8.301   4.803   9.692  0.7145  2.0173 -0.2660
  520MOL0     H70193   8.400   4.784   9.535 -0.7642 -4.3420 -4.2063
  520MOL0     H70194   8.402   4.541   9.576  1.7851  2.1160 -1.5658
  520MOL0     H70195   8.489   4.644   9.696  0.1853  2.6800 -1.2467
  520MOL0     H70196   8.162   4.434   9.890  0.7219  1.0354  1.4171
  520MOL0     H70197   7.960   4.452   9.734  1.0183  0.8313 -0.0006
  520MOL0     H70198   7.706   4.296   9.846 -1.2506  1.6613  1.8130
  520MOL0     H70199   7.871   4.316   9.905 -0.3170 -1.2874  0.4469
  520MOL0     H70200   7.735   4.366   9.996  1.1457 -0.2174  0.7999
  521MOL0     O70201   3.663   8.470   5.595  0.1543  0.1579  0.0275
  521MOL0     C70202   3.586   8.386   5.553 -0.0140 -0.5550 -0.3177
  521MOL0     O70203   3.623   8.277   5.482 -0.3551 -0.1423  0.4763
  521MOL0     C70204   3.757   8.246   5.491 -0.1049 -0.5268 -0.1644
  521MOL0     C70205   3.854   8.283   5.401 -0.0893  0.6993  0.0185
  521MOL0     C70206   3.987   8.243   5.422 -0.2175  0.6616 -0.6483
  521MOL0     C70207   4.017   8.148   5.521 -0.7393  0.4055 -0.1247
  521MOL0     O70208   4.143   8.091   5.506 -0.6053 -0.7045 -0.0206
  521MOL0     C70209   4.168   7.970   5.581  0.0403 -0.5415 -1.0967
  521MOL0     C70210   4.317   7.944   5.559  0.6245 -0.0891 -0.6135
  521MOL0     C70211   4.403   8.049   5.637  0.2242  0.4730  0.9522
  521MOL0     C70212   4.555   8.021   5.597  0.4127  0.1195 -0.4136
  521MOL0     C70213   4.651   8.106   5.684 -0.2659 -0.3952 -0.5064
  521MOL0     C70214   4.763   8.149   5.592  0.6790 -0.3947  0.8655
  521MOL0     C70215   4.871   8.212   5.684 -0.0125 -0.9938 -0.5009
  521MOL0     C70216   5.002   8.240   5.602 -0.9586 -0.5693  0.4790
  521MOL0     N70217   4.985   8.307   5.472  1.0059 -0.1694  0.7639
  521MOL0     C70218   4.907   8.419   5.447  0.9298  0.2129 -0.0206
  521MOL0     C70219   4.906   8.443   5.317  0.1661  0.2330 -0.0879
  521MOL0     C70220   4.850   8.555   5.240  0.2061  0.5234 -0.8687
  521MOL0     C70221   4.945   8.655   5.188  0.5036  0.8520 -0.1827
  521MOL0     C70222   4.995   8.743   5.304  0.0716 -0.6215 -0.7116
  521MOL0     C70223   5.082   8.849   5.237  0.8547 -0.5145 -0.9529
  521MOL0     O70224   5.028   8.942   5.152 -0.5483 -0.3135 -0.0940
  521MOL0     C70225   4.946   9.037   5.202  0.5127  1.0568 -1.3827
  521MOL0     C70226   4.992   9.110   5.317  0.0472  0.0072 -0.0800
  521MOL0     C70227   4.910   9.211   5.368  0.1293 -0.6012 -0.0825
  521MOL0     C70228   4.785   9.228   5.304  0.5114 -0.1652  0.3541
  521MOL0     C70229   4.703   9.341   5.359  0.4824  1.0812  0.5155
  521MOL0     O70230   4.782   9.423   5.451  0.0346 -0.6586 -0.1010
  521MOL0     C70231   4.712   9.528   5.507 -0.2366 -0.4292  0.2578
  521MOL0     C70232   4.655   9.497   5.636 -0.3309  1.3080  0.1849
  521MOL0     C70233   4.583   9.600   5.702  0.0901  0.1532  0.0330
  521MOL0     C70234   4.575   9.732   5.646  0.2723  0.0862 -0.6127
  521MOL0     O70235   4.511   9.820   5.731 -0.2570 -0.3531  0.3145
  521MOL0     C70236   4.512   9.959   5.694  0.5914 -0.3860 -0.2205
  521MOL0     C70237   4.423  10.051   5.779 -0.4949 -0.4577  0.1049
  521MOL0     C70238   4.455  10.039   5.933 -0.6049 -0.5746  0.8907
  521MOL0     C70239   4.582  10.105   5.982 -0.1974  0.5497  0.4184
  521MOL0     C70240   4.606  10.254   5.945  0.4761 -0.4045  0.7606
  521MOL0     C70241   4.495  10.340   5.976 -0.0731  0.5891  0.5139
  521MOL0     C70242   4.529  10.480   5.947 -0.6514  0.4412  0.6690
  521MOL0     C70243   4.534  10.511   5.790  0.2840  0.7926 -0.0934
  521MOL0    Cl70244   4.565  10.691   5.764 -0.4347 -0.2298 -0.1663
  521MOL0     C70245   4.636   9.757   5.518  0.2270  0.3506  0.2099
  521MOL0     C70246   4.711   9.659   5.453  0.7475 -0.5798 -0.2033
  521MOL0     O70247   4.582   9.341   5.344 -0.0361 -0.1549  0.9304
  521MOL0     C70248   4.738   9.155   5.198 -0.0541  0.4186  1.1435
  521MOL0     C70249   4.826   9.054   5.153  1.2401 -0.3909 -0.2740
  521MOL0     N70250   4.987   8.352   5.254  0.6482  0.6268 -0.3374
  521MOL0     N70251   5.027   8.269   5.345 -0.1847  0.3793  0.5765
  521MOL0     C70252   3.916   8.111   5.619  0.3165  0.6159  0.4456
  521MOL0     C70253   3.786   8.166   5.603 -0.1327 -0.5176  0.2873
  521MOL0     C70254   3.444   8.417   5.567 -0.3595  0.5517 -0.3286
  521MOL0     C70255   3.347   8.326   5.515 -0.5771 -0.1632 -0.1174
  521MOL0     C70256   3.208   8.337   5.543  1.2260  0.1069  0.0486
  521MOL0     C70257   3.160   8.439   5.621  0.7329  0.0742 -0.8603
  521MOL0     O70258   3.028   8.457   5.658  0.2766  0.3383  0.2328
  521MOL0     C70259   2.937   8.357   5.637  0.5283  0.7140  0.2157
  521MOL0     C70260   2.791   8.387   5.685 -0.0129  0.3064 -0.1866
  521MOL0     C70261   2.790   8.429   5.834  0.0260  0.1730 -0.5223
  521MOL0     C70262   2.677   8.357   5.914 -0.5366 -0.1386  0.1649
  521MOL0     C70263   2.698   8.211   5.915 -0.3299 -0.7418  1.1322
  521MOL0     C70264   2.723   8.094   5.900  0.1181 -0.1974  0.9360
  521MOL0     C70265   3.256   8.539   5.662 -0.2724 -0.2162 -0.2617
  521MOL0     C70266   3.400   8.532   5.639 -0.4127  0.4730 -1.1119
  521MOL0     C70267   3.481   8.643   5.703 -0.6222 -0.4987  0.0375
  521MOL0     H70268   3.825   8.344   5.316  0.5525 -0.2896 -0.9373
  521MOL0     H70269   4.073   8.256   5.357  0.6494  1.6011  0.6380
  521MOL0     H70270   4.146   7.976   5.688  1.2932 -0.7803 -0.8144
  521MOL0     H70271   4.103   7.898   5.530 -1.0296  1.3015 -2.4775
  521MOL0     H70272   4.333   7.949   5.451 -0.8179 -5.8984 -1.4143
  521MOL0     H70273   4.341   7.840   5.581 -0.6557 -0.6341 -1.6739
  521MOL0     H70274   4.379   8.029   5.742 -2.7687  1.8768  0.6507
  521MOL0     H70275   4.380   8.152   5.609 -0.1941 -0.1328 -1.1503
  521MOL0     H70276   4.576   7.915   5.613  0.8621  0.4506  1.3420
  521MOL0     H70277   4.554   8.062   5.495 -2.8546  1.4025  0.0192
  521MOL0     H70278   4.591   8.186   5.728  0.3326 -0.4486  0.4294
  521MOL0     H70279   4.680   8.050   5.774 -0.1567  0.2078 -0.1609
  521MOL0     H70280   4.789   8.060   5.532 -0.1022  0.0674 -0.1957
  521MOL0     H70281   4.730   8.229   5.525 -0.8249  2.4664  4.7139
  521MOL0     H70282   4.903   8.148   5.768  4.7236  1.1025 -0.3576
  521MOL0     H70283   4.833   8.301   5.735  3.5572  0.9868 -0.9197
  521MOL0     H70284   5.075   8.300   5.657  2.3455 -2.3184 -1.6905
  521MOL0     H70285   5.051   8.145   5.579  2.1130  0.7645  0.9633
  521MOL0     H70286   4.868   8.487   5.521  0.2321  1.4667 -1.5023
  521MOL0     H70287   4.787   8.515   5.159 -2.6296  3.0272 -0.0545
  521MOL0     H70288   4.772   8.602   5.300 -0.1043  0.3258 -1.1141
  521MOL0     H70289   5.031   8.612   5.136 -0.1437  0.1436 -0.6983
  521MOL0     H70290   4.894   8.710   5.108  0.9478  1.6364  0.0563
  521MOL0     H70291   5.048   8.675   5.372 -2.0487 -1.7827 -0.1538
  521MOL0     H70292   4.913   8.796   5.353  0.3579  0.2355 -1.1320
  521MOL0     H70293   5.160   8.796   5.181  0.3070 -1.9240 -0.4502
  521MOL0     H70294   5.131   8.896   5.323 -1.9164 -2.4044  1.8704
  521MOL0     H70295   5.092   9.104   5.359  0.6894 -2.6964 -1.7846
  521MOL0     H70296   4.948   9.263   5.455  0.7371 -1.0731 -0.0509
  521MOL0     H70297   4.657   9.394   5.671 -0.3467  1.8981  2.0136
  521MOL0     H70298   4.541   9.586   5.801  0.2540  3.5198  0.6694
  521MOL0     H70299   4.607  10.010   5.675  0.6928 -1.4950 -3.4004
  521MOL0     H70300   4.455   9.976   5.602  2.1571 -0.3053 -1.2123
  521MOL0     H70301   4.430  10.157   5.752  0.0415 -0.3059  0.8022
  521MOL0     H70302   4.320  10.014   5.769 -1.4728  2.2461 -0.7547
  521MOL0     H70303   4.373  10.078   5.994  0.3603  2.6203  0.3575
  521MOL0     H70304   4.468   9.933   5.958  1.4753 -0.5138  0.2477
  521MOL0     H70305   4.669  10.054   5.941  0.1497  2.0436 -0.8122
  521MOL0     H70306   4.591  10.101   6.091 -2.0153 -0.5380  0.5772
  521MOL0     H70307   4.610  10.265   5.836  0.3736 -0.5386  0.7425
  521MOL0     H70308   4.698  10.283   5.996 -0.3077  1.7188  1.0442
  521MOL0     H70309   4.407  10.299   5.926  2.2567 -1.7632 -2.0328
  521MOL0     H70310   4.474  10.334   6.083  0.8146 -0.4733  0.6574
  521MOL0     H70311   4.614  10.515   6.006 -2.4274  2.6489  2.0541
  521MOL0     H70312   4.441  10.532   5.986 -0.0051  0.9917  1.4338
  521MOL0     H70313   4.618  10.452   5.752 -0.2459 -1.1328  1.5454
  521MOL0     H70314   4.437  10.489   5.744 -0.5742  2.7541  0.6684
  521MOL0     H70315   4.637   9.846   5.455  1.1460 -2.0317 -3.4413
  521MOL0     H70316   4.754   9.674   5.355 -0.0878  1.7094 -0.2683
  521MOL0     H70317   4.640   9.168   5.152 -0.6932  0.6306  2.5178
  521MOL0     H70318   4.789   8.990   5.074  0.6527 -1.9342  1.1738
  521MOL0     H70319   3.941   8.043   5.699 -2.0788 -1.2913 -0.3023
  521MOL0     H70320   3.712   8.145   5.679  0.2652 -1.4692  0.4235
  521MOL0     H70321   3.369   8.248   5.443  1.3029  2.0278 -2.0898
  521MOL0     H70322   3.146   8.260   5.497 -0.5810  2.9951 -2.7870
  521MOL0     H70323   2.974   8.273   5.697  0.0554 -0.2206 -0.7499
  521MOL0     H70324   2.936   8.333   5.530  0.1987  2.4642 -0.2027
  521MOL0     H70325   2.730   8.298   5.664 -1.7775  0.5733  3.0533
  521MOL0     H70326   2.743   8.469   5.632  1.6586  0.4866 -1.4912
  521MOL0     H70327   2.776   8.538   5.835  0.7352  0.2745 -0.8983
  521MOL0     H70328   2.888   8.414   5.882 -0.5221 -2.5538 -0.1391
  521MOL0     H70329   2.690   8.394   6.016 -1.4057  0.1874  0.1679
  521MOL0     H70330   2.578   8.382   5.876 -0.1089  0.7771 -0.3857
  521MOL0     H70331   2.768   8.003   5.867  0.0973  0.3375 -0.6373
  521MOL0     H70332   3.205   8.618   5.716  1.5555  0.7661  0.1039
  521MOL0     H70333   3.532   8.611   5.794  1.1794 -0.1919 -0.8290
  521MOL0     H70334   3.553   8.689   5.636  1.0973 -0.1104  2.0585
  521MOL0     H70335   3.408   8.716   5.740 -0.3641 -1.0600  1.7653
  522MOL0     O70336   9.985   2.885  10.950  0.0770 -0.6346  0.0634
  522MOL0     C70337   9.878   2.945  10.933  0.0098 -0.5045  0.8490
  522MOL0     O70338   9.870   3.074  10.866  0.5698 -0.1082  0.6704
  522MOL0     C70339   9.990   3.110  10.810 -0.2059 -0.0530 -0.0808
  522MOL0     C70340  10.094   3.168  10.883  0.0017  0.1486 -0.7030
  522MOL0     C70341  10.215   3.204  10.830  0.2222 -0.1403  0.0461
  522MOL0     C70342  10.232   3.194  10.689 -0.3063 -0.0948 -0.2023
  522MOL0     O70343  10.359   3.220  10.651 -0.7348 -0.2952  0.7093
  522MOL0     C70344  10.414   3.189  10.525  0.5886 -0.7777  0.6522
  522MOL0     C70345  10.561   3.157  10.540  0.0138  1.5922  0.7065
  522MOL0     C70346  10.642   3.281  10.572 -1.0903  0.2185 -0.2424
  522MOL0     C70347  10.794   3.260  10.572 -0.8710  1.3310 -0.1043
  522MOL0     C70348  10.873   3.386  10.591 -0.3439 -0.2697  1.1161
  522MOL0     C70349  11.030   3.376  10.571  0.0495 -0.2902 -0.3230
  522MOL0     C70350  11.058   3.391  10.418 -0.0677 -0.0061 -0.4095
  522MOL0     C70351  11.205   3.390  10.371  0.0738  0.3062  1.1904
  522MOL0     N70352  11.207   3.389  10.221 -0.0708  0.1889  0.4653
  522MOL0     C70353  11.318   3.357  10.141  0.1306  0.1530 -0.9538
  522MOL0     C70354  11.294   3.413  10.027 -0.7664  0.3432  0.6349
  522MOL0     C70355  11.387   3.414   9.913  0.1402  1.0056 -0.2043
  522MOL0     C70356  11.526   3.470   9.954  1.1738 -0.0345 -0.1197
  522MOL0     C70357  11.607   3.460   9.828 -0.2350 -0.4523  0.0347
  522MOL0     C70358  11.750   3.514   9.846  0.4345  0.3643  1.1703
  522MOL0     O70359  11.818   3.525   9.717  0.2288 -0.1086 -0.1398
  522MOL0     C70360  11.951   3.535   9.724  0.6405  0.6975  0.3164
  522MOL0     C70361  12.024   3.579   9.835  0.1185  0.3226 -0.3502
  522MOL0     C70362  12.156   3.619   9.819 -0.9610  0.1755  0.6308
  522MOL0     C70363  12.221   3.595   9.695 -1.0802 -1.0137 -0.9060
  522MOL0     C70364  12.368   3.644   9.666  0.2846  0.0724 -0.2345
  522MOL0     O70365  12.419   3.634   9.543 -0.3148 -0.1456 -0.7174
  522MOL0     C70366  12.530   3.709   9.508  0.0702  0.2814  0.1423
  522MOL0     C70367  12.638   3.726   9.588 -0.6935 -0.1263  0.1681
  522MOL0     C70368  12.754   3.772   9.527  0.4193  0.3807 -0.4243
  522MOL0     C70369  12.754   3.808   9.396  0.1387  0.6027  0.6586
  522MOL0     O70370  12.869   3.858   9.340  0.0671 -0.7713 -0.3851
  522MOL0     C70371  12.914   3.981   9.397 -0.0254 -0.4172 -0.6149
  522MOL0     C70372  12.808   4.080   9.427 -0.1615  0.1567  0.3548
  522MOL0     C70373  12.751   4.131   9.293 -0.5779 -0.1053  0.2369
  522MOL0     C70374  12.685   4.260   9.325  0.4369  0.1678  0.2529
  522MOL0     C70375  12.593   4.305   9.212 -0.3691  0.5654  1.1980
  522MOL0     C70376  12.512   4.425   9.260  0.1755 -0.7260  0.1631
  522MOL0     C70377  12.393   4.466   9.162  0.0485  0.4763 -0.5418
  522MOL0     C70378  12.317   4.596   9.197 -0.9966  0.6356  0.4147
  522MOL0    Cl70379  12.181   4.593   9.092 -0.5028  0.2378 -0.4431
  522MOL0     C70380  12.653   3.770   9.310  0.7192 -1.4503  0.1505
  522MOL0     C70381  12.529   3.728   9.366  0.1196  0.0095 -0.4276
  522MOL0     O70382  12.422   3.702   9.756 -0.1496 -0.5019 -0.3674
  522MOL0     C70383  12.155   3.545   9.588  0.6750 -0.3809  0.1104
  522MOL0     C70384  12.021   3.519   9.605 -1.1223 -0.6480 -0.1385
  522MOL0     N70385  11.177   3.485  10.031  0.1363 -0.2238 -0.0715
  522MOL0     N70386  11.128   3.476  10.153 -1.2418  0.8590  0.3424
  522MOL0     C70387  10.124   3.157  10.602 -0.0863 -0.5035 -0.9020
  522MOL0     C70388  10.011   3.113  10.667  0.3462  0.4217 -0.8727
  522MOL0     C70389   9.763   2.884  10.991 -0.2725 -0.1815  0.1598
  522MOL0     C70390   9.639   2.928  10.941 -0.7053  0.2307  0.0315
  522MOL0     C70391   9.518   2.867  10.989 -0.5094  0.2128 -0.0860
  522MOL0     C70392   9.513   2.769  11.084 -0.5214 -0.3484  0.6894
  522MOL0     O70393   9.393   2.722  11.120  0.7792 -0.3934 -0.3055
  522MOL0     C70394   9.386   2.657  11.245 -0.2173 -0.8629  0.3952
  522MOL0     C70395   9.241   2.618  11.272 -0.3437  0.3241  0.5524
  522MOL0     C70396   9.228   2.519  11.388 -0.0546  0.2982 -0.7283
  522MOL0     C70397   9.091   2.464  11.415  0.4869  0.0605  0.1383
  522MOL0     C70398   8.998   2.575  11.444  0.1966 -0.5642  0.5075
  522MOL0     C70399   8.917   2.666  11.466  0.0884  1.7869  0.9468
  522MOL0     C70400   9.635   2.737  11.144  0.0635  0.1099  0.7198
  522MOL0     C70401   9.759   2.789  11.100 -0.1200 -0.9440 -0.2816
  522MOL0     C70402   9.873   2.745  11.183  0.1851  0.8065 -0.3447
  522MOL0     H70403  10.078   3.186  10.989 -0.0301  0.6998 -0.7967
  522MOL0     H70404  10.298   3.244  10.889 -0.8140  0.4062  1.1931
  522MOL0     H70405  10.355   3.107  10.483 -0.0664  0.2847 -0.5726
  522MOL0     H70406  10.401   3.274  10.457 -3.2577 -3.1081 -1.8779
  522MOL0     H70407  10.587   3.120  10.440 -0.8790  0.7621  0.7720
  522MOL0     H70408  10.596   3.077  10.606 -0.7040 -1.1792 -2.0336
  522MOL0     H70409  10.625   3.317  10.674  3.0070 -0.5639  0.9008
  522MOL0     H70410  10.617   3.360  10.500 -1.1736 -1.6834 -2.4146
  522MOL0     H70411  10.814   3.196  10.658 -2.5090  1.9642  0.7935
  522MOL0     H70412  10.828   3.224  10.474 -0.6169  2.4734 -0.4519
  522MOL0     H70413  10.831   3.462  10.525 -1.9332 -1.6868  0.4167
  522MOL0     H70414  10.861   3.420  10.694  3.0044  1.2285  1.1514
  522MOL0     H70415  11.076   3.454  10.632 -1.1013 -0.9872  1.5065
  522MOL0     H70416  11.065   3.277  10.600 -2.1615 -0.9815  0.2348
  522MOL0     H70417  11.018   3.488  10.390  1.2912  1.1333  1.4021
  522MOL0     H70418  11.010   3.308  10.364  1.4729 -0.2495 -1.4762
  522MOL0     H70419  11.269   3.468  10.415  1.4982  1.1800 -2.0836
  522MOL0     H70420  11.250   3.296  10.403  2.0583  0.3809 -1.0422
  522MOL0     H70421  11.407   3.296  10.157  0.1060  0.7546  1.9740
  522MOL0     H70422  11.394   3.309   9.883 -1.4352  0.7036  0.3825
  522MOL0     H70423  11.349   3.455   9.819  0.3720 -1.4510 -1.4489
  522MOL0     H70424  11.510   3.574   9.984 -1.2850  0.0312 -1.4054
  522MOL0     H70425  11.580   3.413  10.029 -2.5075 -5.1081 -0.7725
  522MOL0     H70426  11.574   3.524   9.746  1.3654  0.8573  0.3477
  522MOL0     H70427  11.619   3.357   9.793 -1.0254 -0.7302  0.5616
  522MOL0     H70428  11.798   3.439   9.910 -0.2262  0.6063  1.9721
  522MOL0     H70429  11.749   3.614   9.890  0.2384  1.0167 -0.2628
  522MOL0     H70430  11.977   3.597   9.932 -1.3554 -1.1962 -0.7418
  522MOL0     H70431  12.209   3.678   9.893 -3.9578  2.1592  1.3503
  522MOL0     H70432  12.636   3.730   9.696 -2.2278 -0.4180  0.1702
  522MOL0     H70433  12.848   3.783   9.579 -1.4292  0.3610  3.2199
  522MOL0     H70434  12.975   3.962   9.485  0.5089 -1.5067 -1.2042
  522MOL0     H70435  12.996   4.013   9.332  0.3938  1.3503  0.6826
  522MOL0     H70436  12.727   4.039   9.488 -1.4062  2.8901  0.6730
  522MOL0     H70437  12.851   4.169   9.475  1.2100  0.6898 -1.7296
  522MOL0     H70438  12.829   4.166   9.225 -0.4207 -2.8688 -1.1119
  522MOL0     H70439  12.690   4.063   9.233  1.2244 -0.7058 -0.9981
  522MOL0     H70440  12.763   4.337   9.329  2.1127 -1.3167 -1.8313
  522MOL0     H70441  12.631   4.259   9.420 -1.3167 -2.8976 -0.6450
  522MOL0     H70442  12.523   4.226   9.183 -1.7605  1.6138  1.5806
  522MOL0     H70443  12.652   4.333   9.124 -0.0848 -1.9988  0.5022
  522MOL0     H70444  12.470   4.393   9.356  0.9175  2.3401  1.6392
  522MOL0     H70445  12.564   4.516   9.290 -0.1459 -0.2874 -0.5746
  522MOL0     H70446  12.313   4.392   9.167  0.5911 -0.0426  1.0194
  522MOL0     H70447  12.437   4.470   9.061  1.3645  1.6950  0.0404
  522MOL0     H70448  12.272   4.594   9.297 -0.3660  3.8672  0.8815
  522MOL0     H70449  12.380   4.685   9.193  0.9611 -0.5951  2.1089
  522MOL0     H70450  12.669   3.767   9.202  5.6517  2.2099  0.3938
  522MOL0     H70451  12.451   3.702   9.294 -0.0870 -2.1211  0.4984
  522MOL0     H70452  12.196   3.550   9.488 -3.3469 -0.3815 -1.7137
  522MOL0     H70453  11.961   3.482   9.523 -1.1106 -0.9094 -0.0312
  522MOL0     H70454  10.135   3.154  10.494 -1.8152  1.7085 -1.2156
  522MOL0     H70455   9.938   3.076  10.596  0.6561 -1.1733 -0.4200
  522MOL0     H70456   9.614   3.003  10.867 -3.5106  0.8753  1.4945
  522MOL0     H70457   9.427   2.894  10.936 -0.3305 -1.4586 -1.3097
  522MOL0     H70458   9.431   2.727  11.317  2.2370 -1.9180  0.0086
  522MOL0     H70459   9.449   2.567  11.243  0.7659 -0.1803 -0.0374
  522MOL0     H70460   9.189   2.585  11.181 -0.5678  4.3969 -0.9832
  522MOL0     H70461   9.193   2.713  11.299  0.2658  0.7362  0.2044
  522MOL0     H70462   9.245   2.586  11.473 -1.3715 -0.5355  0.2379
  522MOL0     H70463   9.306   2.443  11.391 -1.1988 -0.9752  3.0788
  522MOL0     H70464   9.050   2.418  11.324  1.2355 -0.5682  0.1148
  522MOL0     H70465   9.083   2.385  11.490  3.9303 -0.0552  0.5173
  522MOL0     H70466   8.848   2.746  11.487  0.7787  2.4944  0.5571
  522MOL0     H70467   9.637   2.661  11.221 -3.0384 -2.5181 -1.5297
  522MOL0     H70468   9.842   2.697  11.276 -0.9713 -0.5519 -1.3934
  522MOL0     H70469   9.924   2.672  11.119 -0.2056  2.1419 -2.2852
  522MOL0     H70470   9.933   2.832  11.210 -2.0348  3.0629 -2.1894
  523MOL0     O70471  10.983   2.830   5.282 -0.2269  0.5715  0.3440
  523MOL0     C70472  10.900   2.914   5.329 -0.0519 -0.1387  1.0894
  523MOL0     O70473  10.912   3.049   5.318  0.7977  0.7998 -0.3967
  523MOL0     C70474  11.042   3.089   5.329 -0.2160  0.2800 -0.3845
  523MOL0     C70475  11.130   3.102   5.214  0.4759 -0.2210 -0.4700
  523MOL0     C70476  11.265   3.131   5.232  0.8602  0.5384  0.0793
  523MOL0     C70477  11.318   3.143   5.359  0.2990 -0.4741 -0.3186
  523MOL0     O70478  11.451   3.160   5.391 -0.0131  1.2750 -0.0451
  523MOL0     C70479  11.546   3.192   5.284  0.2483  0.5531 -0.4413
  523MOL0     C70480  11.683   3.231   5.337 -0.1513  0.3457  0.0569
  523MOL0     C70481  11.690   3.351   5.440 -0.4328 -0.0470 -0.1726
  523MOL0     C70482  11.674   3.494   5.383  0.2181 -0.5076  0.5533
  523MOL0     C70483  11.795   3.562   5.316  0.4098 -0.4199  0.4523
  523MOL0     C70484  11.772   3.713   5.298 -0.7160  0.3531 -0.3551
  523MOL0     C70485  11.896   3.780   5.240  0.1403  0.2834 -0.1017
  523MOL0     C70486  12.018   3.799   5.324  0.1043 -0.1847  0.0125
  523MOL0     N70487  12.125   3.854   5.249 -0.3149 -0.9328 -0.2383
  523MOL0     C70488  12.134   3.984   5.215 -0.3598 -1.5938 -0.1399
  523MOL0     C70489  12.246   3.984   5.135  1.1414 -0.1877 -0.3964
  523MOL0     C70490  12.286   4.109   5.065  0.3950  0.0257  0.5416
  523MOL0     C70491  12.417   4.152   5.113  0.2394  0.4857  0.3813
  523MOL0     C70492  12.462   4.275   5.024  0.0185 -0.0514  0.5039
  523MOL0     C70493  12.607   4.298   5.042 -0.1021  0.1787  0.4734
  523MOL0     O70494  12.624   4.422   4.983  0.1904 -0.6187  0.6561
  523MOL0     C70495  12.757   4.458   4.956  0.2902 -0.5258 -0.8207
  523MOL0     C70496  12.869   4.384   5.002 -0.3368  0.3268 -0.1555
  523MOL0     C70497  13.001   4.416   4.977 -0.1685  1.1712 -0.1244
  523MOL0     C70498  13.033   4.535   4.917 -0.4461 -0.1509  0.2517
  523MOL0     C70499  13.168   4.585   4.894  1.0525 -0.6851 -0.6854
  523MOL0     O70500  13.255   4.495   4.916  0.2647  0.2932 -0.0385
  523MOL0     C70501  13.388   4.506   4.903  0.4308 -0.7575 -0.2507
  523MOL0     C70502  13.459   4.382   4.884  0.1770  0.7861 -0.0223
  523MOL0     C70503  13.597   4.372   4.863  1.4081  0.1158 -0.6133
  523MOL0     C70504  13.669   4.492   4.864 -0.3284  0.7091  0.6515
  523MOL0     O70505  13.800   4.476   4.847  0.3123  0.6282 -0.3811
  523MOL0     C70506  13.886   4.584   4.871 -0.6324 -0.1427  0.6883
  523MOL0     C70507  14.041   4.540   4.853  0.5299  0.0320 -0.7326
  523MOL0     C70508  14.127   4.665   4.868  0.2965  0.6996 -0.1777
  523MOL0     C70509  14.265   4.656   4.803  0.6560 -0.7742 -0.3638
  523MOL0     C70510  14.335   4.788   4.797  0.0879  0.5071 -0.3103
  523MOL0     C70511  14.476   4.806   4.722 -0.0259  0.8162  1.0265
  523MOL0     C70512  14.534   4.948   4.749 -0.2337  0.4312  0.3873
  523MOL0     C70513  14.682   4.945   4.707 -0.5602 -0.8377 -0.4236
  523MOL0    Cl70514  14.699   4.892   4.544  0.7170 -0.1424  0.0762
  523MOL0     C70515  13.602   4.611   4.890 -0.3122 -0.4374  0.4919
  523MOL0     C70516  13.467   4.621   4.910  0.6931  0.6660 -0.0288
  523MOL0     O70517  13.192   4.699   4.846 -0.0162  0.1147  0.8187
  523MOL0     C70518  12.928   4.614   4.880 -0.8282 -0.5628 -0.8098
  523MOL0     C70519  12.794   4.585   4.898  0.5196  0.2750 -0.2676
  523MOL0     N70520  12.293   3.853   5.115  0.2988 -0.7815 -0.0014
  523MOL0     N70521  12.220   3.778   5.182  0.6639 -0.3167 -0.1927
  523MOL0     C70522  11.230   3.149   5.468 -0.2320  0.7015 -0.7159
  523MOL0     C70523  11.095   3.115   5.451 -0.6387 -0.2383  0.0541
  523MOL0     C70524  10.775   2.855   5.369 -0.3175 -0.0269 -0.3925
  523MOL0     C70525  10.649   2.906   5.328 -0.2716 -0.7144 -0.3053
  523MOL0     C70526  10.526   2.841   5.343 -0.8499  0.3302 -0.4738
  523MOL0     C70527  10.522   2.721   5.410  0.2013 -0.6602  0.0697
  523MOL0     O70528  10.406   2.645   5.429 -0.8280  0.1147 -0.9655
  523MOL0     C70529  10.306   2.659   5.326  0.4968  0.2017 -0.0798
  523MOL0     C70530  10.186   2.584   5.383  0.0367 -1.1802  0.5398
  523MOL0     C70531  10.208   2.435   5.376 -0.3699 -0.1378  1.0981
  523MOL0     C70532  10.110   2.337   5.447  0.7167 -0.2254  1.0440
  523MOL0     C70533   9.971   2.344   5.389 -0.6787  0.6107 -1.1716
  523MOL0     C70534   9.861   2.360   5.335  0.0680 -0.4740 -0.9862
  523MOL0     C70535  10.644   2.669   5.464  0.0519  0.6907  0.0838
  523MOL0     C70536  10.770   2.731   5.439 -0.5603  1.0456 -0.2765
  523MOL0     C70537  10.885   2.659   5.505 -0.5239 -0.0859  1.0004
  523MOL0     H70538  11.088   3.083   5.116  2.9947 -0.9376 -1.5166
  523MOL0     H70539  11.324   3.151   5.144  1.7451 -0.0628  0.5138
  523MOL0     H70540  11.567   3.098   5.232  1.4893  0.7988 -0.4163
  523MOL0     H70541  11.499   3.264   5.217 -1.8269 -1.0630 -0.8409
  523MOL0     H70542  11.757   3.244   5.257  0.2433 -0.2487  0.3210
  523MOL0     H70543  11.724   3.147   5.394  0.8719 -0.3833 -1.6504
  523MOL0     H70544  11.791   3.365   5.479 -0.4934  2.6454 -0.7591
  523MOL0     H70545  11.613   3.330   5.514  0.6975  2.2137  1.7709
  523MOL0     H70546  11.595   3.491   5.307  1.4588  1.8212 -0.9854
  523MOL0     H70547  11.646   3.565   5.461 -0.8774 -2.6358  2.1615
  523MOL0     H70548  11.887   3.547   5.374  1.0581 -0.7176 -0.6145
  523MOL0     H70549  11.820   3.514   5.221  1.8672  2.0661 -0.4882
  523MOL0     H70550  11.690   3.733   5.228 -2.9800 -0.2402  1.9652
  523MOL0     H70551  11.749   3.757   5.396  3.6850 -1.1712  1.6135
  523MOL0     H70552  11.858   3.877   5.204 -1.2585 -0.4831 -0.7759
  523MOL0     H70553  11.925   3.717   5.156 -2.6395 -0.4353 -0.6092
  523MOL0     H70554  11.985   3.873   5.397 -2.5693 -1.0043 -0.2522
  523MOL0     H70555  12.041   3.705   5.376  0.6371  1.4864  3.0425
  523MOL0     H70556  12.060   4.062   5.234  0.2171 -1.2965  0.9979
  523MOL0     H70557  12.293   4.078   4.960  0.6896  0.7448  0.3413
  523MOL0     H70558  12.210   4.187   5.066 -0.3645 -0.5297 -2.8529
  523MOL0     H70559  12.409   4.183   5.218  0.4055 -0.8838  0.8203
  523MOL0     H70560  12.491   4.072   5.112 -2.0583 -1.7664  0.9063
  523MOL0     H70561  12.410   4.364   5.063 -1.1005 -0.4659  0.0134
  523MOL0     H70562  12.438   4.254   4.920 -1.3667  3.6181 -0.0658
  523MOL0     H70563  12.672   4.221   4.999 -0.2031 -0.4290  1.3782
  523MOL0     H70564  12.623   4.313   5.149 -1.4345 -0.1545  0.7387
  523MOL0     H70565  12.879   4.290   5.054  1.6258  1.6136  1.9895
  523MOL0     H70566  13.079   4.346   5.006  0.6884  2.0001 -0.3731
  523MOL0     H70567  13.400   4.293   4.869 -0.2224  1.3482 -2.0286
  523MOL0     H70568  13.659   4.286   4.842  2.7108  0.8912 -0.1040
  523MOL0     H70569  13.868   4.660   4.794 -0.1069  1.7109  2.3330
  523MOL0     H70570  13.867   4.622   4.971 -1.8158 -0.5696  0.6495
  523MOL0     H70571  14.075   4.468   4.929 -0.2002  0.0719 -0.3562
  523MOL0     H70572  14.050   4.500   4.751 -0.9922 -0.7252 -0.6010
  523MOL0     H70573  14.084   4.746   4.808 -0.5612  1.3797  1.3018
  523MOL0     H70574  14.121   4.708   4.968  2.0625  1.8894 -0.5361
  523MOL0     H70575  14.253   4.622   4.699  2.2458  0.2042 -0.8987
  523MOL0     H70576  14.309   4.575   4.861  0.4954 -0.6047 -0.0054
  523MOL0     H70577  14.368   4.805   4.899 -0.0478  0.2215 -0.2174
  523MOL0     H70578  14.270   4.869   4.765 -6.5074 -3.2448  1.7747
  523MOL0     H70579  14.555   4.734   4.744 -1.8109 -0.5233  3.4863
  523MOL0     H70580  14.450   4.792   4.616  0.5251 -0.7863  1.0743
  523MOL0     H70581  14.514   4.971   4.854 -2.3450  0.9337 -0.0833
  523MOL0     H70582  14.488   5.029   4.693 -1.5332 -0.8656 -0.5136
  523MOL0     H70583  14.732   5.041   4.722 -1.5372 -0.2801 -0.7013
  523MOL0     H70584  14.728   4.874   4.778 -0.5448 -0.8010 -0.3967
  523MOL0     H70585  13.653   4.706   4.892 -0.8128 -0.1768  1.6423
  523MOL0     H70586  13.413   4.715   4.917  1.2398  1.0505 -0.8120
  523MOL0     H70587  12.955   4.719   4.870 -2.3895 -0.1112 -0.6547
  523MOL0     H70588  12.703   4.641   4.877  0.1253  0.0342  0.7664
  523MOL0     H70589  11.259   3.177   5.568 -0.7031 -0.5038 -0.2311
  523MOL0     H70590  11.029   3.115   5.538 -0.3605  1.7429  0.3142
  523MOL0     H70591  10.646   3.009   5.294  1.8217 -0.5090 -0.0216
  523MOL0     H70592  10.432   2.893   5.323 -2.2582 -1.6476  0.6108
  523MOL0     H70593  10.345   2.605   5.239 -1.7420 -2.1232  0.2290
  523MOL0     H70594  10.284   2.765   5.314  1.5106  0.3916 -0.3564
  523MOL0     H70595  10.097   2.604   5.323  0.5566  2.0650  0.6698
  523MOL0     H70596  10.173   2.615   5.488 -0.1530  0.5637  0.0358
  523MOL0     H70597  10.305   2.410   5.421 -0.4716  1.6433  2.3540
  523MOL0     H70598  10.218   2.408   5.270  1.3724  2.9587  0.3383
  523MOL0     H70599  10.153   2.238   5.431 -0.1408 -0.2638 -1.4987
  523MOL0     H70600  10.103   2.348   5.555 -2.3078  0.2632  0.8869
  523MOL0     H70601   9.763   2.375   5.295  0.4412  0.7466 -1.4719
  523MOL0     H70602  10.630   2.577   5.519  1.5747 -0.4662 -1.3777
  523MOL0     H70603  10.940   2.728   5.569 -0.2765  1.8173 -1.1520
  523MOL0     H70604  10.856   2.585   5.580  1.1893 -1.1403  0.6767
  523MOL0     H70605  10.943   2.611   5.426  0.2206  0.7455  1.0308
  524MOL0     O70606   6.639   1.342   6.045  0.2006  0.2371 -0.5257
  524MOL0     C70607   6.556   1.428   6.035  0.1748  0.0435  1.2096
  524MOL0     O70608   6.565   1.531   5.951  0.1967  0.1078 -0.3571
  524MOL0     C70609   6.671   1.561   5.858  0.7152 -0.1143  0.6758
  524MOL0     C70610   6.654   1.672   5.771 -0.3063  0.5385  0.2341
  524MOL0     C70611   6.759   1.729   5.691  0.1814 -0.5087  0.3038
  524MOL0     C70612   6.884   1.662   5.703  0.0756 -0.4093  1.6875
  524MOL0     O70613   7.003   1.689   5.635  0.0212  0.1823 -0.2200
  524MOL0     C70614   7.003   1.790   5.525  0.7234 -0.9995 -0.1218
  524MOL0     C70615   7.121   1.779   5.418 -0.5142  0.1941  0.1712
  524MOL0     C70616   7.227   1.888   5.445 -0.5839 -0.9396 -0.1144
  524MOL0     C70617   7.338   1.901   5.346  0.4410  0.0005 -0.3451
  524MOL0     C70618   7.432   2.019   5.371  0.1230  0.1746 -0.3171
  524MOL0     C70619   7.539   2.038   5.265  0.0264 -0.7400  0.1841
  524MOL0     C70620   7.634   2.161   5.292  0.1672  0.6590  0.5987
  524MOL0     C70621   7.710   2.132   5.423  0.3024 -0.5777 -0.6301
  524MOL0     N70622   7.820   2.233   5.422  0.6027 -0.6483 -0.9545
  524MOL0     C70623   7.936   2.230   5.353 -0.7620 -0.6469  0.0800
  524MOL0     C70624   8.017   2.327   5.405  0.4998  0.4101  0.9195
  524MOL0     C70625   8.159   2.356   5.360 -0.3497  0.9059  0.7617
  524MOL0     C70626   8.178   2.356   5.212 -0.0827  0.5662  0.1693
  524MOL0     C70627   8.315   2.394   5.171  0.0499 -0.9390 -0.2238
  524MOL0     C70628   8.314   2.442   5.019  0.7420  0.0266 -0.1446
  524MOL0     O70629   8.449   2.445   4.964 -0.0261  0.0113 -0.4382
  524MOL0     C70630   8.473   2.468   4.834 -0.7230 -0.3391 -0.0071
  524MOL0     C70631   8.382   2.510   4.735 -0.2000 -0.7249  0.3934
  524MOL0     C70632   8.429   2.556   4.605  0.2633  0.0594  0.7066
  524MOL0     C70633   8.564   2.551   4.576 -0.4096 -0.1988  0.3161
  524MOL0     C70634   8.615   2.592   4.448 -0.3274  0.1478  0.2878
  524MOL0     O70635   8.526   2.633   4.360  0.0667 -0.2456  0.1743
  524MOL0     C70636   8.569   2.686   4.240 -0.4376 -0.4947 -0.2079
  524MOL0     C70637   8.651   2.630   4.135 -0.0529  1.0991 -0.1583
  524MOL0     C70638   8.687   2.702   4.023  0.3824  0.6351 -0.6572
  524MOL0     C70639   8.637   2.826   4.001  0.1287  0.8831 -0.6639
  524MOL0     O70640   8.673   2.897   3.890 -0.1609  0.5594  0.1634
  524MOL0     C70641   8.615   3.031   3.856 -0.1063  0.3659  0.3749
  524MOL0     C70642   8.705   3.126   3.775  0.1207 -0.7193 -0.0122
  524MOL0     C70643   8.800   3.209   3.850 -0.9919  0.0667 -0.6527
  524MOL0     C70644   8.951   3.204   3.794 -0.0513 -0.0758 -0.7194
  524MOL0     C70645   9.061   3.195   3.896 -1.0730  0.4469 -0.6609
  524MOL0     C70646   9.192   3.143   3.827  0.2849 -0.3898 -0.6055
  524MOL0     C70647   9.271   3.064   3.931 -0.3415 -0.3442  0.2453
  524MOL0     C70648   9.397   3.009   3.869 -0.7965 -0.1088 -0.3397
  524MOL0    Cl70649   9.350   2.882   3.759 -0.2458  0.3315 -0.0961
  524MOL0     C70650   8.547   2.882   4.098  0.2058  0.0987 -0.1221
  524MOL0     C70651   8.519   2.813   4.216  0.1976 -0.8144  0.4113
  524MOL0     O70652   8.732   2.594   4.438 -0.3011  0.3347 -0.0717
  524MOL0     C70653   8.648   2.487   4.668 -0.6842  0.0836 -0.9148
  524MOL0     C70654   8.610   2.449   4.802 -0.2840 -1.0727 -0.2796
  524MOL0     N70655   7.944   2.375   5.512 -0.0696  0.3705 -0.2001
  524MOL0     N70656   7.834   2.313   5.531  0.1034  0.5753 -0.5378
  524MOL0     C70657   6.894   1.554   5.781 -1.0991  0.2849 -0.7707
  524MOL0     C70658   6.792   1.507   5.856  0.4340  0.2270  0.0052
  524MOL0     C70659   6.435   1.395   6.102 -0.1725  0.2865 -0.6086
  524MOL0     C70660   6.427   1.414   6.245 -0.7375  0.3869  0.1023
  524MOL0     C70661   6.306   1.407   6.309  1.0336  0.6305  0.6922
  524MOL0     C70662   6.188   1.367   6.237 -0.6017  0.8638  0.0808
  524MOL0     O70663   6.059   1.350   6.283 -0.5944  0.2155  0.8590
  524MOL0     C70664   6.040   1.378   6.425 -0.2947  0.6070 -0.3594
  524MOL0     C70665   5.897   1.364   6.467  0.1093  0.2360 -0.0069
  524MOL0     C70666   5.892   1.367   6.623  0.0247  0.1665  0.0761
  524MOL0     C70667   5.752   1.424   6.674  0.3580  0.0742 -0.0149
  524MOL0     C70668   5.629   1.343   6.635 -0.7067  0.0332 -0.1286
  524MOL0     C70669   5.522   1.284   6.613 -0.5951 -0.0343  0.8658
  524MOL0     C70670   6.207   1.324   6.100  0.0363  1.0315 -0.3000
  524MOL0     C70671   6.327   1.337   6.036 -0.0129  0.3933 -0.2165
  524MOL0     C70672   6.330   1.300   5.882  0.5552  0.0917 -0.0840
  524MOL0     H70673   6.557   1.720   5.778 -1.3207 -1.4532  0.3331
  524MOL0     H70674   6.748   1.815   5.627  0.8674  0.0079  0.8594
  524MOL0     H70675   6.918   1.763   5.462  1.0745  1.8127 -1.9501
  524MOL0     H70676   6.983   1.890   5.565  2.0049 -0.7795  0.0071
  524MOL0     H70677   7.083   1.794   5.316 -0.6822 -2.6144 -0.2732
  524MOL0     H70678   7.157   1.676   5.415  1.9930  1.0104  0.0453
  524MOL0     H70679   7.260   1.892   5.550 -0.7571 -1.3453 -0.0395
  524MOL0     H70680   7.176   1.983   5.428  2.0091  0.6548  0.3791
  524MOL0     H70681   7.401   1.812   5.355  1.8726  0.5454 -3.4901
  524MOL0     H70682   7.308   1.913   5.241 -0.3590  2.1665  0.0875
  524MOL0     H70683   7.374   2.111   5.381  2.1862  1.6266 -0.9721
  524MOL0     H70684   7.469   2.008   5.474 -6.2089  1.0834  2.5135
  524MOL0     H70685   7.594   1.943   5.269  1.8470  0.3115  1.8552
  524MOL0     H70686   7.498   2.052   5.164 -2.5712 -2.1570  0.9712
  524MOL0     H70687   7.566   2.247   5.296  1.7700  2.2099 -1.9672
  524MOL0     H70688   7.704   2.167   5.207  1.4188 -1.4250  1.4068
  524MOL0     H70689   7.653   2.140   5.516  1.1583 -3.9341  0.3270
  524MOL0     H70690   7.745   2.029   5.429 -0.2069 -0.6737  2.2994
  524MOL0     H70691   7.962   2.167   5.268 -0.7252  1.8954 -1.9116
  524MOL0     H70692   8.181   2.459   5.392  1.3669  0.7585  0.1595
  524MOL0     H70693   8.226   2.282   5.405 -0.1098 -0.8339 -2.1628
  524MOL0     H70694   8.144   2.264   5.163 -1.8779  1.9100 -1.2344
  524MOL0     H70695   8.116   2.441   5.182 -2.7637 -1.3337  0.0470
  524MOL0     H70696   8.382   2.308   5.173 -0.0219 -0.9836  0.3049
  524MOL0     H70697   8.357   2.476   5.230 -1.6714  1.1867 -1.7920
  524MOL0     H70698   8.277   2.543   4.999 -0.2148 -0.1743  0.4935
  524MOL0     H70699   8.252   2.370   4.964 -0.2815 -0.6068  1.7620
  524MOL0     H70700   8.280   2.527   4.765  0.4599  1.0493  1.7953
  524MOL0     H70701   8.360   2.599   4.533 -1.0826 -2.6726  0.2522
  524MOL0     H70702   8.674   2.525   4.147 -0.3360  0.9989 -0.4732
  524MOL0     H70703   8.747   2.647   3.952 -2.3073 -1.5144 -1.4258
  524MOL0     H70704   8.525   2.998   3.803 -0.3036 -0.4775  1.2035
  524MOL0     H70705   8.578   3.087   3.942 -0.7569  3.6427 -1.8657
  524MOL0     H70706   8.747   3.072   3.690 -1.9246 -0.4971 -1.2121
  524MOL0     H70707   8.638   3.196   3.725  0.9440  0.9702  1.1369
  524MOL0     H70708   8.756   3.305   3.877  1.0821 -0.0212  4.1301
  524MOL0     H70709   8.809   3.166   3.950 -1.6203  2.1950  0.3658
  524MOL0     H70710   8.970   3.296   3.738 -4.9233 -0.3736 -3.4363
  524MOL0     H70711   8.957   3.125   3.719 -0.4824 -0.4400 -0.3798
  524MOL0     H70712   9.026   3.117   3.964  2.1589 -2.2604 -1.8496
  524MOL0     H70713   9.083   3.279   3.963 -2.7251  0.5222 -0.1669
  524MOL0     H70714   9.164   3.075   3.746  2.9020 -0.3371 -1.6480
  524MOL0     H70715   9.250   3.219   3.773 -0.1982 -0.5850 -1.4159
  524MOL0     H70716   9.205   2.986   3.970 -0.6812 -1.0572 -1.6697
  524MOL0     H70717   9.304   3.132   4.011 -0.3999 -0.5273  0.4270
  524MOL0     H70718   9.453   3.088   3.818  0.2569  0.2306  1.2434
  524MOL0     H70719   9.466   2.966   3.943  0.4997  0.8651 -0.9430
  524MOL0     H70720   8.496   2.976   4.079  0.6388 -0.2947 -4.0990
  524MOL0     H70721   8.454   2.842   4.298 -1.9647  0.4881 -1.6271
  524MOL0     H70722   8.753   2.467   4.650  0.1630  1.6515  1.8491
  524MOL0     H70723   8.690   2.427   4.873  1.3220  1.9752 -0.9258
  524MOL0     H70724   6.989   1.502   5.789 -1.9220 -1.3111 -0.9467
  524MOL0     H70725   6.826   1.430   5.924 -1.5736 -0.3895  0.3851
  524MOL0     H70726   6.505   1.466   6.300 -0.6434  2.5933 -1.9017
  524MOL0     H70727   6.303   1.448   6.410  1.5713  1.9691  0.1758
  524MOL0     H70728   6.076   1.480   6.443 -2.1520  1.0322  1.2581
  524MOL0     H70729   6.099   1.306   6.482 -0.4101 -2.2655 -3.5315
  524MOL0     H70730   5.858   1.268   6.434 -1.8104  1.0150 -0.1815
  524MOL0     H70731   5.840   1.448   6.424  1.7280  3.4272  3.4795
  524MOL0     H70732   5.975   1.414   6.677 -0.6276  1.5778 -0.0916
  524MOL0     H70733   5.886   1.260   6.640 -2.1968  0.3096  0.4783
  524MOL0     H70734   5.760   1.440   6.782  0.8299  0.0070 -0.0337
  524MOL0     H70735   5.759   1.525   6.633  0.9590  0.5100  1.1260
  524MOL0     H70736   5.431   1.229   6.597 -0.3415 -0.6176  1.4184
  524MOL0     H70737   6.127   1.286   6.039 -0.5878  2.3897 -0.3679
  524MOL0     H70738   6.301   1.384   5.818 -2.6187 -2.3569 -2.1889
  524MOL0     H70739   6.428   1.266   5.848  0.3617  1.6015 -2.4283
  524MOL0     H70740   6.284   1.203   5.863  1.6714 -0.9890  2.3013
  525MOL0     O70741   5.996   5.111   0.530 -0.6163  0.2771 -0.2846
  525MOL0     C70742   5.946   5.217   0.555 -0.3714  0.0021  0.6275
  525MOL0     O70743   6.004   5.305   0.644 -0.0759 -0.8067 -0.2045
  525MOL0     C70744   6.123   5.299   0.703  1.1589 -0.9094  0.5987
  525MOL0     C70745   6.178   5.181   0.753 -0.5428  0.3255 -0.0665
  525MOL0     C70746   6.306   5.177   0.818  0.4276  0.2025  0.8156
  525MOL0     C70747   6.379   5.299   0.821  0.5849  0.7724 -0.0809
  525MOL0     O70748   6.508   5.318   0.873 -0.3431  0.0564  0.3201
  525MOL0     C70749   6.575   5.211   0.933 -1.0688 -0.2727  0.5416
  525MOL0     C70750   6.505   5.174   1.073 -0.0004  0.3386  0.6108
  525MOL0     C70751   6.487   5.288   1.176  0.0131  1.1095  0.0590
  525MOL0     C70752   6.443   5.235   1.314  0.1289 -0.2264  0.0270
  525MOL0     C70753   6.550   5.146   1.381  0.8956 -0.7805  0.0304
  525MOL0     C70754   6.669   5.248   1.408  0.4326  0.6547 -0.7484
  525MOL0     C70755   6.775   5.188   1.501 -0.9607  1.1191  0.0461
  525MOL0     C70756   6.920   5.219   1.459 -0.5641  0.3635 -0.4055
  525MOL0     N70757   6.971   5.131   1.352  0.4183 -0.2920 -0.8557
  525MOL0     C70758   6.995   5.003   1.367  1.0289  0.7454 -0.3066
  525MOL0     C70759   7.008   4.947   1.242 -0.2828 -0.1978  0.5329
  525MOL0     C70760   7.048   4.803   1.206  0.0142 -0.4715 -0.2979
  525MOL0     C70761   7.199   4.788   1.184 -0.9643 -0.2647 -0.0365
  525MOL0     C70762   7.225   4.667   1.092  0.7120 -0.8336  0.2698
  525MOL0     C70763   7.370   4.648   1.078 -0.3816 -0.3725 -0.1401
  525MOL0     O70764   7.408   4.567   1.189  0.0100  1.0178 -0.0344
  525MOL0     C70765   7.546   4.541   1.201  0.2868 -0.3695  1.2780
  525MOL0     C70766   7.643   4.599   1.109  0.1936 -0.3876 -0.4574
  525MOL0     C70767   7.777   4.571   1.131 -0.0909  0.3528  0.0215
  525MOL0     C70768   7.825   4.479   1.230 -0.5111 -0.5908  1.5613
  525MOL0     C70769   7.961   4.464   1.258  0.0754 -0.3841  0.3230
  525MOL0     O70770   8.051   4.548   1.196  1.4320 -0.7235 -0.4471
  525MOL0     C70771   8.183   4.537   1.229 -0.3593 -0.4112  0.1375
  525MOL0     C70772   8.249   4.416   1.232  0.2262  0.1374 -0.1896
  525MOL0     C70773   8.389   4.409   1.228  0.3387  0.3935  0.0352
  525MOL0     C70774   8.470   4.517   1.245 -1.2111 -0.4064 -0.1679
  525MOL0     O70775   8.607   4.488   1.255  0.9366  0.3057 -0.5148
  525MOL0     C70776   8.680   4.573   1.341  0.0203  0.3282 -0.3634
  525MOL0     C70777   8.827   4.534   1.360 -0.3885 -0.2594  0.8543
  525MOL0     C70778   8.914   4.514   1.237 -0.5940  0.4088 -0.1419
  525MOL0     C70779   9.055   4.487   1.274 -0.7297 -0.7377  0.8835
  525MOL0     C70780   9.145   4.463   1.152 -0.4382 -0.7733  0.8339
  525MOL0     C70781   9.184   4.324   1.157 -0.6432  0.1970 -0.0139
  525MOL0     C70782   9.288   4.285   1.047  0.8992  0.1183 -0.0280
  525MOL0     C70783   9.358   4.153   1.072 -1.0654  0.0001 -0.7955
  525MOL0    Cl70784   9.425   4.125   1.233 -0.0488 -0.1152  0.2081
  525MOL0     C70785   8.400   4.645   1.269  0.4364  0.3997 -0.1746
  525MOL0     C70786   8.261   4.656   1.247  0.0315  0.9173  0.7757
  525MOL0     O70787   7.982   4.371   1.328  0.4945  0.7959 -0.0779
  525MOL0     C70788   7.727   4.416   1.313 -0.0071  0.2395  0.4290
  525MOL0     C70789   7.599   4.448   1.296  0.2420  0.1425 -0.4929
  525MOL0     N70790   6.994   5.054   1.154 -0.3895 -0.0778  0.2443
  525MOL0     N70791   6.965   5.157   1.220 -0.1236 -0.2074  0.4331
  525MOL0     C70792   6.316   5.419   0.770 -0.7298  0.3488  0.3413
  525MOL0     C70793   6.192   5.419   0.712  0.4884 -0.6582  0.0383
  525MOL0     C70794   5.818   5.259   0.507  0.5543 -0.1463 -1.3057
  525MOL0     C70795   5.732   5.313   0.598 -0.2925 -0.2169  0.4388
  525MOL0     C70796   5.596   5.336   0.555 -0.0802  0.7002 -0.0165
  525MOL0     C70797   5.555   5.313   0.422  0.6443  1.0819  0.7069
  525MOL0     O70798   5.423   5.337   0.372 -0.9100  0.3385 -0.1488
  525MOL0     C70799   5.308   5.306   0.453 -0.2091  0.0811 -0.1184
  525MOL0     C70800   5.194   5.394   0.399 -0.3552  0.1411 -0.2522
  525MOL0     C70801   5.146   5.323   0.271 -0.2703 -0.2210 -0.5850
  525MOL0     C70802   5.068   5.427   0.192 -0.4777 -0.2898  0.5426
  525MOL0     C70803   4.942   5.463   0.258 -0.2384 -0.3473 -0.0917
  525MOL0     C70804   4.833   5.494   0.305  0.1013 -0.9826 -0.4450
  525MOL0     C70805   5.640   5.259   0.326  0.4210  0.1444  0.2344
  525MOL0     C70806   5.769   5.229   0.374  0.7577  0.9191  0.2885
  525MOL0     C70807   5.853   5.157   0.273 -0.4736 -0.3141  1.2658
  525MOL0     H70808   6.121   5.089   0.743 -1.1795  0.8950 -2.2597
  525MOL0     H70809   6.338   5.078   0.850  1.7814 -0.0745 -1.2315
  525MOL0     H70810   6.579   5.134   0.857  2.7196  1.6911 -1.5211
  525MOL0     H70811   6.678   5.239   0.958 -1.2054  0.7838 -0.0422
  525MOL0     H70812   6.564   5.091   1.113  1.4831  0.1384 -1.7970
  525MOL0     H70813   6.406   5.128   1.061  1.1322 -1.7173 -1.7862
  525MOL0     H70814   6.406   5.354   1.142 -0.2700  1.0246  0.5515
  525MOL0     H70815   6.579   5.347   1.173 -0.1395  1.3068 -1.1469
  525MOL0     H70816   6.419   5.328   1.367 -1.8631  0.0787 -1.3186
  525MOL0     H70817   6.352   5.175   1.303  0.2086 -0.3807  0.1979
  525MOL0     H70818   6.509   5.101   1.472  0.0950 -0.9272 -0.3980
  525MOL0     H70819   6.583   5.060   1.322  2.2519 -2.0496  2.4577
  525MOL0     H70820   6.719   5.290   1.320  1.0529 -0.3340 -0.8964
  525MOL0     H70821   6.629   5.332   1.464  1.0259  0.3402  0.1785
  525MOL0     H70822   6.770   5.079   1.512 -0.9546  1.2554  1.5277
  525MOL0     H70823   6.750   5.234   1.597 -1.1216  1.7476 -0.2944
  525MOL0     H70824   6.914   5.320   1.419  0.4280  2.3950  3.9784
  525MOL0     H70825   6.981   5.219   1.550  1.4846  1.7147 -1.7037
  525MOL0     H70826   7.024   4.956   1.461  2.0519  1.3035 -0.3305
  525MOL0     H70827   7.012   4.729   1.277  1.6850  0.3880  1.5624
  525MOL0     H70828   6.988   4.782   1.118 -3.6730  2.9253  1.0806
  525MOL0     H70829   7.229   4.877   1.129 -0.8352 -2.2970 -3.5518
  525MOL0     H70830   7.244   4.783   1.284 -0.3901 -1.1488 -0.3275
  525MOL0     H70831   7.186   4.681   0.991  4.5730 -4.3908 -2.0130
  525MOL0     H70832   7.173   4.578   1.127  0.7212 -0.9033  0.1069
  525MOL0     H70833   7.413   4.749   1.076 -0.9996 -0.1098 -0.6773
  525MOL0     H70834   7.386   4.597   0.983 -0.8345 -1.5517  0.3925
  525MOL0     H70835   7.607   4.668   1.033 -4.8389 -1.0064  1.0264
  525MOL0     H70836   7.846   4.626   1.068 -0.9564  0.0845 -1.2064
  525MOL0     H70837   8.206   4.318   1.213 -0.7592  0.3875  0.6966
  525MOL0     H70838   8.438   4.312   1.224 -2.2755 -1.2746  3.3563
  525MOL0     H70839   8.681   4.673   1.295  2.7111 -0.0611 -1.3152
  525MOL0     H70840   8.633   4.595   1.437 -1.4731  0.9074 -1.1858
  525MOL0     H70841   8.869   4.607   1.430 -3.6001  1.8451  0.7619
  525MOL0     H70842   8.837   4.443   1.420  0.3495 -0.2048  0.8287
  525MOL0     H70843   8.866   4.425   1.194 -1.9430 -0.5978  3.1278
  525MOL0     H70844   8.909   4.602   1.172  1.6057  0.0740 -0.8542
  525MOL0     H70845   9.075   4.419   1.358 -0.9220  0.6061  2.0537
  525MOL0     H70846   9.086   4.583   1.318 -1.4196 -1.3160  2.7435
  525MOL0     H70847   9.239   4.518   1.163 -0.6611 -0.3453  0.6194
  525MOL0     H70848   9.108   4.489   1.053  0.9920 -1.2098  0.1566
  525MOL0     H70849   9.227   4.292   1.252 -1.4363 -0.2164  0.2236
  525MOL0     H70850   9.093   4.263   1.155  0.5812 -1.7120 -1.0144
  525MOL0     H70851   9.358   4.366   1.025  0.3762  0.5757 -0.0386
  525MOL0     H70852   9.232   4.284   0.952 -2.8632  4.3447  1.7991
  525MOL0     H70853   9.281   4.077   1.059 -1.3499  0.0593  0.4678
  525MOL0     H70854   9.436   4.136   0.998 -0.1879  1.4557 -0.2524
  525MOL0     H70855   8.455   4.738   1.278 -0.3826  0.8629  0.0819
  525MOL0     H70856   8.205   4.748   1.234  1.8805  1.9390 -0.2891
  525MOL0     H70857   7.744   4.325   1.369 -0.2493 -0.5084 -0.6790
  525MOL0     H70858   7.535   4.399   1.369  1.3027 -1.4227 -0.5587
  525MOL0     H70859   6.363   5.516   0.778 -1.5892  0.8688 -0.6528
  525MOL0     H70860   6.149   5.504   0.660 -2.9086 -2.4644 -0.4094
  525MOL0     H70861   5.765   5.339   0.699  3.2614  0.5455 -0.7630
  525MOL0     H70862   5.515   5.361   0.623 -0.2623 -2.8078  1.2485
  525MOL0     H70863   5.324   5.319   0.560  1.6465  1.3573 -0.5100
  525MOL0     H70864   5.288   5.198   0.444  0.6148  0.0033 -1.2998
  525MOL0     H70865   5.218   5.498   0.372 -2.6833  0.5133 -1.1138
  525MOL0     H70866   5.107   5.400   0.464 -2.2088  0.2740 -2.5899
  525MOL0     H70867   5.093   5.231   0.297 -0.9783  0.9147  2.3949
  525MOL0     H70868   5.229   5.297   0.205 -0.8272 -0.3463 -1.2423
  525MOL0     H70869   5.133   5.515   0.186  0.8595 -1.3283 -0.7687
  525MOL0     H70870   5.049   5.389   0.091 -0.2774 -1.3460  0.8848
  525MOL0     H70871   4.749   5.536   0.357 -0.0017  2.5016 -3.0753
  525MOL0     H70872   5.613   5.239   0.223 -0.5976  3.2947 -0.2157
  525MOL0     H70873   5.941   5.215   0.245 -0.6305 -1.5029 -2.0243
  525MOL0     H70874   5.884   5.061   0.315  1.6199 -0.5006 -0.5138
  525MOL0     H70875   5.797   5.143   0.180  1.5360  3.2004 -0.6703
  526MOL0     O70876   2.010   7.633   0.234  0.2000 -0.0944 -1.2030
  526MOL0     C70877   2.100   7.576   0.180 -0.2675  0.0197  0.0715
  526MOL0     O70878   2.091   7.457   0.118  1.2100 -0.6011  0.2121
  526MOL0     C70879   1.970   7.430   0.066 -0.1519 -0.4535  1.0459
  526MOL0     C70880   1.954   7.435  -0.072 -0.2001  0.0583  0.1127
  526MOL0     C70881   1.839   7.381  -0.126  0.1565  0.9191  0.4425
  526MOL0     C70882   1.735   7.324  -0.046  0.5384 -0.3766 -0.6547
  526MOL0     O70883   1.636   7.257  -0.114 -0.4067  0.5343  0.4718
  526MOL0     C70884   1.564   7.144  -0.054  0.2103 -0.1770 -0.1973
  526MOL0     C70885   1.423   7.184  -0.045  0.2290  0.3757  0.8543
  526MOL0     C70886   1.395   7.290   0.056  0.2750  0.1080 -0.1559
  526MOL0     C70887   1.246   7.294   0.101 -1.0172 -0.4660  0.5370
  526MOL0     C70888   1.223   7.431   0.166 -0.3988 -0.5787  0.9347
  526MOL0     C70889   1.085   7.444   0.215 -0.2519 -0.3103  0.2202
  526MOL0     C70890   0.982   7.460   0.108 -0.1207  0.1014 -0.3530
  526MOL0     C70891   0.840   7.418   0.156 -0.3243 -0.7031 -0.3332
  526MOL0     N70892   0.754   7.407   0.031 -0.1529  0.2205 -0.4000
  526MOL0     C70893   0.780   7.320  -0.073  0.6215  0.4007 -0.2838
  526MOL0     C70894   0.707   7.370  -0.169  0.2577  0.7359  0.6480
  526MOL0     C70895   0.682   7.288  -0.298 -0.7762  0.2721  0.6528
  526MOL0     C70896   0.787   7.320  -0.408 -0.0314 -0.6345  0.1350
  526MOL0     C70897   0.913   7.238  -0.392 -0.6703 -0.0334  0.0295
  526MOL0     C70898   1.025   7.314  -0.472  1.1449 -0.2332  0.8276
  526MOL0     O70899   1.136   7.224  -0.461 -0.4512 -0.3646  0.7119
  526MOL0     C70900   1.262   7.262  -0.505  1.3231 -0.0460  0.2936
  526MOL0     C70901   1.287   7.394  -0.556  0.0171 -0.2585 -0.2741
  526MOL0     C70902   1.430   7.431  -0.556  0.0954 -0.4910  0.1168
  526MOL0     C70903   1.536   7.348  -0.536 -0.1416 -0.4884 -0.0329
  526MOL0     C70904   1.666   7.396  -0.554 -0.2902  0.1534  0.2415
  526MOL0     O70905   1.689   7.527  -0.596 -0.2483  0.7245 -0.6225
  526MOL0     C70906   1.819   7.556  -0.632  1.5752 -0.7250  0.4231
  526MOL0     C70907   1.879   7.660  -0.556  0.1519  0.1946 -0.1239
  526MOL0     C70908   2.000   7.722  -0.602 -0.3911  0.4187 -0.3888
  526MOL0     C70909   2.074   7.668  -0.710  1.2251 -0.4578 -0.4454
  526MOL0     O70910   2.189   7.717  -0.767  0.3791 -0.0562 -0.3143
  526MOL0     C70911   2.288   7.777  -0.687  0.1691 -0.2530 -0.4357
  526MOL0     C70912   2.416   7.806  -0.767 -0.9904  0.2816  0.0448
  526MOL0     C70913   2.440   7.959  -0.775 -0.9907 -0.4178 -0.0401
  526MOL0     C70914   2.566   7.980  -0.839 -0.0542  0.5668 -1.0807
  526MOL0     C70915   2.610   8.124  -0.846  0.3177 -0.2921  0.3733
  526MOL0     C70916   2.531   8.197  -0.958 -0.1185 -0.2103 -0.3480
  526MOL0     C70917   2.569   8.346  -0.971  0.0804 -0.2255 -0.2890
  526MOL0     C70918   2.458   8.426  -1.045 -0.2827 -0.3442 -0.4604
  526MOL0    Cl70919   2.416   8.348  -1.201 -0.0529 -0.2107  0.0435
  526MOL0     C70920   2.015   7.554  -0.777 -0.3205 -0.0344  0.1816
  526MOL0     C70921   1.883   7.515  -0.747 -0.2558 -0.1423 -0.3526
  526MOL0     O70922   1.746   7.304  -0.555 -0.4073 -0.3740 -0.2918
  526MOL0     C70923   1.503   7.217  -0.494 -0.3098 -0.8265  0.6769
  526MOL0     C70924   1.369   7.182  -0.467  0.0435  0.1752  0.2782
  526MOL0     N70925   0.623   7.461  -0.117  0.4004  0.1328  0.8565
  526MOL0     N70926   0.653   7.496   0.001 -1.1208 -0.3275 -0.3641
  526MOL0     C70927   1.756   7.317   0.089  0.3509 -0.5579 -0.7544
  526MOL0     C70928   1.875   7.358   0.143 -0.4154  0.2187 -0.0337
  526MOL0     C70929   2.235   7.642   0.189 -0.4492 -0.4666  0.3712
  526MOL0     C70930   2.340   7.579   0.114  0.5878  1.0439 -0.5881
  526MOL0     C70931   2.476   7.620   0.109  0.1971  0.7416 -0.0870
  526MOL0     C70932   2.517   7.734   0.176  1.9957 -0.1447  1.0089
  526MOL0     O70933   2.647   7.777   0.181 -0.1462  0.2435 -0.0121
  526MOL0     C70934   2.657   7.923   0.189 -0.2002  0.3055  1.1088
  526MOL0     C70935   2.791   7.962   0.119  1.3181  0.5561  1.1285
  526MOL0     C70936   2.834   8.109   0.142 -0.1806 -1.0805  0.3133
  526MOL0     C70937   2.958   8.140   0.058  0.4098 -0.9441 -0.3417
  526MOL0     C70938   3.001   8.278   0.078 -0.2163 -0.5053 -0.6626
  526MOL0     C70939   3.020   8.394   0.106 -0.3065  0.3957  0.7620
  526MOL0     C70940   2.411   7.799   0.247  0.4107  0.0759  0.3545
  526MOL0     C70941   2.272   7.756   0.257  0.7989 -0.6375 -0.6603
  526MOL0     C70942   2.184   7.859   0.333  0.3357 -0.0078 -1.4981
  526MOL0     H70943   2.032   7.486  -0.128  1.8369 -0.4453  2.3555
  526MOL0     H70944   1.815   7.377  -0.232  1.1942 -0.4560  0.2234
  526MOL0     H70945   1.567   7.059  -0.123  2.6455  1.9594 -2.9884
  526MOL0     H70946   1.600   7.117   0.046 -0.3120  1.8406  0.5736
  526MOL0     H70947   1.361   7.095  -0.030  0.0018  0.4293  0.2968
  526MOL0     H70948   1.398   7.217  -0.147  0.3763  2.5316  1.4644
  526MOL0     H70949   1.422   7.388   0.016 -1.3140  0.8888  0.5937
  526MOL0     H70950   1.451   7.275   0.148 -1.7325  0.5399  1.2143
  526MOL0     H70951   1.186   7.277   0.012 -1.4739 -0.0711  0.7659
  526MOL0     H70952   1.230   7.208   0.167 -1.0138 -0.1644  0.9399
  526MOL0     H70953   1.294   7.440   0.248  2.5965 -1.8696 -1.3146
  526MOL0     H70954   1.246   7.515   0.101  0.8765 -1.9713 -0.4900
  526MOL0     H70955   1.070   7.362   0.286 -2.6689 -0.5926 -0.5038
  526MOL0     H70956   1.080   7.538   0.271  0.7694  0.0874 -0.3406
  526MOL0     H70957   1.003   7.411   0.012 -0.1504  3.2098 -2.0694
  526MOL0     H70958   0.987   7.566   0.080 -1.8946  0.8992  2.0464
  526MOL0     H70959   0.840   7.317   0.198 -2.4879  0.0029  1.5673
  526MOL0     H70960   0.808   7.487   0.235 -0.2465 -1.4314  0.3475
  526MOL0     H70961   0.833   7.225  -0.078 -0.8720 -0.4112 -2.9456
  526MOL0     H70962   0.694   7.181  -0.279  3.1341 -0.0991 -2.4342
  526MOL0     H70963   0.584   7.319  -0.335 -0.1427  1.0197 -0.4573
  526MOL0     H70964   0.737   7.286  -0.499  0.4955  1.7178 -1.1094
  526MOL0     H70965   0.812   7.426  -0.418 -3.2330  0.3047  0.7627
  526MOL0     H70966   0.905   7.133  -0.421  0.7840 -0.5665  1.4029
  526MOL0     H70967   0.959   7.241  -0.293  2.3094  0.9339 -1.2478
  526MOL0     H70968   1.037   7.410  -0.420 -1.3765 -0.2934  1.6498
  526MOL0     H70969   1.003   7.324  -0.579  1.3694  2.2850  0.9531
  526MOL0     H70970   1.213   7.469  -0.584 -0.1439  0.1772  1.2289
  526MOL0     H70971   1.449   7.533  -0.587 -2.5287  0.5501  1.5954
  526MOL0     H70972   1.825   7.700  -0.471  0.7032 -2.2359  1.4817
  526MOL0     H70973   2.017   7.816  -0.551 -1.2664 -0.0162  0.7468
  526MOL0     H70974   2.243   7.875  -0.668  1.0457  0.4429 -1.7856
  526MOL0     H70975   2.289   7.721  -0.593 -0.7481  0.9515  0.3222
  526MOL0     H70976   2.497   7.762  -0.708 -0.6081  0.2350 -0.5077
  526MOL0     H70977   2.418   7.758  -0.865  0.6465 -1.1297  0.7096
  526MOL0     H70978   2.361   8.007  -0.834 -0.4860  0.3632 -0.0938
  526MOL0     H70979   2.438   8.001  -0.674 -2.0424  1.2743 -0.6971
  526MOL0     H70980   2.561   7.941  -0.940  3.0162  0.2552 -1.2028
  526MOL0     H70981   2.640   7.927  -0.779 -1.1419  0.6514  0.4074
  526MOL0     H70982   2.717   8.139  -0.865 -0.1830  1.6511 -1.3297
  526MOL0     H70983   2.583   8.172  -0.752 -0.0428 -0.5363  0.3946
  526MOL0     H70984   2.552   8.155  -1.057  2.2438  2.4885 -1.1583
  526MOL0     H70985   2.425   8.193  -0.933 -0.2296 -1.9319 -0.9509
  526MOL0     H70986   2.658   8.341  -1.033  0.9480 -0.8387  0.9503
  526MOL0     H70987   2.594   8.392  -0.874 -1.1939  0.3177 -0.1923
  526MOL0     H70988   2.375   8.445  -0.977  0.0506 -3.2911  0.8969
  526MOL0     H70989   2.498   8.526  -1.067 -1.6559  0.3282 -0.0169
  526MOL0     H70990   2.056   7.521  -0.872  0.4326  1.4475 -0.0409
  526MOL0     H70991   1.825   7.454  -0.816 -1.8332  1.2861 -0.3520
  526MOL0     H70992   1.583   7.144  -0.484  1.2030  0.4854 -1.2012
  526MOL0     H70993   1.348   7.082  -0.431 -1.0822 -0.6073 -2.3053
  526MOL0     H70994   1.688   7.269   0.159 -1.6119  3.9850  0.7822
  526MOL0     H70995   1.904   7.334   0.245  0.1750  2.4143  0.3591
  526MOL0     H70996   2.325   7.497   0.045  3.0941  0.7133 -0.8356
  526MOL0     H70997   2.551   7.559   0.057  2.6358  1.1999  2.6355
  526MOL0     H70998   2.656   7.966   0.290  0.6883  0.0711  1.2290
  526MOL0     H70999   2.583   7.974   0.126  1.0087  1.4039  0.5079
  526MOL0     H71000   2.790   7.925   0.016  0.0072 -0.6076  1.5271
  526MOL0     H71001   2.860   7.901   0.179 -1.0271 -0.7260  2.7063
  526MOL0     H71002   2.849   8.131   0.248  2.2820  0.7618 -0.3312
  526MOL0     H71003   2.763   8.184   0.105  1.5471 -0.0423 -1.0679
  526MOL0     H71004   3.044   8.078   0.086  0.8825 -0.6141 -1.0460
  526MOL0     H71005   2.944   8.126  -0.049 -1.7083  1.3283 -0.4432
  526MOL0     H71006   3.042   8.493   0.138 -2.2834  0.0817  3.4295
  526MOL0     H71007   2.443   7.884   0.307  5.3003 -0.6856 -0.7324
  526MOL0     H71008   2.115   7.817   0.406  1.8675  2.6434  1.7354
  526MOL0     H71009   2.245   7.923   0.397 -1.2110 -0.5366  0.5963
  526MOL0     H71010   2.111   7.909   0.270 -2.0633  0.7895  1.6877
  527MOL0     O71011   8.052  10.692   4.723  0.4561  0.1452  0.1565
  527MOL0     C71012   8.040  10.654   4.605  0.6833  0.0452 -0.1764
  527MOL0     O71013   8.128  10.578   4.539  0.8628  0.0829 -0.0347
  527MOL0     C71014   8.261  10.601   4.562  0.5638 -0.3856  0.4360
  527MOL0     C71015   8.336  10.486   4.561  0.2500 -0.8033 -0.1041
  527MOL0     C71016   8.476  10.485   4.552 -0.3599  0.3269  0.2747
  527MOL0     C71017   8.537  10.608   4.552 -0.0612  0.1645 -0.1272
  527MOL0     O71018   8.667  10.634   4.548  0.1283  0.2842 -0.5465
  527MOL0     C71019   8.743  10.535   4.629  1.2904  0.4393  0.4827
  527MOL0     C71020   8.893  10.565   4.663  0.7758  0.3145 -0.8210
  527MOL0     C71021   8.952  10.605   4.528 -0.3841  0.3285 -0.0053
  527MOL0     C71022   9.106  10.605   4.532  0.1684  0.2529 -0.0689
  527MOL0     C71023   9.151  10.671   4.404 -0.8499 -0.1691  0.4309
  527MOL0     C71024   9.300  10.667   4.396 -0.0636  0.3550  0.3807
  527MOL0     C71025   9.347  10.764   4.287  0.5303  1.0748  1.1024
  527MOL0     C71026   9.495  10.763   4.272  0.5223  0.2934  0.1908
  527MOL0     N71027   9.548  10.880   4.203  1.3637 -0.0546 -0.8808
  527MOL0     C71028   9.503  10.912   4.078  0.1250  1.0605  0.2033
  527MOL0     C71029   9.546  11.040   4.050  0.3872  0.3183  0.2993
  527MOL0     C71030   9.532  11.124   3.926 -0.4778  0.4279  0.1713
  527MOL0     C71031   9.667  11.185   3.875  0.8878  0.2055 -0.0368
  527MOL0     C71032   9.650  11.291   3.761 -0.4308  1.1577  0.4528
  527MOL0     C71033   9.726  11.242   3.632 -0.1731  0.1826  0.3790
  527MOL0     O71034   9.868  11.213   3.655 -0.7252 -0.1049  0.4501
  527MOL0     C71035   9.970  11.304   3.640 -0.1500 -0.8102 -0.4337
  527MOL0     C71036   9.965  11.429   3.557  0.5848  0.1053 -0.5437
  527MOL0     C71037  10.065  11.523   3.553  0.4643  0.2317 -1.0688
  527MOL0     C71038  10.181  11.506   3.630  0.1885 -0.0299  0.1803
  527MOL0     C71039  10.292  11.594   3.631  0.3811  0.3326 -0.7764
  527MOL0     O71040  10.261  11.723   3.585 -0.2328 -0.1101  0.3367
  527MOL0     C71041  10.354  11.826   3.591 -0.9028  0.1082 -0.8591
  527MOL0     C71042  10.301  11.951   3.547  0.6208 -1.4307  0.1603
  527MOL0     C71043  10.369  12.069   3.539 -0.3945 -0.6255 -0.3978
  527MOL0     C71044  10.494  12.068   3.579 -1.0771 -0.0409 -0.5568
  527MOL0     O71045  10.563  12.188   3.592  0.2029 -0.3116  0.4827
  527MOL0     C71046  10.667  12.190   3.692 -0.1867  1.2276  0.6925
  527MOL0     C71047  10.748  12.319   3.698 -0.1104  0.8071 -0.0250
  527MOL0     C71048  10.816  12.343   3.569 -0.0418  0.1307  0.8242
  527MOL0     C71049  10.885  12.478   3.572 -0.0878 -1.0243  0.1288
  527MOL0     C71050  11.011  12.473   3.480  0.2192  0.3290  0.4225
  527MOL0     C71051  11.092  12.601   3.487 -0.2087  0.9300 -0.1184
  527MOL0     C71052  11.206  12.606   3.386  0.2219  0.0036  1.0438
  527MOL0     C71053  11.346  12.574   3.425 -0.5684  0.7592 -0.0218
  527MOL0    Cl71054  11.448  12.545   3.269  0.0717 -0.1798  0.2943
  527MOL0     C71055  10.553  11.951   3.608 -0.5586  0.6190  0.3027
  527MOL0     C71056  10.489  11.826   3.620 -0.7232 -0.5128 -0.1013
  527MOL0     O71057  10.399  11.562   3.679  0.2104 -0.2883 -0.1415
  527MOL0     C71058  10.186  11.380   3.702 -1.1704 -0.1125 -0.4857
  527MOL0     C71059  10.085  11.281   3.709 -0.4485  0.1235  0.4196
  527MOL0     N71060   9.627  11.077   4.157  0.6071 -1.4091 -0.0186
  527MOL0     N71061   9.616  10.992   4.250  0.1635 -0.5268 -0.0633
  527MOL0     C71062   8.465  10.727   4.552  0.2986 -0.4826  0.0136
  527MOL0     C71063   8.320  10.730   4.565  0.3288 -0.7463 -0.1629
  527MOL0     C71064   7.908  10.673   4.546 -0.4091  0.4136 -0.4866
  527MOL0     C71065   7.844  10.560   4.484  0.5105  0.5442  0.1907
  527MOL0     C71066   7.716  10.574   4.429  0.9540  0.0053  0.0620
  527MOL0     C71067   7.643  10.690   4.451  0.0725 -0.1904 -0.4637
  527MOL0     O71068   7.509  10.703   4.417 -0.2132  0.1390 -0.4661
  527MOL0     C71069   7.433  10.596   4.351 -0.5285 -0.6309 -0.1574
  527MOL0     C71070   7.308  10.650   4.276  0.1512  0.4126  0.5878
  527MOL0     C71071   7.316  10.791   4.212  0.7218 -0.1536 -0.0218
  527MOL0     C71072   7.200  10.800   4.112  0.4326 -0.0010 -0.8644
  527MOL0     C71073   7.243  10.742   3.984  0.3515 -0.3237  0.7443
  527MOL0     C71074   7.290  10.710   3.883 -0.1776  0.0944 -0.5256
  527MOL0     C71075   7.704  10.800   4.519 -0.8951  0.3277  0.3581
  527MOL0     C71076   7.838  10.791   4.569 -1.1644 -1.0645 -0.8875
  527MOL0     C71077   7.898  10.914   4.645 -0.5476 -0.4967 -0.1270
  527MOL0     H71078   8.274  10.397   4.555 -0.8903  0.0406 -1.8734
  527MOL0     H71079   8.535  10.394   4.552 -1.3172 -0.3185  1.6336
  527MOL0     H71080   8.689  10.521   4.723  1.1627 -0.1479  0.3271
  527MOL0     H71081   8.726  10.449   4.564 -1.0794  2.0194 -1.1349
  527MOL0     H71082   8.937  10.473   4.704  1.8725  0.9835 -0.4446
  527MOL0     H71083   8.892  10.634   4.748 -1.3930  1.9791 -2.0999
  527MOL0     H71084   8.923  10.708   4.510  0.5139  0.6450  0.2948
  527MOL0     H71085   8.920  10.537   4.447  1.9681 -3.1659  1.7244
  527MOL0     H71086   9.139  10.669   4.615  0.5327 -0.5644  0.4198
  527MOL0     H71087   9.145  10.507   4.557  1.3698  0.9763  1.0205
  527MOL0     H71088   9.114  10.621   4.313 -0.4926  2.2300 -1.1246
  527MOL0     H71089   9.116  10.774   4.393 -0.3753 -0.1118 -0.7626
  527MOL0     H71090   9.331  10.722   4.486 -1.0421  0.5629  0.6032
  527MOL0     H71091   9.341  10.565   4.393 -0.7713 -0.0087  1.8982
  527MOL0     H71092   9.305  10.863   4.308  2.4617  2.3691 -0.7738
  527MOL0     H71093   9.302  10.742   4.190 -0.7597  2.5791  1.3138
  527MOL0     H71094   9.532  10.765   4.375 -3.3766  2.7496  1.7875
  527MOL0     H71095   9.529  10.676   4.215 -3.3981 -0.4487 -1.3093
  527MOL0     H71096   9.450  10.845   4.011  0.9303 -2.6565  2.9699
  527MOL0     H71097   9.487  11.058   3.851  0.7184 -2.7982  2.0793
  527MOL0     H71098   9.464  11.208   3.937 -0.1831  0.8917 -1.3131
  527MOL0     H71099   9.719  11.235   3.957  0.4624 -1.8764  1.5892
  527MOL0     H71100   9.728  11.098   3.847 -1.6684 -2.7218  2.7390
  527MOL0     H71101   9.680  11.392   3.791 -1.4619  2.3893 -2.3366
  527MOL0     H71102   9.543  11.293   3.739 -0.8368 -2.9533  1.3189
  527MOL0     H71103   9.718  11.302   3.541 -1.2711 -0.2191  0.2025
  527MOL0     H71104   9.671  11.158   3.589  1.3577  1.1901 -4.0289
  527MOL0     H71105   9.864  11.450   3.525 -0.3309 -0.4414  1.7435
  527MOL0     H71106  10.062  11.616   3.498  0.5556  0.8221 -0.0908
  527MOL0     H71107  10.198  11.951   3.514  1.2497 -0.4572 -1.9330
  527MOL0     H71108  10.335  12.165   3.501  0.3577 -0.4889 -0.7275
  527MOL0     H71109  10.620  12.156   3.785 -0.2205  2.9085  1.3295
  527MOL0     H71110  10.748  12.120   3.671 -0.5501  1.1011 -0.3301
  527MOL0     H71111  10.680  12.401   3.723  1.1670  1.0185  3.3179
  527MOL0     H71112  10.825  12.313   3.776  0.1668  0.7059 -0.3009
  527MOL0     H71113  10.883  12.260   3.545  0.9267  0.8844  0.8588
  527MOL0     H71114  10.735  12.344   3.497  0.1880  1.4919  0.5530
  527MOL0     H71115  10.920  12.490   3.675 -1.0207  0.9290  0.2535
  527MOL0     H71116  10.809  12.550   3.540  0.6938 -1.4950 -3.2337
  527MOL0     H71117  10.969  12.471   3.379  1.4483  0.7766 -0.1117
  527MOL0     H71118  11.078  12.386   3.489 -0.8784 -0.5811  0.0342
  527MOL0     H71119  11.021  12.684   3.477  1.1465  2.5248  2.4026
  527MOL0     H71120  11.125  12.606   3.591  0.1684  1.7293 -0.2685
  527MOL0     H71121  11.212  12.704   3.339 -1.0449 -0.5989 -0.4913
  527MOL0     H71122  11.179  12.535   3.307 -0.7232  0.8557  0.5724
  527MOL0     H71123  11.391  12.656   3.481 -0.5726  1.2372 -0.7018
  527MOL0     H71124  11.363  12.484   3.485  2.5434 -0.0267 -1.8032
  527MOL0     H71125  10.656  11.948   3.643 -1.2477  0.1194  2.4064
  527MOL0     H71126  10.544  11.734   3.634  1.3442  0.0802 -3.2105
  527MOL0     H71127  10.278  11.351   3.751 -0.3007 -0.6937 -2.3512
  527MOL0     H71128  10.095  11.182   3.752  0.9214 -0.5771 -1.4068
  527MOL0     H71129   8.510  10.826   4.550  0.6224 -0.6362 -0.8328
  527MOL0     H71130   8.269  10.825   4.579  5.3011  2.1547  0.7785
  527MOL0     H71131   7.898  10.466   4.478 -0.3462  0.1260 -2.4507
  527MOL0     H71132   7.659  10.494   4.382 -0.2122  0.3377  0.8673
  527MOL0     H71133   7.404  10.523   4.428  0.2033 -2.5599 -1.6427
  527MOL0     H71134   7.489  10.537   4.279 -0.5458  0.8467 -1.4263
  527MOL0     H71135   7.220  10.646   4.342  0.0283  0.0745  0.4023
  527MOL0     H71136   7.289  10.568   4.206 -0.3284  0.3311  0.8078
  527MOL0     H71137   7.412  10.828   4.175 -0.8165  3.8700 -0.4320
  527MOL0     H71138   7.295  10.852   4.300 -0.0917 -2.4802  1.5081
  527MOL0     H71139   7.101  10.759   4.137  0.1382  0.7868 -0.7009
  527MOL0     H71140   7.185  10.908   4.099 -3.4696 -0.0974  1.2457
  527MOL0     H71141   7.342  10.702   3.790 -1.9559  0.7847 -1.6273
  527MOL0     H71142   7.649  10.892   4.533 -1.5385 -0.1268  0.8507
  527MOL0     H71143   7.851  11.010   4.621 -1.4574 -0.7459  0.5667
  527MOL0     H71144   7.886  10.905   4.753  2.0008 -5.7457  0.0391
  527MOL0     H71145   8.004  10.924   4.623 -0.1919 -1.1138  1.2409
  528MOL0     O71146   4.356   4.575   0.653  0.2856  0.2291 -0.7052
  528MOL0     C71147   4.335   4.694   0.676  0.5905  0.2465  1.0738
  528MOL0     O71148   4.400   4.773   0.768  0.0185  0.0918  0.5586
  528MOL0     C71149   4.493   4.725   0.866 -0.0975  0.1903 -0.1340
  528MOL0     C71150   4.500   4.589   0.901 -0.1814  0.0516 -0.7111
  528MOL0     C71151   4.584   4.552   1.008 -0.1376  0.6057 -0.1784
  528MOL0     C71152   4.668   4.652   1.068 -0.5231  0.5580 -0.8543
  528MOL0     O71153   4.748   4.631   1.177  0.3043 -0.6157  0.1907
  528MOL0     C71154   4.787   4.503   1.214 -0.2389  0.2919  0.4410
  528MOL0     C71155   4.902   4.523   1.312  0.1970  0.3396  0.7532
  528MOL0     C71156   4.847   4.605   1.429  0.3466 -0.2402 -1.5036
  528MOL0     C71157   4.936   4.586   1.558 -0.6592 -0.0347 -0.4603
  528MOL0     C71158   4.905   4.650   1.693  0.3503 -0.3096  0.1639
  528MOL0     C71159   4.916   4.804   1.677 -0.4231 -0.2200  0.4338
  528MOL0     C71160   4.938   4.879   1.810  0.1599 -0.4501 -0.7284
  528MOL0     C71161   5.005   5.011   1.782  0.2049  0.0198  0.3638
  528MOL0     N71162   5.000   5.106   1.894  0.3267  0.0241  0.5199
  528MOL0     C71163   5.077   5.105   2.009  0.0193  0.1865  0.2669
  528MOL0     C71164   5.043   5.232   2.053 -0.5608 -0.0943 -0.4475
  528MOL0     C71165   5.080   5.304   2.176  0.4932 -0.7194 -0.0241
  528MOL0     C71166   4.992   5.285   2.284 -0.0630  0.2709  0.4780
  528MOL0     C71167   4.875   5.395   2.295 -0.3473 -0.1234  0.3092
  528MOL0     C71168   4.772   5.361   2.396  0.5339  0.2014 -0.4201
  528MOL0     O71169   4.678   5.470   2.399  0.1231  0.4932  0.4438
  528MOL0     C71170   4.551   5.452   2.341  0.8418  0.2006 -0.4006
  528MOL0     C71171   4.443   5.517   2.399  0.5758  0.5079  0.1426
  528MOL0     C71172   4.308   5.505   2.347 -0.2046  0.3131  0.0664
  528MOL0     C71173   4.278   5.417   2.241 -1.0763 -0.0737 -0.3358
  528MOL0     C71174   4.151   5.414   2.177  0.0408 -0.2414  0.3037
  528MOL0     O71175   4.146   5.350   2.051 -0.4431  0.1835 -0.7892
  528MOL0     C71176   4.043   5.381   1.964  0.7203 -0.4842  0.3215
  528MOL0     C71177   3.980   5.508   1.943 -0.5197  0.1667 -0.6735
  528MOL0     C71178   3.880   5.532   1.856  0.2062  0.4225  0.2322
  528MOL0     C71179   3.842   5.426   1.776 -0.5053  0.5321  0.8322
  528MOL0     O71180   3.737   5.431   1.691 -0.3715  0.2768  0.2338
  528MOL0     C71181   3.739   5.540   1.593  0.5208 -0.5188  0.2251
  528MOL0     C71182   3.789   5.506   1.451 -1.4361  0.6718 -0.2728
  528MOL0     C71183   3.943   5.493   1.457 -0.3084 -0.3680 -0.5967
  528MOL0     C71184   4.004   5.451   1.317  1.0437 -0.5557  0.1463
  528MOL0     C71185   4.155   5.441   1.326 -1.4598  0.2430  0.6210
  528MOL0     C71186   4.236   5.381   1.219  1.0278 -0.6128  0.8261
  528MOL0     C71187   4.187   5.239   1.188 -0.2034  0.2338  0.4530
  528MOL0     C71188   4.284   5.173   1.083 -0.7854  0.3996  0.1398
  528MOL0    Cl71189   4.227   5.248   0.934  0.1274 -0.5330  0.1457
  528MOL0     C71190   3.900   5.302   1.786  0.3149  0.4337 -0.0026
  528MOL0     C71191   4.003   5.275   1.879  0.1178 -0.3097 -0.0190
  528MOL0     O71192   4.060   5.483   2.228 -0.8240 -0.3785 -0.0297
  528MOL0     C71193   4.393   5.343   2.189  0.6074  0.5607  0.2401
  528MOL0     C71194   4.525   5.367   2.238 -1.0966 -0.2039 -0.1281
  528MOL0     N71195   4.954   5.296   1.969 -0.2858  0.6875  0.4607
  528MOL0     N71196   4.926   5.216   1.877  0.4326 -0.4667  0.7254
  528MOL0     C71197   4.670   4.786   1.032  0.9820 -0.0814  0.3587
  528MOL0     C71198   4.578   4.824   0.934 -0.3498 -0.1326 -0.7271
  528MOL0     C71199   4.226   4.759   0.602  0.1976  0.2013 -0.2294
  528MOL0     C71200   4.225   4.904   0.610 -1.0079  0.1637  0.3991
  528MOL0     C71201   4.118   4.982   0.565 -0.2324 -0.7441 -0.0397
  528MOL0     C71202   4.003   4.922   0.514  0.3581  0.6187 -0.0608
  528MOL0     O71203   3.904   4.998   0.466 -0.4002 -0.0259 -0.4013
  528MOL0     C71204   3.894   4.992   0.327  0.6977 -0.2546 -1.0789
  528MOL0     C71205   3.832   5.128   0.289 -0.5477 -0.7489  1.0972
  528MOL0     C71206   3.679   5.136   0.328 -0.4990 -0.3724  0.6234
  528MOL0     C71207   3.594   5.069   0.230  0.3361  0.7686  0.9299
  528MOL0     C71208   3.472   5.013   0.301 -0.8443  0.0945 -0.2914
  528MOL0     C71209   3.380   4.959   0.364 -0.4300 -0.0572  0.5665
  528MOL0     C71210   4.003   4.777   0.504 -0.1380 -0.3494 -0.2904
  528MOL0     C71211   4.111   4.695   0.538  0.8161 -0.0903 -0.5501
  528MOL0     C71212   4.096   4.543   0.555  0.0081  0.6221 -0.1945
  528MOL0     H71213   4.436   4.516   0.852 -2.0086  1.4083 -0.4607
  528MOL0     H71214   4.594   4.452   1.049 -1.0696  0.2285 -0.8415
  528MOL0     H71215   4.704   4.452   1.265  1.5119 -1.5100  1.6346
  528MOL0     H71216   4.818   4.441   1.130 -3.8487  0.9836 -1.6388
  528MOL0     H71217   4.992   4.563   1.266  1.8592 -4.3816 -0.5975
  528MOL0     H71218   4.933   4.423   1.342 -0.3981  0.1236  0.6595
  528MOL0     H71219   4.748   4.569   1.459  0.9668 -2.1468 -1.5786
  528MOL0     H71220   4.853   4.710   1.400  3.3680 -0.0421 -0.5397
  528MOL0     H71221   4.945   4.477   1.560  3.6361  0.1105 -1.5699
  528MOL0     H71222   5.037   4.625   1.541  0.7849 -2.4862  1.8101
  528MOL0     H71223   4.802   4.625   1.721 -0.2064  3.7457  2.5392
  528MOL0     H71224   4.977   4.618   1.768  1.6896  2.5564  0.2402
  528MOL0     H71225   5.006   4.829   1.620  2.0803 -1.0458  3.7184
  528MOL0     H71226   4.827   4.845   1.628 -0.4116  2.1849  2.2897
  528MOL0     H71227   5.003   4.831   1.885 -0.7056 -0.5710 -0.0307
  528MOL0     H71228   4.841   4.892   1.860 -2.2332  0.2333 -5.0826
  528MOL0     H71229   5.113   5.000   1.766  0.2949 -0.6985  1.3893
  528MOL0     H71230   4.968   5.060   1.691  3.1649  0.5488 -0.6716
  528MOL0     H71231   5.148   5.029   2.040 -0.0694 -0.2456 -0.5879
  528MOL0     H71232   5.179   5.264   2.201  0.4166 -0.8154  0.1253
  528MOL0     H71233   5.100   5.410   2.162 -1.1592 -0.3314  0.3375
  528MOL0     H71234   4.949   5.184   2.276  0.0449  0.3006 -0.6121
  528MOL0     H71235   5.036   5.299   2.383  0.0907  1.3121  0.2703
  528MOL0     H71236   4.828   5.388   2.196 -3.8141  0.9213  1.7169
  528MOL0     H71237   4.922   5.491   2.321  0.9105 -1.1604  2.0306
  528MOL0     H71238   4.817   5.350   2.495 -0.5818 -2.2783 -0.1062
  528MOL0     H71239   4.735   5.264   2.361  2.3277 -1.1495  1.1884
  528MOL0     H71240   4.450   5.582   2.487  2.3436 -2.2732  2.2269
  528MOL0     H71241   4.229   5.560   2.398 -1.7791 -0.6306 -1.2490
  528MOL0     H71242   4.011   5.597   1.997 -4.0412  0.5506  1.0280
  528MOL0     H71243   3.833   5.630   1.851 -0.2297  0.3373  1.9565
  528MOL0     H71244   3.635   5.573   1.581  1.3555  2.9610  1.2077
  528MOL0     H71245   3.795   5.625   1.633  0.4295  0.6843 -2.0240
  528MOL0     H71246   3.746   5.417   1.404 -1.9633  0.1546  1.1319
  528MOL0     H71247   3.757   5.587   1.385  2.7239 -0.7400 -4.5800
  528MOL0     H71248   3.986   5.591   1.481  2.4494 -1.3654 -1.0376
  528MOL0     H71249   3.980   5.419   1.528  3.1167  0.7927 -0.9831
  528MOL0     H71250   3.975   5.524   1.241 -2.3410 -2.9935 -1.1676
  528MOL0     H71251   3.948   5.362   1.286 -2.1389  1.4703 -0.2891
  528MOL0     H71252   4.177   5.376   1.411 -2.8232 -1.5243 -0.3200
  528MOL0     H71253   4.192   5.541   1.350 -0.7106 -0.4985  2.7985
  528MOL0     H71254   4.221   5.443   1.130 -1.6791 -2.5987 -0.2272
  528MOL0     H71255   4.339   5.384   1.254  0.8289 -2.7856  1.7955
  528MOL0     H71256   4.080   5.236   1.161  0.1604 -1.8700 -1.0708
  528MOL0     H71257   4.201   5.178   1.278 -2.0946  1.4441  1.6378
  528MOL0     H71258   4.390   5.194   1.103 -0.6370  0.4627 -0.6489
  528MOL0     H71259   4.275   5.064   1.090  0.6723  0.3559  2.9647
  528MOL0     H71260   3.853   5.229   1.721 -2.7538  1.2178  1.1632
  528MOL0     H71261   4.038   5.173   1.896 -1.5452 -0.7617  0.9261
  528MOL0     H71262   4.378   5.272   2.109 -0.9514 -0.2532  1.2021
  528MOL0     H71263   4.614   5.323   2.194 -1.0362 -0.8899  0.6706
  528MOL0     H71264   4.741   4.857   1.072  2.6381 -1.0200 -0.8228
  528MOL0     H71265   4.573   4.923   0.890 -2.7052 -0.1117 -0.5753
  528MOL0     H71266   4.299   4.965   0.659  0.6702 -1.0453 -0.5335
  528MOL0     H71267   4.126   5.090   0.574  0.7508 -0.6213 -1.7479
  528MOL0     H71268   3.843   4.902   0.291  1.1739 -0.8999 -0.1865
  528MOL0     H71269   3.997   4.998   0.289  1.0001 -0.3445 -0.2856
  528MOL0     H71270   3.846   5.147   0.182  0.3582  1.4416  1.5524
  528MOL0     H71271   3.891   5.216   0.316  0.3134  1.1094 -5.2780
  528MOL0     H71272   3.645   5.240   0.333  1.2288  0.1703  2.7112
  528MOL0     H71273   3.663   5.096   0.428 -0.5322 -0.3892  0.6115
  528MOL0     H71274   3.569   5.136   0.147 -3.6771 -1.4938  0.0691
  528MOL0     H71275   3.647   4.984   0.186 -0.3182  0.5764  0.5141
  528MOL0     H71276   3.298   4.902   0.404  0.3394 -1.7181 -0.1135
  528MOL0     H71277   3.919   4.720   0.466 -1.7165  1.9131 -0.3201
  528MOL0     H71278   3.992   4.518   0.529  0.7908 -0.8496 -2.1098
  528MOL0     H71279   4.165   4.492   0.488 -0.2017 -1.4630  1.1085
  528MOL0     H71280   4.103   4.515   0.660 -2.0135  2.1268  0.4079
  529MOL0     O71281   2.277   6.576   3.657  0.0795  0.1262  0.2795
  529MOL0     C71282   2.301   6.523   3.762  0.1258  0.1394 -0.0532
  529MOL0     O71283   2.232   6.427   3.834  0.3486  0.1229  0.0601
  529MOL0     C71284   2.123   6.373   3.773  1.0843  1.0412  0.6820
  529MOL0     C71285   2.120   6.303   3.650  0.1748 -0.0879 -0.1095
  529MOL0     C71286   1.998   6.258   3.592 -0.3959 -0.1980 -0.6826
  529MOL0     C71287   1.876   6.293   3.650 -0.8100  0.6946  0.2368
  529MOL0     O71288   1.750   6.255   3.600 -0.6935  0.4893 -0.1534
  529MOL0     C71289   1.740   6.129   3.540 -0.5647 -0.6745 -0.1525
  529MOL0     C71290   1.612   6.054   3.558  0.6655  0.9697  0.7621
  529MOL0     C71291   1.511   6.116   3.469 -0.2892 -0.0371  0.1897
  529MOL0     C71292   1.412   6.199   3.560 -0.6641 -0.5109 -0.3999
  529MOL0     C71293   1.316   6.092   3.617  0.3117 -0.4308  0.0070
  529MOL0     C71294   1.176   6.150   3.630  1.4517 -0.4079  0.2573
  529MOL0     C71295   1.152   6.224   3.758  0.0385  0.6809 -0.2008
  529MOL0     C71296   1.029   6.309   3.741  0.6440 -0.2120 -0.4386
  529MOL0     N71297   0.994   6.376   3.870 -0.5746 -1.3204  0.5068
  529MOL0     C71298   1.052   6.490   3.914  0.5226 -0.6268  0.1702
  529MOL0     C71299   1.016   6.482   4.046 -0.3565 -0.0253  0.2296
  529MOL0     C71300   1.041   6.570   4.166  0.0084  0.5058  0.5763
  529MOL0     C71301   1.072   6.710   4.123 -0.8758 -0.7453  0.7299
  529MOL0     C71302   0.947   6.786   4.073  0.3993 -0.3603  0.2303
  529MOL0     C71303   0.832   6.817   4.171  0.6880  0.0283 -0.1980
  529MOL0     O71304   0.862   6.920   4.269  0.0233 -0.1149  0.6863
  529MOL0     C71305   0.779   7.030   4.284 -0.0844 -0.2348  0.9062
  529MOL0     C71306   0.842   7.145   4.324 -0.3834  0.3851 -0.7030
  529MOL0     C71307   0.779   7.263   4.340  0.2027 -0.2277 -0.5946
  529MOL0     C71308   0.643   7.276   4.302  0.3772 -1.0069  1.2408
  529MOL0     C71309   0.570   7.398   4.299  1.1240  0.1562 -0.1923
  529MOL0     O71310   0.638   7.514   4.282 -0.3826 -0.1896  0.2602
  529MOL0     C71311   0.574   7.633   4.289 -0.2532 -0.2449  0.6671
  529MOL0     C71312   0.577   7.715   4.399  0.3975  0.6262  0.4251
  529MOL0     C71313   0.520   7.843   4.402  0.8762 -0.7111 -0.4587
  529MOL0     C71314   0.455   7.895   4.289  0.4088  1.4568  0.5130
  529MOL0     O71315   0.388   8.011   4.283  0.1970  0.4666 -0.4140
  529MOL0     C71316   0.399   8.103   4.397  0.6905 -0.2978  0.1937
  529MOL0     C71317   0.312   8.235   4.379 -0.0903 -0.1071  0.3888
  529MOL0     C71318   0.228   8.273   4.499  0.5028 -0.3682  0.1724
  529MOL0     C71319   0.087   8.223   4.497 -1.5272  0.3433  0.0310
  529MOL0     C71320   0.006   8.258   4.621  0.3497 -0.6858  0.0381
  529MOL0     C71321  -0.154   8.293   4.596 -0.2251  0.7807  1.0751
  529MOL0     C71322  -0.229   8.324   4.724  0.9290 -0.3319 -0.4029
  529MOL0     C71323  -0.369   8.379   4.686  0.5574  0.9224  0.8342
  529MOL0    Cl71324  -0.362   8.552   4.641  0.1513  0.2611 -0.1480
  529MOL0     C71325   0.446   7.817   4.171 -0.2079  1.2333 -0.7494
  529MOL0     C71326   0.495   7.683   4.178  0.0754  0.7874 -0.2235
  529MOL0     O71327   0.450   7.394   4.317  0.1557 -0.0833  0.8129
  529MOL0     C71328   0.574   7.158   4.270 -0.4519 -0.1241  0.3812
  529MOL0     C71329   0.642   7.037   4.257 -0.3253  0.0577  0.3994
  529MOL0     N71330   0.925   6.380   4.071  0.6972 -0.0381  0.7265
  529MOL0     N71331   0.915   6.323   3.961  0.2598 -0.3206 -0.6702
  529MOL0     C71332   1.876   6.356   3.775  0.4250  0.5281 -0.1820
  529MOL0     C71333   1.999   6.395   3.836 -0.8027  0.1485 -0.0211
  529MOL0     C71334   2.440   6.546   3.810  0.3288 -0.9230 -0.2507
  529MOL0     C71335   2.512   6.437   3.860  0.4335 -0.4855 -0.3267
  529MOL0     C71336   2.650   6.450   3.894  0.7487  0.1935  0.8765
  529MOL0     C71337   2.718   6.579   3.878  0.7237  0.1876 -0.9564
  529MOL0     O71338   2.848   6.590   3.911 -0.2126  0.1433 -0.4033
  529MOL0     C71339   2.915   6.726   3.908 -0.4560 -0.1708  0.2417
  529MOL0     C71340   2.973   6.746   3.768 -0.1154 -0.2627 -0.2666
  529MOL0     C71341   3.037   6.888   3.750  0.2222  0.5566 -0.2306
  529MOL0     C71342   3.185   6.881   3.701 -0.3262 -0.9446 -0.8772
  529MOL0     C71343   3.214   6.820   3.569  0.1023 -0.2713  0.9880
  529MOL0     C71344   3.247   6.760   3.466  0.7110 -0.9798  0.3134
  529MOL0     C71345   2.647   6.685   3.821  0.2420  0.7731 -0.9500
  529MOL0     C71346   2.506   6.674   3.798 -0.1187 -0.2624 -0.1063
  529MOL0     C71347   2.432   6.802   3.770 -0.3885 -0.7507 -0.0980
  529MOL0     H71348   2.220   6.288   3.611 -0.7761 -0.8251 -2.5004
  529MOL0     H71349   2.004   6.190   3.507  2.0547 -0.6405 -0.2185
  529MOL0     H71350   1.763   6.138   3.434 -2.2308 -0.5166 -0.5233
  529MOL0     H71351   1.819   6.057   3.563 -1.1478 -1.2966 -0.0715
  529MOL0     H71352   1.572   6.052   3.660 -2.1295 -0.7643 -0.2576
  529MOL0     H71353   1.625   5.949   3.530 -1.9447  0.6922  0.3128
  529MOL0     H71354   1.466   6.041   3.404  2.0380  0.0757 -1.6469
  529MOL0     H71355   1.560   6.181   3.395 -0.2837 -0.1513  0.0937
  529MOL0     H71356   1.467   6.251   3.639  2.9639 -1.6955 -1.9219
  529MOL0     H71357   1.368   6.282   3.505  1.9060  1.2348  0.0151
  529MOL0     H71358   1.306   6.003   3.554  1.3127  0.3807 -1.3548
  529MOL0     H71359   1.350   6.056   3.715 -2.3235  2.4250  2.1580
  529MOL0     H71360   1.153   6.222   3.551  1.9303 -0.4569  0.0707
  529MOL0     H71361   1.107   6.067   3.617 -0.0117  0.7075  0.6132
  529MOL0     H71362   1.235   6.285   3.794  1.0993 -0.8069 -0.0150
  529MOL0     H71363   1.119   6.156   3.838  0.0965  1.8223  0.8151
  529MOL0     H71364   1.037   6.375   3.654  0.3866 -0.4934 -0.6779
  529MOL0     H71365   0.948   6.241   3.716 -0.1296  0.5463 -0.0512
  529MOL0     H71366   1.120   6.555   3.858  1.5233 -2.3026 -0.6493
  529MOL0     H71367   0.948   6.570   4.225  0.0839 -1.9135  0.8040
  529MOL0     H71368   1.124   6.547   4.233 -0.0094  0.0324  0.4343
  529MOL0     H71369   1.113   6.760   4.211 -0.1144 -3.2548  1.8897
  529MOL0     H71370   1.158   6.713   4.055 -1.1821 -2.4755  0.2223
  529MOL0     H71371   0.913   6.723   3.990  2.2782  0.4397 -1.2199
  529MOL0     H71372   0.985   6.881   4.034 -0.6696 -0.9507 -2.4447
  529MOL0     H71373   0.807   6.725   4.224  1.3894  0.1113  0.2747
  529MOL0     H71374   0.746   6.845   4.109  1.7731 -0.4198 -1.9576
  529MOL0     H71375   0.950   7.143   4.339  0.1215 -2.8444 -3.4974
  529MOL0     H71376   0.825   7.358   4.366  2.0194 -1.1087 -0.4338
  529MOL0     H71377   0.637   7.689   4.485  0.7902 -0.2119 -0.0830
  529MOL0     H71378   0.524   7.895   4.497 -0.5576 -1.0950 -0.1656
  529MOL0     H71379   0.361   8.059   4.489  0.8576 -0.6109  0.1143
  529MOL0     H71380   0.503   8.135   4.409 -0.1860  3.9996 -1.7942
  529MOL0     H71381   0.371   8.324   4.355 -3.1342  2.9140  3.1270
  529MOL0     H71382   0.245   8.230   4.292  1.1512  3.5624 -0.9816
  529MOL0     H71383   0.279   8.253   4.594 -0.4123 -0.7958  0.5815
  529MOL0     H71384   0.221   8.382   4.490  0.4062 -0.4402 -0.7527
  529MOL0     H71385   0.078   8.114   4.504 -0.3415  0.1750 -0.7678
  529MOL0     H71386   0.030   8.252   4.408 -1.2937 -0.9406 -0.5713
  529MOL0     H71387   0.050   8.350   4.662 -3.1218  1.1060  0.1762
  529MOL0     H71388   0.001   8.181   4.699 -2.5690 -1.4310 -0.7492
  529MOL0     H71389  -0.162   8.375   4.524 -1.9477 -0.6475 -0.4419
  529MOL0     H71390  -0.195   8.207   4.543 -0.6838  1.2229  0.6925
  529MOL0     H71391  -0.181   8.397   4.790 -1.7361  0.6816  0.5403
  529MOL0     H71392  -0.245   8.230   4.779  0.3868  0.5008  0.9203
  529MOL0     H71393  -0.406   8.320   4.601 -0.8215 -0.3477  2.2696
  529MOL0     H71394  -0.433   8.358   4.771  1.2908 -3.6084  0.5367
  529MOL0     H71395   0.397   7.867   4.087 -1.2951  0.8425 -0.3692
  529MOL0     H71396   0.493   7.618   4.091 -0.8929 -1.2487  1.2585
  529MOL0     H71397   0.468   7.152   4.249 -0.6795 -2.4634  1.8772
  529MOL0     H71398   0.594   6.943   4.232 -0.4045  0.8901 -3.1141
  529MOL0     H71399   1.788   6.366   3.838  2.1362  1.9626  2.1456
  529MOL0     H71400   2.004   6.442   3.934 -0.6003 -0.8418  0.4559
  529MOL0     H71401   2.462   6.343   3.884  0.2873  0.2262  2.4257
  529MOL0     H71402   2.700   6.365   3.939 -2.2805 -0.2935  3.7048
  529MOL0     H71403   3.002   6.724   3.975  0.1109  0.8795 -0.4233
  529MOL0     H71404   2.847   6.806   3.938 -1.5220 -1.9825  3.0194
  529MOL0     H71405   2.887   6.738   3.701  0.4236 -0.2185 -0.9798
  529MOL0     H71406   3.045   6.665   3.752 -1.1495 -1.6595  1.6859
  529MOL0     H71407   3.054   6.933   3.848  3.6351 -0.6109 -0.1311
  529MOL0     H71408   2.966   6.941   3.687 -0.3882 -0.7407 -0.6715
  529MOL0     H71409   3.202   6.989   3.694 -2.5060 -0.5126 -0.2648
  529MOL0     H71410   3.254   6.838   3.774 -1.8872  0.0148  1.2803
  529MOL0     H71411   3.278   6.720   3.371  0.2057 -0.8177  0.0722
  529MOL0     H71412   2.693   6.778   3.789 -0.7527  1.3193 -0.8493
  529MOL0     H71413   2.410   6.814   3.664 -0.3847  5.3914  0.2287
  529MOL0     H71414   2.342   6.808   3.833 -0.2046 -1.9362  0.3153
  529MOL0     H71415   2.497   6.888   3.782 -2.2642  0.9567 -1.4490
  530MOL0     O71416   9.391   5.445   4.070  0.2349 -0.0026  0.4368
  530MOL0     C71417   9.292   5.401   4.006 -0.2190 -0.3050 -0.8957
  530MOL0     O71418   9.305   5.357   3.885  0.9748 -0.5460 -0.0687
  530MOL0     C71419   9.419   5.358   3.818 -0.1792  1.5578  0.3365
  530MOL0     C71420   9.477   5.481   3.783 -0.3268  0.0947 -0.0244
  530MOL0     C71421   9.606   5.488   3.724 -0.4970 -0.7622 -0.3740
  530MOL0     C71422   9.678   5.374   3.701 -0.6881 -0.9704  0.3094
  530MOL0     O71423   9.791   5.401   3.629  0.2882  0.3452  0.3059
  530MOL0     C71424   9.855   5.282   3.573  0.2436 -0.5783  0.4349
  530MOL0     C71425   9.989   5.322   3.505 -0.3343  0.1625  0.4633
  530MOL0     C71426   9.983   5.380   3.357  0.1915  0.2179 -0.9949
  530MOL0     C71427  10.116   5.370   3.280  0.3797 -0.3288  0.5826
  530MOL0     C71428  10.228   5.446   3.361  0.0955 -0.4695  0.9773
  530MOL0     C71429  10.366   5.429   3.290  1.2655 -0.5925  1.0512
  530MOL0     C71430  10.463   5.433   3.406  0.1767  0.5382  0.4471
  530MOL0     C71431  10.610   5.426   3.351 -0.1210  0.0012 -0.4835
  530MOL0     N71432  10.653   5.292   3.319 -0.7310  0.0157  0.1324
  530MOL0     C71433  10.692   5.201   3.410  0.4975  0.3410  1.0954
  530MOL0     C71434  10.686   5.074   3.350  0.0725  0.1284  0.8571
  530MOL0     C71435  10.738   4.939   3.409 -0.6199 -0.6336  0.5662
  530MOL0     C71436  10.871   4.901   3.332 -0.0059  0.5751 -0.2591
  530MOL0     C71437  10.934   4.766   3.387  0.4277  0.0765 -0.4221
  530MOL0     C71438  11.061   4.723   3.313  1.2599 -0.0928  0.5273
  530MOL0     O71439  11.155   4.831   3.309 -0.9454  0.3358 -0.0656
  530MOL0     C71440  11.289   4.804   3.322  0.9918 -0.6762 -0.1973
  530MOL0     C71441  11.356   4.875   3.425  0.0627  0.8659  0.0192
  530MOL0     C71442  11.495   4.861   3.442 -0.2209  0.1280  0.3056
  530MOL0     C71443  11.562   4.773   3.354  0.0227 -0.6048  0.0420
  530MOL0     C71444  11.702   4.738   3.371  0.7194  0.0071  0.1220
  530MOL0     O71445  11.769   4.683   3.261  0.1828  1.1663 -0.2576
  530MOL0     C71446  11.907   4.693   3.257  0.2948  0.2955  0.0293
  530MOL0     C71447  11.961   4.705   3.131 -0.1155 -0.5509  0.1197
  530MOL0     C71448  12.099   4.704   3.095 -1.3119 -0.4138 -0.1034
  530MOL0     C71449  12.189   4.717   3.197  0.8122  0.5553 -0.1706
  530MOL0     O71450  12.322   4.730   3.185  0.3518 -0.8902  0.3125
  530MOL0     C71451  12.384   4.755   3.055 -0.3845  0.5062 -0.2276
  530MOL0     C71452  12.528   4.811   3.048 -0.0494 -0.0309 -0.4246
  530MOL0     C71453  12.630   4.707   3.096  0.8045 -0.1920  0.8874
  530MOL0     C71454  12.764   4.762   3.061 -0.8624 -0.4877 -0.3826
  530MOL0     C71455  12.871   4.662   3.082  0.2949  0.0333  0.3699
  530MOL0     C71456  13.011   4.708   3.060  0.3813 -0.2774 -0.5037
  530MOL0     C71457  13.049   4.722   2.918  0.2575 -0.4572 -0.0390
  530MOL0     C71458  13.182   4.648   2.883  0.8980 -0.2881 -0.6382
  530MOL0    Cl71459  13.233   4.694   2.720  0.0729 -0.5286 -0.5136
  530MOL0     C71460  12.132   4.698   3.329  0.3623  0.7995 -0.5548
  530MOL0     C71461  11.998   4.680   3.365 -0.2017 -0.3686  0.4860
  530MOL0     O71462  11.754   4.768   3.479  0.2302 -0.3661  0.3968
  530MOL0     C71463  11.491   4.703   3.253 -0.0059 -0.9747  0.3048
  530MOL0     C71464  11.356   4.720   3.237  0.0215 -0.3122  0.5147
  530MOL0     N71465  10.638   5.104   3.225 -0.5042  0.3374 -0.5890
  530MOL0     N71466  10.620   5.229   3.202  0.2264  0.5384 -0.4276
  530MOL0     C71467   9.623   5.251   3.730 -0.0978  0.4290  0.3826
  530MOL0     C71468   9.493   5.241   3.787 -0.6020 -0.4275 -0.0851
  530MOL0     C71469   9.162   5.370   4.068  0.0904  0.3433  0.4218
  530MOL0     C71470   9.141   5.432   4.192 -0.7002 -0.0405 -0.7302
  530MOL0     C71471   9.027   5.411   4.269 -0.0321  0.4825 -0.2213
  530MOL0     C71472   8.929   5.315   4.222 -0.0100  0.1558 -1.2433
  530MOL0     O71473   8.819   5.275   4.283 -0.1306 -0.4391  0.1813
  530MOL0     C71474   8.773   5.330   4.409  0.1119  0.1601 -0.2266
  530MOL0     C71475   8.640   5.271   4.420 -0.2864  0.1836 -0.6291
  530MOL0     C71476   8.629   5.122   4.461 -0.1898  0.1645 -0.5559
  530MOL0     C71477   8.478   5.080   4.492 -1.2789  0.4804  0.6538
  530MOL0     C71478   8.471   4.933   4.515  0.3383  0.0720 -0.2521
  530MOL0     C71479   8.461   4.816   4.522  0.2777  0.7837 -0.9173
  530MOL0     C71480   8.963   5.237   4.116 -0.4289  0.3902 -0.2940
  530MOL0     C71481   9.076   5.269   4.035  0.0914 -0.2823 -0.6483
  530MOL0     C71482   9.106   5.180   3.919 -1.0879  1.0896  0.0285
  530MOL0     H71483   9.422   5.569   3.816  0.0570 -1.1958  4.7745
  530MOL0     H71484   9.646   5.584   3.695 -1.9663  0.0341  0.1223
  530MOL0     H71485   9.878   5.219   3.660 -0.7850 -0.4580  0.8104
  530MOL0     H71486   9.789   5.230   3.503  0.7881 -2.0347  0.9693
  530MOL0     H71487  10.044   5.228   3.493 -1.1400 -0.8078  3.4522
  530MOL0     H71488  10.042   5.374   3.585 -1.9546 -1.2721  2.5685
  530MOL0     H71489   9.950   5.484   3.354 -0.5594 -0.0328 -2.5278
  530MOL0     H71490   9.918   5.317   3.297  0.9441 -3.1421  1.4277
  530MOL0     H71491  10.122   5.261   3.280 -0.3486 -0.4478  3.5899
  530MOL0     H71492  10.110   5.402   3.175  0.7280 -0.2902  0.5749
  530MOL0     H71493  10.203   5.552   3.360  3.0158  0.3322  2.3622
  530MOL0     H71494  10.243   5.406   3.462  3.1988 -2.7397 -0.2455
  530MOL0     H71495  10.362   5.327   3.249 -2.3792 -1.2063  2.5528
  530MOL0     H71496  10.396   5.499   3.212 -0.1308 -0.8399  0.2531
  530MOL0     H71497  10.447   5.346   3.471  4.4795  0.3169  1.5745
  530MOL0     H71498  10.445   5.528   3.458 -0.1888  0.5492  0.3014
  530MOL0     H71499  10.601   5.480   3.257  2.4209 -0.2501 -0.9357
  530MOL0     H71500  10.672   5.483   3.421  0.0588  0.6442 -1.1659
  530MOL0     H71501  10.738   5.217   3.507  1.8220 -1.1832  0.7583
  530MOL0     H71502  10.765   4.938   3.515  1.2610 -0.2519  0.1355
  530MOL0     H71503  10.652   4.872   3.400 -2.0198  1.3124 -1.5641
  530MOL0     H71504  10.854   4.879   3.227 -0.4932 -2.2502  0.3405
  530MOL0     H71505  10.949   4.977   3.343 -1.9900  2.6663  0.2875
  530MOL0     H71506  10.857   4.689   3.384  0.2302  0.1820  1.1689
  530MOL0     H71507  10.967   4.772   3.491  0.0544  0.4676 -0.3249
  530MOL0     H71508  11.035   4.698   3.210  2.9641  0.9102 -0.1871
  530MOL0     H71509  11.113   4.641   3.364 -0.2098  1.4140  4.9217
  530MOL0     H71510  11.292   4.917   3.502 -0.9384  2.1564 -1.4429
  530MOL0     H71511  11.531   4.918   3.527 -0.7116  1.0893 -0.1249
  530MOL0     H71512  11.895   4.723   3.046  1.0683  0.2156 -0.6542
  530MOL0     H71513  12.127   4.705   2.990  4.5080 -0.0874  1.1315
  530MOL0     H71514  12.388   4.659   3.003  1.3018  0.2485  0.3154
  530MOL0     H71515  12.322   4.827   3.000  0.3276  2.8320  1.8087
  530MOL0     H71516  12.554   4.848   2.948 -1.3937  0.4519 -0.6170
  530MOL0     H71517  12.536   4.903   3.106  2.4081 -0.1729 -0.4145
  530MOL0     H71518  12.622   4.688   3.204  0.9456  1.6396  1.2652
  530MOL0     H71519  12.626   4.612   3.042  3.0137 -1.1082  2.1851
  530MOL0     H71520  12.789   4.845   3.129  0.2513 -0.6280 -0.5988
  530MOL0     H71521  12.770   4.809   2.962  0.4042 -2.0611 -1.0994
  530MOL0     H71522  12.852   4.576   3.018 -0.2819 -0.2857  0.9623
  530MOL0     H71523  12.859   4.627   3.185 -0.7103 -0.1076  0.2195
  530MOL0     H71524  13.019   4.810   3.098 -1.2713  0.6881 -2.5566
  530MOL0     H71525  13.079   4.639   3.111  0.5072 -1.0539 -1.6645
  530MOL0     H71526  13.065   4.828   2.897  1.3697 -0.6018  0.0147
  530MOL0     H71527  12.962   4.685   2.861 -1.6022  0.2220  2.2090
  530MOL0     H71528  13.255   4.684   2.957  0.6878 -0.6834 -0.2293
  530MOL0     H71529  13.166   4.539   2.888 -0.6533 -0.0299  1.5041
  530MOL0     H71530  12.201   4.680   3.411 -0.5283  2.7294  0.6929
  530MOL0     H71531  11.978   4.652   3.468 -0.0016  0.2758  0.7037
  530MOL0     H71532  11.542   4.627   3.195  3.8545 -0.4393  2.6210
  530MOL0     H71533  11.316   4.672   3.149 -0.4451  1.7236 -0.4340
  530MOL0     H71534   9.680   5.165   3.699  1.5226  0.9330  1.8329
  530MOL0     H71535   9.453   5.141   3.802 -2.6989  0.2795 -0.6741
  530MOL0     H71536   9.213   5.509   4.215 -2.6869  0.7555  3.8866
  530MOL0     H71537   9.003   5.469   4.357 -1.9121 -0.2375 -0.2218
  530MOL0     H71538   8.765   5.439   4.401 -1.1192  0.1051  0.1307
  530MOL0     H71539   8.841   5.298   4.488  0.5288 -1.3788 -1.1546
  530MOL0     H71540   8.583   5.298   4.331 -0.8238 -1.9811 -1.0120
  530MOL0     H71541   8.593   5.320   4.506  2.9517  2.0817  0.2558
  530MOL0     H71542   8.696   5.100   4.545  0.3083  1.1715 -0.6752
  530MOL0     H71543   8.669   5.058   4.381 -2.1378 -0.0208 -1.4414
  530MOL0     H71544   8.455   5.132   4.586 -0.3850  0.3984  0.9289
  530MOL0     H71545   8.407   5.112   4.415 -2.6600 -2.8208  0.4176
  530MOL0     H71546   8.450   4.710   4.523 -1.5481  0.9204  0.9888
  530MOL0     H71547   8.906   5.148   4.092  1.9449 -1.2687 -0.0513
  530MOL0     H71548   9.207   5.141   3.933 -2.0211 -2.6834 -2.2209
  530MOL0     H71549   9.048   5.087   3.921 -1.7128  1.3218 -2.6243
  530MOL0     H71550   9.082   5.225   3.822 -3.5210  0.1134  0.1091
  531MOL0     O71551   0.560   5.782  10.672  0.1388 -0.1930  0.4028
  531MOL0     C71552   0.633   5.836  10.587 -0.2595 -0.8034 -0.4464
  531MOL0     O71553   0.590   5.900  10.471  0.1726  0.4777 -0.4963
  531MOL0     C71554   0.455   5.914  10.439  0.3177 -0.4754  0.6614
  531MOL0     C71555   0.356   5.926  10.531  0.9789 -0.0083  0.1760
  531MOL0     C71556   0.218   5.934  10.486 -0.5114  0.3258 -0.5021
  531MOL0     C71557   0.190   5.959  10.352  0.3875 -1.1494  0.6171
  531MOL0     O71558   0.057   5.994  10.309 -0.0102  0.2397 -0.7062
  531MOL0     C71559  -0.008   6.097  10.382 -0.3803  0.3473  0.2351
  531MOL0     C71560  -0.106   6.158  10.277 -0.7494 -0.2686  0.0682
  531MOL0     C71561  -0.029   6.230  10.158  0.0113 -0.0164  0.2027
  531MOL0     C71562  -0.111   6.334  10.074 -0.7146 -0.1648 -0.7519
  531MOL0     C71563  -0.229   6.266   9.991 -0.2179 -0.1841 -0.1244
  531MOL0     C71564  -0.173   6.233   9.851  0.5447 -0.0829  0.3293
  531MOL0     C71565  -0.279   6.191   9.750  0.7208  0.2159 -0.2409
  531MOL0     C71566  -0.214   6.138   9.622 -0.0701  0.5795 -0.6183
  531MOL0     N71567  -0.171   6.243   9.534 -0.1419 -0.5174 -0.5743
  531MOL0     C71568  -0.256   6.304   9.455  0.0108 -0.4843  1.0445
  531MOL0     C71569  -0.198   6.430   9.435  0.2815  0.2819  0.3803
  531MOL0     C71570  -0.265   6.552   9.379  0.6905  0.5624 -0.3105
  531MOL0     C71571  -0.317   6.652   9.481  0.6995 -0.2786  0.8074
  531MOL0     C71572  -0.420   6.738   9.400  0.1270 -0.5618 -0.0821
  531MOL0     C71573  -0.459   6.861   9.490 -0.3152 -0.3603  0.1752
  531MOL0     O71574  -0.569   6.830   9.578  0.3541  0.2988  0.5348
  531MOL0     C71575  -0.699   6.877   9.557  0.5770  0.3370 -1.2703
  531MOL0     C71576  -0.790   6.798   9.635 -0.0990 -0.3345 -0.1465
  531MOL0     C71577  -0.924   6.816   9.626 -1.7371 -0.8136  0.6302
  531MOL0     C71578  -0.974   6.921   9.554 -0.1312  0.3630  0.4488
  531MOL0     C71579  -1.121   6.947   9.572 -1.0073 -0.2039 -0.4431
  531MOL0     O71580  -1.175   6.931   9.695 -0.0895  0.7852  0.0547
  531MOL0     C71581  -1.312   6.921   9.697  0.6432  0.3190 -0.4277
  531MOL0     C71582  -1.382   6.802   9.671  0.4356  0.1678  0.6798
  531MOL0     C71583  -1.520   6.802   9.657  0.4926  0.2787 -0.2568
  531MOL0     C71584  -1.598   6.912   9.676  0.4150  0.1060  0.5030
  531MOL0     O71585  -1.734   6.894   9.656 -0.3715  0.1631 -0.1788
  531MOL0     C71586  -1.825   6.991   9.704  0.1023  0.3545 -0.5712
  531MOL0     C71587  -1.969   6.939   9.695  0.3091  0.4593  0.1050
  531MOL0     C71588  -2.070   7.058   9.725  0.2024  0.8698  0.0673
  531MOL0     C71589  -2.212   7.007   9.735 -0.5081 -0.8451 -0.6732
  531MOL0     C71590  -2.297   7.106   9.820  1.2413 -0.8923 -0.2645
  531MOL0     C71591  -2.446   7.068   9.819  0.2536  0.0358 -1.1605
  531MOL0     C71592  -2.512   7.141   9.699  0.3248  0.1568 -0.6929
  531MOL0     C71593  -2.660   7.132   9.723 -0.2393  0.4314 -0.0951
  531MOL0    Cl71594  -2.734   7.240   9.603 -0.2726 -0.1638 -0.5562
  531MOL0     C71595  -1.534   7.027   9.719 -0.7761  0.6027 -0.8953
  531MOL0     C71596  -1.386   7.038   9.728  0.4198 -0.0274 -0.1371
  531MOL0     O71597  -1.186   6.975   9.477  0.0804 -0.7929 -0.4654
  531MOL0     C71598  -0.883   7.000   9.476 -0.9610  0.4129  0.4596
  531MOL0     C71599  -0.745   6.975   9.480 -0.5852  0.0652 -0.2556
  531MOL0     N71600  -0.079   6.438   9.499  0.2513 -0.0226  0.2329
  531MOL0     N71601  -0.069   6.328   9.557 -0.4759 -0.1158  0.6348
  531MOL0     C71602   0.300   5.953  10.262 -0.1454  0.5186 -1.0321
  531MOL0     C71603   0.424   5.931  10.302  0.5277  0.6592 -0.2834
  531MOL0     C71604   0.786   5.831  10.611 -0.3862  0.0704  0.1125
  531MOL0     C71605   0.871   5.779  10.501  1.7004  0.1101  0.9115
  531MOL0     C71606   1.002   5.757  10.528  0.0443 -0.9250 -0.1957
  531MOL0     C71607   1.048   5.778  10.658 -0.5630 -0.5914  0.0702
  531MOL0     O71608   1.190   5.754  10.691  0.3927 -0.3269 -0.3071
  531MOL0     C71609   1.296   5.688  10.617 -0.2445  0.0722 -0.0981
  531MOL0     C71610   1.427   5.769  10.632  0.9243 -0.1605  0.6388
  531MOL0     C71611   1.537   5.668  10.634  0.4097 -0.4353  0.5704
  531MOL0     C71612   1.675   5.738  10.631  0.1262  0.2112  0.2514
  531MOL0     C71613   1.776   5.657  10.693  0.4728 -0.4446  0.0837
  531MOL0     C71614   1.855   5.592  10.762 -0.3814 -0.8678  1.1481
  531MOL0     C71615   0.970   5.838  10.749  0.6619 -0.5910  0.1974
  531MOL0     C71616   0.837   5.868  10.727 -1.0886 -0.0277  0.0022
  531MOL0     C71617   0.761   5.946  10.830  0.1701  0.4488 -0.2073
  531MOL0     H71618   0.362   5.920  10.639 -1.6704 -1.4415  0.3143
  531MOL0     H71619   0.141   5.933  10.561 -0.2090  1.4851 -0.1469
  531MOL0     H71620  -0.055   6.046  10.467  1.3993 -3.6755 -0.9679
  531MOL0     H71621   0.067   6.171  10.411  2.3706 -1.5074 -1.6974
  531MOL0     H71622  -0.154   6.239  10.331  0.3953  0.0846  0.5943
  531MOL0     H71623  -0.188   6.099  10.236 -1.3119  0.6790 -0.2068
  531MOL0     H71624   0.010   6.154  10.090  2.0115  3.6152 -3.1410
  531MOL0     H71625   0.062   6.275  10.199 -1.0219  2.5063 -0.1059
  531MOL0     H71626  -0.165   6.405  10.138 -1.4684 -2.0056  0.7568
  531MOL0     H71627  -0.033   6.373  10.008 -2.2515 -3.6746 -5.1250
  531MOL0     H71628  -0.249   6.170  10.040  0.0436 -1.4303 -2.3210
  531MOL0     H71629  -0.313   6.334   9.987  2.3905  3.3232  0.0388
  531MOL0     H71630  -0.115   6.318   9.815 -0.9074  0.0670 -1.8225
  531MOL0     H71631  -0.110   6.145   9.865 -2.0635 -1.8055  2.3001
  531MOL0     H71632  -0.335   6.277   9.712 -0.2996 -1.4997 -2.8634
  531MOL0     H71633  -0.352   6.128   9.802 -0.3653  0.5198 -1.3522
  531MOL0     H71634  -0.129   6.073   9.646 -0.2146 -0.1620 -2.0361
  531MOL0     H71635  -0.291   6.070   9.584  1.2927 -3.2722  2.6939
  531MOL0     H71636  -0.353   6.260   9.429  0.9523 -1.0752 -1.8759
  531MOL0     H71637  -0.190   6.610   9.324  1.2167  0.8763  0.7227
  531MOL0     H71638  -0.359   6.528   9.329  1.1354 -0.6525 -0.5864
  531MOL0     H71639  -0.376   6.607   9.561  1.9771  1.1870  2.6677
  531MOL0     H71640  -0.234   6.707   9.526  0.6930 -0.1775  0.6949
  531MOL0     H71641  -0.516   6.688   9.381  0.4890 -0.9022 -1.0870
  531MOL0     H71642  -0.369   6.756   9.305  3.1845 -1.6343  1.2142
  531MOL0     H71643  -0.494   6.934   9.416  3.2450 -1.2698 -2.6973
  531MOL0     H71644  -0.372   6.906   9.540 -1.3523 -0.9822  2.6674
  531MOL0     H71645  -0.753   6.714   9.693 -0.7481 -0.7598 -0.3447
  531MOL0     H71646  -0.988   6.751   9.685 -2.1602 -3.1000 -2.1351
  531MOL0     H71647  -1.312   6.719   9.660  0.4623  0.4250 -1.5866
  531MOL0     H71648  -1.564   6.708   9.626  1.6356  0.2585 -1.9953
  531MOL0     H71649  -1.804   7.016   9.809 -1.0764  2.4508 -0.7723
  531MOL0     H71650  -1.811   7.087   9.655  0.3670  0.8884  0.5062
  531MOL0     H71651  -2.001   6.905   9.595 -2.1399 -0.8425  1.2413
  531MOL0     H71652  -1.991   6.852   9.757 -1.6723  0.8327  0.0202
  531MOL0     H71653  -2.044   7.113   9.815 -0.6685  3.9101 -1.4020
  531MOL0     H71654  -2.073   7.126   9.639  0.9029  4.6453  2.8106
  531MOL0     H71655  -2.211   6.912   9.789  0.6371  0.0358  0.9424
  531MOL0     H71656  -2.256   6.992   9.637 -0.8280 -2.3648 -0.3115
  531MOL0     H71657  -2.297   7.210   9.785  0.0524 -1.0863 -0.8662
  531MOL0     H71658  -2.262   7.106   9.924 -3.7321  1.3150  1.7518
  531MOL0     H71659  -2.467   6.961   9.813 -2.0382 -0.1190  4.0622
  531MOL0     H71660  -2.482   7.091   9.920  0.3005 -1.3630 -0.8104
  531MOL0     H71661  -2.482   7.082   9.612 -2.7391 -1.5885 -0.7104
  531MOL0     H71662  -2.482   7.247   9.702  0.6598  0.0479  1.0741
  531MOL0     H71663  -2.680   7.025   9.715  3.4253 -0.4283  0.4566
  531MOL0     H71664  -2.689   7.164   9.823  0.3238  0.1662  0.1553
  531MOL0     H71665  -1.599   7.107   9.752 -0.2924  1.4373 -1.9191
  531MOL0     H71666  -1.337   7.125   9.770  0.7981 -1.4751  2.6227
  531MOL0     H71667  -0.911   7.085   9.415  0.8166  1.0822  0.5103
  531MOL0     H71668  -0.671   7.026   9.419  2.0183 -0.6570  2.1075
  531MOL0     H71669   0.279   5.971  10.157 -1.5570 -0.9657 -1.0468
  531MOL0     H71670   0.496   5.934  10.220  0.7785 -0.9618 -0.1617
  531MOL0     H71671   0.828   5.738  10.410  3.7999 -3.7554  1.4586
  531MOL0     H71672   1.062   5.712  10.450  0.3806 -1.4659  0.3595
  531MOL0     H71673   1.268   5.699  10.512  0.3159 -0.0319 -0.2616
  531MOL0     H71674   1.312   5.584  10.646  0.3929  0.0277 -0.6066
  531MOL0     H71675   1.427   5.824  10.727  0.6679 -1.4782  1.4367
  531MOL0     H71676   1.436   5.829  10.542  1.1030  0.0034  0.7633
  531MOL0     H71677   1.525   5.590  10.558 -3.5126  1.0240 -0.5342
  531MOL0     H71678   1.531   5.611  10.727  3.6028 -3.0467 -0.6375
  531MOL0     H71679   1.703   5.750  10.526 -2.8012  1.1000 -0.5310
  531MOL0     H71680   1.654   5.835  10.678 -3.6546  0.8864 -2.3583
  531MOL0     H71681   1.918   5.532  10.825 -0.7242  0.8767  3.2541
  531MOL0     H71682   1.027   5.868  10.837  0.3786 -1.3442  0.6488
  531MOL0     H71683   0.830   5.959  10.914  1.2192 -1.3967 -0.7220
  531MOL0     H71684   0.720   6.042  10.796  0.4535  0.2480 -1.1572
  531MOL0     H71685   0.674   5.887  10.862  0.9385 -1.4554 -1.4534
  532MOL0     O71686  10.715   7.666   0.441 -0.1935  0.3680 -0.0726
  532MOL0     C71687  10.745   7.721   0.336  0.5028 -0.2500  0.2227
  532MOL0     O71688  10.668   7.723   0.222  0.0413 -0.6430 -0.4293
  532MOL0     C71689  10.536   7.703   0.240 -0.4422 -0.2009  0.5683
  532MOL0     C71690  10.469   7.638   0.134  0.8266  0.1213  1.4467
  532MOL0     C71691  10.330   7.645   0.126  0.6257 -0.3293  0.3806
  532MOL0     C71692  10.251   7.695   0.224 -0.3490 -0.1485  0.1715
  532MOL0     O71693  10.111   7.702   0.210  0.3895 -0.0443 -0.5790
  532MOL0     C71694  10.040   7.820   0.236 -0.2216 -1.1287 -0.1106
  532MOL0     C71695   9.913   7.853   0.165 -0.1833  0.5633 -0.2203
  532MOL0     C71696   9.796   7.751   0.194  0.0523 -1.6473  0.2440
  532MOL0     C71697   9.654   7.818   0.166 -0.2345  0.8544 -0.4924
  532MOL0     C71698   9.623   7.868   0.023  0.2093  0.7925  0.4967
  532MOL0     C71699   9.484   7.932   0.028 -0.7445 -0.0169  0.4598
  532MOL0     C71700   9.447   7.997  -0.104  0.4874 -0.1418  0.7540
  532MOL0     C71701   9.291   8.036  -0.097 -0.0929 -0.4702  0.8692
  532MOL0     N71702   9.246   8.161  -0.159 -0.3326 -0.2836 -0.7375
  532MOL0     C71703   9.318   8.243  -0.237 -0.7881  1.3586 -0.9613
  532MOL0     C71704   9.226   8.303  -0.313 -0.8427  0.7596  0.6402
  532MOL0     C71705   9.267   8.393  -0.431  0.4906 -0.2952 -0.0661
  532MOL0     C71706   9.225   8.538  -0.391 -0.6979 -0.2906 -0.3404
  532MOL0     C71707   9.264   8.582  -0.245 -0.4107 -0.3586  0.2519
  532MOL0     C71708   9.405   8.616  -0.231 -0.4717 -0.3341  1.1879
  532MOL0     O71709   9.430   8.645  -0.096 -0.4228  0.2158  0.4428
  532MOL0     C71710   9.559   8.645  -0.059 -0.0007  0.7440  0.1056
  532MOL0     C71711   9.586   8.637   0.077  0.9365  0.0396  1.0911
  532MOL0     C71712   9.715   8.647   0.123 -0.1029  0.0405  0.3551
  532MOL0     C71713   9.825   8.660   0.040 -0.4896  0.0623 -0.4037
  532MOL0     C71714   9.965   8.646   0.093 -0.5845 -0.1505  0.5022
  532MOL0     O71715  10.063   8.630  -0.003 -0.6496 -0.0439  0.6657
  532MOL0     C71716  10.189   8.648   0.038 -0.5482  0.2519 -0.6214
  532MOL0     C71717  10.236   8.769   0.096  0.2123  1.1095 -0.3692
  532MOL0     C71718  10.364   8.789   0.124 -0.0531 -0.1340  0.4679
  532MOL0     C71719  10.463   8.690   0.100  0.3361 -0.8153 -1.1441
  532MOL0     O71720  10.584   8.703   0.152 -0.1134 -0.6658  0.4708
  532MOL0     C71721  10.680   8.717   0.043 -0.0889  0.5191  0.1271
  532MOL0     C71722  10.817   8.776   0.080 -0.1941  0.0854 -0.6704
  532MOL0     C71723  10.903   8.807  -0.046 -0.5259 -0.3614 -0.0889
  532MOL0     C71724  11.051   8.818   0.001  0.0047 -0.5759 -0.0563
  532MOL0     C71725  11.148   8.894  -0.088  0.3127 -0.3528 -0.8426
  532MOL0     C71726  11.289   8.832  -0.095  0.3126  1.0311  0.2015
  532MOL0     C71727  11.379   8.916  -0.189 -0.0233  0.1078 -0.1854
  532MOL0     C71728  11.518   8.857  -0.215  0.2457  0.7664 -0.5581
  532MOL0    Cl71729  11.602   8.839  -0.053  0.3934 -0.3490 -0.0824
  532MOL0     C71730  10.419   8.571   0.041 -0.7726  0.0939  0.0884
  532MOL0     C71731  10.279   8.549   0.007 -0.5162  0.3217 -0.0225
  532MOL0     O71732   9.981   8.650   0.214  0.6125 -0.3795 -0.6336
  532MOL0     C71733   9.797   8.697  -0.095 -0.1098  0.4390 -0.4986
  532MOL0     C71734   9.667   8.674  -0.139  0.0748  0.4605 -0.5786
  532MOL0     N71735   9.096   8.266  -0.285 -1.1684  0.1599  0.2142
  532MOL0     N71736   9.117   8.185  -0.185 -0.1272  0.1477 -0.3208
  532MOL0     C71737  10.316   7.752   0.337 -0.0014 -1.2167  0.0139
  532MOL0     C71738  10.456   7.765   0.331  0.0857  0.4005 -0.9868
  532MOL0     C71739  10.886   7.775   0.328  0.2805 -0.2568  0.6082
  532MOL0     C71740  10.986   7.704   0.400  0.6042  0.2644  1.0328
  532MOL0     C71741  11.111   7.762   0.394 -0.1228  0.3041  0.2856
  532MOL0     C71742  11.142   7.885   0.341  0.0061 -0.3211  0.3788
  532MOL0     O71743  11.276   7.929   0.352  0.2312  0.1913  0.3204
  532MOL0     C71744  11.351   7.886   0.237  0.2551  1.3338 -0.1768
  532MOL0     C71745  11.369   8.001   0.138 -0.2379 -0.1258  0.5462
  532MOL0     C71746  11.453   7.946   0.019  0.4585  0.1339  0.7663
  532MOL0     C71747  11.603   7.990   0.033  0.9230 -0.6750 -0.3889
  532MOL0     C71748  11.689   7.917  -0.057 -1.3618  0.3214  0.5917
  532MOL0     C71749  11.755   7.852  -0.130 -0.7229 -0.6858 -0.0387
  532MOL0     C71750  11.041   7.959   0.274 -0.3153 -0.3992 -0.1872
  532MOL0     C71751  10.913   7.904   0.268  0.0083 -0.6569  0.4289
  532MOL0     C71752  10.819   7.983   0.194  0.0984 -0.1309 -0.5954
  532MOL0     H71753  10.531   7.589   0.059 -2.0923 -2.1496  0.2925
  532MOL0     H71754  10.290   7.619   0.028  4.7718  3.1710 -2.6671
  532MOL0     H71755  10.018   7.816   0.344  1.8420  2.0122  0.5612
  532MOL0     H71756  10.110   7.903   0.222 -1.1306 -0.6910 -2.5502
  532MOL0     H71757   9.930   7.864   0.057 -1.7035  2.7502 -0.3060
  532MOL0     H71758   9.884   7.953   0.200  3.0396  0.5914  2.9410
  532MOL0     H71759   9.791   7.706   0.294  0.0608 -1.1600  0.4692
  532MOL0     H71760   9.798   7.665   0.126 -2.2961 -1.0762 -0.6680
  532MOL0     H71761   9.581   7.741   0.192  1.3173 -0.3434  0.5249
  532MOL0     H71762   9.639   7.905   0.232 -1.4263  0.4518 -0.2160
  532MOL0     H71763   9.699   7.941  -0.011  0.9824 -0.6435 -0.9970
  532MOL0     H71764   9.632   7.787  -0.050  0.8626 -0.9473  2.4152
  532MOL0     H71765   9.420   7.848   0.055 -1.2728  0.4288  0.6029
  532MOL0     H71766   9.484   8.008   0.107 -0.8099  1.2737 -0.7375
  532MOL0     H71767   9.452   7.929  -0.189 -0.1012  1.6583 -0.8017
  532MOL0     H71768   9.508   8.087  -0.118  0.6905 -0.0427  2.1645
  532MOL0     H71769   9.220   7.958  -0.124  0.0179 -0.5994  0.9507
  532MOL0     H71770   9.265   8.050   0.008  2.4991 -1.2662  1.7139
  532MOL0     H71771   9.424   8.242  -0.259 -0.7030  0.6174 -0.5329
  532MOL0     H71772   9.374   8.395  -0.450  1.2290  0.3778  3.4410
  532MOL0     H71773   9.208   8.375  -0.521  1.6332 -1.3537 -0.6293
  532MOL0     H71774   9.266   8.614  -0.459 -0.4806 -0.0754  0.0298
  532MOL0     H71775   9.116   8.539  -0.398 -0.9106 -2.2509  1.5863
  532MOL0     H71776   9.240   8.506  -0.171 -1.6143  0.7330  1.0253
  532MOL0     H71777   9.215   8.673  -0.211 -0.5313 -0.0773 -0.6488
  532MOL0     H71778   9.415   8.710  -0.286  3.6082 -0.3221  1.6273
  532MOL0     H71779   9.470   8.537  -0.271 -0.7646 -2.1240  3.9642
  532MOL0     H71780   9.505   8.602   0.140  0.9175 -2.2035 -0.0890
  532MOL0     H71781   9.730   8.635   0.230 -0.2005 -1.1715  0.2487
  532MOL0     H71782  10.157   8.843   0.106 -2.2596 -1.4756  0.7547
  532MOL0     H71783  10.402   8.886   0.154  1.3135 -0.2916 -0.6454
  532MOL0     H71784  10.712   8.615   0.021 -0.9985  0.6158 -1.9124
  532MOL0     H71785  10.649   8.750  -0.057  1.0501 -0.7868 -0.6991
  532MOL0     H71786  10.790   8.867   0.134 -3.3977 -1.4680  0.6435
  532MOL0     H71787  10.864   8.707   0.150 -0.5977  2.0186  1.6421
  532MOL0     H71788  10.906   8.737  -0.130  1.4782 -1.8519  1.1444
  532MOL0     H71789  10.872   8.905  -0.083  0.2890  0.5745  1.5792
  532MOL0     H71790  11.090   8.717   0.012  4.7773  1.2764  2.8259
  532MOL0     H71791  11.060   8.868   0.097  0.4990  0.8708 -0.8235
  532MOL0     H71792  11.150   8.995  -0.046  3.1400 -1.0058  0.8506
  532MOL0     H71793  11.099   8.889  -0.186 -0.4787  0.8498 -0.5174
  532MOL0     H71794  11.345   8.834  -0.001  2.6282  1.6437 -1.1124
  532MOL0     H71795  11.276   8.725  -0.116  2.8347  0.7839 -0.4328
  532MOL0     H71796  11.379   9.016  -0.145 -3.0511  0.3478 -0.5245
  532MOL0     H71797  11.324   8.915  -0.283 -2.1796  0.2608  1.0149
  532MOL0     H71798  11.514   8.761  -0.267 -1.0647  0.1605  0.5648
  532MOL0     H71799  11.567   8.926  -0.284  1.0491 -1.4300 -2.2907
  532MOL0     H71800  10.489   8.490   0.026 -3.1445 -1.3906 -5.3141
  532MOL0     H71801  10.243   8.460  -0.043  0.4361  0.5228 -1.1123
  532MOL0     H71802   9.884   8.719  -0.155  0.4641 -5.9402 -2.7874
  532MOL0     H71803   9.662   8.678  -0.248 -0.8263  2.2361 -0.5027
  532MOL0     H71804  10.255   7.795   0.416  2.0111  2.7480 -0.3016
  532MOL0     H71805  10.489   7.813   0.422  0.1957 -2.4694  0.5972
  532MOL0     H71806  10.964   7.608   0.443  1.1457 -0.0164  0.6934
  532MOL0     H71807  11.196   7.703   0.426 -1.7556 -1.0643  2.3597
  532MOL0     H71808  11.301   7.803   0.186  0.6113  1.2695 -0.4270
  532MOL0     H71809  11.454   7.853   0.256 -0.7459 -0.7074  2.1363
  532MOL0     H71810  11.404   8.094   0.182 -0.3973  0.6512 -0.9028
  532MOL0     H71811  11.273   8.035   0.098  1.1771 -0.6713 -3.8818
  532MOL0     H71812  11.409   7.988  -0.072 -1.5291  0.4848  1.8499
  532MOL0     H71813  11.451   7.837   0.011  0.4533  0.0915  1.3372
  532MOL0     H71814  11.604   8.096   0.004 -2.7522 -0.5666 -0.6145
  532MOL0     H71815  11.639   7.972   0.134 -2.4439 -1.3528  0.8019
  532MOL0     H71816  11.817   7.808  -0.205 -0.8940 -1.1588  0.0910
  532MOL0     H71817  11.070   8.050   0.222  1.1202 -0.6602  0.1076
  532MOL0     H71818  10.717   7.963   0.230  0.8600 -1.4254  0.9895
  532MOL0     H71819  10.824   8.090   0.217 -2.0253 -0.2688  0.8008
  532MOL0     H71820  10.824   7.961   0.087  2.1844  3.5900 -1.4497
  533MOL0     O71821   5.518   2.909  11.044  0.0722  0.4286  0.1394
  533MOL0     C71822   5.621   2.897  11.109 -0.2767  0.1678 -0.8389
  533MOL0     O71823   5.724   2.822  11.073 -0.1802 -0.3686  0.2937
  533MOL0     C71824   5.723   2.780  10.948 -0.4340  0.0660  0.6281
  533MOL0     C71825   5.779   2.859  10.841 -0.4522 -0.3175 -0.3294
  533MOL0     C71826   5.794   2.809  10.713  0.4379  0.3332  0.1497
  533MOL0     C71827   5.741   2.685  10.683 -0.5330  0.3407 -0.1568
  533MOL0     O71828   5.757   2.644  10.551 -0.4638 -0.8103  0.5095
  533MOL0     C71829   5.712   2.516  10.511  0.3547 -0.2200  0.8349
  533MOL0     C71830   5.745   2.476  10.375 -0.6119  0.5949 -0.1611
  533MOL0     C71831   5.900   2.476  10.361  0.3617 -0.2819  0.0890
  533MOL0     C71832   5.949   2.428  10.221 -0.1101  0.9061 -0.4155
  533MOL0     C71833   5.943   2.550  10.121 -0.9658 -0.6718  0.0187
  533MOL0     C71834   5.985   2.516   9.978 -0.4709 -0.5379 -0.9058
  533MOL0     C71835   5.889   2.415   9.908  1.2149 -0.6214  0.5523
  533MOL0     C71836   5.771   2.495   9.861  0.5560  0.2419 -0.9767
  533MOL0     N71837   5.680   2.404   9.780 -0.1962 -0.4050  0.4344
  533MOL0     C71838   5.723   2.319   9.677  0.2405 -0.5912 -0.0911
  533MOL0     C71839   5.610   2.245   9.652  1.1021 -0.2539 -0.1797
  533MOL0     C71840   5.597   2.139   9.549 -0.2620 -0.2820  0.8558
  533MOL0     C71841   5.510   2.192   9.438  0.3144  0.2410  0.1159
  533MOL0     C71842   5.489   2.098   9.332 -0.1192  0.5303  0.0375
  533MOL0     C71843   5.568   2.121   9.196  0.3912  0.0262 -0.4822
  533MOL0     O71844   5.694   2.157   9.236  0.5320 -0.7598 -0.9678
  533MOL0     C71845   5.795   2.066   9.248 -0.7829 -1.0350  0.3886
  533MOL0     C71846   5.921   2.131   9.263  0.4295 -0.2837 -0.3547
  533MOL0     C71847   6.046   2.055   9.275 -0.2620  0.6871 -0.5722
  533MOL0     C71848   6.027   1.916   9.273  0.3648  0.3432 -0.2164
  533MOL0     C71849   6.144   1.832   9.310 -0.1800 -0.4828 -0.4820
  533MOL0     O71850   6.121   1.694   9.300  0.2429 -0.0981 -0.1993
  533MOL0     C71851   6.221   1.623   9.357  0.2921 -0.0662  0.4806
  533MOL0     C71852   6.334   1.577   9.285 -0.6511  0.0871 -0.0388
  533MOL0     C71853   6.448   1.519   9.347 -1.2676  0.3268  0.3556
  533MOL0     C71854   6.449   1.494   9.485  0.2796  0.5738 -0.1530
  533MOL0     O71855   6.544   1.432   9.562 -0.4129 -0.4714  0.1578
  533MOL0     C71856   6.645   1.356   9.503 -0.2456  0.3117 -0.3736
  533MOL0     C71857   6.769   1.368   9.592 -0.0208 -0.2022  0.4736
  533MOL0     C71858   6.899   1.327   9.527  0.1727 -0.4528  0.2640
  533MOL0     C71859   7.026   1.375   9.602  0.0459 -0.3586 -0.1704
  533MOL0     C71860   7.154   1.347   9.527  0.2941  0.3131  0.6994
  533MOL0     C71861   7.270   1.417   9.595 -0.7866  0.5128 -0.1286
  533MOL0     C71862   7.395   1.425   9.501  1.7421  0.8055 -0.1364
  533MOL0     C71863   7.529   1.409   9.568  0.7368 -0.9036 -0.6544
  533MOL0    Cl71864   7.662   1.364   9.452  0.0620  0.2884 -0.3398
  533MOL0     C71865   6.331   1.535   9.552  0.3586 -0.1480  0.1258
  533MOL0     C71866   6.225   1.600   9.484 -0.4471 -0.9086 -0.8331
  533MOL0     O71867   6.254   1.889   9.322 -0.2083 -0.0766  0.0573
  533MOL0     C71868   5.910   1.860   9.243 -0.2373  1.2599  0.4962
  533MOL0     C71869   5.794   1.924   9.237  0.9439 -0.4841 -0.4205
  533MOL0     N71870   5.502   2.295   9.730 -0.4261 -0.4288  0.0535
  533MOL0     N71871   5.545   2.388   9.807 -0.0140 -0.7102 -0.6704
  533MOL0     C71872   5.680   2.603  10.785 -0.5483  0.5331  0.2059
  533MOL0     C71873   5.663   2.652  10.916  0.0127  0.1563  0.1737
  533MOL0     C71874   5.615   2.964  11.243 -0.1988 -0.3574 -1.5315
  533MOL0     C71875   5.488   2.977  11.305 -0.8595 -0.9421  0.1098
  533MOL0     C71876   5.467   3.032  11.429  0.4588  0.2328  0.1443
  533MOL0     C71877   5.564   3.088  11.504  0.1730 -0.0673  0.3073
  533MOL0     O71878   5.543   3.165  11.625 -0.7880  0.0306  0.8047
  533MOL0     C71879   5.408   3.186  11.666 -0.8895  0.3226 -0.1884
  533MOL0     C71880   5.403   3.249  11.804 -0.1914  0.1103 -0.2868
  533MOL0     C71881   5.479   3.186  11.918  0.2048  0.0942 -0.3838
  533MOL0     C71882   5.498   3.290  12.033 -0.1488  0.2378 -0.2356
  533MOL0     C71883   5.529   3.209  12.146 -0.2350  0.9721 -0.0414
  533MOL0     C71884   5.551   3.134  12.242 -0.3189  0.1629 -0.2751
  533MOL0     C71885   5.694   3.074  11.446  0.8649  0.1849 -0.2409
  533MOL0     C71886   5.725   3.011  11.330 -0.5105 -0.7632  0.2728
  533MOL0     C71887   5.874   3.013  11.294  0.0880  0.3800  0.6560
  533MOL0     H71888   5.811   2.961  10.859  1.3481 -1.0761  1.0807
  533MOL0     H71889   5.842   2.865  10.634  0.3720  3.5287  2.1789
  533MOL0     H71890   5.753   2.448  10.586 -0.3263 -1.1226  0.4129
  533MOL0     H71891   5.603   2.523  10.523  0.0422  3.4010 -2.1996
  533MOL0     H71892   5.704   2.551  10.305  0.5709  0.0857 -1.4369
  533MOL0     H71893   5.692   2.391  10.333 -1.2801  1.1602 -0.4961
  533MOL0     H71894   5.935   2.392  10.421  0.4509 -0.5075 -0.2762
  533MOL0     H71895   5.955   2.569  10.380 -2.2907  0.9100  2.5843
  533MOL0     H71896   6.042   2.371  10.221 -0.2536  0.6638  0.2650
  533MOL0     H71897   5.877   2.354  10.185 -0.1837 -0.1304  1.7245
  533MOL0     H71898   5.842   2.593  10.128 -0.3802  0.7181  0.3785
  533MOL0     H71899   6.008   2.631  10.156  0.4942 -1.6645 -0.2920
  533MOL0     H71900   6.015   2.607   9.924 -0.7369  1.5005  2.1230
  533MOL0     H71901   6.080   2.463   9.967  0.2877  0.2810  1.2603
  533MOL0     H71902   5.861   2.327   9.965 -3.2301  0.1107 -0.0811
  533MOL0     H71903   5.933   2.387   9.812 -0.8220  0.6004 -0.8273
  533MOL0     H71904   5.712   2.543   9.939  1.2683 -0.1151 -0.2070
  533MOL0     H71905   5.796   2.574   9.789 -1.2140  2.3357  0.5943
  533MOL0     H71906   5.819   2.316   9.626  1.9487 -2.3724  2.8874
  533MOL0     H71907   5.696   2.106   9.518  0.2856 -0.4921  2.6851
  533MOL0     H71908   5.554   2.048   9.592  1.7545 -0.4556  2.6874
  533MOL0     H71909   5.412   2.224   9.475  0.1887 -1.1366  1.0842
  533MOL0     H71910   5.549   2.286   9.398  1.5428 -1.1457 -2.1651
  533MOL0     H71911   5.385   2.084   9.301 -0.6180  1.8279  1.0465
  533MOL0     H71912   5.529   2.004   9.371 -0.2930 -0.3338 -1.7564
  533MOL0     H71913   5.527   2.199   9.130  3.1571 -0.3701 -2.8309
  533MOL0     H71914   5.568   2.034   9.130 -4.9155  0.6083 -1.7204
  533MOL0     H71915   5.927   2.240   9.262 -1.1484 -0.1402 -2.8976
  533MOL0     H71916   6.143   2.101   9.290 -0.1491  0.8356 -1.6966
  533MOL0     H71917   6.334   1.596   9.178 -0.6255  5.8866  0.6574
  533MOL0     H71918   6.524   1.489   9.275  0.0999 -0.0384  1.8741
  533MOL0     H71919   6.616   1.251   9.502 -0.4704  0.3646 -1.9619
  533MOL0     H71920   6.668   1.389   9.401 -1.5155  2.1912 -0.1214
  533MOL0     H71921   6.775   1.473   9.623  0.4184 -0.2489  0.5694
  533MOL0     H71922   6.762   1.319   9.690  4.0185  0.7297  1.4424
  533MOL0     H71923   6.903   1.219   9.512 -1.4098 -0.6610  1.1147
  533MOL0     H71924   6.903   1.366   9.425 -4.0926  2.2185  0.8711
  533MOL0     H71925   7.031   1.330   9.702 -0.8682 -0.3143 -0.0964
  533MOL0     H71926   7.016   1.481   9.629 -2.3473 -1.1530  2.7505
  533MOL0     H71927   7.160   1.365   9.419  0.5125 -0.9715  0.4736
  533MOL0     H71928   7.175   1.240   9.535  2.6736  0.8566  3.5001
  533MOL0     H71929   7.249   1.521   9.625  0.4822  1.0099 -0.8975
  533MOL0     H71930   7.293   1.375   9.693 -3.8439 -2.2220 -0.4337
  533MOL0     H71931   7.383   1.502   9.424 -0.6320  0.5585 -0.0618
  533MOL0     H71932   7.386   1.323   9.464  0.9910 -0.5032  3.2556
  533MOL0     H71933   7.549   1.509   9.608 -3.8462 -0.5548  1.3976
  533MOL0     H71934   7.530   1.330   9.644  1.6205 -2.2201 -1.9707
  533MOL0     H71935   6.323   1.508   9.657 -4.1336  2.0315  0.6123
  533MOL0     H71936   6.145   1.639   9.546  2.3588  2.0715  1.2516
  533MOL0     H71937   5.911   1.752   9.229 -1.1877  1.3223 -0.0956
  533MOL0     H71938   5.710   1.863   9.206  0.5075 -1.0368  1.7101
  533MOL0     H71939   5.624   2.511  10.772 -1.7084  1.4588 -1.6997
  533MOL0     H71940   5.613   2.590  10.989 -1.2003  1.9034  0.9117
  533MOL0     H71941   5.402   2.929  11.260  0.1256 -0.1203 -2.8897
  533MOL0     H71942   5.364   3.035  11.462 -0.1336 -1.3413 -1.4159
  533MOL0     H71943   5.353   3.092  11.670 -1.1069  0.4103 -0.9059
  533MOL0     H71944   5.353   3.244  11.591 -2.8580 -2.7297 -1.2896
  533MOL0     H71945   5.302   3.249  11.846  0.3333 -2.1237  1.1418
  533MOL0     H71946   5.442   3.351  11.800 -3.4234  1.4596  0.0172
  533MOL0     H71947   5.580   3.155  11.889  0.2845  0.7499 -0.8333
  533MOL0     H71948   5.422   3.100  11.954  2.0814 -0.9305  0.2723
  533MOL0     H71949   5.568   3.368  12.004  0.5439 -0.4983 -0.6065
  533MOL0     H71950   5.406   3.332  12.073  0.2373 -0.9985  2.1077
  533MOL0     H71951   5.575   3.052  12.307 -0.3770 -2.3479 -3.2113
  533MOL0     H71952   5.767   3.143  11.487  1.4052  1.1974 -2.6747
  533MOL0     H71953   5.884   2.997  11.187 -0.9886 -2.1093  0.8574
  533MOL0     H71954   5.915   3.110  11.325 -0.4649  0.4255  1.2959
  533MOL0     H71955   5.918   2.923  11.337  0.6843  0.6834  0.6876
  534MOL0     O71956   3.060   2.654   4.185  0.6798 -0.2965 -0.1903
  534MOL0     C71957   2.986   2.728   4.259  1.4048  0.3846  0.2332
  534MOL0     O71958   2.861   2.685   4.305  0.2011 -0.0931 -0.2625
  534MOL0     C71959   2.814   2.557   4.289  0.1188  0.1827  0.8415
  534MOL0     C71960   2.678   2.534   4.281 -0.0804 -0.7183 -0.2242
  534MOL0     C71961   2.625   2.406   4.269  0.2438  0.7474  0.0621
  534MOL0     C71962   2.705   2.290   4.260  0.0248 -0.1255  1.0175
  534MOL0     O71963   2.662   2.160   4.257  0.2614 -0.1755  0.5434
  534MOL0     C71964   2.632   2.123   4.387  0.5837  0.1268 -0.3983
  534MOL0     C71965   2.533   2.006   4.375 -0.3538  0.2012 -0.7544
  534MOL0     C71966   2.388   2.065   4.325 -1.1854  0.5579  0.2078
  534MOL0     C71967   2.328   2.151   4.428  0.1450  0.5443  0.1099
  534MOL0     C71968   2.179   2.172   4.413  0.2530  0.0361  0.6440
  534MOL0     C71969   2.155   2.270   4.296 -1.0140  1.0599 -0.3898
  534MOL0     C71970   2.015   2.329   4.299 -0.3285  0.2599  0.3643
  534MOL0     C71971   1.897   2.236   4.315  0.0165 -0.3848  0.1466
  534MOL0     N71972   1.766   2.288   4.299 -0.2737  0.5684 -0.3381
  534MOL0     C71973   1.713   2.302   4.176  0.0229  0.2368 -0.2203
  534MOL0     C71974   1.605   2.378   4.193  0.0795 -0.5360 -0.0149
  534MOL0     C71975   1.494   2.427   4.096 -0.4998  0.1247  0.0248
  534MOL0     C71976   1.527   2.524   3.983  0.1063 -0.3137 -0.3644
  534MOL0     C71977   1.410   2.540   3.892  0.8435  0.9213  0.6560
  534MOL0     C71978   1.422   2.657   3.798  0.5027  0.6220 -0.9012
  534MOL0     O71979   1.407   2.773   3.871  0.2864 -0.2019 -0.4871
  534MOL0     C71980   1.524   2.848   3.906 -0.5356  0.0566  0.0906
  534MOL0     C71981   1.655   2.835   3.850  0.4042 -0.2410 -0.6452
  534MOL0     C71982   1.753   2.930   3.866  0.7153  0.4019 -1.0213
  534MOL0     C71983   1.735   3.035   3.959  0.1857  0.0893 -0.4552
  534MOL0     C71984   1.835   3.134   3.997  0.6446  0.4201 -0.2576
  534MOL0     O71985   1.949   3.106   3.935 -0.2794 -0.2591  0.1904
  534MOL0     C71986   2.039   3.202   3.939 -0.1721  0.1916  0.8764
  534MOL0     C71987   2.026   3.318   3.870 -0.3738  0.7273  1.0572
  534MOL0     C71988   2.113   3.427   3.884 -0.2652 -0.3800 -0.1774
  534MOL0     C71989   2.234   3.413   3.965 -0.1323 -0.1340  0.0691
  534MOL0     O71990   2.319   3.522   3.977 -0.0776  0.6774  0.7706
  534MOL0     C71991   2.411   3.528   3.858  0.1801 -0.4300 -0.8693
  534MOL0     C71992   2.513   3.416   3.863  0.5668 -0.8008  1.2647
  534MOL0     C71993   2.599   3.416   3.731  0.6415 -0.5779  0.8242
  534MOL0     C71994   2.709   3.529   3.740  0.2419 -0.0020 -0.3084
  534MOL0     C71995   2.824   3.496   3.836  0.1972  0.4602  0.2514
  534MOL0     C71996   2.954   3.573   3.819 -0.5920 -0.4670  0.1314
  534MOL0     C71997   3.063   3.526   3.908  0.6953  0.5825 -0.3166
  534MOL0     C71998   3.201   3.565   3.871 -0.5973 -0.0575 -0.4081
  534MOL0    Cl71999   3.214   3.749   3.891  0.1869 -0.1716 -0.1076
  534MOL0     C72000   2.243   3.293   4.044  0.2505 -0.3540  0.0079
  534MOL0     C72001   2.153   3.184   4.021 -0.4793  0.1540 -0.4537
  534MOL0     O72002   1.824   3.221   4.083 -0.8034 -0.5652  0.8236
  534MOL0     C72003   1.613   3.041   4.033 -0.3214  0.4632 -0.1878
  534MOL0     C72004   1.511   2.948   4.007 -0.3626  0.3887  0.2596
  534MOL0     N72005   1.598   2.408   4.327  1.0091  0.5899  0.6573
  534MOL0     N72006   1.699   2.354   4.393  0.2817 -0.7491 -1.2985
  534MOL0     C72007   2.840   2.320   4.249  0.2758 -0.4098 -0.5594
  534MOL0     C72008   2.895   2.439   4.275  0.3133  0.7598 -0.1602
  534MOL0     C72009   3.043   2.859   4.315 -0.3008 -0.1744 -0.2001
  534MOL0     C72010   3.094   2.950   4.226 -0.2249  0.0060  1.1498
  534MOL0     C72011   3.130   3.078   4.252 -0.5611 -0.0111  0.2900
  534MOL0     C72012   3.136   3.103   4.385  0.7761 -0.9853 -0.8322
  534MOL0     O72013   3.178   3.230   4.434 -0.1758 -0.7518  0.2180
  534MOL0     C72014   3.234   3.329   4.347  0.3164 -0.2823 -0.2364
  534MOL0     C72015   3.283   3.448   4.427 -0.3965  0.1139  0.2486
  534MOL0     C72016   3.394   3.536   4.355  0.2269  1.5159  0.6349
  534MOL0     C72017   3.493   3.601   4.447 -0.5226  0.6488 -0.2466
  534MOL0     C72018   3.567   3.497   4.528  0.5092  0.1559 -0.6372
  534MOL0     C72019   3.617   3.418   4.606 -0.4769 -0.0529  0.5319
  534MOL0     C72020   3.082   3.016   4.488 -1.5314 -0.0585  0.0378
  534MOL0     C72021   3.042   2.893   4.449  0.8807  0.3394 -1.0893
  534MOL0     C72022   2.983   2.800   4.556 -0.3067  0.4028 -0.2803
  534MOL0     H72023   2.610   2.616   4.303 -1.2011 -1.9763  1.2331
  534MOL0     H72024   2.518   2.388   4.266  0.2163  1.0078 -0.9996
  534MOL0     H72025   2.720   2.082   4.437  0.2980 -2.8053 -2.0826
  534MOL0     H72026   2.590   2.205   4.446  0.4137  0.9191 -1.5838
  534MOL0     H72027   2.524   1.947   4.467  1.4986  1.1624  0.0932
  534MOL0     H72028   2.565   1.940   4.293  1.1210  3.2295 -2.8262
  534MOL0     H72029   2.324   1.983   4.290  0.4233 -0.7820  0.2686
  534MOL0     H72030   2.409   2.128   4.237 -1.1471  1.1636  0.6425
  534MOL0     H72031   2.332   2.106   4.528 -1.2169 -2.4679 -1.0763
  534MOL0     H72032   2.382   2.246   4.417 -2.0044  1.8535  0.3398
  534MOL0     H72033   2.124   2.077   4.413  0.6680 -0.2935 -2.2465
  534MOL0     H72034   2.162   2.240   4.496 -0.4993  2.7554 -1.5764
  534MOL0     H72035   2.228   2.351   4.300  0.2155 -0.0698  1.3489
  534MOL0     H72036   2.175   2.220   4.201  1.8150  0.3083  0.4876
  534MOL0     H72037   2.000   2.380   4.203 -1.2539  2.5480  1.6568
  534MOL0     H72038   2.021   2.399   4.382  4.3787 -1.3995  1.7259
  534MOL0     H72039   1.898   2.158   4.238  2.2225  1.8020 -2.2120
  534MOL0     H72040   1.911   2.196   4.416 -1.2560  1.9819  1.3286
  534MOL0     H72041   1.744   2.266   4.078 -1.6230  1.0832 -1.0959
  534MOL0     H72042   1.462   2.328   4.062  0.3917 -0.2775  0.3226
  534MOL0     H72043   1.415   2.479   4.150  0.5307  1.6504  0.1142
  534MOL0     H72044   1.542   2.623   4.026 -2.8696  0.7337 -1.4834
  534MOL0     H72045   1.621   2.481   3.949  0.5103 -0.1607  0.5434
  534MOL0     H72046   1.314   2.539   3.945  1.0776 -0.8268  1.0914
  534MOL0     H72047   1.409   2.457   3.822  3.4138  1.8288 -0.5830
  534MOL0     H72048   1.337   2.646   3.730 -0.5657 -1.0483  0.6081
  534MOL0     H72049   1.519   2.647   3.748  2.3507  1.3618  2.2465
  534MOL0     H72050   1.682   2.753   3.784 -0.1112 -0.4946 -0.5482
  534MOL0     H72051   1.837   2.922   3.799  0.7206 -0.4278 -0.9302
  534MOL0     H72052   1.942   3.320   3.801  2.0874 -0.6926 -2.2967
  534MOL0     H72053   2.094   3.509   3.817  1.6333 -2.1385 -3.1203
  534MOL0     H72054   2.353   3.532   3.766  0.0380 -2.1371 -0.8789
  534MOL0     H72055   2.466   3.622   3.868  0.5199 -0.7673  0.9073
  534MOL0     H72056   2.573   3.435   3.952 -0.2511 -0.9165  1.8468
  534MOL0     H72057   2.467   3.317   3.866  2.5525 -1.7642  2.1700
  534MOL0     H72058   2.645   3.317   3.719 -0.3662 -0.8754 -0.8977
  534MOL0     H72059   2.538   3.430   3.642 -0.5592 -2.5160  1.2935
  534MOL0     H72060   2.654   3.621   3.765 -1.5811 -1.4955  1.4868
  534MOL0     H72061   2.752   3.548   3.641  0.7369  2.1346  0.2547
  534MOL0     H72062   2.856   3.391   3.827  0.0258 -0.0268  3.8192
  534MOL0     H72063   2.795   3.493   3.942  2.3222  1.2242  0.9166
  534MOL0     H72064   2.986   3.564   3.715  0.9956 -1.7367  0.6760
  534MOL0     H72065   2.928   3.676   3.848 -0.5090  0.1234 -1.7695
  534MOL0     H72066   3.070   3.417   3.900 -1.2754  0.3411  0.5817
  534MOL0     H72067   3.055   3.544   4.016  1.2825  1.3029 -0.3857
  534MOL0     H72068   3.272   3.509   3.933  1.1962 -0.5227 -2.7591
  534MOL0     H72069   3.233   3.537   3.770  1.3952  0.3323  0.0766
  534MOL0     H72070   2.337   3.283   4.096  1.4083  2.2267 -1.3865
  534MOL0     H72071   2.180   3.095   4.077  0.5601  0.2507 -0.7663
  534MOL0     H72072   1.594   3.120   4.105 -1.6077  0.1134 -0.1241
  534MOL0     H72073   1.421   2.946   4.067  0.7011 -0.6795  1.8902
  534MOL0     H72074   2.900   2.232   4.229  0.4627 -0.3715 -0.1645
  534MOL0     H72075   3.003   2.454   4.272  0.1586  1.8046 -1.1759
  534MOL0     H72076   3.097   2.922   4.121  1.6754  2.5754  0.3935
  534MOL0     H72077   3.170   3.151   4.183  3.4745  2.1745  4.3567
  534MOL0     H72078   3.166   3.360   4.267  1.4143 -0.2533 -1.1738
  534MOL0     H72079   3.309   3.276   4.288  1.4094  1.1921 -0.2184
  534MOL0     H72080   3.312   3.411   4.525 -1.1412  1.0725  0.8417
  534MOL0     H72081   3.202   3.518   4.448  0.5845  1.2732  0.2990
  534MOL0     H72082   3.356   3.618   4.294  0.8657  1.9017  0.7453
  534MOL0     H72083   3.442   3.479   4.274 -0.6738  1.5535  0.0556
  534MOL0     H72084   3.560   3.667   4.392 -1.6825  1.1188 -1.1255
  534MOL0     H72085   3.427   3.659   4.512 -2.6493  1.4868 -2.9444
  534MOL0     H72086   3.682   3.373   4.679  3.8279  3.5876 -0.5235
  534MOL0     H72087   3.071   3.047   4.591 -3.5305  2.9676 -0.9310
  534MOL0     H72088   3.044   2.796   4.646 -2.5494 -2.5946  1.2709
  534MOL0     H72089   2.882   2.839   4.574  0.1091  2.4081 -1.9444
  534MOL0     H72090   2.973   2.697   4.521 -0.8368 -0.0346  1.1175
  535MOL0     O72091  10.232   7.517   1.745 -0.0219  0.8389  0.0106
  535MOL0     C72092  10.203   7.415   1.818  0.0367  0.2024  0.2825
  535MOL0     O72093  10.075   7.387   1.850 -0.3476 -0.0078  0.6022
  535MOL0     C72094   9.975   7.454   1.779 -0.0194 -0.2585 -0.6075
  535MOL0     C72095   9.934   7.412   1.654  0.6423  0.0959  0.5455
  535MOL0     C72096   9.835   7.486   1.581 -0.8507  0.7646  0.2041
  535MOL0     C72097   9.752   7.573   1.646 -0.0092  0.1020 -0.7749
  535MOL0     O72098   9.632   7.623   1.604  0.2711 -0.1160  0.6999
  535MOL0     C72099   9.623   7.634   1.460  0.1407  0.5429 -0.0221
  535MOL0     C72100   9.557   7.508   1.397 -0.4049  0.6964  0.4709
  535MOL0     C72101   9.521   7.542   1.253 -0.8842 -0.0913  0.2931
  535MOL0     C72102   9.549   7.414   1.172 -0.5251 -0.1766  0.5406
  535MOL0     C72103   9.506   7.430   1.020 -0.3757 -0.1684  0.4073
  535MOL0     C72104   9.362   7.392   0.979  0.2453 -0.2891  0.2410
  535MOL0     C72105   9.312   7.418   0.836 -0.4015 -0.3934  0.1002
  535MOL0     C72106   9.167   7.392   0.828 -0.0890  0.3518  0.1119
  535MOL0     N72107   9.133   7.262   0.770  0.3168  0.1187 -1.4512
  535MOL0     C72108   9.046   7.244   0.671  0.4893  0.8127  0.0415
  535MOL0     C72109   9.044   7.110   0.646  0.3441 -0.0948  1.0944
  535MOL0     C72110   8.976   7.040   0.540  0.3022  0.1157  0.3467
  535MOL0     C72111   8.838   6.986   0.585 -0.5316 -0.5079 -0.0413
  535MOL0     C72112   8.745   6.938   0.469 -0.0217 -0.2769  0.2075
  535MOL0     C72113   8.606   6.900   0.523 -0.0960  0.5771 -0.4486
  535MOL0     O72114   8.526   7.022   0.546 -0.1793 -0.7590  0.6619
  535MOL0     C72115   8.385   7.017   0.537 -0.7661 -1.2554 -0.8653
  535MOL0     C72116   8.299   6.924   0.470  0.1888  0.0322 -1.0636
  535MOL0     C72117   8.157   6.939   0.484  0.6190  0.3910  0.1214
  535MOL0     C72118   8.100   7.052   0.544  0.9821  0.0169 -0.4598
  535MOL0     C72119   7.956   7.068   0.547  0.5533 -0.1948 -0.8342
  535MOL0     O72120   7.873   6.972   0.508  0.5192 -0.0924 -0.2613
  535MOL0     C72121   7.738   6.990   0.533 -0.6367  0.8254  0.4769
  535MOL0     C72122   7.672   7.096   0.470 -0.0106 -0.7919  0.6175
  535MOL0     C72123   7.533   7.106   0.486 -0.6231 -0.2518 -0.7005
  535MOL0     C72124   7.457   7.005   0.546  0.5300 -0.3747  0.5977
  535MOL0     O72125   7.318   7.024   0.544 -0.8584  0.0993 -0.7389
  535MOL0     C72126   7.227   6.917   0.581 -0.1380 -0.1519  0.0457
  535MOL0     C72127   7.202   6.915   0.731 -0.7494  0.0876  0.4322
  535MOL0     C72128   7.110   6.797   0.773 -0.2192 -0.1915  0.8558
  535MOL0     C72129   6.953   6.840   0.761 -0.7407 -0.3005  0.0084
  535MOL0     C72130   6.859   6.751   0.848 -0.5262 -0.5560 -0.5010
  535MOL0     C72131   6.722   6.798   0.853  0.7097 -0.0911  0.9554
  535MOL0     C72132   6.650   6.693   0.952 -0.2859  0.0836  0.5052
  535MOL0     C72133   6.502   6.725   0.967  0.1859  0.8578 -0.3579
  535MOL0    Cl72134   6.436   6.599   1.086  0.2948  0.4717 -0.0708
  535MOL0     C72135   7.519   6.892   0.595 -0.4310  0.5398 -0.2166
  535MOL0     C72136   7.659   6.889   0.595 -0.9091  0.7346  0.7688
  535MOL0     O72137   7.919   7.171   0.608 -0.6681  0.0732 -0.4725
  535MOL0     C72138   8.194   7.146   0.589 -0.6426 -0.0365 -1.0977
  535MOL0     C72139   8.326   7.132   0.591  0.3682  0.2629 -0.6398
  535MOL0     N72140   9.125   7.050   0.739  0.3537  1.0674 -0.4829
  535MOL0     N72141   9.180   7.138   0.813  0.2854  0.2752 -0.5051
  535MOL0     C72142   9.784   7.614   1.777  0.7713 -0.5579  0.8951
  535MOL0     C72143   9.898   7.552   1.840 -0.3165 -0.1101  0.0313
  535MOL0     C72144  10.311   7.327   1.864  0.0086 -0.4060 -0.0351
  535MOL0     C72145  10.280   7.205   1.921 -1.3374  0.2767 -0.1889
  535MOL0     C72146  10.374   7.135   1.993  0.4151 -0.3893  0.3785
  535MOL0     C72147  10.504   7.167   2.010 -0.4929 -0.1092 -0.4980
  535MOL0     O72148  10.584   7.086   2.089  0.0013 -0.3836  0.0006
  535MOL0     C72149  10.722   7.118   2.116  0.2179 -0.2048 -0.1135
  535MOL0     C72150  10.803   7.018   2.205 -0.0668 -0.2072 -0.7816
  535MOL0     C72151  10.832   6.885   2.134 -1.1734 -1.1673  0.2055
  535MOL0     C72152  10.909   6.894   1.996 -0.1732 -0.5084  0.4583
  535MOL0     C72153  11.044   6.943   2.011  0.0429  0.0635 -0.1367
  535MOL0     C72154  11.162   6.972   2.020 -0.0566  0.1444  0.6471
  535MOL0     C72155  10.546   7.280   1.948 -0.8273  0.2402  0.0612
  535MOL0     C72156  10.452   7.362   1.879 -0.1128 -0.0955 -0.0401
  535MOL0     C72157  10.503   7.495   1.831  0.2332  0.6883  0.4501
  535MOL0     H72158   9.992   7.337   1.600  0.9174  2.3950 -2.6779
  535MOL0     H72159   9.814   7.457   1.478 -0.4425  1.8249 -0.1946
  535MOL0     H72160   9.550   7.710   1.428  1.4220  1.4685 -0.8410
  535MOL0     H72161   9.716   7.671   1.417 -0.8666  1.6507 -1.3735
  535MOL0     H72162   9.460   7.481   1.440 -0.8778  3.1880  1.1388
  535MOL0     H72163   9.634   7.432   1.415 -0.7792  0.6610  2.0834
  535MOL0     H72164   9.576   7.620   1.199 -0.2291 -1.6549 -1.4040
  535MOL0     H72165   9.415   7.569   1.243 -0.3712  2.1480  0.3899
  535MOL0     H72166   9.656   7.395   1.159 -0.6195 -1.7046  1.6648
  535MOL0     H72167   9.505   7.327   1.223  0.0655 -2.8597 -3.1312
  535MOL0     H72168   9.524   7.532   0.985  3.0831 -0.7627  0.1472
  535MOL0     H72169   9.573   7.374   0.953  1.2709 -1.5760  3.0758
  535MOL0     H72170   9.327   7.290   0.994 -2.4367  0.6988  1.2366
  535MOL0     H72171   9.303   7.442   1.056  0.8597 -1.6843  1.6918
  535MOL0     H72172   9.366   7.351   0.768 -1.3688 -2.6314  1.4352
  535MOL0     H72173   9.329   7.525   0.815 -1.5573  0.1662  1.8006
  535MOL0     H72174   9.123   7.412   0.926 -1.1406  0.3366 -0.3480
  535MOL0     H72175   9.130   7.455   0.747  1.2075 -3.7385 -4.0701
  535MOL0     H72176   8.991   7.321   0.617 -1.3962 -0.6719 -0.2983
  535MOL0     H72177   8.958   7.098   0.449  0.5388  0.4917  0.5360
  535MOL0     H72178   9.035   6.951   0.518  1.2804  0.9146 -0.3746
  535MOL0     H72179   8.850   6.907   0.659 -3.5460 -0.5399  0.5273
  535MOL0     H72180   8.789   7.071   0.632 -0.8052  0.0536 -1.2863
  535MOL0     H72181   8.782   6.848   0.419  0.3533 -1.3820  2.3303
  535MOL0     H72182   8.744   7.025   0.403  0.1407 -0.6416 -0.2818
  535MOL0     H72183   8.625   6.842   0.614  1.3430  0.2265 -0.9378
  535MOL0     H72184   8.562   6.826   0.457 -2.5230  1.3493  0.2242
  535MOL0     H72185   8.334   6.834   0.421  0.4141 -0.8975  0.7157
  535MOL0     H72186   8.096   6.859   0.443 -0.9201  1.5850 -0.0341
  535MOL0     H72187   7.720   7.173   0.411 -0.1794 -1.0355  0.1566
  535MOL0     H72188   7.482   7.181   0.427 -1.9804 -1.3363 -0.9507
  535MOL0     H72189   7.134   6.941   0.527  0.6393  0.5839 -1.0231
  535MOL0     H72190   7.271   6.823   0.548  1.6872  1.3393 -2.0495
  535MOL0     H72191   7.302   6.913   0.776 -0.4274  0.4337 -0.2533
  535MOL0     H72192   7.152   7.002   0.774 -1.9908 -0.4088  0.0515
  535MOL0     H72193   7.125   6.701   0.723 -0.9978 -1.6660  3.2657
  535MOL0     H72194   7.101   6.768   0.878  1.0356 -4.0577  0.0652
  535MOL0     H72195   6.923   6.837   0.656 -0.8890  1.3319 -0.0344
  535MOL0     H72196   6.939   6.945   0.792 -4.3297 -1.5042  3.2495
  535MOL0     H72197   6.897   6.744   0.951  0.4236  1.6293 -0.6540
  535MOL0     H72198   6.857   6.651   0.805  2.2082 -0.8930 -0.0274
  535MOL0     H72199   6.706   6.904   0.875 -0.3230  0.4068 -1.8147
  535MOL0     H72200   6.664   6.783   0.762  1.9411 -2.7084  0.5357
  535MOL0     H72201   6.704   6.701   1.047  1.5447 -2.4396 -0.2211
  535MOL0     H72202   6.657   6.594   0.906  3.3238  0.6594 -0.4548
  535MOL0     H72203   6.497   6.824   1.014 -0.6048 -1.1698  4.5073
  535MOL0     H72204   6.451   6.722   0.870 -2.8403 -1.5357  1.1026
  535MOL0     H72205   7.456   6.811   0.630  0.0864  0.0274 -0.4486
  535MOL0     H72206   7.711   6.805   0.641 -2.0641 -0.9837 -0.9060
  535MOL0     H72207   8.162   7.242   0.630 -0.0027 -0.2900  0.0405
  535MOL0     H72208   8.387   7.208   0.640  0.0665  0.6588 -0.8688
  535MOL0     H72209   9.720   7.679   1.836 -0.2059 -1.3489  0.7277
  535MOL0     H72210   9.929   7.581   1.941 -3.1102 -1.0012  1.2342
  535MOL0     H72211  10.175   7.175   1.922 -0.7454 -2.5522  4.3162
  535MOL0     H72212  10.342   7.045   2.044 -0.0178  0.1214  1.0121
  535MOL0     H72213  10.721   7.216   2.164 -2.0550 -0.8247  1.2254
  535MOL0     H72214  10.768   7.136   2.018 -0.0453  0.0892 -0.1862
  535MOL0     H72215  10.747   7.007   2.298 -1.1246  1.5464 -1.1726
  535MOL0     H72216  10.895   7.075   2.224 -1.6123  2.2666 -0.3185
  535MOL0     H72217  10.736   6.833   2.123 -1.1473 -1.1250 -0.2354
  535MOL0     H72218  10.886   6.831   2.212  0.4522  3.0052  2.2714
  535MOL0     H72219  10.926   6.795   1.953  1.3254 -0.7820  1.5774
  535MOL0     H72220  10.853   6.956   1.926  0.9946  0.9038  0.7179
  535MOL0     H72221  11.267   6.995   2.013 -0.2658  0.5693 -1.7782
  535MOL0     H72222  10.648   7.310   1.971 -0.6551 -2.6461  4.3934
  535MOL0     H72223  10.481   7.499   1.724 -0.6063 -0.7760  0.5383
  535MOL0     H72224  10.446   7.575   1.880 -1.5422 -0.3935  0.2456
  535MOL0     H72225  10.610   7.516   1.832  0.5005  1.3714 -5.7188
  536MOL0     O72226   4.359   6.988   1.997  0.1374 -0.5979  0.1126
  536MOL0     C72227   4.292   6.911   2.059  0.0658  0.5117 -0.2588
  536MOL0     O72228   4.318   6.866   2.184  0.0410  0.2191  0.0594
  536MOL0     C72229   4.439   6.894   2.249 -0.6290  0.8550 -0.4706
  536MOL0     C72230   4.479   7.028   2.251  0.4265 -0.1444  0.1429
  536MOL0     C72231   4.582   7.072   2.336  0.5587  0.5031  0.2051
  536MOL0     C72232   4.650   6.981   2.411  0.3719 -0.0546  0.3035
  536MOL0     O72233   4.750   7.044   2.484  0.0095  0.1926 -0.6499
  536MOL0     C72234   4.798   6.986   2.602 -0.8290  0.4935 -0.4669
  536MOL0     C72235   4.797   7.073   2.732  0.4342  0.2777  0.4687
  536MOL0     C72236   4.900   7.178   2.754  0.0656 -0.7749  0.6758
  536MOL0     C72237   5.042   7.121   2.725 -0.1371  0.6937  0.5391
  536MOL0     C72238   5.150   7.241   2.752  0.6387  0.3998  0.0098
  536MOL0     C72239   5.116   7.382   2.692 -0.5840 -0.0209  0.5728
  536MOL0     C72240   5.085   7.484   2.800 -0.0587 -0.5287  0.6349
  536MOL0     C72241   5.059   7.632   2.760 -0.0372  0.4052 -0.1533
  536MOL0     N72242   5.065   7.727   2.866 -1.0400 -0.6435 -0.2667
  536MOL0     C72243   5.176   7.771   2.935 -0.3465 -0.3651  0.0124
  536MOL0     C72244   5.127   7.861   3.014 -0.3689  0.6169 -0.2536
  536MOL0     C72245   5.214   7.948   3.099 -0.2298  0.9412 -0.7711
  536MOL0     C72246   5.248   8.075   3.021  0.6240 -0.4799 -0.3221
  536MOL0     C72247   5.300   8.181   3.120 -0.2679 -0.5645  0.2741
  536MOL0     C72248   5.360   8.306   3.048 -0.4152 -0.8555  0.2240
  536MOL0     O72249   5.484   8.242   2.998  0.9937  0.7856  0.2383
  536MOL0     C72250   5.599   8.311   3.019  0.0796 -0.6816  0.0878
  536MOL0     C72251   5.711   8.264   3.095  0.0952 -0.4921  0.2270
  536MOL0     C72252   5.829   8.332   3.124  0.0696 -0.2062  0.2338
  536MOL0     C72253   5.845   8.459   3.055  0.4577  0.3816 -1.4543
  536MOL0     C72254   5.977   8.536   3.061  0.0619 -0.0891 -0.7320
  536MOL0     O72255   6.089   8.461   3.073  1.1647  1.2719  0.4266
  536MOL0     C72256   6.209   8.524   3.075 -0.1708 -0.3873 -0.5423
  536MOL0     C72257   6.238   8.636   3.152  0.2869 -0.2869  0.1525
  536MOL0     C72258   6.370   8.675   3.171 -1.1037 -0.3975 -0.6663
  536MOL0     C72259   6.473   8.609   3.105  0.4957  0.2159  1.1108
  536MOL0     O72260   6.607   8.661   3.110  0.4889 -0.0366  0.3182
  536MOL0     C72261   6.720   8.600   3.059  0.1001  0.1693  0.4091
  536MOL0     C72262   6.852   8.677   3.073 -0.1149  0.8337 -0.5581
  536MOL0     C72263   6.978   8.590   3.041 -0.2373  0.7546  0.0045
  536MOL0     C72264   7.107   8.675   3.014 -0.0491  0.2082 -0.3412
  536MOL0     C72265   7.216   8.591   2.949 -0.1724  0.4761  0.6535
  536MOL0     C72266   7.240   8.455   3.015 -0.3594 -0.0039  0.3770
  536MOL0     C72267   7.362   8.395   2.945  0.4462  0.1097 -1.4426
  536MOL0     C72268   7.405   8.260   2.998  0.3890 -0.3417  0.5946
  536MOL0    Cl72269   7.504   8.185   2.880 -0.4425 -0.4294 -0.1588
  536MOL0     C72270   6.442   8.509   3.014  0.5131 -0.1842  0.5444
  536MOL0     C72271   6.308   8.470   2.996  0.7119 -1.3010 -0.2337
  536MOL0     O72272   5.972   8.656   3.040  0.2554  0.1062  0.2663
  536MOL0     C72273   5.740   8.505   2.985 -0.3475 -0.4219  0.9569
  536MOL0     C72274   5.615   8.439   2.968 -0.1708  0.8428  0.3421
  536MOL0     N72275   4.993   7.892   2.989  0.3503  0.6334  0.1092
  536MOL0     N72276   4.961   7.813   2.897  0.4540  0.2325 -0.4473
  536MOL0     C72277   4.615   6.842   2.408  0.7342 -0.4516 -0.2340
  536MOL0     C72278   4.500   6.803   2.330 -0.9162 -0.8089 -0.5713
  536MOL0     C72279   4.159   6.850   1.997 -0.3285  0.2328 -0.5927
  536MOL0     C72280   4.054   6.824   2.084 -0.4263  0.6750  0.4863
  536MOL0     C72281   3.935   6.764   2.052  0.8116 -0.4764 -0.2353
  536MOL0     C72282   3.914   6.726   1.918 -0.8237 -0.9546  0.4091
  536MOL0     O72283   3.801   6.663   1.884 -1.1193 -0.4363  0.1897
  536MOL0     C72284   3.707   6.742   1.808 -0.3589 -0.4916 -0.3565
  536MOL0     C72285   3.620   6.839   1.882  0.8487 -0.6242  0.1109
  536MOL0     C72286   3.528   6.754   1.961 -0.5656 -0.1485 -0.9498
  536MOL0     C72287   3.476   6.844   2.070  0.0043 -0.0884  0.3042
  536MOL0     C72288   3.377   6.930   2.007  0.0405  0.2814 -0.3856
  536MOL0     C72289   3.302   7.003   1.954 -0.5268 -0.6924  0.1108
  536MOL0     C72290   4.013   6.753   1.825  0.5253 -0.9338  0.6366
  536MOL0     C72291   4.133   6.821   1.863  1.1484 -0.5485  0.1057
  536MOL0     C72292   4.228   6.857   1.754 -0.8904 -0.3358  0.6275
  536MOL0     H72293   4.427   7.102   2.193 -0.2230 -0.2866  0.5322
  536MOL0     H72294   4.598   7.178   2.356 -1.2140  0.4344  2.4366
  536MOL0     H72295   4.734   6.904   2.635 -0.9335  2.0509  3.8337
  536MOL0     H72296   4.899   6.950   2.581  0.0503  2.6325 -0.2041
  536MOL0     H72297   4.805   7.003   2.816 -0.3302 -2.2377 -1.4369
  536MOL0     H72298   4.697   7.120   2.729  0.8204  1.3075  2.1291
  536MOL0     H72299   4.891   7.227   2.851 -1.3944  0.2013  0.0859
  536MOL0     H72300   4.873   7.255   2.681 -3.2441 -3.6956 -1.5124
  536MOL0     H72301   5.066   7.035   2.788  0.8078  1.4690  1.2782
  536MOL0     H72302   5.051   7.091   2.620 -1.8001 -0.9434  0.8255
  536MOL0     H72303   5.157   7.246   2.861 -1.9865  1.6164  0.2101
  536MOL0     H72304   5.246   7.209   2.711  1.7410  0.9624  2.0577
  536MOL0     H72305   5.207   7.412   2.640 -1.2285 -0.2369 -0.7283
  536MOL0     H72306   5.030   7.382   2.623 -0.3999 -0.3494  0.3427
  536MOL0     H72307   5.162   7.486   2.877 -0.4945 -1.3307  1.1037
  536MOL0     H72308   4.987   7.454   2.839 -1.7440  1.8831 -1.4330
  536MOL0     H72309   5.133   7.667   2.687  1.9778 -2.2040  0.4989
  536MOL0     H72310   4.959   7.634   2.715  1.2896  1.5235 -3.3191
  536MOL0     H72311   5.278   7.739   2.916  0.4795 -0.0108  3.3017
  536MOL0     H72312   5.159   7.962   3.192 -2.8560 -2.9560 -1.4958
  536MOL0     H72313   5.307   7.897   3.126  0.0082  1.0319 -1.4140
  536MOL0     H72314   5.315   8.049   2.938 -2.1061  1.1138 -3.2770
  536MOL0     H72315   5.151   8.103   2.978  0.1265 -1.8505 -0.1429
  536MOL0     H72316   5.373   8.137   3.188  1.1258  1.2095  0.0085
  536MOL0     H72317   5.209   8.220   3.166 -0.3962 -1.6165  0.9566
  536MOL0     H72318   5.366   8.399   3.105  0.5767  1.0872 -2.8076
  536MOL0     H72319   5.299   8.337   2.962  2.1379  0.1964 -1.3182
  536MOL0     H72320   5.705   8.158   3.119 -1.9456 -1.1295 -2.6884
  536MOL0     H72321   5.898   8.278   3.187  0.8140  2.3292  1.7475
  536MOL0     H72322   6.171   8.694   3.214  0.0568 -2.3389  1.9595
  536MOL0     H72323   6.375   8.758   3.242  0.2567 -0.3622 -0.7690
  536MOL0     H72324   6.736   8.506   3.111  0.2528 -1.5957 -2.5932
  536MOL0     H72325   6.705   8.576   2.953 -1.0654  0.5241  0.4826
  536MOL0     H72326   6.850   8.759   3.001  0.7491  1.8512  0.5381
  536MOL0     H72327   6.863   8.715   3.175 -1.8140 -0.9960  0.3757
  536MOL0     H72328   6.995   8.519   3.123 -1.0035  0.3699 -0.1634
  536MOL0     H72329   6.953   8.538   2.948 -1.2590  0.3087  0.5134
  536MOL0     H72330   7.147   8.707   3.111 -1.2855 -2.1348  1.0529
  536MOL0     H72331   7.079   8.762   2.955  1.2561  0.9373  0.0808
  536MOL0     H72332   7.303   8.655   2.964 -0.6185  0.7819  2.1388
  536MOL0     H72333   7.200   8.577   2.842  0.9120  2.4670  0.1932
  536MOL0     H72334   7.266   8.473   3.120 -2.2719  2.1402  0.5475
  536MOL0     H72335   7.154   8.389   3.003  0.4972 -0.8166 -1.9376
  536MOL0     H72336   7.440   8.471   2.953 -0.3315  0.7213  2.5442
  536MOL0     H72337   7.331   8.386   2.841  1.3934 -0.8169 -1.6679
  536MOL0     H72338   7.459   8.282   3.091 -0.3010 -1.2086  1.2181
  536MOL0     H72339   7.313   8.202   3.014 -1.3402  1.7428 -1.2742
  536MOL0     H72340   6.512   8.462   2.944 -0.9168  0.3473 -1.3254
  536MOL0     H72341   6.270   8.395   2.927 -0.2020 -0.2122 -0.9619
  536MOL0     H72342   5.745   8.606   2.944 -2.0194 -0.5694  0.2974
  536MOL0     H72343   5.530   8.480   2.916 -2.0980  0.1042  2.7357
  536MOL0     H72344   4.672   6.775   2.471 -0.5145  1.4874  3.2073
  536MOL0     H72345   4.470   6.699   2.322 -1.4600 -0.6818 -0.2619
  536MOL0     H72346   4.054   6.852   2.189  0.8069  1.4215  0.3011
  536MOL0     H72347   3.863   6.723   2.122  0.7746  1.0895  0.6833
  536MOL0     H72348   3.652   6.674   1.742 -0.9993 -0.1627 -0.1708
  536MOL0     H72349   3.758   6.804   1.734 -0.1819 -0.1510  0.0477
  536MOL0     H72350   3.568   6.907   1.813  1.3633 -0.3003  0.0369
  536MOL0     H72351   3.680   6.909   1.942 -0.0277  1.0261 -0.8530
  536MOL0     H72352   3.589   6.679   2.013  0.4372  3.0697  3.0010
  536MOL0     H72353   3.451   6.707   1.899 -1.5212  1.1905 -0.8231
  536MOL0     H72354   3.426   6.779   2.142 -0.0815  2.3993  2.6088
  536MOL0     H72355   3.547   6.907   2.123 -1.7840 -0.8628  3.9205
  536MOL0     H72356   3.242   7.076   1.904  1.5649  0.4362 -0.9071
  536MOL0     H72357   4.007   6.729   1.720  0.5975 -0.0935  0.4279
  536MOL0     H72358   4.247   6.792   1.668 -1.8261 -0.7197  0.6988
  536MOL0     H72359   4.189   6.953   1.717  3.7086  2.5767  2.4704
  536MOL0     H72360   4.327   6.881   1.795 -1.2571 -0.8199  1.8245
  537MOL0     O72361  10.286   8.666   5.287  0.2192  0.0664  0.4787
  537MOL0     C72362  10.192   8.714   5.355  0.3289  0.1172 -0.0501
  537MOL0     O72363  10.203   8.801   5.452  0.3425 -0.5217 -0.7592
  537MOL0     C72364  10.321   8.861   5.485  0.0540 -0.5868  0.3252
  537MOL0     C72365  10.426   8.904   5.403 -0.3623 -0.2616  0.1989
  537MOL0     C72366  10.538   8.979   5.445  0.7887 -0.1702  0.2743
  537MOL0     C72367  10.547   8.996   5.581  0.2665 -0.4093  0.2580
  537MOL0     O72368  10.661   9.081   5.622  0.2197  0.4487 -0.6380
  537MOL0     C72369  10.631   9.180   5.726  0.0179 -0.4956  0.3859
  537MOL0     C72370  10.751   9.268   5.751  0.3166  0.6148 -0.5034
  537MOL0     C72371  10.726   9.373   5.861 -0.0377  0.0889  0.6777
  537MOL0     C72372  10.816   9.501   5.833  1.0266  0.5884 -0.4309
  537MOL0     C72373  10.774   9.611   5.941  0.0447  0.0932  0.4471
  537MOL0     C72374  10.840   9.756   5.913 -0.8171  0.7711 -0.3362
  537MOL0     C72375  10.993   9.758   5.884 -0.4753 -0.4791 -0.6512
  537MOL0     C72376  11.038   9.899   5.824  0.3370  0.4870 -0.1529
  537MOL0     N72377  11.039   9.887   5.678 -0.1216 -0.5567  0.3161
  537MOL0     C72378  10.921   9.871   5.605  0.2535  0.3914  0.1624
  537MOL0     C72379  10.953   9.829   5.483 -1.2389 -0.7967  0.5394
  537MOL0     C72380  10.878   9.783   5.365  0.0811 -0.3000  0.2552
  537MOL0     C72381  10.768   9.668   5.396 -0.4960  0.5308 -1.0858
  537MOL0     C72382  10.634   9.700   5.470 -0.4552 -0.7863 -0.1303
  537MOL0     C72383  10.567   9.841   5.442 -0.3482  0.0550 -0.2859
  537MOL0     O72384  10.515   9.859   5.308 -0.0153  0.7987 -0.2361
  537MOL0     C72385  10.410   9.769   5.286  0.5554 -0.2919 -0.0020
  537MOL0     C72386  10.406   9.660   5.201 -1.1214  0.2603 -0.5382
  537MOL0     C72387  10.291   9.579   5.184 -0.5512  0.1487 -1.3211
  537MOL0     C72388  10.176   9.605   5.261  0.1095 -1.2032  0.5165
  537MOL0     C72389  10.055   9.525   5.251 -0.3682  0.4557  0.4956
  537MOL0     O72390   9.945   9.565   5.319  0.8760 -0.3612  0.0886
  537MOL0     C72391   9.824   9.508   5.295  0.1988 -0.3968 -0.0817
  537MOL0     C72392   9.764   9.529   5.177  0.4467 -0.2574 -0.7518
  537MOL0     C72393   9.643   9.477   5.145 -1.0104  0.3841 -0.6626
  537MOL0     C72394   9.574   9.411   5.247 -0.3103  0.4618 -0.4738
  537MOL0     O72395   9.450   9.352   5.222 -0.1952  0.2754  0.0892
  537MOL0     C72396   9.392   9.241   5.296  0.0924 -0.2518  0.4919
  537MOL0     C72397   9.247   9.268   5.295  1.0664  0.6116  0.0584
  537MOL0     C72398   9.171   9.133   5.298  0.1090  0.0136 -0.1293
  537MOL0     C72399   9.020   9.152   5.286  0.6647  0.3594 -0.2029
  537MOL0     C72400   8.952   9.009   5.294 -0.4945 -0.1510  0.1067
  537MOL0     C72401   8.796   9.022   5.269  0.0770  0.0717 -0.0854
  537MOL0     C72402   8.734   9.029   5.406 -0.7949  0.2853  0.2155
  537MOL0     C72403   8.585   8.997   5.402 -1.3173  0.0684  0.3720
  537MOL0    Cl72404   8.500   9.112   5.293  0.0083 -0.1239  0.1906
  537MOL0     C72405   9.631   9.392   5.372 -0.4919  0.0451 -0.4555
  537MOL0     C72406   9.759   9.445   5.402 -0.6465 -0.9665  0.5994
  537MOL0     O72407  10.066   9.419   5.185 -0.2400 -0.3451 -0.1360
  537MOL0     C72408  10.173   9.718   5.345 -0.3360 -0.3337  0.0130
  537MOL0     C72409  10.288   9.800   5.349 -0.1464  0.2390 -0.3720
  537MOL0     N72410  11.086   9.835   5.473 -1.0863 -0.1875 -0.5167
  537MOL0     N72411  11.131   9.873   5.591 -0.3142  0.1437  0.7834
  537MOL0     C72412  10.452   8.953   5.672  0.3854  0.5936  0.0495
  537MOL0     C72413  10.339   8.890   5.620  0.2869 -0.7366 -1.5466
  537MOL0     C72414  10.055   8.656   5.337 -0.3148 -0.1063  0.0977
  537MOL0     C72415   9.968   8.653   5.441 -0.1599 -0.6285 -0.7645
  537MOL0     C72416   9.850   8.600   5.433  0.5362 -1.0390 -0.4390
  537MOL0     C72417   9.797   8.550   5.311 -0.7701 -0.9190 -0.1182
  537MOL0     O72418   9.671   8.513   5.312  0.3842  0.0765  0.1609
  537MOL0     C72419   9.621   8.436   5.198 -0.1882  0.2340  0.3230
  537MOL0     C72420   9.471   8.390   5.202 -0.8763 -0.5708  0.1553
  537MOL0     C72421   9.415   8.336   5.327 -0.0012 -0.0142  0.2284
  537MOL0     C72422   9.266   8.332   5.334  0.1596 -0.0313 -0.1494
  537MOL0     C72423   9.186   8.268   5.229  0.1330  0.8398 -0.3031
  537MOL0     C72424   9.107   8.224   5.148 -0.1782 -0.2675  0.5936
  537MOL0     C72425   9.884   8.564   5.201  0.5568 -0.9349  0.2240
  537MOL0     C72426  10.017   8.607   5.206 -0.0957 -0.0011  0.4719
  537MOL0     C72427  10.101   8.586   5.078 -0.2751 -0.3040 -0.0234
  537MOL0     H72428  10.423   8.892   5.296 -1.4191  0.8890  0.0857
  537MOL0     H72429  10.612   9.015   5.374 -0.1509  1.8524  0.2509
  537MOL0     H72430  10.543   9.238   5.697 -0.0489 -1.1293 -0.7463
  537MOL0     H72431  10.589   9.134   5.815 -2.8170  4.4759  2.0136
  537MOL0     H72432  10.772   9.319   5.656 -0.0763  2.0815  0.1706
  537MOL0     H72433  10.839   9.206   5.772 -0.8082 -0.8755  0.0530
  537MOL0     H72434  10.757   9.332   5.957  0.3542 -3.5354 -0.8417
  537MOL0     H72435  10.622   9.405   5.867  0.5407  2.0387  1.1890
  537MOL0     H72436  10.916   9.456   5.830  0.2955 -1.0871 -2.0579
  537MOL0     H72437  10.793   9.545   5.735  0.9649 -0.7043 -1.0282
  537MOL0     H72438  10.667   9.637   5.939  0.0284  0.0343  0.5799
  537MOL0     H72439  10.798   9.578   6.042  2.0742  2.6808  0.9220
  537MOL0     H72440  10.787   9.801   5.829  0.1339  1.5632 -0.5337
  537MOL0     H72441  10.825   9.823   5.998 -0.6329 -0.1127  0.4132
  537MOL0     H72442  11.018   9.673   5.819 -2.1340 -0.5858 -1.1975
  537MOL0     H72443  11.041   9.751   5.982  0.2067  1.7588 -0.7739
  537MOL0     H72444  10.981   9.984   5.861  0.1351  0.2261  0.1354
  537MOL0     H72445  11.141   9.916   5.856  0.8200 -0.7668 -0.9674
  537MOL0     H72446  10.817   9.867   5.635  0.3669  0.8807  0.6415
  537MOL0     H72447  10.824   9.861   5.310 -1.2205 -2.7948 -2.3087
  537MOL0     H72448  10.945   9.741   5.289  0.2246 -1.7327  1.1437
  537MOL0     H72449  10.736   9.645   5.294 -3.1596  3.6719 -1.1237
  537MOL0     H72450  10.813   9.583   5.449  1.2554  2.4679  0.7143
  537MOL0     H72451  10.658   9.695   5.577  1.1866 -1.4667 -0.4950
  537MOL0     H72452  10.552   9.630   5.452 -0.9208  0.1879 -2.0719
  537MOL0     H72453  10.641   9.919   5.461 -1.0438  0.1843  2.3834
  537MOL0     H72454  10.489   9.850   5.519  0.0349  1.1327 -0.0033
  537MOL0     H72455  10.501   9.628   5.158 -0.8521 -0.3984  0.5162
  537MOL0     H72456  10.310   9.488   5.127  3.8092  0.6781 -1.0449
  537MOL0     H72457   9.803   9.581   5.090 -0.0123 -0.3333 -1.0044
  537MOL0     H72458   9.598   9.503   5.049  1.0445  4.7726 -0.6794
  537MOL0     H72459   9.414   9.147   5.245 -3.7610 -0.6109 -0.8338
  537MOL0     H72460   9.428   9.220   5.397  3.1722  2.9932  0.2899
  537MOL0     H72461   9.208   9.319   5.383 -1.0081 -0.0817 -0.4081
  537MOL0     H72462   9.216   9.330   5.210 -2.0324  0.4651  0.9873
  537MOL0     H72463   9.209   9.068   5.218  2.9438 -0.5588  1.5314
  537MOL0     H72464   9.191   9.087   5.396 -2.2166  0.5339  0.6421
  537MOL0     H72465   8.996   9.187   5.185 -1.2179 -4.2655 -1.6416
  537MOL0     H72466   8.967   9.214   5.358 -0.6124 -1.2495  0.2907
  537MOL0     H72467   8.980   8.968   5.392 -1.4197  1.6632  1.1890
  537MOL0     H72468   8.990   8.943   5.216 -5.1437 -1.0846 -1.7402
  537MOL0     H72469   8.758   9.098   5.201 -3.1046 -2.3090 -1.2457
  537MOL0     H72470   8.766   8.928   5.221 -1.2208  0.5912 -0.3282
  537MOL0     H72471   8.756   9.130   5.441  2.1319 -0.9716  2.3694
  537MOL0     H72472   8.783   8.960   5.476  3.8988  1.8710 -1.1453
  537MOL0     H72473   8.574   8.898   5.355 -2.4004  0.9557 -1.3500
  537MOL0     H72474   8.539   8.985   5.500 -0.1487  1.6207  1.1439
  537MOL0     H72475   9.571   9.344   5.449 -0.4844  2.1547  0.9440
  537MOL0     H72476   9.812   9.456   5.497  0.4566  0.3463 -0.1226
  537MOL0     H72477  10.087   9.741   5.406 -0.6127 -1.2968  0.0007
  537MOL0     H72478  10.289   9.885   5.416  0.1652 -0.6201  0.7355
  537MOL0     H72479  10.472   8.956   5.779 -0.6075  2.6049  0.2352
  537MOL0     H72480  10.266   8.856   5.692 -0.1718 -0.2192 -1.7554
  537MOL0     H72481  10.002   8.686   5.539 -1.6043 -1.5487  0.0798
  537MOL0     H72482   9.782   8.590   5.517 -0.7433 -0.6615 -1.3968
  537MOL0     H72483   9.681   8.345   5.194  0.9947  0.9939  0.1803
  537MOL0     H72484   9.633   8.494   5.105 -1.5516 -0.7869 -0.5315
  537MOL0     H72485   9.458   8.314   5.124 -4.4337  1.9352 -1.9933
  537MOL0     H72486   9.412   8.479   5.175  2.3577  1.6335 -0.2228
  537MOL0     H72487   9.462   8.391   5.409  0.8387  0.1852 -0.3707
  537MOL0     H72488   9.456   8.235   5.342  2.2202  0.5970 -1.2070
  537MOL0     H72489   9.243   8.290   5.433  0.5883  0.2955  0.0967
  537MOL0     H72490   9.236   8.437   5.325 -2.3908 -0.6590  0.1997
  537MOL0     H72491   9.037   8.189   5.074 -1.9377  3.6734  0.1277
  537MOL0     H72492   9.845   8.534   5.104 -0.6945 -0.8012  0.6685
  537MOL0     H72493  10.077   8.670   5.013 -4.3496 -0.0636  1.5017
  537MOL0     H72494  10.209   8.578   5.096 -0.3356 -1.9097 -0.1756
  537MOL0     H72495  10.059   8.497   5.029  0.0832 -0.1724 -0.5702
  538MOL0     O72496   4.528   1.231   6.168  0.5771  0.1385  0.0581
  538MOL0     C72497   4.470   1.333   6.138 -0.3805  0.0991  0.0248
  538MOL0     O72498   4.533   1.446   6.089  0.0487 -0.3359  0.2328
  538MOL0     C72499   4.670   1.456   6.115 -0.3789  0.2109 -0.1307
  538MOL0     C72500   4.761   1.422   6.013  0.0879  0.1702 -0.3747
  538MOL0     C72501   4.888   1.449   6.023 -0.1839 -0.2395 -0.3999
  538MOL0     C72502   4.943   1.507   6.134 -0.7241 -0.3164  0.6245
  538MOL0     O72503   5.080   1.530   6.141  0.4290 -0.4746 -0.5775
  538MOL0     C72504   5.172   1.418   6.133  0.4963  0.4853  0.1726
  538MOL0     C72505   5.303   1.449   6.202  0.0987  0.4507  0.2565
  538MOL0     C72506   5.422   1.355   6.188  0.5895 -0.2968  0.2673
  538MOL0     C72507   5.383   1.205   6.201  0.1172 -0.6832  0.3705
  538MOL0     C72508   5.491   1.125   6.261 -0.3063 -0.0817 -0.2138
  538MOL0     C72509   5.482   0.977   6.249  0.6359  0.5561  0.2601
  538MOL0     C72510   5.350   0.919   6.308 -0.4510 -0.3064 -0.3851
  538MOL0     C72511   5.367   0.766   6.284  0.3201  0.3232 -0.0503
  538MOL0     N72512   5.253   0.692   6.342 -0.4620  0.0381 -0.0734
  538MOL0     C72513   5.236   0.654   6.475 -0.2147 -1.4308 -0.7590
  538MOL0     C72514   5.101   0.633   6.483  1.3114  0.4266  0.7012
  538MOL0     C72515   5.020   0.628   6.608 -0.1597 -0.0016 -0.5404
  538MOL0     C72516   4.859   0.644   6.586 -0.0700  0.4741  0.0606
  538MOL0     C72517   4.793   0.640   6.719  0.2761 -0.2887  0.4150
  538MOL0     C72518   4.672   0.547   6.751 -0.1812 -0.1465  0.1880
  538MOL0     O72519   4.591   0.531   6.630 -0.6969  0.2998 -0.3099
  538MOL0     C72520   4.499   0.432   6.618  0.1088 -0.1056 -0.2843
  538MOL0     C72521   4.449   0.395   6.494 -1.0100  0.0564  0.2049
  538MOL0     C72522   4.360   0.290   6.485 -0.0448  1.0956  0.7016
  538MOL0     C72523   4.292   0.244   6.595  0.0550  0.4024  0.2711
  538MOL0     C72524   4.179   0.151   6.595  0.4451  0.0703 -0.0362
  538MOL0     O72525   4.166   0.076   6.710  1.2226 -0.2514  0.1195
  538MOL0     C72526   4.038   0.043   6.746 -0.4174  0.4295  0.0849
  538MOL0     C72527   3.932   0.138   6.743  0.6837  0.7577 -0.2252
  538MOL0     C72528   3.813   0.094   6.791  0.3776 -0.3748 -0.0024
  538MOL0     C72529   3.785  -0.037   6.835 -0.7586 -0.3266  0.2996
  538MOL0     O72530   3.669  -0.092   6.887  0.1297  0.1640 -0.3101
  538MOL0     C72531   3.547  -0.071   6.804 -0.5197 -0.4445 -0.4610
  538MOL0     C72532   3.537  -0.185   6.703  0.1528 -0.4642 -0.2761
  538MOL0     C72533   3.536  -0.333   6.760 -0.1426 -0.1493  0.4512
  538MOL0     C72534   3.510  -0.438   6.655 -0.2545 -0.2575  0.6604
  538MOL0     C72535   3.535  -0.578   6.716  0.2287 -0.1390 -0.6454
  538MOL0     C72536   3.488  -0.694   6.623 -0.2414 -0.1300 -0.1729
  538MOL0     C72537   3.510  -0.830   6.688  0.1747 -0.1435 -0.8600
  538MOL0     C72538   3.483  -0.953   6.591  0.1431 -0.8285 -0.3449
  538MOL0    Cl72539   3.319  -0.964   6.556  0.5284 -0.0196  0.1621
  538MOL0     C72540   3.895  -0.128   6.852  1.0976  0.6848 -0.3144
  538MOL0     C72541   4.020  -0.090   6.802 -0.4648  0.4343  0.5025
  538MOL0     O72542   4.109   0.133   6.494 -0.0054 -0.1359 -0.0221
  538MOL0     C72543   4.322   0.292   6.721  1.0139  0.2256 -0.0972
  538MOL0     C72544   4.435   0.383   6.728  0.2280  0.2451 -0.5308
  538MOL0     N72545   5.051   0.639   6.353  0.2778 -0.2004 -0.3842
  538MOL0     N72546   5.139   0.677   6.268 -0.0185  0.2610  0.8937
  538MOL0     C72547   4.865   1.535   6.238  0.3801 -0.8514 -0.7234
  538MOL0     C72548   4.728   1.524   6.226  0.0554 -0.1643 -0.2048
  538MOL0     C72549   4.324   1.363   6.175  0.3172  0.4124  0.3736
  538MOL0     C72550   4.274   1.501   6.174 -0.5952  0.1659 -0.5710
  538MOL0     C72551   4.146   1.534   6.198  0.0942  0.0763  1.1371
  538MOL0     C72552   4.055   1.440   6.234 -0.2725  0.0076 -0.6779
  538MOL0     O72553   3.922   1.476   6.242 -1.3736 -0.2418 -0.3404
  538MOL0     C72554   3.834   1.377   6.282  0.3291  0.7246 -0.7507
  538MOL0     C72555   3.686   1.439   6.301 -0.4117 -0.5465  0.3207
  538MOL0     C72556   3.661   1.553   6.405 -0.5462 -0.5182  0.4968
  538MOL0     C72557   3.623   1.508   6.548  0.4293 -1.1924 -0.1948
  538MOL0     C72558   3.481   1.470   6.576  0.2889  0.5711  0.3208
  538MOL0     C72559   3.367   1.417   6.583 -0.0417  0.5673  0.3864
  538MOL0     C72560   4.101   1.306   6.237 -0.3850 -1.3284  0.0571
  538MOL0     C72561   4.230   1.266   6.203 -0.2465  0.1445 -1.1764
  538MOL0     C72562   4.260   1.120   6.202 -0.1503  0.2240  0.7798
  538MOL0     H72563   4.718   1.376   5.925  1.2618  1.6510 -1.7857
  538MOL0     H72564   4.943   1.401   5.943 -0.9338 -1.2835 -0.3001
  538MOL0     H72565   5.122   1.334   6.183 -0.8578  0.9496 -0.3796
  538MOL0     H72566   5.194   1.387   6.031  0.3203 -3.2811  1.1183
  538MOL0     H72567   5.292   1.460   6.310  0.4503  1.4127  0.2033
  538MOL0     H72568   5.338   1.548   6.173 -1.7293  0.5630 -1.8144
  538MOL0     H72569   5.486   1.380   6.273 -0.5625 -2.6537  1.9472
  538MOL0     H72570   5.484   1.376   6.101  2.5738  0.0547  1.6950
  538MOL0     H72571   5.296   1.197   6.267 -0.3030 -0.1354 -0.1043
  538MOL0     H72572   5.357   1.164   6.102  0.4353 -0.9001  0.3756
  538MOL0     H72573   5.580   1.150   6.203 -0.8385 -1.7809 -1.8540
  538MOL0     H72574   5.510   1.156   6.364  1.5425  0.9074 -0.8080
  538MOL0     H72575   5.489   0.951   6.143 -2.1559  1.2539 -0.1585
  538MOL0     H72576   5.574   0.944   6.299 -1.5606 -2.1808  2.8121
  538MOL0     H72577   5.263   0.958   6.254 -1.7094 -0.0848  1.6593
  538MOL0     H72578   5.348   0.938   6.416  0.3440 -2.2553  0.0035
  538MOL0     H72579   5.376   0.740   6.178  2.5679  1.1713 -0.1227
  538MOL0     H72580   5.458   0.728   6.333  0.7877 -0.4596 -1.4802
  538MOL0     H72581   5.307   0.652   6.557 -1.0559  1.2842  0.1515
  538MOL0     H72582   5.042   0.538   6.666 -2.5242 -3.1079 -4.0258
  538MOL0     H72583   5.058   0.711   6.669 -1.0559 -0.2664  0.3994
  538MOL0     H72584   4.845   0.742   6.540 -1.5652  0.2138 -0.0842
  538MOL0     H72585   4.818   0.565   6.524 -0.5618 -0.2940  1.3167
  538MOL0     H72586   4.741   0.736   6.714  2.0246  0.6770 -0.0233
  538MOL0     H72587   4.868   0.644   6.798  0.5415 -0.3800  0.1694
  538MOL0     H72588   4.619   0.590   6.836  1.3415 -1.6773  2.0264
  538MOL0     H72589   4.715   0.449   6.777 -0.7497 -0.2640  0.7014
  538MOL0     H72590   4.488   0.435   6.400 -1.5498 -1.1153 -0.5459
  538MOL0     H72591   4.324   0.258   6.388  1.0302 -0.8097  0.8811
  538MOL0     H72592   3.950   0.237   6.704  1.9157  0.4845 -0.3808
  538MOL0     H72593   3.735   0.169   6.794  1.8761  1.2435 -0.0398
  538MOL0     H72594   3.458  -0.056   6.865  0.0568  2.4425 -0.1785
  538MOL0     H72595   3.564   0.024   6.753 -3.4867  1.9812  2.6033
  538MOL0     H72596   3.456  -0.178   6.630  0.5035 -0.6991 -0.6938
  538MOL0     H72597   3.627  -0.187   6.641 -1.9546  3.1044 -3.8921
  538MOL0     H72598   3.629  -0.356   6.812 -1.0667 -2.3501  1.2402
  538MOL0     H72599   3.464  -0.337   6.842  0.3142  2.3290  1.0687
  538MOL0     H72600   3.578  -0.428   6.570 -2.6050 -2.7160 -1.7051
  538MOL0     H72601   3.408  -0.433   6.617  0.2272  0.5317 -0.6122
  538MOL0     H72602   3.496  -0.590   6.817 -2.0098 -0.9585 -1.5499
  538MOL0     H72603   3.642  -0.602   6.721  0.4403  0.9134  0.2616
  538MOL0     H72604   3.385  -0.671   6.594  0.5197  1.2365 -1.9853
  538MOL0     H72605   3.546  -0.679   6.531  1.3056  0.6529  0.8900
  538MOL0     H72606   3.444  -0.842   6.775  0.0541 -0.8319 -1.0407
  538MOL0     H72607   3.613  -0.846   6.721 -0.6062 -0.1082  1.8522
  538MOL0     H72608   3.529  -0.915   6.499  0.3775  1.6916  0.7246
  538MOL0     H72609   3.527  -1.048   6.623  2.4206 -0.7528 -2.8728
  538MOL0     H72610   3.889  -0.224   6.901 -1.7950  0.5581 -0.7533
  538MOL0     H72611   4.105  -0.154   6.822  0.6443  1.0134 -1.9941
  538MOL0     H72612   4.275   0.275   6.817 -0.8964  0.2084 -0.9777
  538MOL0     H72613   4.467   0.416   6.826  1.3556 -0.8409 -0.5102
  538MOL0     H72614   4.887   1.555   6.342  0.2043 -1.9101 -0.4669
  538MOL0     H72615   4.669   1.570   6.305  2.1427 -1.0747  2.0152
  538MOL0     H72616   4.346   1.579   6.150  3.2265 -3.0080 -0.4352
  538MOL0     H72617   4.101   1.633   6.194 -1.3393 -0.5513  1.3617
  538MOL0     H72618   3.867   1.333   6.377 -0.1152  1.6465 -0.1534
  538MOL0     H72619   3.829   1.293   6.211 -2.9315  0.7611 -0.7462
  538MOL0     H72620   3.617   1.357   6.320 -0.1363 -1.7927 -3.3347
  538MOL0     H72621   3.644   1.470   6.205 -1.5215 -0.0958  0.9301
  538MOL0     H72622   3.598   1.632   6.364  3.3229  2.7195  0.1114
  538MOL0     H72623   3.760   1.597   6.421  1.1057 -2.3073 -3.2899
  538MOL0     H72624   3.699   1.434   6.579  0.0037 -2.8490 -2.8101
  538MOL0     H72625   3.628   1.593   6.617  0.9673 -0.8683 -0.6241
  538MOL0     H72626   3.270   1.371   6.574 -0.6882  2.2294 -1.7079
  538MOL0     H72627   4.039   1.231   6.283 -2.1037  0.9635  1.7037
  538MOL0     H72628   4.354   1.101   6.255  0.3124  1.3289  0.3870
  538MOL0     H72629   4.186   1.055   6.252 -0.1100  1.1463  2.1003
  538MOL0     H72630   4.272   1.094   6.097  1.0921  1.8110  0.4892
  539MOL0     O72631   7.521   3.839   1.944 -0.0202  0.1627  0.0040
  539MOL0     C72632   7.544   3.757   2.032 -1.0923  0.3458 -0.2582
  539MOL0     O72633   7.455   3.708   2.131 -0.0360 -0.3774 -0.7253
  539MOL0     C72634   7.318   3.712   2.116  0.4011 -0.7728 -0.2179
  539MOL0     C72635   7.239   3.602   2.166 -0.6914  0.3205 -0.2148
  539MOL0     C72636   7.096   3.606   2.169  0.4006 -0.4481  0.5187
  539MOL0     C72637   7.038   3.727   2.127 -1.2417  0.1570 -0.1821
  539MOL0     O72638   6.911   3.727   2.089  0.0365  0.6892 -0.3282
  539MOL0     C72639   6.836   3.835   2.144 -0.2614 -0.8107  0.5800
  539MOL0     C72640   6.691   3.797   2.145  0.8245  0.0270 -0.2436
  539MOL0     C72641   6.678   3.676   2.243 -0.2741  0.0255 -0.1029
  539MOL0     C72642   6.536   3.633   2.280 -0.6474  0.1809  0.0546
  539MOL0     C72643   6.464   3.719   2.378  0.7023  0.5399 -0.1596
  539MOL0     C72644   6.314   3.681   2.381  1.0710 -0.0808  0.1609
  539MOL0     C72645   6.258   3.706   2.517  0.6113  0.0825  0.5833
  539MOL0     C72646   6.244   3.852   2.544 -0.2773 -0.5010  0.5010
  539MOL0     N72647   6.154   3.866   2.652  0.4199  0.0530  0.7920
  539MOL0     C72648   6.185   3.857   2.788 -0.2021  0.2799 -0.5234
  539MOL0     C72649   6.087   3.912   2.854  0.4849 -1.0928  0.3114
  539MOL0     C72650   6.072   3.958   2.998 -0.0859  0.4257 -1.1090
  539MOL0     C72651   6.206   4.003   3.064 -0.4822 -0.5036  0.3981
  539MOL0     C72652   6.192   4.098   3.180 -0.3948  0.0115  0.4794
  539MOL0     C72653   6.191   4.019   3.303 -0.5791  0.8729  0.3393
  539MOL0     O72654   6.330   4.003   3.341  0.2395  0.1268 -0.3350
  539MOL0     C72655   6.402   4.096   3.407  0.2764  0.4290 -0.1381
  539MOL0     C72656   6.349   4.207   3.456 -0.3867  0.1256  0.4281
  539MOL0     C72657   6.422   4.315   3.499 -0.3135 -1.1537 -0.1437
  539MOL0     C72658   6.563   4.311   3.502  0.3723 -0.4478  0.1783
  539MOL0     C72659   6.652   4.428   3.535  0.5917  0.4308  0.6957
  539MOL0     O72660   6.788   4.411   3.532  0.0709 -0.4639 -0.4839
  539MOL0     C72661   6.854   4.523   3.505 -0.9208 -0.0485 -0.6939
  539MOL0     C72662   6.873   4.623   3.604  0.5897 -0.4653 -0.0867
  539MOL0     C72663   6.942   4.740   3.575  0.4995 -0.1977  0.6377
  539MOL0     C72664   6.998   4.754   3.448  0.4023  0.8648 -0.0181
  539MOL0     O72665   7.073   4.862   3.417  0.0521 -0.5394  0.6349
  539MOL0     C72666   7.191   4.877   3.496 -0.0269 -0.4333  0.6680
  539MOL0     C72667   7.291   4.776   3.435 -0.2280  0.3336 -0.3353
  539MOL0     C72668   7.429   4.804   3.498  0.5169  0.3362 -0.3725
  539MOL0     C72669   7.432   4.781   3.649  0.2831  0.7410  0.2734
  539MOL0     C72670   7.565   4.749   3.700 -0.1579  0.3847 -0.1533
  539MOL0     C72671   7.659   4.859   3.685  0.3301 -1.2799  0.0423
  539MOL0     C72672   7.789   4.829   3.747 -0.6501  0.2694 -0.6776
  539MOL0     C72673   7.874   4.723   3.677  0.6116 -0.7789 -0.9584
  539MOL0    Cl72674   7.867   4.727   3.503  0.5525 -0.7148 -0.0622
  539MOL0     C72675   6.969   4.666   3.346  0.2188  0.9823 -0.7539
  539MOL0     C72676   6.896   4.548   3.378 -0.5679  0.5158 -0.5026
  539MOL0     O72677   6.591   4.531   3.559 -0.0230 -0.1473 -0.8275
  539MOL0     C72678   6.621   4.186   3.471 -0.1906  0.8713  0.2313
  539MOL0     C72679   6.545   4.076   3.429 -0.2107  0.9439 -0.0238
  539MOL0     N72680   5.996   3.964   2.759 -0.9413 -0.2669  0.0549
  539MOL0     N72681   6.042   3.933   2.643 -0.1330  0.1928  1.0824
  539MOL0     C72682   7.117   3.842   2.089  0.2647 -0.5220 -0.1749
  539MOL0     C72683   7.252   3.832   2.083 -0.5470  0.6832 -0.8950
  539MOL0     C72684   7.684   3.707   2.043 -0.7213  0.7650 -0.6377
  539MOL0     C72685   7.761   3.692   1.926  0.0459  0.0178  1.3869
  539MOL0     C72686   7.890   3.645   1.926 -0.5487  0.5167 -0.4958
  539MOL0     C72687   7.959   3.608   2.046  0.2574 -0.8875  0.1840
  539MOL0     O72688   8.091   3.578   2.046  0.3860  0.6751 -0.3700
  539MOL0     C72689   8.166   3.691   2.006 -0.7944 -0.3640  0.3910
  539MOL0     C72690   8.300   3.628   1.964 -0.5821  0.7086  0.4169
  539MOL0     C72691   8.297   3.529   1.841  0.0782 -0.4578 -0.2581
  539MOL0     C72692   8.421   3.450   1.831  0.4141 -0.1332 -1.1589
  539MOL0     C72693   8.399   3.322   1.895  0.7926 -0.1152  0.5801
  539MOL0     C72694   8.382   3.210   1.933  0.3081 -0.0004 -0.3428
  539MOL0     C72695   7.886   3.632   2.166 -0.6480  0.9220  0.5101
  539MOL0     C72696   7.753   3.682   2.165  0.0895  1.0723  0.2018
  539MOL0     C72697   7.689   3.699   2.302 -0.0303 -0.4612  0.9026
  539MOL0     H72698   7.293   3.512   2.193 -2.2802 -0.7751 -0.5687
  539MOL0     H72699   7.043   3.514   2.189  0.3403 -1.6070 -3.9168
  539MOL0     H72700   6.872   3.866   2.242  1.5544  3.0026 -1.0540
  539MOL0     H72701   6.850   3.922   2.079  2.3087  0.0543  2.1890
  539MOL0     H72702   6.644   3.757   2.055  1.0008 -0.1437 -0.2604
  539MOL0     H72703   6.619   3.874   2.175  0.2548 -0.8129  0.6317
  539MOL0     H72704   6.737   3.701   2.331 -0.4709  0.0207  0.0298
  539MOL0     H72705   6.719   3.585   2.198  0.4997  0.4884 -0.3505
  539MOL0     H72706   6.483   3.634   2.184 -3.3750 -1.8939  1.3768
  539MOL0     H72707   6.550   3.529   2.310 -3.6809 -0.5734 -0.7874
  539MOL0     H72708   6.508   3.713   2.478 -0.4050  1.4623  0.4094
  539MOL0     H72709   6.476   3.823   2.346  0.6998  0.3470 -0.8156
  539MOL0     H72710   6.266   3.740   2.302  0.8495  0.1785  0.4880
  539MOL0     H72711   6.303   3.574   2.362 -0.9982 -0.3678  2.4432
  539MOL0     H72712   6.322   3.664   2.596  1.1518 -0.7428 -0.2676
  539MOL0     H72713   6.153   3.680   2.534 -0.4931  3.2367 -0.6964
  539MOL0     H72714   6.345   3.891   2.558 -0.2017  0.3966 -2.0159
  539MOL0     H72715   6.224   3.914   2.456 -2.7671 -2.0067 -0.0859
  539MOL0     H72716   6.283   3.827   2.822  0.8129  0.4276 -3.0548
  539MOL0     H72717   5.996   4.035   3.013 -1.7435 -1.0940 -1.3201
  539MOL0     H72718   6.040   3.869   3.054  1.0107  1.6306  1.6174
  539MOL0     H72719   6.271   3.917   3.086 -2.7144 -2.8082 -1.3995
  539MOL0     H72720   6.261   4.047   2.980  1.9256 -1.2486  1.4946
  539MOL0     H72721   6.104   4.160   3.164 -0.9980 -0.6755  1.0920
  539MOL0     H72722   6.287   4.153   3.177  0.8085 -1.9379  0.8434
  539MOL0     H72723   6.140   3.923   3.302  1.2891 -0.1780 -1.2204
  539MOL0     H72724   6.138   4.075   3.381  1.9890  2.4105  1.1133
  539MOL0     H72725   6.242   4.213   3.439 -0.1714 -1.5326 -2.0344
  539MOL0     H72726   6.368   4.395   3.549  2.8031  0.5408  0.7621
  539MOL0     H72727   6.819   4.604   3.696  1.0955 -1.2920  0.0516
  539MOL0     H72728   6.935   4.827   3.639 -1.8112 -1.8150  2.7887
  539MOL0     H72729   7.236   4.976   3.489 -1.2907  0.1701  0.7945
  539MOL0     H72730   7.163   4.852   3.599  1.3331  0.6112  1.3197
  539MOL0     H72731   7.270   4.674   3.469  1.2246 -0.3629 -1.4100
  539MOL0     H72732   7.298   4.767   3.326  0.0098 -1.6070 -0.1997
  539MOL0     H72733   7.500   4.742   3.443  1.0983  0.6661 -0.0082
  539MOL0     H72734   7.460   4.909   3.497  2.3293 -0.1623  0.4546
  539MOL0     H72735   7.374   4.692   3.674 -1.8969  0.6993 -3.9431
  539MOL0     H72736   7.392   4.864   3.707 -1.0600 -0.3977  1.0255
  539MOL0     H72737   7.597   4.659   3.647  4.5688 -0.6942  3.7808
  539MOL0     H72738   7.572   4.724   3.807  2.2757 -0.4725 -0.4383
  539MOL0     H72739   7.674   4.891   3.582 -1.5765 -0.0527  0.0917
  539MOL0     H72740   7.621   4.946   3.740  0.4357 -0.7411 -0.7243
  539MOL0     H72741   7.780   4.803   3.853  0.0359 -3.7616 -1.4388
  539MOL0     H72742   7.849   4.919   3.732 -0.7797  0.6587  0.9250
  539MOL0     H72743   7.978   4.728   3.713  0.9413 -0.8009 -1.8647
  539MOL0     H72744   7.850   4.622   3.710 -0.6223  0.8217  3.9006
  539MOL0     H72745   7.013   4.681   3.248  1.1131 -0.2507 -0.5652
  539MOL0     H72746   6.886   4.471   3.301  7.5027 -1.5111 -0.4571
  539MOL0     H72747   6.728   4.169   3.464 -0.2375  0.4822  0.4723
  539MOL0     H72748   6.578   3.977   3.398  0.9652  1.1597  0.4714
  539MOL0     H72749   7.082   3.939   2.057 -0.9723 -1.0571 -0.5180
  539MOL0     H72750   7.311   3.914   2.043  1.0460 -0.0276 -0.1275
  539MOL0     H72751   7.707   3.717   1.835 -0.4605 -1.8807  1.1262
  539MOL0     H72752   7.955   3.623   1.842 -0.4370 -1.8427  0.1278
  539MOL0     H72753   8.188   3.755   2.092 -0.5646  0.6628 -0.4081
  539MOL0     H72754   8.125   3.749   1.922  1.8300  0.7568 -0.2405
  539MOL0     H72755   8.328   3.573   2.055  0.4800  0.4941 -0.0194
  539MOL0     H72756   8.372   3.706   1.937  2.9216 -1.9886  1.1772
  539MOL0     H72757   8.289   3.586   1.747  1.1935 -2.2209 -1.4690
  539MOL0     H72758   8.207   3.468   1.844 -0.9911  1.0805  1.7926
  539MOL0     H72759   8.450   3.430   1.728  0.6236  0.0230 -1.1326
  539MOL0     H72760   8.505   3.503   1.877 -2.8293  3.4758  1.2773
  539MOL0     H72761   8.383   3.111   1.975 -0.4867 -0.0471 -0.4274
  539MOL0     H72762   7.934   3.623   2.263 -2.3909  0.6487  1.3732
  539MOL0     H72763   7.647   3.799   2.306  1.9736  0.4116  1.7744
  539MOL0     H72764   7.609   3.627   2.318 -2.6460  2.6258  2.8292
  539MOL0     H72765   7.758   3.694   2.387  1.9719  1.2322 -0.5181
  540MOL0     O72766   5.020   1.102   0.671 -0.0224  0.5901 -0.5494
  540MOL0     C72767   5.134   1.109   0.629 -1.2195 -0.0926  0.0761
  540MOL0     O72768   5.166   1.192   0.515  0.3393  0.0006 -0.5653
  540MOL0     C72769   5.052   1.271   0.479 -0.1618 -0.1016  0.2072
  540MOL0     C72770   5.053   1.409   0.507  0.6075  0.3031  0.2507
  540MOL0     C72771   4.940   1.500   0.496 -0.1058  0.7236  0.6743
  540MOL0     C72772   4.819   1.446   0.440 -0.7344 -0.3172 -0.2496
  540MOL0     O72773   4.730   1.542   0.424  0.3489 -0.2251  0.0603
  540MOL0     C72774   4.600   1.488   0.411  0.5499  0.2317 -0.2792
  540MOL0     C72775   4.499   1.598   0.389 -0.5704  0.0475 -0.6169
  540MOL0     C72776   4.364   1.553   0.348 -0.4740 -0.5392 -0.6891
  540MOL0     C72777   4.312   1.658   0.244  0.5375 -0.6841 -0.1625
  540MOL0     C72778   4.167   1.646   0.196  0.5823 -0.3112  0.1428
  540MOL0     C72779   4.129   1.529   0.099  0.5992 -0.6290  0.0823
  540MOL0     C72780   3.984   1.515   0.063  0.1762  0.0107  0.4266
  540MOL0     C72781   3.922   1.634  -0.030 -0.0677 -0.5831  0.1224
  540MOL0     N72782   3.777   1.611  -0.053 -0.2053 -0.9393 -0.3171
  540MOL0     C72783   3.702   1.498  -0.069  0.0180 -0.1595  1.2640
  540MOL0     C72784   3.576   1.529  -0.105 -0.0115 -0.6175  0.1328
  540MOL0     C72785   3.464   1.421  -0.130  1.6847  0.4236 -0.8794
  540MOL0     C72786   3.488   1.334  -0.245  0.9912  0.7748  0.2272
  540MOL0     C72787   3.484   1.412  -0.373  0.1762 -0.1130 -1.0702
  540MOL0     C72788   3.509   1.310  -0.489 -1.3948 -0.4848  0.0167
  540MOL0     O72789   3.405   1.222  -0.530 -0.3992  0.0471  0.0082
  540MOL0     C72790   3.307   1.284  -0.611 -0.1427  0.0029 -0.6095
  540MOL0     C72791   3.203   1.195  -0.639  0.3305  0.5322 -0.5248
  540MOL0     C72792   3.092   1.229  -0.718 -0.7410  1.1484 -0.4277
  540MOL0     C72793   3.088   1.360  -0.774  0.3707 -0.2389  0.4051
  540MOL0     C72794   2.968   1.411  -0.846  0.4046  0.9665  0.1577
  540MOL0     O72795   2.866   1.324  -0.863  0.1321  0.2102 -0.0755
  540MOL0     C72796   2.749   1.372  -0.905  0.3733  0.0483 -0.2898
  540MOL0     C72797   2.655   1.389  -0.804  0.6147 -0.1189 -0.1592
  540MOL0     C72798   2.525   1.421  -0.839  0.0221 -0.7849  0.0317
  540MOL0     C72799   2.484   1.457  -0.970 -0.9345  0.5730 -0.7824
  540MOL0     O72800   2.353   1.495  -0.991  0.2412 -0.6052  0.7232
  540MOL0     C72801   2.303   1.449  -1.122 -0.7207  0.9149  0.3294
  540MOL0     C72802   2.257   1.300  -1.097  0.5286 -0.3719  0.5561
  540MOL0     C72803   2.172   1.239  -1.216 -0.1748 -0.0685 -1.6744
  540MOL0     C72804   2.158   1.090  -1.208  0.1401 -0.0257  0.7839
  540MOL0     C72805   2.015   1.048  -1.244 -0.2832  0.2783 -0.2190
  540MOL0     C72806   1.992   0.899  -1.197  0.0692  0.4232  0.6517
  540MOL0     C72807   1.845   0.856  -1.242 -0.3480  0.0144 -0.2553
  540MOL0     C72808   1.767   0.797  -1.129  0.4599  0.2911 -0.0219
  540MOL0    Cl72809   1.711   0.939  -1.021 -0.1620 -0.4960 -0.1572
  540MOL0     C72810   2.586   1.441  -1.070 -0.1894 -0.0116 -0.3106
  540MOL0     C72811   2.718   1.409  -1.036 -0.7784  0.0716 -0.3134
  540MOL0     O72812   2.979   1.527  -0.886  0.6407  0.1634 -0.3976
  540MOL0     C72813   3.185   1.452  -0.730  0.2815  0.4775 -1.4749
  540MOL0     C72814   3.297   1.422  -0.650  0.8091 -0.0698  1.0412
  540MOL0     N72815   3.575   1.672  -0.094 -0.0636 -0.4920 -0.0043
  540MOL0     N72816   3.696   1.717  -0.089 -0.6959  0.3336 -0.5706
  540MOL0     C72817   4.822   1.309   0.409  0.8553  0.5702 -0.4380
  540MOL0     C72818   4.934   1.218   0.422  0.2415 -0.3733 -0.4909
  540MOL0     C72819   5.236   1.013   0.675 -0.7394 -0.3330 -0.8799
  540MOL0     C72820   5.345   0.984   0.588  0.3725 -0.1820 -0.2694
  540MOL0     C72821   5.454   0.910   0.642  0.8711 -0.8272  0.5625
  540MOL0     C72822   5.449   0.863   0.774  0.1365  0.1908  0.3627
  540MOL0     O72823   5.553   0.796   0.839  0.6367 -0.8288 -0.8418
  540MOL0     C72824   5.685   0.818   0.796 -0.0876 -0.7083 -0.4752
  540MOL0     C72825   5.776   0.792   0.913 -0.0489  0.8018  0.1123
  540MOL0     C72826   5.766   0.921   0.993  0.0288 -0.8861 -0.9404
  540MOL0     C72827   5.880   0.897   1.098 -0.8786 -0.1470 -0.3905
  540MOL0     C72828   5.897   1.016   1.181 -0.5316  1.2231  0.1085
  540MOL0     C72829   5.920   1.116   1.255 -0.5279 -0.3393  0.2161
  540MOL0     C72830   5.330   0.875   0.851 -0.6218  0.0295 -0.2612
  540MOL0     C72831   5.230   0.959   0.809 -1.0043  0.0834 -0.3330
  540MOL0     C72832   5.114   0.986   0.899 -0.4016  0.1351  0.2722
  540MOL0     H72833   5.152   1.436   0.542 -0.4759  3.0268  1.4185
  540MOL0     H72834   4.929   1.604   0.522 -0.6985  0.8457 -0.0336
  540MOL0     H72835   4.592   1.426   0.321  0.8972  0.5447 -0.5298
  540MOL0     H72836   4.581   1.418   0.493  0.2040 -0.4677 -0.9466
  540MOL0     H72837   4.537   1.657   0.305  1.7893  0.9178  0.9787
  540MOL0     H72838   4.503   1.666   0.474  2.0048  0.2893 -0.8691
  540MOL0     H72839   4.289   1.544   0.426 -0.7863  1.8500 -0.6207
  540MOL0     H72840   4.359   1.452   0.308  1.5320 -1.1232  0.3937
  540MOL0     H72841   4.326   1.760   0.281 -1.5470  0.4167 -2.1306
  540MOL0     H72842   4.385   1.659   0.162  0.3327  0.9300 -0.3592
  540MOL0     H72843   4.114   1.650   0.291  2.5433  1.2479  1.2481
  540MOL0     H72844   4.136   1.737   0.143  0.8261  0.2415  0.9343
  540MOL0     H72845   4.185   1.544   0.007 -0.9432 -0.6704 -0.9063
  540MOL0     H72846   4.143   1.435   0.152 -1.9914 -1.4063 -0.4798
  540MOL0     H72847   3.926   1.502   0.154 -0.0941 -0.7054  0.1527
  540MOL0     H72848   3.983   1.417   0.015 -2.7578  0.5144 -0.7400
  540MOL0     H72849   3.950   1.731   0.012 -0.0848 -0.0087 -1.1668
  540MOL0     H72850   3.970   1.636  -0.128 -0.4574 -0.3462 -0.0641
  540MOL0     H72851   3.747   1.400  -0.059  2.1738  0.7053  0.6740
  540MOL0     H72852   3.452   1.363  -0.038 -0.3131 -0.5111 -1.6811
  540MOL0     H72853   3.375   1.484  -0.138  0.9923  0.1103  2.7229
  540MOL0     H72854   3.584   1.282  -0.234  0.8411  0.6819  1.1918
  540MOL0     H72855   3.414   1.253  -0.256 -1.2455  2.8782 -1.1781
  540MOL0     H72856   3.551   1.499  -0.368  0.5112 -0.3813 -0.8955
  540MOL0     H72857   3.382   1.451  -0.386 -0.6683 -2.0540 -0.5060
  540MOL0     H72858   3.592   1.244  -0.460 -2.5015 -2.0259 -0.1624
  540MOL0     H72859   3.537   1.376  -0.572  3.0040 -0.1557  1.4944
  540MOL0     H72860   3.202   1.090  -0.611  1.6903 -0.1649 -2.7711
  540MOL0     H72861   3.021   1.157  -0.757  3.2062 -2.0501 -2.5064
  540MOL0     H72862   2.674   1.372  -0.699  0.6333  0.7281 -0.0141
  540MOL0     H72863   2.456   1.435  -0.757 -0.6724 -2.6541 -0.1791
  540MOL0     H72864   2.227   1.521  -1.154 -1.3136 -0.9348 -2.8893
  540MOL0     H72865   2.373   1.446  -1.206  0.4073 -0.3634  1.2758
  540MOL0     H72866   2.345   1.235  -1.093  1.8817  1.3011 -0.3851
  540MOL0     H72867   2.213   1.289  -0.998  1.1605 -4.5709  0.5464
  540MOL0     H72868   2.075   1.290  -1.217  0.5209  1.4487  0.4797
  540MOL0     H72869   2.226   1.265  -1.308 -1.6066  0.0746 -2.5017
  540MOL0     H72870   2.183   1.058  -1.106  3.6042  2.5562  0.9626
  540MOL0     H72871   2.228   1.044  -1.278  1.2070 -0.0622  1.8334
  540MOL0     H72872   2.015   1.042  -1.354  0.3484  1.5436 -0.3101
  540MOL0     H72873   1.945   1.128  -1.221  0.8827  1.0023  0.9727
  540MOL0     H72874   2.058   0.829  -1.250 -0.8033 -2.5526  3.1558
  540MOL0     H72875   2.020   0.886  -1.092  0.4774  0.1666  0.5155
  540MOL0     H72876   1.841   0.785  -1.325 -0.4728  0.6439 -0.7911
  540MOL0     H72877   1.794   0.949  -1.267  0.1551  1.1928  2.6803
  540MOL0     H72878   1.675   0.743  -1.154  0.8466 -1.4805  2.0672
  540MOL0     H72879   1.834   0.724  -1.082  0.0036 -0.3385 -0.3392
  540MOL0     H72880   2.566   1.460  -1.175 -0.4003  1.2795 -0.0558
  540MOL0     H72881   2.791   1.407  -1.117 -0.8676 -1.1131 -0.3765
  540MOL0     H72882   3.192   1.556  -0.763  1.3384  0.2750 -1.9398
  540MOL0     H72883   3.362   1.506  -0.630  1.2392 -0.5695  1.7735
  540MOL0     H72884   4.731   1.260   0.374  0.0179  3.0756 -2.0299
  540MOL0     H72885   4.927   1.111   0.401  0.0813  0.2088 -4.0735
  540MOL0     H72886   5.361   1.011   0.484  1.2769 -2.5925 -0.8363
  540MOL0     H72887   5.545   0.903   0.583 -0.1940 -0.2127 -1.2459
  540MOL0     H72888   5.702   0.917   0.754  1.5377 -0.6661  0.2037
  540MOL0     H72889   5.703   0.739   0.722  4.0574 -1.6428  1.2153
  540MOL0     H72890   5.879   0.770   0.883 -0.5415 -0.5156 -0.6848
  540MOL0     H72891   5.741   0.704   0.967 -1.1255  2.4646  2.3075
  540MOL0     H72892   5.672   0.927   1.048  0.7612 -1.0871  0.3927
  540MOL0     H72893   5.778   1.012   0.933  2.7366 -0.7321 -0.2933
  540MOL0     H72894   5.873   0.806   1.159 -0.9897  1.4858  2.1484
  540MOL0     H72895   5.969   0.885   1.035 -0.5334 -2.1238  0.3821
  540MOL0     H72896   5.922   1.210   1.306 -0.2835 -0.4965  0.4969
  540MOL0     H72897   5.329   0.817   0.942  1.3211  0.5521  0.1458
  540MOL0     H72898   5.025   0.948   0.848  1.4044 -2.8758 -0.9276
  540MOL0     H72899   5.127   0.943   0.998  1.7859  0.9154  0.3955
  540MOL0     H72900   5.095   1.093   0.913  0.2959  0.0469  2.0599
  541MOL0     O72901  10.554   9.132  10.739 -0.2896 -0.3027 -0.3499
  541MOL0     C72902  10.600   9.155  10.630 -0.0320 -0.1640  0.5596
  541MOL0     O72903  10.520   9.158  10.511 -0.8849  0.1858 -0.6007
  541MOL0     C72904  10.382   9.135  10.505 -0.6136  0.7184  0.2389
  541MOL0     C72905  10.304   9.069  10.598  0.4088  0.8011 -0.6330
  541MOL0     C72906  10.166   9.043  10.577  0.1310 -0.5703  0.0722
  541MOL0     C72907  10.109   9.085  10.453  0.2322 -0.2123  0.6947
  541MOL0     O72908   9.978   9.054  10.425 -1.2137  0.4932 -0.6044
  541MOL0     C72909   9.888   9.157  10.411 -0.6558 -0.3954  0.5010
  541MOL0     C72910   9.898   9.275  10.504  0.3455  0.3442  1.1988
  541MOL0     C72911   9.902   9.244  10.658  0.4608  0.1504 -0.1192
  541MOL0     C72912   9.800   9.134  10.708  0.2761 -0.1922  0.3480
  541MOL0     C72913   9.737   9.163  10.840 -0.9446  0.7525  0.1585
  541MOL0     C72914   9.625   9.068  10.882 -0.4718  0.4209  1.1482
  541MOL0     C72915   9.543   9.115  11.004 -0.1051 -0.5703  0.6945
  541MOL0     C72916   9.443   8.997  11.030  0.0669 -0.0487 -0.5306
  541MOL0     N72917   9.402   8.998  11.172  0.9633 -0.2791  0.7907
  541MOL0     C72918   9.486   8.988  11.274  0.9160 -1.3066 -1.0124
  541MOL0     C72919   9.414   9.009  11.390  0.0278 -0.5701  0.0224
  541MOL0     C72920   9.477   8.998  11.529 -0.5463 -0.3976 -0.8214
  541MOL0     C72921   9.481   9.141  11.578 -0.1227 -0.8361 -0.0217
  541MOL0     C72922   9.573   9.163  11.707  0.6562  1.0893  0.5438
  541MOL0     C72923   9.723   9.133  11.676  0.4610 -0.3528  0.7209
  541MOL0     O72924   9.799   9.164  11.792 -0.6903 -0.3445  0.1814
  541MOL0     C72925   9.933   9.181  11.797  0.0266  0.0930  0.2094
  541MOL0     C72926  10.024   9.133  11.705  0.2701  0.2335 -0.2118
  541MOL0     C72927  10.164   9.144  11.725 -0.7659 -0.7458  0.2376
  541MOL0     C72928  10.211   9.213  11.832  0.3923  0.2157  0.1207
  541MOL0     C72929  10.350   9.254  11.838  0.3081  0.8266 -0.4098
  541MOL0     O72930  10.416   9.269  11.720  0.5341  0.1448  0.6831
  541MOL0     C72931  10.543   9.245  11.710  0.9276  0.1614  0.0695
  541MOL0     C72932  10.593   9.117  11.714 -0.4289  0.1997  0.2890
  541MOL0     C72933  10.731   9.095  11.697 -0.4355 -0.1573  0.3388
  541MOL0     C72934  10.827   9.197  11.683 -0.1569 -0.3782  0.6893
  541MOL0     O72935  10.954   9.147  11.666 -1.1210  0.1308  0.6721
  541MOL0     C72936  11.057   9.241  11.655  0.5990 -0.3376  0.2300
  541MOL0     C72937  11.183   9.161  11.642  0.1598  0.6139 -1.1527
  541MOL0     C72938  11.292   9.257  11.612  0.0332  0.4063 -0.1310
  541MOL0     C72939  11.425   9.189  11.614  0.5070 -0.3416 -0.5895
  541MOL0     C72940  11.549   9.275  11.585  0.4480 -0.6822 -0.3896
  541MOL0     C72941  11.540   9.299  11.430  0.4647 -0.7212 -0.2584
  541MOL0     C72942  11.637   9.217  11.348  0.5365  0.7952  0.4677
  541MOL0     C72943  11.786   9.244  11.361 -0.0729 -0.6348  0.6348
  541MOL0    Cl72944  11.861   9.135  11.242  0.2611 -0.5913  0.3749
  541MOL0     C72945  10.771   9.328  11.675  0.6554 -0.0542 -0.5899
  541MOL0     C72946  10.625   9.352  11.692  0.1130  0.0591 -0.0343
  541MOL0     O72947  10.400   9.271  11.948 -0.0080 -0.0299 -0.3760
  541MOL0     C72948  10.122   9.259  11.928  0.8431  1.1755  0.5022
  541MOL0     C72949   9.989   9.249  11.906  1.0055 -0.6534 -0.7759
  541MOL0     N72950   9.281   9.032  11.345  0.1665  0.0494 -0.7360
  541MOL0     N72951   9.274   9.015  11.216 -0.1122 -0.0617  0.3828
  541MOL0     C72952  10.187   9.148  10.359 -0.0834 -0.1921 -0.2187
  541MOL0     C72953  10.321   9.178  10.387 -0.7917  0.5861  0.3706
  541MOL0     C72954  10.740   9.201  10.620  0.0547  0.3847  0.1959
  541MOL0     C72955  10.848   9.133  10.683  0.4240  0.0173  0.4856
  541MOL0     C72956  10.977   9.164  10.670  0.4571  0.6760 -0.4433
  541MOL0     C72957  11.018   9.271  10.593  0.0952  0.0522 -0.5023
  541MOL0     O72958  11.149   9.305  10.557 -0.2628  0.4890  0.6849
  541MOL0     C72959  11.245   9.312  10.664  0.6489 -0.5638 -0.2954
  541MOL0     C72960  11.338   9.414  10.622 -0.2482 -0.2383 -0.5763
  541MOL0     C72961  11.277   9.548  10.643  0.1597 -0.6022  0.2129
  541MOL0     C72962  11.381   9.658  10.648 -0.1814 -0.7651 -0.4948
  541MOL0     C72963  11.464   9.664  10.532  0.9035  0.5964 -0.3219
  541MOL0     C72964  11.535   9.675  10.443 -0.6125 -0.4453 -0.2391
  541MOL0     C72965  10.917   9.343  10.526  1.2276 -0.0061  1.0962
  541MOL0     C72966  10.778   9.310  10.537 -0.1393 -0.4050  0.9383
  541MOL0     C72967  10.674   9.401  10.467  0.4446  0.6035 -0.5770
  541MOL0     H72968  10.348   9.037  10.692 -0.7365  2.4996  0.5561
  541MOL0     H72969  10.087   9.000  10.638 -0.5663 -1.5624 -1.4851
  541MOL0     H72970   9.905   9.205  10.314  0.0393 -1.4634  0.0838
  541MOL0     H72971   9.789   9.112  10.407  0.6028 -3.2765 -0.7395
  541MOL0     H72972   9.824   9.354  10.483  0.6174  0.7218  1.6331
  541MOL0     H72973   9.994   9.326  10.494  0.7773 -0.3295  1.8568
  541MOL0     H72974   9.876   9.339  10.704 -0.9397 -0.2803  0.0262
  541MOL0     H72975  10.005   9.219  10.686  1.1140  3.8908  1.2721
  541MOL0     H72976   9.723   9.108  10.636  1.0921 -0.9699 -0.2719
  541MOL0     H72977   9.861   9.044  10.721  1.5458  0.8259  2.1569
  541MOL0     H72978   9.825   9.148  10.903 -0.1175 -2.0981 -1.4484
  541MOL0     H72979   9.702   9.266  10.840 -1.4482  0.5854  0.6733
  541MOL0     H72980   9.562   9.053  10.794  1.4855  1.5286 -0.5367
  541MOL0     H72981   9.671   8.971  10.905  0.8926  0.8102  0.1535
  541MOL0     H72982   9.485   9.204  10.980  1.7239 -0.0178 -2.2839
  541MOL0     H72983   9.600   9.129  11.096 -0.7033 -2.4350  1.3890
  541MOL0     H72984   9.354   9.016  10.968  0.2378 -0.9414 -1.0712
  541MOL0     H72985   9.476   8.899  10.994 -0.1683  0.2304 -1.5644
  541MOL0     H72986   9.592   8.963  11.274  1.0460 -0.8812  0.7707
  541MOL0     H72987   9.425   8.932  11.598 -2.0612 -0.3160 -1.8367
  541MOL0     H72988   9.580   8.964  11.516 -1.0506 -1.5796 -2.0154
  541MOL0     H72989   9.512   9.205  11.495 -1.2351 -1.4749 -0.9568
  541MOL0     H72990   9.381   9.182  11.594 -0.9006 -2.3930 -0.6743
  541MOL0     H72991   9.532   9.108  11.792 -0.6490  3.3672  1.4976
  541MOL0     H72992   9.566   9.266  11.744 -0.2463  1.0068  0.6124
  541MOL0     H72993   9.746   9.202  11.594 -2.7568 -0.8674 -0.7498
  541MOL0     H72994   9.746   9.029  11.651  1.0907 -0.3266  1.1619
  541MOL0     H72995   9.989   9.077  11.619 -1.2579  0.7036  0.0856
  541MOL0     H72996  10.226   9.111  11.643 -2.3027  1.5123 -2.0038
  541MOL0     H72997  10.524   9.034  11.726  0.9048 -0.7102  2.1337
  541MOL0     H72998  10.760   8.990  11.704  1.6174  0.3914  0.9291
  541MOL0     H72999  11.046   9.302  11.564 -1.9001  2.4155  2.1777
  541MOL0     H73000  11.046   9.311  11.738 -2.2029  1.2960 -1.3269
  541MOL0     H73001  11.197   9.130  11.746  0.3327 -0.1368 -1.3958
  541MOL0     H73002  11.177   9.069  11.584  0.4604 -3.3621  4.2888
  541MOL0     H73003  11.270   9.304  11.515 -0.9668 -0.3505 -0.2843
  541MOL0     H73004  11.300   9.330  11.693  0.6700  1.8958 -1.4778
  541MOL0     H73005  11.424   9.100  11.551  2.5057 -1.4717  0.8790
  541MOL0     H73006  11.452   9.145  11.710 -1.0486 -2.5710 -1.0940
  541MOL0     H73007  11.633   9.221  11.631 -1.1797 -0.2141  3.5456
  541MOL0     H73008  11.545   9.370  11.639  2.6463 -0.4901 -0.4395
  541MOL0     H73009  11.448   9.256  11.391  0.4160 -0.2862 -0.6394
  541MOL0     H73010  11.545   9.405  11.403 -0.5581 -0.6721 -0.2846
  541MOL0     H73011  11.611   9.227  11.242  0.2407  2.8171  0.6798
  541MOL0     H73012  11.620   9.110  11.362  0.9719  0.0821 -3.3030
  541MOL0     H73013  11.804   9.347  11.330 -0.1026 -1.0396 -0.7938
  541MOL0     H73014  11.818   9.233  11.465 -2.6748  1.4245  1.7658
  541MOL0     H73015  10.841   9.409  11.660  0.0035  1.0705  1.9927
  541MOL0     H73016  10.600   9.458  11.684 -1.1899 -0.0786  1.6969
  541MOL0     H73017  10.149   9.314  12.018  1.1642  3.6193 -0.9969
  541MOL0     H73018   9.924   9.291  11.982  0.8122  0.6727 -1.6355
  541MOL0     H73019  10.147   9.185  10.265  1.6075 -0.2507 -0.9857
  541MOL0     H73020  10.376   9.234  10.312  2.7603 -0.5061  1.9598
  541MOL0     H73021  10.836   9.038  10.735  1.2606 -0.9322 -0.9930
  541MOL0     H73022  11.051   9.103  10.722 -1.2992 -0.2412  1.1104
  541MOL0     H73023  11.307   9.223  10.673  2.0047  0.2267 -1.2981
  541MOL0     H73024  11.205   9.343  10.761  1.8653  2.3295 -0.6058
  541MOL0     H73025  11.357   9.399  10.515 -1.4006  1.1888 -1.0100
  541MOL0     H73026  11.428   9.397  10.683 -2.0561  0.1017  2.3750
  541MOL0     H73027  11.216   9.552  10.733 -0.2620  1.2411 -0.1142
  541MOL0     H73028  11.212   9.588  10.564  0.6530  3.2098  1.5225
  541MOL0     H73029  11.320   9.749  10.638  0.9028 -0.0486 -0.7622
  541MOL0     H73030  11.438   9.674  10.740 -1.3993  2.1123 -0.0987
  541MOL0     H73031  11.605   9.696  10.365  1.8672 -2.4182  1.3239
  541MOL0     H73032  10.953   9.423  10.462  0.7888  1.0418  2.1344
  541MOL0     H73033  10.719   9.500  10.457 -0.7834  1.3388  0.6890
  541MOL0     H73034  10.642   9.364  10.369 -0.6265  2.1574 -0.8475
  541MOL0     H73035  10.581   9.408  10.524  1.4469  3.6467  0.9401
  542MOL0     O73036   3.859   2.541  10.261  0.2914  0.7276  0.2484
  542MOL0     C73037   3.850   2.583  10.144  0.0264 -0.4255  0.4887
  542MOL0     O73038   3.737   2.644  10.084 -0.1121  0.2794 -0.4837
  542MOL0     C73039   3.627   2.680  10.166 -1.5165  0.6462 -0.6299
  542MOL0     C73040   3.636   2.750  10.279 -0.0950 -0.4983 -1.1939
  542MOL0     C73041   3.521   2.788  10.346 -1.0614  0.1792  0.9830
  542MOL0     C73042   3.394   2.762  10.294  0.2690 -0.0180  0.1187
  542MOL0     O73043   3.285   2.803  10.369 -0.5106 -0.5582 -0.0265
  542MOL0     C73044   3.156   2.768  10.338  0.0891 -0.2649  0.3416
  542MOL0     C73045   3.137   2.624  10.378  0.1742  0.5171 -0.1093
  542MOL0     C73046   3.156   2.601  10.525 -0.0666  0.0338 -0.1533
  542MOL0     C73047   3.060   2.491  10.572 -0.1605  0.0512 -0.6231
  542MOL0     C73048   3.113   2.491  10.713 -0.4839  0.2853 -0.1772
  542MOL0     C73049   3.058   2.370  10.789 -0.4040 -0.9556  0.0545
  542MOL0     C73050   3.129   2.242  10.745  0.2448 -0.3884  0.2802
  542MOL0     C73051   3.105   2.121  10.836 -0.0123  0.0179  0.0834
  542MOL0     N73052   2.968   2.054  10.819 -0.1074 -0.8167 -0.3987
  542MOL0     C73053   2.933   1.946  10.743 -1.0918 -0.8271  0.1301
  542MOL0     C73054   2.807   1.917  10.769  0.3505  0.2860  0.6783
  542MOL0     C73055   2.746   1.784  10.725 -1.1414 -0.2016  0.3682
  542MOL0     C73056   2.607   1.760  10.784  0.3941  0.0295  0.1941
  542MOL0     C73057   2.503   1.811  10.684 -0.0570  0.4619 -1.2946
  542MOL0     C73058   2.374   1.850  10.765 -1.4407  1.2049  0.6575
  542MOL0     O73059   2.293   1.930  10.682 -0.0148 -0.3239  0.0327
  542MOL0     C73060   2.193   1.868  10.626 -0.0184  0.5247  0.5796
  542MOL0     C73061   2.089   1.952  10.601  0.1746  0.4021  1.1319
  542MOL0     C73062   1.981   1.900  10.522  0.2931 -0.1494  0.0674
  542MOL0     C73063   1.977   1.775  10.465  0.0399 -0.1398 -0.2373
  542MOL0     C73064   1.854   1.718  10.402 -0.4545 -0.0964  0.1039
  542MOL0     O73065   1.739   1.763  10.445  0.4063 -0.0494  0.1944
  542MOL0     C73066   1.625   1.712  10.386 -0.4560  0.1008 -0.6577
  542MOL0     C73067   1.576   1.797  10.283 -0.8692  0.2421 -0.5435
  542MOL0     C73068   1.455   1.760  10.212  0.6493  0.4166 -0.5922
  542MOL0     C73069   1.380   1.647  10.255 -0.6150  0.3333  0.0025
  542MOL0     O73070   1.268   1.604  10.194 -0.8135 -0.2807 -0.6349
  542MOL0     C73071   1.250   1.642  10.058  0.4987 -0.3274  0.2003
  542MOL0     C73072   1.140   1.556  10.005  0.3998  0.2826  0.0037
  542MOL0     C73073   1.002   1.626   9.997  1.0961  0.5148  0.0578
  542MOL0     C73074   0.899   1.527  10.051  0.5877 -0.3153 -0.3122
  542MOL0     C73075   0.859   1.405   9.960  0.1829  0.0105 -0.2638
  542MOL0     C73076   0.781   1.455   9.832 -0.4176 -1.2896 -0.2012
  542MOL0     C73077   0.761   1.336   9.742  0.2277  0.6058  0.3436
  542MOL0     C73078   0.870   1.309   9.640  0.1973 -0.0176 -0.6794
  542MOL0    Cl73079   0.895   1.453   9.531 -0.2383 -0.4474 -0.0378
  542MOL0     C73080   1.433   1.570  10.354  0.2699  0.7762  0.2444
  542MOL0     C73081   1.556   1.591  10.414 -0.3570  0.1382  0.2112
  542MOL0     O73082   1.867   1.618  10.339 -0.3527  0.0800  0.7394
  542MOL0     C73083   2.082   1.689  10.503 -0.0602 -0.6995 -0.1478
  542MOL0     C73084   2.186   1.736  10.582  0.2110  0.4033 -0.0694
  542MOL0     N73085   2.763   2.003  10.873  0.2684 -0.5766  0.0154
  542MOL0     N73086   2.858   2.092  10.892 -0.5794  0.5078 -1.1861
  542MOL0     C73087   3.388   2.686  10.180  1.1141  0.0619  0.1486
  542MOL0     C73088   3.503   2.642  10.111 -0.6673  0.1504  0.3960
  542MOL0     C73089   3.982   2.589  10.079  0.8717  0.6744  0.4642
  542MOL0     C73090   3.992   2.672   9.959 -0.2758 -0.3637  0.7100
  542MOL0     C73091   4.108   2.682   9.889  0.9159 -0.1535 -0.1169
  542MOL0     C73092   4.213   2.602   9.920  0.6218  1.0099  0.4360
  542MOL0     O73093   4.311   2.609   9.827  0.5007 -0.8626  0.0524
  542MOL0     C73094   4.394   2.487   9.810  0.1534 -0.9972  0.1813
  542MOL0     C73095   4.477   2.507   9.691 -0.4362  0.4661 -0.6518
  542MOL0     C73096   4.562   2.631   9.687  0.4347  0.1540 -0.4729
  542MOL0     C73097   4.696   2.607   9.614 -1.1639 -1.3542  0.7884
  542MOL0     C73098   4.683   2.615   9.468  0.0057 -0.4030  0.1602
  542MOL0     C73099   4.664   2.623   9.349 -0.9239  0.7679  0.6014
  542MOL0     C73100   4.208   2.512  10.031 -0.0690  0.0443  0.1761
  542MOL0     C73101   4.094   2.509  10.113 -0.1410  0.2707 -0.5441
  542MOL0     C73102   4.088   2.406  10.215  0.0442  0.5711 -0.2228
  542MOL0     H73103   3.729   2.787  10.321  0.1662 -0.9054 -1.4174
  542MOL0     H73104   3.537   2.829  10.446  1.4612 -1.7229  1.4719
  542MOL0     H73105   3.091   2.828  10.402 -1.9110 -1.9343 -0.0276
  542MOL0     H73106   3.126   2.777  10.233 -3.7877 -1.1998  1.2305
  542MOL0     H73107   3.201   2.567  10.309 -0.9082 -0.5491 -0.2660
  542MOL0     H73108   3.031   2.609  10.355 -0.2545  0.8218  1.5631
  542MOL0     H73109   3.136   2.696  10.576 -3.2140  0.7259 -2.4484
  542MOL0     H73110   3.263   2.576  10.533 -0.2396 -1.0421 -0.9485
  542MOL0     H73111   2.954   2.515  10.580 -0.7019 -2.0649 -0.8118
  542MOL0     H73112   3.074   2.399  10.514 -3.5744 -0.5387 -0.7096
  542MOL0     H73113   3.222   2.493  10.721 -0.4294 -2.6444  1.2851
  542MOL0     H73114   3.079   2.580  10.765  0.2536 -0.1056  1.0083
  542MOL0     H73115   3.079   2.400  10.892 -0.1893  2.7053 -0.9506
  542MOL0     H73116   2.950   2.357  10.781 -0.7950  1.9677 -0.4165
  542MOL0     H73117   3.236   2.263  10.762  0.2118 -1.6509  2.3963
  542MOL0     H73118   3.105   2.217  10.642 -0.9386 -1.4662  0.7979
  542MOL0     H73119   3.186   2.050  10.820 -1.3026 -1.5741  0.2962
  542MOL0     H73120   3.112   2.147  10.942  0.1588 -0.9865  0.3349
  542MOL0     H73121   3.006   1.902  10.675  1.3043  3.6714 -0.5898
  542MOL0     H73122   2.751   1.785  10.616  1.0024 -0.5894  0.4153
  542MOL0     H73123   2.814   1.703  10.751  0.4945  1.5695  1.9598
  542MOL0     H73124   2.599   1.652  10.793 -0.2267  0.1442  1.0892
  542MOL0     H73125   2.604   1.805  10.884  2.2613 -0.5057  0.5302
  542MOL0     H73126   2.491   1.734  10.607 -2.2343 -0.9102  0.2870
  542MOL0     H73127   2.539   1.905  10.640 -2.5045  0.9380 -2.4721
  542MOL0     H73128   2.394   1.913  10.852 -2.2182  0.4608  1.3954
  542MOL0     H73129   2.328   1.756  10.799 -3.3894  1.0280 -2.1105
  542MOL0     H73130   2.087   2.049  10.648  2.3318  0.4084  1.3305
  542MOL0     H73131   1.892   1.960  10.504  0.9230 -0.1322 -3.9141
  542MOL0     H73132   1.622   1.895  10.278  0.7694 -0.3831  1.1458
  542MOL0     H73133   1.414   1.830  10.139 -4.7829  0.0522  1.6448
  542MOL0     H73134   1.224   1.748  10.065  0.5957 -0.3893  4.6361
  542MOL0     H73135   1.338   1.629   9.995 -1.7362 -4.4810 -2.5491
  542MOL0     H73136   1.162   1.518   9.905 -4.7026  1.9626 -2.1097
  542MOL0     H73137   1.128   1.475  10.077  0.4533  0.5173  0.2790
  542MOL0     H73138   1.006   1.715  10.061 -3.7650  2.5796 -2.0949
  542MOL0     H73139   0.980   1.656   9.895 -1.0261 -1.5036 -0.1694
  542MOL0     H73140   0.806   1.583  10.064 -0.6646 -2.9175  3.6781
  542MOL0     H73141   0.933   1.491  10.149 -0.7830 -1.6167 -0.2808
  542MOL0     H73142   0.789   1.331   9.999 -0.2278 -2.1605 -4.4805
  542MOL0     H73143   0.953   1.353   9.940  1.1615  1.0895  1.2961
  542MOL0     H73144   0.684   1.494   9.865  0.2471 -0.6409  1.0583
  542MOL0     H73145   0.834   1.533   9.778  3.0558 -3.2235  0.0960
  542MOL0     H73146   0.674   1.348   9.677  1.8680 -0.2322 -2.1738
  542MOL0     H73147   0.730   1.252   9.806  3.3208  0.1657  1.4658
  542MOL0     H73148   0.962   1.281   9.692 -0.5519 -4.6849 -1.4819
  542MOL0     H73149   0.842   1.223   9.579  0.3957 -1.8110  1.6117
  542MOL0     H73150   1.386   1.474  10.376  1.8690  0.0786  0.7674
  542MOL0     H73151   1.596   1.537  10.499  2.3532  2.8249  0.8236
  542MOL0     H73152   2.067   1.584  10.480 -1.0718 -0.4250 -0.8153
  542MOL0     H73153   2.255   1.656  10.608  1.2796  0.8341 -1.4733
  542MOL0     H73154   3.294   2.641  10.150  0.9809  0.1845  0.3824
  542MOL0     H73155   3.510   2.584  10.019  1.9086 -2.2558  1.9256
  542MOL0     H73156   3.908   2.730   9.920 -1.4751 -1.6530  1.2728
  542MOL0     H73157   4.112   2.728   9.791  0.2308  0.9164  0.3448
  542MOL0     H73158   4.325   2.407   9.782 -3.6729  2.2753 -0.5914
  542MOL0     H73159   4.449   2.453   9.898 -1.2804  0.1680  1.5880
  542MOL0     H73160   4.412   2.495   9.604 -0.6654 -1.5735 -0.2326
  542MOL0     H73161   4.547   2.423   9.685 -2.3258 -1.1018 -1.5562
  542MOL0     H73162   4.579   2.644   9.794 -1.0277 -0.9833 -0.0735
  542MOL0     H73163   4.501   2.713   9.649 -1.9983 -1.8980 -1.2178
  542MOL0     H73164   4.769   2.680   9.651 -2.3559  1.2391 -1.6747
  542MOL0     H73165   4.736   2.506   9.630  2.3269 -0.4249 -1.0365
  542MOL0     H73166   4.653   2.626   9.242 -0.3271  3.7929  0.5361
  542MOL0     H73167   4.285   2.441  10.055  0.5432 -0.1126 -2.0487
  542MOL0     H73168   4.189   2.367  10.232  0.4782  2.1219  1.0034
  542MOL0     H73169   4.048   2.422  10.315 -0.1901  1.2938 -0.4254
  542MOL0     H73170   4.040   2.319  10.171  1.2204  0.2150 -0.8365
  543MOL0     O73171   1.377   3.192   7.930  0.1267  0.5337  1.1846
  543MOL0     C73172   1.357   3.297   7.990  0.5566 -0.3917  0.2826
  543MOL0     O73173   1.428   3.404   7.986  0.8247  0.0629  0.5964
  543MOL0     C73174   1.555   3.385   7.921  0.6743 -0.0749 -0.5168
  543MOL0     C73175   1.572   3.341   7.795 -0.2667 -0.8397  1.5839
  543MOL0     C73176   1.704   3.346   7.738 -0.1047 -0.8898 -0.5724
  543MOL0     C73177   1.810   3.394   7.812 -0.5046 -0.4837  0.2712
  543MOL0     O73178   1.930   3.419   7.753  0.2066 -0.1081  0.4211
  543MOL0     C73179   1.976   3.342   7.641  1.1049 -0.1764  0.1852
  543MOL0     C73180   2.003   3.200   7.694  0.0365 -1.0432 -0.0810
  543MOL0     C73181   2.132   3.141   7.630 -0.2101  0.0433  0.0132
  543MOL0     C73182   2.144   3.000   7.680  0.0608  0.4329  0.0600
  543MOL0     C73183   2.278   2.931   7.645 -0.6458  0.7238 -0.1438
  543MOL0     C73184   2.284   2.787   7.705 -0.2206  0.6324 -0.6329
  543MOL0     C73185   2.428   2.735   7.685 -0.2524 -0.0910 -0.4850
  543MOL0     C73186   2.443   2.603   7.767 -0.0747  0.8119  0.2036
  543MOL0     N73187   2.582   2.572   7.803 -0.6703  0.3363 -0.3042
  543MOL0     C73188   2.648   2.630   7.905  0.1826  0.5104  0.3546
  543MOL0     C73189   2.769   2.576   7.893 -0.1621  0.3842  0.3632
  543MOL0     C73190   2.891   2.567   7.982 -0.0315 -0.5193 -0.9258
  543MOL0     C73191   2.893   2.680   8.080 -0.8518 -0.3012 -0.5620
  543MOL0     C73192   3.037   2.688   8.140 -0.5111  1.0321  0.7063
  543MOL0     C73193   3.063   2.817   8.207  0.3829 -0.0493 -0.7800
  543MOL0     O73194   3.192   2.814   8.262 -0.3337  0.4125 -0.1360
  543MOL0     C73195   3.237   2.930   8.327  0.2966  0.5765  0.4996
  543MOL0     C73196   3.191   3.062   8.314 -1.3176 -1.1849  0.2239
  543MOL0     C73197   3.243   3.168   8.396 -1.0642 -0.0217  0.3182
  543MOL0     C73198   3.343   3.142   8.493  0.7149  0.2126 -0.2344
  543MOL0     C73199   3.415   3.242   8.585  0.0398 -0.0638  1.3292
  543MOL0     O73200   3.522   3.200   8.658  0.2058  0.0108 -0.7260
  543MOL0     C73201   3.599   3.285   8.725 -0.2177 -0.6885 -0.7603
  543MOL0     C73202   3.546   3.325   8.853 -0.2123  0.5188  0.1123
  543MOL0     C73203   3.621   3.392   8.944  0.2124 -0.1057  0.5883
  543MOL0     C73204   3.752   3.432   8.913  0.2316  0.1661  0.0018
  543MOL0     O73205   3.810   3.509   9.002 -0.1777  0.2052 -0.1930
  543MOL0     C73206   3.932   3.566   8.969 -0.2760 -0.6759 -0.2139
  543MOL0     C73207   3.954   3.680   9.065 -0.6282 -0.7414  0.2829
  543MOL0     C73208   3.857   3.799   9.040 -0.4085 -0.5619 -0.3804
  543MOL0     C73209   3.932   3.926   9.084 -0.0393  0.6667 -0.3868
  543MOL0     C73210   3.853   4.052   9.064  1.1814  0.4013 -0.4747
  543MOL0     C73211   3.928   4.174   9.111  0.9168  0.7167  0.2400
  543MOL0     C73212   3.828   4.280   9.157 -0.4189  0.6672  0.2477
  543MOL0     C73213   3.891   4.411   9.186 -1.1475 -0.2348 -0.0137
  543MOL0    Cl73214   3.785   4.521   9.278  0.3248 -0.2675  0.1871
  543MOL0     C73215   3.807   3.399   8.780  0.0917  0.8616  0.5406
  543MOL0     C73216   3.733   3.314   8.691 -0.0083 -0.6975  0.4742
  543MOL0     O73217   3.377   3.355   8.572 -0.2725 -0.5741 -0.2745
  543MOL0     C73218   3.392   3.008   8.501  0.7285 -0.5173 -0.2718
  543MOL0     C73219   3.341   2.900   8.425  0.7702 -0.0356  0.3517
  543MOL0     N73220   2.776   2.492   7.780 -1.1893  0.2148 -0.1318
  543MOL0     N73221   2.661   2.493   7.722 -0.2207  0.1127  0.4233
  543MOL0     C73222   1.788   3.442   7.944 -0.1487 -0.5509  0.0684
  543MOL0     C73223   1.659   3.431   7.998 -0.2204  0.0127  0.9885
  543MOL0     C73224   1.233   3.295   8.075  0.1401 -0.6328 -0.3552
  543MOL0     C73225   1.194   3.167   8.115 -0.6417  0.9520  0.0144
  543MOL0     C73226   1.104   3.144   8.224  0.3170 -0.1785  0.0216
  543MOL0     C73227   1.037   3.255   8.284 -0.7234 -0.7597  0.5089
  543MOL0     O73228   0.932   3.258   8.373  0.0515  0.6071  0.0708
  543MOL0     C73229   0.886   3.132   8.430  0.2380 -0.6585  0.1402
  543MOL0     C73230   0.768   3.145   8.530  0.0673 -0.0497  0.7165
  543MOL0     C73231   0.805   3.242   8.645 -0.7832 -0.0543  0.1094
  543MOL0     C73232   0.707   3.249   8.758 -0.0413  0.4631  0.1980
  543MOL0     C73233   0.562   3.270   8.727 -0.1310 -0.4496  0.9129
  543MOL0     C73234   0.445   3.294   8.687 -0.4090 -0.7845  0.0435
  543MOL0     C73235   1.072   3.383   8.247 -0.0702  0.5962 -0.9783
  543MOL0     C73236   1.168   3.407   8.142  0.4707 -0.0069 -0.5270
  543MOL0     C73237   1.200   3.549   8.110  0.5247  0.4087 -0.0710
  543MOL0     H73238   1.490   3.308   7.733  1.1074 -2.8452  0.7239
  543MOL0     H73239   1.709   3.302   7.639 -0.2863  0.5888 -1.2505
  543MOL0     H73240   1.896   3.342   7.566  0.8172 -0.5261  0.4845
  543MOL0     H73241   2.064   3.389   7.597  2.3368 -3.2788 -0.9584
  543MOL0     H73242   1.923   3.131   7.667  1.7077 -3.3502  0.5541
  543MOL0     H73243   2.003   3.197   7.803 -4.6935  0.8829  0.2121
  543MOL0     H73244   2.214   3.202   7.671  1.6176  0.5851 -4.0054
  543MOL0     H73245   2.134   3.148   7.521 -0.6669  2.0864  0.0989
  543MOL0     H73246   2.120   2.999   7.787 -1.1283 -5.0954  0.0221
  543MOL0     H73247   2.060   2.944   7.639 -2.1487  2.3667  1.6289
  543MOL0     H73248   2.298   2.920   7.538  3.4783  0.0169  0.5282
  543MOL0     H73249   2.364   2.988   7.681  0.3243 -1.4169  1.0796
  543MOL0     H73250   2.249   2.802   7.808 -1.0431 -0.6940 -0.7056
  543MOL0     H73251   2.217   2.723   7.647 -1.9651  3.4706 -1.9800
  543MOL0     H73252   2.492   2.810   7.734 -2.6664  1.3156  0.7617
  543MOL0     H73253   2.469   2.716   7.586  0.2206 -1.2897 -0.0781
  543MOL0     H73254   2.388   2.617   7.861  0.6479  0.9605  0.6105
  543MOL0     H73255   2.409   2.515   7.712  1.7779 -0.0172  0.3163
  543MOL0     H73256   2.603   2.697   7.978 -0.4588 -1.8214  2.2122
  543MOL0     H73257   2.886   2.469   8.030  1.5855 -0.4917 -0.6382
  543MOL0     H73258   2.977   2.576   7.915 -1.2945  2.9574 -2.3017
  543MOL0     H73259   2.862   2.775   8.037 -1.3605 -0.2770 -0.1456
  543MOL0     H73260   2.816   2.663   8.155 -1.2150  1.6247 -0.4601
  543MOL0     H73261   3.112   2.660   8.066 -1.2298  1.8331 -0.3585
  543MOL0     H73262   3.041   2.615   8.222  0.7786  0.2532 -0.0223
  543MOL0     H73263   2.996   2.823   8.293  1.5686  0.6159  0.1286
  543MOL0     H73264   3.037   2.894   8.134 -2.4919 -0.9971 -0.8624
  543MOL0     H73265   3.111   3.088   8.246 -1.4028  0.1172  0.7782
  543MOL0     H73266   3.196   3.266   8.399  0.0505  0.5165  2.2058
  543MOL0     H73267   3.442   3.300   8.873 -0.1397  0.9822  1.1554
  543MOL0     H73268   3.597   3.421   9.046  2.9595  0.1532  1.2482
  543MOL0     H73269   4.011   3.491   8.981  0.1757 -0.0632  0.8337
  543MOL0     H73270   3.929   3.599   8.865  0.5024  0.2455  0.0415
  543MOL0     H73271   3.936   3.641   9.166 -2.6982  0.3229  0.3929
  543MOL0     H73272   4.053   3.722   9.050 -1.0003  0.1931  0.3473
  543MOL0     H73273   3.848   3.801   8.931 -1.1966 -0.5838 -0.3187
  543MOL0     H73274   3.760   3.780   9.086 -0.3654 -3.3923 -1.3230
  543MOL0     H73275   4.019   3.939   9.019  0.1752  1.8439  0.1129
  543MOL0     H73276   3.963   3.901   9.186 -3.5020 -0.8803  0.4187
  543MOL0     H73277   3.759   4.051   9.120  1.3787 -0.3084 -0.1454
  543MOL0     H73278   3.842   4.071   8.956 -0.2069 -2.7251 -1.0076
  543MOL0     H73279   3.996   4.146   9.193  0.9156 -0.2062 -0.0687
  543MOL0     H73280   4.000   4.202   9.033  1.0453 -0.5082 -0.0975
  543MOL0     H73281   3.782   4.233   9.245  2.6392 -4.3830 -0.4418
  543MOL0     H73282   3.765   4.294   9.069  0.7360 -3.1795 -1.4277
  543MOL0     H73283   3.981   4.386   9.243 -1.9021  0.5205  1.5806
  543MOL0     H73284   3.914   4.459   9.091  2.6692  0.9860  1.3352
  543MOL0     H73285   3.903   3.434   8.743  0.7842 -0.5129  0.9390
  543MOL0     H73286   3.781   3.286   8.598  0.9867  2.0602  0.0728
  543MOL0     H73287   3.466   2.980   8.575  0.8054 -0.1302 -0.2004
  543MOL0     H73288   3.369   2.796   8.440 -0.4816 -1.2925 -4.3517
  543MOL0     H73289   1.871   3.477   8.003 -1.3406  1.0404  0.8603
  543MOL0     H73290   1.636   3.475   8.094  1.8507  0.0470  1.5194
  543MOL0     H73291   1.259   3.085   8.086 -0.5829  1.1989 -0.5550
  543MOL0     H73292   1.083   3.047   8.267  1.2140  1.1451  3.9515
  543MOL0     H73293   0.973   3.092   8.482  1.6973  2.7921  0.6730
  543MOL0     H73294   0.848   3.065   8.352 -3.0781 -1.1633  2.0099
  543MOL0     H73295   0.743   3.043   8.559  1.3328 -1.0480 -1.4246
  543MOL0     H73296   0.691   3.174   8.458  0.5155 -2.2380 -0.7058
  543MOL0     H73297   0.835   3.339   8.604  0.6996 -1.6717 -2.9408
  543MOL0     H73298   0.895   3.194   8.683 -1.2318 -0.3929  0.7666
  543MOL0     H73299   0.700   3.155   8.815  0.1613  0.8269  0.8296
  543MOL0     H73300   0.735   3.327   8.828 -0.1039 -0.5285  1.3714
  543MOL0     H73301   0.346   3.322   8.655 -0.0881 -0.9465 -1.1297
  543MOL0     H73302   1.025   3.466   8.299  0.5525 -1.0081  2.3442
  543MOL0     H73303   1.102   3.598   8.109 -0.7058 -1.8110  1.4607
  543MOL0     H73304   1.260   3.601   8.186 -2.4657  2.4278  1.1159
  543MOL0     H73305   1.245   3.566   8.012 -1.8081  3.1034 -0.8063
  544MOL0     O73306   7.853   3.054   2.251  0.2140 -0.1659  0.4463
  544MOL0     C73307   7.774   3.042   2.342 -0.7970 -0.2939  0.1665
  544MOL0     O73308   7.806   2.981   2.453  0.1069  0.8462 -1.1413
  544MOL0     C73309   7.920   2.906   2.473  0.3962  0.1065 -0.9315
  544MOL0     C73310   8.012   2.859   2.379  0.1429 -0.0033  0.5161
  544MOL0     C73311   8.125   2.784   2.409 -0.4636 -0.2146 -0.1363
  544MOL0     C73312   8.158   2.772   2.538 -1.0882  0.2543 -0.1133
  544MOL0     O73313   8.268   2.689   2.568 -0.4017  0.6204 -0.0239
  544MOL0     C73314   8.277   2.646   2.709 -0.6727 -0.5926  0.9449
  544MOL0     C73315   8.408   2.577   2.724 -0.1422  0.7366  0.2140
  544MOL0     C73316   8.533   2.643   2.662  0.0826 -0.8193 -0.6323
  544MOL0     C73317   8.581   2.770   2.725  0.2999 -0.3992 -0.4151
  544MOL0     C73318   8.703   2.817   2.638 -0.3270 -0.3192 -0.2922
  544MOL0     C73319   8.763   2.955   2.687 -0.0438  0.5279 -0.0512
  544MOL0     C73320   8.864   2.929   2.800 -0.0655  0.2329  0.1341
  544MOL0     C73321   8.993   3.019   2.794 -0.0301  0.1952  0.3432
  544MOL0     N73322   9.000   3.138   2.885 -0.7125 -0.1328  0.3166
  544MOL0     C73323   9.113   3.177   2.951  0.3048  0.3666  0.9665
  544MOL0     C73324   9.071   3.285   3.018 -0.2387 -0.8155  0.0624
  544MOL0     C73325   9.167   3.360   3.113  0.8047 -0.2718  0.0913
  544MOL0     C73326   9.264   3.460   3.044 -0.1947  0.0653  0.3676
  544MOL0     C73327   9.400   3.479   3.118  0.9788 -0.1408 -0.1475
  544MOL0     C73328   9.441   3.625   3.092 -0.0134 -0.1890  0.4570
  544MOL0     O73329   9.571   3.648   3.149  0.0044 -0.7711  0.5299
  544MOL0     C73330   9.654   3.756   3.100  0.3512  0.8335 -0.2590
  544MOL0     C73331   9.769   3.784   3.171 -0.4168 -0.8626  0.5254
  544MOL0     C73332   9.850   3.896   3.145 -0.1157  0.7785  0.5956
  544MOL0     C73333   9.823   3.990   3.048  0.1608 -0.4547 -0.4565
  544MOL0     C73334   9.928   4.099   3.021  0.2103  0.2699 -0.4534
  544MOL0     O73335  10.041   4.095   3.104 -0.1731 -0.1269 -0.4940
  544MOL0     C73336  10.130   4.199   3.090 -0.3991  0.8975  0.1061
  544MOL0     C73337  10.146   4.305   3.180 -1.0010  0.9105 -0.5396
  544MOL0     C73338  10.251   4.397   3.165  0.8771  0.3936 -0.1757
  544MOL0     C73339  10.339   4.398   3.058  1.2974  0.8482  0.0825
  544MOL0     O73340  10.428   4.495   3.050 -0.4186  0.5031  0.1392
  544MOL0     C73341  10.525   4.502   2.941  0.0278 -0.0582 -0.8492
  544MOL0     C73342  10.459   4.548   2.799  0.1857  0.7162 -0.0449
  544MOL0     C73343  10.579   4.601   2.713 -0.6417 -0.2543 -0.1556
  544MOL0     C73344  10.531   4.633   2.578 -0.4374 -0.2169 -0.2070
  544MOL0     C73345  10.626   4.711   2.478 -0.1803  0.0505  0.4250
  544MOL0     C73346  10.759   4.629   2.443  0.6308 -0.1908  0.1816
  544MOL0     C73347  10.882   4.665   2.527 -0.4423  0.3247 -0.0294
  544MOL0     C73348  10.983   4.564   2.501 -0.6345  0.0624 -0.4520
  544MOL0    Cl73349  11.116   4.591   2.631  0.2683 -0.2994  0.0709
  544MOL0     C73350  10.315   4.289   2.962  0.6001 -0.6751 -0.4900
  544MOL0     C73351  10.221   4.190   2.991  0.4459  0.1043 -0.0836
  544MOL0     O73352   9.916   4.181   2.928 -0.9471  0.7445  0.1640
  544MOL0     C73353   9.707   3.954   2.972  0.1958  0.2048  0.7047
  544MOL0     C73354   9.625   3.841   2.993 -0.3691  0.0158 -0.2772
  544MOL0     N73355   8.938   3.318   2.988 -0.2818  0.2825  0.3906
  544MOL0     N73356   8.892   3.223   2.910 -0.7071 -0.5192 -0.5652
  544MOL0     C73357   8.074   2.832   2.634  0.5411 -0.1618 -0.5418
  544MOL0     C73358   7.954   2.894   2.608  0.0265 -0.5991 -0.6285
  544MOL0     C73359   7.640   3.100   2.340 -0.8053 -0.0803  0.8468
  544MOL0     C73360   7.533   3.011   2.352 -0.4350 -0.1090  0.0307
  544MOL0     C73361   7.406   3.044   2.357  0.5161  0.5757 -0.0220
  544MOL0     C73362   7.372   3.181   2.354 -0.7590  0.3113 -0.3619
  544MOL0     O73363   7.239   3.222   2.361 -1.1320  0.5518 -0.0848
  544MOL0     C73364   7.155   3.143   2.448  0.4872  0.4573 -0.0811
  544MOL0     C73365   7.140   3.187   2.601  0.2485  0.5518  0.4518
  544MOL0     C73366   7.140   3.335   2.621 -0.0331 -0.9654 -0.4842
  544MOL0     C73367   7.090   3.377   2.765  0.5810 -0.1550  1.0384
  544MOL0     C73368   7.078   3.517   2.797 -1.6281 -0.4336 -0.1971
  544MOL0     C73369   7.065   3.630   2.829  0.3001 -0.2877 -0.1161
  544MOL0     C73370   7.463   3.278   2.338 -0.5752  0.3951  1.4882
  544MOL0     C73371   7.604   3.246   2.328 -0.7955  0.7874 -1.3803
  544MOL0     C73372   7.701   3.353   2.306 -0.2819  0.4191 -0.2540
  544MOL0     H73373   7.982   2.877   2.277 -0.5755  0.2649  0.7676
  544MOL0     H73374   8.191   2.742   2.334  1.5287 -2.1593  2.5401
  544MOL0     H73375   8.279   2.736   2.772 -0.0370  0.6062 -0.7383
  544MOL0     H73376   8.197   2.573   2.728 -1.3167  0.0903  0.9121
  544MOL0     H73377   8.401   2.483   2.667 -0.2438 -0.4503  2.0979
  544MOL0     H73378   8.435   2.560   2.828  1.7204 -0.6144 -0.4177
  544MOL0     H73379   8.519   2.651   2.554  1.6516 -3.6146 -1.1242
  544MOL0     H73380   8.616   2.575   2.680 -0.8813 -2.6718 -2.7446
  544MOL0     H73381   8.499   2.841   2.712  1.2589  0.8539  0.1606
  544MOL0     H73382   8.603   2.766   2.832 -1.8992  1.4133  0.1832
  544MOL0     H73383   8.786   2.746   2.642  2.0232  2.1890 -1.2436
  544MOL0     H73384   8.664   2.826   2.536 -3.4327  0.1053  0.8269
  544MOL0     H73385   8.821   2.991   2.602 -0.7251  1.1643 -0.2627
  544MOL0     H73386   8.680   3.022   2.713  0.5809  0.7464  1.4437
  544MOL0     H73387   8.896   2.825   2.793  1.9344  0.6418  2.0597
  544MOL0     H73388   8.816   2.948   2.896  1.3212  0.0785  0.8836
  544MOL0     H73389   9.078   2.953   2.813  2.3764  3.0363  0.2278
  544MOL0     H73390   9.006   3.051   2.690 -1.9181 -2.3163 -0.7677
  544MOL0     H73391   9.217   3.148   2.951 -0.1222 -1.3132  2.2336
  544MOL0     H73392   9.085   3.414   3.160 -0.6420  1.5208 -4.0207
  544MOL0     H73393   9.224   3.305   3.189  1.5519 -0.3226 -0.4844
  544MOL0     H73394   9.289   3.416   2.947  0.5020  0.9928  0.1179
  544MOL0     H73395   9.216   3.557   3.031  0.5505  0.4897  0.7473
  544MOL0     H73396   9.473   3.406   3.081 -0.9584 -1.9629 -0.5908
  544MOL0     H73397   9.401   3.449   3.223 -1.2152 -3.9802 -1.0133
  544MOL0     H73398   9.368   3.702   3.118  0.0802  0.1569 -0.2542
  544MOL0     H73399   9.447   3.624   2.982 -1.7347  1.7068  0.2960
  544MOL0     H73400   9.772   3.734   3.268 -2.3071 -0.9259  0.5903
  544MOL0     H73401   9.941   3.903   3.203  0.1074 -1.0101  0.5196
  544MOL0     H73402  10.076   4.317   3.262 -0.4516  1.6932 -0.1697
  544MOL0     H73403  10.259   4.483   3.231  0.7800  1.6517 -1.7462
  544MOL0     H73404  10.598   4.578   2.969 -1.1468  0.2357  1.7155
  544MOL0     H73405  10.578   4.408   2.923 -1.4448 -1.2969  0.8341
  544MOL0     H73406  10.400   4.464   2.761  0.0807  1.2487 -1.0966
  544MOL0     H73407  10.390   4.632   2.810  0.7520  1.4986 -2.0887
  544MOL0     H73408  10.622   4.689   2.763  4.2503 -2.3885  0.0034
  544MOL0     H73409  10.660   4.530   2.695  0.5950  1.4327 -1.6799
  544MOL0     H73410  10.438   4.690   2.585 -0.0728  0.5856 -1.6328
  544MOL0     H73411  10.510   4.536   2.530  0.6048 -0.9509  0.7713
  544MOL0     H73412  10.646   4.809   2.522 -3.1568  1.6679 -1.4821
  544MOL0     H73413  10.572   4.727   2.384  2.3218  1.5840 -0.8541
  544MOL0     H73414  10.735   4.523   2.454 -2.2886  0.6522  3.9184
  544MOL0     H73415  10.772   4.631   2.335  0.2177 -2.5157  0.0260
  544MOL0     H73416  10.863   4.670   2.635  2.1279 -1.7904  0.6441
  544MOL0     H73417  10.925   4.756   2.486 -0.1957 -1.3126 -3.8190
  544MOL0     H73418  10.960   4.459   2.521  0.2074  0.1892  1.3521
  544MOL0     H73419  11.029   4.587   2.405  0.0824  0.0403 -0.1173
  544MOL0     H73420  10.378   4.272   2.876  0.8747 -2.6401  0.0614
  544MOL0     H73421  10.208   4.105   2.925 -1.3357  1.3500 -1.4258
  544MOL0     H73422   9.689   4.021   2.888  0.5210  1.7520  1.8124
  544MOL0     H73423   9.535   3.827   2.935  0.2053  2.0553 -1.8045
  544MOL0     H73424   8.097   2.814   2.739 -0.6739  0.0103 -0.2391
  544MOL0     H73425   7.904   2.945   2.689 -1.6935  0.2177 -2.1283
  544MOL0     H73426   7.568   2.908   2.358 -0.2799 -0.3051 -2.6493
  544MOL0     H73427   7.331   2.966   2.362 -1.1508  2.1900  2.3472
  544MOL0     H73428   7.166   3.034   2.440 -0.2966  0.5084 -2.9896
  544MOL0     H73429   7.059   3.163   2.399 -0.3585 -0.4470  1.1548
  544MOL0     H73430   7.229   3.156   2.655 -1.5380 -1.0644  2.6413
  544MOL0     H73431   7.058   3.133   2.650  0.0425 -1.1271 -1.5923
  544MOL0     H73432   7.062   3.375   2.555  0.1610 -0.2267 -0.2741
  544MOL0     H73433   7.236   3.381   2.596  0.6784 -0.4850  2.6900
  544MOL0     H73434   6.995   3.326   2.784  1.3170 -1.9439  0.1684
  544MOL0     H73435   7.155   3.336   2.844  0.1540 -0.2146  1.3645
  544MOL0     H73436   7.065   3.729   2.871  2.0201 -0.6642  0.8613
  544MOL0     H73437   7.420   3.372   2.304 -0.6717 -1.0541 -2.9006
  544MOL0     H73438   7.795   3.300   2.293 -1.4156 -2.3402  1.8074
  544MOL0     H73439   7.684   3.411   2.215  0.4527 -4.6697 -4.0702
  544MOL0     H73440   7.709   3.424   2.389  2.6179  0.9807 -0.9219
  545MOL0     O73441   5.265   2.028  11.152  0.1814  0.1761 -0.5790
  545MOL0     C73442   5.228   1.992  11.268 -0.0650 -0.4457  0.2408
  545MOL0     O73443   5.303   1.940  11.363 -0.1590  0.4485  0.5167
  545MOL0     C73444   5.438   1.970  11.365 -0.2312 -0.5568 -0.3969
  545MOL0     C73445   5.540   1.871  11.371 -0.1182 -0.4733  1.0511
  545MOL0     C73446   5.671   1.924  11.392 -0.7819  0.2307 -0.2734
  545MOL0     C73447   5.701   2.056  11.407 -1.0371  0.2999 -0.5362
  545MOL0     O73448   5.827   2.101  11.441 -0.2088 -1.1939 -0.5285
  545MOL0     C73449   5.939   2.022  11.410 -0.2361  0.2344  0.0444
  545MOL0     C73450   6.078   2.071  11.451  0.4337  0.7380 -0.1877
  545MOL0     C73451   6.110   2.212  11.388 -0.8631 -0.6868  0.8855
  545MOL0     C73452   6.258   2.239  11.346  0.9679 -0.1880  0.2899
  545MOL0     C73453   6.295   2.388  11.316  0.2334 -0.5049 -0.2316
  545MOL0     C73454   6.437   2.439  11.315 -0.4002  0.4818 -0.5151
  545MOL0     C73455   6.520   2.375  11.205  0.0479 -0.0843  0.3559
  545MOL0     C73456   6.465   2.406  11.057 -0.4907  0.6804  0.1235
  545MOL0     N73457   6.535   2.320  10.955  0.5075 -0.0974  0.2668
  545MOL0     C73458   6.537   2.189  10.960 -0.2610  0.0153  0.1099
  545MOL0     C73459   6.595   2.151  10.846 -0.2653  0.2132  0.2482
  545MOL0     C73460   6.625   2.022  10.776  0.0707 -0.1129 -0.0432
  545MOL0     C73461   6.491   1.958  10.746  0.5868  0.1252  0.3796
  545MOL0     C73462   6.451   1.838  10.831  0.2519 -0.3302 -0.0366
  545MOL0     C73463   6.470   1.835  10.987 -0.2952 -0.2675  0.5645
  545MOL0     O73464   6.382   1.921  11.049  0.3495 -0.7367  0.0742
  545MOL0     C73465   6.253   1.887  11.059 -0.3778  0.9323  0.4223
  545MOL0     C73466   6.215   1.759  11.104 -0.5616  0.4167 -0.9325
  545MOL0     C73467   6.089   1.727  11.124 -0.4498  0.3697  0.9161
  545MOL0     C73468   5.984   1.817  11.078  0.2578 -1.0607  0.4815
  545MOL0     C73469   5.842   1.782  11.089  0.1047 -0.5375 -0.5995
  545MOL0     O73470   5.807   1.656  11.132  0.2630 -0.5996 -0.6431
  545MOL0     C73471   5.682   1.613  11.132 -0.0640  0.8034  0.0347
  545MOL0     C73472   5.643   1.527  11.228 -0.4047 -0.5698 -0.5132
  545MOL0     C73473   5.505   1.482  11.236 -0.0753  0.0369 -0.1643
  545MOL0     C73474   5.405   1.521  11.145  0.7006 -0.7228 -0.1911
  545MOL0     O73475   5.277   1.480  11.148  0.4010  0.6613 -0.2507
  545MOL0     C73476   5.172   1.565  11.116 -0.3449 -0.8120 -0.4493
  545MOL0     C73477   5.051   1.474  11.110  0.3394  0.2783  0.1275
  545MOL0     C73478   5.030   1.393  10.975 -1.1561 -0.0176  0.5822
  545MOL0     C73479   4.928   1.464  10.877 -0.7379 -0.0732  0.0786
  545MOL0     C73480   4.936   1.389  10.738  1.1881 -0.0271  0.1809
  545MOL0     C73481   4.867   1.472  10.627 -0.3173  0.8984 -0.0807
  545MOL0     C73482   4.934   1.605  10.611  0.2864 -0.0671  0.4540
  545MOL0     C73483   4.896   1.675  10.473 -0.1769 -0.3883  0.2308
  545MOL0    Cl73484   4.728   1.622  10.417  0.2210 -0.3372 -0.1817
  545MOL0     C73485   5.457   1.608  11.047 -0.2059  0.8804 -0.4529
  545MOL0     C73486   5.589   1.653  11.038 -1.0924  0.2646  0.4805
  545MOL0     O73487   5.765   1.872  11.071  0.3547 -0.4239 -0.5013
  545MOL0     C73488   6.023   1.943  11.015 -0.2139  0.1506  0.7656
  545MOL0     C73489   6.153   1.975  11.007  0.3647  0.0879  0.6670
  545MOL0     N73490   6.642   2.263  10.781 -0.5943 -0.2223  0.4926
  545MOL0     N73491   6.601   2.366  10.842 -1.3131 -0.4582  0.2467
  545MOL0     C73492   5.600   2.149  11.405 -0.6076 -0.2637 -0.6876
  545MOL0     C73493   5.468   2.105  11.392 -0.0605  0.6046 -0.2934
  545MOL0     C73494   5.086   2.001  11.303 -0.0917 -1.6290  0.2066
  545MOL0     C73495   5.046   2.028  11.436  0.3132  0.4045 -0.5256
  545MOL0     C73496   4.910   2.037  11.474  0.8438 -0.5697 -0.5120
  545MOL0     C73497   4.810   2.035  11.381 -0.4801 -0.7430  0.4506
  545MOL0     O73498   4.680   2.047  11.413  0.5055  0.4148  0.8044
  545MOL0     C73499   4.632   1.929  11.475 -0.2915  0.5128  0.3579
  545MOL0     C73500   4.603   1.811  11.382  0.3069  0.2046  0.0936
  545MOL0     C73501   4.468   1.845  11.322 -0.2303  1.2869  0.2763
  545MOL0     C73502   4.418   1.743  11.213 -0.4807 -0.8920  0.3346
  545MOL0     C73503   4.524   1.723  11.115 -0.4986  0.1864 -0.5351
  545MOL0     C73504   4.604   1.706  11.022 -0.1825 -0.0875 -0.0902
  545MOL0     C73505   4.847   2.020  11.252 -0.1583 -0.9315  0.3975
  545MOL0     C73506   4.980   2.004  11.213 -0.4790 -0.5432  0.2510
  545MOL0     C73507   4.998   1.992  11.060  0.7743  0.4806 -0.4377
  545MOL0     H73508   5.525   1.764  11.368  0.1695 -0.5464 -2.6676
  545MOL0     H73509   5.743   1.845  11.409 -0.0317  0.9080 -0.2247
  545MOL0     H73510   5.945   1.919  11.446 -1.9655 -0.2149 -0.9029
  545MOL0     H73511   5.941   2.019  11.301  2.3086 -2.8818  0.0334
  545MOL0     H73512   6.150   1.993  11.426  0.9533  0.6552  1.4936
  545MOL0     H73513   6.075   2.075  11.560 -0.6681 -2.1076 -0.0332
  545MOL0     H73514   6.088   2.278  11.473  0.6309  2.0412 -0.7158
  545MOL0     H73515   6.054   2.239  11.298  1.0623 -3.7149 -1.4383
  545MOL0     H73516   6.307   2.215  11.441  0.0634  0.0641  0.8325
  545MOL0     H73517   6.301   2.169  11.274  0.0550  1.4042 -1.9036
  545MOL0     H73518   6.257   2.417  11.218  0.8624 -0.1637 -0.3828
  545MOL0     H73519   6.244   2.452  11.388  2.1159 -0.1231  0.8536
  545MOL0     H73520   6.440   2.546  11.294 -0.8122  0.5145 -0.4322
  545MOL0     H73521   6.479   2.416  11.413  3.3101 -1.6365 -2.4175
  545MOL0     H73522   6.496   2.270  11.222  2.0593 -0.6649 -0.0935
  545MOL0     H73523   6.627   2.399  11.207 -0.5096  2.6622  1.3096
  545MOL0     H73524   6.357   2.393  11.045 -0.6988  3.1328 -1.4445
  545MOL0     H73525   6.488   2.511  11.036  0.4654  0.7330  1.3828
  545MOL0     H73526   6.508   2.119  11.038  0.1012  0.4496  0.6465
  545MOL0     H73527   6.675   2.040  10.680  1.0356 -0.4463  0.3877
  545MOL0     H73528   6.691   1.970  10.846  0.7591  0.1400 -0.4936
  545MOL0     H73529   6.415   2.035  10.758  0.4275 -0.3936  3.6347
  545MOL0     H73530   6.497   1.928  10.641  3.6913  0.2385  0.4272
  545MOL0     H73531   6.521   1.765  10.789  1.4366  1.8516 -2.0722
  545MOL0     H73532   6.347   1.816  10.805  0.6885  0.0313 -2.3129
  545MOL0     H73533   6.575   1.854  11.014 -0.4316  1.4085  0.0116
  545MOL0     H73534   6.448   1.729  11.002 -1.0161 -0.2000 -0.0111
  545MOL0     H73535   6.292   1.696  11.148 -0.7285  1.2818  0.6968
  545MOL0     H73536   6.067   1.630  11.167  1.0354 -0.2990  0.2221
  545MOL0     H73537   5.722   1.495  11.295 -0.9551 -1.0884 -0.0959
  545MOL0     H73538   5.473   1.417  11.317  1.8460 -0.5653  0.1481
  545MOL0     H73539   5.166   1.643  11.192  2.1070  0.5612 -1.5498
  545MOL0     H73540   5.190   1.625  11.026  1.7104 -0.3872  0.1804
  545MOL0     H73541   5.062   1.400  11.189  0.1953  1.9724  1.7961
  545MOL0     H73542   4.962   1.532  11.136 -0.5358  0.2606 -2.5225
  545MOL0     H73543   5.123   1.368  10.923 -1.3816 -2.1170  1.0833
  545MOL0     H73544   4.988   1.296  11.006 -0.2156 -0.2582  1.1480
  545MOL0     H73545   4.956   1.568  10.861 -0.4871 -0.5216 -2.9910
  545MOL0     H73546   4.826   1.469  10.917 -1.3732  0.2424 -1.5381
  545MOL0     H73547   4.875   1.300  10.757  2.0353 -0.3590  1.4893
  545MOL0     H73548   5.035   1.349  10.715 -0.0102 -4.4641  1.6232
  545MOL0     H73549   4.892   1.411  10.540  4.3022  1.5297  0.5413
  545MOL0     H73550   4.763   1.493  10.652 -0.2206  4.1870 -1.9801
  545MOL0     H73551   5.042   1.597  10.621  0.1754 -4.1844  0.2405
  545MOL0     H73552   4.891   1.664  10.692 -0.0064  0.6351 -0.2030
  545MOL0     H73553   4.902   1.784  10.479 -0.6070 -0.1833 -2.0192
  545MOL0     H73554   4.963   1.654  10.389  1.0203  1.2122  0.7342
  545MOL0     H73555   5.389   1.626  10.964  0.5119 -3.3475 -2.2199
  545MOL0     H73556   5.597   1.709  10.946 -0.0800 -0.4949  0.0874
  545MOL0     H73557   5.940   2.004  10.979 -1.9706 -1.8013  1.2652
  545MOL0     H73558   6.178   2.074  10.971  1.6024 -1.2745 -2.5855
  545MOL0     H73559   5.625   2.254  11.404  0.7506 -0.5745 -1.4477
  545MOL0     H73560   5.386   2.176  11.396 -1.0576 -0.5229  0.2110
  545MOL0     H73561   5.113   2.033  11.521 -2.2864 -2.6234  1.9537
  545MOL0     H73562   4.885   2.056  11.578 -0.5941  0.9208 -1.0785
  545MOL0     H73563   4.548   1.952  11.541 -0.5607 -0.5192  0.3959
  545MOL0     H73564   4.708   1.890  11.544 -1.2027 -1.9005  0.1001
  545MOL0     H73565   4.596   1.712  11.429  0.3714 -0.2336 -0.7873
  545MOL0     H73566   4.679   1.801  11.304  0.5226  1.8760  0.0618
  545MOL0     H73567   4.479   1.944  11.277  1.4730  1.5371  1.1900
  545MOL0     H73568   4.395   1.852  11.404  1.5158  1.8515  1.8313
  545MOL0     H73569   4.396   1.647  11.261 -0.7589  0.1627  2.4566
  545MOL0     H73570   4.325   1.789  11.178 -0.4972  0.9971  2.5818
  545MOL0     H73571   4.671   1.692  10.940 -0.7756  0.2727 -0.6399
  545MOL0     H73572   4.759   2.022  11.188  0.8739  2.6193 -1.1305
  545MOL0     H73573   4.898   1.965  11.024  0.7639 -2.7516  1.5757
  545MOL0     H73574   5.041   2.087  11.027  3.2089  0.2561  1.7391
  545MOL0     H73575   5.059   1.905  11.032  0.6684  0.0250  0.6919
  546MOL0     O73576   6.841   8.491   2.643 -0.1486  0.8558 -0.3648
  546MOL0     C73577   6.740   8.547   2.650  0.8369  1.1657  0.5280
  546MOL0     O73578   6.726   8.688   2.651 -0.2128 -0.4949  0.5592
  546MOL0     C73579   6.833   8.774   2.635 -0.5542 -0.0168 -0.5041
  546MOL0     C73580   6.962   8.748   2.686 -0.5200 -0.7355 -0.3196
  546MOL0     C73581   7.063   8.843   2.679 -0.1011 -0.4292 -1.3435
  546MOL0     C73582   7.047   8.965   2.621  0.1341  0.2245  0.6227
  546MOL0     O73583   7.158   9.044   2.618  0.6672  0.6224  0.6134
  546MOL0     C73584   7.205   9.060   2.486 -0.9527 -0.1866  0.0702
  546MOL0     C73585   7.352   9.098   2.503 -0.0025  0.2508 -0.0580
  546MOL0     C73586   7.437   8.988   2.579  0.8899  0.4032  0.4629
  546MOL0     C73587   7.492   8.879   2.476  1.4289  0.0323 -0.5430
  546MOL0     C73588   7.592   8.771   2.541  0.0545 -0.5407  1.0190
  546MOL0     C73589   7.525   8.670   2.642  0.2395  0.4869  0.1131
  546MOL0     C73590   7.627   8.555   2.679  0.5411  0.6353  0.6095
  546MOL0     C73591   7.739   8.605   2.770  0.3002 -0.0714  0.1166
  546MOL0     N73592   7.826   8.500   2.827 -0.3802  0.4417  0.5891
  546MOL0     C73593   7.830   8.454   2.953 -0.0051  0.1443 -0.3999
  546MOL0     C73594   7.939   8.380   2.965 -0.4269  0.3193 -0.5590
  546MOL0     C73595   7.986   8.324   3.092  0.0068  0.3042  0.0076
  546MOL0     C73596   8.005   8.424   3.212  0.5010 -0.1774  0.6461
  546MOL0     C73597   8.111   8.529   3.179 -0.2149 -0.3104 -0.3967
  546MOL0     C73598   8.145   8.592   3.316 -0.5356 -0.6050 -0.3659
  546MOL0     O73599   8.038   8.668   3.362 -0.1227 -0.3753  0.8597
  546MOL0     C73600   8.037   8.689   3.493 -0.3342 -0.5074 -0.1150
  546MOL0     C73601   7.918   8.744   3.537 -0.4809  1.2512 -0.5503
  546MOL0     C73602   7.907   8.783   3.676  0.1019  0.9699 -0.2571
  546MOL0     C73603   8.015   8.753   3.763 -0.0972 -1.0175 -0.6520
  546MOL0     C73604   8.004   8.794   3.910  0.2289  0.2316  0.0536
  546MOL0     O73605   7.879   8.827   3.955  1.4534  0.1354  0.1507
  546MOL0     C73606   7.840   8.871   4.076 -0.1745  0.0418  0.1989
  546MOL0     C73607   7.713   8.919   4.082  0.4844 -0.0931  0.1267
  546MOL0     C73608   7.646   8.961   4.201 -0.2926  0.1489 -0.3754
  546MOL0     C73609   7.725   8.954   4.321  0.3001 -0.0810 -0.1184
  546MOL0     O73610   7.668   9.007   4.435  0.2923  0.0174 -0.1119
  546MOL0     C73611   7.532   8.976   4.465  0.8351 -0.3884 -0.5874
  546MOL0     C73612   7.521   8.931   4.609 -0.4460 -0.3017 -0.7856
  546MOL0     C73613   7.611   8.813   4.646 -0.0395 -0.3853 -0.5382
  546MOL0     C73614   7.611   8.782   4.785 -0.6348  0.4120 -0.4330
  546MOL0     C73615   7.485   8.756   4.854 -0.1321 -0.9538  0.4919
  546MOL0     C73616   7.481   8.638   4.962 -0.8653 -0.0720 -0.1410
  546MOL0     C73617   7.458   8.494   4.904  0.3318  0.4154  0.4818
  546MOL0     C73618   7.477   8.393   5.019 -1.1669  0.4157  0.1064
  546MOL0    Cl73619   7.363   8.398   5.156 -0.3335  0.0671  0.2637
  546MOL0     C73620   7.852   8.910   4.321 -0.0247  0.0326 -0.0060
  546MOL0     C73621   7.910   8.865   4.203  0.8313  0.2616  0.7716
  546MOL0     O73622   8.101   8.800   3.979  0.4221 -0.2724 -0.1375
  546MOL0     C73623   8.135   8.704   3.713  0.3200  0.8831  0.7897
  546MOL0     C73624   8.144   8.665   3.582 -0.4067 -0.3795 -1.3810
  546MOL0     N73625   8.024   8.401   2.848  0.4031 -0.1913 -0.1197
  546MOL0     N73626   7.945   8.469   2.776  0.0244  0.5656  0.4079
  546MOL0     C73627   6.923   8.994   2.573  0.4961  0.2852 -0.7741
  546MOL0     C73628   6.812   8.900   2.580  0.6297  0.2383  0.0861
  546MOL0     C73629   6.611   8.467   2.634 -0.1127 -0.0764 -0.3688
  546MOL0     C73630   6.495   8.547   2.592  0.0936  0.7504 -0.5066
  546MOL0     C73631   6.357   8.491   2.601  0.6544 -0.6863  0.7219
  546MOL0     C73632   6.338   8.355   2.641  0.5480 -0.3652  0.1342
  546MOL0     O73633   6.219   8.296   2.686  0.1349 -0.5833 -1.0637
  546MOL0     C73634   6.115   8.395   2.695 -0.0252  0.2534 -0.3282
  546MOL0     C73635   5.993   8.326   2.755  0.0216 -0.7415  0.1831
  546MOL0     C73636   5.938   8.217   2.655  0.0274 -0.8092 -0.1276
  546MOL0     C73637   5.824   8.137   2.717  0.1966  0.4682 -0.0690
  546MOL0     C73638   5.810   8.001   2.668 -0.5372 -0.0375 -0.2074
  546MOL0     C73639   5.800   7.898   2.610  0.1258 -0.2653 -0.7453
  546MOL0     C73640   6.451   8.281   2.668 -0.4965 -0.2610  0.6876
  546MOL0     C73641   6.586   8.327   2.666  0.8952  0.3011  0.3341
  546MOL0     C73642   6.709   8.246   2.730  0.4286 -0.5455  0.5618
  546MOL0     H73643   6.977   8.653   2.736  2.8439 -0.8852 -1.4105
  546MOL0     H73644   7.163   8.815   2.708 -0.1354 -0.9731 -1.7437
  546MOL0     H73645   7.189   8.962   2.439  0.0363 -1.4079  2.1069
  546MOL0     H73646   7.152   9.139   2.433  0.5371 -0.6128 -2.2137
  546MOL0     H73647   7.373   9.189   2.558 -1.7035  0.7979 -0.2536
  546MOL0     H73648   7.400   9.112   2.406 -0.5672 -2.2755 -0.7816
  546MOL0     H73649   7.389   8.942   2.666  3.3275 -1.0347  1.1306
  546MOL0     H73650   7.520   9.041   2.626  2.6253  1.2426 -3.2048
  546MOL0     H73651   7.400   8.837   2.435 -0.2878  2.5711  0.4849
  546MOL0     H73652   7.553   8.934   2.403  0.0485  1.9692 -0.3123
  546MOL0     H73653   7.635   8.706   2.464 -0.6554 -3.0556  2.6062
  546MOL0     H73654   7.680   8.811   2.591  0.8411  0.0369 -0.7399
  546MOL0     H73655   7.500   8.723   2.734 -1.3963 -2.4584  1.5178
  546MOL0     H73656   7.427   8.634   2.607  0.5163 -0.7457  0.5642
  546MOL0     H73657   7.668   8.508   2.590  1.7073  0.1368  1.3929
  546MOL0     H73658   7.558   8.486   2.728 -1.0426  1.5550 -0.2386
  546MOL0     H73659   7.801   8.674   2.712  0.8816 -1.4483 -0.9358
  546MOL0     H73660   7.704   8.654   2.862  0.5083  0.7385 -0.2286
  546MOL0     H73661   7.763   8.481   3.034  1.1628 -0.8860  0.9777
  546MOL0     H73662   7.923   8.241   3.128  0.5974  1.0856  3.1670
  546MOL0     H73663   8.082   8.281   3.065 -2.0383 -3.7794 -1.7570
  546MOL0     H73664   7.902   8.458   3.227 -0.3632 -0.2452 -3.8603
  546MOL0     H73665   8.034   8.359   3.294  0.0876 -0.9198  0.2130
  546MOL0     H73666   8.073   8.603   3.107  1.0389 -0.3917 -1.1752
  546MOL0     H73667   8.190   8.466   3.138 -0.7163 -0.8655 -0.5293
  546MOL0     H73668   8.236   8.651   3.306 -0.6879 -0.4435 -0.8211
  546MOL0     H73669   8.174   8.512   3.385  5.1432  1.7933  0.5820
  546MOL0     H73670   7.846   8.751   3.456  1.2241 -1.8328 -2.5194
  546MOL0     H73671   7.815   8.829   3.711 -0.6774  0.6201 -1.7646
  546MOL0     H73672   7.642   8.918   4.000 -0.6882  1.8647  1.0359
  546MOL0     H73673   7.540   8.985   4.190  0.2830  3.3102  0.2156
  546MOL0     H73674   7.467   9.062   4.449  1.5773  0.4159  0.5686
  546MOL0     H73675   7.496   8.895   4.401  1.2789  0.5049 -2.0006
  546MOL0     H73676   7.562   9.015   4.666  0.6228 -0.3116 -1.5179
  546MOL0     H73677   7.418   8.907   4.637 -0.6753 -1.2109 -2.2820
  546MOL0     H73678   7.574   8.723   4.597 -2.5512 -0.4147  1.2572
  546MOL0     H73679   7.716   8.829   4.618 -0.1998 -1.5132 -1.8645
  546MOL0     H73680   7.664   8.863   4.836  0.1246  0.5374 -1.3954
  546MOL0     H73681   7.678   8.696   4.796 -0.0514  1.1604  3.6510
  546MOL0     H73682   7.409   8.743   4.777  0.2543 -2.2979  0.3099
  546MOL0     H73683   7.463   8.853   4.899  4.0228  0.5819 -0.3334
  546MOL0     H73684   7.575   8.645   5.018 -0.9026  1.8140 -0.2387
  546MOL0     H73685   7.386   8.664   5.010 -0.3002  2.3326 -0.2013
  546MOL0     H73686   7.540   8.470   4.835 -0.3960 -2.5959  0.5038
  546MOL0     H73687   7.363   8.487   4.850  0.0566 -0.4121  1.0512
  546MOL0     H73688   7.479   8.292   4.978  2.6943  0.9267 -1.3558
  546MOL0     H73689   7.580   8.400   5.057 -1.4386  0.2842  0.8945
  546MOL0     H73690   7.907   8.911   4.415 -1.3860 -0.1033  0.8250
  546MOL0     H73691   8.006   8.814   4.199  0.2056 -1.4606  3.7977
  546MOL0     H73692   8.219   8.693   3.780  0.9625 -0.7580 -0.2266
  546MOL0     H73693   8.238   8.619   3.554 -0.6118 -0.9445 -1.1507
  546MOL0     H73694   6.901   9.095   2.541 -1.7746 -0.0830 -0.5625
  546MOL0     H73695   6.720   8.943   2.543  0.0614  1.0397  2.2588
  546MOL0     H73696   6.493   8.654   2.573 -0.1567  0.9850  0.6970
  546MOL0     H73697   6.277   8.563   2.589  0.1293 -1.3799 -0.0526
  546MOL0     H73698   6.080   8.444   2.603 -2.7215  4.1264  2.4210
  546MOL0     H73699   6.152   8.474   2.762  0.8788 -0.0479 -0.4602
  546MOL0     H73700   5.920   8.405   2.773  0.9089 -0.0137  0.6893
  546MOL0     H73701   6.016   8.281   2.852 -3.2733 -0.7880  1.0562
  546MOL0     H73702   6.020   8.152   2.623 -1.9421 -1.8746 -3.6280
  546MOL0     H73703   5.893   8.260   2.565 -2.0544 -1.6267  0.4722
  546MOL0     H73704   5.865   8.134   2.818 -0.3271  1.5160  0.1889
  546MOL0     H73705   5.731   8.192   2.731 -0.8860 -1.7753  2.4479
  546MOL0     H73706   5.802   7.811   2.547 -2.5490  0.6623 -2.2867
  546MOL0     H73707   6.443   8.183   2.715  0.5981 -1.0805 -0.7419
  546MOL0     H73708   6.661   8.172   2.796 -2.6887 -1.6347 -2.5729
  546MOL0     H73709   6.779   8.212   2.653 -0.3376 -0.3447 -0.2486
  546MOL0     H73710   6.753   8.319   2.798  0.5499 -0.3327  0.2543
  547MOL0     O73711   0.916   2.110   4.192  0.2220  0.1618  0.2255
  547MOL0     C73712   1.001   2.122   4.277  0.7650  0.4586  0.5462
  547MOL0     O73713   1.095   2.217   4.276 -0.3781  0.1781  0.1263
  547MOL0     C73714   1.066   2.325   4.197 -1.0789 -0.1223  0.4108
  547MOL0     C73715   0.977   2.432   4.242  0.9641  1.2172 -0.0286
  547MOL0     C73716   0.948   2.543   4.158  0.6650 -1.0803 -0.9534
  547MOL0     C73717   1.002   2.545   4.030  1.3437 -0.8871  0.6256
  547MOL0     O73718   0.964   2.653   3.945 -0.6320 -0.2374  0.0038
  547MOL0     C73719   1.067   2.699   3.858 -0.2508 -0.6955 -0.2941
  547MOL0     C73720   1.033   2.833   3.803 -0.7399 -0.7614 -0.0371
  547MOL0     C73721   1.012   2.930   3.910 -0.2563 -0.2513 -0.0833
  547MOL0     C73722   0.996   3.081   3.863 -0.0265  0.6622  0.1324
  547MOL0     C73723   0.937   3.172   3.964  0.1452  0.0569  0.4513
  547MOL0     C73724   0.935   3.322   3.916  0.0117  0.3211 -0.4100
  547MOL0     C73725   0.898   3.419   4.035  1.1477 -0.6158 -0.2411
  547MOL0     C73726   0.894   3.574   3.999 -0.5628  0.0466  0.7303
  547MOL0     N73727   1.025   3.636   4.000  0.9379  0.3243 -0.0385
  547MOL0     C73728   1.104   3.657   4.110 -0.7946 -0.0068 -0.2035
  547MOL0     C73729   1.234   3.662   4.061  0.3462 -0.2118 -0.4580
  547MOL0     C73730   1.362   3.687   4.144  0.3453  0.4330  0.0674
  547MOL0     C73731   1.325   3.714   4.290  0.0815 -0.4730 -0.2060
  547MOL0     C73732   1.432   3.780   4.373  0.5349 -0.2326  0.6503
  547MOL0     C73733   1.391   3.812   4.511  0.2763 -0.9695  0.3116
  547MOL0     O73734   1.435   3.710   4.599 -0.7500 -0.5674  0.3138
  547MOL0     C73735   1.344   3.618   4.659 -0.2189 -0.8117 -0.3601
  547MOL0     C73736   1.212   3.599   4.617 -0.2781  0.3992 -0.4173
  547MOL0     C73737   1.132   3.504   4.685 -0.6505  0.0540 -0.7379
  547MOL0     C73738   1.188   3.426   4.779 -0.6529 -0.7437  0.1901
  547MOL0     C73739   1.101   3.348   4.867 -0.1702  0.2562 -0.2353
  547MOL0     O73740   0.986   3.311   4.825  0.2017 -0.0623  0.7285
  547MOL0     C73741   0.894   3.236   4.903  0.3511  0.6710 -0.1057
  547MOL0     C73742   0.828   3.131   4.844 -0.3451 -0.0119  0.0109
  547MOL0     C73743   0.758   3.042   4.931 -0.2030 -0.0793  1.1621
  547MOL0     C73744   0.730   3.074   5.061  0.7931 -0.7667 -0.4319
  547MOL0     O73745   0.642   2.997   5.128 -0.2799  0.5238  0.2766
  547MOL0     C73746   0.603   3.031   5.265 -0.3434  0.3625 -0.2954
  547MOL0     C73747   0.505   2.943   5.340  0.2184  0.1068 -0.1318
  547MOL0     C73748   0.378   2.913   5.255  0.9960 -0.0079 -0.2773
  547MOL0     C73749   0.275   2.829   5.332 -0.0959 -0.2379  0.3822
  547MOL0     C73750   0.167   2.787   5.231  0.3927 -0.0090  0.1097
  547MOL0     C73751   0.018   2.775   5.281 -1.0605  0.1011  0.6383
  547MOL0     C73752   0.002   2.634   5.343 -0.5844 -0.3078 -0.1324
  547MOL0     C73753  -0.142   2.611   5.404 -0.4574 -0.2777 -1.0515
  547MOL0    Cl73754  -0.150   2.673   5.578  0.0686 -0.0480  0.1506
  547MOL0     C73755   0.787   3.188   5.118  0.0406  0.9720  1.2865
  547MOL0     C73756   0.868   3.270   5.032 -0.0142  0.5016 -0.5762
  547MOL0     O73757   1.154   3.296   4.965  0.0083  0.4883  0.0336
  547MOL0     C73758   1.318   3.442   4.815  0.3414  0.6137  0.6582
  547MOL0     C73759   1.399   3.535   4.754  0.4837  0.2432  0.6746
  547MOL0     N73760   1.227   3.665   3.919  0.0637  0.4442 -1.2601
  547MOL0     N73761   1.100   3.656   3.889  0.1144 -0.0274 -0.0865
  547MOL0     C73762   1.085   2.436   3.992  0.1452  0.1506  0.2838
  547MOL0     C73763   1.117   2.328   4.072 -0.2738 -0.4956  0.0505
  547MOL0     C73764   1.007   2.021   4.381  1.3719 -0.6406 -0.9306
  547MOL0     C73765   1.093   2.054   4.498  0.8234 -0.3682 -0.1650
  547MOL0     C73766   1.092   1.970   4.611 -0.5174  0.5660  1.1084
  547MOL0     C73767   1.021   1.860   4.614  0.1709  0.3351  0.3865
  547MOL0     O73768   1.034   1.779   4.729 -0.1111  0.3632 -0.0978
  547MOL0     C73769   0.982   1.645   4.733 -0.1475  0.1662  0.1091
  547MOL0     C73770   0.841   1.620   4.767 -0.2978 -0.1773 -0.0710
  547MOL0     C73771   0.807   1.480   4.823 -0.4551  0.3962 -0.0574
  547MOL0     C73772   0.811   1.473   4.981 -0.0324 -0.0004  0.8933
  547MOL0     C73773   0.777   1.341   5.030 -0.0074  0.5027 -0.3043
  547MOL0     C73774   0.745   1.235   5.082  1.3567 -0.4266 -0.7860
  547MOL0     C73775   0.938   1.828   4.507  0.1732  0.4808 -1.0471
  547MOL0     C73776   0.925   1.899   4.396  0.1250 -0.1490 -0.6269
  547MOL0     C73777   0.836   1.851   4.282  0.3032 -1.0795 -0.2049
  547MOL0     H73778   0.935   2.432   4.343  1.5206 -2.2435  0.3268
  547MOL0     H73779   0.884   2.623   4.197  1.9504 -0.9698  1.0949
  547MOL0     H73780   1.161   2.695   3.913  0.4093 -1.7378 -1.4622
  547MOL0     H73781   1.085   2.641   3.768 -2.3899  2.9722 -3.4366
  547MOL0     H73782   0.949   2.839   3.733  1.0306 -1.3559 -2.3595
  547MOL0     H73783   1.121   2.868   3.748 -0.5609  1.9777  1.8202
  547MOL0     H73784   1.103   2.935   3.971 -1.0684  5.5980  1.1841
  547MOL0     H73785   0.929   2.905   3.978  1.5991 -2.7930  1.4246
  547MOL0     H73786   1.097   3.114   3.836 -0.2240  1.8451  0.7597
  547MOL0     H73787   0.939   3.076   3.769  2.2623 -0.6039 -1.2777
  547MOL0     H73788   0.835   3.149   3.992  0.0004  0.3152  0.1495
  547MOL0     H73789   0.994   3.154   4.055  1.9680 -0.7598 -0.7747
  547MOL0     H73790   1.030   3.359   3.876 -0.9842 -0.1776 -3.5547
  547MOL0     H73791   0.867   3.337   3.831  1.8106  0.3721 -1.9064
  547MOL0     H73792   0.971   3.422   4.116 -1.2521  0.6885  2.0230
  547MOL0     H73793   0.808   3.372   4.075  1.4495 -2.9477 -2.0308
  547MOL0     H73794   0.855   3.579   3.897  2.8417 -0.7027 -0.7579
  547MOL0     H73795   0.820   3.622   4.063 -0.5016 -1.5972  2.1133
  547MOL0     H73796   1.079   3.663   4.215  1.2927  0.6088  0.2892
  547MOL0     H73797   1.430   3.602   4.137  0.9418  0.9056 -0.0037
  547MOL0     H73798   1.425   3.769   4.107 -1.6332  2.9250  1.9040
  547MOL0     H73799   1.240   3.783   4.289  1.4161  1.3031 -3.3228
  547MOL0     H73800   1.296   3.627   4.351 -2.8807  1.3218  1.1828
  547MOL0     H73801   1.459   3.876   4.326 -0.0664 -0.3947 -0.0452
  547MOL0     H73802   1.516   3.711   4.386  0.4706 -0.3136  0.6296
  547MOL0     H73803   1.284   3.824   4.528  0.5005 -1.9545  2.7193
  547MOL0     H73804   1.430   3.914   4.522 -2.0432  0.0104  0.1474
  547MOL0     H73805   1.170   3.672   4.549  1.8101  0.8791 -1.2651
  547MOL0     H73806   1.025   3.509   4.666 -0.5535  3.6628 -0.8682
  547MOL0     H73807   0.839   3.111   4.738 -0.0023  0.1334  0.0190
  547MOL0     H73808   0.722   2.953   4.881 -1.9848  0.7100  0.9883
  547MOL0     H73809   0.696   3.041   5.322  1.6044 -1.5179 -2.8788
  547MOL0     H73810   0.554   3.128   5.251 -0.2481  0.3066 -1.1158
  547MOL0     H73811   0.553   2.847   5.363  0.4520 -1.1283 -4.7675
  547MOL0     H73812   0.455   2.991   5.424 -2.9877  0.9310 -2.3366
  547MOL0     H73813   0.342   3.012   5.224  1.2622 -0.0976 -0.8880
  547MOL0     H73814   0.400   2.862   5.160 -0.8333 -2.2690  0.4237
  547MOL0     H73815   0.226   2.901   5.398  1.0632 -0.9814  2.1380
  547MOL0     H73816   0.324   2.758   5.399 -2.8765  2.2706  5.7400
  547MOL0     H73817   0.206   2.697   5.182 -2.1767  0.6010 -3.4836
  547MOL0     H73818   0.168   2.855   5.145 -3.1874 -3.7269 -3.3169
  547MOL0     H73819  -0.007   2.864   5.339 -3.4164  3.1935 -4.4173
  547MOL0     H73820  -0.040   2.788   5.189  0.6262  2.3387 -0.2042
  547MOL0     H73821   0.081   2.623   5.418 -0.4902  2.3433  0.2658
  547MOL0     H73822   0.020   2.556   5.268  1.1319 -1.2582  1.1810
  547MOL0     H73823  -0.214   2.670   5.346 -0.3886  0.7798 -0.0938
  547MOL0     H73824  -0.158   2.503   5.407  0.0134 -0.3337 -0.4598
  547MOL0     H73825   0.778   3.209   5.224  4.3344 -1.8618  2.4819
  547MOL0     H73826   0.925   3.354   5.069  0.0037  0.4433 -0.4728
  547MOL0     H73827   1.359   3.389   4.901  2.1971  3.4824  1.6714
  547MOL0     H73828   1.498   3.546   4.796  0.0403 -0.9121  2.1204
  547MOL0     H73829   1.142   2.441   3.900  2.5727  0.6043  1.7333
  547MOL0     H73830   1.185   2.249   4.042  0.5996  0.1562  0.2942
  547MOL0     H73831   1.162   2.138   4.503  1.4261 -0.9146  1.2421
  547MOL0     H73832   1.144   2.005   4.700  0.5877  2.3618 -0.1734
  547MOL0     H73833   1.038   1.588   4.808 -0.0350  1.3854  0.9856
  547MOL0     H73834   1.011   1.616   4.632  1.4595  3.5442 -0.5414
  547MOL0     H73835   0.770   1.655   4.692 -1.5419 -1.8110  0.2865
  547MOL0     H73836   0.819   1.686   4.851 -0.7868 -2.1257  1.4091
  547MOL0     H73837   0.868   1.397   4.783 -2.8414 -0.9227 -1.1817
  547MOL0     H73838   0.708   1.446   4.791  0.8247 -2.7385 -1.1023
  547MOL0     H73839   0.909   1.511   5.012  0.5507 -2.9520  3.0905
  547MOL0     H73840   0.732   1.545   5.005 -0.2984  0.6672 -1.7109
  547MOL0     H73841   0.730   1.132   5.107 -1.9389  0.1143 -0.0576
  547MOL0     H73842   0.888   1.731   4.504 -1.1241  1.0314  1.0411
  547MOL0     H73843   0.778   1.770   4.328  1.1090  0.1581  3.3443
  547MOL0     H73844   0.764   1.926   4.248 -1.3194 -1.5435  1.9840
  547MOL0     H73845   0.900   1.825   4.197  0.9911  0.2377 -0.1063
  548MOL0     O73846   0.567  11.296   1.759  0.0265 -0.3330  0.8881
  548MOL0     C73847   0.608  11.348   1.865 -0.7198  0.7110 -0.1022
  548MOL0     O73848   0.539  11.358   1.972 -0.3233  0.0801 -0.5033
  548MOL0     C73849   0.398  11.361   1.976  0.5492  0.0449  0.5325
  548MOL0     C73850   0.312  11.424   1.880 -0.7778  1.0617 -0.1777
  548MOL0     C73851   0.173  11.415   1.899  1.0957 -0.6529  0.5542
  548MOL0     C73852   0.121  11.343   2.016  0.7235  0.9932 -0.4911
  548MOL0     O73853  -0.008  11.347   2.057 -0.5828  0.4431  0.4255
  548MOL0     C73854  -0.053  11.482   2.098 -0.8424  0.0941 -0.2838
  548MOL0     C73855  -0.202  11.471   2.146  0.0086 -0.2146 -0.6682
  548MOL0     C73856  -0.287  11.427   2.028  0.7044  0.0855 -0.1652
  548MOL0     C73857  -0.441  11.425   2.069 -1.0510  1.1186  0.8165
  548MOL0     C73858  -0.524  11.362   1.959 -0.4756  1.1726 -1.4311
  548MOL0     C73859  -0.675  11.335   2.006 -1.8841 -0.3278  0.4606
  548MOL0     C73860  -0.760  11.453   2.047 -0.4206 -0.1891 -0.9505
  548MOL0     C73861  -0.814  11.529   1.930 -0.4141  0.0122 -0.1392
  548MOL0     N73862  -0.895  11.442   1.845  1.3332  0.6738  0.6442
  548MOL0     C73863  -1.003  11.364   1.890  0.6037  0.3304 -0.7210
  548MOL0     C73864  -1.053  11.301   1.786  0.0301  0.6360  0.8029
  548MOL0     C73865  -1.182  11.226   1.778 -1.2797  0.2553 -0.0559
  548MOL0     C73866  -1.148  11.084   1.735  0.2953 -0.1650 -0.5306
  548MOL0     C73867  -1.094  10.992   1.854  0.6726 -0.4636 -0.0842
  548MOL0     C73868  -1.183  10.979   1.977 -0.0233 -0.8727  0.4117
  548MOL0     O73869  -1.185  11.084   2.058  0.9022 -0.0973 -0.4334
  548MOL0     C73870  -1.269  11.075   2.171 -0.3456  0.0343  0.0662
  548MOL0     C73871  -1.328  10.958   2.212 -0.1366  0.2974 -0.2004
  548MOL0     C73872  -1.410  10.954   2.326 -0.6338 -0.2612  0.6090
  548MOL0     C73873  -1.427  11.072   2.402 -0.0268 -0.6341  0.1325
  548MOL0     C73874  -1.530  11.087   2.513  0.9585  0.1382 -0.0435
  548MOL0     O73875  -1.538  11.206   2.582  0.5272 -0.5003  0.1039
  548MOL0     C73876  -1.622  11.206   2.680 -0.9943  0.9825  0.9052
  548MOL0     C73877  -1.713  11.308   2.691  0.8971 -0.6733  0.4043
  548MOL0     C73878  -1.807  11.310   2.799 -0.4062 -0.9337 -0.0918
  548MOL0     C73879  -1.809  11.214   2.896  0.6253  0.1567 -0.0357
  548MOL0     O73880  -1.900  11.213   2.996 -0.6069 -0.5690 -0.0048
  548MOL0     C73881  -2.035  11.265   2.966  0.7640  0.7516  0.7744
  548MOL0     C73882  -2.140  11.173   3.035 -0.0569 -0.2781  0.5850
  548MOL0     C73883  -2.118  11.159   3.185 -0.1206 -0.2704  0.3510
  548MOL0     C73884  -2.233  11.092   3.252 -0.8170 -0.8314 -0.3219
  548MOL0     C73885  -2.199  11.036   3.392  0.0218  0.0825  0.0306
  548MOL0     C73886  -2.330  10.993   3.463 -0.2391 -0.7890 -0.3608
  548MOL0     C73887  -2.362  10.851   3.411  0.6544  0.2439 -0.2241
  548MOL0     C73888  -2.514  10.821   3.425 -0.2659  0.6249  0.3586
  548MOL0    Cl73889  -2.529  10.649   3.400  0.0810  0.5187 -0.2368
  548MOL0     C73890  -1.706  11.117   2.893 -0.4996  0.1773 -0.1213
  548MOL0     C73891  -1.615  11.109   2.782 -0.1160  0.2322 -0.0224
  548MOL0     O73892  -1.598  10.984   2.532 -0.2436 -0.5988 -0.1816
  548MOL0     C73893  -1.351  11.191   2.353  0.1602  0.7027 -0.3792
  548MOL0     C73894  -1.282  11.190   2.238 -0.0281  0.5720  0.3045
  548MOL0     N73895  -0.972  11.328   1.676 -0.5586 -0.3683  0.3396
  548MOL0     N73896  -0.877  11.406   1.714  0.3936  0.2388  0.0040
  548MOL0     C73897   0.214  11.276   2.093  0.2395 -0.2143  0.4481
  548MOL0     C73898   0.349  11.279   2.071 -0.8163 -0.8283 -0.2482
  548MOL0     C73899   0.756  11.390   1.871 -0.2149  0.3764 -0.0908
  548MOL0     C73900   0.820  11.370   1.997 -0.5127 -0.1970 -0.2696
  548MOL0     C73901   0.951  11.400   2.026  0.0664 -0.0210  0.1731
  548MOL0     C73902   1.032  11.442   1.918  0.5375  0.5311 -0.1892
  548MOL0     O73903   1.166  11.469   1.929  0.3745  0.3991  0.1322
  548MOL0     C73904   1.235  11.446   2.052  0.1816 -0.0743 -0.4389
  548MOL0     C73905   1.378  11.486   2.026  0.7487 -0.3283  0.3767
  548MOL0     C73906   1.469  11.486   2.152  0.4628  0.0878 -0.2123
  548MOL0     C73907   1.607  11.539   2.124 -0.5044  0.6584  0.1043
  548MOL0     C73908   1.696  11.485   2.226 -0.7978  0.2233 -0.4839
  548MOL0     C73909   1.771  11.453   2.320  0.1533 -0.2222  0.0245
  548MOL0     C73910   0.972  11.458   1.794 -0.0196 -0.1538 -0.4646
  548MOL0     C73911   0.839  11.423   1.764  0.2083 -0.9556  0.2989
  548MOL0     C73912   0.793  11.436   1.619 -0.3819  0.0363 -1.0273
  548MOL0     H73913   0.349  11.494   1.805 -0.8332 -2.0763 -3.4135
  548MOL0     H73914   0.096  11.462   1.840  0.0422  1.0589  3.1144
  548MOL0     H73915   0.010  11.532   2.171 -0.2261 -2.9266  1.4049
  548MOL0     H73916  -0.054  11.537   2.003 -2.3468 -0.1723 -0.4582
  548MOL0     H73917  -0.240  11.566   2.186 -0.6157 -1.7527  2.7025
  548MOL0     H73918  -0.204  11.399   2.228  0.7872 -1.4972 -1.7328
  548MOL0     H73919  -0.262  11.324   2.001 -3.2689 -1.8886  2.5945
  548MOL0     H73920  -0.281  11.489   1.937 -0.3935 -1.9390 -1.7083
  548MOL0     H73921  -0.462  11.394   2.172 -1.3786  2.6543  1.2296
  548MOL0     H73922  -0.476  11.528   2.060 -1.6111  0.8021 -0.8418
  548MOL0     H73923  -0.531  11.416   1.864 -4.1584  1.0597 -1.3628
  548MOL0     H73924  -0.487  11.261   1.943 -0.5514  1.2441 -2.0779
  548MOL0     H73925  -0.712  11.286   1.916  0.4507 -2.2920  0.4692
  548MOL0     H73926  -0.682  11.269   2.093 -0.8716  1.2918  1.8508
  548MOL0     H73927  -0.697  11.521   2.105 -2.1294  1.8188 -1.2901
  548MOL0     H73928  -0.837  11.416   2.116  1.7211 -1.1500  1.0572
  548MOL0     H73929  -0.872  11.612   1.972  1.5572  1.6811 -0.5266
  548MOL0     H73930  -0.735  11.573   1.869  0.6360  0.2584  1.3301
  548MOL0     H73931  -1.047  11.380   1.989 -0.0997  0.1083 -0.9929
  548MOL0     H73932  -1.234  11.232   1.874  0.8509  0.9169  1.1245
  548MOL0     H73933  -1.248  11.269   1.702 -0.4908  0.3700 -0.6956
  548MOL0     H73934  -1.238  11.039   1.693 -0.4236 -0.8830  1.6132
  548MOL0     H73935  -1.068  11.091   1.661 -0.9526 -1.6773 -2.1292
  548MOL0     H73936  -0.994  11.033   1.870 -0.4860  1.3798  3.9224
  548MOL0     H73937  -1.089  10.889   1.818 -2.4039 -0.9229  0.4960
  548MOL0     H73938  -1.139  10.904   2.044  0.5213 -1.1068 -0.1875
  548MOL0     H73939  -1.283  10.943   1.952  0.9385 -3.1450 -0.5155
  548MOL0     H73940  -1.308  10.862   2.166  0.7083  0.7739 -0.8416
  548MOL0     H73941  -1.456  10.858   2.348 -2.8798  0.8941  1.2800
  548MOL0     H73942  -1.717  11.387   2.617  0.2036 -0.9396  0.1485
  548MOL0     H73943  -1.886  11.384   2.804  1.3163  1.1002 -1.4691
  548MOL0     H73944  -2.054  11.365   3.007 -1.6518 -0.3981  2.7203
  548MOL0     H73945  -2.065  11.265   2.861 -1.9568 -2.2937  1.3938
  548MOL0     H73946  -2.238  11.216   3.014  0.7234 -0.1004 -3.3639
  548MOL0     H73947  -2.134  11.077   2.983 -2.1245 -0.4339  0.5572
  548MOL0     H73948  -2.021  11.111   3.203 -0.3850 -0.2428  2.0232
  548MOL0     H73949  -2.093  11.259   3.222  0.3242  0.3748 -1.5926
  548MOL0     H73950  -2.283  11.013   3.194 -5.0954 -0.2569  2.1626
  548MOL0     H73951  -2.312  11.166   3.269 -3.0941 -3.6219  2.5170
  548MOL0     H73952  -2.150  11.104   3.462 -3.3178  1.6879  1.0164
  548MOL0     H73953  -2.123  10.959   3.376  0.5488  0.7101 -0.5280
  548MOL0     H73954  -2.298  10.993   3.567 -0.4796  3.8085 -0.1121
  548MOL0     H73955  -2.415  11.060   3.449  0.6357 -0.0323 -2.4505
  548MOL0     H73956  -2.306  10.774   3.464 -0.3204 -0.6441 -0.4498
  548MOL0     H73957  -2.336  10.843   3.305 -1.1809 -2.7088 -0.5593
  548MOL0     H73958  -2.554  10.852   3.522  0.9078  0.8665  0.7705
  548MOL0     H73959  -2.576  10.877   3.355  1.4228 -0.9884 -2.6244
  548MOL0     H73960  -1.708  11.044   2.974 -0.1922  1.4342  1.0490
  548MOL0     H73961  -1.530  11.043   2.767  1.7200  2.6374 -0.7110
  548MOL0     H73962  -1.355  11.286   2.405  1.4087  0.6248 -0.0864
  548MOL0     H73963  -1.228  11.277   2.200 -2.1388  0.6721 -2.7976
  548MOL0     H73964   0.168  11.220   2.174 -3.5095  1.0187 -0.6434
  548MOL0     H73965   0.417  11.235   2.144 -1.2658 -0.0975  0.6340
  548MOL0     H73966   0.763  11.327   2.078 -1.1407  2.3848  0.7486
  548MOL0     H73967   0.987  11.369   2.124  0.8978 -3.3182 -1.0513
  548MOL0     H73968   1.228  11.339   2.076 -1.9476  0.8949  4.5229
  548MOL0     H73969   1.191  11.500   2.136  0.4100 -0.8696  0.2014
  548MOL0     H73970   1.375  11.594   2.009 -0.4799 -0.2443  0.9824
  548MOL0     H73971   1.409  11.421   1.944 -1.3342  0.5577 -1.2163
  548MOL0     H73972   1.472  11.384   2.190 -2.6554  1.1013  3.2886
  548MOL0     H73973   1.434  11.554   2.230  2.1490 -0.3390  0.9661
  548MOL0     H73974   1.639  11.513   2.023  0.4898  2.0745  0.0356
  548MOL0     H73975   1.611  11.648   2.134  0.7363  0.6109  0.2111
  548MOL0     H73976   1.828  11.450   2.411  0.3917 -0.4827 -0.1323
  548MOL0     H73977   1.025  11.497   1.707  0.4148  2.1759  0.7597
  548MOL0     H73978   0.884  11.433   1.559 -1.6354  1.2145 -3.1154
  548MOL0     H73979   0.744  11.346   1.581 -1.3264  0.7905 -1.6496
  548MOL0     H73980   0.735  11.528   1.605 -1.1433 -0.5461 -1.8403
  549MOL0     O73981   9.614   3.913   6.986  0.8799  0.2204  0.5350
  549MOL0     C73982   9.519   3.984   7.023  0.4302 -0.3500  0.1426
  549MOL0     O73983   9.522   4.113   7.084 -0.6962 -0.1512  0.2966
  549MOL0     C73984   9.648   4.153   7.118  0.2011 -1.4083 -0.0890
  549MOL0     C73985   9.692   4.277   7.074  0.8750 -0.3644 -0.3863
  549MOL0     C73986   9.821   4.318   7.115 -0.3387  0.2331  0.8760
  549MOL0     C73987   9.905   4.237   7.198 -0.9697 -0.0704  1.0879
  549MOL0     O73988  10.028   4.280   7.242 -0.0447 -0.4693  0.4044
  549MOL0     C73989  10.083   4.405   7.192 -0.1283 -0.1564 -0.7505
  549MOL0     C73990  10.223   4.437   7.264 -0.2028 -0.1849 -0.7816
  549MOL0     C73991  10.325   4.323   7.247 -0.3114  0.0010 -0.4636
  549MOL0     C73992  10.450   4.327   7.338  0.1763 -0.1227 -0.3670
  549MOL0     C73993  10.559   4.222   7.310  0.2136  0.7410  0.1680
  549MOL0     C73994  10.661   4.218   7.423 -0.5698  0.3680  0.5655
  549MOL0     C73995  10.783   4.139   7.391  0.1609  0.9473 -0.3344
  549MOL0     C73996  10.762   3.990   7.361 -0.5796  0.0083  0.0833
  549MOL0     N73997  10.889   3.924   7.315  0.9502  0.1211 -0.1544
  549MOL0     C73998  10.895   3.830   7.216  0.2025  0.4825  0.0554
  549MOL0     C73999  11.016   3.780   7.227 -0.4382 -0.6194  0.2070
  549MOL0     C74000  11.070   3.685   7.120  0.2145 -0.7212  0.2537
  549MOL0     C74001  11.091   3.538   7.169 -0.6215 -0.1898 -0.0231
  549MOL0     C74002  10.979   3.469   7.249  0.1925  0.6094  0.2338
  549MOL0     C74003  11.006   3.316   7.283 -0.5043  0.1242  0.7397
  549MOL0     O74004  11.038   3.252   7.156  0.8136  0.2893 -0.3151
  549MOL0     C74005  10.924   3.204   7.099 -0.6248 -0.5894 -0.3887
  549MOL0     C74006  10.869   3.280   7.000  0.5623 -0.0913 -0.7485
  549MOL0     C74007  10.755   3.242   6.933 -0.4029 -0.0593  0.5749
  549MOL0     C74008  10.696   3.114   6.959  0.6289  0.0594  0.4921
  549MOL0     C74009  10.583   3.062   6.872  0.5359 -0.6947 -0.1417
  549MOL0     O74010  10.559   3.122   6.758  0.2706 -0.0920  0.2399
  549MOL0     C74011  10.478   3.071   6.668  0.0963  0.6087 -0.1505
  549MOL0     C74012  10.534   3.003   6.554 -0.4317 -0.9566 -0.5072
  549MOL0     C74013  10.453   2.941   6.465 -0.7318 -0.7576 -0.4927
  549MOL0     C74014  10.312   2.941   6.490 -0.5059 -0.0227 -0.9477
  549MOL0     O74015  10.214   2.868   6.432 -0.7161  0.5473  0.2774
  549MOL0     C74016  10.256   2.761   6.330 -0.2252  0.0769 -0.5013
  549MOL0     C74017  10.139   2.668   6.312 -0.7035 -0.0867 -0.8654
  549MOL0     C74018  10.063   2.703   6.184  0.9608 -1.1045  0.1539
  549MOL0     C74019   9.945   2.615   6.172  0.7285 -0.4480  0.4474
  549MOL0     C74020   9.891   2.619   6.032  0.0172 -0.6207 -0.9758
  549MOL0     C74021   9.773   2.520   6.033  0.7774 -0.0508  0.9699
  549MOL0     C74022   9.705   2.520   5.889  0.7563 -0.1102  0.5786
  549MOL0     C74023   9.785   2.504   5.762 -0.5058  0.0016 -0.1805
  549MOL0    Cl74024   9.885   2.350   5.758 -0.2108  0.2358  0.4896
  549MOL0     C74025  10.255   3.012   6.597  0.1460 -0.0335  0.5282
  549MOL0     C74026  10.337   3.077   6.691 -1.7643  0.1688 -0.3556
  549MOL0     O74027  10.529   2.955   6.912 -0.3740 -0.2018 -0.3351
  549MOL0     C74028  10.746   3.038   7.061 -0.2016 -0.4887 -0.2879
  549MOL0     C74029  10.861   3.086   7.133  0.8086  0.1613  0.3012
  549MOL0     N74030  11.084   3.834   7.335 -0.5221  0.3306 -1.1459
  549MOL0     N74031  11.003   3.917   7.390  0.7978 -0.3208 -0.1723
  549MOL0     C74032   9.850   4.126   7.249  0.5241  0.3314 -0.4213
  549MOL0     C74033   9.722   4.082   7.213  0.4522  0.2492  0.3988
  549MOL0     C74034   9.384   3.926   7.002  0.6571  0.0518  0.0747
  549MOL0     C74035   9.368   3.844   6.886  0.2729 -0.1377  0.2302
  549MOL0     C74036   9.245   3.792   6.850 -0.8377 -0.2299  0.1696
  549MOL0     C74037   9.140   3.811   6.936  1.2925 -0.7958 -1.2641
  549MOL0     O74038   9.016   3.777   6.882 -0.6496  0.0352 -0.1926
  549MOL0     C74039   8.887   3.808   6.942 -0.5322  0.2789  0.1561
  549MOL0     C74040   8.785   3.695   6.922  0.9218  0.6168 -0.2003
  549MOL0     C74041   8.756   3.651   6.771 -0.8150 -0.2156  0.0317
  549MOL0     C74042   8.719   3.768   6.679 -0.9064  0.4117  0.2663
  549MOL0     C74043   8.830   3.855   6.639 -0.1930  0.2871  0.3066
  549MOL0     C74044   8.911   3.922   6.590  0.1661 -1.0668 -0.2074
  549MOL0     C74045   9.154   3.894   7.052  0.5221  0.9943  0.2083
  549MOL0     C74046   9.277   3.959   7.085  0.3120 -0.3841  0.2321
  549MOL0     C74047   9.289   4.039   7.215 -0.9945  0.0841 -0.5536
  549MOL0     H74048   9.626   4.331   7.008  1.1289  0.4327  0.0077
  549MOL0     H74049   9.849   4.413   7.070 -0.5109  0.3899  1.0949
  549MOL0     H74050  10.107   4.389   7.087 -0.4867  2.9309 -1.4054
  549MOL0     H74051  10.017   4.491   7.206  0.1578 -0.0597  0.0743
  549MOL0     H74052  10.197   4.448   7.369 -1.1692  2.0314 -1.1981
  549MOL0     H74053  10.264   4.536   7.244 -1.9898  1.0363  1.2860
  549MOL0     H74054  10.352   4.300   7.143 -1.3276 -5.0183  0.1178
  549MOL0     H74055  10.280   4.230   7.283 -1.8448  0.9277  0.1031
  549MOL0     H74056  10.493   4.427   7.333 -0.1954  0.2366  2.1493
  549MOL0     H74057  10.421   4.328   7.444  0.2625 -0.3087 -0.3415
  549MOL0     H74058  10.514   4.122   7.307  2.5837 -0.6700  3.8468
  549MOL0     H74059  10.600   4.254   7.214 -1.3464 -1.0332 -1.1535
  549MOL0     H74060  10.692   4.321   7.444  4.0098 -0.6085 -0.3483
  549MOL0     H74061  10.613   4.187   7.516 -0.1371 -0.9009  0.3832
  549MOL0     H74062  10.851   4.139   7.477 -0.0907 -3.1133  0.0494
  549MOL0     H74063  10.853   4.182   7.318  1.3650  0.5246  0.5295
  549MOL0     H74064  10.707   3.933   7.437 -0.6042 -0.8188 -0.5415
  549MOL0     H74065  10.692   3.989   7.277 -2.3036 -0.1234  1.4604
  549MOL0     H74066  10.818   3.804   7.144  0.7402 -0.2690 -0.2683
  549MOL0     H74067  11.014   3.688   7.026  1.6187  1.3100 -0.5997
  549MOL0     H74068  11.165   3.726   7.084 -1.1759  0.6317 -2.1619
  549MOL0     H74069  11.103   3.476   7.079  1.8196  0.4672 -0.2060
  549MOL0     H74070  11.183   3.538   7.228  0.0793 -0.0336 -1.0881
  549MOL0     H74071  10.881   3.472   7.200  0.0955  3.9240  0.4086
  549MOL0     H74072  10.968   3.517   7.346 -0.7396 -0.3186  0.6029
  549MOL0     H74073  10.919   3.274   7.334 -1.0048 -0.3812 -0.4907
  549MOL0     H74074  11.091   3.300   7.350 -1.0770  0.7055  1.6176
  549MOL0     H74075  10.912   3.369   6.957  1.1949 -0.3908 -0.7594
  549MOL0     H74076  10.729   3.305   6.847  1.5867 -0.5988 -0.4832
  549MOL0     H74077  10.641   3.000   6.534 -0.7609 -2.8566 -2.2490
  549MOL0     H74078  10.491   2.886   6.379 -0.9582 -1.4641 -0.1440
  549MOL0     H74079  10.281   2.799   6.231 -0.2167 -1.1924 -0.9991
  549MOL0     H74080  10.339   2.707   6.376 -0.0372  1.5894  1.0239
  549MOL0     H74081  10.175   2.565   6.312  0.6533  0.3562  0.7939
  549MOL0     H74082  10.072   2.665   6.398  1.7023  1.9319  1.1956
  549MOL0     H74083  10.034   2.808   6.190  1.6787 -0.9483  1.2523
  549MOL0     H74084  10.124   2.702   6.093 -1.1212  2.4165 -1.4765
  549MOL0     H74085   9.870   2.656   6.241 -0.0997  1.0519 -1.2516
  549MOL0     H74086   9.967   2.509   6.186  2.3090 -0.6887 -2.8202
  549MOL0     H74087   9.970   2.585   5.965  0.3863 -2.5935  0.3903
  549MOL0     H74088   9.849   2.715   5.999  0.5492 -0.1101 -0.2187
  549MOL0     H74089   9.799   2.421   6.071  1.2361  0.1336  1.1398
  549MOL0     H74090   9.688   2.554   6.094 -0.9854 -2.8895  0.2940
  549MOL0     H74091   9.658   2.618   5.876 -0.8847 -1.0087 -0.5973
  549MOL0     H74092   9.628   2.443   5.899  0.0729  0.5199  0.2162
  549MOL0     H74093   9.722   2.492   5.673  2.2284 -1.8752 -2.0252
  549MOL0     H74094   9.852   2.588   5.746 -0.5466  0.0529 -0.0830
  549MOL0     H74095  10.146   3.022   6.595 -0.3267 -3.5264 -2.0375
  549MOL0     H74096  10.300   3.121   6.783  1.5924  1.4449  0.5426
  549MOL0     H74097  10.696   2.948   7.094 -0.1107 -0.0890  1.0055
  549MOL0     H74098  10.903   3.035   7.220 -3.8658  0.5528  3.1291
  549MOL0     H74099   9.925   4.081   7.313  2.7474  1.5635 -2.0070
  549MOL0     H74100   9.687   3.989   7.257 -2.0364  1.5018  1.2383
  549MOL0     H74101   9.453   3.829   6.820 -0.9794 -1.7285 -1.1093
  549MOL0     H74102   9.237   3.734   6.759 -2.5412  1.9559 -1.1899
  549MOL0     H74103   8.861   3.905   6.898 -1.5043 -0.9237 -2.0659
  549MOL0     H74104   8.910   3.828   7.047  2.6530 -0.8931 -0.2103
  549MOL0     H74105   8.693   3.712   6.979  0.1189  0.3281 -1.3606
  549MOL0     H74106   8.833   3.611   6.973 -0.1991 -1.4315 -2.3404
  549MOL0     H74107   8.681   3.574   6.751  1.3352 -1.8699 -2.2659
  549MOL0     H74108   8.842   3.596   6.732 -1.7094 -1.8191  0.2152
  549MOL0     H74109   8.676   3.729   6.587 -0.5983 -0.8966  0.6460
  549MOL0     H74110   8.646   3.825   6.739 -1.5501  2.2198 -2.1069
  549MOL0     H74111   8.991   3.975   6.542  0.7544 -2.9733 -1.4209
  549MOL0     H74112   9.069   3.922   7.113  1.1689 -1.6731  2.5417
  549MOL0     H74113   9.302   4.146   7.198  1.2966  0.0900  0.7775
  549MOL0     H74114   9.198   4.024   7.273 -1.1498 -1.3482 -1.1431
  549MOL0     H74115   9.372   4.005   7.278 -1.0873 -1.1614 -1.0808
  550MOL0     O74116   1.961   0.168   3.605 -0.0566 -0.2265 -0.1240
  550MOL0     C74117   1.925   0.052   3.632  0.3832 -0.8740 -0.1799
  550MOL0     O74118   2.007  -0.054   3.614  0.6020 -0.5809  1.0306
  550MOL0     C74119   2.107  -0.038   3.522 -0.7859  0.2243  0.2076
  550MOL0     C74120   2.072  -0.007   3.391  0.2686  1.0571  0.5752
  550MOL0     C74121   2.173   0.006   3.287  0.9777  0.8541 -0.4081
  550MOL0     C74122   2.306   0.021   3.326 -0.6512  0.1264 -0.5790
  550MOL0     O74123   2.398   0.037   3.227 -0.3844 -0.7108  0.2905
  550MOL0     C74124   2.529   0.099   3.251  0.5587 -0.6473 -0.0845
  550MOL0     C74125   2.602   0.125   3.121  0.8621 -0.3803 -0.7932
  550MOL0     C74126   2.535   0.249   3.052 -0.1377 -0.0767 -0.7704
  550MOL0     C74127   2.571   0.256   2.903 -0.4736  0.5746  0.1549
  550MOL0     C74128   2.471   0.357   2.824  0.5199  0.3671 -0.0940
  550MOL0     C74129   2.473   0.503   2.876  0.6323  0.4521  0.1665
  550MOL0     C74130   2.393   0.611   2.790  0.3112 -0.1582 -0.2670
  550MOL0     C74131   2.386   0.746   2.859 -0.8048 -0.6817 -0.1277
  550MOL0     N74132   2.255   0.796   2.851  0.6934 -0.7001  0.1004
  550MOL0     C74133   2.156   0.785   2.945  0.1974  0.7178  0.5742
  550MOL0     C74134   2.055   0.863   2.893  0.8251 -0.8044  0.5803
  550MOL0     C74135   1.933   0.910   2.967 -0.2252  0.1990  0.2430
  550MOL0     C74136   1.963   1.039   3.037 -0.8155 -0.3814  0.0711
  550MOL0     C74137   1.853   1.102   3.123 -0.0760 -0.6518 -0.5180
  550MOL0     C74138   1.864   1.244   3.175 -0.2182 -0.6854  0.0360
  550MOL0     O74139   1.798   1.275   3.298  0.3072 -0.0945  0.5446
  550MOL0     C74140   1.666   1.295   3.289 -0.0749 -0.5725 -0.9726
  550MOL0     C74141   1.586   1.275   3.175 -0.3145  0.0643  0.7223
  550MOL0     C74142   1.450   1.286   3.186 -0.7737 -0.5900  0.2440
  550MOL0     C74143   1.391   1.315   3.310  0.6278  0.6610  0.6249
  550MOL0     C74144   1.239   1.313   3.321 -0.3180  0.6165  0.0536
  550MOL0     O74145   1.192   1.353   3.442 -0.3603 -0.0784  0.2201
  550MOL0     C74146   1.056   1.358   3.463 -0.1970  0.2571  0.3577
  550MOL0     C74147   0.976   1.466   3.427  0.2893 -1.0023 -0.0751
  550MOL0     C74148   0.835   1.459   3.458 -0.1698 -0.2294  0.1228
  550MOL0     C74149   0.779   1.344   3.516  0.5428  0.2713 -0.5902
  550MOL0     O74150   0.642   1.320   3.546 -0.6778 -0.4471  1.0454
  550MOL0     C74151   0.555   1.430   3.546 -0.1741  0.0446  0.4989
  550MOL0     C74152   0.417   1.388   3.616 -0.2994 -0.2677 -0.3457
  550MOL0     C74153   0.363   1.253   3.568  0.6042 -0.7540 -0.5757
  550MOL0     C74154   0.213   1.241   3.604 -0.3756  1.0960 -0.2489
  550MOL0     C74155   0.182   1.200   3.744 -0.9661  0.0275 -0.4499
  550MOL0     C74156   0.033   1.176   3.760  0.4580  0.2281 -0.2288
  550MOL0     C74157   0.000   1.145   3.905 -0.1941 -0.1694  0.4367
  550MOL0     C74158  -0.147   1.113   3.918  0.1627  0.7568  0.1689
  550MOL0    Cl74159  -0.264   1.250   3.890 -0.4970  0.3840 -0.0405
  550MOL0     C74160   0.865   1.242   3.542  0.1420  0.6003  0.0562
  550MOL0     C74161   0.998   1.240   3.511  0.8131  0.2612 -0.2894
  550MOL0     O74162   1.175   1.262   3.224  0.1910 -0.3964  0.3647
  550MOL0     C74163   1.464   1.324   3.424 -0.0386 -0.3817  0.3926
  550MOL0     C74164   1.602   1.318   3.414 -0.0034 -0.2535  0.2676
  550MOL0     N74165   2.094   0.895   2.760  0.7037 -0.3556 -0.5589
  550MOL0     N74166   2.214   0.851   2.730 -0.1881 -0.0006  0.3515
  550MOL0     C74167   2.342  -0.013   3.468 -0.6829  0.3587  0.2821
  550MOL0     C74168   2.238  -0.038   3.561  0.3308 -0.1178 -0.2457
  550MOL0     C74169   1.785   0.029   3.689 -0.8741  0.0022  0.6336
  550MOL0     C74170   1.720  -0.091   3.662 -0.1835 -0.1642 -0.2392
  550MOL0     C74171   1.586  -0.125   3.704 -0.3872 -0.7619 -0.6383
  550MOL0     C74172   1.515  -0.030   3.775 -0.4816  0.1732  0.4916
  550MOL0     O74173   1.395  -0.054   3.838  0.5799  0.0860 -0.5176
  550MOL0     C74174   1.316  -0.173   3.799  0.4361 -0.1259  0.1551
  550MOL0     C74175   1.196  -0.197   3.894  0.5147  0.0394 -0.5487
  550MOL0     C74176   1.138  -0.333   3.880  0.9725  0.1901 -1.6339
  550MOL0     C74177   1.013  -0.359   3.966 -0.0329 -0.3752 -0.1516
  550MOL0     C74178   1.021  -0.308   4.108  0.5095 -0.2795  1.3504
  550MOL0     C74179   1.038  -0.253   4.216  0.0341 -0.0225 -0.4971
  550MOL0     C74180   1.574   0.085   3.802  0.0064  0.4106 -0.0800
  550MOL0     C74181   1.708   0.122   3.767 -0.5668 -0.2173  0.1031
  550MOL0     C74182   1.763   0.262   3.812  0.7718 -0.1879 -0.1740
  550MOL0     H74183   1.967  -0.004   3.364  0.8032  0.3245 -1.8248
  550MOL0     H74184   2.154   0.019   3.181 -0.1964 -0.6003 -0.4056
  550MOL0     H74185   2.518   0.192   3.308 -3.7096 -2.0254  1.7227
  550MOL0     H74186   2.594   0.037   3.314  1.0036  0.2536  0.3547
  550MOL0     H74187   2.588   0.043   3.050 -2.3087  0.7823 -1.6938
  550MOL0     H74188   2.707   0.133   3.149  0.5285 -1.4300  0.8990
  550MOL0     H74189   2.586   0.334   3.098  2.7419 -1.6693 -0.8480
  550MOL0     H74190   2.426   0.252   3.064 -0.2946 -0.6856 -1.9757
  550MOL0     H74191   2.675   0.287   2.891 -0.3004 -0.2262 -0.5291
  550MOL0     H74192   2.555   0.159   2.855 -2.9130  1.5181 -1.0710
  550MOL0     H74193   2.492   0.359   2.717 -3.6388 -1.9021 -1.1664
  550MOL0     H74194   2.370   0.319   2.842  1.6335 -2.4048  1.0246
  550MOL0     H74195   2.439   0.510   2.979 -2.3009 -1.5542 -0.5148
  550MOL0     H74196   2.579   0.528   2.876  0.3000  2.3514  3.2799
  550MOL0     H74197   2.289   0.586   2.768 -0.5539  1.6347  1.4361
  550MOL0     H74198   2.455   0.610   2.699  1.4917 -2.6977  0.4580
  550MOL0     H74199   2.409   0.740   2.965 -1.3001 -3.3589 -0.1078
  550MOL0     H74200   2.444   0.815   2.796 -2.8188 -0.2249 -1.6041
  550MOL0     H74201   2.160   0.742   3.045 -0.0577 -1.0289 -0.1172
  550MOL0     H74202   1.845   0.906   2.901 -0.7471 -1.0383  0.9846
  550MOL0     H74203   1.918   0.826   3.036  2.2751 -2.6960 -2.4284
  550MOL0     H74204   2.052   1.028   3.098  1.1318  4.1501 -1.4924
  550MOL0     H74205   1.982   1.117   2.963  0.5434 -1.0718 -0.3264
  550MOL0     H74206   1.829   1.039   3.210 -3.2664  2.6699  1.2634
  550MOL0     H74207   1.777   1.099   3.045 -1.9664  2.3287  1.0223
  550MOL0     H74208   1.835   1.319   3.100 -0.0060 -3.1499 -2.6945
  550MOL0     H74209   1.971   1.249   3.198 -0.2719 -2.9848  1.0173
  550MOL0     H74210   1.619   1.230   3.082  2.4141 -2.1373  2.5707
  550MOL0     H74211   1.390   1.252   3.101 -2.6544 -1.3729  1.8101
  550MOL0     H74212   1.023   1.549   3.377  3.1600 -2.4887 -0.0480
  550MOL0     H74213   0.779   1.550   3.436 -0.1699 -0.4758 -0.9593
  550MOL0     H74214   0.591   1.518   3.600 -3.2646  1.3160  0.6694
  550MOL0     H74215   0.536   1.464   3.444 -2.0044  0.0596  0.8171
  550MOL0     H74216   0.428   1.377   3.724 -0.4220  0.0628 -0.2973
  550MOL0     H74217   0.344   1.468   3.599  1.3746  1.6509  0.9413
  550MOL0     H74218   0.358   1.245   3.459  1.1452 -1.4122 -0.5598
  550MOL0     H74219   0.427   1.175   3.611  1.2477 -0.3095 -0.7170
  550MOL0     H74220   0.186   1.146   3.557  1.1011  1.0380 -1.0532
  550MOL0     H74221   0.150   1.326   3.577 -1.4069  0.9313  1.4895
  550MOL0     H74222   0.213   1.277   3.814  3.5561 -0.6332 -1.4451
  550MOL0     H74223   0.237   1.108   3.762 -2.0656 -0.3721  1.0559
  550MOL0     H74224  -0.030   1.259   3.726 -1.4273 -0.6234  1.0468
  550MOL0     H74225   0.003   1.097   3.690 -0.6573 -0.4925  1.0285
  550MOL0     H74226   0.035   1.229   3.965  2.0183 -0.2541 -0.6313
  550MOL0     H74227   0.059   1.060   3.941 -0.3230 -1.0684 -1.3475
  550MOL0     H74228  -0.160   1.030   3.848  0.2558 -2.9097  4.1061
  550MOL0     H74229  -0.158   1.074   4.019 -0.1404  1.3883  0.3840
  550MOL0     H74230   0.822   1.155   3.592  0.7356  0.1304 -0.2319
  550MOL0     H74231   1.053   1.150   3.538  0.4341  0.2261  0.3935
  550MOL0     H74232   1.413   1.323   3.520  1.2301  0.2773  1.0961
  550MOL0     H74233   1.651   1.321   3.511  2.6996  0.2723 -1.0279
  550MOL0     H74234   2.446  -0.012   3.498 -1.0586 -1.5933  1.8121
  550MOL0     H74235   2.259  -0.050   3.667 -0.7150  1.1157  0.1175
  550MOL0     H74236   1.763  -0.159   3.588 -3.2495 -2.0987 -0.4051
  550MOL0     H74237   1.550  -0.224   3.676  0.9107 -1.1139 -1.1783
  550MOL0     H74238   1.383  -0.260   3.790  1.4553  0.7210 -0.8237
  550MOL0     H74239   1.284  -0.140   3.700  2.1607  4.2599  0.8329
  550MOL0     H74240   1.121  -0.118   3.885  1.8534  1.7298  1.7586
  550MOL0     H74241   1.235  -0.184   3.996 -1.8480 -1.7326  0.6751
  550MOL0     H74242   1.215  -0.408   3.899 -0.7491 -0.5081  4.5835
  550MOL0     H74243   1.105  -0.343   3.776 -4.6312 -2.0578 -0.0086
  550MOL0     H74244   0.929  -0.313   3.912 -0.9216 -0.6776  0.9462
  550MOL0     H74245   0.990  -0.466   3.965  0.0824 -0.4251 -2.0145
  550MOL0     H74246   1.044  -0.207   4.313 -0.9821 -0.0473 -0.4064
  550MOL0     H74247   1.510   0.164   3.840  1.3271  1.7612 -0.5774
  550MOL0     H74248   1.765   0.332   3.727 -2.1915  0.3960  0.1093
  550MOL0     H74249   1.702   0.316   3.884  1.4407  1.7596 -1.0132
  550MOL0     H74250   1.862   0.269   3.857  0.5107 -1.6135  0.6839
  551MOL0     O74251   9.328   1.331   8.150 -0.1761 -0.0363  0.3135
  551MOL0     C74252   9.349   1.296   8.268 -1.0205  1.0321 -0.0566
  551MOL0     O74253   9.471   1.265   8.323 -0.2807  0.2931 -0.0045
  551MOL0     C74254   9.576   1.240   8.234  0.6224  0.1813  0.7253
  551MOL0     C74255   9.562   1.165   8.115  0.2778 -0.6241 -0.0697
  551MOL0     C74256   9.666   1.152   8.030  0.7734 -0.4739 -0.6362
  551MOL0     C74257   9.790   1.205   8.068 -0.6034  0.0040  0.1048
  551MOL0     O74258   9.887   1.187   7.967 -0.0289 -0.0356 -0.2231
  551MOL0     C74259   9.981   1.086   7.997 -0.8205 -0.0337 -0.0091
  551MOL0     C74260  10.079   1.094   7.871 -0.0877 -0.5286 -0.7574
  551MOL0     C74261  10.200   1.009   7.897 -0.8925  0.0446  0.8000
  551MOL0     C74262  10.195   0.857   7.870  0.4743  1.1458  0.6123
  551MOL0     C74263  10.333   0.800   7.821  0.8593 -1.3484  0.0174
  551MOL0     C74264  10.306   0.673   7.759  0.5681  0.3030 -0.5535
  551MOL0     C74265  10.438   0.614   7.706 -0.1497  0.2914 -0.7511
  551MOL0     C74266  10.542   0.576   7.810  0.5364 -0.3177  0.0105
  551MOL0     N74267  10.668   0.641   7.784 -0.0032  0.0895 -0.2055
  551MOL0     C74268  10.698   0.772   7.819 -0.6224  0.1084 -0.1306
  551MOL0     C74269  10.829   0.789   7.786  0.1697  0.2300  0.2577
  551MOL0     C74270  10.898   0.909   7.828  0.2411 -0.8899  0.2768
  551MOL0     C74271  10.898   1.020   7.726 -0.3919  0.0463 -0.0308
  551MOL0     C74272  10.968   0.966   7.600  0.5712 -0.7258  0.0651
  551MOL0     C74273  10.944   1.063   7.492  0.3439 -0.5394 -0.4320
  551MOL0     O74274  10.989   1.195   7.514 -0.3357  0.3511 -0.4136
  551MOL0     C74275  11.122   1.215   7.492  0.8330  0.1492 -0.0142
  551MOL0     C74276  11.227   1.136   7.440 -0.0211 -0.8102 -1.1128
  551MOL0     C74277  11.360   1.174   7.431  0.1526 -0.4575 -0.1130
  551MOL0     C74278  11.398   1.313   7.467  0.7528  0.4033  0.1911
  551MOL0     C74279  11.536   1.361   7.461  0.2948 -0.9971  0.2669
  551MOL0     O74280  11.633   1.267   7.509 -0.8633  0.5076 -0.1779
  551MOL0     C74281  11.765   1.296   7.472  0.0280  0.4766 -0.7699
  551MOL0     C74282  11.857   1.319   7.569 -0.1384 -0.4711  0.5018
  551MOL0     C74283  11.995   1.330   7.533  0.1432 -1.2175  0.2740
  551MOL0     C74284  12.032   1.323   7.390  0.7715  0.2115 -0.7631
  551MOL0     O74285  12.164   1.304   7.367  0.4302  0.1204  0.5313
  551MOL0     C74286  12.234   1.359   7.254  0.3099 -1.0513 -0.5267
  551MOL0     C74287  12.383   1.319   7.240 -0.0357  0.5821 -0.7056
  551MOL0     C74288  12.468   1.362   7.356 -0.2425 -0.2289  0.8578
  551MOL0     C74289  12.465   1.278   7.488 -0.6540 -0.5426  0.6052
  551MOL0     C74290  12.504   1.365   7.610  0.3158  0.9003  0.1002
  551MOL0     C74291  12.546   1.276   7.736  0.0409  0.3360 -1.2919
  551MOL0     C74292  12.551   1.357   7.862 -0.0382  0.4676 -0.2350
  551MOL0     C74293  12.441   1.309   7.965  0.4438 -0.5981  0.1263
  551MOL0    Cl74294  12.386   1.428   8.083  0.5491  0.0656 -0.2624
  551MOL0     C74295  11.929   1.311   7.296  0.2940  0.3706  0.7244
  551MOL0     C74296  11.797   1.295   7.342  0.3632  0.7231  0.1255
  551MOL0     O74297  11.557   1.479   7.430 -0.0246 -0.2965  0.0500
  551MOL0     C74298  11.298   1.390   7.515 -0.6637 -0.5955 -0.0406
  551MOL0     C74299  11.170   1.344   7.535 -0.4238  0.9962 -0.6262
  551MOL0     N74300  10.870   0.676   7.710 -0.4808  0.2061 -0.6616
  551MOL0     N74301  10.773   0.591   7.714  0.3803 -0.0526  0.9537
  551MOL0     C74302   9.810   1.282   8.187  0.1326  0.3156 -0.4956
  551MOL0     C74303   9.698   1.293   8.268 -0.9201  0.3203 -0.8029
  551MOL0     C74304   9.228   1.270   8.358 -0.0182 -0.0135 -0.4372
  551MOL0     C74305   9.257   1.190   8.466 -0.1380  0.4941 -0.5302
  551MOL0     C74306   9.166   1.171   8.574 -0.4112  0.3328  1.0494
  551MOL0     C74307   9.051   1.247   8.585  0.5766  0.5003  0.2585
  551MOL0     O74308   8.962   1.233   8.688 -0.8653  0.3835  0.4422
  551MOL0     C74309   9.004   1.165   8.806  0.1107 -0.4151  0.2875
  551MOL0     C74310   8.901   1.168   8.914 -0.6266 -0.1506 -0.7961
  551MOL0     C74311   8.950   1.079   9.037 -0.4455  0.2131  1.0821
  551MOL0     C74312   8.950   0.925   9.018 -0.5434 -0.0963  0.5255
  551MOL0     C74313   8.822   0.872   9.001  0.4823 -0.4895 -0.9405
  551MOL0     C74314   8.709   0.830   8.969  0.7835  0.0147 -1.0112
  551MOL0     C74315   9.031   1.329   8.479 -0.2547  0.3600 -0.7671
  551MOL0     C74316   9.109   1.338   8.365 -0.1370  0.0367 -0.3303
  551MOL0     C74317   9.066   1.429   8.249  0.6967  0.6999  0.0974
  551MOL0     H74318   9.464   1.133   8.080  0.4804  1.9903 -3.5927
  551MOL0     H74319   9.645   1.093   7.941  3.6761  1.7436 -3.0202
  551MOL0     H74320  10.037   1.098   8.091  0.3989 -2.2483 -0.3690
  551MOL0     H74321   9.948   0.981   8.005  1.7012 -0.8044  1.3892
  551MOL0     H74322  10.102   1.198   7.847 -1.3006 -0.9017 -4.0566
  551MOL0     H74323  10.029   1.050   7.784 -0.9559 -1.3589  0.1360
  551MOL0     H74324  10.242   1.016   7.998  2.0856 -0.4715 -0.3123
  551MOL0     H74325  10.284   1.058   7.846  0.7472 -0.9757  2.3912
  551MOL0     H74326  10.149   0.792   7.945 -2.0306 -0.6726 -2.2564
  551MOL0     H74327  10.131   0.849   7.782  1.9878 -0.3024 -0.4224
  551MOL0     H74328  10.385   0.867   7.752 -2.4470 -2.3331 -3.8751
  551MOL0     H74329  10.396   0.779   7.908  1.6023 -2.6529 -0.8165
  551MOL0     H74330  10.259   0.611   7.836 -0.5118 -0.5051 -1.8311
  551MOL0     H74331  10.236   0.676   7.676 -1.8420 -4.1883  0.9943
  551MOL0     H74332  10.474   0.671   7.620  0.5961  1.2719  0.1760
  551MOL0     H74333  10.414   0.516   7.666  0.1314  0.4156 -1.2280
  551MOL0     H74334  10.518   0.608   7.912  2.0111  0.1933  0.2228
  551MOL0     H74335  10.559   0.469   7.826 -0.3050 -1.0657 -3.3489
  551MOL0     H74336  10.634   0.835   7.880  1.0673  0.9234  0.8874
  551MOL0     H74337  10.836   0.944   7.911  0.7279  1.0884 -0.1539
  551MOL0     H74338  11.000   0.882   7.854  1.4410  1.6916 -1.3975
  551MOL0     H74339  10.797   1.058   7.707 -0.8748 -1.3065 -0.3346
  551MOL0     H74340  10.958   1.099   7.771  1.7355 -0.5873 -1.5678
  551MOL0     H74341  10.916   0.876   7.563 -1.5222  0.6664 -0.5713
  551MOL0     H74342  11.071   0.938   7.621  0.2081 -0.2651  2.7102
  551MOL0     H74343  10.841   1.059   7.456  0.7451 -1.7124 -1.5563
  551MOL0     H74344  10.995   1.028   7.402 -1.1840  1.8839 -2.3518
  551MOL0     H74345  11.212   1.033   7.409  0.0302 -0.9223 -0.7598
  551MOL0     H74346  11.419   1.091   7.394  0.1811  0.8505 -3.4077
  551MOL0     H74347  11.822   1.315   7.671 -2.1312 -1.1146 -0.1506
  551MOL0     H74348  12.069   1.330   7.613 -1.1943  0.3515  1.5852
  551MOL0     H74349  12.174   1.308   7.178 -1.4229 -4.5469  2.8430
  551MOL0     H74350  12.216   1.467   7.252  1.4484 -0.8513 -1.4143
  551MOL0     H74351  12.378   1.210   7.233 -0.5456  0.4449  1.2081
  551MOL0     H74352  12.433   1.356   7.151  1.2792 -0.2227 -0.3190
  551MOL0     H74353  12.573   1.367   7.324 -0.3686  1.2550  0.5594
  551MOL0     H74354  12.445   1.467   7.380  1.4524  0.4660 -0.3659
  551MOL0     H74355  12.531   1.191   7.482  0.9499  0.4784  2.3893
  551MOL0     H74356  12.360   1.263   7.517 -0.8866  0.9578  0.6096
  551MOL0     H74357  12.416   1.420   7.641 -0.4240  0.1912 -0.6952
  551MOL0     H74358  12.591   1.428   7.588  2.2456 -1.1419  1.3121
  551MOL0     H74359  12.491   1.182   7.749 -3.0242  2.1905  0.3428
  551MOL0     H74360  12.648   1.238   7.726  0.0304 -0.5290  1.2405
  551MOL0     H74361  12.538   1.465   7.851 -1.6629  0.3056 -0.0837
  551MOL0     H74362  12.646   1.325   7.908 -0.8804 -2.3436 -0.2319
  551MOL0     H74363  12.356   1.282   7.902  0.9041 -0.2558 -0.6518
  551MOL0     H74364  12.475   1.218   8.017  0.3791 -2.3468 -2.6800
  551MOL0     H74365  11.941   1.315   7.188  1.8205  0.8936  0.8789
  551MOL0     H74366  11.718   1.279   7.270 -0.1606  0.2970  0.7766
  551MOL0     H74367  11.311   1.491   7.553 -1.4324 -1.1731  1.8640
  551MOL0     H74368  11.106   1.407   7.595  1.6291  1.4040  1.2967
  551MOL0     H74369   9.903   1.335   8.203  1.3208 -1.0856 -2.2597
  551MOL0     H74370   9.687   1.368   8.346  1.0622 -0.3197  0.1557
  551MOL0     H74371   9.351   1.136   8.469 -1.1174 -1.3616 -1.4783
  551MOL0     H74372   9.185   1.099   8.653  3.0052  0.5266  0.5634
  551MOL0     H74373   9.094   1.218   8.838 -1.8525  3.4972 -0.1075
  551MOL0     H74374   9.032   1.060   8.791 -0.2297 -1.0755  3.5403
  551MOL0     H74375   8.801   1.146   8.875 -0.9120  0.9770 -0.7333
  551MOL0     H74376   8.898   1.272   8.949  1.7575 -0.3832  0.2927
  551MOL0     H74377   8.879   1.098   9.118  0.0706  2.3282  1.0844
  551MOL0     H74378   9.051   1.110   9.063 -1.1172  1.5748  2.1428
  551MOL0     H74379   8.998   0.890   8.926  1.0628  5.2364 -1.0004
  551MOL0     H74380   8.993   0.880   9.109 -0.4155  0.2704  0.6468
  551MOL0     H74381   8.614   0.796   8.931  1.5916 -0.6432 -2.5342
  551MOL0     H74382   8.940   1.389   8.479 -0.1320  0.5732  0.1808
  551MOL0     H74383   8.968   1.474   8.263  0.1970  0.2158 -1.6346
  551MOL0     H74384   9.137   1.512   8.246 -0.8792  2.0703 -0.1165
  551MOL0     H74385   9.067   1.375   8.154 -2.4012  0.8792 -0.1158
  552MOL0     O74386   5.882   4.767   3.677  0.4215  0.7180  0.0093
  552MOL0     C74387   5.910   4.847   3.588  0.7415  0.3364 -0.0496
  552MOL0     O74388   5.811   4.913   3.508  0.6200  0.5913 -0.3371
  552MOL0     C74389   5.677   4.883   3.516  1.0049  0.0136 -0.3399
  552MOL0     C74390   5.611   4.884   3.391  0.3859  0.0123 -0.2439
  552MOL0     C74391   5.476   4.848   3.399  0.4286 -0.6580  0.2284
  552MOL0     C74392   5.409   4.859   3.525 -0.5805 -0.4017 -0.1494
  552MOL0     O74393   5.269   4.850   3.520 -0.1827  0.3055 -0.0538
  552MOL0     C74394   5.205   4.782   3.627  0.2901  0.5164 -1.2675
  552MOL0     C74395   5.059   4.732   3.592  0.0049  1.0483 -1.4105
  552MOL0     C74396   5.077   4.635   3.481 -0.0257  0.1981 -0.0417
  552MOL0     C74397   4.949   4.581   3.425  0.5172  0.4877  0.7169
  552MOL0     C74398   4.882   4.514   3.546  0.6509  0.8602  0.0075
  552MOL0     C74399   4.764   4.413   3.501 -1.2042  0.2305  0.5826
  552MOL0     C74400   4.652   4.481   3.423  0.3593 -0.9727  0.2930
  552MOL0     C74401   4.506   4.464   3.491 -0.0235 -0.9639 -0.2407
  552MOL0     N74402   4.485   4.578   3.585  0.0423 -0.4721 -0.2049
  552MOL0     C74403   4.537   4.575   3.714  0.8428 -0.5998  0.3453
  552MOL0     C74404   4.491   4.686   3.771  0.1503  0.6734  0.9159
  552MOL0     C74405   4.546   4.741   3.903  0.3900  0.2372  0.1383
  552MOL0     C74406   4.694   4.731   3.911  0.3996  0.2836  0.4251
  552MOL0     C74407   4.775   4.810   3.798 -0.6750  0.6941  0.4175
  552MOL0     C74408   4.751   4.964   3.772  0.0525 -0.4019 -0.3270
  552MOL0     O74409   4.853   5.012   3.684  0.1820 -0.3001  0.3112
  552MOL0     C74410   4.976   5.039   3.722 -0.2335 -0.0149  0.5749
  552MOL0     C74411   5.024   5.035   3.856 -1.0666 -0.4807 -0.3527
  552MOL0     C74412   5.161   5.076   3.884  0.1133  1.1672 -0.3493
  552MOL0     C74413   5.250   5.128   3.795 -0.1652 -0.4152  0.3573
  552MOL0     C74414   5.386   5.168   3.837 -0.1395  0.0077 -0.7593
  552MOL0     O74415   5.454   5.221   3.735 -0.2572  0.2409 -0.4312
  552MOL0     C74416   5.582   5.272   3.759  1.1163  0.1502  0.6870
  552MOL0     C74417   5.621   5.341   3.873  0.3822 -0.2027 -0.2278
  552MOL0     C74418   5.757   5.384   3.877  0.7016 -0.9602 -0.4373
  552MOL0     C74419   5.852   5.360   3.773  0.8576  0.1619  0.4887
  552MOL0     O74420   5.982   5.391   3.781 -0.5016 -0.5349 -0.1989
  552MOL0     C74421   6.058   5.265   3.783  0.2868 -1.0182  0.4610
  552MOL0     C74422   6.205   5.279   3.824  0.1468 -1.1276  0.5473
  552MOL0     C74423   6.260   5.133   3.831  0.5603 -2.0841 -0.5624
  552MOL0     C74424   6.407   5.140   3.830  0.3003 -0.0473 -0.0221
  552MOL0     C74425   6.461   5.001   3.885  0.1322  0.4232  0.6968
  552MOL0     C74426   6.595   5.005   3.944 -0.2481 -0.4740  0.1849
  552MOL0     C74427   6.628   4.876   4.033  0.3050 -0.8528 -0.2790
  552MOL0     C74428   6.776   4.849   4.052 -0.7525 -0.2453 -0.3875
  552MOL0    Cl74429   6.884   4.833   3.907  0.1104 -0.0442  0.2006
  552MOL0     C74430   5.805   5.299   3.654  0.2067 -0.0311 -0.7087
  552MOL0     C74431   5.668   5.263   3.646 -1.2615  0.5772 -1.2195
  552MOL0     O74432   5.427   5.146   3.951  0.3454  0.0273 -0.0854
  552MOL0     C74433   5.201   5.135   3.664 -0.1353  1.2855  0.4042
  552MOL0     C74434   5.066   5.093   3.630 -0.1320  1.0067  0.6822
  552MOL0     N74435   4.397   4.740   3.678 -0.3903 -0.8404 -0.0413
  552MOL0     N74436   4.395   4.677   3.566 -0.7505 -0.3229  0.2217
  552MOL0     C74437   5.471   4.872   3.643 -1.1640  0.1213 -0.6540
  552MOL0     C74438   5.610   4.878   3.632 -0.2048  0.0967 -0.4132
  552MOL0     C74439   6.050   4.880   3.551 -0.5731 -0.3856 -0.5589
  552MOL0     C74440   6.070   4.950   3.432  0.0964 -1.0787  1.0110
  552MOL0     C74441   6.198   4.971   3.366 -0.3951 -0.3836 -1.3842
  552MOL0     C74442   6.312   4.933   3.436 -0.8488 -0.0244  0.0285
  552MOL0     O74443   6.434   4.970   3.373  0.2252 -0.5812 -0.4055
  552MOL0     C74444   6.556   4.905   3.426 -0.4636 -0.6572  0.6167
  552MOL0     C74445   6.634   4.829   3.309  0.3812  1.3565 -0.0419
  552MOL0     C74446   6.545   4.721   3.251  0.0490 -0.3898  0.5085
  552MOL0     C74447   6.617   4.624   3.160 -0.2025  0.0317  0.9776
  552MOL0     C74448   6.716   4.670   3.059  0.7818  0.5013 -0.6444
  552MOL0     C74449   6.803   4.717   2.990 -0.0978  0.9005 -0.3675
  552MOL0     C74450   6.293   4.885   3.566 -0.5079 -0.0197 -0.1042
  552MOL0     C74451   6.172   4.843   3.616 -0.4799 -0.0549 -0.1260
  552MOL0     C74452   6.178   4.757   3.742 -0.0233 -0.3715 -0.4497
  552MOL0     H74453   5.658   4.884   3.293  0.3565 -0.3104 -0.2589
  552MOL0     H74454   5.423   4.833   3.306 -0.9973 -1.8277  1.1893
  552MOL0     H74455   5.274   4.699   3.647  0.7211  1.2156  0.2601
  552MOL0     H74456   5.195   4.854   3.709 -0.4102 -0.5353 -0.4072
  552MOL0     H74457   4.986   4.809   3.565 -3.1865 -1.3033 -0.1075
  552MOL0     H74458   5.029   4.667   3.675  0.9096 -0.8536 -2.5124
  552MOL0     H74459   5.134   4.554   3.525  1.1398  1.1079  0.1717
  552MOL0     H74460   5.136   4.677   3.398  1.6289 -2.7119 -0.4597
  552MOL0     H74461   4.897   4.657   3.366  1.2090 -0.4873 -1.2375
  552MOL0     H74462   4.977   4.506   3.351 -1.7081  1.9464 -1.8071
  552MOL0     H74463   4.953   4.459   3.608  0.9438 -0.7815 -1.6795
  552MOL0     H74464   4.829   4.600   3.588 -1.5643 -0.1631 -0.4821
  552MOL0     H74465   4.804   4.321   3.457  0.9526  1.3531  0.0785
  552MOL0     H74466   4.713   4.384   3.594 -0.1568  1.2256  1.5048
  552MOL0     H74467   4.632   4.434   3.326 -3.4287  2.3124 -0.7970
  552MOL0     H74468   4.677   4.587   3.417 -0.5821 -0.8274 -3.4450
  552MOL0     H74469   4.431   4.458   3.411 -0.8210 -0.3415  0.4473
  552MOL0     H74470   4.497   4.373   3.550  2.2660  0.4898  2.5874
  552MOL0     H74471   4.605   4.500   3.751  3.2017  0.1167 -2.2280
  552MOL0     H74472   4.519   4.847   3.905 -4.5520 -0.7958  1.1963
  552MOL0     H74473   4.504   4.691   3.991  2.9781  0.0617  1.3385
  552MOL0     H74474   4.719   4.774   4.008 -0.1916 -0.9992  1.1688
  552MOL0     H74475   4.720   4.625   3.911 -0.4756  0.0380 -0.9995
  552MOL0     H74476   4.761   4.759   3.703  0.7863 -0.5513  0.8427
  552MOL0     H74477   4.883   4.802   3.817  0.3099  2.5465 -3.3858
  552MOL0     H74478   4.751   5.020   3.866 -2.0197 -1.5755  0.4605
  552MOL0     H74479   4.650   4.983   3.736  0.5141  0.7470 -1.0461
  552MOL0     H74480   4.964   4.991   3.935 -1.3229 -1.3566 -1.0198
  552MOL0     H74481   5.186   5.055   3.987  1.3754  0.3663 -0.7909
  552MOL0     H74482   5.555   5.366   3.956  1.2397  1.5387 -0.0347
  552MOL0     H74483   5.796   5.421   3.971  1.6476  0.9947 -1.5447
  552MOL0     H74484   6.013   5.190   3.849  1.2889 -0.2351  2.1250
  552MOL0     H74485   6.051   5.229   3.681  1.1935  1.5184 -0.5782
  552MOL0     H74486   6.264   5.340   3.756  1.2214 -2.0279  0.6366
  552MOL0     H74487   6.213   5.323   3.924  1.2474 -1.6754  0.7174
  552MOL0     H74488   6.215   5.094   3.922 -1.3642 -0.7335 -0.8561
  552MOL0     H74489   6.232   5.067   3.748 -2.5213 -0.3905 -1.0351
  552MOL0     H74490   6.446   5.221   3.892  3.1054 -1.8230  0.7084
  552MOL0     H74491   6.440   5.170   3.730  0.6913  1.2226  0.4657
  552MOL0     H74492   6.458   4.928   3.803 -1.8725  0.2112  0.8938
  552MOL0     H74493   6.390   4.966   3.960 -1.5522  0.1210 -0.9480
  552MOL0     H74494   6.656   5.009   3.852 -0.8180  0.1967 -0.1734
  552MOL0     H74495   6.611   5.099   3.998 -1.1285 -0.9290  1.2747
  552MOL0     H74496   6.584   4.793   3.976 -1.1398  0.9966 -1.9936
  552MOL0     H74497   6.570   4.881   4.126  1.2062  1.1017  0.2281
  552MOL0     H74498   6.827   4.933   4.100  0.2565 -0.5141 -0.9499
  552MOL0     H74499   6.789   4.764   4.120  0.0342  0.9641  1.0461
  552MOL0     H74500   5.870   5.283   3.568 -0.3308  0.1216 -1.1450
  552MOL0     H74501   5.649   5.202   3.557  1.9871 -0.1602 -1.5378
  552MOL0     H74502   5.264   5.178   3.587  0.0551 -0.3210 -0.3701
  552MOL0     H74503   5.027   5.105   3.529  0.0602  0.2639  0.5152
  552MOL0     H74504   5.415   4.874   3.736  2.7416 -2.1858  2.0499
  552MOL0     H74505   5.667   4.880   3.725  1.3498 -2.0925 -1.2172
  552MOL0     H74506   5.990   4.996   3.374 -0.3612  1.3383  3.3621
  552MOL0     H74507   6.210   5.035   3.279  1.2623  0.1049 -0.8168
  552MOL0     H74508   6.534   4.835   3.507 -2.1291 -0.5415  0.2945
  552MOL0     H74509   6.624   4.977   3.472 -0.6587  0.4342 -0.7530
  552MOL0     H74510   6.720   4.782   3.357  0.1988  2.3552  1.2964
  552MOL0     H74511   6.656   4.905   3.232 -1.2574  0.1663 -1.7784
  552MOL0     H74512   6.460   4.774   3.208  0.2046  0.9044  1.7142
  552MOL0     H74513   6.512   4.659   3.335 -0.9840 -2.2595 -1.2119
  552MOL0     H74514   6.651   4.540   3.221 -0.0742 -0.1954  0.5935
  552MOL0     H74515   6.539   4.585   3.094  0.3285  3.5497 -2.0597
  552MOL0     H74516   6.886   4.744   2.927  0.0776  2.8483  0.6480
  552MOL0     H74517   6.385   4.884   3.622 -0.8860 -0.5910  0.5259
  552MOL0     H74518   6.284   4.748   3.770  0.6739 -1.0294 -3.0282
  552MOL0     H74519   6.120   4.813   3.815  0.1023 -0.1142 -0.5479
  552MOL0     H74520   6.138   4.656   3.731 -2.0897 -0.0343  2.5758
  553MOL0     O74521   4.110   9.594   6.373  0.1582 -0.4340 -0.1911
  553MOL0     C74522   4.221   9.576   6.321 -1.1232  0.7670 -0.1307
  553MOL0     O74523   4.244   9.569   6.177 -0.2717 -0.5501 -0.6843
  553MOL0     C74524   4.127   9.569   6.096  0.0664  0.0054  0.4698
  553MOL0     C74525   4.088   9.677   6.012 -0.0280 -0.5217  0.1345
  553MOL0     C74526   3.975   9.669   5.931  0.4441 -0.6507 -0.1776
  553MOL0     C74527   3.897   9.555   5.925  0.4325  0.4359  0.0117
  553MOL0     O74528   3.772   9.564   5.868 -0.4711  0.2746 -0.0978
  553MOL0     C74529   3.745   9.461   5.772 -0.5274 -0.4301 -1.2503
  553MOL0     C74530   3.611   9.490   5.711  0.4371 -0.3546  0.0809
  553MOL0     C74531   3.476   9.467   5.784  0.2992 -0.4496  0.0119
  553MOL0     C74532   3.358   9.480   5.678  0.4514  0.2036 -0.6092
  553MOL0     C74533   3.223   9.442   5.738 -0.0778  0.1332 -1.1447
  553MOL0     C74534   3.104   9.462   5.642 -0.0771  0.6686  0.9074
  553MOL0     C74535   2.959   9.452   5.704 -0.9637  0.0579 -0.0417
  553MOL0     C74536   2.854   9.469   5.587  0.4166 -0.0982 -0.5078
  553MOL0     N74537   2.717   9.480   5.637  0.0675  0.6296  0.2198
  553MOL0     C74538   2.623   9.383   5.627 -0.2086  0.1421 -0.8072
  553MOL0     C74539   2.503   9.447   5.656  0.3418 -0.8894  0.3179
  553MOL0     C74540   2.370   9.381   5.653  1.0011 -0.1699  0.7964
  553MOL0     C74541   2.297   9.376   5.787  0.8375  0.4939  0.1215
  553MOL0     C74542   2.188   9.271   5.789 -0.1186  0.1875 -0.9048
  553MOL0     C74543   2.068   9.293   5.874  0.5055 -0.3088 -0.3844
  553MOL0     O74544   1.986   9.405   5.814  0.0160  0.8722  0.6638
  553MOL0     C74545   1.855   9.395   5.806 -0.4210  0.2749  0.0284
  553MOL0     C74546   1.793   9.275   5.776 -0.2081 -0.2498 -0.4833
  553MOL0     C74547   1.656   9.263   5.775 -0.5284 -0.7290  0.4945
  553MOL0     C74548   1.577   9.363   5.837 -0.0799  0.4388 -0.5624
  553MOL0     C74549   1.439   9.340   5.864  0.3751 -0.0005  0.9593
  553MOL0     O74550   1.361   9.423   5.937  0.0616 -0.5794 -0.8724
  553MOL0     C74551   1.227   9.411   5.947  0.5674  0.1363  0.2908
  553MOL0     C74552   1.182   9.469   6.060 -1.2011  0.3905 -1.0897
  553MOL0     C74553   1.042   9.469   6.092 -0.4208 -0.0172 -0.3029
  553MOL0     C74554   0.945   9.430   5.995  0.4177 -0.1656  0.0982
  553MOL0     O74555   0.809   9.447   6.022  0.5165 -0.6757  0.0240
  553MOL0     C74556   0.754   9.396   6.144  0.0013 -0.1718 -0.5651
  553MOL0     C74557   0.617   9.334   6.127 -0.2263  1.2942 -0.2588
  553MOL0     C74558   0.504   9.441   6.121  0.1818 -0.3827  0.1678
  553MOL0     C74559   0.494   9.546   6.235  0.3796  0.2409  0.1028
  553MOL0     C74560   0.341   9.580   6.259 -0.0556 -0.7890  0.3397
  553MOL0     C74561   0.322   9.675   6.370 -0.5117 -0.3445  0.0087
  553MOL0     C74562   0.168   9.717   6.363 -0.6595  0.7761 -0.4104
  553MOL0     C74563   0.129   9.771   6.500 -1.2860 -1.2400 -0.3979
  553MOL0    Cl74564   0.218   9.928   6.534 -0.5067  0.1311 -0.3870
  553MOL0     C74565   0.996   9.381   5.875  0.6928 -0.2100  0.3604
  553MOL0     C74566   1.135   9.374   5.850  0.7248  0.6001 -0.5545
  553MOL0     O74567   1.396   9.236   5.818  0.2146  0.3358  0.6145
  553MOL0     C74568   1.639   9.477   5.874  0.1856  0.0946  0.8863
  553MOL0     C74569   1.775   9.497   5.854 -1.0617 -0.0967  0.4785
  553MOL0     N74570   2.533   9.574   5.696  0.0057  0.1671 -0.5802
  553MOL0     N74571   2.661   9.589   5.689  0.7357  0.4707 -0.3601
  553MOL0     C74572   3.937   9.443   6.000  0.0975 -0.1820  0.2196
  553MOL0     C74573   4.053   9.450   6.086  0.3893 -0.1923  0.5330
  553MOL0     C74574   4.353   9.563   6.396 -0.3410  0.3168  0.8935
  553MOL0     C74575   4.476   9.557   6.321  0.3740  0.3372  0.0328
  553MOL0     C74576   4.598   9.554   6.396 -0.9658 -0.1663  0.1002
  553MOL0     C74577   4.598   9.539   6.539 -0.6011 -0.7072 -0.2399
  553MOL0     O74578   4.719   9.558   6.599 -0.4532  0.8610  0.3213
  553MOL0     C74579   4.730   9.543   6.736 -0.7374 -0.5593  0.1207
  553MOL0     C74580   4.882   9.534   6.770  0.5684 -0.6615 -0.2208
  553MOL0     C74581   4.965   9.661   6.727  0.0421  1.4813 -0.3269
  553MOL0     C74582   5.113   9.636   6.776  0.2798  0.1792  0.1934
  553MOL0     C74583   5.141   9.659   6.922 -0.2829 -0.6508  0.2918
  553MOL0     C74584   5.154   9.670   7.044  0.5919 -0.5302  0.3421
  553MOL0     C74585   4.477   9.550   6.604 -0.3380  1.1185 -0.3541
  553MOL0     C74586   4.352   9.557   6.539  0.2035 -0.7577  0.7553
  553MOL0     C74587   4.230   9.568   6.636  0.9339 -0.0792  0.3519
  553MOL0     H74588   4.152   9.766   6.009  0.3520 -0.8103 -1.6986
  553MOL0     H74589   3.943   9.754   5.872 -2.4323 -1.3020  0.2895
  553MOL0     H74590   3.817   9.463   5.690 -1.5365  0.0529 -2.1470
  553MOL0     H74591   3.733   9.363   5.820 -1.8501  0.0984 -0.4186
  553MOL0     H74592   3.610   9.422   5.626  0.8448 -1.0598  0.6236
  553MOL0     H74593   3.614   9.594   5.676 -1.7816  0.0670  0.9440
  553MOL0     H74594   3.458   9.531   5.871 -1.7686 -0.2383 -0.5351
  553MOL0     H74595   3.471   9.367   5.830 -1.4108 -0.4122 -0.0355
  553MOL0     H74596   3.356   9.577   5.629 -0.1510  0.5867  0.1542
  553MOL0     H74597   3.379   9.412   5.595  0.8840  1.5472 -1.6261
  553MOL0     H74598   3.231   9.339   5.774 -0.4872 -0.5290 -2.8606
  553MOL0     H74599   3.208   9.505   5.826 -0.2102 -3.7285  1.8488
  553MOL0     H74600   3.088   9.560   5.596 -3.6380 -0.2600 -0.2067
  553MOL0     H74601   3.122   9.383   5.568 -0.1818 -0.1165  1.7098
  553MOL0     H74602   2.949   9.523   5.786  0.3266  0.3327 -0.1036
  553MOL0     H74603   2.931   9.356   5.746  0.0339  0.0223  0.5587
  553MOL0     H74604   2.869   9.571   5.548  0.4252 -0.9719 -2.9409
  553MOL0     H74605   2.872   9.395   5.508  1.0445 -1.0241  0.4783
  553MOL0     H74606   2.644   9.280   5.599  2.0491  0.7368 -1.5064
  553MOL0     H74607   2.307   9.409   5.568  2.1319 -2.3055 -0.8393
  553MOL0     H74608   2.392   9.280   5.618  1.5502  0.5038 -0.9583
  553MOL0     H74609   2.359   9.368   5.877  0.4415  0.1870  0.3668
  553MOL0     H74610   2.251   9.475   5.801 -1.3622 -0.5068  0.4388
  553MOL0     H74611   2.243   9.182   5.823 -1.7347 -0.4704  0.0947
  553MOL0     H74612   2.153   9.240   5.690  3.0459 -3.2709 -1.2046
  553MOL0     H74613   2.104   9.332   5.969  0.3272  1.1613 -0.8835
  553MOL0     H74614   2.020   9.196   5.887  0.8618 -0.5698 -0.9787
  553MOL0     H74615   1.857   9.195   5.739  0.2285 -1.3508  2.3459
  553MOL0     H74616   1.618   9.166   5.745  2.2455 -0.9973 -2.7318
  553MOL0     H74617   1.264   9.491   6.128  1.2091  3.3874 -4.5680
  553MOL0     H74618   1.015   9.502   6.192 -0.9606  2.0012 -1.0574
  553MOL0     H74619   0.829   9.325   6.181 -1.8160 -0.6664  2.4703
  553MOL0     H74620   0.753   9.479   6.214 -0.5486 -0.4284 -0.2652
  553MOL0     H74621   0.603   9.270   6.040 -4.3332 -3.0872  3.0877
  553MOL0     H74622   0.607   9.263   6.210  0.8228  2.1735  0.6667
  553MOL0     H74623   0.518   9.492   6.025 -1.1548 -1.8524 -0.8700
  553MOL0     H74624   0.410   9.385   6.121  1.5047 -2.7437  1.1046
  553MOL0     H74625   0.552   9.637   6.219  4.3259 -1.3594  3.4838
  553MOL0     H74626   0.535   9.485   6.316 -1.4165 -2.0028 -0.5640
  553MOL0     H74627   0.291   9.488   6.294 -1.0448  0.1059  1.3577
  553MOL0     H74628   0.298   9.617   6.166  1.5497  2.2803  0.7155
  553MOL0     H74629   0.350   9.624   6.462  1.1473  1.3391  0.5007
  553MOL0     H74630   0.381   9.766   6.354 -0.4833 -0.7227 -2.2709
  553MOL0     H74631   0.108   9.628   6.342  0.4899  0.0180 -0.5726
  553MOL0     H74632   0.143   9.787   6.282 -0.0268 -1.1942 -2.4120
  553MOL0     H74633   0.025   9.803   6.509 -0.4800  1.2516  1.1104
  553MOL0     H74634   0.160   9.701   6.578 -0.7509 -1.2597 -0.6225
  553MOL0     H74635   0.920   9.349   5.804  2.9054  0.5043 -2.5237
  553MOL0     H74636   1.166   9.337   5.752  1.3955 -2.9827  0.8489
  553MOL0     H74637   1.582   9.562   5.911 -2.4961 -0.7512 -0.9686
  553MOL0     H74638   1.823   9.589   5.885 -0.4885 -0.8098  1.7479
  553MOL0     H74639   3.887   9.346   5.996 -2.4780  1.1139 -2.3593
  553MOL0     H74640   4.084   9.365   6.146  0.7499 -0.0473  0.5526
  553MOL0     H74641   4.471   9.570   6.213  1.3870  0.5835  0.0066
  553MOL0     H74642   4.697   9.549   6.352 -1.9760 -0.2314 -2.2847
  553MOL0     H74643   4.680   9.450   6.764 -1.0779 -0.2898  0.4224
  553MOL0     H74644   4.695   9.631   6.792  0.5722  0.1525 -0.1337
  553MOL0     H74645   4.917   9.446   6.715 -0.1154  0.4991 -2.6188
  553MOL0     H74646   4.885   9.533   6.880 -0.9747 -0.4384 -0.1507
  553MOL0     H74647   4.925   9.757   6.760 -0.5698  0.1034  3.3822
  553MOL0     H74648   4.964   9.671   6.618 -0.0663 -0.9176 -0.5969
  553MOL0     H74649   5.147   9.536   6.747 -0.3521 -0.9320  2.9698
  553MOL0     H74650   5.179   9.711   6.732  2.0467  1.4971  4.6164
  553MOL0     H74651   5.147   9.688   7.149 -1.1600 -0.2173  0.1927
  553MOL0     H74652   4.475   9.550   6.712 -1.0226  0.5586 -0.3586
  553MOL0     H74653   4.257   9.589   6.740 -0.0104  2.1706  0.2007
  553MOL0     H74654   4.154   9.642   6.612  2.6674  0.9987 -2.3346
  553MOL0     H74655   4.190   9.467   6.626  1.4281 -0.1410 -1.3816
  554MOL0     O74656   0.756   9.084  10.146 -0.0031  0.0702 -0.3165
  554MOL0     C74657   0.879   9.044  10.129  0.2962 -0.8091 -0.6685
  554MOL0     O74658   0.977   9.128  10.106  0.0753 -0.0535 -0.0129
  554MOL0     C74659   0.967   9.258  10.086 -0.8035  1.1344  0.1915
  554MOL0     C74660   1.034   9.311   9.977 -0.3035  0.2826 -0.6905
  554MOL0     C74661   1.026   9.450   9.945  0.1741 -0.6331 -0.2045
  554MOL0     C74662   0.967   9.537  10.030  0.9391 -0.2415 -0.2004
  554MOL0     O74663   0.977   9.667   9.998 -0.4047 -0.4965  0.0016
  554MOL0     C74664   0.904   9.763  10.075  0.1105  0.1771  0.1499
  554MOL0     C74665   1.003   9.854  10.126  0.3513 -0.8963  0.1984
  554MOL0     C74666   0.942   9.968  10.206  0.2088 -0.9721  0.5330
  554MOL0     C74667   1.059  10.052  10.262  0.1974  0.0264 -0.8910
  554MOL0     C74668   0.990  10.179  10.320 -0.4698  0.2342  0.0794
  554MOL0     C74669   0.994  10.288  10.214 -0.4932  0.1840  0.0635
  554MOL0     C74670   0.938  10.414  10.280 -0.1892  0.3814  0.0319
  554MOL0     C74671   0.910  10.514  10.162 -1.2309 -0.8820  0.2694
  554MOL0     N74672   1.028  10.602  10.120  0.5082  0.0575 -0.5573
  554MOL0     C74673   1.131  10.567  10.040 -0.4331  0.1739  0.2483
  554MOL0     C74674   1.180  10.685   9.986 -0.0948  0.2894  0.3175
  554MOL0     C74675   1.293  10.722   9.896 -0.5525 -0.2004 -0.2472
  554MOL0     C74676   1.398  10.616   9.897  0.9935 -0.0753 -0.2234
  554MOL0     C74677   1.513  10.651   9.807 -0.5229  0.1086  0.0598
  554MOL0     C74678   1.626  10.548   9.822  0.4332 -0.1352 -0.2211
  554MOL0     O74679   1.668  10.514   9.960 -0.2643  0.1781  0.0811
  554MOL0     C74680   1.770  10.587  10.018 -0.7503  0.0686 -1.0327
  554MOL0     C74681   1.762  10.590  10.165 -0.3837 -0.1881  0.0500
  554MOL0     C74682   1.852  10.680  10.228 -0.5023 -0.3802  0.0507
  554MOL0     C74683   1.958  10.751  10.162 -0.0636  1.0677  0.1228
  554MOL0     C74684   2.058  10.825  10.221  0.0940  0.7832  0.3652
  554MOL0     O74685   2.057  10.826  10.356 -0.7014  0.2662  0.6166
  554MOL0     C74686   2.178  10.860  10.416 -0.1307 -0.1781  0.0521
  554MOL0     C74687   2.168  10.953  10.521  0.6447  0.0705  0.0874
  554MOL0     C74688   2.286  10.992  10.581  0.2837  0.3722  0.2482
  554MOL0     C74689   2.407  10.920  10.571  0.9555 -0.3192  0.6979
  554MOL0     O74690   2.513  10.953  10.645  0.2102 -1.0314 -0.6268
  554MOL0     C74691   2.508  10.892  10.774  0.2594  0.7715 -0.2770
  554MOL0     C74692   2.600  10.769  10.787 -0.1944  0.2484 -0.3192
  554MOL0     C74693   2.746  10.818  10.801  0.8596  0.0208 -0.9654
  554MOL0     C74694   2.843  10.730  10.892  0.0081 -0.1193 -0.2396
  554MOL0     C74695   2.908  10.622  10.810 -0.0839  0.3796  0.3479
  554MOL0     C74696   3.028  10.557  10.855  0.1160 -0.9457  0.3932
  554MOL0     C74697   3.078  10.456  10.755 -0.0116  0.5408  0.6122
  554MOL0     C74698   2.991  10.328  10.758  0.2820 -0.4455 -0.1969
  554MOL0    Cl74699   3.086  10.217  10.653  0.3696  0.0150 -0.3552
  554MOL0     C74700   2.413  10.821  10.474  0.4171  0.0934  0.3424
  554MOL0     C74701   2.307  10.798  10.393 -0.0255 -0.5455 -0.5036
  554MOL0     O74702   2.139  10.884  10.143 -0.2053  0.2323  0.0398
  554MOL0     C74703   1.952  10.731  10.022 -0.6444 -1.1095  0.0760
  554MOL0     C74704   1.862  10.660   9.951 -0.1981  0.5853 -0.4879
  554MOL0     N74705   1.111  10.788  10.038  0.0203 -0.4030 -0.7562
  554MOL0     N74706   1.023  10.743  10.117  0.2299  0.7160 -0.0409
  554MOL0     C74707   0.908   9.479  10.148 -0.4626 -0.1514  0.0246
  554MOL0     C74708   0.905   9.347  10.183 -0.2704 -0.1835 -0.5176
  554MOL0     C74709   0.899   8.900  10.106 -0.1156  0.3372  0.0916
  554MOL0     C74710   1.025   8.868  10.049  0.3743  0.2166 -0.4578
  554MOL0     C74711   1.049   8.737   9.996 -1.0095 -0.3793  0.0487
  554MOL0     C74712   0.950   8.638  10.006  0.2228 -0.0061  0.3572
  554MOL0     O74713   0.975   8.514   9.951  0.1816 -0.0901  0.2621
  554MOL0     C74714   0.966   8.515   9.807 -0.1576 -0.7958 -0.4724
  554MOL0     C74715   0.825   8.479   9.772  0.8274  0.2574 -0.5317
  554MOL0     C74716   0.762   8.353   9.840 -0.3237  0.2328  0.6286
  554MOL0     C74717   0.851   8.232   9.844  0.1294 -0.4217 -0.0195
  554MOL0     C74718   0.781   8.123   9.909  0.4673  0.4922 -0.2458
  554MOL0     C74719   0.717   8.033   9.959 -0.1247  0.0480 -0.2182
  554MOL0     C74720   0.827   8.667  10.072 -0.6084 -0.0924  0.6092
  554MOL0     C74721   0.802   8.796  10.130  0.0441  0.0677 -0.3820
  554MOL0     C74722   0.668   8.831  10.201  0.5920  0.2040  0.2793
  554MOL0     H74723   1.085   9.237   9.916 -2.1428 -1.6424 -0.0489
  554MOL0     H74724   1.085   9.496   9.866  0.0715 -2.8204 -1.6649
  554MOL0     H74725   0.838   9.812  10.003  2.7303  1.2833 -1.6191
  554MOL0     H74726   0.834   9.726  10.151 -1.1147 -0.0347 -1.0360
  554MOL0     H74727   1.056   9.888  10.037  1.2488 -1.5280  0.4737
  554MOL0     H74728   1.081   9.806  10.187 -0.8765 -1.5407  1.3054
  554MOL0     H74729   0.893   9.927  10.295 -1.5448  2.8351  1.5066
  554MOL0     H74730   0.866  10.022  10.149  0.8313  0.7808  1.3081
  554MOL0     H74731   1.114  10.004  10.343 -0.9685 -0.5441 -0.4110
  554MOL0     H74732   1.127  10.075  10.180  0.3117  1.0164 -0.5270
  554MOL0     H74733   0.888  10.154  10.351  0.4276 -0.9842  2.2044
  554MOL0     H74734   1.040  10.205  10.414  0.6947  2.1107 -1.0020
  554MOL0     H74735   1.100  10.305  10.190 -0.0900 -1.0204  0.8777
  554MOL0     H74736   0.941  10.263  10.122  1.7449  0.6102 -1.4147
  554MOL0     H74737   1.014  10.452  10.348  4.6959 -4.0171 -2.2536
  554MOL0     H74738   0.852  10.382  10.341  1.9101 -1.5075  2.2235
  554MOL0     H74739   0.869  10.466  10.072 -3.3429  2.2646 -0.6223
  554MOL0     H74740   0.848  10.599  10.191  2.4502  2.4893 -0.8940
  554MOL0     H74741   1.171  10.468  10.021  0.7901  0.7727 -0.3771
  554MOL0     H74742   1.255  10.742   9.795 -0.8429  2.1239  0.2644
  554MOL0     H74743   1.330  10.816   9.936 -0.8499 -0.8433  1.6190
  554MOL0     H74744   1.429  10.590   9.998 -0.4419 -3.7859 -0.5777
  554MOL0     H74745   1.351  10.524   9.859  0.8166  0.0125 -0.2200
  554MOL0     H74746   1.564  10.743   9.836  0.2968 -0.4269  0.3863
  554MOL0     H74747   1.468  10.654   9.708 -0.4961 -2.8327 -0.1402
  554MOL0     H74748   1.709  10.580   9.758  0.5076  2.6820  1.1327
  554MOL0     H74749   1.585  10.461   9.770 -4.4587  2.4292 -1.3147
  554MOL0     H74750   1.690  10.520  10.207 -3.8036  1.6105 -2.3084
  554MOL0     H74751   1.853  10.679  10.337  1.9153 -3.2173  0.1340
  554MOL0     H74752   2.077  11.007  10.545  0.7552 -0.2478  1.2554
  554MOL0     H74753   2.299  11.047  10.674  1.8568 -0.4881  0.5831
  554MOL0     H74754   2.545  10.963  10.849  1.1408  0.6040 -0.5473
  554MOL0     H74755   2.405  10.872  10.804  0.1260 -0.5856 -1.5310
  554MOL0     H74756   2.568  10.712  10.874 -0.6796  1.2237  0.1631
  554MOL0     H74757   2.595  10.703  10.701  1.5566 -0.2571 -0.0680
  554MOL0     H74758   2.778  10.826  10.697  0.7323 -2.2004 -1.2155
  554MOL0     H74759   2.752  10.922  10.834 -1.1395  0.2041 -1.0810
  554MOL0     H74760   2.790  10.687  10.977  1.2123 -1.7702 -0.3015
  554MOL0     H74761   2.929  10.788  10.926 -0.0993 -0.5548  0.8008
  554MOL0     H74762   2.937  10.664  10.714  2.2778 -1.6887  0.0216
  554MOL0     H74763   2.836  10.540  10.801 -0.6262  0.7553  1.1639
  554MOL0     H74764   3.102  10.630  10.891  0.6244 -0.4500 -1.5664
  554MOL0     H74765   2.998  10.507  10.948 -0.3753  0.9326  1.2926
  554MOL0     H74766   3.177  10.431  10.796  0.7088  0.4762 -1.1042
  554MOL0     H74767   3.082  10.504  10.657 -1.1514  0.0867  0.3304
  554MOL0     H74768   2.974  10.292  10.859 -0.4049  0.9694  0.2229
  554MOL0     H74769   2.892  10.345  10.714 -0.7270 -0.3440  2.0063
  554MOL0     H74770   2.508  10.774  10.452  0.0815 -0.6400  0.4258
  554MOL0     H74771   2.302  10.728  10.311 -4.0258 -1.5639  0.3950
  554MOL0     H74772   2.020  10.778   9.952 -4.3571  2.4268 -1.5477
  554MOL0     H74773   1.870  10.659   9.843 -2.3935 -0.0260 -0.6899
  554MOL0     H74774   0.861   9.547  10.219  1.0707  0.6123  0.3501
  554MOL0     H74775   0.864   9.293  10.268 -0.0499 -0.4542 -0.5831
  554MOL0     H74776   1.108   8.937  10.055 -0.0413  0.6256  0.8393
  554MOL0     H74777   1.147   8.714   9.955 -0.0174 -3.5716  3.6033
  554MOL0     H74778   1.038   8.448   9.758  0.6376 -0.4966  0.2582
  554MOL0     H74779   1.001   8.608   9.762  0.1001 -1.0308 -0.7645
  554MOL0     H74780   0.815   8.470   9.664 -0.2162  3.2602 -0.7890
  554MOL0     H74781   0.772   8.571   9.800  0.6106 -0.6658  2.3701
  554MOL0     H74782   0.666   8.329   9.794 -0.6249  0.6950  1.0192
  554MOL0     H74783   0.729   8.383   9.940 -1.3075  0.5891  0.2116
  554MOL0     H74784   0.876   8.197   9.743  1.9587  2.5225 -0.7055
  554MOL0     H74785   0.948   8.233   9.894  2.0993 -0.3521 -3.5033
  554MOL0     H74786   0.658   7.959  10.008 -0.8979  0.8924  0.1669
  554MOL0     H74787   0.759   8.585  10.093 -1.6831  1.1134  2.1495
  554MOL0     H74788   0.681   8.868  10.303 -1.9316  0.4184  0.5868
  554MOL0     H74789   0.612   8.912  10.154  2.1474  2.5598  2.2078
  554MOL0     H74790   0.597   8.749  10.207 -0.0382  0.7886  1.0446
  555MOL0     O74791   6.841  10.596   4.756  0.5748 -0.4442 -0.2833
  555MOL0     C74792   6.751  10.666   4.705 -0.2697  0.3598  0.2708
  555MOL0     O74793   6.767  10.789   4.647 -0.2258 -0.1543  0.0242
  555MOL0     C74794   6.892  10.844   4.658 -0.2977  0.0558  0.7443
  555MOL0     C74795   7.014  10.794   4.609 -0.0001 -0.4268 -0.2655
  555MOL0     C74796   7.133  10.865   4.635  0.0798 -0.7739  0.2047
  555MOL0     C74797   7.125  10.981   4.713 -0.0332 -0.4000  0.0249
  555MOL0     O74798   7.244  11.034   4.754 -0.0426  0.3883 -0.3414
  555MOL0     C74799   7.365  10.964   4.775  0.8057 -0.2389  0.2554
  555MOL0     C74800   7.473  11.069   4.800  1.1300 -0.0202  0.2632
  555MOL0     C74801   7.592  11.013   4.880 -1.6697  1.0436 -1.0303
  555MOL0     C74802   7.705  11.120   4.928  0.1189  0.1201  0.0482
  555MOL0     C74803   7.698  11.164   5.080 -0.2181 -0.2778 -0.3162
  555MOL0     C74804   7.755  11.065   5.174 -0.6166 -0.2655  0.1653
  555MOL0     C74805   7.801  11.112   5.318 -0.2876  0.1112 -0.1888
  555MOL0     C74806   7.904  11.012   5.390 -0.9901 -0.0326 -0.1546
  555MOL0     N74807   7.822  10.903   5.441 -0.0214 -1.0536 -0.0926
  555MOL0     C74808   7.780  10.904   5.574 -0.2132 -0.0828  0.1559
  555MOL0     C74809   7.761  10.775   5.606 -0.0168 -0.1190  0.5836
  555MOL0     C74810   7.730  10.750   5.742 -0.3634  0.8490  0.0959
  555MOL0     C74811   7.868  10.725   5.806  0.5358 -0.3547 -0.6983
  555MOL0     C74812   7.849  10.726   5.962 -0.1954 -0.3178 -0.2613
  555MOL0     C74813   7.827  10.863   6.035  0.8043 -0.3813  1.3264
  555MOL0     O74814   7.958  10.925   6.052  0.7123 -0.2307 -0.2906
  555MOL0     C74815   8.015  10.999   5.946  0.0730 -0.7624  0.2742
  555MOL0     C74816   7.940  11.062   5.842 -0.2831  0.2473  0.2523
  555MOL0     C74817   8.009  11.127   5.748 -0.1439 -0.5833  0.6723
  555MOL0     C74818   8.150  11.138   5.735  0.0142  0.3030 -0.2714
  555MOL0     C74819   8.235  11.203   5.632  0.7926  0.0625 -0.2774
  555MOL0     O74820   8.377  11.195   5.651 -0.0368 -1.3696  0.1546
  555MOL0     C74821   8.442  11.206   5.527 -0.0855 -0.6211 -0.1750
  555MOL0     C74822   8.446  11.323   5.446 -0.0651 -0.2295 -0.1468
  555MOL0     C74823   8.516  11.321   5.319  0.2164 -1.1001 -0.1576
  555MOL0     C74824   8.583  11.205   5.279 -0.4360 -0.4393 -0.2489
  555MOL0     O74825   8.660  11.186   5.162  0.1693  0.5162  0.1074
  555MOL0     C74826   8.700  11.307   5.101 -0.0772  0.0999  0.0474
  555MOL0     C74827   8.750  11.273   4.961 -0.5914 -0.2637 -0.3112
  555MOL0     C74828   8.833  11.375   4.893  0.0462  0.0077 -0.3468
  555MOL0     C74829   8.840  11.342   4.742  0.5217 -1.1082  0.1595
  555MOL0     C74830   8.840  11.482   4.663 -0.5302 -0.0724 -0.8450
  555MOL0     C74831   8.985  11.560   4.662  0.2414 -0.0527  0.3277
  555MOL0     C74832   8.990  11.641   4.536 -0.1638  0.3206 -0.0747
  555MOL0     C74833   9.115  11.713   4.519 -0.1900  0.4718  0.7664
  555MOL0    Cl74834   9.261  11.607   4.563  0.2944 -0.3156  0.3772
  555MOL0     C74835   8.584  11.096   5.368 -0.0151  0.3719 -0.2118
  555MOL0     C74836   8.517  11.097   5.485 -0.4077  0.4437  0.4164
  555MOL0     O74837   8.173  11.242   5.533 -0.7455  0.2899 -0.0848
  555MOL0     C74838   8.222  11.070   5.839  0.6137  0.7301 -0.8436
  555MOL0     C74839   8.159  11.007   5.952  0.2400  0.7775  0.7140
  555MOL0     N74840   7.796  10.698   5.496  0.6682  0.8900 -0.7821
  555MOL0     N74841   7.831  10.777   5.391  0.3471 -0.0200 -0.0372
  555MOL0     C74842   7.005  11.033   4.762  0.2973  0.4994 -0.0949
  555MOL0     C74843   6.888  10.964   4.726  0.4225  0.6500  0.4435
  555MOL0     C74844   6.617  10.619   4.733 -0.6623  0.3790 -0.0066
  555MOL0     C74845   6.592  10.552   4.859  0.9153 -0.2378  0.1256
  555MOL0     C74846   6.463  10.518   4.903 -0.8569  0.5954 -0.1192
  555MOL0     C74847   6.356  10.535   4.819 -1.2869  0.6148 -0.3351
  555MOL0     O74848   6.228  10.506   4.852 -0.0121 -0.1980 -0.5117
  555MOL0     C74849   6.150  10.622   4.873 -0.2915  0.2497 -0.6618
  555MOL0     C74850   6.012  10.593   4.937  1.4965  0.0741 -0.1201
  555MOL0     C74851   6.010  10.485   5.044  0.7305 -0.5136 -0.4711
  555MOL0     C74852   5.867  10.421   5.059  0.5759  0.2630 -0.0806
  555MOL0     C74853   5.771  10.519   5.113  0.8668 -0.3908  0.0311
  555MOL0     C74854   5.698  10.614   5.151 -0.0034 -0.5333 -0.8876
  555MOL0     C74855   6.384  10.605   4.697  0.0192  0.0334  0.2808
  555MOL0     C74856   6.511  10.645   4.646  1.1490  0.0252 -0.8085
  555MOL0     C74857   6.531  10.712   4.512  0.1666 -0.1594  0.1462
  555MOL0     H74858   7.033  10.708   4.545  1.5590 -0.1925 -0.1723
  555MOL0     H74859   7.220  10.819   4.591 -0.3959 -1.7876  0.3103
  555MOL0     H74860   7.364  10.896   4.860 -0.4903 -0.3695  0.1485
  555MOL0     H74861   7.398  10.913   4.684 -1.2641  2.8681 -2.4578
  555MOL0     H74862   7.427  11.149   4.859 -1.5647 -1.0072 -0.3500
  555MOL0     H74863   7.521  11.095   4.705  0.7845  1.0914  0.3807
  555MOL0     H74864   7.640  10.927   4.834  1.0726  0.3189  2.7476
  555MOL0     H74865   7.561  10.979   4.979  3.2244  1.7218  0.9955
  555MOL0     H74866   7.809  11.092   4.911  0.3750  2.0200 -1.9561
  555MOL0     H74867   7.686  11.208   4.866  0.9226 -0.1967 -0.6675
  555MOL0     H74868   7.750  11.260   5.090 -0.0978 -0.1857 -1.6897
  555MOL0     H74869   7.594  11.183   5.110  0.3496  1.5796  0.6255
  555MOL0     H74870   7.679  10.987   5.181  0.3349 -1.4907 -2.2048
  555MOL0     H74871   7.846  11.013   5.142  0.5342  0.3136  2.2943
  555MOL0     H74872   7.714  11.121   5.383  1.4581 -2.0327  2.6876
  555MOL0     H74873   7.858  11.206   5.311  0.8814 -0.5589  0.0048
  555MOL0     H74874   7.976  10.975   5.316 -0.8529 -1.0402  0.4717
  555MOL0     H74875   7.963  11.054   5.472 -1.8522 -1.7294  1.3786
  555MOL0     H74876   7.765  10.982   5.649  1.3460 -0.1654  0.5881
  555MOL0     H74877   7.673  10.834   5.784 -2.9286 -0.4424 -0.5815
  555MOL0     H74878   7.670  10.659   5.752  1.9656 -0.5827  2.3449
  555MOL0     H74879   7.907  10.629   5.773  1.8872  0.7087 -2.3638
  555MOL0     H74880   7.945  10.799   5.781  1.2350 -0.1027  1.8381
  555MOL0     H74881   7.934  10.682   6.014  1.2607  0.0007 -2.2361
  555MOL0     H74882   7.771  10.655   5.988  0.8955 -1.1172  0.9525
  555MOL0     H74883   7.776  10.855   6.131  0.4602  0.9148  1.2631
  555MOL0     H74884   7.763  10.933   5.982  1.1440 -0.7061  0.4574
  555MOL0     H74885   7.832  11.069   5.842 -0.2456  0.9515 -0.4599
  555MOL0     H74886   7.955  11.169   5.663  2.0252 -2.9892 -2.0993
  555MOL0     H74887   8.382  11.406   5.473 -0.1277  0.7640 -3.0515
  555MOL0     H74888   8.520  11.416   5.267  2.3031 -0.1271  1.5846
  555MOL0     H74889   8.625  11.386   5.097  0.7658  1.0725  2.0361
  555MOL0     H74890   8.786  11.347   5.155  1.2805 -1.3863 -0.9233
  555MOL0     H74891   8.824  11.193   4.955  1.0173  1.2307 -1.6018
  555MOL0     H74892   8.656  11.261   4.906 -2.3474  0.2288  2.4108
  555MOL0     H74893   8.780  11.468   4.917  2.0912  1.1930 -0.2326
  555MOL0     H74894   8.934  11.385   4.932 -0.2321  0.8120  0.2108
  555MOL0     H74895   8.752  11.282   4.720 -0.8012  0.4030  1.0991
  555MOL0     H74896   8.926  11.288   4.701  0.4628  1.2012 -3.4365
  555MOL0     H74897   8.765  11.550   4.702 -1.0976 -0.9619 -0.3486
  555MOL0     H74898   8.825  11.445   4.561  3.0294  0.8071 -1.8369
  555MOL0     H74899   8.988  11.624   4.751 -1.5412  1.5854 -0.7061
  555MOL0     H74900   9.074  11.497   4.670  1.1141  1.1625  0.3973
  555MOL0     H74901   8.908  11.712   4.528  0.9441  1.4367 -3.4106
  555MOL0     H74902   8.969  11.570   4.455 -0.8639  0.5653 -0.1122
  555MOL0     H74903   9.129  11.737   4.413  2.0892 -1.4430  0.5552
  555MOL0     H74904   9.124  11.808   4.572 -1.8132  0.4102  1.2228
  555MOL0     H74905   8.629  11.001   5.344 -3.5420 -1.1595 -1.3662
  555MOL0     H74906   8.526  11.016   5.557  4.9361  0.3288  0.0513
  555MOL0     H74907   8.330  11.068   5.829  0.5982 -1.6127 -1.0789
  555MOL0     H74908   8.216  10.961   6.032 -0.8261 -1.6104  0.1720
  555MOL0     H74909   7.007  11.126   4.818  4.2304  0.5240 -0.0419
  555MOL0     H74910   6.792  11.005   4.756 -0.9327  0.4110 -3.1043
  555MOL0     H74911   6.673  10.531   4.928  0.6387 -1.5924  0.0635
  555MOL0     H74912   6.445  10.474   5.001 -0.5645 -2.3141 -1.2874
  555MOL0     H74913   6.140  10.687   4.785  0.6986  0.7691 -0.4057
  555MOL0     H74914   6.203  10.683   4.947 -1.5179 -2.1702  2.4027
  555MOL0     H74915   5.944  10.549   4.864  0.4371  1.0800  0.2326
  555MOL0     H74916   5.960  10.682   4.971  0.5075 -1.4220  2.6374
  555MOL0     H74917   6.031  10.527   5.143  0.0827 -1.8036  0.2445
  555MOL0     H74918   6.079  10.403   5.019 -1.3981 -2.2307 -0.9806
  555MOL0     H74919   5.836  10.373   4.966  2.1282 -1.2647  0.1430
  555MOL0     H74920   5.859  10.346   5.138 -3.6584  2.9364  2.3953
  555MOL0     H74921   5.639  10.702   5.167  0.2247 -0.2831 -1.3767
  555MOL0     H74922   6.293  10.630   4.643 -1.1668 -0.6965  1.8653
  555MOL0     H74923   6.609  10.658   4.458 -0.9165 -0.6832 -0.9620
  555MOL0     H74924   6.451  10.692   4.440  1.2119 -3.7375 -0.2234
  555MOL0     H74925   6.544  10.818   4.533 -2.2129 -0.2733  2.8224
  556MOL0     O74926   3.899  10.974   0.833 -0.3906 -0.0896 -0.1076
  556MOL0     C74927   3.947  11.077   0.794 -0.4859 -0.1657 -0.1124
  556MOL0     O74928   4.078  11.087   0.753  0.7506  0.1104  0.2194
  556MOL0     C74929   4.155  10.979   0.720 -0.1052  0.7495 -0.9546
  556MOL0     C74930   4.103  10.865   0.650  0.1020 -1.1057  0.0389
  556MOL0     C74931   4.184  10.759   0.615 -0.7220  0.5770 -0.0941
  556MOL0     C74932   4.319  10.760   0.651 -0.3769 -0.0458 -0.2715
  556MOL0     O74933   4.409  10.660   0.631  0.1067  0.2979  0.1208
  556MOL0     C74934   4.377  10.558   0.535  0.2640  0.1214  0.1229
  556MOL0     C74935   4.504  10.502   0.460  0.1791 -0.8358 -0.3335
  556MOL0     C74936   4.591  10.451   0.575  0.1248  0.0409  0.7726
  556MOL0     C74937   4.739  10.482   0.560  0.5204 -0.5281 -0.7756
  556MOL0     C74938   4.823  10.379   0.642 -1.1360 -0.5230 -0.2559
  556MOL0     C74939   4.945  10.341   0.552 -0.1893 -0.2330  0.2541
  556MOL0     C74940   5.046  10.247   0.629  0.0467  0.6020  0.8429
  556MOL0     C74941   5.140  10.169   0.534  0.3760 -0.3546  1.1632
  556MOL0     N74942   5.232  10.249   0.454  0.2521 -0.5955 -0.1770
  556MOL0     C74943   5.238  10.268   0.322 -0.4366  0.2298 -0.0126
  556MOL0     C74944   5.353  10.345   0.304 -0.1078  0.1950  0.3840
  556MOL0     C74945   5.406  10.416   0.185 -0.5822 -0.5904 -0.6020
  556MOL0     C74946   5.538  10.364   0.116  0.0494 -0.2766 -0.1083
  556MOL0     C74947   5.608  10.461   0.009 -0.9184  0.4980 -0.1237
  556MOL0     C74948   5.734  10.531   0.070 -0.6020 -0.5403  0.2464
  556MOL0     O74949   5.819  10.585  -0.026 -0.1782 -0.2047  0.0201
  556MOL0     C74950   5.924  10.513  -0.064  0.0543 -0.0099 -0.1682
  556MOL0     C74951   6.043  10.559  -0.014 -0.2307  0.6799  0.7818
  556MOL0     C74952   6.166  10.499  -0.057 -0.7202 -0.9337 -0.1933
  556MOL0     C74953   6.162  10.401  -0.157  0.0274 -1.0567  0.2927
  556MOL0     C74954   6.288  10.334  -0.217  0.9947 -1.2269  0.4982
  556MOL0     O74955   6.263  10.218  -0.281 -0.7779  0.9788 -0.6837
  556MOL0     C74956   6.372  10.140  -0.315  0.6969 -0.2632  0.4523
  556MOL0     C74957   6.471  10.093  -0.230  0.9338 -0.2375  0.9495
  556MOL0     C74958   6.570  10.018  -0.286 -0.3504  0.3165  0.5723
  556MOL0     C74959   6.582   9.988  -0.428 -0.2653  0.8699  0.1577
  556MOL0     O74960   6.681   9.900  -0.456  0.1300  0.2868 -0.5441
  556MOL0     C74961   6.707   9.870  -0.600 -0.3593 -0.7454 -0.3292
  556MOL0     C74962   6.752   9.995  -0.679  0.8664  0.0334 -0.2250
  556MOL0     C74963   6.795   9.962  -0.831 -0.5788  0.5263 -0.9045
  556MOL0     C74964   6.865  10.085  -0.895  0.0236 -0.1939 -0.3735
  556MOL0     C74965   6.908  10.050  -1.039 -0.5705  0.5524 -0.1075
  556MOL0     C74966   6.960  10.164  -1.128  0.0970  0.1292 -2.0045
  556MOL0     C74967   7.091  10.224  -1.080 -1.1674 -0.0174  0.1324
  556MOL0     C74968   7.202  10.122  -1.116  0.5805 -0.0930  1.4965
  556MOL0    Cl74969   7.208  10.119  -1.295 -0.0598 -0.4350 -0.0147
  556MOL0     C74970   6.475  10.018  -0.503 -0.8948  0.4955 -0.2849
  556MOL0     C74971   6.378  10.103  -0.452  0.7997 -0.4330  0.0078
  556MOL0     O74972   6.396  10.383  -0.199 -0.4168  0.1650  0.0931
  556MOL0     C74973   6.036  10.363  -0.210 -0.6766  0.6428 -0.0418
  556MOL0     C74974   5.916  10.413  -0.160 -0.0266 -0.9325 -0.1570
  556MOL0     N74975   5.419  10.357   0.419 -1.8399 -0.9508  0.7850
  556MOL0     N74976   5.348  10.289   0.503 -0.1511 -1.5792 -0.4975
  556MOL0     C74977   4.367  10.867   0.714 -0.0566  0.0920  0.5388
  556MOL0     C74978   4.288  10.974   0.759 -0.0493  0.2906  0.0866
  556MOL0     C74979   3.879  11.202   0.804  0.2913 -1.0688  0.4771
  556MOL0     C74980   3.941  11.316   0.861 -0.1840 -0.1798 -0.2608
  556MOL0     C74981   3.873  11.439   0.871  0.2425  0.0541  0.5536
  556MOL0     C74982   3.738  11.448   0.830  0.3017 -0.3048 -0.4514
  556MOL0     O74983   3.677  11.574   0.832 -0.0170  0.1865  0.4489
  556MOL0     C74984   3.559  11.603   0.760  0.8694 -0.0595 -0.5234
  556MOL0     C74985   3.575  11.741   0.689 -0.0349 -0.1407  0.2097
  556MOL0     C74986   3.546  11.858   0.788  0.2278  0.8689  0.7524
  556MOL0     C74987   3.579  11.990   0.719  0.7426 -0.6638  0.1429
  556MOL0     C74988   3.486  12.016   0.601 -0.4007  0.9688  0.1243
  556MOL0     C74989   3.416  12.059   0.512 -0.2523  0.7227 -0.1607
  556MOL0     C74990   3.674  11.329   0.783  0.6899 -0.1587  0.4089
  556MOL0     C74991   3.746  11.211   0.764  0.5106 -0.2006  0.0966
  556MOL0     C74992   3.680  11.090   0.699  0.3284  0.2971  0.3964
  556MOL0     H74993   3.998  10.864   0.622  0.3433  0.2564 -1.0312
  556MOL0     H74994   4.133  10.681   0.559 -0.2668  2.2413 -3.0608
  556MOL0     H74995   4.317  10.480   0.582 -2.5426  1.3498 -1.2120
  556MOL0     H74996   4.319  10.593   0.450  1.1658  0.5761 -0.3256
  556MOL0     H74997   4.558  10.581   0.406  0.5318 -0.7131  0.1910
  556MOL0     H74998   4.479  10.417   0.396  0.3471 -2.0701  1.2060
  556MOL0     H74999   4.588  10.342   0.564 -0.5506  0.1874 -0.6931
  556MOL0     H75000   4.560  10.473   0.678 -0.7196  0.2371  0.4830
  556MOL0     H75001   4.761  10.503   0.455 -2.0115  3.4766 -0.6869
  556MOL0     H75002   4.741  10.585   0.598  0.5204 -0.0830 -1.9504
  556MOL0     H75003   4.869  10.420   0.732  0.3727 -0.1997 -1.1496
  556MOL0     H75004   4.769  10.296   0.689 -0.5059  0.2682  1.9907
  556MOL0     H75005   4.908  10.296   0.460 -0.7977 -1.0306  0.8782
  556MOL0     H75006   4.992  10.434   0.517 -1.1607 -0.0324 -0.5363
  556MOL0     H75007   4.980  10.192   0.696  1.4924 -2.3713 -0.0266
  556MOL0     H75008   5.110  10.313   0.688 -1.4869  0.6513  2.5489
  556MOL0     H75009   5.214  10.107   0.585  2.0842 -1.0859 -1.9667
  556MOL0     H75010   5.086  10.093   0.477  2.1570  0.5300 -1.9619
  556MOL0     H75011   5.163  10.234   0.251 -0.8116 -0.9249  0.9022
  556MOL0     H75012   5.325  10.422   0.112 -0.0057 -1.3219 -1.3249
  556MOL0     H75013   5.424  10.515   0.229  2.4573 -0.3544 -2.1080
  556MOL0     H75014   5.616  10.337   0.189 -0.2383 -1.5377 -0.2350
  556MOL0     H75015   5.504  10.278   0.057 -2.0842  2.0211 -2.4498
  556MOL0     H75016   5.541  10.541  -0.025  1.3885  2.1578 -0.9858
  556MOL0     H75017   5.640  10.414  -0.085  0.5189  0.5385  0.3329
  556MOL0     H75018   5.796  10.463   0.130 -0.4035  0.0376  0.7079
  556MOL0     H75019   5.700  10.612   0.135 -2.9722 -0.1514 -1.3703
  556MOL0     H75020   6.053  10.640   0.057  1.5140  1.9577 -0.8130
  556MOL0     H75021   6.263  10.525  -0.017 -0.9135 -0.9686  0.2965
  556MOL0     H75022   6.470  10.119  -0.125  1.7633  5.0118 -0.0622
  556MOL0     H75023   6.649   9.977  -0.224  0.4470  1.6021  0.4559
  556MOL0     H75024   6.788   9.798  -0.592 -1.2943 -1.9384 -1.2648
  556MOL0     H75025   6.616   9.818  -0.631 -1.8910  1.1670  0.7010
  556MOL0     H75026   6.666  10.061  -0.692  0.4541 -0.5448 -0.4524
  556MOL0     H75027   6.838  10.042  -0.629  0.2055  0.2715  0.7087
  556MOL0     H75028   6.866   9.879  -0.830 -1.4136 -0.5138  4.3051
  556MOL0     H75029   6.710   9.921  -0.886 -2.8365  1.9292  1.3164
  556MOL0     H75030   6.950  10.124  -0.838  0.5809 -1.5459 -0.2373
  556MOL0     H75031   6.788  10.161  -0.914 -2.7384 -2.8542 -0.6078
  556MOL0     H75032   6.830  10.021  -1.110  0.0746  1.7277 -1.3633
  556MOL0     H75033   6.990   9.977  -1.039 -1.4375 -0.4836 -1.3939
  556MOL0     H75034   6.960  10.130  -1.232  0.6983  1.2026 -2.3736
  556MOL0     H75035   6.880  10.239  -1.121  0.7473  0.8023 -1.6236
  556MOL0     H75036   7.078  10.242  -0.973 -1.6080  0.2785  0.0319
  556MOL0     H75037   7.107  10.325  -1.119 -0.6157  0.2375  1.0207
  556MOL0     H75038   7.296  10.155  -1.072  3.8325 -0.4013 -4.2361
  556MOL0     H75039   7.190  10.017  -1.085 -1.5664 -0.5352 -0.5377
  556MOL0     H75040   6.455   9.985  -0.605 -0.2833  0.7481 -0.4879
  556MOL0     H75041   6.307  10.141  -0.525  0.4956 -0.7756  0.1234
  556MOL0     H75042   6.036  10.277  -0.276 -0.3079  0.7887 -0.2354
  556MOL0     H75043   5.818  10.397  -0.203 -0.1838  0.6246 -0.4098
  556MOL0     H75044   4.470  10.871   0.748 -0.1349 -0.1068  0.7991
  556MOL0     H75045   4.319  11.057   0.821 -2.2165  0.2312  1.3630
  556MOL0     H75046   4.045  11.307   0.892 -0.2072  2.6707  0.9944
  556MOL0     H75047   3.921  11.534   0.895  4.5605 -1.6817 -0.3162
  556MOL0     H75048   3.475  11.609   0.831  0.9994  3.6411 -0.4981
  556MOL0     H75049   3.526  11.530   0.686 -4.8074  1.1004  0.4071
  556MOL0     H75050   3.509  11.745   0.602  0.9412  0.0529 -0.5422
  556MOL0     H75051   3.668  11.760   0.635 -0.1304  0.3119  0.2009
  556MOL0     H75052   3.602  11.856   0.882  5.3848 -0.3793 -1.9477
  556MOL0     H75053   3.438  11.863   0.805 -0.0018  0.3830 -0.4715
  556MOL0     H75054   3.568  12.070   0.793  0.9308  2.4673 -2.9409
  556MOL0     H75055   3.683  11.992   0.687  0.8043 -3.4540 -0.0485
  556MOL0     H75056   3.350  12.087   0.432 -0.2740 -1.6387 -1.0542
  556MOL0     H75057   3.570  11.317   0.754  0.8071 -3.3329  0.9312
  556MOL0     H75058   3.588  11.118   0.648  0.2548 -0.9781 -0.2043
  556MOL0     H75059   3.739  11.031   0.628  0.2484  0.8616 -0.1466
  556MOL0     H75060   3.648  11.026   0.782  4.2106 -1.9644  0.3870
  557MOL0     O75061   4.802  10.486   2.549 -0.3114  0.2128 -0.0767
  557MOL0     C75062   4.755  10.417   2.460  0.3866 -0.6665  0.1053
  557MOL0     O75063   4.814  10.301   2.423  0.6125  0.5555  0.0974
  557MOL0     C75064   4.936  10.262   2.473  0.0770 -0.0375  0.3907
  557MOL0     C75065   4.960  10.223   2.605 -0.0154  0.7768 -0.9082
  557MOL0     C75066   5.077  10.169   2.635 -0.8266  0.0948  0.9567
  557MOL0     C75067   5.186  10.170   2.545  0.3420 -0.4632  0.4914
  557MOL0     O75068   5.319  10.157   2.582  0.8084 -0.2122 -0.0640
  557MOL0     C75069   5.408  10.072   2.501  0.1788  0.6606 -0.3962
  557MOL0     C75070   5.545  10.131   2.499 -0.5871 -0.0282  0.6496
  557MOL0     C75071   5.647  10.056   2.413 -0.0751  0.6512 -0.0546
  557MOL0     C75072   5.794  10.105   2.436  0.4340 -0.2133 -0.1080
  557MOL0     C75073   5.891  10.046   2.332  0.1967 -0.1776 -0.5797
  557MOL0     C75074   6.028  10.002   2.396 -0.3000  0.2873 -0.0070
  557MOL0     C75075   6.005   9.887   2.489  0.9185  0.3457  0.3539
  557MOL0     C75076   5.960   9.750   2.415 -1.3319 -0.0054  0.2064
  557MOL0     N75077   6.049   9.731   2.298 -0.8724  0.7726  0.2613
  557MOL0     C75078   6.034   9.770   2.172  0.3384  1.0047 -0.3211
  557MOL0     C75079   6.141   9.723   2.108 -0.7263 -0.9445  0.9953
  557MOL0     C75080   6.169   9.739   1.955 -0.4703  0.1079  0.3224
  557MOL0     C75081   6.286   9.833   1.938 -0.0880  0.3129  0.5133
  557MOL0     C75082   6.329   9.834   1.785 -0.3058  0.1224  0.1579
  557MOL0     C75083   6.454   9.902   1.791  0.3487 -0.2384 -0.0803
  557MOL0     O75084   6.418  10.045   1.815  0.2661  0.0483  0.2247
  557MOL0     C75085   6.510  10.138   1.773 -0.4193 -0.3930 -1.3357
  557MOL0     C75086   6.646  10.110   1.762  0.3771  0.8155 -0.1067
  557MOL0     C75087   6.733  10.215   1.713  0.6989 -0.3624 -0.7675
  557MOL0     C75088   6.683  10.346   1.691  0.1620 -1.1151  0.3137
  557MOL0     C75089   6.782  10.450   1.660 -0.5369 -0.1933  0.6155
  557MOL0     O75090   6.734  10.574   1.634 -0.1127  0.4055 -0.4928
  557MOL0     C75091   6.800  10.693   1.667 -0.9811  0.8986 -0.1427
  557MOL0     C75092   6.931  10.709   1.728 -0.6202 -0.8816 -0.0779
  557MOL0     C75093   6.996  10.828   1.732 -0.5977  0.6189  0.0701
  557MOL0     C75094   6.938  10.951   1.681  0.1773 -0.6332  0.6288
  557MOL0     O75095   6.992  11.076   1.672  0.1472  0.7259  0.1881
  557MOL0     C75096   7.133  11.088   1.704 -0.1461 -0.1934  0.0636
  557MOL0     C75097   7.196  11.219   1.667 -0.0415  0.9630 -0.1654
  557MOL0     C75098   7.132  11.335   1.739  0.1081  0.3623 -1.2958
  557MOL0     C75099   7.210  11.463   1.725 -0.0993 -0.2527  0.1126
  557MOL0     C75100   7.112  11.578   1.742 -0.6202 -0.5155 -0.2070
  557MOL0     C75101   7.173  11.710   1.686  0.1407 -0.8668 -0.0916
  557MOL0     C75102   7.188  11.698   1.528 -0.0683 -0.5405  0.1172
  557MOL0     C75103   7.215  11.841   1.470  1.4597  0.2925 -0.9135
  557MOL0    Cl75104   7.074  11.944   1.472  0.1383  0.5478  0.0223
  557MOL0     C75105   6.809  10.938   1.628 -0.9732 -0.4741 -0.9584
  557MOL0     C75106   6.748  10.811   1.622  0.3430 -0.6447 -0.6133
  557MOL0     O75107   6.898  10.414   1.680  0.0495  0.5238  0.2462
  557MOL0     C75108   6.544  10.367   1.717  0.3788  1.1515  0.3944
  557MOL0     C75109   6.458  10.262   1.745  0.2384 -0.0789  0.0800
  557MOL0     N75110   6.224   9.650   2.193  0.3536 -0.5706 -0.4033
  557MOL0     N75111   6.172   9.665   2.308 -0.4930 -0.3569 -0.4728
  557MOL0     C75112   5.166  10.223   2.418  0.2170 -0.1852 -0.5049
  557MOL0     C75113   5.046  10.277   2.381  0.3152 -0.3592  0.4033
  557MOL0     C75114   4.617  10.462   2.423  0.5470 -0.4949  0.1372
  557MOL0     C75115   4.568  10.583   2.467 -0.5211  0.8632  0.3832
  557MOL0     C75116   4.442  10.630   2.438 -0.3252 -0.5173  0.4623
  557MOL0     C75117   4.346  10.549   2.379 -0.4345 -0.9723  0.2003
  557MOL0     O75118   4.214  10.569   2.333  0.2295  0.2715 -0.1972
  557MOL0     C75119   4.153  10.695   2.357  0.3465 -0.2359  0.5318
  557MOL0     C75120   4.108  10.697   2.504 -0.2407 -0.1888  0.2326
  557MOL0     C75121   3.988  10.791   2.518 -0.0010  0.4064  0.0627
  557MOL0     C75122   3.944  10.825   2.661  0.4109 -1.4905  0.7448
  557MOL0     C75123   3.835  10.924   2.662  0.0995  0.0599 -0.1443
  557MOL0     C75124   3.740  10.993   2.668 -0.5207 -0.1136  0.4298
  557MOL0     C75125   4.391  10.426   2.324 -0.1393  0.2568  0.1131
  557MOL0     C75126   4.525  10.383   2.342 -0.6527 -0.5460 -0.0389
  557MOL0     C75127   4.559  10.245   2.294  0.0819 -0.5519 -0.0802
  557MOL0     H75128   4.883  10.231   2.681  1.4301  0.1843  0.6898
  557MOL0     H75129   5.101  10.126   2.731 -4.3450 -1.2667  1.3799
  557MOL0     H75130   5.411   9.967   2.532 -2.0397 -0.4151 -3.3917
  557MOL0     H75131   5.367  10.054   2.401 -3.1629 -1.1314  1.0981
  557MOL0     H75132   5.576  10.145   2.603 -2.1369  0.0141  1.1314
  557MOL0     H75133   5.543  10.235   2.463 -2.2244 -0.1210  0.4182
  557MOL0     H75134   5.623  10.083   2.309 -0.9328 -3.0679 -0.9903
  557MOL0     H75135   5.636   9.947   2.418  3.2293  0.2596  1.2308
  557MOL0     H75136   5.796  10.214   2.436 -1.2471 -0.1510  0.6300
  557MOL0     H75137   5.817  10.075   2.539 -1.5450 -1.3261  0.0511
  557MOL0     H75138   5.842   9.956   2.294 -0.5384 -0.2877  0.5875
  557MOL0     H75139   5.919  10.120   2.256 -1.9320  1.5225  0.1764
  557MOL0     H75140   6.102   9.966   2.324  0.3257  1.3433  0.0862
  557MOL0     H75141   6.071  10.087   2.451  2.6621 -1.6053  0.8287
  557MOL0     H75142   5.935   9.904   2.572 -0.4342  1.4176 -0.9504
  557MOL0     H75143   6.105   9.877   2.533  0.4755  1.6545  1.7493
  557MOL0     H75144   5.965   9.668   2.487  0.7705  2.0913  2.6355
  557MOL0     H75145   5.855   9.754   2.384 -1.1541 -2.9069 -1.1256
  557MOL0     H75146   5.944   9.818   2.134 -0.8056 -0.0333  0.9714
  557MOL0     H75147   6.197   9.643   1.911 -1.4623  1.0904 -2.7337
  557MOL0     H75148   6.085   9.785   1.903  1.4576 -0.9690 -4.2932
  557MOL0     H75149   6.252   9.934   1.966  1.4584  1.4303 -1.3687
  557MOL0     H75150   6.365   9.800   2.006  0.1956  0.5008  0.2796
  557MOL0     H75151   6.253   9.884   1.725 -2.1371 -2.2199  0.4068
  557MOL0     H75152   6.340   9.732   1.746  2.6279  0.5905 -0.5255
  557MOL0     H75153   6.524   9.893   1.707  0.3029 -2.5930  0.0515
  557MOL0     H75154   6.511   9.852   1.870  0.0558  0.8059  0.8065
  557MOL0     H75155   6.689  10.012   1.778 -0.1782  0.5198 -0.3741
  557MOL0     H75156   6.841  10.203   1.711  1.0536  2.2849 -1.0858
  557MOL0     H75157   6.990  10.622   1.754 -3.1998 -2.3169  1.4490
  557MOL0     H75158   7.096  10.811   1.771  0.4162  1.5353 -2.0107
  557MOL0     H75159   7.147  11.080   1.812  0.8691 -0.2268 -0.0580
  557MOL0     H75160   7.188  11.007   1.655  1.4866  1.5515 -1.1107
  557MOL0     H75161   7.300  11.198   1.690 -0.5712 -2.0542 -0.1701
  557MOL0     H75162   7.178  11.246   1.562  0.2811  1.3788 -0.1162
  557MOL0     H75163   7.030  11.336   1.699 -0.4469  2.6766  0.0085
  557MOL0     H75164   7.125  11.310   1.846  1.4004  1.1500 -1.0102
  557MOL0     H75165   7.248  11.478   1.623 -2.5088  1.6793 -0.6148
  557MOL0     H75166   7.289  11.488   1.797  0.8641 -0.4079 -0.8636
  557MOL0     H75167   7.093  11.586   1.849 -1.2164 -1.4895 -0.2259
  557MOL0     H75168   7.014  11.566   1.696 -0.2154  1.0898 -1.6009
  557MOL0     H75169   7.108  11.793   1.715  0.1209 -0.6403 -0.7806
  557MOL0     H75170   7.270  11.716   1.736 -0.7653 -0.2739  1.6984
  557MOL0     H75171   7.093  11.672   1.480 -0.4831 -1.9572  1.5964
  557MOL0     H75172   7.268  11.632   1.495  0.1567 -1.5525  2.4420
  557MOL0     H75173   7.296  11.888   1.527  0.4711 -0.9979  1.7190
  557MOL0     H75174   7.244  11.837   1.365  1.9521 -2.0728 -0.7473
  557MOL0     H75175   6.770  11.031   1.587 -1.5475  0.1139  0.8121
  557MOL0     H75176   6.655  10.814   1.566  1.0727  2.2701 -1.9180
  557MOL0     H75177   6.506  10.467   1.700 -0.5093  0.9424  1.0399
  557MOL0     H75178   6.350  10.277   1.739  0.1626 -0.3340  0.7523
  557MOL0     H75179   5.242  10.223   2.340 -2.5759 -0.3837 -3.3969
  557MOL0     H75180   5.026  10.322   2.285  0.2503  1.3688  1.1940
  557MOL0     H75181   4.638  10.649   2.517  0.6548 -1.2914  1.7232
  557MOL0     H75182   4.410  10.733   2.450 -1.3363 -0.9004  1.2170
  557MOL0     H75183   4.072  10.714   2.286 -1.0685  0.6653  2.3045
  557MOL0     H75184   4.217  10.783   2.353  1.8148 -1.3020 -1.1120
  557MOL0     H75185   4.190  10.733   2.566  0.9749  1.7340 -2.3014
  557MOL0     H75186   4.079  10.597   2.537 -2.2449  0.1418 -0.3786
  557MOL0     H75187   3.912  10.744   2.456  0.5082  0.4203 -0.5770
  557MOL0     H75188   4.023  10.884   2.471  0.9495 -0.8419 -1.8075
  557MOL0     H75189   3.904  10.725   2.683 -0.4717 -1.3309 -0.0621
  557MOL0     H75190   4.031  10.841   2.725  0.2490  0.2298  0.5654
  557MOL0     H75191   3.668  11.070   2.686  2.6734  2.4204  3.5096
  557MOL0     H75192   4.330  10.366   2.256  0.3977  0.4347 -0.5329
  557MOL0     H75193   4.467  10.196   2.260 -1.7894  1.7902  1.2550
  557MOL0     H75194   4.641  10.266   2.225  0.0535  0.4344  0.1755
  557MOL0     H75195   4.597  10.179   2.373  2.4855 -1.0995 -1.5941
  558MOL0     O75196   4.237   6.154   6.954 -0.5764 -0.3226 -1.1520
  558MOL0     C75197   4.216   6.141   7.075  0.3163  0.0700 -0.8933
  558MOL0     O75198   4.248   6.039   7.159  0.0419  0.4186 -0.0056
  558MOL0     C75199   4.335   5.947   7.107 -0.6040  0.3522 -0.4228
  558MOL0     C75200   4.316   5.813   7.130 -0.8162 -0.9347 -0.0742
  558MOL0     C75201   4.405   5.707   7.098 -0.2058 -0.9394  0.3141
  558MOL0     C75202   4.526   5.746   7.031 -0.1711  0.1687 -0.5275
  558MOL0     O75203   4.632   5.658   7.005 -0.0252 -0.1755 -0.0566
  558MOL0     C75204   4.598   5.514   7.013 -0.0646  1.0681  1.6495
  558MOL0     C75205   4.524   5.451   6.896  0.2092 -0.5222 -0.4118
  558MOL0     C75206   4.496   5.300   6.912 -1.1694 -0.2692  0.1219
  558MOL0     C75207   4.424   5.245   6.784 -0.3024 -0.1537  0.3455
  558MOL0     C75208   4.428   5.087   6.775 -0.4546 -0.9486  0.3085
  558MOL0     C75209   4.549   5.052   6.686 -0.4260 -0.0164 -0.0226
  558MOL0     C75210   4.591   4.905   6.683 -0.5991 -0.4766 -0.1425
  558MOL0     C75211   4.716   4.905   6.589 -1.0564  0.3816 -0.2918
  558MOL0     N75212   4.836   4.945   6.663 -0.9130 -0.3881  0.1633
  558MOL0     C75213   4.918   5.051   6.625  0.1973  1.2235  0.2108
  558MOL0     C75214   5.006   5.077   6.729 -0.4000  0.1701  0.3092
  558MOL0     C75215   5.124   5.173   6.729 -0.6583  0.1627  0.3389
  558MOL0     C75216   5.097   5.311   6.789 -0.1203  0.1368 -0.2773
  558MOL0     C75217   4.997   5.381   6.698 -0.5931 -0.2718 -0.2003
  558MOL0     C75218   4.928   5.506   6.767  0.4149  0.6071  0.9574
  558MOL0     O75219   4.882   5.608   6.676 -0.1046 -0.3162 -0.0474
  558MOL0     C75220   4.978   5.687   6.616 -0.0235 -0.5872  0.1456
  558MOL0     C75221   5.119   5.677   6.635 -0.1828 -0.1811 -0.2791
  558MOL0     C75222   5.207   5.768   6.579 -0.0191  0.0897 -0.9676
  558MOL0     C75223   5.156   5.863   6.495 -0.4797 -0.8156  0.4789
  558MOL0     C75224   5.238   5.945   6.415 -0.5814  0.4941  0.4226
  558MOL0     O75225   5.359   5.969   6.464  0.1379  0.6203 -0.6330
  558MOL0     C75226   5.432   6.063   6.406  0.4347  0.0780  0.2331
  558MOL0     C75227   5.556   6.014   6.378  0.7839  0.2468 -0.0442
  558MOL0     C75228   5.651   6.098   6.316  0.7417 -0.6580  0.2131
  558MOL0     C75229   5.625   6.236   6.298 -0.2711 -0.6160 -0.1041
  558MOL0     O75230   5.727   6.315   6.246  1.0838  1.0067 -0.1934
  558MOL0     C75231   5.728   6.456   6.276 -0.8101  0.0995  0.1485
  558MOL0     C75232   5.857   6.516   6.205  0.5409  0.0128  0.2621
  558MOL0     C75233   5.836   6.669   6.201  1.3181 -0.6412 -0.0878
  558MOL0     C75234   5.916   6.739   6.090  0.1582  0.3013  0.0824
  558MOL0     C75235   5.891   6.885   6.109  0.4220  0.2212 -0.3367
  558MOL0     C75236   5.945   6.972   5.988 -0.0409 -0.2137 -0.5457
  558MOL0     C75237   5.921   7.119   6.025  0.1052  0.0125 -0.6919
  558MOL0     C75238   5.934   7.215   5.907 -0.1931  0.1727  0.0762
  558MOL0    Cl75239   5.880   7.162   5.753 -0.0274 -0.8320  0.0776
  558MOL0     C75240   5.499   6.284   6.345 -0.8084 -0.1995  0.2469
  558MOL0     C75241   5.408   6.194   6.388  0.3532 -0.5688 -0.4871
  558MOL0     O75242   5.204   5.977   6.300  0.2887 -0.7090  0.4786
  558MOL0     C75243   5.023   5.868   6.471 -0.2239 -0.1058  0.1097
  558MOL0     C75244   4.929   5.784   6.531 -0.5767 -0.1047 -0.1684
  558MOL0     N75245   4.968   4.985   6.831  0.0390  0.5941  0.8440
  558MOL0     N75246   4.866   4.905   6.790 -0.9966  0.1456 -0.0089
  558MOL0     C75247   4.556   5.879   7.016  0.4964 -0.0624 -0.1779
  558MOL0     C75248   4.455   5.976   7.044 -0.6998 -0.2572 -0.4203
  558MOL0     C75249   4.148   6.267   7.129  0.2755  0.2422  0.3419
  558MOL0     C75250   4.081   6.254   7.258 -0.3491 -0.9007  0.2150
  558MOL0     C75251   3.998   6.357   7.305 -0.8753  0.3359  0.2016
  558MOL0     C75252   3.988   6.471   7.232 -1.3099  0.7431  0.0542
  558MOL0     O75253   3.898   6.565   7.275 -0.1851  0.6935  0.2969
  558MOL0     C75254   3.856   6.681   7.190  0.4005  0.2919  0.4029
  558MOL0     C75255   3.744   6.745   7.273 -0.3829 -0.5206 -0.0377
  558MOL0     C75256   3.614   6.658   7.253 -0.0264  0.1672  0.2557
  558MOL0     C75257   3.503   6.696   7.354 -0.1191  0.5734 -0.2331
  558MOL0     C75258   3.427   6.572   7.382  0.6554 -0.0948  0.9208
  558MOL0     C75259   3.364   6.467   7.407  0.0762 -0.4902  0.8172
  558MOL0     C75260   4.067   6.490   7.116 -0.0593  0.1567 -0.0745
  558MOL0     C75261   4.142   6.387   7.056  0.0234  0.2306  0.0320
  558MOL0     C75262   4.211   6.439   6.933 -0.0297  0.8281  0.3916
  558MOL0     H75263   4.230   5.769   7.181  0.3032 -3.0658  0.0840
  558MOL0     H75264   4.378   5.603   7.115 -0.8300 -1.1567 -1.7084
  558MOL0     H75265   4.692   5.459   7.024  0.0171  0.5197 -1.0534
  558MOL0     H75266   4.548   5.487   7.106 -2.0336 -0.0723  0.3285
  558MOL0     H75267   4.581   5.476   6.806  2.0421  0.3662  0.9388
  558MOL0     H75268   4.421   5.488   6.896  1.4372  3.5552  1.9767
  558MOL0     H75269   4.434   5.292   7.002  0.0481 -1.4809  0.8942
  558MOL0     H75270   4.586   5.240   6.929  0.8420  2.5838  0.3540
  558MOL0     H75271   4.323   5.286   6.799 -0.0226  1.3341 -1.3882
  558MOL0     H75272   4.477   5.283   6.696 -0.3278  1.5694  1.0329
  558MOL0     H75273   4.425   5.051   6.878 -3.3667 -2.0231 -0.0640
  558MOL0     H75274   4.338   5.045   6.730 -0.6848  1.5458 -1.8460
  558MOL0     H75275   4.527   5.084   6.584 -0.7930  0.9572  0.3478
  558MOL0     H75276   4.630   5.112   6.727 -1.0403  1.3223 -0.7201
  558MOL0     H75277   4.511   4.841   6.645 -1.9680  0.5591  0.8829
  558MOL0     H75278   4.618   4.853   6.776  0.3596 -1.3768 -0.8927
  558MOL0     H75279   4.736   4.801   6.560  0.7879  1.0253 -1.4744
  558MOL0     H75280   4.707   4.939   6.486  0.4123  0.0675 -0.5451
  558MOL0     H75281   4.916   5.106   6.531  4.3909 -0.9170 -1.4133
  558MOL0     H75282   5.204   5.127   6.789  0.3539 -0.2767 -1.2799
  558MOL0     H75283   5.173   5.173   6.631  0.7298 -1.1034  0.9970
  558MOL0     H75284   5.054   5.294   6.888 -1.4858 -3.4360 -1.3196
  558MOL0     H75285   5.189   5.367   6.805  0.5296 -0.3339 -2.0557
  558MOL0     H75286   4.921   5.317   6.652  1.0577 -2.3460 -0.2470
  558MOL0     H75287   5.064   5.434   6.630 -0.5966 -0.2966 -0.2234
  558MOL0     H75288   4.994   5.540   6.848 -2.5477  3.4314  2.4190
  558MOL0     H75289   4.843   5.465   6.822  0.8009 -0.1464  1.0055
  558MOL0     H75290   5.162   5.605   6.704  0.7775 -0.2711 -0.9502
  558MOL0     H75291   5.310   5.774   6.615 -0.1375  1.3196 -0.8040
  558MOL0     H75292   5.566   5.910   6.408 -0.6469 -0.0219 -0.3976
  558MOL0     H75293   5.744   6.051   6.286  0.5369 -1.6401  1.0896
  558MOL0     H75294   5.636   6.504   6.243 -0.7398  0.6507  0.7338
  558MOL0     H75295   5.743   6.465   6.384  0.0808 -1.7383  0.2276
  558MOL0     H75296   5.955   6.497   6.250 -0.4748  0.1627  2.7171
  558MOL0     H75297   5.857   6.478   6.103 -0.1489  1.6756 -0.3759
  558MOL0     H75298   5.730   6.694   6.201  1.8303  1.8452  0.6928
  558MOL0     H75299   5.882   6.704   6.294 -0.1234 -1.5706  1.0218
  558MOL0     H75300   5.877   6.693   5.999  2.4115 -1.9528  0.1760
  558MOL0     H75301   6.023   6.720   6.090 -0.1247 -1.4219 -0.2929
  558MOL0     H75302   5.949   6.924   6.193  0.5021 -1.2468  0.3130
  558MOL0     H75303   5.782   6.894   6.114  0.3509 -0.4658 -0.6129
  558MOL0     H75304   6.045   6.940   5.956  0.5924  1.1650 -0.0459
  558MOL0     H75305   5.883   6.936   5.906  1.5843 -1.2464 -1.3821
  558MOL0     H75306   5.989   7.147   6.107 -1.6638 -0.0992  0.8860
  558MOL0     H75307   5.818   7.137   6.057 -0.2878 -0.2505 -1.7713
  558MOL0     H75308   5.901   7.316   5.934  0.5971  2.7031 -6.5009
  558MOL0     H75309   6.041   7.229   5.891 -0.6099  1.4131 -1.9450
  558MOL0     H75310   5.467   6.388   6.351 -2.0860 -0.6384  1.5518
  558MOL0     H75311   5.310   6.236   6.410 -0.3855 -1.2650 -2.3004
  558MOL0     H75312   4.971   5.918   6.389 -1.8304 -2.0591 -0.1355
  558MOL0     H75313   4.826   5.790   6.499 -0.4839 -2.6586 -1.2566
  558MOL0     H75314   4.658   5.908   6.992  0.2710  1.1298  0.2801
  558MOL0     H75315   4.461   6.083   7.032 -4.4842  0.5678  2.8636
  558MOL0     H75316   4.085   6.160   7.313  0.3241 -0.7337  0.4563
  558MOL0     H75317   3.969   6.360   7.409  1.4908 -0.9252  0.9677
  558MOL0     H75318   3.805   6.655   7.097 -1.4014 -0.3845  1.5168
  558MOL0     H75319   3.949   6.736   7.175 -0.1459  0.9969 -0.4992
  558MOL0     H75320   3.734   6.848   7.238  3.2211 -0.8591 -2.5649
  558MOL0     H75321   3.775   6.735   7.378  0.2976 -0.4215 -0.2280
  558MOL0     H75322   3.639   6.552   7.259 -1.1593 -0.0566  1.5652
  558MOL0     H75323   3.563   6.668   7.157 -1.5895  0.4009  1.0683
  558MOL0     H75324   3.544   6.736   7.447 -0.9836  0.2813  0.2954
  558MOL0     H75325   3.436   6.775   7.318  1.9239  1.3579 -2.5344
  558MOL0     H75326   3.326   6.373   7.441  0.7127 -0.7084  0.9259
  558MOL0     H75327   4.059   6.586   7.066  1.9967  2.3048  3.2888
  558MOL0     H75328   4.144   6.432   6.847  2.4473 -1.6290 -1.5072
  558MOL0     H75329   4.241   6.540   6.963  1.9593  0.2442  0.4839
  558MOL0     H75330   4.302   6.381   6.917 -1.6579 -1.5546 -0.8430
  559MOL0     O75331   2.214   1.085   5.611  0.3126  0.1450 -0.0711
  559MOL0     C75332   2.280   0.986   5.590 -0.4060  0.9059  0.2379
  559MOL0     O75333   2.240   0.876   5.519  0.1206 -0.3757 -0.9614
  559MOL0     C75334   2.109   0.870   5.476 -0.8295 -0.0948 -0.4049
  559MOL0     C75335   2.090   0.867   5.337  0.5660  0.3073  0.3454
  559MOL0     C75336   1.957   0.857   5.287 -0.9840  0.2183 -0.4403
  559MOL0     C75337   1.846   0.843   5.374 -0.9241 -0.2247 -0.4884
  559MOL0     O75338   1.720   0.847   5.329 -0.8531 -0.0093  0.3994
  559MOL0     C75339   1.671   0.970   5.278  0.5709  0.2261 -0.1552
  559MOL0     C75340   1.540   0.949   5.192 -0.3828 -0.1728 -0.7761
  559MOL0     C75341   1.423   0.917   5.288  0.1208  0.3819  0.1200
  559MOL0     C75342   1.398   1.024   5.393  0.2988 -0.0845 -0.2065
  559MOL0     C75343   1.254   1.031   5.436 -0.6084  0.4248 -0.1175
  559MOL0     C75344   1.196   0.904   5.516 -0.0132  0.4409  0.0016
  559MOL0     C75345   1.061   0.922   5.575  0.6628 -0.0487  0.9462
  559MOL0     C75346   0.956   0.843   5.487 -0.1365 -0.4468  0.0781
  559MOL0     N75347   0.824   0.876   5.519 -0.1355 -0.1724 -0.2423
  559MOL0     C75348   0.765   0.832   5.630  0.8908  0.1856  0.1369
  559MOL0     C75349   0.652   0.904   5.623  0.3664 -0.0262  1.0140
  559MOL0     C75350   0.537   0.890   5.716 -0.5515  0.5781 -0.2037
  559MOL0     C75351   0.440   0.785   5.676 -0.2709 -0.1826  0.8083
  559MOL0     C75352   0.359   0.834   5.545 -0.6370  0.7464 -0.6471
  559MOL0     C75353   0.286   0.715   5.479  0.2434 -0.0861 -0.2316
  559MOL0     O75354   0.215   0.762   5.360  0.4700 -0.0966  0.0351
  559MOL0     C75355   0.115   0.680   5.315 -1.5815 -0.0648 -0.5545
  559MOL0     C75356   0.106   0.547   5.355  0.2430 -0.3151 -0.4969
  559MOL0     C75357   0.005   0.457   5.303  0.3236  0.0309  0.3514
  559MOL0     C75358  -0.098   0.515   5.227  0.0188 -0.2883  0.9392
  559MOL0     C75359  -0.217   0.436   5.183 -0.2517 -0.1450 -0.0302
  559MOL0     O75360  -0.327   0.506   5.164  0.6308 -0.1004  0.6235
  559MOL0     C75361  -0.432   0.428   5.123  1.2436  0.8179  0.4420
  559MOL0     C75362  -0.490   0.333   5.208 -0.1780  0.1238  0.3352
  559MOL0     C75363  -0.579   0.242   5.160  0.1562 -0.1001 -1.1668
  559MOL0     C75364  -0.629   0.229   5.030 -0.3000  0.0933 -0.2849
  559MOL0     O75365  -0.719   0.127   5.006 -0.0532 -1.5397 -0.4056
  559MOL0     C75366  -0.777   0.095   4.875 -0.9104  0.1324  0.0474
  559MOL0     C75367  -0.662   0.056   4.785 -0.3266  0.3365  0.4170
  559MOL0     C75368  -0.650  -0.101   4.763  0.5115  0.6846  0.5311
  559MOL0     C75369  -0.514  -0.135   4.703 -0.6297 -0.0008  0.3848
  559MOL0     C75370  -0.465  -0.274   4.715 -0.3903  0.3779  0.8215
  559MOL0     C75371  -0.559  -0.388   4.661  0.0788  0.5027  0.3309
  559MOL0     C75372  -0.607  -0.372   4.516 -0.2349  0.6855 -0.0279
  559MOL0     C75373  -0.490  -0.356   4.410  0.7622  0.8534  0.0326
  559MOL0    Cl75374  -0.365  -0.490   4.418 -0.3241 -0.3548 -0.1903
  559MOL0     C75375  -0.576   0.334   4.950  0.4469 -1.6822  0.7730
  559MOL0     C75376  -0.483   0.434   4.995  0.4799  0.6973  0.3081
  559MOL0     O75377  -0.197   0.310   5.163 -0.1953 -0.4475 -0.1731
  559MOL0     C75378  -0.082   0.653   5.187 -0.0430 -0.2945  0.1624
  559MOL0     C75379   0.019   0.732   5.232 -0.6561  1.1585  0.0676
  559MOL0     N75380   0.647   0.977   5.504 -0.9029 -1.5561 -0.4857
  559MOL0     N75381   0.750   0.964   5.445 -0.4959  0.3085  0.0705
  559MOL0     C75382   1.880   0.833   5.507 -0.2290  0.8045 -0.3467
  559MOL0     C75383   2.004   0.843   5.558  0.1771  0.0713  0.3400
  559MOL0     C75384   2.424   0.968   5.646  0.6547 -1.5277 -0.4030
  559MOL0     C75385   2.502   0.865   5.596  0.3649 -0.0537 -0.3210
  559MOL0     C75386   2.629   0.838   5.641  0.2702  0.8112  0.4303
  559MOL0     C75387   2.682   0.911   5.747  0.3130 -0.8863 -0.6059
  559MOL0     O75388   2.797   0.889   5.818 -0.0767 -0.8972 -0.1391
  559MOL0     C75389   2.864   0.769   5.793 -0.3901 -0.9885  0.1440
  559MOL0     C75390   3.009   0.781   5.854  0.9013  0.0990 -0.7584
  559MOL0     C75391   2.998   0.810   6.004 -0.1151  0.1517  0.9792
  559MOL0     C75392   3.137   0.780   6.064  0.5746 -0.6443 -0.1748
  559MOL0     C75393   3.231   0.878   6.019  0.1575 -0.4921  0.4764
  559MOL0     C75394   3.307   0.967   5.973  0.6153  0.1196 -1.2378
  559MOL0     C75395   2.604   1.009   5.810  0.0369 -0.4522  0.1701
  559MOL0     C75396   2.478   1.044   5.754 -0.1038  0.0938  0.4019
  559MOL0     C75397   2.403   1.157   5.819  0.5101 -0.8306 -0.3053
  559MOL0     H75398   2.175   0.857   5.270 -0.0323 -1.4138 -0.2137
  559MOL0     H75399   1.941   0.864   5.180 -1.3608 -0.2967 -0.4231
  559MOL0     H75400   1.654   1.045   5.356 -0.4193 -1.5087  1.3835
  559MOL0     H75401   1.745   1.003   5.205  1.4699 -1.7746 -0.1895
  559MOL0     H75402   1.552   0.873   5.114 -2.6356  1.2710 -2.6391
  559MOL0     H75403   1.529   1.045   5.141  0.5040  0.4209  0.0935
  559MOL0     H75404   1.441   0.827   5.348  1.3852  1.1503  0.9458
  559MOL0     H75405   1.341   0.909   5.217  1.4394  0.3205 -1.4405
  559MOL0     H75406   1.455   1.003   5.484 -0.2289  0.1188  0.1810
  559MOL0     H75407   1.424   1.119   5.346  1.1733 -0.8068 -1.2451
  559MOL0     H75408   1.235   1.119   5.498  0.7026 -0.6916  2.0318
  559MOL0     H75409   1.190   1.035   5.348  0.2488 -1.2414 -0.8740
  559MOL0     H75410   1.196   0.812   5.457  0.1423 -2.6179  4.3190
  559MOL0     H75411   1.249   0.882   5.609 -1.6604 -0.3708  0.7750
  559MOL0     H75412   1.027   1.025   5.569 -2.2379 -0.9743 -2.4237
  559MOL0     H75413   1.054   0.883   5.677 -5.2309  0.6100  1.1088
  559MOL0     H75414   0.972   0.859   5.380 -1.1463  0.5194  0.0564
  559MOL0     H75415   0.977   0.737   5.503 -0.1442 -0.7605 -1.7717
  559MOL0     H75416   0.789   0.753   5.700 -3.8218 -3.1496 -1.5138
  559MOL0     H75417   0.581   0.860   5.811 -0.1858 -3.1921 -1.3920
  559MOL0     H75418   0.487   0.987   5.719  0.3307  1.0775 -0.9821
  559MOL0     H75419   0.480   0.685   5.657 -3.4451 -1.6970  1.4582
  559MOL0     H75420   0.372   0.768   5.760 -2.1113 -1.9729 -0.9291
  559MOL0     H75421   0.430   0.871   5.471  0.8285  1.2831  0.9441
  559MOL0     H75422   0.281   0.907   5.572 -2.1761 -0.6993 -1.0346
  559MOL0     H75423   0.218   0.664   5.548 -0.0159 -0.8187 -1.0090
  559MOL0     H75424   0.360   0.637   5.460  2.4603  1.5186  1.3114
  559MOL0     H75425   0.165   0.494   5.429 -2.0980 -1.8408  0.4079
  559MOL0     H75426   0.010   0.349   5.315  3.2679 -0.2234 -1.8234
  559MOL0     H75427  -0.462   0.332   5.312  1.4354 -2.6005 -0.0265
  559MOL0     H75428  -0.631   0.180   5.232  0.9375  1.1496  0.5480
  559MOL0     H75429  -0.853   0.019   4.894  0.2211 -0.8575  0.7527
  559MOL0     H75430  -0.819   0.190   4.840 -2.3468 -0.2538  0.6406
  559MOL0     H75431  -0.674   0.112   4.692  0.6767  1.7105  1.0908
  559MOL0     H75432  -0.563   0.088   4.820  0.2564  1.5713 -2.0923
  559MOL0     H75433  -0.677  -0.161   4.850  0.7169 -1.7461 -1.0072
  559MOL0     H75434  -0.732  -0.118   4.694 -0.4456  1.7955  1.3539
  559MOL0     H75435  -0.428  -0.075   4.735  1.4323 -1.5507 -1.9387
  559MOL0     H75436  -0.534  -0.113   4.598  0.9818  0.6933  0.1995
  559MOL0     H75437  -0.413  -0.289   4.811  1.2615 -1.6419 -0.3080
  559MOL0     H75438  -0.375  -0.287   4.654  0.7835  1.2389  2.2852
  559MOL0     H75439  -0.512  -0.485   4.677 -1.4702 -0.7775 -2.2205
  559MOL0     H75440  -0.649  -0.398   4.723 -2.8479  1.6323 -3.3813
  559MOL0     H75441  -0.670  -0.283   4.506 -3.6457 -1.7618 -4.1287
  559MOL0     H75442  -0.668  -0.450   4.470 -1.1697  1.5050 -0.2209
  559MOL0     H75443  -0.516  -0.348   4.304 -0.1485 -1.8686 -0.0192
  559MOL0     H75444  -0.431  -0.268   4.437 -0.4825  1.4481  0.8865
  559MOL0     H75445  -0.611   0.329   4.847  1.7602  0.5075  0.1414
  559MOL0     H75446  -0.446   0.517   4.936  2.4916 -1.3724 -1.5484
  559MOL0     H75447  -0.156   0.704   5.126  0.0888 -2.1362 -1.6482
  559MOL0     H75448   0.020   0.833   5.192 -0.6741 -0.4258 -4.5910
  559MOL0     H75449   1.798   0.807   5.572  1.4061  1.5189  2.1621
  559MOL0     H75450   2.020   0.816   5.662 -1.2390 -0.9008  0.3350
  559MOL0     H75451   2.464   0.793   5.524 -2.5511 -1.8418  2.7168
  559MOL0     H75452   2.674   0.747   5.602  2.4218  3.0089 -2.8407
  559MOL0     H75453   2.870   0.762   5.684 -1.0029  0.3882  0.0007
  559MOL0     H75454   2.803   0.686   5.829 -2.9650  1.0276  0.7777
  559MOL0     H75455   3.065   0.855   5.796  1.2010  1.2225  0.8895
  559MOL0     H75456   3.047   0.679   5.845  2.2954  0.4457  0.5970
  559MOL0     H75457   2.922   0.744   6.046 -0.9048  0.3219 -0.1481
  559MOL0     H75458   2.969   0.910   6.036 -1.5063  0.2738 -0.5413
  559MOL0     H75459   3.135   0.779   6.174  3.9015 -0.9720 -0.0293
  559MOL0     H75460   3.161   0.680   6.027 -0.0876 -0.1510 -2.0583
  559MOL0     H75461   3.375   1.043   5.940  0.0912  1.4139  0.4821
  559MOL0     H75462   2.649   1.072   5.886 -1.9487  1.9753 -0.5349
  559MOL0     H75463   2.325   1.119   5.885  2.8204 -1.2104  2.3793
  559MOL0     H75464   2.469   1.213   5.885  1.9482 -0.6497 -1.8392
  559MOL0     H75465   2.368   1.241   5.757 -1.1471  0.3988  2.1344
  560MOL0     O75466   1.173   5.158   7.825  0.2256 -0.3759  0.1319
  560MOL0     C75467   1.224   5.158   7.937 -0.3176 -0.4522 -0.6425
  560MOL0     O75468   1.276   5.270   7.999  0.2104  0.3497  0.0503
  560MOL0     C75469   1.269   5.390   7.934  0.1546 -0.0665  0.4105
  560MOL0     C75470   1.155   5.472   7.905  1.0767  0.8265  0.5014
  560MOL0     C75471   1.161   5.600   7.846 -0.6735 -0.2897  0.1052
  560MOL0     C75472   1.284   5.657   7.816 -0.7600 -0.5294 -0.1312
  560MOL0     O75473   1.283   5.775   7.763 -0.2370 -0.0705 -0.1257
  560MOL0     C75474   1.398   5.834   7.700  0.0368 -0.3575  0.2983
  560MOL0     C75475   1.388   5.984   7.706 -0.1567 -0.5054 -0.9306
  560MOL0     C75476   1.462   6.070   7.604  0.0760 -0.4557 -0.9859
  560MOL0     C75477   1.614   6.048   7.599 -0.4367 -0.6502 -0.0583
  560MOL0     C75478   1.684   6.122   7.478 -0.0660  0.6260 -0.2052
  560MOL0     C75479   1.662   6.034   7.359 -1.0150 -0.7004  0.8028
  560MOL0     C75480   1.748   6.093   7.240 -0.1458 -0.6031  0.6767
  560MOL0     C75481   1.736   6.004   7.111 -0.1843  0.1284 -0.5636
  560MOL0     N75482   1.621   6.045   7.030  0.0106  0.7641 -0.2237
  560MOL0     C75483   1.624   6.130   6.921  0.2925 -0.1196 -0.2071
  560MOL0     C75484   1.511   6.108   6.844 -0.4982 -0.4078 -0.8341
  560MOL0     C75485   1.468   6.197   6.728 -0.0850  0.2674  0.9767
  560MOL0     C75486   1.439   6.109   6.605  0.6080  0.4913  0.7426
  560MOL0     C75487   1.405   6.191   6.482  1.4333 -0.7621 -0.2362
  560MOL0     C75488   1.363   6.119   6.354 -0.5241 -0.7796  0.5117
  560MOL0     O75489   1.244   6.041   6.370  0.1111  0.9870 -0.1940
  560MOL0     C75490   1.126   6.062   6.302 -1.0993 -0.4683  0.8424
  560MOL0     C75491   1.021   5.988   6.349  0.8679  0.9772 -0.2937
  560MOL0     C75492   0.891   6.004   6.304 -0.1095  0.3297  0.3100
  560MOL0     C75493   0.871   6.093   6.193  0.1477 -0.2840 -0.3175
  560MOL0     C75494   0.736   6.100   6.137  0.6973  0.0806 -0.7965
  560MOL0     O75495   0.711   6.164   6.021 -0.4400 -0.0889  1.5417
  560MOL0     C75496   0.590   6.199   5.964 -0.2338 -0.2810 -0.3148
  560MOL0     C75497   0.479   6.243   6.044 -0.2140 -0.1132 -0.6480
  560MOL0     C75498   0.359   6.270   5.979  0.1178  0.3286 -0.5848
  560MOL0     C75499   0.357   6.274   5.836  0.1859 -0.0529 -0.6657
  560MOL0     O75500   0.250   6.313   5.759  0.1097  0.1540  0.2216
  560MOL0     C75501   0.151   6.398   5.820  0.1976  0.1847  0.2712
  560MOL0     C75502   0.205   6.533   5.841 -0.2581  0.7444 -1.0050
  560MOL0     C75503   0.123   6.635   5.765 -0.9611  0.6060 -0.3152
  560MOL0     C75504   0.211   6.757   5.742 -0.0294 -0.0191 -0.1516
  560MOL0     C75505   0.129   6.871   5.717  0.4394  0.3184  0.2890
  560MOL0     C75506   0.204   6.985   5.648 -0.3023  0.8326 -0.3434
  560MOL0     C75507   0.105   7.101   5.634 -0.8835  0.2223  0.9204
  560MOL0     C75508   0.165   7.202   5.532 -0.0453 -0.4715 -0.1771
  560MOL0    Cl75509   0.338   7.250   5.572  0.2877  0.3496  0.3921
  560MOL0     C75510   0.473   6.251   5.762  0.5404  0.3697 -0.2711
  560MOL0     C75511   0.584   6.205   5.825 -0.7578 -0.1495  0.8690
  560MOL0     O75512   0.641   6.049   6.202  0.5775  0.3167 -0.9245
  560MOL0     C75513   0.980   6.177   6.145  0.3262 -0.1624 -0.1197
  560MOL0     C75514   1.109   6.154   6.188 -0.1770  0.2650  0.2017
  560MOL0     N75515   1.435   6.013   6.914  0.8406 -0.1181 -0.4588
  560MOL0     N75516   1.503   5.970   7.022  0.1602 -0.4051 -0.4660
  560MOL0     C75517   1.397   5.577   7.843  0.3376  0.4608  0.2743
  560MOL0     C75518   1.390   5.448   7.897 -0.5965 -0.3661 -0.5337
  560MOL0     C75519   1.224   5.035   8.015  0.5343  0.5267  0.0326
  560MOL0     C75520   1.100   4.984   8.054 -0.9365 -0.5875 -0.0030
  560MOL0     C75521   1.091   4.884   8.142  0.0613  0.0020  0.1823
  560MOL0     C75522   1.206   4.821   8.198  0.4130  0.6299 -0.4290
  560MOL0     O75523   1.187   4.723   8.291  0.9075 -0.8843  0.4365
  560MOL0     C75524   1.295   4.628   8.304 -0.2223  0.2672  0.4762
  560MOL0     C75525   1.249   4.523   8.401  0.3052  0.5784 -0.2294
  560MOL0     C75526   1.357   4.411   8.411  0.6129 -0.4872 -0.2773
  560MOL0     C75527   1.324   4.286   8.489 -0.6621  0.2745  0.6051
  560MOL0     C75528   1.448   4.220   8.539 -0.1923 -0.3068 -0.0135
  560MOL0     C75529   1.541   4.175   8.598 -0.1656 -0.1838  0.2016
  560MOL0     C75530   1.330   4.867   8.148  0.0841 -1.4756 -1.1078
  560MOL0     C75531   1.339   4.973   8.054  0.6250 -0.7607 -0.1968
  560MOL0     C75532   1.471   5.014   8.006  0.0067 -0.1029  0.4053
  560MOL0     H75533   1.054   5.432   7.912  1.0220  1.0333  0.8668
  560MOL0     H75534   1.074   5.664   7.833 -1.8247 -2.1784 -2.2259
  560MOL0     H75535   1.496   5.804   7.738 -0.0847  1.0395  1.7962
  560MOL0     H75536   1.399   5.810   7.593 -1.4176 -0.4232  0.2817
  560MOL0     H75537   1.417   6.015   7.807  2.7078  0.3229 -1.9097
  560MOL0     H75538   1.285   6.018   7.697 -0.2220 -1.0585 -2.8336
  560MOL0     H75539   1.457   6.176   7.632  1.9867 -0.5526 -0.0790
  560MOL0     H75540   1.417   6.064   7.505  0.8251 -0.1122 -1.3552
  560MOL0     H75541   1.646   6.092   7.693  0.0139 -2.7881  0.8413
  560MOL0     H75542   1.638   5.942   7.609  2.5036  0.0998  2.3195
  560MOL0     H75543   1.641   6.222   7.468  1.7721  2.0125  3.8377
  560MOL0     H75544   1.788   6.143   7.503  0.2974  1.1612 -1.9973
  560MOL0     H75545   1.686   5.930   7.384 -3.0129 -2.1097 -2.5824
  560MOL0     H75546   1.560   6.041   7.322 -0.8776  0.6626  0.6297
  560MOL0     H75547   1.852   6.086   7.270 -0.4807 -1.6805  1.6673
  560MOL0     H75548   1.732   6.196   7.209 -0.0755 -0.6520  0.4732
  560MOL0     H75549   1.825   6.016   7.049  0.5217 -2.5498 -0.1859
  560MOL0     H75550   1.732   5.900   7.147  1.2966  0.3225  0.2651
  560MOL0     H75551   1.688   6.218   6.914 -0.3982  0.6917  2.6467
  560MOL0     H75552   1.368   6.233   6.755 -2.1777 -4.0879 -0.1657
  560MOL0     H75553   1.541   6.278   6.715  1.5378 -1.0832  1.3649
  560MOL0     H75554   1.534   6.057   6.593 -0.3184 -1.4866  1.5003
  560MOL0     H75555   1.359   6.036   6.621  0.1440  0.6263 -0.8226
  560MOL0     H75556   1.490   6.257   6.463 -1.9242  3.5960 -1.8528
  560MOL0     H75557   1.317   6.251   6.507  0.3793 -2.8558  1.3789
  560MOL0     H75558   1.446   6.063   6.310 -0.9202 -1.1489  0.2203
  560MOL0     H75559   1.334   6.197   6.283 -1.5804 -0.0418  1.7117
  560MOL0     H75560   1.047   5.931   6.437  1.6857  0.1991 -1.0271
  560MOL0     H75561   0.818   5.936   6.347  1.3642 -0.6408  1.3970
  560MOL0     H75562   0.492   6.242   6.151 -0.1969  0.0369 -0.6480
  560MOL0     H75563   0.273   6.280   6.044  1.5122 -2.9017  2.0036
  560MOL0     H75564   0.073   6.397   5.743 -1.5458 -3.7900  1.7948
  560MOL0     H75565   0.109   6.347   5.907 -0.4985 -1.0737 -0.7734
  560MOL0     H75566   0.207   6.564   5.946  1.6727 -0.1756 -0.7318
  560MOL0     H75567   0.304   6.537   5.794  0.4497  3.3441  0.5205
  560MOL0     H75568   0.094   6.594   5.667  1.7734 -2.0923 -0.1307
  560MOL0     H75569   0.036   6.668   5.822  0.1333  0.9194  1.2329
  560MOL0     H75570   0.276   6.735   5.657  1.9334  0.1382  1.2503
  560MOL0     H75571   0.260   6.783   5.836 -2.7120  2.7487  0.6351
  560MOL0     H75572   0.075   6.911   5.804 -1.0290 -1.0233  0.0402
  560MOL0     H75573   0.040   6.848   5.657  0.8218  3.1175 -1.5634
  560MOL0     H75574   0.286   7.019   5.712  0.6806 -2.2635  0.2217
  560MOL0     H75575   0.244   6.963   5.548 -0.7315 -2.4422  0.0982
  560MOL0     H75576   0.086   7.150   5.730 -0.2731  1.9777  0.1806
  560MOL0     H75577   0.014   7.057   5.594 -0.3825 -0.2358  0.2576
  560MOL0     H75578   0.167   7.154   5.433  1.8110 -1.4071  0.2544
  560MOL0     H75579   0.116   7.299   5.534  1.8054  0.5423 -0.9953
  560MOL0     H75580   0.467   6.239   5.654 -5.9454 -0.2002 -0.2517
  560MOL0     H75581   0.672   6.186   5.766 -0.5977  2.9712 -0.0819
  560MOL0     H75582   0.954   6.248   6.067 -2.3074 -0.6012  0.2522
  560MOL0     H75583   1.191   6.217   6.157  0.2327 -0.6980 -0.6874
  560MOL0     H75584   1.495   5.613   7.812  1.1999 -0.0042  2.2899
  560MOL0     H75585   1.488   5.408   7.921 -0.0480 -0.1009 -2.1780
  560MOL0     H75586   1.017   5.040   8.011 -0.8196 -0.0639  0.4498
  560MOL0     H75587   0.995   4.835   8.154  0.8246 -1.8127 -0.6513
  560MOL0     H75588   1.386   4.671   8.346  1.4351 -0.0575 -2.4934
  560MOL0     H75589   1.316   4.581   8.207 -1.9426 -0.0545  0.2343
  560MOL0     H75590   1.154   4.479   8.368 -0.0621  1.5694 -0.5225
  560MOL0     H75591   1.229   4.570   8.498 -0.6246 -0.8792  0.3226
  560MOL0     H75592   1.444   4.459   8.457  0.5015 -1.4495  0.9910
  560MOL0     H75593   1.400   4.392   8.312  0.4943 -0.6782 -0.2932
  560MOL0     H75594   1.253   4.310   8.569 -1.3105 -0.4938  0.2685
  560MOL0     H75595   1.276   4.214   8.423  0.0039 -0.4224  0.8608
  560MOL0     H75596   1.635   4.141   8.638  0.8123  2.3760  0.2608
  560MOL0     H75597   1.424   4.837   8.193 -0.3827  1.1045  2.0171
  560MOL0     H75598   1.498   4.960   7.914  2.6940 -1.2752  1.7501
  560MOL0     H75599   1.478   5.118   7.974 -1.5964  0.2862  1.2275
  560MOL0     H75600   1.543   4.994   8.086  1.3161  0.8425 -0.4994
  561MOL0     O75601   6.304   1.630   6.614  0.0780 -0.3291  0.2593
  561MOL0     C75602   6.335   1.742   6.576 -0.1769 -0.0788  1.1719
  561MOL0     O75603   6.250   1.838   6.538  0.2922 -0.5321  0.9361
  561MOL0     C75604   6.113   1.823   6.542 -0.0515 -0.0341 -0.8815
  561MOL0     C75605   6.046   1.752   6.443 -0.4526  0.5749  1.1872
  561MOL0     C75606   5.912   1.737   6.441  0.4961  0.0979 -0.6115
  561MOL0     C75607   5.830   1.802   6.536  0.0054 -0.0311 -0.5302
  561MOL0     O75608   5.692   1.811   6.540 -0.1260 -0.4142  0.1990
  561MOL0     C75609   5.617   1.758   6.434  0.2408  0.0988 -0.6630
  561MOL0     C75610   5.473   1.767   6.478 -0.0356  0.1744  0.2617
  561MOL0     C75611   5.413   1.898   6.540 -0.5813  0.2520  0.0515
  561MOL0     C75612   5.476   2.023   6.479  0.0913  0.7332  0.1391
  561MOL0     C75613   5.388   2.146   6.514 -0.1182 -0.0596  0.3571
  561MOL0     C75614   5.442   2.271   6.446  0.0979  0.1783 -0.0798
  561MOL0     C75615   5.406   2.282   6.294  0.5384  0.7860 -0.1027
  561MOL0     C75616   5.460   2.418   6.241 -0.1776 -0.0432  1.0101
  561MOL0     N75617   5.389   2.544   6.283 -0.7277  0.0683  0.1514
  561MOL0     C75618   5.396   2.614   6.404 -0.1968 -0.2676  0.3880
  561MOL0     C75619   5.332   2.726   6.380 -0.8893 -0.9486  0.4928
  561MOL0     C75620   5.322   2.845   6.474 -0.7592  0.2607 -0.4617
  561MOL0     C75621   5.427   2.944   6.453 -0.4334  0.1898  0.4178
  561MOL0     C75622   5.410   3.038   6.333 -0.8958 -0.8486 -0.2360
  561MOL0     C75623   5.535   3.024   6.236  0.2627  0.2728  0.2063
  561MOL0     O75624   5.634   3.114   6.280 -0.6201 -0.8853  0.1437
  561MOL0     C75625   5.760   3.101   6.225  0.1720  0.1837  0.2173
  561MOL0     C75626   5.780   3.044   6.101 -0.3817 -0.3615  0.7519
  561MOL0     C75627   5.906   3.037   6.041 -0.4984  0.9137  0.4251
  561MOL0     C75628   6.027   3.084   6.099  0.6204  0.0358 -0.9296
  561MOL0     C75629   6.160   3.087   6.034  0.7567 -1.2538 -0.2176
  561MOL0     O75630   6.265   3.140   6.108  0.1437  0.0961  0.5206
  561MOL0     C75631   6.394   3.130   6.058 -0.4079 -0.6915 -0.4751
  561MOL0     C75632   6.477   3.246   6.045  0.5987  0.7265  0.3738
  561MOL0     C75633   6.608   3.247   6.000 -0.2747 -0.5465  0.4929
  561MOL0     C75634   6.665   3.129   5.955 -1.3483  0.2015 -0.6812
  561MOL0     O75635   6.796   3.132   5.907 -0.2435 -0.5811  0.5318
  561MOL0     C75636   6.823   3.031   5.803  0.1664  0.1733 -1.8170
  561MOL0     C75637   6.782   3.075   5.669 -0.5797  0.9584  1.3782
  561MOL0     C75638   6.853   2.978   5.572 -0.0965 -0.3676 -1.0264
  561MOL0     C75639   6.819   3.019   5.422 -0.4487 -0.6359 -0.4809
  561MOL0     C75640   6.716   2.914   5.370  0.2667 -1.3552  0.1423
  561MOL0     C75641   6.674   2.974   5.220  0.1868 -0.1743 -0.0504
  561MOL0     C75642   6.619   2.864   5.133 -0.4310  0.0162  0.4631
  561MOL0     C75643   6.476   2.828   5.180  0.0091 -0.3091 -0.2063
  561MOL0    Cl75644   6.414   2.702   5.059 -0.0407 -0.5281 -0.4270
  561MOL0     C75645   6.593   3.005   5.988 -0.4707 -0.2721  0.8509
  561MOL0     C75646   6.463   3.006   6.035  0.2339 -0.6417 -0.6073
  561MOL0     O75647   6.174   3.053   5.917  0.5127 -0.9325  0.2652
  561MOL0     C75648   6.000   3.144   6.228 -0.6533 -0.3145  0.9132
  561MOL0     C75649   5.875   3.150   6.293 -0.9091  1.0295  0.0993
  561MOL0     N75650   5.279   2.724   6.258 -0.7679 -0.0893 -0.2320
  561MOL0     N75651   5.318   2.622   6.195 -0.3511  0.4540  0.1605
  561MOL0     C75652   5.897   1.876   6.633  0.1217  0.3663  0.0967
  561MOL0     C75653   6.038   1.895   6.634 -0.5449  0.1483  0.2983
  561MOL0     C75654   6.478   1.791   6.604  0.5117 -0.0771  0.1998
  561MOL0     C75655   6.487   1.927   6.618 -1.2778 -0.7794  0.0468
  561MOL0     C75656   6.606   1.991   6.649 -0.5826 -0.3103 -1.0370
  561MOL0     C75657   6.729   1.917   6.646 -0.3941 -0.6465 -0.2984
  561MOL0     O75658   6.851   1.981   6.660  0.5526  0.3423  0.7317
  561MOL0     C75659   6.860   2.122   6.667  0.2685  0.3267 -0.3316
  561MOL0     C75660   7.011   2.158   6.654 -0.5871 -0.0799  0.2799
  561MOL0     C75661   7.103   2.082   6.747 -0.5005  0.2438  0.5748
  561MOL0     C75662   7.238   2.136   6.767 -0.9256  0.3700  0.4672
  561MOL0     C75663   7.287   2.075   6.895  0.3279  0.1417  0.2855
  561MOL0     C75664   7.308   2.036   7.008  0.0261  0.0947 -0.0656
  561MOL0     C75665   6.718   1.780   6.619  0.8969 -0.0723 -0.2498
  561MOL0     C75666   6.595   1.713   6.602  0.4780  0.6002  0.2750
  561MOL0     C75667   6.596   1.565   6.575 -0.0806  0.2276  0.7046
  561MOL0     H75668   6.099   1.701   6.363 -0.0916  0.4212  1.5194
  561MOL0     H75669   5.876   1.668   6.365 -2.0288 -0.6262  1.1300
  561MOL0     H75670   5.620   1.823   6.346  0.1003  0.8631 -0.1153
  561MOL0     H75671   5.651   1.656   6.416 -0.2604 -0.3548  0.8087
  561MOL0     H75672   5.451   1.679   6.539 -2.7733  1.1154  0.7600
  561MOL0     H75673   5.429   1.769   6.378 -0.6366  0.5057  0.5273
  561MOL0     H75674   5.420   1.906   6.648  1.1869 -0.1007 -0.0027
  561MOL0     H75675   5.304   1.905   6.536 -0.8091  2.0449  4.4959
  561MOL0     H75676   5.581   2.020   6.511 -0.3122 -0.5780  1.4115
  561MOL0     H75677   5.481   2.020   6.369 -1.1176  0.2779  0.0790
  561MOL0     H75678   5.287   2.122   6.480  0.6850 -2.0527 -0.7978
  561MOL0     H75679   5.393   2.159   6.622 -0.4802 -2.9684  0.8030
  561MOL0     H75680   5.397   2.354   6.502 -1.8135 -2.1001  1.9416
  561MOL0     H75681   5.551   2.269   6.460 -0.0837 -0.5754  1.4312
  561MOL0     H75682   5.297   2.279   6.283  0.4556 -2.3503  0.5340
  561MOL0     H75683   5.460   2.202   6.242  0.3012 -0.7963  1.9339
  561MOL0     H75684   5.568   2.418   6.259  0.1488 -1.8440 -0.5667
  561MOL0     H75685   5.448   2.421   6.132  1.4715  0.1191  0.8084
  561MOL0     H75686   5.425   2.576   6.502 -2.2421 -1.2395  0.6888
  561MOL0     H75687   5.223   2.889   6.458 -0.0636  2.3377  0.5407
  561MOL0     H75688   5.326   2.819   6.580  1.0824 -0.6794 -0.7169
  561MOL0     H75689   5.444   3.006   6.541  0.3261 -1.2685  1.3311
  561MOL0     H75690   5.517   2.882   6.446 -1.6251 -1.9902  2.6948
  561MOL0     H75691   5.404   3.143   6.366 -0.4905 -0.0872 -2.4314
  561MOL0     H75692   5.314   3.013   6.289 -1.9370 -0.5820  1.7445
  561MOL0     H75693   5.500   3.043   6.134 -1.1971 -0.4525  0.5542
  561MOL0     H75694   5.559   2.918   6.225 -1.8929 -0.1173 -1.5930
  561MOL0     H75695   5.701   3.004   6.038  0.3056 -2.2870  1.0445
  561MOL0     H75696   5.901   2.985   5.946 -1.8364  1.5238  0.1320
  561MOL0     H75697   6.446   3.346   6.070 -0.3821  0.6625 -0.5182
  561MOL0     H75698   6.657   3.344   5.995 -1.6858  0.2346  0.8821
  561MOL0     H75699   6.931   3.011   5.806  0.0770 -0.5510  2.3268
  561MOL0     H75700   6.789   2.928   5.819  1.0292 -0.1697 -2.1006
  561MOL0     H75701   6.674   3.082   5.657 -0.4924  0.0281 -0.3359
  561MOL0     H75702   6.827   3.168   5.635  0.4848 -0.7990 -2.5839
  561MOL0     H75703   6.961   2.990   5.582 -0.3712  1.5286  0.0097
  561MOL0     H75704   6.820   2.877   5.598 -0.8310  0.8062  3.4681
  561MOL0     H75705   6.907   3.006   5.359 -0.0371  2.2823 -0.6374
  561MOL0     H75706   6.787   3.123   5.412 -0.9039 -0.4889  1.9318
  561MOL0     H75707   6.626   2.919   5.433  0.0444 -0.9199 -0.2023
  561MOL0     H75708   6.752   2.811   5.370  4.1976 -0.1979  1.9897
  561MOL0     H75709   6.611   3.064   5.228 -0.0988 -0.2110 -1.5750
  561MOL0     H75710   6.762   3.014   5.170 -1.5123  2.0831 -1.4596
  561MOL0     H75711   6.690   2.781   5.127 -0.2267  0.1366  1.1376
  561MOL0     H75712   6.613   2.908   5.033 -0.3854  1.3056  1.0028
  561MOL0     H75713   6.479   2.789   5.282  2.0060 -0.8853 -0.4517
  561MOL0     H75714   6.428   2.927   5.180  0.0598 -0.2847  0.2535
  561MOL0     H75715   6.641   2.908   5.993 -0.7860 -0.3780  3.1171
  561MOL0     H75716   6.398   2.921   6.051 -1.3558  0.9712  2.1063
  561MOL0     H75717   6.094   3.170   6.275  0.9665  0.6764 -2.5253
  561MOL0     H75718   5.866   3.181   6.397  2.6571  1.1375  0.5086
  561MOL0     H75719   5.849   1.905   6.726  0.2639  0.2075  0.2191
  561MOL0     H75720   6.073   1.962   6.713 -3.8782  2.1356  0.2924
  561MOL0     H75721   6.402   1.994   6.626 -3.5577 -3.5409  0.6676
  561MOL0     H75722   6.602   2.099   6.648 -2.8275 -0.3469 -1.3699
  561MOL0     H75723   6.822   2.151   6.766 -0.2053  0.2365 -0.4857
  561MOL0     H75724   6.802   2.164   6.585 -0.2894 -0.7100 -0.4756
  561MOL0     H75725   7.023   2.266   6.666  1.5670 -0.3262  0.7270
  561MOL0     H75726   7.036   2.148   6.548  0.3520 -1.8214  0.6389
  561MOL0     H75727   7.125   1.979   6.715 -1.5731  0.0126  0.5291
  561MOL0     H75728   7.053   2.070   6.844 -0.2672  2.1845  0.9680
  561MOL0     H75729   7.301   2.119   6.680  2.6727 -2.6236  3.2989
  561MOL0     H75730   7.220   2.244   6.772 -1.8468  0.2386  0.0967
  561MOL0     H75731   7.325   1.982   7.099  0.6813 -0.4424 -0.5014
  561MOL0     H75732   6.808   1.721   6.631 -0.7521 -2.1972  3.2831
  561MOL0     H75733   6.623   1.545   6.471 -0.7800 -2.7504  0.9864
  561MOL0     H75734   6.672   1.517   6.636 -1.6796  0.4375  2.9738
  561MOL0     H75735   6.500   1.518   6.601 -0.0786  0.0459  0.3910
  562MOL0     O75736   3.525   0.680   6.416  0.1735  0.0458  0.6525
  562MOL0     C75737   3.424   0.629   6.372  0.4462  0.1967  0.0878
  562MOL0     O75738   3.411   0.557   6.260  0.1604  0.5190 -1.0924
  562MOL0     C75739   3.528   0.556   6.180  0.1191 -0.6287 -0.6235
  562MOL0     C75740   3.613   0.450   6.153  0.0067 -0.7152 -0.8316
  562MOL0     C75741   3.728   0.471   6.079 -0.2584 -0.1567  0.1629
  562MOL0     C75742   3.762   0.599   6.018 -0.3821 -0.2292 -0.1877
  562MOL0     O75743   3.889   0.628   5.975  0.3491 -0.1922 -0.0610
  562MOL0     C75744   3.969   0.517   5.927 -0.5615 -0.2504 -0.4782
  562MOL0     C75745   4.074   0.587   5.833 -1.4170  0.2076  0.5551
  562MOL0     C75746   4.174   0.677   5.898  0.5083  0.4197 -0.5964
  562MOL0     C75747   4.309   0.655   5.826  0.3580  0.0446  0.2028
  562MOL0     C75748   4.423   0.762   5.844  0.1191 -0.0308  0.3427
  562MOL0     C75749   4.429   0.877   5.745 -0.3084  0.5216  0.3630
  562MOL0     C75750   4.341   0.997   5.785 -0.1188 -0.5004  0.7782
  562MOL0     C75751   4.362   1.126   5.693  0.0175  0.4852 -0.1943
  562MOL0     N75752   4.509   1.144   5.662 -0.2806 -0.0613 -0.0064
  562MOL0     C75753   4.573   1.099   5.547 -0.5760 -1.3059 -0.5123
  562MOL0     C75754   4.700   1.100   5.581 -0.6875  0.8874  0.4252
  562MOL0     C75755   4.817   1.081   5.492 -0.5963  0.5810 -0.3101
  562MOL0     C75756   4.907   0.970   5.558 -0.4137  0.3311 -0.6343
  562MOL0     C75757   4.981   0.898   5.453 -0.7316  0.8454  0.7860
  562MOL0     C75758   5.095   0.806   5.505 -0.1036  0.0139  1.0050
  562MOL0     O75759   5.189   0.787   5.393  0.3261  0.4673 -0.2531
  562MOL0     C75760   5.306   0.738   5.436  0.2239  0.9825  0.4057
  562MOL0     C75761   5.319   0.603   5.489 -0.6765 -0.1619  0.7071
  562MOL0     C75762   5.446   0.557   5.511 -0.6521 -0.7643 -0.5464
  562MOL0     C75763   5.556   0.645   5.507 -0.7580  1.0677 -1.0643
  562MOL0     C75764   5.694   0.588   5.537 -0.5328 -0.0085  0.3911
  562MOL0     O75765   5.797   0.672   5.523  0.5504  0.6304 -0.1358
  562MOL0     C75766   5.929   0.623   5.555 -0.2951  1.1623  0.7909
  562MOL0     C75767   6.018   0.673   5.654  0.0772  0.5746  0.1132
  562MOL0     C75768   6.152   0.634   5.658  0.0458  0.0590 -0.2112
  562MOL0     C75769   6.202   0.530   5.570 -0.3448 -0.3680  0.4966
  562MOL0     O75770   6.339   0.481   5.569 -0.8385 -0.0550 -1.1252
  562MOL0     C75771   6.435   0.569   5.628 -0.2820  0.2252  0.6650
  562MOL0     C75772   6.586   0.512   5.613 -0.4990  0.5731  1.1149
  562MOL0     C75773   6.690   0.629   5.585  0.6273  0.0151  0.6381
  562MOL0     C75774   6.838   0.592   5.597 -0.6715 -0.3990 -0.6265
  562MOL0     C75775   6.881   0.487   5.501  0.2872 -0.2013  0.6899
  562MOL0     C75776   7.035   0.482   5.484 -0.6782 -0.2412 -0.0503
  562MOL0     C75777   7.086   0.599   5.390  0.2706  0.0208  0.4742
  562MOL0     C75778   7.239   0.587   5.377  0.1276 -0.1904 -0.5004
  562MOL0    Cl75779   7.325   0.646   5.527 -0.6013 -0.1799 -0.5050
  562MOL0     C75780   6.110   0.472   5.477 -0.6813  0.2076 -0.4917
  562MOL0     C75781   5.976   0.526   5.467  0.5373  0.0030  0.4633
  562MOL0     O75782   5.708   0.465   5.546  0.4247 -0.8034  0.3067
  562MOL0     C75783   5.542   0.775   5.448  0.1750  1.2861  0.4184
  562MOL0     C75784   5.419   0.811   5.406  0.4066  0.2356 -0.4962
  562MOL0     N75785   4.723   1.149   5.707  0.1772 -0.6762  0.0009
  562MOL0     N75786   4.602   1.168   5.764  0.0760  0.0433  0.4918
  562MOL0     C75787   3.672   0.709   6.043 -0.1238 -0.8405  1.0992
  562MOL0     C75788   3.554   0.678   6.110  0.1157  0.0010  0.4520
  562MOL0     C75789   3.303   0.629   6.459  0.0675 -0.9737 -0.1883
  562MOL0     C75790   3.186   0.580   6.395  0.5447 -0.0663  0.7038
  562MOL0     C75791   3.058   0.567   6.451  0.2809 -0.9558 -0.1529
  562MOL0     C75792   3.043   0.635   6.573 -0.4289  0.5387  0.3221
  562MOL0     O75793   2.911   0.672   6.612  0.0081  0.7174 -0.1005
  562MOL0     C75794   2.792   0.622   6.553  0.2853  0.6051  0.0719
  562MOL0     C75795   2.665   0.656   6.631 -0.5010 -0.1131 -0.5594
  562MOL0     C75796   2.664   0.591   6.773  0.4949 -1.1330 -0.1171
  562MOL0     C75797   2.567   0.475   6.783 -0.3251 -0.8659  0.3061
  562MOL0     C75798   2.618   0.350   6.732 -0.1164  0.3255 -1.0054
  562MOL0     C75799   2.665   0.256   6.674 -0.5232  0.4184  0.1191
  562MOL0     C75800   3.149   0.692   6.635 -0.6217  0.0250  0.2913
  562MOL0     C75801   3.281   0.681   6.586 -0.0315 -0.5372 -0.9644
  562MOL0     C75802   3.388   0.759   6.659 -0.2455 -0.5399 -0.5137
  562MOL0     H75803   3.604   0.356   6.206 -1.4075  0.2474  0.7039
  562MOL0     H75804   3.804   0.395   6.066  0.8947  0.3478  3.1030
  562MOL0     H75805   4.006   0.472   6.019 -1.3986  0.0753  0.0257
  562MOL0     H75806   3.919   0.446   5.860 -1.5187  1.1298 -1.2823
  562MOL0     H75807   4.011   0.649   5.769 -0.6575  2.9819  2.3183
  562MOL0     H75808   4.120   0.513   5.766 -1.8991  0.5875 -0.2111
  562MOL0     H75809   4.181   0.661   6.006  5.1804 -1.0998 -0.8890
  562MOL0     H75810   4.145   0.778   5.866  0.7109  0.0172 -2.1548
  562MOL0     H75811   4.349   0.557   5.852  0.3694  0.1374  0.5335
  562MOL0     H75812   4.282   0.640   5.721  2.1059  0.5533 -0.3469
  562MOL0     H75813   4.420   0.801   5.946 -0.2894  4.2190 -1.1031
  562MOL0     H75814   4.521   0.713   5.840  1.3757  2.2519  1.1604
  562MOL0     H75815   4.531   0.917   5.739  0.8902 -2.0465  2.0352
  562MOL0     H75816   4.386   0.830   5.656 -1.0009 -0.3505  1.1415
  562MOL0     H75817   4.357   1.021   5.891  0.3109  0.9559  0.4052
  562MOL0     H75818   4.235   0.969   5.786 -0.0637 -0.7378  1.7657
  562MOL0     H75819   4.299   1.135   5.604 -0.4611  1.6281  0.2391
  562MOL0     H75820   4.326   1.213   5.749  1.5155  0.7464  0.4150
  562MOL0     H75821   4.527   1.065   5.455 -2.8366  2.8483 -1.1589
  562MOL0     H75822   4.793   1.041   5.394  1.1995 -0.0889 -0.5170
  562MOL0     H75823   4.862   1.181   5.483  0.9719  0.0970  1.4583
  562MOL0     H75824   4.973   1.010   5.635  0.0509 -3.3461  1.0694
  562MOL0     H75825   4.846   0.902   5.617 -0.9591  0.7924 -0.6599
  562MOL0     H75826   5.025   0.970   5.383 -0.2081  0.8360  1.1049
  562MOL0     H75827   4.902   0.844   5.400 -0.7016 -0.8233  2.3730
  562MOL0     H75828   5.052   0.709   5.531 -4.5830  1.0482 -1.5251
  562MOL0     H75829   5.142   0.848   5.594  1.2863  0.2507  0.1825
  562MOL0     H75830   5.243   0.527   5.506 -0.8371 -0.4552 -1.1875
  562MOL0     H75831   5.465   0.459   5.553  1.4535  0.2899  1.1647
  562MOL0     H75832   5.990   0.760   5.714 -1.3688  0.6247 -0.5921
  562MOL0     H75833   6.223   0.680   5.727  1.4041 -1.1273 -0.7532
  562MOL0     H75834   6.435   0.667   5.580 -0.7065 -0.8906 -1.7493
  562MOL0     H75835   6.417   0.565   5.736  1.4546 -1.6841  0.9576
  562MOL0     H75836   6.609   0.457   5.704 -0.6851  0.5865  1.1698
  562MOL0     H75837   6.584   0.438   5.532  2.1227 -0.0131  1.5004
  562MOL0     H75838   6.669   0.658   5.482  2.0263 -0.5553  0.1638
  562MOL0     H75839   6.673   0.719   5.645 -0.9063  1.2075 -1.4573
  562MOL0     H75840   6.867   0.560   5.698 -0.0409  2.1260  0.0716
  562MOL0     H75841   6.898   0.681   5.578  0.3708 -0.6436  1.2407
  562MOL0     H75842   6.847   0.517   5.401  1.9282 -0.7379 -0.0583
  562MOL0     H75843   6.839   0.393   5.537  1.2639 -0.9666 -0.0961
  562MOL0     H75844   7.083   0.498   5.581 -0.6932  0.5725 -0.1708
  562MOL0     H75845   7.059   0.384   5.442  0.7067  0.5518 -1.2111
  562MOL0     H75846   7.059   0.693   5.439  0.3295  0.9179 -1.1488
  562MOL0     H75847   7.040   0.582   5.292 -0.8394  2.5444  0.4870
  562MOL0     H75848   7.268   0.486   5.345 -0.6876 -0.6648  0.2346
  562MOL0     H75849   7.270   0.656   5.297 -0.1514  0.7782  0.2199
  562MOL0     H75850   6.128   0.383   5.417 -4.2431 -1.3934  0.5301
  562MOL0     H75851   5.900   0.487   5.401 -1.5405 -0.2672  2.8951
  562MOL0     H75852   5.615   0.855   5.444  0.5913  0.8528 -1.0063
  562MOL0     H75853   5.401   0.913   5.373  4.2448  0.7873 -1.2773
  562MOL0     H75854   3.698   0.809   6.009 -2.0899 -0.6985 -0.2027
  562MOL0     H75855   3.476   0.752   6.124 -0.7148  0.2234 -4.0741
  562MOL0     H75856   3.193   0.528   6.300  1.5609  1.3683 -0.0530
  562MOL0     H75857   2.978   0.521   6.395 -2.1767  3.3876 -0.6510
  562MOL0     H75858   2.795   0.513   6.547  1.3778  0.6063  0.4942
  562MOL0     H75859   2.772   0.657   6.451  1.0629 -1.2264 -0.7605
  562MOL0     H75860   2.584   0.623   6.565 -0.3066 -2.4027  0.2513
  562MOL0     H75861   2.664   0.766   6.633 -1.0064 -0.1210  0.5322
  562MOL0     H75862   2.646   0.665   6.852 -1.6571 -0.8129 -0.8406
  562MOL0     H75863   2.763   0.550   6.796 -0.2254 -3.5533 -1.0825
  562MOL0     H75864   2.517   0.465   6.880 -1.7398  0.5077 -0.2247
  562MOL0     H75865   2.480   0.494   6.718  0.1724 -1.4132 -0.5357
  562MOL0     H75866   2.708   0.165   6.636  2.6349  1.0331  1.8655
  562MOL0     H75867   3.134   0.734   6.734 -0.2701  1.3500 -0.1869
  562MOL0     H75868   3.488   0.714   6.655 -0.5887 -1.5131  0.9902
  562MOL0     H75869   3.396   0.855   6.607  0.7486 -0.0943  0.4067
  562MOL0     H75870   3.375   0.778   6.766 -3.0264  2.0302 -1.1650
  563MOL0     O75871   6.300   9.731   9.449  0.3837 -0.6269  0.5974
  563MOL0     C75872   6.248   9.741   9.560 -0.2619 -0.1293  0.3345
  563MOL0     O75873   6.316   9.717   9.675  0.5758  0.1941  0.2347
  563MOL0     C75874   6.447   9.686   9.685  0.0089 -0.0419 -0.2819
  563MOL0     C75875   6.546   9.728   9.590  0.0412 -0.4892 -0.4663
  563MOL0     C75876   6.687   9.698   9.606 -0.2215 -0.0603  1.2630
  563MOL0     C75877   6.714   9.607   9.703 -0.6695  0.5172 -0.2698
  563MOL0     O75878   6.835   9.547   9.680  1.1893 -0.2376  0.2742
  563MOL0     C75879   6.849   9.406   9.675 -0.1782  0.4115 -1.7908
  563MOL0     C75880   6.972   9.368   9.588 -0.5538 -0.3193  0.1647
  563MOL0     C75881   7.099   9.348   9.665  0.4448 -0.1918 -0.5607
  563MOL0     C75882   7.181   9.476   9.696  0.1852 -0.1014 -0.3985
  563MOL0     C75883   7.322   9.420   9.733  0.1634  0.2658 -0.7192
  563MOL0     C75884   7.423   9.538   9.764  0.3520  0.1920  1.1410
  563MOL0     C75885   7.565   9.492   9.761 -0.6508 -0.2291  1.0154
  563MOL0     C75886   7.573   9.364   9.851 -0.3159 -0.0731  0.2032
  563MOL0     N75887   7.711   9.332   9.882 -0.7495 -0.1255  0.2990
  563MOL0     C75888   7.750   9.270   9.998 -0.3762 -0.0779 -0.0827
  563MOL0     C75889   7.882   9.260   9.996 -1.1669  0.1945  0.3697
  563MOL0     C75890   7.963   9.201  10.118 -0.2575  0.4683 -0.1038
  563MOL0     C75891   8.018   9.314  10.205  0.2072 -0.7193 -0.3965
  563MOL0     C75892   8.105   9.413  10.120 -0.9658 -0.5485  1.1576
  563MOL0     C75893   8.247   9.344  10.082 -0.7151 -0.6120 -0.4361
  563MOL0     O75894   8.331   9.445  10.017 -0.9584  0.4288 -0.3329
  563MOL0     C75895   8.390   9.543  10.100  0.1537 -0.1909  0.1917
  563MOL0     C75896   8.443   9.659  10.030 -1.2626  0.8119 -0.6837
  563MOL0     C75897   8.516   9.754  10.105  0.1826 -0.2745 -0.6536
  563MOL0     C75898   8.505   9.761  10.249 -0.4194  0.3248  0.2864
  563MOL0     C75899   8.562   9.874  10.327  0.5989 -0.0435  0.7326
  563MOL0     O75900   8.574   9.829  10.453 -0.5980 -0.7370  0.4881
  563MOL0     C75901   8.645   9.902  10.542  0.5095  0.3150  0.0889
  563MOL0     C75902   8.778   9.869  10.564  0.8263 -0.0627  0.2697
  563MOL0     C75903   8.856   9.947  10.647  0.4249  0.4509  0.7540
  563MOL0     C75904   8.801  10.053  10.726  0.4356 -0.4419 -0.2763
  563MOL0     O75905   8.887  10.126  10.798 -0.3716  0.4087 -0.1098
  563MOL0     C75906   8.873  10.135  10.934 -0.0980  0.0867 -0.0628
  563MOL0     C75907   9.010  10.147  10.995 -1.0516  0.0473  0.2463
  563MOL0     C75908   9.095  10.016  10.966 -1.3354  1.1628 -0.3692
  563MOL0     C75909   9.248  10.032  11.011  0.2848 -0.2436  0.2028
  563MOL0     C75910   9.277  10.046  11.160 -0.6956  0.3230  0.3410
  563MOL0     C75911   9.426  10.040  11.180 -0.5630 -0.0443  0.3293
  563MOL0     C75912   9.468  10.077  11.315 -0.9147  0.1787 -0.0271
  563MOL0     C75913   9.614  10.075  11.338 -1.1079  0.1818  0.6747
  563MOL0    Cl75914   9.701  10.176  11.221  0.4166 -0.6343 -0.1250
  563MOL0     C75915   8.663  10.072  10.718  0.8981  0.8990 -0.5716
  563MOL0     C75916   8.592  10.002  10.620  0.9540  0.3469 -0.0147
  563MOL0     O75917   8.614   9.976  10.280  0.2582  0.3755 -0.5910
  563MOL0     C75918   8.438   9.653  10.310 -0.5627  0.0360  0.0968
  563MOL0     C75919   8.393   9.547  10.240  0.4273  1.0392  0.5037
  563MOL0     N75920   7.924   9.302   9.866  0.0806 -0.0883 -0.3972
  563MOL0     N75921   7.829   9.344   9.799 -0.0295 -0.5011  0.6499
  563MOL0     C75922   6.623   9.571   9.795  1.0581  0.9441  0.3753
  563MOL0     C75923   6.490   9.610   9.793  0.1281 -0.3644  0.2950
  563MOL0     C75924   6.105   9.773   9.572  0.6868  0.9736  0.9313
  563MOL0     C75925   6.063   9.890   9.516  0.3331 -0.0831  0.3201
  563MOL0     C75926   5.932   9.930   9.517  0.5079  0.2980 -0.4690
  563MOL0     C75927   5.841   9.841   9.562 -0.7325  0.5384 -0.5520
  563MOL0     O75928   5.706   9.865   9.581  0.1515  0.0113  0.1194
  563MOL0     C75929   5.640   9.964   9.493  0.2151 -0.1902 -0.4588
  563MOL0     C75930   5.614  10.097   9.570  0.3219 -0.0770  0.0726
  563MOL0     C75931   5.506  10.069   9.678  0.0500 -0.7656 -0.1615
  563MOL0     C75932   5.556  10.094   9.821  0.1378 -0.6856 -0.9056
  563MOL0     C75933   5.550  10.238   9.841  0.4156  0.3778  0.0099
  563MOL0     C75934   5.538  10.355   9.854  0.1033  0.0403  0.1967
  563MOL0     C75935   5.879   9.727   9.638 -0.0392 -0.6408  0.5216
  563MOL0     C75936   6.018   9.686   9.636  0.5542 -0.0213  0.4076
  563MOL0     C75937   6.062   9.548   9.689  0.2673  0.4443 -0.0656
  563MOL0     H75938   6.512   9.792   9.509 -1.1850  0.1881  0.5455
  563MOL0     H75939   6.775   9.737   9.557 -1.4839 -0.8256 -1.8212
  563MOL0     H75940   6.863   9.358   9.772 -0.6743  2.6340 -0.5487
  563MOL0     H75941   6.758   9.358   9.640  0.2825 -2.0424  0.0979
  563MOL0     H75942   6.998   9.442   9.511  0.1991 -0.3846  0.3425
  563MOL0     H75943   6.947   9.277   9.534  1.3807 -1.2859  0.8125
  563MOL0     H75944   7.166   9.293   9.598  2.4843 -2.2850  2.8975
  563MOL0     H75945   7.101   9.277   9.747 -0.5770 -0.1366 -0.4722
  563MOL0     H75946   7.203   9.527   9.602  4.7625 -1.3554 -0.2911
  563MOL0     H75947   7.148   9.538   9.780  1.2823  0.7666 -0.5844
  563MOL0     H75948   7.313   9.352   9.819 -0.4477  2.2776  0.8824
  563MOL0     H75949   7.362   9.362   9.650 -1.1008  1.0757 -1.9283
  563MOL0     H75950   7.417   9.607   9.680  0.0369  2.2539  2.7727
  563MOL0     H75951   7.401   9.576   9.864 -0.1610  0.0949  1.0646
  563MOL0     H75952   7.629   9.575   9.791  2.9891 -3.0108  1.6797
  563MOL0     H75953   7.605   9.478   9.660 -0.1852  1.2412  0.9686
  563MOL0     H75954   7.527   9.382   9.949 -0.3577 -0.2845  0.2223
  563MOL0     H75955   7.522   9.276   9.811  0.6690 -0.3021 -0.6018
  563MOL0     H75956   7.688   9.252  10.086 -1.4576 -0.0890 -0.8218
  563MOL0     H75957   7.899   9.143  10.184  0.7832  2.6308  3.0268
  563MOL0     H75958   8.042   9.130  10.094  1.3228  1.2868  2.3268
  563MOL0     H75959   7.936   9.372  10.248 -0.1648 -1.0121 -0.7116
  563MOL0     H75960   8.072   9.270  10.290 -2.9508 -1.2232  1.4893
  563MOL0     H75961   8.116   9.505  10.178  1.2702 -1.4243  2.2955
  563MOL0     H75962   8.050   9.446  10.033  2.0182 -1.2859 -1.1960
  563MOL0     H75963   8.229   9.261  10.014  0.1169 -0.7805 -0.4670
  563MOL0     H75964   8.291   9.300  10.172  1.5916 -1.0568 -1.6786
  563MOL0     H75965   8.442   9.672   9.922 -4.4658  2.3616 -0.5687
  563MOL0     H75966   8.559   9.840  10.054  0.1531  0.8824  1.1999
  563MOL0     H75967   8.823   9.790  10.505 -0.2355 -0.1429 -0.4669
  563MOL0     H75968   8.963   9.935  10.653  0.4513 -1.4827 -1.6336
  563MOL0     H75969   8.817  10.227  10.955  0.8393  0.1553  2.4271
  563MOL0     H75970   8.820  10.056  10.987 -2.0795  2.9443  2.6406
  563MOL0     H75971   9.054  10.237  10.950  0.9660  0.1392  2.2405
  563MOL0     H75972   8.996  10.168  11.101  1.3834 -0.0804  0.6533
  563MOL0     H75973   9.047   9.940  11.028 -0.9779  0.8234 -0.5059
  563MOL0     H75974   9.086   9.978  10.864 -1.1759 -1.8684  0.6487
  563MOL0     H75975   9.288  10.118  10.956 -2.2092  1.7034  1.2698
  563MOL0     H75976   9.300   9.940  10.981 -1.4175 -1.8579  1.9080
  563MOL0     H75977   9.230   9.971  11.225  1.4683  0.6309  2.3724
  563MOL0     H75978   9.253  10.147  11.196 -1.2271  0.9623 -1.6886
  563MOL0     H75979   9.450   9.936  11.158 -1.3567 -0.1166 -0.2371
  563MOL0     H75980   9.467  10.108  11.105  2.3904 -0.8455  1.1105
  563MOL0     H75981   9.427  10.011  11.392  0.8560 -0.3229  0.5200
  563MOL0     H75982   9.441  10.180  11.339  1.6190  0.9190 -0.0463
  563MOL0     H75983   9.637  10.097  11.443  0.2564  1.7881  0.0833
  563MOL0     H75984   9.660   9.978  11.323 -1.0084  0.5623 -1.9961
  563MOL0     H75985   8.609  10.141  10.783  2.3255  0.7427  0.8477
  563MOL0     H75986   8.487  10.028  10.615  0.9769  0.2414 -1.4015
  563MOL0     H75987   8.427   9.644  10.418  1.7402 -0.1234  0.3580
  563MOL0     H75988   8.354   9.459  10.290 -0.0288 -0.2985 -2.0088
  563MOL0     H75989   6.654   9.500   9.870 -0.4399  0.0153  0.1467
  563MOL0     H75990   6.435   9.575   9.880  0.0063 -0.5363  0.1466
  563MOL0     H75991   6.137   9.963   9.483 -0.4811  1.3118  1.4506
  563MOL0     H75992   5.895  10.023   9.476 -1.0267 -0.3445 -0.6060
  563MOL0     H75993   5.546   9.920   9.459 -0.1775 -0.4288  0.8785
  563MOL0     H75994   5.701   9.980   9.403 -0.0216 -0.2321 -0.6269
  563MOL0     H75995   5.590  10.164   9.487  0.0454 -0.9504 -0.5590
  563MOL0     H75996   5.709  10.141   9.602 -0.3087  2.7129 -1.5849
  563MOL0     H75997   5.463   9.968   9.673  2.8516 -2.0416 -4.3818
  563MOL0     H75998   5.422  10.136   9.657  1.3798  1.3346  0.9075
  563MOL0     H75999   5.476  10.062   9.889 -2.9429  1.0148 -3.4717
  563MOL0     H76000   5.653  10.052   9.848  0.2541 -0.0317 -0.2724
  563MOL0     H76001   5.520  10.459   9.875  1.1933  0.1596  0.6123
  563MOL0     H76002   5.811   9.652   9.677 -0.9715 -1.5802 -2.6028
  563MOL0     H76003   6.103   9.489   9.606 -0.4638 -1.9334  1.1635
  563MOL0     H76004   6.127   9.563   9.775 -0.3664  0.2936  0.4524
  563MOL0     H76005   5.970   9.503   9.728  0.0417  1.9423  1.2160
  564MOL0     O76006   5.006   7.509   4.260 -0.2547 -0.4659  0.2250
  564MOL0     C76007   4.934   7.576   4.323 -0.1144  0.0236  0.1040
  564MOL0     O76008   4.972   7.707   4.358 -0.4857  0.7272  0.8396
  564MOL0     C76009   5.100   7.739   4.324  0.1298 -0.2929  0.7891
  564MOL0     C76010   5.129   7.842   4.225  0.0038  0.3418  0.7856
  564MOL0     C76011   5.258   7.886   4.200  0.0578  0.5914  0.6156
  564MOL0     C76012   5.365   7.814   4.258  0.2659  0.7797 -1.0026
  564MOL0     O76013   5.500   7.829   4.235 -0.5356  0.9532 -0.3715
  564MOL0     C76014   5.531   7.844   4.098  0.3652 -1.3401  0.2171
  564MOL0     C76015   5.578   7.987   4.074  0.5423  0.5865  0.4712
  564MOL0     C76016   5.729   8.001   4.105 -0.0722 -0.7564 -0.7202
  564MOL0     C76017   5.762   8.049   4.246  0.2586  0.9698 -0.2456
  564MOL0     C76018   5.909   8.083   4.259  0.6556  0.1404  0.6178
  564MOL0     C76019   5.955   8.060   4.395 -0.6361 -0.6710 -0.0469
  564MOL0     C76020   6.103   8.104   4.399  0.0025  0.4785  0.3452
  564MOL0     C76021   6.166   8.068   4.539  0.0208 -0.9148  0.0423
  564MOL0     N76022   6.312   8.073   4.517 -0.4709 -0.5857 -0.1953
  564MOL0     C76023   6.386   7.969   4.472  0.4041  0.4323  0.3510
  564MOL0     C76024   6.510   8.003   4.526 -1.1095  0.0857 -0.0012
  564MOL0     C76025   6.628   7.914   4.526  0.1909 -0.0864  0.0475
  564MOL0     C76026   6.621   7.801   4.431 -1.4806 -0.0633 -0.3463
  564MOL0     C76027   6.626   7.861   4.281 -0.2297  0.2222 -0.5526
  564MOL0     C76028   6.679   7.747   4.178 -0.2732 -1.0255 -0.4157
  564MOL0     O76029   6.662   7.805   4.053 -0.4806  0.2363  0.0545
  564MOL0     C76030   6.603   7.725   3.963 -0.1158  0.1322  0.4645
  564MOL0     C76031   6.589   7.581   3.971 -0.2419 -1.0304 -0.9884
  564MOL0     C76032   6.506   7.518   3.877  0.1438 -0.8318 -0.0915
  564MOL0     C76033   6.440   7.594   3.772  0.9713 -0.3213 -0.2215
  564MOL0     C76034   6.340   7.529   3.682 -0.4426 -1.0323  0.1927
  564MOL0     O76035   6.325   7.395   3.689  0.7199 -0.7009  0.2817
  564MOL0     C76036   6.242   7.328   3.604 -0.2834 -0.4598  0.0725
  564MOL0     C76037   6.110   7.357   3.596  0.1282 -1.0156  0.2921
  564MOL0     C76038   6.016   7.276   3.539 -0.4590 -0.3256 -0.6230
  564MOL0     C76039   6.049   7.154   3.485 -0.1379 -0.3717 -0.8612
  564MOL0     O76040   5.947   7.095   3.417 -0.2469 -0.1462  1.0296
  564MOL0     C76041   5.965   6.981   3.337  0.7420  0.3821  0.2903
  564MOL0     C76042   5.833   6.949   3.259 -0.4432  0.5875  0.4026
  564MOL0     C76043   5.814   6.797   3.253 -0.1303  0.4658  0.8182
  564MOL0     C76044   5.916   6.723   3.160 -0.4424  0.1424 -0.7840
  564MOL0     C76045   5.890   6.570   3.179 -0.1862  0.1159  0.6354
  564MOL0     C76046   5.958   6.475   3.069 -0.6000  0.2417  0.0591
  564MOL0     C76047   5.865   6.431   2.956  1.5702  0.4696  0.8026
  564MOL0     C76048   5.945   6.356   2.846  0.3041 -0.4986  0.6731
  564MOL0    Cl76049   5.838   6.335   2.701 -0.1786  0.0390  0.7666
  564MOL0     C76050   6.181   7.123   3.492  0.8942  0.4487 -0.4197
  564MOL0     C76051   6.278   7.202   3.556  0.9753 -0.3627 -0.1081
  564MOL0     O76052   6.285   7.600   3.599  0.1553  0.5604 -0.2452
  564MOL0     C76053   6.473   7.736   3.755  0.0243  1.3639 -0.1841
  564MOL0     C76054   6.544   7.801   3.856 -0.5820  0.1066  0.2089
  564MOL0     N76055   6.509   8.131   4.570 -0.1905 -0.2498 -0.6550
  564MOL0     N76056   6.387   8.173   4.568  0.8843 -0.2056 -0.3494
  564MOL0     C76057   5.338   7.707   4.347 -0.0690 -0.2854  0.3987
  564MOL0     C76058   5.211   7.675   4.386  0.3973 -0.1570 -0.2719
  564MOL0     C76059   4.819   7.502   4.393  0.1241 -0.2202 -0.2646
  564MOL0     C76060   4.831   7.369   4.434  0.6444 -0.1524 -0.7273
  564MOL0     C76061   4.730   7.294   4.497  0.0403  0.0187  0.2490
  564MOL0     C76062   4.612   7.360   4.536 -0.2748  0.7891 -0.1211
  564MOL0     O76063   4.509   7.302   4.610  0.1820 -0.0737 -0.3425
  564MOL0     C76064   4.520   7.163   4.645 -0.2861 -0.6209 -0.1883
  564MOL0     C76065   4.392   7.110   4.711  0.6231 -0.1893  0.9100
  564MOL0     C76066   4.386   6.955   4.754  0.1361 -1.5570  0.0611
  564MOL0     C76067   4.286   6.933   4.855 -0.5530 -0.1443  0.1218
  564MOL0     C76068   4.147   6.959   4.809  0.3704  0.4241 -1.1893
  564MOL0     C76069   4.035   6.988   4.773  0.4569 -0.6080  0.2586
  564MOL0     C76070   4.597   7.496   4.500 -0.3602  0.4741  0.0880
  564MOL0     C76071   4.699   7.571   4.431 -0.6301  0.1427 -0.5044
  564MOL0     C76072   4.676   7.725   4.407 -0.2500  0.5429  0.9311
  564MOL0     H76073   5.048   7.886   4.167 -0.1803  1.9853  2.2315
  564MOL0     H76074   5.267   7.972   4.135  0.4806  1.1200  1.3629
  564MOL0     H76075   5.609   7.771   4.075  1.2580  0.0702 -1.4759
  564MOL0     H76076   5.456   7.805   4.029 -1.7771 -1.3286  2.4039
  564MOL0     H76077   5.508   8.041   4.138  0.0070 -0.3366  0.6652
  564MOL0     H76078   5.546   8.027   3.977  0.1991  1.1196  0.8011
  564MOL0     H76079   5.768   8.080   4.041 -1.3485 -0.4689 -1.1798
  564MOL0     H76080   5.773   7.903   4.086  1.9288  0.2363 -1.4753
  564MOL0     H76081   5.703   8.139   4.268 -0.9662 -0.2903  1.9671
  564MOL0     H76082   5.729   7.974   4.318 -2.1438 -0.0805 -2.2710
  564MOL0     H76083   5.973   8.023   4.194 -0.9784 -1.5874  0.5129
  564MOL0     H76084   5.923   8.189   4.235 -0.6721  0.4580  1.1403
  564MOL0     H76085   5.899   8.123   4.465 -1.4169 -1.7399  0.3145
  564MOL0     H76086   5.946   7.953   4.414  1.8519 -0.8230  0.6509
  564MOL0     H76087   6.107   8.211   4.376 -0.4983 -0.0484 -2.6161
  564MOL0     H76088   6.155   8.043   4.325 -0.0944 -1.6388  1.9407
  564MOL0     H76089   6.134   8.150   4.605 -2.4876 -1.1502 -0.7988
  564MOL0     H76090   6.129   7.973   4.578  0.9846 -1.1439  0.4331
  564MOL0     H76091   6.343   7.876   4.436 -1.8700  1.8600 -0.8721
  564MOL0     H76092   6.705   7.985   4.498 -0.0087 -1.4426 -4.8082
  564MOL0     H76093   6.628   7.869   4.626 -5.1951 -0.1685  0.3013
  564MOL0     H76094   6.716   7.747   4.446 -2.5440 -2.6365 -2.0909
  564MOL0     H76095   6.551   7.723   4.460  0.6341 -1.6764  0.7569
  564MOL0     H76096   6.691   7.949   4.280 -0.3814  0.3421  0.0225
  564MOL0     H76097   6.528   7.892   4.242  0.1718  0.0797 -1.7047
  564MOL0     H76098   6.609   7.665   4.196 -0.7907 -0.3062  1.0324
  564MOL0     H76099   6.779   7.713   4.202  0.1247  0.7106  0.5458
  564MOL0     H76100   6.622   7.527   4.059 -0.2860 -0.9346 -0.9117
  564MOL0     H76101   6.488   7.412   3.892 -0.0018 -0.5236  2.4053
  564MOL0     H76102   6.083   7.454   3.638  4.6140  0.9006 -0.6006
  564MOL0     H76103   5.912   7.309   3.544 -0.6173 -0.8051 -0.6619
  564MOL0     H76104   6.048   6.995   3.266  0.5490 -4.6813 -1.3603
  564MOL0     H76105   5.997   6.896   3.398 -2.0154 -2.5776 -2.0643
  564MOL0     H76106   5.742   6.992   3.302 -2.1036 -1.4672 -0.8310
  564MOL0     H76107   5.849   6.977   3.155  2.7671  1.7118  1.1030
  564MOL0     H76108   5.811   6.757   3.355 -0.8964 -0.4912  0.4366
  564MOL0     H76109   5.711   6.778   3.220  0.4016 -0.7647 -0.2136
  564MOL0     H76110   6.019   6.758   3.169 -0.6515  0.8049 -0.9514
  564MOL0     H76111   5.888   6.755   3.059 -0.1100 -1.2646 -1.3577
  564MOL0     H76112   5.786   6.537   3.189  0.1094 -0.6398  1.3328
  564MOL0     H76113   5.943   6.546   3.272  1.9644 -0.2309 -0.5978
  564MOL0     H76114   6.040   6.534   3.027 -0.6466  0.9562  0.9454
  564MOL0     H76115   5.990   6.385   3.123 -1.9422 -0.2006  0.1514
  564MOL0     H76116   5.802   6.511   2.917 -1.6495 -0.8846  2.8229
  564MOL0     H76117   5.785   6.365   2.992 -0.6644  2.3446 -0.4599
  564MOL0     H76118   6.035   6.408   2.813 -0.8108  1.5303  0.6870
  564MOL0     H76119   5.974   6.260   2.890  1.4764  0.2266  1.5168
  564MOL0     H76120   6.222   7.034   3.446 -1.2277  0.7816 -3.1504
  564MOL0     H76121   6.380   7.166   3.563  1.0357 -0.0009  1.1337
  564MOL0     H76122   6.430   7.791   3.672 -0.6363  1.2551  0.0771
  564MOL0     H76123   6.561   7.908   3.846  3.6040 -0.1800  1.9089
  564MOL0     H76124   5.420   7.642   4.376 -0.4155 -3.2161 -4.2097
  564MOL0     H76125   5.185   7.594   4.453 -0.7028  0.5873  0.2239
  564MOL0     H76126   4.922   7.312   4.422 -0.0079 -1.1800 -0.8588
  564MOL0     H76127   4.753   7.188   4.503  1.8414  0.0007 -3.6628
  564MOL0     H76128   4.592   7.147   4.726 -1.8381  0.7499  1.5646
  564MOL0     H76129   4.534   7.107   4.553 -0.2893  0.1603 -0.6734
  564MOL0     H76130   4.309   7.124   4.641 -0.2348 -2.7888  1.2707
  564MOL0     H76131   4.362   7.170   4.797  0.5546 -1.8210  2.0818
  564MOL0     H76132   4.483   6.935   4.801  1.2179  2.8620  0.1671
  564MOL0     H76133   4.377   6.896   4.662 -0.3543 -0.3301 -0.7044
  564MOL0     H76134   4.287   6.827   4.882 -0.8020  0.0976  1.0865
  564MOL0     H76135   4.307   6.999   4.939 -0.9307 -2.3485  2.0342
  564MOL0     H76136   3.929   7.004   4.761  0.4421 -1.5347 -0.9993
  564MOL0     H76137   4.512   7.552   4.538 -2.1828 -0.2004 -2.7031
  564MOL0     H76138   4.759   7.787   4.442 -0.3250  2.3253 -1.7538
  564MOL0     H76139   4.667   7.740   4.299 -0.1082  1.2653  1.0129
  564MOL0     H76140   4.583   7.755   4.456 -0.8606 -2.0759  1.5043
  565MOL0     O76141   3.945   9.723   9.305  0.2983 -0.0481  0.8416
  565MOL0     C76142   3.846   9.792   9.272 -0.9610  0.0908 -0.0937
  565MOL0     O76143   3.849   9.925   9.253 -0.6235 -0.0493  0.3434
  565MOL0     C76144   3.958   9.987   9.210 -0.3551 -0.8483 -0.0033
  565MOL0     C76145   4.064   9.926   9.139  0.4080  0.3281 -0.0227
  565MOL0     C76146   4.180  10.006   9.106  0.4596 -0.3060 -0.5797
  565MOL0     C76147   4.189  10.145   9.135 -0.2732  0.1600  0.7732
  565MOL0     O76148   4.305  10.206   9.101 -0.0162 -0.2515  0.4316
  565MOL0     C76149   4.303  10.347   9.079  0.0392 -0.0592  0.8613
  565MOL0     C76150   4.431  10.394   9.011 -0.1816  0.3862 -0.1883
  565MOL0     C76151   4.556  10.384   9.097  0.1027 -0.3091  0.6059
  565MOL0     C76152   4.677  10.308   9.049 -0.4636 -0.8898 -0.0075
  565MOL0     C76153   4.729  10.344   8.910  0.3988  0.3263 -0.3985
  565MOL0     C76154   4.858  10.297   8.860 -0.2851 -0.2235 -0.2430
  565MOL0     C76155   4.920  10.173   8.933 -0.8180 -0.5459  0.2083
  565MOL0     C76156   5.058  10.131   8.875 -0.6251  0.4676 -1.1607
  565MOL0     N76157   5.143  10.251   8.883  0.0938 -0.3734  0.6731
  565MOL0     C76158   5.205  10.299   9.002  0.6090 -0.8122  0.5177
  565MOL0     C76159   5.282  10.399   8.953 -0.5512 -0.2622  0.7284
  565MOL0     C76160   5.353  10.494   9.037 -0.5401 -0.7331 -0.5438
  565MOL0     C76161   5.492  10.445   9.069 -0.7593 -0.0462 -0.1589
  565MOL0     C76162   5.557  10.558   9.146  0.1732 -0.0798  0.0733
  565MOL0     C76163   5.696  10.533   9.206  0.3117 -0.1296  0.5199
  565MOL0     O76164   5.680  10.450   9.315 -0.1809  0.1735  0.5846
  565MOL0     C76165   5.787  10.435   9.393  0.5238 -0.8407 -0.0662
  565MOL0     C76166   5.900  10.362   9.348  1.1465 -0.0698  0.1729
  565MOL0     C76167   6.004  10.339   9.434 -0.4369  0.6376 -0.4713
  565MOL0     C76168   6.004  10.395   9.566 -0.7795  0.4088 -0.2329
  565MOL0     C76169   6.110  10.352   9.655 -0.4798 -0.2884 -0.6082
  565MOL0     O76170   6.193  10.246   9.618  0.6506  0.0340 -0.1702
  565MOL0     C76171   6.319  10.222   9.665 -0.8837 -0.4603  0.9199
  565MOL0     C76172   6.386  10.129   9.594 -1.0011  1.0934  0.2109
  565MOL0     C76173   6.523  10.110   9.614  0.1962  0.5971  0.0061
  565MOL0     C76174   6.597  10.201   9.692  0.0610  0.1535  0.0270
  565MOL0     O76175   6.733  10.197   9.707  0.1971  0.4718  0.4275
  565MOL0     C76176   6.807  10.076   9.679 -0.2343 -0.6666 -0.2908
  565MOL0     C76177   6.948  10.104   9.751 -0.4195 -0.1018  0.7402
  565MOL0     C76178   7.069  10.044   9.662 -0.3626  0.4684  0.1442
  565MOL0     C76179   7.109   9.898   9.697  0.0528  0.2301  1.2421
  565MOL0     C76180   7.237   9.865   9.610 -0.8032  0.0745 -0.9489
  565MOL0     C76181   7.377   9.935   9.654  0.5912  0.2114 -0.4651
  565MOL0     C76182   7.486   9.892   9.545 -1.4729  0.4397 -1.4961
  565MOL0     C76183   7.620   9.939   9.603 -0.1431  0.6650 -0.2838
  565MOL0    Cl76184   7.737   9.908   9.489  0.3456 -0.3566  0.1553
  565MOL0     C76185   6.534  10.289   9.767  0.3324 -0.1430  0.2084
  565MOL0     C76186   6.400  10.307   9.749 -0.5975  0.1037  0.9472
  565MOL0     O76187   6.124  10.413   9.757  0.0471 -0.0584  0.3144
  565MOL0     C76188   5.890  10.459   9.620 -0.2985  0.0655  0.5223
  565MOL0     C76189   5.783  10.477   9.530 -0.6889  0.7489  0.5313
  565MOL0     N76190   5.277  10.401   8.813  0.0898  0.5843  0.0856
  565MOL0     N76191   5.205  10.309   8.770 -0.8887  0.4421 -0.0055
  565MOL0     C76192   4.080  10.201   9.200 -1.3268 -0.1246 -1.1203
  565MOL0     C76193   3.960  10.127   9.225  0.0705  0.6491  0.1240
  565MOL0     C76194   3.721   9.723   9.267  0.4442 -0.7638  0.4209
  565MOL0     C76195   3.650   9.714   9.141  0.2746  0.4685 -0.2478
  565MOL0     C76196   3.527   9.643   9.136  0.3515  0.5707 -0.3725
  565MOL0     C76197   3.467   9.594   9.255  0.5538 -0.1092  0.1477
  565MOL0     O76198   3.347   9.530   9.255 -0.5298  0.6974 -0.3064
  565MOL0     C76199   3.252   9.547   9.154 -0.9455 -1.0147  0.5744
  565MOL0     C76200   3.119   9.476   9.192  0.8192  0.6304 -0.2805
  565MOL0     C76201   3.027   9.457   9.081 -0.2125  0.4133 -0.4769
  565MOL0     C76202   2.900   9.394   9.124 -0.2946 -0.3649 -0.1645
  565MOL0     C76203   2.813   9.342   9.018 -0.0660  0.2123 -0.1385
  565MOL0     C76204   2.737   9.306   8.940 -0.8723  0.0181  0.5248
  565MOL0     C76205   3.537   9.610   9.378  0.0088  0.2210 -0.0968
  565MOL0     C76206   3.661   9.664   9.384  0.3933 -0.9204  0.3624
  565MOL0     C76207   3.711   9.688   9.521 -1.4413  0.1152 -0.1833
  565MOL0     H76208   4.065   9.821   9.111  0.8340 -0.3179  2.2449
  565MOL0     H76209   4.267   9.952   9.073  1.8529  0.5717  1.4298
  565MOL0     H76210   4.223  10.369   9.007  1.2445 -0.5750 -0.6950
  565MOL0     H76211   4.269  10.407   9.164 -0.7954 -2.1106  2.0356
  565MOL0     H76212   4.419  10.498   8.980 -2.4936  0.2039 -0.0778
  565MOL0     H76213   4.456  10.323   8.932  4.9005  0.9597  0.5789
  565MOL0     H76214   4.522  10.341   9.192 -2.1210  0.5831  0.2915
  565MOL0     H76215   4.581  10.491   9.099  1.3685 -0.4623 -2.2694
  565MOL0     H76216   4.747  10.323   9.132  0.3497  0.6626 -0.9460
  565MOL0     H76217   4.654  10.202   9.036  3.8420 -1.6487 -3.6417
  565MOL0     H76218   4.656  10.329   8.830 -1.6800  0.8731  1.2976
  565MOL0     H76219   4.739  10.453   8.914 -1.0926  0.6643 -3.2720
  565MOL0     H76220   4.845  10.270   8.755  1.7630 -3.4103  0.1994
  565MOL0     H76221   4.934  10.375   8.866  0.5423 -1.0274 -0.0397
  565MOL0     H76222   4.849  10.090   8.935 -0.3989 -0.8794  1.2208
  565MOL0     H76223   4.928  10.198   9.039  2.0411 -2.1991  0.4769
  565MOL0     H76224   5.097  10.055   8.944 -0.2959  0.9112 -0.8547
  565MOL0     H76225   5.052  10.101   8.770  2.5762  1.4224 -1.7174
  565MOL0     H76226   5.182  10.289   9.108 -1.0584  3.2001  0.7110
  565MOL0     H76227   5.370  10.581   8.974  1.6743  0.1328  1.1345
  565MOL0     H76228   5.286  10.531   9.114  0.0214  0.3094 -0.5370
  565MOL0     H76229   5.477  10.358   9.134  0.5387 -2.0822 -2.4439
  565MOL0     H76230   5.550  10.411   8.983 -0.2335 -1.4368  0.7127
  565MOL0     H76231   5.493  10.605   9.221  0.1711  1.0441 -0.6077
  565MOL0     H76232   5.569  10.643   9.077  3.1860 -0.6344 -0.2410
  565MOL0     H76233   5.748  10.624   9.239  0.4257 -0.2934  0.7936
  565MOL0     H76234   5.772  10.498   9.136  0.2694 -0.8713  0.8436
  565MOL0     H76235   5.902  10.329   9.245  2.7102 -0.5797  0.3403
  565MOL0     H76236   6.091  10.281   9.406 -0.0124  1.7318 -1.5032
  565MOL0     H76237   6.335  10.064   9.523 -0.7615  3.7214 -2.5581
  565MOL0     H76238   6.578  10.026   9.571 -0.5661  0.4646 -0.7338
  565MOL0     H76239   6.750   9.989   9.713 -1.4634 -0.5641 -1.9736
  565MOL0     H76240   6.837  10.063   9.575 -0.6175 -0.3154 -0.4507
  565MOL0     H76241   6.970  10.211   9.755  1.6796 -0.3626 -1.7147
  565MOL0     H76242   6.937  10.046   9.843  0.1514 -0.2418  0.7202
  565MOL0     H76243   7.057  10.056   9.554  0.1894 -0.5672 -0.0469
  565MOL0     H76244   7.162  10.095   9.689  0.0510 -0.5663  0.7111
  565MOL0     H76245   7.030   9.826   9.676  0.4702 -0.4700  2.0134
  565MOL0     H76246   7.127   9.876   9.803  1.5181 -0.6663  0.8296
  565MOL0     H76247   7.210   9.887   9.506  1.8460 -2.0867 -2.2046
  565MOL0     H76248   7.259   9.758   9.614  0.1600  0.2832 -0.4331
  565MOL0     H76249   7.390  10.043   9.662  3.8974 -0.2183  3.6756
  565MOL0     H76250   7.407   9.889   9.749 -2.7080 -1.4958 -0.0912
  565MOL0     H76251   7.471   9.932   9.444  2.2968  2.3912 -1.4665
  565MOL0     H76252   7.486   9.783   9.542 -0.9566  0.2513  1.5156
  565MOL0     H76253   7.641  10.040   9.640  2.0076  0.2172 -0.1719
  565MOL0     H76254   7.635   9.879   9.693  1.4625  0.8966 -0.3669
  565MOL0     H76255   6.581  10.338   9.853 -0.4921 -2.2875  1.9764
  565MOL0     H76256   6.349  10.372   9.820 -3.2391  1.4300 -1.9071
  565MOL0     H76257   5.885  10.489   9.724 -0.8901  0.5490  0.3546
  565MOL0     H76258   5.695  10.519   9.578 -1.4651 -1.5120  1.2344
  565MOL0     H76259   4.093  10.307   9.216  0.7595 -0.5431  0.5135
  565MOL0     H76260   3.877  10.182   9.267  1.3011  2.2327  0.6161
  565MOL0     H76261   3.712   9.732   9.054  0.3498 -0.4044 -0.3849
  565MOL0     H76262   3.484   9.621   9.038  0.6952 -1.8389 -0.0473
  565MOL0     H76263   3.293   9.502   9.062 -0.2160 -0.3458  0.5673
  565MOL0     H76264   3.255   9.652   9.126  2.1068 -0.9209  0.8903
  565MOL0     H76265   3.081   9.542   9.271  2.8768  1.2825  0.2449
  565MOL0     H76266   3.139   9.384   9.248 -3.3690 -0.5632 -0.4174
  565MOL0     H76267   3.080   9.396   9.008  0.2195 -1.9182  1.6270
  565MOL0     H76268   3.002   9.553   9.036 -2.4599  1.2118  2.2068
  565MOL0     H76269   2.933   9.309   9.185  2.3844  0.2358 -0.6462
  565MOL0     H76270   2.843   9.475   9.171  0.1495 -1.4627  2.4286
  565MOL0     H76271   2.664   9.279   8.866 -0.6158  1.0072 -0.1031
  565MOL0     H76272   3.499   9.565   9.469 -2.3501 -1.0608 -1.5948
  565MOL0     H76273   3.765   9.782   9.537 -3.6884  0.9915  3.3420
  565MOL0     H76274   3.621   9.703   9.581 -1.6086 -0.6801 -0.2256
  565MOL0     H76275   3.765   9.596   9.546 -1.6254 -0.7621 -2.7070
  566MOL0     O76276   1.391   1.855   5.692 -0.8627 -0.3117 -0.4672
  566MOL0     C76277   1.371   1.901   5.580 -0.5955  0.1844  0.1420
  566MOL0     O76278   1.451   1.900   5.475 -0.4501 -0.5465 -0.0067
  566MOL0     C76279   1.587   1.877   5.499 -0.8110  0.8043  0.4469
  566MOL0     C76280   1.653   1.752   5.472 -0.0015  0.1318 -0.4513
  566MOL0     C76281   1.791   1.730   5.472  0.0495 -0.6018  0.0308
  566MOL0     C76282   1.869   1.840   5.500 -0.6855 -0.1893  0.2466
  566MOL0     O76283   2.007   1.812   5.526  0.5751  0.0378  0.0524
  566MOL0     C76284   2.101   1.873   5.438  0.2552  0.8553 -0.4627
  566MOL0     C76285   2.179   1.967   5.524 -0.7509 -0.5929  0.3475
  566MOL0     C76286   2.331   1.970   5.480  0.0699  0.5850  0.3066
  566MOL0     C76287   2.415   2.062   5.565  0.5897  0.7035  0.4537
  566MOL0     C76288   2.569   2.054   5.523  1.5010 -0.6039 -0.0772
  566MOL0     C76289   2.650   2.143   5.622  0.3646 -0.1252 -0.2969
  566MOL0     C76290   2.792   2.150   5.568  0.1447  1.0000 -0.1203
  566MOL0     C76291   2.855   2.004   5.578  0.2839  0.3640  0.6595
  566MOL0     N76292   3.000   2.025   5.603  0.4687  0.3978 -0.6149
  566MOL0     C76293   3.074   2.037   5.722  0.1110  0.2027  0.3674
  566MOL0     C76294   3.204   2.040   5.687  0.3605 -0.0035 -0.5175
  566MOL0     C76295   3.324   2.053   5.774 -0.3230  0.1073  0.8527
  566MOL0     C76296   3.404   1.923   5.762 -0.3349  0.3359  0.2026
  566MOL0     C76297   3.527   1.934   5.839 -1.1226  0.5971  0.3275
  566MOL0     C76298   3.513   1.935   5.987  0.7962 -0.3147  0.0641
  566MOL0     O76299   3.628   1.986   6.047  0.1607  0.1982 -0.3871
  566MOL0     C76300   3.751   1.923   6.036 -0.6354  0.1017  0.8626
  566MOL0     C76301   3.858   1.997   6.074 -1.0295  0.4963  0.2529
  566MOL0     C76302   3.989   1.953   6.046 -0.2535  0.5346  0.1043
  566MOL0     C76303   4.017   1.828   5.987  0.5556  0.2468 -0.4881
  566MOL0     C76304   4.152   1.777   5.949  1.0853 -1.4609  0.2366
  566MOL0     O76305   4.148   1.703   5.830  0.6416  0.6798 -0.0157
  566MOL0     C76306   4.267   1.682   5.768 -0.5019 -0.3151  0.0396
  566MOL0     C76307   4.343   1.577   5.815 -0.1002  0.2655 -0.1067
  566MOL0     C76308   4.467   1.547   5.757  0.0096  0.8846 -0.4790
  566MOL0     C76309   4.507   1.622   5.641  0.0689  0.5734 -0.6412
  566MOL0     O76310   4.619   1.579   5.571  0.1328  0.2260 -0.2025
  566MOL0     C76311   4.732   1.533   5.637 -0.3625 -0.8504 -0.2663
  566MOL0     C76312   4.860   1.568   5.556  0.5264 -0.2271  0.8781
  566MOL0     C76313   4.980   1.548   5.634  0.5035  1.5215  0.7450
  566MOL0     C76314   5.025   1.395   5.619 -0.5365 -0.0326  0.9615
  566MOL0     C76315   5.164   1.385   5.673  0.7820 -0.1884  0.5233
  566MOL0     C76316   5.213   1.236   5.686  0.8879  0.3132 -0.0699
  566MOL0     C76317   5.337   1.244   5.774 -0.6090  0.3366  0.4756
  566MOL0     C76318   5.393   1.109   5.796  0.2940  0.6145  0.9558
  566MOL0    Cl76319   5.479   1.054   5.652  0.1924 -0.3089  0.5774
  566MOL0     C76320   4.418   1.712   5.586  0.4675  0.3979 -0.4096
  566MOL0     C76321   4.303   1.751   5.658 -0.2843  0.1614  0.2484
  566MOL0     O76322   4.255   1.809   6.002  0.1129 -0.7452 -0.1080
  566MOL0     C76323   3.908   1.750   5.958  1.1898 -0.6317  0.0970
  566MOL0     C76324   3.782   1.798   5.979 -0.6683 -0.5730 -0.6371
  566MOL0     N76325   3.217   2.036   5.552 -0.4376  0.5577  0.5871
  566MOL0     N76326   3.096   2.012   5.506 -0.7926 -0.8831  0.1577
  566MOL0     C76327   1.811   1.967   5.525  0.1850  0.4221  0.0430
  566MOL0     C76328   1.672   1.987   5.525  0.6094 -0.2356  0.4227
  566MOL0     C76329   1.233   1.960   5.561 -0.9787 -0.3503 -0.4075
  566MOL0     C76330   1.222   2.079   5.633  0.5304 -0.3700 -0.1674
  566MOL0     C76331   1.092   2.140   5.643  0.1754 -0.7944  0.7117
  566MOL0     C76332   0.985   2.092   5.563  0.7120  0.1848  0.6044
  566MOL0     O76333   0.861   2.154   5.591 -0.4122 -0.3394 -0.8005
  566MOL0     C76334   0.739   2.114   5.520 -0.4112  0.1638 -0.0789
  566MOL0     C76335   0.667   1.987   5.581 -0.2488 -0.3820 -0.5984
  566MOL0     C76336   0.604   2.011   5.720  0.5008  0.9469  0.3615
  566MOL0     C76337   0.522   1.889   5.781 -0.1206  0.3308 -0.2264
  566MOL0     C76338   0.410   1.942   5.865  0.0289  0.0747  0.5710
  566MOL0     C76339   0.325   2.004   5.926 -0.2993  0.8835 -0.3973
  566MOL0     C76340   1.001   1.987   5.472  0.3451  0.5387  0.0863
  566MOL0     C76341   1.126   1.912   5.473 -0.9069 -0.5213 -0.3137
  566MOL0     C76342   1.141   1.785   5.389  0.7957 -0.4664 -0.0509
  566MOL0     H76343   1.591   1.665   5.451  0.0651 -0.4250  1.4777
  566MOL0     H76344   1.840   1.635   5.452  1.8185 -0.1904  2.1627
  566MOL0     H76345   2.169   1.797   5.399 -0.7889  0.2568 -1.1608
  566MOL0     H76346   2.059   1.925   5.352  0.6687 -0.0907 -1.2465
  566MOL0     H76347   2.174   1.942   5.630 -0.2843  0.2620  0.5823
  566MOL0     H76348   2.143   2.070   5.514  0.0177 -0.0315  2.7069
  566MOL0     H76349   2.331   1.989   5.373  0.0097 -0.5942  0.0798
  566MOL0     H76350   2.372   1.871   5.501 -2.6704 -0.1481  2.9880
  566MOL0     H76351   2.374   2.164   5.562 -3.2557 -0.4444  3.7900
  566MOL0     H76352   2.401   2.030   5.669  0.1323  1.5568  0.6643
  566MOL0     H76353   2.602   1.949   5.518 -0.1293 -1.1049 -0.9145
  566MOL0     H76354   2.585   2.076   5.417  0.3817 -1.1732 -0.3807
  566MOL0     H76355   2.599   2.240   5.623  0.9244  0.3215 -3.2270
  566MOL0     H76356   2.652   2.101   5.723  2.0503  0.3715 -0.0907
  566MOL0     H76357   2.845   2.213   5.641  1.8653  1.4511 -1.6852
  566MOL0     H76358   2.784   2.196   5.470 -0.7938  1.9845  0.4023
  566MOL0     H76359   2.805   1.942   5.653 -1.8678 -0.6385 -1.4665
  566MOL0     H76360   2.855   1.952   5.482  2.0835  1.5849 -0.0560
  566MOL0     H76361   3.034   2.040   5.823  1.0261 -2.8897  0.9101
  566MOL0     H76362   3.380   2.145   5.752 -0.6465  0.1975  0.3747
  566MOL0     H76363   3.302   2.063   5.880  0.9388  1.5772  1.0160
  566MOL0     H76364   3.348   1.834   5.789 -0.7603 -0.1567 -2.0766
  566MOL0     H76365   3.432   1.908   5.657  0.8402  0.6070  0.4678
  566MOL0     H76366   3.581   2.022   5.805  3.2459 -2.0463 -0.2645
  566MOL0     H76367   3.593   1.851   5.813 -0.5067  1.0919  0.2915
  566MOL0     H76368   3.487   1.835   6.023  0.8144 -1.1388 -2.0593
  566MOL0     H76369   3.424   1.994   6.011  1.0449 -1.3286  4.2641
  566MOL0     H76370   3.842   2.079   6.144 -1.5802 -0.2690  1.0369
  566MOL0     H76371   4.068   2.021   6.078  0.3739  0.5619 -1.4217
  566MOL0     H76372   4.306   1.516   5.897  3.9304 -0.8653  1.0852
  566MOL0     H76373   4.534   1.469   5.793  0.3453 -0.7299 -4.1333
  566MOL0     H76374   4.747   1.580   5.735 -1.3409  0.3477 -0.6702
  566MOL0     H76375   4.723   1.426   5.656  0.3490 -1.2796 -2.0894
  566MOL0     H76376   4.866   1.505   5.467 -2.3689  0.8112 -0.1601
  566MOL0     H76377   4.853   1.675   5.539 -3.1087  0.1386  3.5792
  566MOL0     H76378   5.063   1.608   5.595  1.5246  1.0858  2.1482
  566MOL0     H76379   4.966   1.567   5.741 -1.6613 -4.4116  1.9031
  566MOL0     H76380   5.023   1.346   5.521 -2.4948  2.6258 -0.4657
  566MOL0     H76381   4.953   1.346   5.686  1.9651 -2.0747  2.3613
  566MOL0     H76382   5.160   1.432   5.772 -0.5216  0.1221  0.3378
  566MOL0     H76383   5.226   1.452   5.613  0.9608  1.3208  2.3055
  566MOL0     H76384   5.130   1.175   5.722  2.0834 -0.7342  1.0472
  566MOL0     H76385   5.233   1.185   5.591 -0.3328 -1.9983  0.8288
  566MOL0     H76386   5.310   1.281   5.873  0.1652 -0.1485  0.8774
  566MOL0     H76387   5.415   1.297   5.718 -0.6249 -1.7866 -1.6969
  566MOL0     H76388   5.458   1.096   5.883  3.0204 -0.4797 -1.1009
  566MOL0     H76389   5.307   1.043   5.806  0.7341 -0.6008 -2.1782
  566MOL0     H76390   4.435   1.745   5.484  0.7217 -0.1294 -0.5401
  566MOL0     H76391   4.236   1.827   5.621 -0.2299 -0.9665 -2.4090
  566MOL0     H76392   3.923   1.651   5.917 -0.8223 -0.2040 -1.8554
  566MOL0     H76393   3.693   1.739   5.960 -1.8804  0.7070  0.8178
  566MOL0     H76394   1.873   2.048   5.562  1.7783 -1.2360  1.1936
  566MOL0     H76395   1.624   2.082   5.548 -0.5989 -1.5432  3.9654
  566MOL0     H76396   1.307   2.108   5.694  0.7860 -0.9186 -0.2579
  566MOL0     H76397   1.073   2.216   5.719  1.2415 -1.6000  1.8289
  566MOL0     H76398   0.758   2.097   5.414 -2.8992 -1.1918 -0.3750
  566MOL0     H76399   0.663   2.193   5.524  0.2149  0.7261  2.1911
  566MOL0     H76400   0.745   1.910   5.590 -1.5664 -1.8703 -1.4106
  566MOL0     H76401   0.590   1.963   5.507  0.2889  0.5247 -1.4789
  566MOL0     H76402   0.529   2.090   5.714 -0.2894  0.4023  2.2332
  566MOL0     H76403   0.684   2.034   5.791  2.2248 -0.7720 -0.9311
  566MOL0     H76404   0.472   1.828   5.705 -2.5137 -1.0083  2.2194
  566MOL0     H76405   0.590   1.827   5.840  3.0514  0.8448 -3.0591
  566MOL0     H76406   0.248   2.063   5.971  0.6927  2.1321 -0.2941
  566MOL0     H76407   0.920   1.948   5.412 -0.0883 -1.3858  1.8409
  566MOL0     H76408   1.193   1.709   5.448 -0.3758 -0.3982  1.1331
  566MOL0     H76409   1.042   1.741   5.372  0.0198  1.7561 -1.7670
  566MOL0     H76410   1.179   1.810   5.290 -1.0416  3.9299  0.0858
  567MOL0     O76411   8.775   1.089   6.795 -0.6591  0.0054  0.0229
  567MOL0     C76412   8.688   0.998   6.793 -0.0513  0.2602 -0.6343
  567MOL0     O76413   8.712   0.857   6.779 -0.0242  0.4959  0.5275
  567MOL0     C76414   8.832   0.832   6.732 -0.8600 -0.1155 -0.6578
  567MOL0     C76415   8.938   0.779   6.814  1.0521 -0.6415 -0.6434
  567MOL0     C76416   9.070   0.757   6.758  0.0735  0.4308 -0.1894
  567MOL0     C76417   9.089   0.766   6.620  0.0990 -0.7337  0.7640
  567MOL0     O76418   9.213   0.720   6.575  0.5270 -0.9544 -0.3439
  567MOL0     C76419   9.264   0.777   6.454 -0.8710  0.5696  0.4181
  567MOL0     C76420   9.397   0.845   6.501 -0.4861 -0.2084  0.3721
  567MOL0     C76421   9.472   0.916   6.391 -0.2702  0.8571  0.1863
  567MOL0     C76422   9.599   0.987   6.453  0.5039 -0.4349 -0.2513
  567MOL0     C76423   9.654   1.102   6.356  0.6628  0.6561 -0.4012
  567MOL0     C76424   9.713   1.043   6.227  0.4858  0.7231 -1.5113
  567MOL0     C76425   9.790   1.156   6.154  0.0090 -0.2617  1.1724
  567MOL0     C76426   9.896   1.096   6.061  0.7279  0.3169 -0.0322
  567MOL0     N76427   9.915   1.190   5.953 -0.7321  0.2721 -0.3111
  567MOL0     C76428   9.865   1.187   5.830  0.4823 -0.0880  0.3516
  567MOL0     C76429   9.883   1.311   5.780 -0.6872  0.3373 -0.3717
  567MOL0     C76430   9.851   1.356   5.642  0.1843 -0.0989 -0.6627
  567MOL0     C76431   9.971   1.385   5.562 -0.2284  0.2958 -0.8227
  567MOL0     C76432  10.073   1.490   5.610  0.7122 -0.2280 -0.1075
  567MOL0     C76433  10.002   1.632   5.618  1.2395  1.4938  0.6220
  567MOL0     O76434  10.086   1.734   5.588 -0.1315  0.1587  0.5283
  567MOL0     C76435  10.091   1.795   5.469 -0.9554 -0.5445  0.5914
  567MOL0     C76436  10.190   1.900   5.457  0.3455  0.4097 -0.3558
  567MOL0     C76437  10.198   1.978   5.344  0.7970  0.1131 -0.2178
  567MOL0     C76438  10.111   1.945   5.236 -1.0388  0.0334  0.7218
  567MOL0     C76439  10.117   2.032   5.115 -0.3633 -0.0452  0.0996
  567MOL0     O76440  10.242   2.069   5.080  0.3406 -0.6238 -0.5098
  567MOL0     C76441  10.240   2.138   4.963  1.3475 -0.3102  0.1946
  567MOL0     C76442  10.203   2.057   4.852  0.5361  0.1146  0.0058
  567MOL0     C76443  10.214   2.118   4.726  0.0585  0.6211 -0.2847
  567MOL0     C76444  10.243   2.255   4.708  0.2588 -0.0748  1.0756
  567MOL0     O76445  10.259   2.312   4.582  0.0666  0.9605  0.0463
  567MOL0     C76446  10.361   2.250   4.494 -0.2240  0.2699  0.1317
  567MOL0     C76447  10.362   2.312   4.346 -0.4228  0.0552 -0.7508
  567MOL0     C76448  10.239   2.262   4.265 -0.1751  0.2477 -0.7183
  567MOL0     C76449  10.237   2.312   4.120  0.0551  0.1023 -0.4233
  567MOL0     C76450  10.355   2.247   4.046 -0.8406 -0.6020 -1.4465
  567MOL0     C76451  10.366   2.318   3.910  0.0894  0.1975  0.3080
  567MOL0     C76452  10.445   2.243   3.794 -0.3694 -0.0278  0.0160
  567MOL0     C76453  10.512   2.355   3.708 -0.4501 -0.4700 -0.1385
  567MOL0    Cl76454  10.385   2.450   3.633  0.0765 -0.4614 -0.0307
  567MOL0     C76455  10.282   2.331   4.815 -0.0404 -0.7240 -0.6416
  567MOL0     C76456  10.275   2.273   4.948 -0.4364 -0.0422 -0.4215
  567MOL0     O76457  10.007   2.049   5.057  0.9171 -0.0976  0.0115
  567MOL0     C76458  10.019   1.839   5.245  0.4583 -0.3149 -0.6973
  567MOL0     C76459  10.013   1.758   5.360  0.3530 -0.2272 -0.7544
  567MOL0     N76460   9.959   1.383   5.873  0.1565  0.5933 -0.3532
  567MOL0     N76461   9.980   1.303   5.967 -0.6648  0.5013 -0.4048
  567MOL0     C76462   8.981   0.819   6.543  0.2354  0.3791  0.4134
  567MOL0     C76463   8.853   0.848   6.595 -0.7475  0.8709  0.4458
  567MOL0     C76464   8.549   1.030   6.847 -1.1198 -0.2124  0.7197
  567MOL0     C76465   8.494   0.936   6.930 -0.6457 -0.3375 -0.4023
  567MOL0     C76466   8.363   0.955   6.975  0.3303  0.3073  0.1476
  567MOL0     C76467   8.284   1.067   6.934  0.8095 -0.2753  0.8342
  567MOL0     O76468   8.148   1.079   6.959  0.5890  0.0391 -0.6998
  567MOL0     C76469   8.047   1.065   6.863 -1.0937 -0.1047  0.4610
  567MOL0     C76470   7.923   1.026   6.943 -0.0246  0.1069  0.4881
  567MOL0     C76471   7.946   0.912   7.045 -0.6371  0.2189 -0.0257
  567MOL0     C76472   7.818   0.819   7.047 -0.0550  0.4501 -0.0427
  567MOL0     C76473   7.796   0.749   6.921  0.1659  1.1269 -0.0062
  567MOL0     C76474   7.797   0.720   6.812  0.9780  0.1879  1.1621
  567MOL0     C76475   8.347   1.168   6.855  0.0581  0.4253  0.1246
  567MOL0     C76476   8.480   1.148   6.810  0.7547 -0.5518 -0.9532
  567MOL0     C76477   8.526   1.248   6.711 -0.0674  0.9079  0.2077
  567MOL0     H76478   8.901   0.768   6.916 -2.8515 -0.8788 -1.9061
  567MOL0     H76479   9.149   0.705   6.810  0.0341 -0.0638 -0.6134
  567MOL0     H76480   9.292   0.699   6.382 -1.3132  0.1226  0.7230
  567MOL0     H76481   9.190   0.838   6.401  0.1135  2.1820  0.8413
  567MOL0     H76482   9.461   0.763   6.537 -1.0586 -0.3859  0.9908
  567MOL0     H76483   9.385   0.908   6.589  1.2189 -1.5642  1.6492
  567MOL0     H76484   9.405   0.987   6.342 -0.9141 -1.3788 -2.4914
  567MOL0     H76485   9.505   0.842   6.316 -2.0450  0.8331 -0.6155
  567MOL0     H76486   9.557   1.036   6.542  0.6096 -2.4053  0.9335
  567MOL0     H76487   9.677   0.924   6.495  3.1160  3.4795  1.3246
  567MOL0     H76488   9.576   1.176   6.340  0.4444  0.9547  1.7207
  567MOL0     H76489   9.731   1.146   6.421  1.0158  1.3923 -1.3034
  567MOL0     H76490   9.777   0.971   6.280 -0.4295  2.0972  1.7188
  567MOL0     H76491   9.640   0.991   6.164 -1.3569  0.8766  0.3835
  567MOL0     H76492   9.825   1.236   6.220 -0.5551 -0.2138  1.4183
  567MOL0     H76493   9.716   1.204   6.089  0.8447 -1.8447 -1.0643
  567MOL0     H76494   9.988   1.066   6.111  1.2385  1.9431  0.0662
  567MOL0     H76495   9.848   1.006   6.020  0.6197 -0.6007  2.0179
  567MOL0     H76496   9.832   1.104   5.768 -0.2508  1.6602 -1.6803
  567MOL0     H76497   9.798   1.285   5.579  1.0848 -1.7478  0.3607
  567MOL0     H76498   9.790   1.446   5.650 -0.6065 -0.7534  1.6783
  567MOL0     H76499  10.023   1.289   5.555 -0.8642 -0.1075 -0.1929
  567MOL0     H76500   9.930   1.420   5.467 -2.6103  2.5480  0.8580
  567MOL0     H76501  10.157   1.507   5.542  0.0747  1.8081 -0.4630
  567MOL0     H76502  10.115   1.476   5.710 -0.2422  0.7800  0.4520
  567MOL0     H76503   9.964   1.657   5.717  0.7684 -0.3821  0.9524
  567MOL0     H76504   9.909   1.635   5.560  0.7425 -0.0799  1.2793
  567MOL0     H76505  10.250   1.920   5.545 -4.5077  1.3100  3.1681
  567MOL0     H76506  10.282   2.047   5.339  0.8392  0.0136 -1.2824
  567MOL0     H76507  10.172   1.954   4.865 -2.0474  0.8068 -0.0618
  567MOL0     H76508  10.189   2.059   4.639  1.8619 -2.7447  1.2991
  567MOL0     H76509  10.459   2.260   4.542  0.7917  0.0297 -1.8238
  567MOL0     H76510  10.340   2.143   4.482 -0.4670  0.2684  0.5224
  567MOL0     H76511  10.357   2.422   4.347  1.2875  0.1840 -2.4718
  567MOL0     H76512  10.456   2.286   4.298 -2.0280 -1.9397 -3.0021
  567MOL0     H76513  10.234   2.153   4.273 -2.5145  0.3399 -0.0465
  567MOL0     H76514  10.151   2.303   4.316 -1.2164 -1.0132 -1.4450
  567MOL0     H76515  10.258   2.419   4.122  1.4968 -0.1278 -1.3941
  567MOL0     H76516  10.144   2.290   4.067  1.2045 -2.7624 -1.4599
  567MOL0     H76517  10.328   2.142   4.025  0.1628 -1.0162 -0.7287
  567MOL0     H76518  10.453   2.250   4.093 -1.5175 -1.7946  0.1136
  567MOL0     H76519  10.268   2.356   3.879 -0.3943 -1.1706  0.0925
  567MOL0     H76520  10.413   2.415   3.928 -5.5893  3.8067 -1.5263
  567MOL0     H76521  10.379   2.183   3.732 -1.0249  4.0134 -3.6904
  567MOL0     H76522  10.527   2.186   3.839 -0.1473  1.2224  1.2794
  567MOL0     H76523  10.575   2.422   3.767 -0.9700  0.7916 -0.9504
  567MOL0     H76524  10.577   2.316   3.630 -0.6707  1.5988 -1.4486
  567MOL0     H76525  10.302   2.436   4.798 -0.3929 -0.2461  1.6066
  567MOL0     H76526  10.278   2.327   5.042  1.6562  3.3066 -2.2121
  567MOL0     H76527   9.952   1.818   5.162 -1.5424  0.7977  0.5432
  567MOL0     H76528   9.922   1.699   5.366  0.5421 -0.7178 -2.1772
  567MOL0     H76529   8.999   0.827   6.436  2.8958  0.5389  0.7998
  567MOL0     H76530   8.780   0.878   6.521  0.4765 -3.1071 -2.7893
  567MOL0     H76531   8.551   0.851   6.968 -0.1284  0.0611 -0.2754
  567MOL0     H76532   8.316   0.871   7.026  4.0054 -2.1461 -0.1142
  567MOL0     H76533   8.064   0.976   6.802 -0.5412  0.5764 -0.4015
  567MOL0     H76534   8.030   1.154   6.801  0.2634  0.9262  1.4888
  567MOL0     H76535   7.854   1.002   6.862  2.0028  3.0261 -2.3915
  567MOL0     H76536   7.887   1.107   7.007 -0.6824  0.7349 -0.6550
  567MOL0     H76537   7.969   0.955   7.143 -0.0443  2.0078 -0.9099
  567MOL0     H76538   8.024   0.838   7.024 -2.0427 -0.6491 -2.6194
  567MOL0     H76539   7.851   0.737   7.111  0.8360  1.1153  0.3732
  567MOL0     H76540   7.731   0.879   7.075 -1.0067  2.1498 -5.4546
  567MOL0     H76541   7.798   0.701   6.706 -1.7102 -0.1565  1.1284
  567MOL0     H76542   8.298   1.258   6.820 -0.3545 -0.1427 -0.7996
  567MOL0     H76543   8.604   1.308   6.758  1.7832 -1.1137 -0.1378
  567MOL0     H76544   8.565   1.191   6.626 -1.1326  0.3892  0.0453
  567MOL0     H76545   8.441   1.303   6.669 -2.1498 -1.0677  1.5660
  568MOL0     O76546   6.441   9.833   0.494 -0.7192 -0.2563 -0.6377
  568MOL0     C76547   6.413   9.873   0.609  0.3255 -0.1332 -0.8383
  568MOL0     O76548   6.510   9.883   0.711  0.4638 -0.3439 -0.1280
  568MOL0     C76549   6.641   9.849   0.685 -0.3599  0.0162  0.4888
  568MOL0     C76550   6.695   9.713   0.702  0.1850  0.3164 -1.1747
  568MOL0     C76551   6.827   9.681   0.684 -0.4090  0.9290  0.8677
  568MOL0     C76552   6.918   9.779   0.632  0.6973  0.1233 -1.3174
  568MOL0     O76553   7.050   9.737   0.636  1.1717 -0.8826 -0.6576
  568MOL0     C76554   7.140   9.835   0.571 -0.5062  0.3826 -0.2707
  568MOL0     C76555   7.292   9.770   0.571  1.0531 -0.5664  0.5077
  568MOL0     C76556   7.385   9.871   0.502 -0.5282 -0.0857  0.0169
  568MOL0     C76557   7.532   9.825   0.499  0.2128 -1.0495  0.5277
  568MOL0     C76558   7.615   9.927   0.420 -0.3578  0.1650 -0.0509
  568MOL0     C76559   7.764   9.884   0.426 -0.0251 -0.6091 -0.2446
  568MOL0     C76560   7.850  10.012   0.463  0.2261  0.3801 -0.4816
  568MOL0     C76561   8.005   9.979   0.451 -0.0730  0.0694  0.0499
  568MOL0     N76562   8.060   9.867   0.523 -0.5831  0.4629 -0.5005
  568MOL0     C76563   8.127   9.763   0.471  0.4515 -0.1394 -0.4737
  568MOL0     C76564   8.197   9.712   0.579 -0.0555  1.6852  0.5691
  568MOL0     C76565   8.306   9.619   0.552 -0.2170  0.8986 -0.8676
  568MOL0     C76566   8.299   9.503   0.639 -0.4839 -0.5865  0.7505
  568MOL0     C76567   8.401   9.396   0.600 -0.1327  0.6551 -0.2264
  568MOL0     C76568   8.543   9.409   0.661 -0.5545  0.6131 -0.5996
  568MOL0     O76569   8.640   9.320   0.605  0.2875  0.5702 -0.6828
  568MOL0     C76570   8.777   9.326   0.644 -0.3914 -0.0701  0.0370
  568MOL0     C76571   8.849   9.424   0.708 -0.6582  0.2755 -0.7242
  568MOL0     C76572   8.993   9.411   0.728  0.6869  0.3401  0.5006
  568MOL0     C76573   9.066   9.297   0.681  0.0579 -0.0071  0.1628
  568MOL0     C76574   9.209   9.292   0.714  0.7310  1.0663 -0.7177
  568MOL0     O76575   9.280   9.172   0.717 -0.8030 -0.6041 -0.5088
  568MOL0     C76576   9.416   9.183   0.734  0.1393 -0.1839  0.2095
  568MOL0     C76577   9.496   9.236   0.636  0.0887  0.1828  0.1080
  568MOL0     C76578   9.637   9.233   0.659 -0.4521  0.7356  0.4833
  568MOL0     C76579   9.704   9.180   0.766 -0.0506  0.0477  0.6431
  568MOL0     O76580   9.845   9.178   0.773  0.2153 -0.0244  0.0773
  568MOL0     C76581   9.898   9.211   0.906  0.0068  0.5074  0.5141
  568MOL0     C76582  10.045   9.246   0.888  0.4805  0.4112  0.3135
  568MOL0     C76583  10.136   9.117   0.849 -0.5370 -0.5828 -0.0219
  568MOL0     C76584  10.291   9.127   0.890 -0.0821  0.3068 -0.7640
  568MOL0     C76585  10.315   9.155   1.040 -0.2763  0.4969 -0.4047
  568MOL0     C76586  10.466   9.131   1.073 -0.0699  0.9884  0.6549
  568MOL0     C76587  10.518   9.163   1.212 -0.4573 -0.1379 -0.3599
  568MOL0     C76588  10.523   9.321   1.236 -0.4015 -0.4359  0.6691
  568MOL0    Cl76589  10.684   9.372   1.168  0.2424 -0.0129  0.1654
  568MOL0     C76590   9.624   9.107   0.854 -0.6479 -0.1020 -0.8425
  568MOL0     C76591   9.485   9.116   0.842  0.0563 -0.2441  0.1737
  568MOL0     O76592   9.254   9.406   0.750  0.3197  0.3053  0.3648
  568MOL0     C76593   8.991   9.197   0.624 -0.4454 -0.1745 -0.3195
  568MOL0     C76594   8.854   9.215   0.611 -0.0228  0.3633  0.6533
  568MOL0     N76595   8.167   9.787   0.692 -0.8360  1.3269 -0.1013
  568MOL0     N76596   8.087   9.878   0.663 -1.3811 -0.6950  0.5650
  568MOL0     C76597   6.867   9.906   0.606 -0.5947  1.0667  0.2876
  568MOL0     C76598   6.728   9.939   0.625 -0.5581 -1.4759  0.5663
  568MOL0     C76599   6.274   9.934   0.635 -0.8837  0.3994  0.8392
  568MOL0     C76600   6.249  10.041   0.723  0.5261  0.2335 -0.0465
  568MOL0     C76601   6.122  10.100   0.729 -0.5253 -0.1314 -0.0880
  568MOL0     C76602   6.020  10.063   0.643  0.5872 -0.6983 -0.2337
  568MOL0     O76603   5.908  10.145   0.643 -0.4017 -0.6187 -0.4237
  568MOL0     C76604   5.807  10.140   0.537 -0.0991  0.0388  0.4500
  568MOL0     C76605   5.857  10.192   0.397 -0.4341 -0.5729 -0.1570
  568MOL0     C76606   5.937  10.328   0.418  0.7847 -0.2767 -0.0612
  568MOL0     C76607   6.026  10.344   0.305  0.7509  1.0980 -0.1758
  568MOL0     C76608   6.089  10.481   0.304 -0.1336 -0.3944 -0.2857
  568MOL0     C76609   6.154  10.581   0.308 -0.2819  0.0245 -0.5480
  568MOL0     C76610   6.044   9.960   0.560  0.9250 -0.5822 -0.4559
  568MOL0     C76611   6.162   9.889   0.557  0.0095 -0.4148 -0.6115
  568MOL0     C76612   6.156   9.761   0.478  0.1636  0.2592 -0.0720
  568MOL0     H76613   6.621   9.650   0.752 -1.2168  1.5520 -1.5944
  568MOL0     H76614   6.853   9.579   0.708  1.1295  0.1854 -3.2763
  568MOL0     H76615   7.124   9.872   0.470  4.6844  2.7830 -0.5583
  568MOL0     H76616   7.130   9.920   0.640  2.0740  0.5550 -0.0167
  568MOL0     H76617   7.295   9.671   0.525 -1.6390 -1.2958  1.7291
  568MOL0     H76618   7.327   9.753   0.674  0.2894 -2.5177  0.4791
  568MOL0     H76619   7.373   9.970   0.548 -0.3761  1.1431 -2.4246
  568MOL0     H76620   7.353   9.888   0.399 -0.4857  0.8721  0.1482
  568MOL0     H76621   7.560   9.808   0.604  0.2701 -0.8971  0.5382
  568MOL0     H76622   7.560   9.728   0.457  1.2641 -0.8360  0.6869
  568MOL0     H76623   7.594   9.915   0.313  1.9858 -0.7947 -0.4597
  568MOL0     H76624   7.593  10.027   0.460 -0.4568 -0.2760  1.0423
  568MOL0     H76625   7.778   9.798   0.492 -2.1322 -0.6209  0.2675
  568MOL0     H76626   7.788   9.850   0.325  1.0701  1.0706 -0.5929
  568MOL0     H76627   7.816  10.039   0.564 -0.6961 -1.9410 -0.1128
  568MOL0     H76628   7.820  10.093   0.396  0.1512  2.0997  1.5044
  568MOL0     H76629   8.030   9.972   0.345 -1.3069 -0.9955 -0.1916
  568MOL0     H76630   8.054  10.069   0.490  0.1862 -0.6904  1.5539
  568MOL0     H76631   8.140   9.725   0.370 -0.2413 -1.0012 -0.2541
  568MOL0     H76632   8.309   9.576   0.451  1.5809 -1.2921  0.0051
  568MOL0     H76633   8.401   9.672   0.565  1.0517 -1.8753  3.7988
  568MOL0     H76634   8.309   9.533   0.744  0.9888 -0.7110  0.6608
  568MOL0     H76635   8.200   9.457   0.629 -0.2329 -0.7155 -1.7616
  568MOL0     H76636   8.408   9.391   0.491  0.2410 -0.6512 -0.1613
  568MOL0     H76637   8.355   9.306   0.643  2.1565  0.4953  2.1684
  568MOL0     H76638   8.538   9.391   0.769  0.3840  2.8650 -0.1220
  568MOL0     H76639   8.579   9.511   0.646  0.5663  0.2373 -0.5557
  568MOL0     H76640   8.793   9.512   0.738 -1.4064 -0.3113 -0.3540
  568MOL0     H76641   9.037   9.503   0.768 -2.3274  2.9043 -1.5921
  568MOL0     H76642   9.442   9.286   0.556 -0.1732  1.7202  1.1969
  568MOL0     H76643   9.690   9.277   0.576  0.1478  0.3520  0.6569
  568MOL0     H76644   9.844   9.295   0.950 -0.6876  0.5327 -0.3669
  568MOL0     H76645   9.880   9.129   0.976  2.1753  0.2680  0.8690
  568MOL0     H76646  10.056   9.324   0.811 -1.1583  0.4756  0.1137
  568MOL0     H76647  10.090   9.289   0.977  2.3399  0.5964 -0.6596
  568MOL0     H76648  10.103   9.032   0.909  1.3895  0.4812  2.6932
  568MOL0     H76649  10.131   9.097   0.741  0.4408 -0.3996 -0.1093
  568MOL0     H76650  10.334   9.208   0.831  1.8218  0.0556  0.2022
  568MOL0     H76651  10.332   9.033   0.854 -2.8164 -1.2095 -0.1957
  568MOL0     H76652  10.259   9.082   1.099  0.1358  1.6032  1.4081
  568MOL0     H76653  10.282   9.253   1.073  2.3467  0.5762  2.4023
  568MOL0     H76654  10.481   9.026   1.049  1.3402  0.8489  1.9585
  568MOL0     H76655  10.527   9.186   1.002  0.1488 -0.3550 -0.2220
  568MOL0     H76656  10.617   9.122   1.232 -0.6878  0.5271  2.5201
  568MOL0     H76657  10.453   9.109   1.282  2.2609 -0.4485  2.1182
  568MOL0     H76658  10.435   9.365   1.188  0.7999  0.1792 -1.0689
  568MOL0     H76659  10.537   9.340   1.343  1.3252 -3.1960  1.0473
  568MOL0     H76660   9.644   9.047   0.942  0.2749  1.3166 -0.0557
  568MOL0     H76661   9.424   9.070   0.921 -0.3013  1.1392  0.7251
  568MOL0     H76662   9.039   9.104   0.596  2.0647  0.2501  2.2011
  568MOL0     H76663   8.801   9.135   0.562  1.8361 -0.4836 -0.0604
  568MOL0     H76664   6.934   9.981   0.566  0.6539 -0.1009  0.1067
  568MOL0     H76665   6.699  10.039   0.593 -0.7059 -1.8570 -0.5203
  568MOL0     H76666   6.333  10.094   0.767 -0.3264 -0.7046  2.9322
  568MOL0     H76667   6.111  10.190   0.789  0.8909  0.9894 -1.4134
  568MOL0     H76668   5.721  10.200   0.570 -0.2320 -0.5717  1.2276
  568MOL0     H76669   5.770  10.039   0.518 -2.9177  1.3680 -1.9499
  568MOL0     H76670   5.770  10.199   0.332 -2.7850  0.7226  2.8642
  568MOL0     H76671   5.913  10.109   0.353 -1.5898 -2.8084  2.3600
  568MOL0     H76672   6.002  10.340   0.505 -1.8020  2.4685  1.6384
  568MOL0     H76673   5.866  10.410   0.419 -0.7747 -1.5704 -0.0381
  568MOL0     H76674   6.112  10.277   0.315 -0.2966 -0.1394  0.9644
  568MOL0     H76675   5.976  10.317   0.212  1.0881  0.0485 -0.0644
  568MOL0     H76676   6.209  10.673   0.302  2.6678 -1.5788 -0.1923
  568MOL0     H76677   5.959   9.916   0.509  1.4538 -1.0370 -0.9485
  568MOL0     H76678   6.248   9.702   0.482 -0.1054 -0.0967  1.1107
  568MOL0     H76679   6.082   9.689   0.515  2.1986 -1.5688  0.6372
  568MOL0     H76680   6.149   9.772   0.369  0.6041  5.1647  0.1870
  569MOL0     O76681   6.860   4.774   0.053 -0.9918  0.0526  0.4529
  569MOL0     C76682   6.879   4.892   0.017  0.0750 -0.1879 -0.8111
  569MOL0     O76683   6.789   4.969  -0.059 -0.2946 -0.1160 -0.5370
  569MOL0     C76684   6.733   4.923  -0.171 -0.3371 -0.1727 -0.6918
  569MOL0     C76685   6.624   4.978  -0.237  0.7183  1.1676  0.7443
  569MOL0     C76686   6.560   4.920  -0.344 -0.3445  0.0303 -0.0640
  569MOL0     C76687   6.602   4.791  -0.391  0.6337 -0.9800  0.1349
  569MOL0     O76688   6.550   4.731  -0.503  0.0805 -0.5501  0.1529
  569MOL0     C76689   6.625   4.764  -0.626 -0.3050  0.5535  0.1344
  569MOL0     C76690   6.703   4.640  -0.677 -0.9325  0.4956 -0.9632
  569MOL0     C76691   6.599   4.528  -0.720 -0.4344 -0.0593  0.4034
  569MOL0     C76692   6.672   4.409  -0.792  0.0615  0.8116  0.5799
  569MOL0     C76693   6.570   4.305  -0.824  0.1986  0.7242  0.2799
  569MOL0     C76694   6.634   4.170  -0.848 -0.0592 -0.3708 -0.4802
  569MOL0     C76695   6.532   4.076  -0.896  0.0885  0.4147 -0.3781
  569MOL0     C76696   6.501   4.099  -1.038 -0.9397 -0.2686  0.1309
  569MOL0     N76697   6.416   3.988  -1.096 -0.7311  0.0274 -0.1463
  569MOL0     C76698   6.441   3.849  -1.087 -0.1819  0.4350  0.4218
  569MOL0     C76699   6.325   3.786  -1.128  0.2575  0.0527 -0.3516
  569MOL0     C76700   6.308   3.636  -1.156 -0.3529 -0.3872 -0.0570
  569MOL0     C76701   6.288   3.612  -1.305 -0.2407  0.4058 -0.7780
  569MOL0     C76702   6.244   3.466  -1.328  0.9705  0.1331 -0.7784
  569MOL0     C76703   6.221   3.441  -1.474  1.5472  0.6937 -0.0194
  569MOL0     O76704   6.165   3.308  -1.481 -0.0905  0.0333 -0.5830
  569MOL0     C76705   6.127   3.260  -1.604 -0.0406 -0.8477  0.0823
  569MOL0     C76706   6.165   3.318  -1.727  0.0632  0.4433 -0.1795
  569MOL0     C76707   6.112   3.261  -1.849  0.8676  0.5276  0.6021
  569MOL0     C76708   6.028   3.140  -1.842 -0.2037 -0.1139  1.1647
  569MOL0     C76709   5.980   3.086  -1.974  0.0027  0.7478 -0.6394
  569MOL0     O76710   5.945   2.958  -1.985  0.0749 -0.3253  0.5365
  569MOL0     C76711   5.924   2.924  -2.119  0.2314 -0.0567 -0.3692
  569MOL0     C76712   5.810   2.966  -2.176  0.1163  0.3989  0.0195
  569MOL0     C76713   5.773   2.927  -2.306 -0.4845  0.6101  0.7181
  569MOL0     C76714   5.861   2.851  -2.384  0.0746  0.0695 -0.2800
  569MOL0     O76715   5.839   2.831  -2.517 -0.7228  0.3282 -0.7573
  569MOL0     C76716   5.943   2.845  -2.614 -0.2976  0.2149  0.1570
  569MOL0     C76717   6.005   2.709  -2.649 -0.4356  0.5729 -0.3756
  569MOL0     C76718   6.144   2.724  -2.705  0.0145 -0.5578 -0.3172
  569MOL0     C76719   6.211   2.588  -2.727  0.8345 -0.9134 -0.3138
  569MOL0     C76720   6.361   2.603  -2.759  0.0086  0.3431 -0.5697
  569MOL0     C76721   6.444   2.477  -2.745  0.7875  0.0986  0.2433
  569MOL0     C76722   6.594   2.499  -2.761  0.6941  0.2891 -0.2447
  569MOL0     C76723   6.639   2.626  -2.829 -0.1470 -0.0274 -0.3075
  569MOL0    Cl76724   6.817   2.628  -2.854 -0.2117  0.1061 -0.6519
  569MOL0     C76725   5.980   2.810  -2.323 -0.6786  0.0832 -1.2274
  569MOL0     C76726   6.015   2.850  -2.193  0.4027 -1.3040  0.9628
  569MOL0     O76727   5.977   3.169  -2.063  0.3317  0.5725 -0.4139
  569MOL0     C76728   5.989   3.092  -1.717  0.3637  0.5024 -0.0014
  569MOL0     C76729   6.044   3.147  -1.602 -0.5410  0.5129  0.8797
  569MOL0     N76730   6.229   3.885  -1.152 -0.1424  0.1711 -0.1918
  569MOL0     N76731   6.289   3.999  -1.143 -0.8070  0.1344 -0.2902
  569MOL0     C76732   6.722   4.737  -0.335 -0.3200 -1.1054 -1.0814
  569MOL0     C76733   6.792   4.811  -0.240  0.2172 -0.4553  0.0284
  569MOL0     C76734   7.002   4.960   0.080  0.4081 -0.2189  0.2987
  569MOL0     C76735   7.009   5.105   0.062  0.3781  0.2701 -0.6439
  569MOL0     C76736   7.119   5.179   0.118  0.8028  0.5809 -0.0946
  569MOL0     C76737   7.228   5.110   0.176 -0.2469 -1.2380  0.0795
  569MOL0     O76738   7.338   5.181   0.208  0.2676  0.3363 -0.2992
  569MOL0     C76739   7.376   5.296   0.130 -0.4954  0.7852  0.5671
  569MOL0     C76740   7.325   5.420   0.203 -0.4041  0.2335 -0.6478
  569MOL0     C76741   7.352   5.547   0.124 -0.5808 -0.1677 -0.2199
  569MOL0     C76742   7.309   5.678   0.183 -0.4340  0.4762  0.5611
  569MOL0     C76743   7.354   5.708   0.317  0.8586  0.1414 -0.5243
  569MOL0     C76744   7.414   5.752   0.410  0.6129 -0.1553  0.4686
  569MOL0     C76745   7.225   4.973   0.192  0.7190  0.3922 -0.0591
  569MOL0     C76746   7.109   4.893   0.151 -0.2511 -1.1675  0.1453
  569MOL0     C76747   7.113   4.746   0.164 -0.2813  0.6312 -0.0131
  569MOL0     H76748   6.570   5.065  -0.201 -0.1533  0.4200  1.3008
  569MOL0     H76749   6.476   4.971  -0.390 -2.3650 -3.1565 -0.2495
  569MOL0     H76750   6.563   4.793  -0.712  0.5462  0.9674 -0.3526
  569MOL0     H76751   6.693   4.850  -0.616 -1.0534  1.1452  0.2260
  569MOL0     H76752   6.763   4.590  -0.600 -3.8836 -0.0149  1.2063
  569MOL0     H76753   6.759   4.667  -0.767  2.0828  4.1497  1.6849
  569MOL0     H76754   6.532   4.572  -0.794  0.0703 -0.3314 -0.2126
  569MOL0     H76755   6.549   4.502  -0.626 -0.9616  3.5379  1.2403
  569MOL0     H76756   6.719   4.440  -0.886 -3.5748  0.7656 -1.4022
  569MOL0     H76757   6.748   4.366  -0.725  0.4730 -1.6183 -1.3093
  569MOL0     H76758   6.487   4.295  -0.753  0.5229  1.0230  0.7018
  569MOL0     H76759   6.520   4.336  -0.916  0.7274  1.9282  0.3813
  569MOL0     H76760   6.723   4.185  -0.910  0.4110 -0.5777  0.1312
  569MOL0     H76761   6.669   4.124  -0.755 -1.6039 -0.2156  0.2183
  569MOL0     H76762   6.437   4.086  -0.842 -0.4189 -2.1678 -0.6539
  569MOL0     H76763   6.561   3.972  -0.876  0.6077  0.7556  0.7156
  569MOL0     H76764   6.461   4.199  -1.055  0.0579  0.5338  2.2353
  569MOL0     H76765   6.594   4.107  -1.095 -1.1348 -0.8889 -0.2951
  569MOL0     H76766   6.532   3.805  -1.050 -1.1463 -2.0974 -0.0398
  569MOL0     H76767   6.395   3.580  -1.121 -0.0282 -0.3831 -0.8219
  569MOL0     H76768   6.230   3.591  -1.094 -0.0467  0.9119  1.3393
  569MOL0     H76769   6.203   3.670  -1.342 -2.0604  0.2939  2.8217
  569MOL0     H76770   6.376   3.616  -1.370 -0.3672 -2.2827 -1.2215
  569MOL0     H76771   6.149   3.440  -1.281  0.8247  3.6474  1.1872
  569MOL0     H76772   6.321   3.395  -1.296 -0.5807 -0.8658  0.9185
  569MOL0     H76773   6.315   3.454  -1.529  2.0072 -1.6843  0.0928
  569MOL0     H76774   6.149   3.517  -1.508 -0.8183 -0.6955  1.6343
  569MOL0     H76775   6.228   3.404  -1.746  0.7240 -0.3571 -1.8810
  569MOL0     H76776   6.146   3.311  -1.939  0.5061  2.9385  1.7280
  569MOL0     H76777   5.737   3.025  -2.120 -0.7728 -0.5314 -0.1305
  569MOL0     H76778   5.673   2.960  -2.332 -1.0046 -1.1829  0.3242
  569MOL0     H76779   5.922   2.903  -2.704  2.1986  0.1626 -0.5363
  569MOL0     H76780   6.019   2.902  -2.561  1.7495 -3.1070  1.1185
  569MOL0     H76781   6.009   2.640  -2.564  1.3927  1.2575  0.1415
  569MOL0     H76782   5.943   2.667  -2.729  1.1013  1.8381 -2.3354
  569MOL0     H76783   6.147   2.785  -2.796  1.6095 -0.7896 -0.4458
  569MOL0     H76784   6.214   2.771  -2.635  0.5801 -0.1060 -1.1676
  569MOL0     H76785   6.167   2.528  -2.808 -0.6075 -0.4042  0.0608
  569MOL0     H76786   6.202   2.534  -2.632 -1.0623  0.7267  0.5072
  569MOL0     H76787   6.404   2.680  -2.694 -2.1762 -0.9446  2.6740
  569MOL0     H76788   6.362   2.639  -2.862 -0.9487 -1.0920 -1.1162
  569MOL0     H76789   6.427   2.439  -2.644 -0.6431 -2.2710 -0.8018
  569MOL0     H76790   6.401   2.400  -2.809  1.1847  0.1523 -0.0965
  569MOL0     H76791   6.624   2.409  -2.815  2.4458 -0.5096  1.9164
  569MOL0     H76792   6.647   2.503  -2.666  0.8941  4.4500 -0.3421
  569MOL0     H76793   6.589   2.633  -2.927 -2.5428 -1.1276  0.7374
  569MOL0     H76794   6.611   2.713  -2.769 -0.0165 -0.2317  0.0493
  569MOL0     H76795   6.050   2.754  -2.386  0.0602  1.2430 -1.4640
  569MOL0     H76796   6.112   2.829  -2.152  1.0506  0.1539  0.2582
  569MOL0     H76797   5.929   3.002  -1.707  2.0991 -0.5977  1.2663
  569MOL0     H76798   6.011   3.114  -1.504 -0.8726 -0.1919  0.5361
  569MOL0     H76799   6.759   4.642  -0.371  1.4103 -1.4074  1.2673
  569MOL0     H76800   6.887   4.771  -0.208 -0.2035 -0.3293  1.5064
  569MOL0     H76801   6.936   5.148  -0.006 -1.0498 -1.6391 -0.4222
  569MOL0     H76802   7.118   5.285   0.096  1.7084  0.5078 -0.5550
  569MOL0     H76803   7.332   5.289   0.030  0.8457  0.7699 -0.0346
  569MOL0     H76804   7.485   5.299   0.124 -0.5723  0.5645 -4.4164
  569MOL0     H76805   7.378   5.429   0.298 -1.1620 -0.1354 -0.1764
  569MOL0     H76806   7.218   5.406   0.222 -0.1522  2.5702  3.5089
  569MOL0     H76807   7.315   5.555   0.021 -0.3702  0.6148 -0.2361
  569MOL0     H76808   7.461   5.556   0.119 -0.5336 -0.7402 -0.3094
  569MOL0     H76809   7.343   5.762   0.121  2.1898  0.5266  1.9002
  569MOL0     H76810   7.200   5.677   0.183 -0.4400  0.0439  1.2618
  569MOL0     H76811   7.494   5.772   0.479  0.4212 -0.4799  0.7918
  569MOL0     H76812   7.306   4.919   0.240  0.7426 -0.8089 -1.3755
  569MOL0     H76813   7.093   4.698   0.068  2.2918 -0.9813  0.1660
  569MOL0     H76814   7.209   4.711   0.201 -0.3881 -0.0443 -0.3509
  569MOL0     H76815   7.035   4.710   0.232 -0.6180 -4.0755 -2.4726
  570MOL0     O76816   0.062   0.927   8.597  0.6610 -0.2885 -0.3018
  570MOL0     C76817  -0.049   0.983   8.590  0.4819  0.0250 -0.3216
  570MOL0     O76818  -0.058   1.115   8.563 -0.7875 -0.2738 -0.2466
  570MOL0     C76819   0.046   1.175   8.493 -0.0494 -1.1275 -0.2824
  570MOL0     C76820   0.091   1.309   8.535 -0.3513  0.4615 -0.3763
  570MOL0     C76821   0.204   1.363   8.469 -0.6106  0.3850 -0.2479
  570MOL0     C76822   0.266   1.302   8.359 -0.0646 -0.1801 -0.5121
  570MOL0     O76823   0.368   1.347   8.285 -0.1189 -0.2071  0.6401
  570MOL0     C76824   0.432   1.470   8.321 -0.4260  0.3489  0.3714
  570MOL0     C76825   0.530   1.528   8.223  0.3079  0.3754  0.4440
  570MOL0     C76826   0.462   1.534   8.081 -0.5926  0.8597 -0.5385
  570MOL0     C76827   0.563   1.570   7.972 -0.2519 -0.3867 -0.0682
  570MOL0     C76828   0.493   1.646   7.860 -0.2445 -0.2292 -0.5785
  570MOL0     C76829   0.563   1.683   7.726  0.1225 -0.0387 -0.2155
  570MOL0     C76830   0.471   1.744   7.625 -0.8264 -0.8018  0.1664
  570MOL0     C76831   0.509   1.719   7.478  0.1074 -0.0514  0.2597
  570MOL0     N76832   0.635   1.791   7.447  0.8373  0.3686  1.0290
  570MOL0     C76833   0.763   1.746   7.475 -1.2522  0.4764  0.9209
  570MOL0     C76834   0.839   1.833   7.403 -0.8763 -0.9298 -1.8594
  570MOL0     C76835   0.990   1.831   7.404  0.0487 -0.4098  0.4922
  570MOL0     C76836   1.056   1.930   7.314 -0.4409  0.1884 -0.0111
  570MOL0     C76837   1.207   1.906   7.316 -0.3123  0.0431  0.3618
  570MOL0     C76838   1.274   2.016   7.240  0.6734 -0.5699 -0.2966
  570MOL0     O76839   1.421   1.996   7.244  0.1204 -0.8170  0.0936
  570MOL0     C76840   1.492   2.087   7.172 -0.5767 -0.9056 -0.2670
  570MOL0     C76841   1.446   2.202   7.096 -0.0261 -0.9193 -1.2006
  570MOL0     C76842   1.543   2.289   7.027  0.7672 -1.0295 -0.7174
  570MOL0     C76843   1.678   2.261   7.019  0.1047  0.8041 -0.7677
  570MOL0     C76844   1.772   2.351   6.952  0.9563 -0.6549  0.3125
  570MOL0     O76845   1.906   2.306   6.928  0.2258  0.1159 -0.4214
  570MOL0     C76846   1.998   2.401   6.886 -0.1476 -1.0824  0.2101
  570MOL0     C76847   2.078   2.374   6.773  0.3799 -1.0359  1.0722
  570MOL0     C76848   2.180   2.464   6.730 -0.4403 -0.1327  0.0197
  570MOL0     C76849   2.202   2.590   6.798 -0.7141  0.8821 -0.2428
  570MOL0     O76850   2.296   2.671   6.747 -0.6397  0.2391 -0.2998
  570MOL0     C76851   2.380   2.749   6.831  0.0063 -0.9988  0.6504
  570MOL0     C76852   2.506   2.810   6.749  0.1886  0.0313 -0.1500
  570MOL0     C76853   2.595   2.900   6.837 -0.7072 -0.1602 -0.6991
  570MOL0     C76854   2.643   2.837   6.971  1.1339  0.3125 -0.2854
  570MOL0     C76855   2.723   2.703   6.954 -0.7862 -0.1368 -0.4668
  570MOL0     C76856   2.848   2.718   6.866 -0.3805 -0.2169  0.0678
  570MOL0     C76857   2.947   2.834   6.909 -0.1079 -0.7442 -0.7752
  570MOL0     C76858   3.065   2.842   6.810 -0.5500  0.0506 -0.0222
  570MOL0    Cl76859   3.203   2.935   6.843 -0.1743 -0.2789 -0.1396
  570MOL0     C76860   2.127   2.614   6.906 -0.0820 -0.4372 -0.3520
  570MOL0     C76861   2.021   2.535   6.945 -0.1329 -0.2203  0.0690
  570MOL0     O76862   1.735   2.459   6.897 -0.2650 -0.0917 -0.0291
  570MOL0     C76863   1.718   2.141   7.086 -0.3904 -0.2316 -0.4114
  570MOL0     C76864   1.629   2.073   7.175 -0.8770  0.4426 -0.7435
  570MOL0     N76865   0.763   1.928   7.346 -0.6339 -0.8017 -0.4485
  570MOL0     N76866   0.642   1.900   7.376  0.2761 -0.6707  0.5659
  570MOL0     C76867   0.219   1.184   8.320  0.8079  0.0454 -0.0955
  570MOL0     C76868   0.112   1.112   8.380 -0.5753  0.7206  0.3960
  570MOL0     C76869  -0.165   0.921   8.646  0.2424  0.0573  0.0618
  570MOL0     C76870  -0.159   0.781   8.656 -0.1560  0.2442 -0.8664
  570MOL0     C76871  -0.262   0.701   8.708 -0.3501  0.2305  0.0759
  570MOL0     C76872  -0.380   0.754   8.731 -0.1000 -0.9870 -0.0385
  570MOL0     O76873  -0.481   0.671   8.761  0.6890  0.0501  0.6203
  570MOL0     C76874  -0.609   0.721   8.807 -0.2152  0.5484 -0.0521
  570MOL0     C76875  -0.693   0.603   8.843  0.1540 -0.4534  0.1939
  570MOL0     C76876  -0.694   0.483   8.741 -0.4751 -0.7480  0.1206
  570MOL0     C76877  -0.715   0.518   8.598  0.3094  0.5777 -0.5200
  570MOL0     C76878  -0.831   0.449   8.552  0.2942 -0.4090 -0.2690
  570MOL0     C76879  -0.931   0.398   8.498 -0.1026 -0.7421  0.1969
  570MOL0     C76880  -0.396   0.898   8.717 -0.1839  0.4953  0.0165
  570MOL0     C76881  -0.289   0.983   8.674  0.0581  0.5322 -0.1176
  570MOL0     C76882  -0.310   1.131   8.680 -0.0451  0.6130  0.2712
  570MOL0     H76883   0.040   1.358   8.618 -0.8317  0.3618 -0.6149
  570MOL0     H76884   0.243   1.459   8.504 -0.5866  0.7811 -1.3419
  570MOL0     H76885   0.357   1.542   8.354 -0.5161 -0.9104  3.2217
  570MOL0     H76886   0.489   1.455   8.413  2.4063  3.9096 -0.6019
  570MOL0     H76887   0.619   1.465   8.206 -0.2241  0.6462 -5.3252
  570MOL0     H76888   0.540   1.626   8.270 -0.2902  0.7703 -0.2351
  570MOL0     H76889   0.384   1.610   8.090 -1.8779 -0.4389 -0.4553
  570MOL0     H76890   0.408   1.441   8.064 -2.3977  1.5991  0.8481
  570MOL0     H76891   0.641   1.636   8.014  0.1855  0.3334 -1.9181
  570MOL0     H76892   0.620   1.490   7.924  1.2150  0.8554 -0.4970
  570MOL0     H76893   0.423   1.571   7.822 -0.2267  0.0768 -1.2482
  570MOL0     H76894   0.437   1.735   7.892 -1.6642 -1.3122  0.0873
  570MOL0     H76895   0.641   1.759   7.737 -1.9952  3.1890 -4.4796
  570MOL0     H76896   0.595   1.591   7.677 -0.1907  0.6698 -1.7925
  570MOL0     H76897   0.473   1.851   7.647  3.0023 -1.3447  4.0028
  570MOL0     H76898   0.369   1.704   7.626 -1.7709  1.4700  0.8620
  570MOL0     H76899   0.515   1.612   7.457  0.6006 -0.6094  2.8766
  570MOL0     H76900   0.426   1.756   7.418 -1.1095  0.0003  1.9019
  570MOL0     H76901   0.797   1.656   7.525  2.3668  2.3682  2.2429
  570MOL0     H76902   1.018   1.846   7.509  0.0591 -2.0845  0.7687
  570MOL0     H76903   1.025   1.731   7.377  0.2600 -0.8622  2.2937
  570MOL0     H76904   1.018   1.909   7.214  3.1301  0.6414 -1.6297
  570MOL0     H76905   1.030   2.034   7.338  0.2254  0.2928  0.2875
  570MOL0     H76906   1.228   1.810   7.267 -0.6249  1.0234 -1.8041
  570MOL0     H76907   1.254   1.904   7.415  1.3724  2.8705 -0.2707
  570MOL0     H76908   1.248   2.112   7.287 -1.2564 -0.5771 -1.2366
  570MOL0     H76909   1.232   2.007   7.140  2.2718 -1.5127 -0.9098
  570MOL0     H76910   1.341   2.228   7.088  0.5021  1.0478 -2.3098
  570MOL0     H76911   1.510   2.374   6.968  5.0917  2.0280  0.8548
  570MOL0     H76912   2.059   2.280   6.723  1.4673 -1.2236  0.9818
  570MOL0     H76913   2.234   2.455   6.637  3.4435  1.0136  1.9297
  570MOL0     H76914   2.329   2.841   6.864  3.2522  1.3981 -0.5535
  570MOL0     H76915   2.411   2.697   6.922  0.6916 -2.0721 -0.1846
  570MOL0     H76916   2.562   2.725   6.708 -1.2786 -0.9497 -0.2327
  570MOL0     H76917   2.480   2.880   6.669  0.5512  0.3587  0.0221
  570MOL0     H76918   2.679   2.933   6.776 -0.9492  0.6550 -0.6077
  570MOL0     H76919   2.545   2.993   6.867  0.9508  0.9893 -1.3856
  570MOL0     H76920   2.554   2.811   7.030  1.9820  1.6979  1.7157
  570MOL0     H76921   2.702   2.906   7.032  0.6091  2.2966 -1.9121
  570MOL0     H76922   2.654   2.625   6.919 -0.9274 -0.2734  0.1047
  570MOL0     H76923   2.752   2.674   7.055 -1.3673 -0.4137 -0.3766
  570MOL0     H76924   2.911   2.629   6.864  2.2342  1.4994  0.7382
  570MOL0     H76925   2.813   2.747   6.766  1.1774  1.3021 -0.0799
  570MOL0     H76926   2.997   2.815   7.004 -0.3749  2.7089  0.1748
  570MOL0     H76927   2.896   2.931   6.909 -3.3114 -2.2794  1.1989
  570MOL0     H76928   3.108   2.742   6.803 -1.2827 -0.2006 -1.0345
  570MOL0     H76929   3.017   2.856   6.713  0.2430 -0.6048 -0.5197
  570MOL0     H76930   2.156   2.709   6.951  0.4681 -1.6652  2.0175
  570MOL0     H76931   1.948   2.571   7.017  0.2266 -0.7389  0.6990
  570MOL0     H76932   1.822   2.114   7.074  0.0637  0.5832  1.3692
  570MOL0     H76933   1.677   1.996   7.234  0.0362  1.8503  0.4226
  570MOL0     H76934   0.267   1.146   8.230  1.0541  2.1345 -0.8951
  570MOL0     H76935   0.080   1.014   8.346 -3.0251  1.4973  0.3247
  570MOL0     H76936  -0.068   0.731   8.625  0.4561  1.2408 -0.7288
  570MOL0     H76937  -0.256   0.594   8.727 -3.2396  0.0930  0.6468
  570MOL0     H76938  -0.650   0.789   8.732  0.8958  0.9271 -0.3441
  570MOL0     H76939  -0.601   0.784   8.896  0.5624  2.5653 -1.4742
  570MOL0     H76940  -0.794   0.643   8.848  0.1180 -0.1817 -1.8882
  570MOL0     H76941  -0.668   0.567   8.944  2.0969 -0.1880 -0.1509
  570MOL0     H76942  -0.775   0.419   8.777  1.1022 -3.5061 -0.9580
  570MOL0     H76943  -0.600   0.432   8.766  0.2707  0.0332 -0.9881
  570MOL0     H76944  -0.713   0.625   8.578  0.0740  0.7857  0.4878
  570MOL0     H76945  -0.626   0.490   8.541  0.7620 -0.5732  0.6966
  570MOL0     H76946  -1.007   0.355   8.435 -0.8245  1.0523 -0.2039
  570MOL0     H76947  -0.487   0.948   8.749 -0.3439 -1.5492  3.0915
  570MOL0     H76948  -0.251   1.190   8.750 -1.4111  2.2479  0.1273
  570MOL0     H76949  -0.312   1.183   8.583 -1.4927 -0.4606 -0.3205
  570MOL0     H76950  -0.412   1.157   8.710  0.4994  2.5476  0.5803
  571MOL0     O76951   8.661   0.659  10.573  0.0981 -0.3244 -0.6103
  571MOL0     C76952   8.651   0.549  10.627  0.2648 -0.6719 -0.3337
  571MOL0     O76953   8.553   0.458  10.597  0.4489  0.0661 -0.4730
  571MOL0     C76954   8.458   0.475  10.502  1.0063 -0.2837  0.3738
  571MOL0     C76955   8.396   0.601  10.476 -0.1306  0.7726 -0.5507
  571MOL0     C76956   8.298   0.633  10.383  0.2795 -0.5811 -1.2481
  571MOL0     C76957   8.259   0.528  10.297 -0.0685 -0.8052  0.5724
  571MOL0     O76958   8.178   0.552  10.202  0.3438  0.9597 -0.0075
  571MOL0     C76959   8.101   0.452  10.139 -1.2103  0.4030  0.4618
  571MOL0     C76960   8.000   0.527  10.067 -0.3675 -0.0328 -0.1096
  571MOL0     C76961   7.878   0.446  10.014 -0.7269  0.2841 -0.0320
  571MOL0     C76962   7.781   0.546   9.943  0.9369  0.6722 -0.8135
  571MOL0     C76963   7.675   0.465   9.866  0.0643 -0.1429  0.1371
  571MOL0     C76964   7.560   0.554   9.846 -0.5314  0.7388  0.0367
  571MOL0     C76965   7.431   0.488   9.810 -0.0927 -0.6044 -0.4079
  571MOL0     C76966   7.408   0.466   9.664 -0.1019 -0.1813  0.2285
  571MOL0     N76967   7.469   0.339   9.615  0.2161 -0.4717 -0.1234
  571MOL0     C76968   7.581   0.332   9.537  0.8678  0.6866 -0.5117
  571MOL0     C76969   7.610   0.199   9.542 -0.5577 -0.3982  0.4172
  571MOL0     C76970   7.741   0.140   9.495  1.1573  0.5084 -0.3459
  571MOL0     C76971   7.750   0.060   9.360  0.1470 -0.1661 -0.8069
  571MOL0     C76972   7.900   0.068   9.319 -0.9596  0.6350 -0.7145
  571MOL0     C76973   8.000   0.015   9.427  0.2548  0.1642  0.5454
  571MOL0     O76974   7.964  -0.123   9.452  0.1372 -0.7831 -0.1268
  571MOL0     C76975   8.056  -0.192   9.513  0.4294  0.0531  0.4663
  571MOL0     C76976   8.108  -0.147   9.640 -0.4159  0.1552  0.1452
  571MOL0     C76977   8.215  -0.205   9.704 -0.3552 -0.6029  0.5470
  571MOL0     C76978   8.281  -0.316   9.647 -0.6064 -0.3854  0.7978
  571MOL0     C76979   8.415  -0.357   9.708  0.6659  0.0749  0.4341
  571MOL0     O76980   8.482  -0.450   9.636 -0.2676  0.1628  0.7387
  571MOL0     C76981   8.601  -0.514   9.660 -0.0262 -0.4926  0.1906
  571MOL0     C76982   8.628  -0.562   9.789 -0.4336 -0.7539 -0.1147
  571MOL0     C76983   8.751  -0.607   9.822  0.4345 -0.4191  0.1199
  571MOL0     C76984   8.858  -0.609   9.735 -0.1873 -0.0316  0.3209
  571MOL0     O76985   8.976  -0.672   9.771 -0.2258 -0.4686  0.1324
  571MOL0     C76986   9.082  -0.672   9.674 -0.0081  0.2387  1.0767
  571MOL0     C76987   9.200  -0.729   9.750  0.4706 -1.1142  0.7507
  571MOL0     C76988   9.330  -0.734   9.670  0.4716 -0.4882  0.1596
  571MOL0     C76989   9.438  -0.817   9.743 -0.5347  0.2446  0.5424
  571MOL0     C76990   9.552  -0.849   9.644 -0.5797 -0.4543  0.2545
  571MOL0     C76991   9.669  -0.923   9.717 -0.1340 -0.3464 -0.9194
  571MOL0     C76992   9.635  -1.030   9.827 -0.0023  0.5076  0.0987
  571MOL0     C76993   9.555  -1.153   9.777 -0.2777 -0.1344  0.3536
  571MOL0    Cl76994   9.538  -1.284   9.903 -0.1822 -0.1691  0.1089
  571MOL0     C76995   8.835  -0.558   9.609 -0.7619 -0.1803  0.0058
  571MOL0     C76996   8.709  -0.514   9.565  1.3564 -0.2024 -0.3500
  571MOL0     O76997   8.441  -0.324   9.826 -0.2048 -0.0337  0.6354
  571MOL0     C76998   8.232  -0.366   9.527  0.0341  0.1527 -0.2610
  571MOL0     C76999   8.116  -0.312   9.466 -0.4302  0.0340 -0.7334
  571MOL0     N77000   7.497   0.138   9.598  0.2073 -0.0495 -0.4449
  571MOL0     N77001   7.410   0.221   9.635 -0.1947 -0.1963  0.1414
  571MOL0     C77002   8.309   0.403  10.324 -0.1304  0.8826  0.6472
  571MOL0     C77003   8.411   0.374  10.422 -0.0101  0.2651  0.5048
  571MOL0     C77004   8.740   0.532  10.742  0.3974  0.3212 -0.3615
  571MOL0     C77005   8.708   0.426  10.826 -0.0302  0.0700  0.2593
  571MOL0     C77006   8.785   0.404  10.942  0.2732 -0.1485  0.0503
  571MOL0     C77007   8.901   0.478  10.980  0.2135 -0.0660  0.5121
  571MOL0     O77008   8.969   0.456  11.094 -0.2317  0.0523  0.1034
  571MOL0     C77009   8.923   0.351  11.186 -0.2739 -0.9496  0.4537
  571MOL0     C77010   9.021   0.338  11.311  0.2119 -0.1969  1.0361
  571MOL0     C77011   9.065   0.475  11.350  0.2613  0.7092  0.6608
  571MOL0     C77012   9.171   0.474  11.458  0.3618  0.1576  0.0717
  571MOL0     C77013   9.138   0.408  11.589 -0.4714 -0.3080  0.5570
  571MOL0     C77014   9.116   0.350  11.693  0.1587 -0.9349 -0.6162
  571MOL0     C77015   8.928   0.588  10.890 -0.3085  0.6616 -0.5943
  571MOL0     C77016   8.858   0.610  10.776  0.3669 -0.9628 -0.0681
  571MOL0     C77017   8.919   0.699  10.677  0.2532  0.0315  0.3331
  571MOL0     H77018   8.424   0.681  10.544  1.6112 -0.1383 -0.1603
  571MOL0     H77019   8.250   0.730  10.387 -0.2003 -0.8530  1.2761
  571MOL0     H77020   8.166   0.399  10.069 -1.3632 -1.5966  1.7513
  571MOL0     H77021   8.058   0.390  10.219 -0.7530  0.0124  0.4116
  571MOL0     H77022   8.057   0.575   9.988  0.4883  1.0337  1.1091
  571MOL0     H77023   7.959   0.600  10.137  1.2747  0.9653 -0.1325
  571MOL0     H77024   7.845   0.384  10.098  2.1110 -0.5125  0.6238
  571MOL0     H77025   7.904   0.370   9.939  1.1254 -1.5783  2.3072
  571MOL0     H77026   7.734   0.604  10.023  0.0512 -0.9966 -0.0790
  571MOL0     H77027   7.834   0.611   9.873 -0.2150  1.9541 -0.5407
  571MOL0     H77028   7.713   0.441   9.766  0.6967  3.8402 -0.7492
  571MOL0     H77029   7.645   0.374   9.917 -3.1749  1.2590  1.0247
  571MOL0     H77030   7.537   0.592   9.946 -0.7239 -1.0689  0.7269
  571MOL0     H77031   7.587   0.630   9.772  0.1951 -0.3185 -0.8060
  571MOL0     H77032   7.355   0.546   9.864  1.8079 -0.2317  2.0061
  571MOL0     H77033   7.426   0.396   9.868  1.0608 -1.6636 -1.9146
  571MOL0     H77034   7.300   0.453   9.654 -0.5266  2.2871  0.8596
  571MOL0     H77035   7.443   0.556   9.612  0.7613 -1.0512 -0.7186
  571MOL0     H77036   7.636   0.410   9.485 -0.0738  1.4509 -0.3889
  571MOL0     H77037   7.806   0.228   9.492 -1.0703  2.3313  0.9816
  571MOL0     H77038   7.782   0.072   9.569  1.1823  1.6552  0.7321
  571MOL0     H77039   7.707  -0.040   9.372 -0.1940  0.2194  2.0460
  571MOL0     H77040   7.695   0.112   9.281  1.7774  4.1294  0.6115
  571MOL0     H77041   7.921   0.171   9.290  1.1543  0.9697  1.6612
  571MOL0     H77042   7.913   0.001   9.233 -0.3195  0.9644 -0.8781
  571MOL0     H77043   8.012   0.074   9.518  1.1160 -2.3598  2.1669
  571MOL0     H77044   8.099   0.004   9.381  0.6754  0.7203  1.2958
  571MOL0     H77045   8.080  -0.049   9.679  0.5581  0.4150  0.2091
  571MOL0     H77046   8.251  -0.156   9.794  0.8267  5.1326 -2.5181
  571MOL0     H77047   8.540  -0.563   9.853 -0.5405  2.3054 -0.0633
  571MOL0     H77048   8.780  -0.653   9.916  3.4248 -3.4150 -2.0362
  571MOL0     H77049   9.051  -0.741   9.595  1.1770 -0.5746  1.3018
  571MOL0     H77050   9.111  -0.575   9.634 -0.3635  0.0787  0.4085
  571MOL0     H77051   9.211  -0.677   9.846 -0.9028  0.2760  0.2024
  571MOL0     H77052   9.179  -0.831   9.784 -1.0282 -0.3341  2.3659
  571MOL0     H77053   9.307  -0.796   9.583  0.9744 -0.1107 -0.2561
  571MOL0     H77054   9.371  -0.639   9.634  3.7601 -1.9795 -0.4425
  571MOL0     H77055   9.395  -0.908   9.785  1.1707 -1.3302 -0.9654
  571MOL0     H77056   9.492  -0.760   9.819 -0.5190 -1.4659  1.8513
  571MOL0     H77057   9.590  -0.753   9.607 -0.2389 -0.7312 -0.1142
  571MOL0     H77058   9.508  -0.908   9.564  1.4509 -0.2107 -1.1084
  571MOL0     H77059   9.723  -0.964   9.631 -0.6072 -1.3410 -0.7616
  571MOL0     H77060   9.738  -0.854   9.767 -0.3157 -1.5028  1.0399
  571MOL0     H77061   9.576  -0.980   9.905  1.3919 -1.1267  2.3374
  571MOL0     H77062   9.729  -1.060   9.875 -0.0354  3.8449  2.6252
  571MOL0     H77063   9.458  -1.118   9.739 -1.2541 -2.3091  0.7144
  571MOL0     H77064   9.601  -1.183   9.683 -0.2098 -0.4429  0.4847
  571MOL0     H77065   8.901  -0.565   9.523 -2.8515  2.0267 -1.9243
  571MOL0     H77066   8.682  -0.495   9.462  0.0037  0.8470  0.1608
  571MOL0     H77067   8.288  -0.449   9.484  1.0617  1.2324 -1.0756
  571MOL0     H77068   8.091  -0.341   9.365 -0.8016  0.6688 -0.8296
  571MOL0     H77069   8.273   0.313  10.275  4.5689 -2.1389  2.0856
  571MOL0     H77070   8.455   0.275  10.428  1.4571  0.9023  0.5473
  571MOL0     H77071   8.621   0.362  10.811 -0.0016  0.0015  0.3766
  571MOL0     H77072   8.758   0.321  11.005  0.6258 -1.0062 -0.9002
  571MOL0     H77073   8.913   0.260  11.125 -5.8291  1.3843 -2.9475
  571MOL0     H77074   8.818   0.372  11.209 -0.8677 -1.2658 -1.7222
  571MOL0     H77075   9.108   0.282  11.274 -1.9155 -4.2561  1.6270
  571MOL0     H77076   8.992   0.271  11.392  2.9697  1.2751  3.4071
  571MOL0     H77077   8.981   0.538  11.381  1.1754  0.3796  4.2771
  571MOL0     H77078   9.114   0.524  11.265 -1.0524  1.9891  0.6085
  571MOL0     H77079   9.247   0.408  11.416  0.4946  1.0448 -1.1416
  571MOL0     H77080   9.212   0.572  11.486 -1.9925  0.7205  1.8226
  571MOL0     H77081   9.109   0.318  11.795  2.8018  1.2550  0.3875
  571MOL0     H77082   9.010   0.657  10.908 -1.2601  1.9353 -0.9300
  571MOL0     H77083   8.860   0.783  10.638 -2.1631 -1.9667 -0.6024
  571MOL0     H77084   9.019   0.732  10.708  0.7078 -2.1244  1.3898
  571MOL0     H77085   8.935   0.638  10.587 -2.4869  0.1410 -0.3116
  572MOL0     O77086   0.107   1.164   4.391 -0.8315 -0.3014  0.0410
  572MOL0     C77087   0.086   1.234   4.295  0.3339  0.5325  0.2758
  572MOL0     O77088  -0.031   1.294   4.261 -0.0179  0.7137 -0.4196
  572MOL0     C77089  -0.149   1.231   4.284 -0.0450  0.8382 -0.2966
  572MOL0     C77090  -0.256   1.306   4.322 -0.0559 -0.0723  0.2165
  572MOL0     C77091  -0.384   1.243   4.332 -0.5125  0.6302 -0.6186
  572MOL0     C77092  -0.401   1.108   4.319 -0.1242  1.4036 -0.1835
  572MOL0     O77093  -0.531   1.054   4.316  0.5164 -0.1438  0.0440
  572MOL0     C77094  -0.545   0.920   4.271  0.5797  0.9516  0.5363
  572MOL0     C77095  -0.693   0.888   4.242  0.4190  0.3643  1.0052
  572MOL0     C77096  -0.736   0.968   4.122 -0.4890 -0.0826  0.2682
  572MOL0     C77097  -0.883   0.936   4.100  1.1990  0.3325  0.2312
  572MOL0     C77098  -0.955   1.003   3.989 -0.3923  0.8586  0.0903
  572MOL0     C77099  -1.112   0.976   3.996 -0.2485 -0.5810  0.6911
  572MOL0     C77100  -1.192   1.011   3.864  0.4055  0.1480 -0.9257
  572MOL0     C77101  -1.335   0.959   3.883  0.6952  0.1022  0.5855
  572MOL0     N77102  -1.339   0.808   3.886  0.3451 -0.1496 -0.1710
  572MOL0     C77103  -1.354   0.725   3.779  0.4988  1.0084 -0.2743
  572MOL0     C77104  -1.385   0.606   3.843  0.3764 -0.0818 -0.0636
  572MOL0     C77105  -1.428   0.487   3.764  0.4445 -0.5590  0.4345
  572MOL0     C77106  -1.536   0.508   3.666  0.6411 -0.4927 -0.7029
  572MOL0     C77107  -1.601   0.374   3.643  0.6174 -0.3648  0.1348
  572MOL0     C77108  -1.674   0.368   3.513 -0.1587 -0.2681  0.5186
  572MOL0     O77109  -1.782   0.263   3.512 -0.3136 -0.7291 -0.6388
  572MOL0     C77110  -1.883   0.302   3.601  0.3832  1.0095  0.8271
  572MOL0     C77111  -1.954   0.207   3.678 -1.1624  0.6666 -0.8733
  572MOL0     C77112  -2.065   0.236   3.762  0.5380 -0.9546  0.2293
  572MOL0     C77113  -2.121   0.368   3.758  0.7439 -0.3760 -0.6307
  572MOL0     C77114  -2.249   0.398   3.835  0.3814 -0.3653 -0.4107
  572MOL0     O77115  -2.308   0.291   3.894  0.5336  0.5993  0.0538
  572MOL0     C77116  -2.415   0.305   3.989 -1.2226 -0.6835  0.1022
  572MOL0     C77117  -2.406   0.399   4.094 -0.2607  0.9476  0.2936
  572MOL0     C77118  -2.504   0.391   4.190  0.0743 -0.0327  0.4799
  572MOL0     C77119  -2.613   0.299   4.184 -0.7610  0.8502 -0.2943
  572MOL0     O77120  -2.701   0.308   4.287 -1.0598 -0.6972  0.8929
  572MOL0     C77121  -2.777   0.194   4.327 -0.0417  0.2556  0.2506
  572MOL0     C77122  -2.841   0.234   4.460  0.3899 -0.2865 -0.7977
  572MOL0     C77123  -2.941   0.130   4.521  0.6577  0.1715  0.2409
  572MOL0     C77124  -2.986   0.178   4.657 -0.2670 -0.2254 -0.0043
  572MOL0     C77125  -3.098   0.096   4.703  0.3374  0.0665  0.6430
  572MOL0     C77126  -3.061  -0.051   4.739 -0.1933 -0.1202 -0.0423
  572MOL0     C77127  -3.193  -0.111   4.785  0.9863 -0.4396 -0.2259
  572MOL0     C77128  -3.189  -0.259   4.746 -0.0520  0.3686 -0.3114
  572MOL0    Cl77129  -3.204  -0.282   4.570  0.1423  0.0550  0.5764
  572MOL0     C77130  -2.611   0.201   4.078 -0.1593 -0.5130 -0.6944
  572MOL0     C77131  -2.517   0.209   3.978 -0.1965 -0.0390  0.1384
  572MOL0     O77132  -2.288   0.515   3.841  0.5419  0.0456 -0.2238
  572MOL0     C77133  -2.058   0.459   3.682 -0.1257 -0.1441 -0.2649
  572MOL0     C77134  -1.943   0.428   3.604 -0.7697 -0.2211  0.0498
  572MOL0     N77135  -1.382   0.624   3.979  1.2882  0.6276 -0.1395
  572MOL0     N77136  -1.351   0.748   3.995  0.2304 -0.1194 -0.4437
  572MOL0     C77137  -0.283   1.027   4.290  0.1409 -0.1861 -0.8258
  572MOL0     C77138  -0.164   1.094   4.272  0.3360  0.5778  0.0087
  572MOL0     C77139   0.199   1.275   4.214 -0.2666 -0.5711  0.0456
  572MOL0     C77140   0.236   1.416   4.219  1.0573 -0.2585  0.1132
  572MOL0     C77141   0.347   1.461   4.151  1.1345 -0.2527  0.1367
  572MOL0     C77142   0.421   1.367   4.071  0.1381 -0.8401  0.1769
  572MOL0     O77143   0.517   1.421   3.983  0.1087  0.8094 -0.3498
  572MOL0     C77144   0.626   1.338   3.973  0.5939 -0.0229  0.4282
  572MOL0     C77145   0.750   1.421   3.919 -0.5064  0.4580  0.4832
  572MOL0     C77146   0.838   1.490   4.027  1.0853  0.6571  1.4479
  572MOL0     C77147   0.881   1.630   3.988  0.9972 -0.1799 -0.4686
  572MOL0     C77148   0.773   1.725   3.993 -0.1229 -0.2549 -0.4323
  572MOL0     C77149   0.691   1.817   3.977  0.1991  0.4729  0.3087
  572MOL0     C77150   0.380   1.235   4.061 -0.3543 -0.1149 -0.5058
  572MOL0     C77151   0.277   1.186   4.139  0.1757 -0.8356  0.0404
  572MOL0     C77152   0.261   1.033   4.130 -0.1671 -0.8177  0.0951
  572MOL0     H77153  -0.254   1.413   4.337 -0.2349  0.0783 -0.7669
  572MOL0     H77154  -0.460   1.319   4.347  1.4489  2.2100  2.3513
  572MOL0     H77155  -0.487   0.886   4.185  2.5513 -4.4038  3.5324
  572MOL0     H77156  -0.509   0.853   4.350  2.1161 -1.2222 -1.8553
  572MOL0     H77157  -0.750   0.924   4.329  1.9528  3.1739  0.9640
  572MOL0     H77158  -0.704   0.780   4.233  1.7415  0.2756  0.2170
  572MOL0     H77159  -0.673   0.946   4.035  1.9760  0.9070  1.6889
  572MOL0     H77160  -0.715   1.074   4.138 -2.8766  0.8978 -2.3709
  572MOL0     H77161  -0.903   0.829   4.090  1.3652 -0.1695  3.7906
  572MOL0     H77162  -0.932   0.961   4.195  0.7250  0.6415 -0.0859
  572MOL0     H77163  -0.932   1.107   4.017  1.5989  0.2516  0.8630
  572MOL0     H77164  -0.911   0.989   3.890  0.0074 -1.3209  0.5305
  572MOL0     H77165  -1.126   0.874   4.032  1.3433 -1.2552 -0.4763
  572MOL0     H77166  -1.158   1.034   4.076  0.6551  0.0294  0.7903
  572MOL0     H77167  -1.155   0.947   3.782 -1.2137  2.0126 -3.2503
  572MOL0     H77168  -1.186   1.117   3.838 -2.1314  0.5822  0.0026
  572MOL0     H77169  -1.372   0.993   3.980 -0.7444 -2.3834  0.9967
  572MOL0     H77170  -1.396   1.007   3.807  2.1653 -1.5699 -1.7937
  572MOL0     H77171  -1.354   0.755   3.675 -4.9222  0.6165 -0.6683
  572MOL0     H77172  -1.344   0.437   3.716  0.2859 -0.3606 -0.0510
  572MOL0     H77173  -1.464   0.424   3.846  3.9070 -0.2307  2.3925
  572MOL0     H77174  -1.610   0.575   3.710 -0.2032 -2.6354  1.3785
  572MOL0     H77175  -1.494   0.544   3.572  0.7606  1.5377  0.0850
  572MOL0     H77176  -1.673   0.357   3.724 -1.5192  0.3171 -1.5322
  572MOL0     H77177  -1.522   0.298   3.636  0.1469 -0.7969 -0.5503
  572MOL0     H77178  -1.600   0.347   3.435 -2.5847 -1.2545 -1.6584
  572MOL0     H77179  -1.721   0.462   3.483  0.9144 -0.0107 -0.4376
  572MOL0     H77180  -1.927   0.102   3.670 -2.6946  0.2194 -0.4939
  572MOL0     H77181  -2.115   0.161   3.823 -2.7522  0.7272 -0.1719
  572MOL0     H77182  -2.326   0.469   4.117  0.3746  0.7431 -1.2111
  572MOL0     H77183  -2.497   0.461   4.273  2.7879 -0.2775  0.5592
  572MOL0     H77184  -2.848   0.187   4.245 -1.4429  2.0634  1.2455
  572MOL0     H77185  -2.709   0.112   4.355 -1.0507 -0.3220  1.0641
  572MOL0     H77186  -2.757   0.254   4.527  2.7352 -0.6644 -3.4122
  572MOL0     H77187  -2.890   0.332   4.450 -1.7680 -0.7649  3.1470
  572MOL0     H77188  -3.028   0.125   4.456  2.2877 -0.2127 -2.0223
  572MOL0     H77189  -2.893   0.032   4.519 -0.6197 -0.4846  0.7803
  572MOL0     H77190  -3.021   0.282   4.649 -1.6080 -0.3519  2.8682
  572MOL0     H77191  -2.908   0.158   4.731 -2.0435 -2.0602  1.4728
  572MOL0     H77192  -3.180   0.094   4.631  0.2099  0.7666  0.7635
  572MOL0     H77193  -3.126   0.143   4.798  0.7101  0.3876  0.5950
  572MOL0     H77194  -3.022  -0.104   4.652  0.5741 -2.3798  1.5986
  572MOL0     H77195  -2.986  -0.059   4.818 -0.2462  0.4912  0.0739
  572MOL0     H77196  -3.280  -0.073   4.731  1.0857 -0.6093 -0.5049
  572MOL0     H77197  -3.214  -0.091   4.891  0.9556  1.4612 -0.5476
  572MOL0     H77198  -3.099  -0.305   4.789  1.1489  2.0243 -0.9388
  572MOL0     H77199  -3.272  -0.305   4.800 -0.2616  1.7788  0.6076
  572MOL0     H77200  -2.692   0.129   4.078 -0.9204  0.3085 -0.0931
  572MOL0     H77201  -2.522   0.148   3.888 -1.0890  1.3203 -0.7841
  572MOL0     H77202  -2.098   0.560   3.669 -0.5751 -0.4668 -1.5044
  572MOL0     H77203  -1.899   0.508   3.546  2.7858 -0.7714  1.6949
  572MOL0     H77204  -0.285   0.919   4.289 -1.7697 -0.1849 -1.0771
  572MOL0     H77205  -0.078   1.033   4.246 -0.8400 -1.3104  0.3197
  572MOL0     H77206   0.176   1.485   4.277  0.0033 -0.0698 -1.1378
  572MOL0     H77207   0.369   1.567   4.160 -0.8128  0.2270 -0.3488
  572MOL0     H77208   0.594   1.270   3.893 -3.5846  2.1103 -0.0153
  572MOL0     H77209   0.645   1.280   4.064 -0.6476  1.5436  1.7582
  572MOL0     H77210   0.708   1.501   3.858 -1.0125 -0.4090 -0.3371
  572MOL0     H77211   0.797   1.358   3.844 -3.9786  0.5303 -1.9787
  572MOL0     H77212   0.927   1.426   4.024 -1.2310 -2.8409 -1.2427
  572MOL0     H77213   0.785   1.487   4.123  0.6534 -0.0961  1.1947
  572MOL0     H77214   0.970   1.658   4.047 -0.2485  0.4814  1.1913
  572MOL0     H77215   0.907   1.623   3.882  1.1676 -3.3724 -0.3016
  572MOL0     H77216   0.615   1.891   3.995 -0.0073 -0.4008  3.9498
  572MOL0     H77217   0.432   1.172   3.989 -3.1591 -2.8754 -0.3815
  572MOL0     H77218   0.166   1.009   4.179 -0.5120  1.8809  0.9373
  572MOL0     H77219   0.258   0.999   4.026 -0.8362  0.6140 -0.3790
  572MOL0     H77220   0.349   0.989   4.178  1.6167  2.9038  0.5841
  573MOL0     O77221   1.174   3.920   5.330 -0.0945 -0.5106 -0.2269
  573MOL0     C77222   1.162   3.874   5.447  0.0938 -1.2049  0.5248
  573MOL0     O77223   1.158   3.954   5.558  0.1618 -0.4854  0.4480
  573MOL0     C77224   1.174   4.091   5.549  0.2367  0.5321  0.5833
  573MOL0     C77225   1.238   4.179   5.450  0.1620  0.7192  0.6016
  573MOL0     C77226   1.221   4.319   5.462 -0.9968 -0.2527  0.3059
  573MOL0     C77227   1.167   4.375   5.579  0.1326 -0.2687 -0.1326
  573MOL0     O77228   1.155   4.511   5.583  0.4814  1.2075 -0.4280
  573MOL0     C77229   1.039   4.545   5.664 -0.1370  0.4153 -0.3443
  573MOL0     C77230   1.031   4.701   5.641 -0.1863  0.3114 -1.3961
  573MOL0     C77231   0.984   4.725   5.501 -0.6705  0.3290 -0.2806
  573MOL0     C77232   0.988   4.875   5.479 -0.5234 -0.0461  0.3462
  573MOL0     C77233   0.921   4.896   5.344  0.0203 -0.0736 -0.2280
  573MOL0     C77234   0.850   5.032   5.330  0.2589 -0.5493 -0.5795
  573MOL0     C77235   0.751   5.027   5.203  0.1016 -0.9326  0.3781
  573MOL0     C77236   0.694   5.171   5.161 -0.1470 -0.0813 -0.0927
  573MOL0     N77237   0.651   5.227   5.295  0.1792  0.4657  0.0387
  573MOL0     C77238   0.531   5.198   5.347 -0.2633 -0.0295 -0.9927
  573MOL0     C77239   0.500   5.297   5.436 -0.4655  0.0038  0.0211
  573MOL0     C77240   0.370   5.318   5.502 -0.0703  0.5790  0.1737
  573MOL0     C77241   0.273   5.365   5.400  0.0719  0.1678 -0.0473
  573MOL0     C77242   0.318   5.495   5.335  0.4568 -0.2047 -0.0250
  573MOL0     C77243   0.185   5.593   5.310  0.3826  0.8066 -0.1173
  573MOL0     O77244   0.136   5.644   5.440 -0.3111  0.2171  0.4678
  573MOL0     C77245   0.013   5.703   5.438 -0.8341 -0.1040 -0.0367
  573MOL0     C77246  -0.071   5.746   5.332 -0.4733  0.4093  0.0466
  573MOL0     C77247  -0.191   5.808   5.355 -0.0384 -0.0066  0.4976
  573MOL0     C77248  -0.244   5.818   5.481  0.2137  0.0526  0.6284
  573MOL0     C77249  -0.392   5.844   5.493 -0.4125  0.2953  1.1063
  573MOL0     O77250  -0.451   5.837   5.621  0.2112  0.3375 -0.0651
  573MOL0     C77251  -0.591   5.833   5.636 -0.6177 -0.3407  0.6647
  573MOL0     C77252  -0.661   5.757   5.540 -0.3358 -0.2940  0.0611
  573MOL0     C77253  -0.794   5.734   5.567 -0.0708 -1.1127  0.2350
  573MOL0     C77254  -0.862   5.797   5.670  0.5435  0.3894  0.6225
  573MOL0     O77255  -0.991   5.767   5.666  0.3012  0.0410 -0.6137
  573MOL0     C77256  -1.090   5.849   5.741 -0.2279  0.0290 -0.2040
  573MOL0     C77257  -1.235   5.823   5.703  0.1915 -0.0519 -0.5481
  573MOL0     C77258  -1.301   5.700   5.753  0.3762 -0.3778 -0.4004
  573MOL0     C77259  -1.287   5.588   5.646  0.5591  0.4417  0.2129
  573MOL0     C77260  -1.414   5.594   5.552 -0.2413  0.6173  0.1170
  573MOL0     C77261  -1.404   5.488   5.443 -0.3321  0.3970  0.7104
  573MOL0     C77262  -1.543   5.476   5.376 -0.5142 -0.2811  0.9409
  573MOL0     C77263  -1.529   5.359   5.286  1.0779  0.2367  0.5019
  573MOL0    Cl77264  -1.681   5.312   5.222  0.4378  0.1274  0.2187
  573MOL0     C77265  -0.801   5.890   5.753  0.7886 -0.1308 -0.0012
  573MOL0     C77266  -0.661   5.896   5.742  1.0201  0.3879  0.5219
  573MOL0     O77267  -0.451   5.876   5.391 -0.2784  0.2393 -0.4949
  573MOL0     C77268  -0.155   5.791   5.589 -0.2639 -0.3748 -0.1707
  573MOL0     C77269  -0.029   5.731   5.567 -0.1199  0.1828 -0.1420
  573MOL0     N77270   0.600   5.390   5.431 -0.4108 -0.4808 -0.7193
  573MOL0     N77271   0.695   5.345   5.356 -0.0272  0.4194  0.2566
  573MOL0     C77272   1.145   4.288   5.683  0.3044 -0.4087  0.0936
  573MOL0     C77273   1.144   4.146   5.675  0.8340  0.0127  0.6407
  573MOL0     C77274   1.127   3.729   5.461 -0.4982 -0.6615 -0.1954
  573MOL0     C77275   1.038   3.675   5.369 -0.2166 -0.4412 -0.0756
  573MOL0     C77276   0.986   3.546   5.372  0.3775 -0.2831  0.0186
  573MOL0     C77277   1.013   3.460   5.476 -0.5005  0.2571  0.1543
  573MOL0     O77278   0.955   3.330   5.474 -0.2158 -0.1787  0.0702
  573MOL0     C77279   0.991   3.241   5.577 -0.7357 -0.2276  0.2156
  573MOL0     C77280   0.907   3.253   5.701  0.6995 -0.2703 -0.0212
  573MOL0     C77281   0.760   3.301   5.681 -0.0689  0.5715 -0.5493
  573MOL0     C77282   0.679   3.222   5.582 -0.2330  0.2220  0.5710
  573MOL0     C77283   0.671   3.081   5.619 -0.3182  0.1733  0.5728
  573MOL0     C77284   0.633   2.971   5.638 -0.0758 -0.2409 -0.7923
  573MOL0     C77285   1.106   3.516   5.571 -0.7928 -0.5256  1.2668
  573MOL0     C77286   1.164   3.647   5.564 -0.3528 -0.6150 -0.3774
  573MOL0     C77287   1.251   3.696   5.672  0.3105  0.6087  0.1491
  573MOL0     H77288   1.282   4.134   5.362  5.2905  3.8657  1.1322
  573MOL0     H77289   1.254   4.386   5.383 -3.1631  1.8701  1.1029
  573MOL0     H77290   0.943   4.500   5.635 -0.3103 -1.3831  2.5750
  573MOL0     H77291   1.062   4.528   5.770 -0.4027  0.0286 -0.3470
  573MOL0     H77292   1.127   4.746   5.667 -0.6872 -0.8218  3.2473
  573MOL0     H77293   0.959   4.737   5.715  1.2492  0.4188  0.0154
  573MOL0     H77294   0.889   4.672   5.492 -0.5445 -0.1059  0.8047
  573MOL0     H77295   1.046   4.675   5.425 -1.5993  0.2870 -1.0293
  573MOL0     H77296   0.928   4.930   5.551  0.5696 -1.7365  2.6776
  573MOL0     H77297   1.090   4.917   5.476 -1.6485  3.2349  2.5438
  573MOL0     H77298   0.995   4.887   5.263  1.4127  1.0455  0.8647
  573MOL0     H77299   0.843   4.821   5.329 -0.0383 -0.4915  1.8848
  573MOL0     H77300   0.783   5.053   5.414  1.6696  2.4860 -0.0813
  573MOL0     H77301   0.923   5.113   5.337  0.6421 -0.9622  0.5405
  573MOL0     H77302   0.676   4.948   5.212  0.3342 -0.9613  2.2937
  573MOL0     H77303   0.814   5.008   5.114  1.9381  1.8104  0.9502
  573MOL0     H77304   0.775   5.230   5.119 -2.0498  1.8600 -1.2488
  573MOL0     H77305   0.605   5.179   5.098  0.5267  3.3606 -0.7995
  573MOL0     H77306   0.475   5.112   5.312 -0.1893  0.6901 -3.0051
  573MOL0     H77307   0.332   5.223   5.542  0.5592  1.0831  2.0503
  573MOL0     H77308   0.379   5.390   5.584 -0.0500  1.7215 -0.8117
  573MOL0     H77309   0.266   5.289   5.321  1.4836  0.7463 -0.7575
  573MOL0     H77310   0.172   5.364   5.442  0.2893  1.2665  0.5212
  573MOL0     H77311   0.374   5.472   5.244  0.1509  3.5438 -1.3112
  573MOL0     H77312   0.388   5.553   5.396  2.1265 -0.8102 -1.3035
  573MOL0     H77313   0.106   5.528   5.271  0.1168  1.7856 -1.2874
  573MOL0     H77314   0.195   5.672   5.235 -2.4279 -1.2767 -2.9605
  573MOL0     H77315  -0.044   5.720   5.230 -1.9499  0.7313 -0.4467
  573MOL0     H77316  -0.243   5.824   5.261 -0.7391 -1.0463  0.6994
  573MOL0     H77317  -0.599   5.696   5.476  1.7021  1.7986 -0.1304
  573MOL0     H77318  -0.848   5.659   5.510 -0.6795 -0.7125  0.2656
  573MOL0     H77319  -1.071   5.837   5.848  1.7116  3.7142  0.0452
  573MOL0     H77320  -1.086   5.958   5.730 -3.7694  0.3131  0.1665
  573MOL0     H77321  -1.292   5.896   5.760  0.4815  0.5003 -0.9603
  573MOL0     H77322  -1.255   5.840   5.597 -0.9042 -0.9025 -0.5031
  573MOL0     H77323  -1.256   5.676   5.850 -0.8990  3.7435  1.4155
  573MOL0     H77324  -1.406   5.727   5.768  1.2786  3.2658  0.3752
  573MOL0     H77325  -1.278   5.491   5.694  0.5231  1.2026  1.8186
  573MOL0     H77326  -1.195   5.604   5.588  1.4715 -1.8586  0.9229
  573MOL0     H77327  -1.422   5.697   5.515  1.1879  0.9848  0.7718
  573MOL0     H77328  -1.499   5.577   5.620 -1.6275  3.8590 -0.6200
  573MOL0     H77329  -1.330   5.517   5.368 -3.2495  0.3501 -2.4215
  573MOL0     H77330  -1.369   5.393   5.484  1.3480  0.3888 -0.6321
  573MOL0     H77331  -1.562   5.565   5.316  1.5200 -1.4186 -1.6074
  573MOL0     H77332  -1.622   5.476   5.451 -1.5362  2.7528 -0.0093
  573MOL0     H77333  -1.464   5.370   5.200 -0.3158 -4.2405 -1.4097
  573MOL0     H77334  -1.490   5.274   5.341  1.5303 -1.1414 -1.8361
  573MOL0     H77335  -0.856   5.938   5.834  0.2353  1.0147 -1.0362
  573MOL0     H77336  -0.597   5.952   5.810  1.1126  0.1360  0.6417
  573MOL0     H77337  -0.196   5.802   5.689 -0.8816 -4.0641  0.1466
  573MOL0     H77338   0.038   5.701   5.647 -1.7779  0.5803  1.4462
  573MOL0     H77339   1.123   4.331   5.780 -0.6574 -2.5516  0.8781
  573MOL0     H77340   1.107   4.098   5.765 -4.1215  2.2963  0.1736
  573MOL0     H77341   1.013   3.741   5.287 -1.8565  0.4508  1.0699
  573MOL0     H77342   0.930   3.517   5.284  1.8449 -2.2664 -0.3411
  573MOL0     H77343   1.097   3.232   5.602 -0.9451 -2.2190  0.5183
  573MOL0     H77344   0.963   3.146   5.531 -2.0727  1.0041 -1.6391
  573MOL0     H77345   0.966   3.329   5.752  0.4191  1.9046 -2.7551
  573MOL0     H77346   0.921   3.164   5.763 -0.5467 -0.1321  0.4851
  573MOL0     H77347   0.766   3.408   5.657  2.6577  0.0905 -2.3670
  573MOL0     H77348   0.698   3.299   5.771  0.9774 -0.1185  0.1745
  573MOL0     H77349   0.574   3.253   5.585 -0.4283 -0.2193 -1.0437
  573MOL0     H77350   0.704   3.222   5.476 -0.8814 -2.1830  0.3664
  573MOL0     H77351   0.607   2.867   5.647  0.0960 -0.2404 -0.2537
  573MOL0     H77352   1.142   3.456   5.655  1.8525  2.8493  2.7890
  573MOL0     H77353   1.302   3.788   5.644 -0.0381  0.3587 -1.3774
  573MOL0     H77354   1.202   3.727   5.765  0.3197 -0.9607  0.7074
  573MOL0     H77355   1.315   3.616   5.709  0.0751  0.6996  0.7684
  574MOL0     O77356   2.842   0.458   6.163  0.0259  0.8680 -0.1448
  574MOL0     C77357   2.769   0.369   6.202  0.0659 -0.0452  0.7088
  574MOL0     O77358   2.809   0.257   6.269  0.3396 -0.3619 -0.0700
  574MOL0     C77359   2.930   0.191   6.253 -0.2110 -0.5076 -0.0389
  574MOL0     C77360   2.956   0.083   6.331  0.1921 -0.5948 -0.1700
  574MOL0     C77361   3.079   0.016   6.335  0.7508 -0.2587  0.7945
  574MOL0     C77362   3.186   0.066   6.252 -0.2850 -0.0582  0.7966
  574MOL0     O77363   3.308   0.008   6.242 -0.0221 -0.1102 -0.8130
  574MOL0     C77364   3.348  -0.084   6.350 -0.9581  0.4252  0.4626
  574MOL0     C77365   3.493  -0.149   6.320 -0.7722 -0.3507  0.5853
  574MOL0     C77366   3.594  -0.047   6.269 -0.9394 -1.2918 -0.1193
  574MOL0     C77367   3.725  -0.060   6.341 -0.3769 -0.0178 -0.4881
  574MOL0     C77368   3.802  -0.191   6.311  0.0257 -0.2449 -0.0230
  574MOL0     C77369   3.932  -0.193   6.393  0.5608 -1.1642  1.3336
  574MOL0     C77370   3.992  -0.335   6.397  1.0900 -0.5443 -0.7225
  574MOL0     C77371   4.118  -0.330   6.491 -0.1708  0.0878  0.1824
  574MOL0     N77372   4.184  -0.457   6.491 -0.1322  0.4478  0.2747
  574MOL0     C77373   4.291  -0.480   6.401  0.2955  0.0522 -0.3723
  574MOL0     C77374   4.328  -0.606   6.435 -0.0412 -0.2315  0.3404
  574MOL0     C77375   4.433  -0.681   6.359  1.7302  1.0615  0.4018
  574MOL0     C77376   4.570  -0.638   6.386  0.0926  0.0167 -0.1582
  574MOL0     C77377   4.669  -0.660   6.267 -0.2259  0.2069  0.2113
  574MOL0     C77378   4.801  -0.582   6.296  0.3455  0.1272  0.1684
  574MOL0     O77379   4.896  -0.624   6.202 -1.0961 -0.4327 -0.8776
  574MOL0     C77380   5.032  -0.622   6.231 -0.5832 -1.2729  0.5370
  574MOL0     C77381   5.099  -0.579   6.345 -0.3197 -0.6320  0.7567
  574MOL0     C77382   5.237  -0.607   6.361  0.2736 -0.6799  0.1010
  574MOL0     C77383   5.307  -0.678   6.257 -0.4367  0.6267 -0.4390
  574MOL0     C77384   5.446  -0.722   6.283 -0.6433  0.3127  0.7986
  574MOL0     O77385   5.503  -0.713   6.414 -0.1415 -0.8801 -0.0345
  574MOL0     C77386   5.640  -0.706   6.435 -0.3921 -0.5417  0.0080
  574MOL0     C77387   5.718  -0.818   6.461 -0.1633 -0.4313 -0.0169
  574MOL0     C77388   5.854  -0.820   6.500  0.5877 -0.2891  1.0236
  574MOL0     C77389   5.919  -0.698   6.486  0.0001 -0.2362 -0.3790
  574MOL0     O77390   6.055  -0.689   6.513  0.0293 -0.0625  0.0467
  574MOL0     C77391   6.101  -0.721   6.646 -0.3670 -0.8994 -0.2746
  574MOL0     C77392   6.168  -0.853   6.666 -0.9963  1.0262  0.6297
  574MOL0     C77393   6.267  -0.897   6.552 -0.2879  0.1323 -0.2119
  574MOL0     C77394   6.352  -1.019   6.595  0.5966  0.1905  0.0170
  574MOL0     C77395   6.479  -1.022   6.507 -0.7039 -0.0670  1.0254
  574MOL0     C77396   6.538  -1.157   6.493  0.3697  0.0754 -1.5503
  574MOL0     C77397   6.684  -1.157   6.469 -0.2025 -0.4611 -0.1357
  574MOL0     C77398   6.760  -1.291   6.428  0.2116  0.2029 -0.0791
  574MOL0    Cl77399   6.728  -1.325   6.258  0.8969 -0.1002  0.2230
  574MOL0     C77400   5.847  -0.578   6.453 -0.4106 -0.0076 -0.5591
  574MOL0     C77401   5.708  -0.587   6.433  0.6438 -0.7868  0.0605
  574MOL0     O77402   5.510  -0.739   6.179 -0.3496  0.4556 -0.0870
  574MOL0     C77403   5.236  -0.709   6.143 -0.1105  0.0199  0.1016
  574MOL0     C77404   5.105  -0.680   6.132 -0.0184  0.5520 -0.7398
  574MOL0     N77405   4.258  -0.649   6.550  0.2683  0.5122 -0.4896
  574MOL0     N77406   4.174  -0.557   6.582  0.5051 -0.1489 -0.8254
  574MOL0     C77407   3.161   0.179   6.169  0.3928  0.2162 -0.1857
  574MOL0     C77408   3.037   0.246   6.184  0.6696  0.1467 -0.6177
  574MOL0     C77409   2.621   0.408   6.221  0.5921  0.5036 -0.1075
  574MOL0     C77410   2.549   0.323   6.317 -0.5423  0.0959  0.6940
  574MOL0     C77411   2.420   0.359   6.349 -0.3127  0.1400 -0.2090
  574MOL0     C77412   2.355   0.460   6.282 -0.8684 -0.0565  0.4091
  574MOL0     O77413   2.231   0.476   6.330  0.2950  0.5830 -0.5331
  574MOL0     C77414   2.163   0.604   6.326 -0.5506  0.5184 -0.1505
  574MOL0     C77415   2.208   0.694   6.443  0.0662 -0.3889 -0.0322
  574MOL0     C77416   2.226   0.626   6.579 -0.1078  0.1194 -0.1601
  574MOL0     C77417   2.248   0.735   6.679  0.4411  0.1623  0.0022
  574MOL0     C77418   2.255   0.672   6.812 -1.5308 -0.0658  1.1837
  574MOL0     C77419   2.253   0.615   6.914 -0.0693  0.6997 -0.9209
  574MOL0     C77420   2.416   0.535   6.190 -0.6389  1.2202  0.6818
  574MOL0     C77421   2.549   0.519   6.165 -0.1273 -0.8764 -0.9683
  574MOL0     C77422   2.607   0.615   6.054  0.1147 -0.1064 -0.2980
  574MOL0     H77423   2.873   0.050   6.392 -1.3395  1.1056 -1.2149
  574MOL0     H77424   3.087  -0.071   6.399  1.8828 -1.7080 -1.1812
  574MOL0     H77425   3.350  -0.023   6.440  0.9919 -0.7400  1.2774
  574MOL0     H77426   3.277  -0.167   6.358  0.6310 -0.7587  4.1294
  574MOL0     H77427   3.481  -0.214   6.233  1.6926  1.4192 -1.2173
  574MOL0     H77428   3.540  -0.217   6.391  0.9922 -2.4393 -2.3504
  574MOL0     H77429   3.551   0.051   6.288  1.2550 -0.5608  1.5036
  574MOL0     H77430   3.611  -0.057   6.161 -0.5302  0.4697 -0.2393
  574MOL0     H77431   3.791   0.027   6.330  0.2025 -0.3671  0.1379
  574MOL0     H77432   3.692  -0.063   6.445  0.2927 -2.8749 -0.2801
  574MOL0     H77433   3.739  -0.270   6.351 -4.3148  2.2343 -1.3434
  574MOL0     H77434   3.804  -0.222   6.207  0.3049 -1.8152  0.4269
  574MOL0     H77435   4.007  -0.124   6.353 -0.1221 -1.6312 -0.9158
  574MOL0     H77436   3.906  -0.156   6.492 -1.5075  2.2517 -0.2919
  574MOL0     H77437   4.032  -0.356   6.297 -0.9039  2.2175 -2.2543
  574MOL0     H77438   3.925  -0.415   6.429  0.7313  0.9639  2.6542
  574MOL0     H77439   4.186  -0.264   6.436  0.4943 -1.4212 -0.8705
  574MOL0     H77440   4.094  -0.320   6.597  0.5543 -1.3388  0.5113
  574MOL0     H77441   4.334  -0.424   6.319 -0.1603  0.5663 -0.2697
  574MOL0     H77442   4.417  -0.789   6.366 -0.2098  1.1864 -1.1005
  574MOL0     H77443   4.406  -0.647   6.259 -0.8239  1.2723  1.0915
  574MOL0     H77444   4.568  -0.533   6.418 -0.3740 -0.8109  2.8242
  574MOL0     H77445   4.607  -0.698   6.469 -0.1964 -0.4337 -0.3542
  574MOL0     H77446   4.629  -0.623   6.172  0.0461 -0.8162 -0.3185
  574MOL0     H77447   4.678  -0.768   6.251  0.1554  0.2379  0.1883
  574MOL0     H77448   4.835  -0.598   6.398  0.7248 -1.1051 -0.1424
  574MOL0     H77449   4.771  -0.476   6.291  0.1628  0.0321 -2.3508
  574MOL0     H77450   5.041  -0.537   6.426  0.5728 -0.2138  1.1878
  574MOL0     H77451   5.293  -0.595   6.453  1.7615 -0.6208 -0.7734
  574MOL0     H77452   5.653  -0.905   6.462 -2.2105  0.9954  1.5408
  574MOL0     H77453   5.914  -0.902   6.540  0.8582 -0.8004 -0.3848
  574MOL0     H77454   6.162  -0.640   6.687 -2.8223  0.4725  0.8787
  574MOL0     H77455   6.019  -0.723   6.718  2.2954  0.6678  3.0903
  574MOL0     H77456   6.218  -0.849   6.763 -3.6868  1.5657  2.1253
  574MOL0     H77457   6.092  -0.931   6.672 -1.1739  1.2028  0.6968
  574MOL0     H77458   6.204  -0.932   6.469  1.2514 -0.1070 -1.3378
  574MOL0     H77459   6.330  -0.810   6.530  0.9977  0.2293  3.3076
  574MOL0     H77460   6.287  -1.107   6.587  1.2868 -0.4202  0.8808
  574MOL0     H77461   6.372  -1.010   6.703 -1.6248  1.6463  0.3620
  574MOL0     H77462   6.547  -0.947   6.549 -1.5000  1.0490  0.3524
  574MOL0     H77463   6.459  -0.977   6.410 -0.1344  1.6420  1.6605
  574MOL0     H77464   6.519  -1.207   6.588 -0.3268  1.8201 -0.7487
  574MOL0     H77465   6.497  -1.207   6.404  1.4863 -1.2373 -1.3698
  574MOL0     H77466   6.731  -1.133   6.566 -0.4676 -0.4624 -0.0072
  574MOL0     H77467   6.709  -1.074   6.403 -1.4426 -0.1364 -0.2166
  574MOL0     H77468   6.863  -1.292   6.464 -0.9415 -0.2915  3.6319
  574MOL0     H77469   6.710  -1.361   6.496 -1.7468  1.6589  0.0677
  574MOL0     H77470   5.906  -0.488   6.443 -1.9862  1.3232  1.4667
  574MOL0     H77471   5.657  -0.498   6.397  0.2092 -1.5421 -1.2901
  574MOL0     H77472   5.273  -0.776   6.066 -1.3290 -1.5920  0.8579
  574MOL0     H77473   5.044  -0.701   6.045 -0.2043  0.8886 -0.6923
  574MOL0     H77474   3.232   0.208   6.092 -1.0547  3.0263 -0.6025
  574MOL0     H77475   3.027   0.329   6.115 -1.0476 -0.2270 -0.8579
  574MOL0     H77476   2.604   0.241   6.362  2.6568  2.8223  2.1600
  574MOL0     H77477   2.358   0.296   6.412 -0.1414 -0.9330 -1.0895
  574MOL0     H77478   2.055   0.588   6.320 -0.1661 -1.9586 -3.5638
  574MOL0     H77479   2.194   0.663   6.239  0.8548  0.3815  0.2309
  574MOL0     H77480   2.116   0.753   6.434 -1.5905 -2.8976 -0.3835
  574MOL0     H77481   2.301   0.744   6.414  0.7219 -0.5904  1.6269
  574MOL0     H77482   2.311   0.558   6.570  2.8441  3.4259  0.4627
  574MOL0     H77483   2.136   0.574   6.612  1.5489 -1.0546  2.8797
  574MOL0     H77484   2.333   0.794   6.643  1.2730 -2.2831 -2.3847
  574MOL0     H77485   2.173   0.814   6.690  0.6655  0.1710  1.9530
  574MOL0     H77486   2.252   0.567   7.009 -2.0247  0.1526 -1.1742
  574MOL0     H77487   2.360   0.618   6.147 -0.1034  0.9003 -0.6998
  574MOL0     H77488   2.560   0.580   5.961 -0.3881  1.9199 -0.8631
  574MOL0     H77489   2.576   0.718   6.074  2.2498  0.2540  1.4972
  574MOL0     H77490   2.714   0.617   6.033 -0.2407 -0.5460 -2.4824
  575MOL0     O77491   6.319   4.622   1.396 -0.1497  0.9352 -0.9514
  575MOL0     C77492   6.432   4.667   1.400  0.3617 -0.6385 -0.0837
  575MOL0     O77493   6.465   4.784   1.329 -0.0394 -0.1103 -0.7331
  575MOL0     C77494   6.367   4.834   1.251  1.3866 -0.3485 -0.3000
  575MOL0     C77495   6.369   4.814   1.109  0.2709  0.4517  0.1221
  575MOL0     C77496   6.274   4.876   1.034 -0.4887  0.1228  0.3554
  575MOL0     C77497   6.165   4.940   1.087 -0.6114 -0.6958  0.2043
  575MOL0     O77498   6.078   4.998   1.002 -0.8171 -0.0393 -0.1216
  575MOL0     C77499   5.946   5.005   1.052 -0.6255 -0.4803 -0.3024
  575MOL0     C77500   5.842   5.050   0.949 -0.6474  0.6395 -0.6065
  575MOL0     C77501   5.828   4.947   0.841 -0.4928  0.0765  0.3283
  575MOL0     C77502   5.702   4.989   0.763 -0.4412 -0.0627  1.1695
  575MOL0     C77503   5.703   4.926   0.629 -1.0510 -0.2757  0.8122
  575MOL0     C77504   5.585   4.958   0.539 -0.0004 -0.4785 -1.0372
  575MOL0     C77505   5.603   4.902   0.400 -0.1013 -0.0283 -0.4001
  575MOL0     C77506   5.476   4.916   0.322  1.6375 -0.1146 -0.1204
  575MOL0     N77507   5.500   4.861   0.188  0.1881 -0.0315 -0.6998
  575MOL0     C77508   5.501   4.732   0.144  1.1869 -0.0998  0.0379
  575MOL0     C77509   5.554   4.742   0.023 -0.3698  0.8207 -0.0114
  575MOL0     C77510   5.574   4.629  -0.075  0.0488  0.8038 -1.2071
  575MOL0     C77511   5.484   4.651  -0.196  0.3582 -0.9529 -0.6286
  575MOL0     C77512   5.486   4.539  -0.307 -0.0570 -0.8343 -0.3109
  575MOL0     C77513   5.621   4.519  -0.378  0.3303  1.1819  0.2708
  575MOL0     O77514   5.714   4.443  -0.296 -0.6789 -0.2554 -0.6643
  575MOL0     C77515   5.829   4.396  -0.354  0.0888  0.9021 -0.3431
  575MOL0     C77516   5.873   4.425  -0.485  0.6984  0.7819 -0.5114
  575MOL0     C77517   5.990   4.362  -0.537  0.2768  0.8050  0.2056
  575MOL0     C77518   6.081   4.293  -0.451 -0.0524 -0.2273 -0.1628
  575MOL0     C77519   6.213   4.265  -0.505  0.1880  0.0429 -0.1550
  575MOL0     O77520   6.319   4.274  -0.415  0.1008 -0.1540  0.1225
  575MOL0     C77521   6.447   4.243  -0.442 -0.0219 -0.9622  0.2977
  575MOL0     C77522   6.544   4.335  -0.400 -0.5018  0.8164 -0.1909
  575MOL0     C77523   6.673   4.306  -0.416 -0.7196  0.4332 -0.1243
  575MOL0     C77524   6.710   4.178  -0.448  0.0482 -0.2139 -0.7112
  575MOL0     O77525   6.838   4.135  -0.440 -1.2902 -0.2787  0.2934
  575MOL0     C77526   6.875   4.129  -0.304 -0.5501 -0.7342 -0.7127
  575MOL0     C77527   6.824   4.007  -0.232  0.3243  0.3657 -0.5086
  575MOL0     C77528   6.854   3.881  -0.310  0.1100  0.4619  0.9095
  575MOL0     C77529   6.801   3.752  -0.239  0.4207  0.3841  0.0461
  575MOL0     C77530   6.878   3.625  -0.285  0.2555 -0.5682  0.2901
  575MOL0     C77531   7.027   3.619  -0.251  0.2683 -0.9371 -0.5267
  575MOL0     C77532   7.041   3.593  -0.093  0.6206  0.4341 -0.4506
  575MOL0     C77533   7.183   3.639  -0.048  0.9411 -0.1596 -0.3305
  575MOL0    Cl77534   7.201   3.819  -0.056  0.0877 -0.0462  0.0964
  575MOL0     C77535   6.616   4.082  -0.491  0.9013  0.5514  0.2126
  575MOL0     C77536   6.485   4.115  -0.483 -1.6483  0.0874 -0.0288
  575MOL0     O77537   6.223   4.237  -0.624 -0.6547  0.1056 -0.0164
  575MOL0     C77538   6.035   4.271  -0.321 -0.2385  0.6139  0.9012
  575MOL0     C77539   5.909   4.319  -0.273  0.2249  0.2320 -0.4274
  575MOL0     N77540   5.594   4.871  -0.007 -0.9272 -0.4040  0.3210
  575MOL0     N77541   5.564   4.941   0.094  0.0495  0.0030  0.3141
  575MOL0     C77542   6.161   4.954   1.229 -0.1710  0.4415 -0.0976
  575MOL0     C77543   6.264   4.905   1.311 -0.5024 -0.1409  0.2497
  575MOL0     C77544   6.534   4.589   1.469  1.1335  0.2182  0.0825
  575MOL0     C77545   6.521   4.446   1.475 -0.2987  0.8333  1.0999
  575MOL0     C77546   6.605   4.377   1.569 -0.6397  0.5802 -0.3400
  575MOL0     C77547   6.715   4.441   1.635 -0.2567  0.0692 -0.1846
  575MOL0     O77548   6.784   4.376   1.736 -0.2886  0.6991  0.6849
  575MOL0     C77549   6.923   4.411   1.752  0.7746 -1.1070  0.1924
  575MOL0     C77550   6.945   4.467   1.901  0.2988 -0.3709 -0.1135
  575MOL0     C77551   6.905   4.359   2.005  0.1465  0.5050  0.9082
  575MOL0     C77552   6.881   4.417   2.146  0.3113 -0.4953 -0.0337
  575MOL0     C77553   6.989   4.510   2.196  0.0278  0.6280  0.3461
  575MOL0     C77554   7.067   4.595   2.230 -0.5019 -0.1772  0.8761
  575MOL0     C77555   6.729   4.572   1.616  0.1654  0.0697  0.7069
  575MOL0     C77556   6.644   4.647   1.541  0.0824  0.0289 -0.2111
  575MOL0     C77557   6.661   4.799   1.547  0.4194 -0.3457 -0.6704
  575MOL0     H77558   6.443   4.758   1.053  0.0288  1.1018 -0.8756
  575MOL0     H77559   6.280   4.863   0.926  2.0263  1.5582  0.2373
  575MOL0     H77560   5.908   4.922   1.112 -3.1010  2.2007  2.1456
  575MOL0     H77561   5.936   5.087   1.124 -1.0390 -1.2279  0.5086
  575MOL0     H77562   5.875   5.144   0.902 -1.6096  1.3509  0.1105
  575MOL0     H77563   5.746   5.061   0.999 -0.7586  0.9150 -0.8711
  575MOL0     H77564   5.810   4.849   0.886  1.2288 -1.2069 -1.5977
  575MOL0     H77565   5.914   4.947   0.774 -0.1792 -0.1329  0.7211
  575MOL0     H77566   5.604   4.968   0.808 -1.1730 -0.3758 -0.4819
  575MOL0     H77567   5.723   5.093   0.737  3.5663 -1.3940 -1.9585
  575MOL0     H77568   5.786   4.959   0.566 -1.2377 -0.5396  0.4254
  575MOL0     H77569   5.713   4.817   0.636  2.6160 -0.2826 -1.6951
  575MOL0     H77570   5.496   4.922   0.591  1.5391 -3.7331 -0.4223
  575MOL0     H77571   5.587   5.068   0.544 -0.1515 -0.5240  0.4689
  575MOL0     H77572   5.631   4.796   0.408  0.5287  0.0248 -1.6547
  575MOL0     H77573   5.686   4.931   0.335 -1.0667  0.8585 -1.2566
  575MOL0     H77574   5.404   4.851   0.373  2.6330 -1.2888 -0.1979
  575MOL0     H77575   5.434   5.018   0.317  1.2073 -0.2540  0.4218
  575MOL0     H77576   5.460   4.646   0.196  0.0222  0.0618 -0.5879
  575MOL0     H77577   5.682   4.633  -0.097  0.1105 -0.1109 -1.1470
  575MOL0     H77578   5.573   4.529  -0.029  0.6281  2.1860  2.0696
  575MOL0     H77579   5.381   4.660  -0.161  0.9916  2.1671  0.7810
  575MOL0     H77580   5.521   4.743  -0.242  3.5350 -1.4135  0.7578
  575MOL0     H77581   5.414   4.568  -0.384 -1.1802  0.9270  1.2986
  575MOL0     H77582   5.457   4.442  -0.266 -0.0029  0.0652  2.0145
  575MOL0     H77583   5.656   4.619  -0.406 -0.1837  1.3460  0.2024
  575MOL0     H77584   5.602   4.454  -0.464  3.2739  0.1313  0.3229
  575MOL0     H77585   5.827   4.507  -0.540  0.8475  0.1642 -1.5902
  575MOL0     H77586   6.015   4.403  -0.634  2.0367  2.1720  1.1710
  575MOL0     H77587   6.518   4.433  -0.360 -1.1969  0.7476 -0.4630
  575MOL0     H77588   6.758   4.369  -0.392 -0.7915  1.1638 -1.6435
  575MOL0     H77589   6.985   4.122  -0.303 -0.2785  2.0603  1.0601
  575MOL0     H77590   6.867   4.227  -0.257  1.8388 -0.7681 -0.0654
  575MOL0     H77591   6.874   3.996  -0.135  1.5161  0.5704 -1.0830
  575MOL0     H77592   6.717   4.004  -0.211  0.4495  0.9203  0.2645
  575MOL0     H77593   6.795   3.889  -0.402  0.3640 -1.3260  0.5576
  575MOL0     H77594   6.959   3.875  -0.340  0.5533  1.3526  2.1897
  575MOL0     H77595   6.697   3.744  -0.271  1.0165 -1.4163 -1.6556
  575MOL0     H77596   6.801   3.766  -0.131 -0.2655  0.2093  0.0701
  575MOL0     H77597   6.862   3.628  -0.393 -0.1255 -0.7803  0.3404
  575MOL0     H77598   6.830   3.535  -0.245  0.6186 -0.4180  1.0831
  575MOL0     H77599   7.077   3.539  -0.306  0.8281 -1.1810  0.3172
  575MOL0     H77600   7.078   3.706  -0.293 -1.7514 -1.0730 -3.5768
  575MOL0     H77601   7.041   3.486  -0.068 -0.1093  1.4566  4.9824
  575MOL0     H77602   6.968   3.645  -0.032  0.5191 -2.0284  1.6904
  575MOL0     H77603   7.185   3.602   0.055 -1.9331  0.1430 -0.0688
  575MOL0     H77604   7.258   3.591  -0.111  1.2419  2.2699 -1.9914
  575MOL0     H77605   6.642   3.980  -0.516 -0.0974  0.3778 -0.1642
  575MOL0     H77606   6.423   4.031  -0.515 -0.0274 -1.4258  0.5912
  575MOL0     H77607   6.090   4.213  -0.248 -2.1724 -2.0763  0.3760
  575MOL0     H77608   5.890   4.295  -0.169 -1.1786 -0.9094 -0.9142
  575MOL0     H77609   6.085   5.014   1.276 -2.1560 -2.2911  0.4458
  575MOL0     H77610   6.273   4.936   1.415  1.9245  0.0509  0.0286
  575MOL0     H77611   6.432   4.401   1.433 -0.7848  2.5020  0.2291
  575MOL0     H77612   6.591   4.272   1.592 -1.3858  0.8371  0.4146
  575MOL0     H77613   6.959   4.481   1.677 -0.1609 -0.2317  0.5531
  575MOL0     H77614   6.998   4.331   1.745  0.3560 -1.3882 -1.3994
  575MOL0     H77615   6.897   4.563   1.921 -0.0692 -0.6411  0.3574
  575MOL0     H77616   7.050   4.481   1.927  0.2526 -2.9622  1.9922
  575MOL0     H77617   6.974   4.275   2.013 -1.6522 -1.0355  0.9909
  575MOL0     H77618   6.815   4.307   1.971  0.6372 -1.0109  1.8078
  575MOL0     H77619   6.794   4.480   2.128 -0.1894 -0.7621  1.3738
  575MOL0     H77620   6.842   4.346   2.220 -3.6113  0.5289 -0.8909
  575MOL0     H77621   7.106   4.692   2.252 -1.8974  0.5074  0.4946
  575MOL0     H77622   6.796   4.633   1.676  0.0560  0.1657  0.7316
  575MOL0     H77623   6.705   4.830   1.452  0.5614  1.2982 -0.0951
  575MOL0     H77624   6.565   4.848   1.563 -0.2623 -2.3567  2.0901
  575MOL0     H77625   6.735   4.838   1.618 -0.1771  1.6341 -1.0890
  576MOL0     O77626   7.120   2.157   0.363  0.4313 -0.9969 -1.5423
  576MOL0     C77627   7.173   2.137   0.473 -0.2257  0.1636 -0.5426
  576MOL0     O77628   7.128   2.061   0.572  0.4340 -0.0045  0.7488
  576MOL0     C77629   7.008   2.000   0.560  0.0520  0.2046 -0.1422
  576MOL0     C77630   6.994   1.898   0.473 -0.4004 -0.3058 -0.4583
  576MOL0     C77631   6.875   1.834   0.459  0.2507  0.2641  0.2879
  576MOL0     C77632   6.769   1.870   0.540  1.0419  0.1679 -1.7005
  576MOL0     O77633   6.645   1.818   0.520  0.1141 -0.2878  0.2668
  576MOL0     C77634   6.649   1.678   0.497 -0.0227  0.8011 -0.6480
  576MOL0     C77635   6.517   1.633   0.562  0.0538  0.2668  0.6016
  576MOL0     C77636   6.504   1.483   0.564  0.5800  0.3174 -0.5888
  576MOL0     C77637   6.355   1.439   0.604  0.1571  0.0506  0.2893
  576MOL0     C77638   6.329   1.433   0.756  0.3113 -0.1136 -0.7799
  576MOL0     C77639   6.192   1.377   0.801 -0.0792 -0.4796  0.1565
  576MOL0     C77640   6.201   1.230   0.826  0.8677  0.3592 -0.6570
  576MOL0     C77641   6.067   1.174   0.871  0.5946  0.1661  0.8534
  576MOL0     N77642   5.991   1.130   0.747 -0.4948 -0.1137  0.1793
  576MOL0     C77643   6.028   1.018   0.670  0.2162  0.8289  0.4907
  576MOL0     C77644   5.938   1.015   0.562 -0.7112  0.6311 -1.0002
  576MOL0     C77645   5.921   0.916   0.444 -0.7185  0.5024 -0.5236
  576MOL0     C77646   5.974   0.985   0.309  0.3143  0.9501 -0.0669
  576MOL0     C77647   6.125   1.018   0.302  0.1865 -0.8603  0.1382
  576MOL0     C77648   6.142   1.097   0.172 -0.2410  0.1098  1.1443
  576MOL0     O77649   6.283   1.068   0.135  0.8249 -0.5255 -0.5108
  576MOL0     C77650   6.355   1.169   0.071  0.0435 -0.2079 -0.1901
  576MOL0     C77651   6.482   1.141   0.035  1.0363 -0.0759 -0.3850
  576MOL0     C77652   6.562   1.217  -0.048 -0.8090 -0.7790  1.1622
  576MOL0     C77653   6.530   1.351  -0.081  0.8966  0.0192 -0.9177
  576MOL0     C77654   6.628   1.438  -0.144  0.1781  0.2544 -0.5876
  576MOL0     O77655   6.731   1.386  -0.216 -0.2987  0.3232  0.0533
  576MOL0     C77656   6.817   1.475  -0.279 -1.3661  0.9032 -0.7559
  576MOL0     C77657   6.912   1.541  -0.201  0.9022 -0.2430  0.2240
  576MOL0     C77658   6.996   1.628  -0.272 -0.0589 -0.8084 -0.2949
  576MOL0     C77659   6.997   1.643  -0.413  0.6454  0.3171 -0.1198
  576MOL0     O77660   7.102   1.712  -0.457 -0.7098 -0.6550 -0.4616
  576MOL0     C77661   7.110   1.738  -0.597 -0.1642  1.0358  0.2910
  576MOL0     C77662   7.237   1.822  -0.605 -0.5916 -0.3135  0.6035
  576MOL0     C77663   7.251   1.848  -0.753  0.1616  0.1439 -0.1070
  576MOL0     C77664   7.370   1.924  -0.798 -0.1074  0.1515 -0.4250
  576MOL0     C77665   7.393   1.926  -0.950 -0.1259 -0.6836  0.5729
  576MOL0     C77666   7.511   2.003  -0.991 -0.2847 -0.4349  0.4386
  576MOL0     C77667   7.527   2.014  -1.148  0.1892 -0.0599  0.4035
  576MOL0     C77668   7.650   2.089  -1.203  0.0420  0.6746 -0.1945
  576MOL0    Cl77669   7.639   2.090  -1.378  0.0223  0.0375 -0.5373
  576MOL0     C77670   6.892   1.580  -0.491  0.7546 -1.3160 -0.6903
  576MOL0     C77671   6.803   1.494  -0.421  0.0818  0.3728 -0.4219
  576MOL0     O77672   6.601   1.559  -0.133 -0.0703 -0.3177 -0.7496
  576MOL0     C77673   6.393   1.387  -0.034  0.4592 -0.7489  0.5516
  576MOL0     C77674   6.304   1.293   0.024 -1.2413 -0.9664  0.0516
  576MOL0     N77675   5.857   1.126   0.582  0.5276  0.2133  0.0384
  576MOL0     N77676   5.907   1.208   0.677  0.1438  0.6456  0.1171
  576MOL0     C77677   6.782   1.974   0.634  0.0993 -0.2644  0.1948
  576MOL0     C77678   6.902   2.044   0.641  0.1072  0.4378  0.3648
  576MOL0     C77679   7.322   2.191   0.488  0.4335 -0.1428 -0.3722
  576MOL0     C77680   7.394   2.134   0.597  0.0752 -0.3980  0.6211
  576MOL0     C77681   7.528   2.164   0.622 -0.1593  0.0045 -0.3091
  576MOL0     C77682   7.602   2.259   0.541  0.9051 -1.0064  1.4334
  576MOL0     O77683   7.729   2.309   0.572  0.3084 -0.3731  0.3819
  576MOL0     C77684   7.824   2.215   0.628 -0.5386 -0.3119  0.2158
  576MOL0     C77685   7.945   2.293   0.639 -0.3928 -0.3355  0.4224
  576MOL0     C77686   8.026   2.316   0.511  0.2191 -0.5373 -0.6758
  576MOL0     C77687   8.066   2.184   0.436  1.4206 -0.2735 -0.1580
  576MOL0     C77688   8.136   2.215   0.317  1.4869 -0.2337 -0.7182
  576MOL0     C77689   8.202   2.239   0.217 -0.0381  0.1771  0.3295
  576MOL0     C77690   7.533   2.310   0.428 -0.2947 -0.0941 -0.0105
  576MOL0     C77691   7.392   2.283   0.399  0.3166  0.6239  0.5703
  576MOL0     C77692   7.320   2.367   0.289  0.1407 -1.0313 -0.4999
  576MOL0     H77693   7.082   1.860   0.421 -0.5010  0.0353 -0.8821
  576MOL0     H77694   6.865   1.760   0.380 -0.7773  1.7842 -1.0644
  576MOL0     H77695   6.659   1.657   0.390  0.3270  0.7085 -0.5981
  576MOL0     H77696   6.732   1.636   0.555 -0.8379  3.4087  2.7411
  576MOL0     H77697   6.445   1.663   0.485  2.0513  1.4419 -0.9166
  576MOL0     H77698   6.500   1.679   0.660 -1.5955  3.5775 -1.0932
  576MOL0     H77699   6.572   1.440   0.638 -1.1364 -1.9447 -0.1913
  576MOL0     H77700   6.529   1.442   0.465  2.2111 -0.2801  0.0377
  576MOL0     H77701   6.275   1.500   0.559  0.8390  0.3151 -0.5927
  576MOL0     H77702   6.339   1.337   0.569  2.1606  0.0361 -0.7375
  576MOL0     H77703   6.415   1.384   0.803  1.7693  0.6155 -2.5352
  576MOL0     H77704   6.327   1.539   0.783 -1.6165 -0.5298  0.9406
  576MOL0     H77705   6.172   1.420   0.900  1.1387 -1.0372  0.6690
  576MOL0     H77706   6.105   1.398   0.738 -1.0163  0.8920  1.8018
  576MOL0     H77707   6.272   1.211   0.906  0.2753  0.3532 -0.1263
  576MOL0     H77708   6.234   1.173   0.738  0.4323  0.1378 -0.6806
  576MOL0     H77709   6.083   1.092   0.942  2.3831 -0.9635 -0.7474
  576MOL0     H77710   6.003   1.249   0.918  1.5273  1.5276  0.0158
  576MOL0     H77711   6.114   0.952   0.678  0.0916  0.4739 -0.7788
  576MOL0     H77712   5.975   0.824   0.471  1.1403  2.2666  2.2264
  576MOL0     H77713   5.816   0.890   0.432 -1.3456  1.7060  1.9061
  576MOL0     H77714   5.950   0.923   0.222 -1.1761 -1.5431  1.9347
  576MOL0     H77715   5.920   1.080   0.306  1.4817  1.8846  3.3766
  576MOL0     H77716   6.183   0.926   0.295 -0.9856 -1.4868 -2.6307
  576MOL0     H77717   6.159   1.080   0.386  0.7397 -0.3494 -0.4481
  576MOL0     H77718   6.101   1.196   0.191 -3.5585 -0.9956  0.4659
  576MOL0     H77719   6.086   1.065   0.084  2.5205 -1.4720 -0.1748
  576MOL0     H77720   6.520   1.042   0.059 -0.0334  0.0384  1.9915
  576MOL0     H77721   6.657   1.168  -0.066 -0.7386 -0.2301 -0.1042
  576MOL0     H77722   6.913   1.529  -0.093 -3.5657  5.0387  1.2923
  576MOL0     H77723   7.071   1.677  -0.212 -1.8320  0.4801  0.9728
  576MOL0     H77724   7.116   1.650  -0.663 -0.4798  2.9041 -2.3973
  576MOL0     H77725   7.028   1.805  -0.625  0.3617  2.2807  1.6302
  576MOL0     H77726   7.225   1.912  -0.543 -2.6442  1.6075 -2.3567
  576MOL0     H77727   7.315   1.757  -0.566  0.2717  0.0266 -0.5226
  576MOL0     H77728   7.237   1.750  -0.800  0.7205 -0.1998  0.4267
  576MOL0     H77729   7.159   1.904  -0.772 -0.9314 -0.7024  2.2657
  576MOL0     H77730   7.462   1.883  -0.756  0.8217  0.5500 -1.9596
  576MOL0     H77731   7.354   2.025  -0.760 -4.6581 -0.5956  0.2084
  576MOL0     H77732   7.306   1.978  -0.994  0.5703 -0.4004 -0.5069
  576MOL0     H77733   7.393   1.822  -0.984  3.9705 -1.1297  1.4905
  576MOL0     H77734   7.500   2.101  -0.944  3.2595 -1.1584  3.3153
  576MOL0     H77735   7.602   1.957  -0.950 -1.5773 -2.0510  1.6685
  576MOL0     H77736   7.435   2.055  -1.189 -0.0425 -1.5772 -0.7155
  576MOL0     H77737   7.536   1.910  -1.182  0.4562 -0.7980  2.5745
  576MOL0     H77738   7.658   2.187  -1.156  1.5627  0.7140 -0.4725
  576MOL0     H77739   7.738   2.036  -1.164  0.6311 -1.0023 -3.4363
  576MOL0     H77740   6.880   1.591  -0.598 -6.7813 -2.0990 -0.4323
  576MOL0     H77741   6.712   1.454  -0.463 -0.4383 -1.2423  1.9864
  576MOL0     H77742   6.353   1.487  -0.050 -0.4290 -1.1834  0.0101
  576MOL0     H77743   6.206   1.332   0.052 -2.1251 -0.7037 -3.0369
  576MOL0     H77744   6.704   2.006   0.703  0.1368 -0.2228  0.2177
  576MOL0     H77745   6.933   2.121   0.711 -2.1632  0.2438  1.6658
  576MOL0     H77746   7.345   2.075   0.673 -0.6540 -0.7542 -0.1142
  576MOL0     H77747   7.573   2.113   0.707 -1.9257  1.0956  1.3757
  576MOL0     H77748   7.840   2.129   0.561  1.6433 -1.4095  1.9929
  576MOL0     H77749   7.798   2.183   0.729 -3.0519  0.6933 -0.0378
  576MOL0     H77750   8.008   2.239   0.711 -1.9181 -2.8010  0.0078
  576MOL0     H77751   7.919   2.388   0.688 -1.1238 -0.7292  0.8130
  576MOL0     H77752   8.110   2.378   0.543 -1.2083 -0.0290  2.4907
  576MOL0     H77753   7.963   2.371   0.441  1.4133  0.7963 -0.7511
  576MOL0     H77754   8.116   2.102   0.489 -1.6190 -2.1988 -0.0036
  576MOL0     H77755   7.976   2.132   0.401  1.0559  0.6725 -0.6680
  576MOL0     H77756   8.261   2.260   0.129  0.1809  1.5236  0.7627
  576MOL0     H77757   7.580   2.395   0.381 -2.5826  0.3347 -1.7218
  576MOL0     H77758   7.382   2.455   0.269  0.7272 -0.7766  2.0787
  576MOL0     H77759   7.322   2.301   0.201  1.0126  0.4553 -1.6522
  576MOL0     H77760   7.219   2.391   0.322  0.9755  0.9670  0.7223
  577MOL0     O77761   6.219   7.159  10.042  0.2556  0.4333  0.7843
  577MOL0     C77762   6.253   7.138  10.155 -0.3089  0.0647  0.6044
  577MOL0     O77763   6.219   7.035  10.232 -0.8345  0.3428 -0.0972
  577MOL0     C77764   6.099   6.971  10.222  0.3164  0.6436 -0.9257
  577MOL0     C77765   5.981   7.014  10.161 -0.0658  0.5324  0.6271
  577MOL0     C77766   5.875   6.925  10.160  0.0857 -0.2513 -0.0498
  577MOL0     C77767   5.871   6.802  10.220  0.8460  0.6652  0.6591
  577MOL0     O77768   5.759   6.718  10.217  0.3543 -0.1463 -0.1947
  577MOL0     C77769   5.636   6.750  10.155  0.5999  0.0610 -0.8380
  577MOL0     C77770   5.540   6.643  10.191 -0.4346 -0.0190 -0.1215
  577MOL0     C77771   5.497   6.657  10.336 -0.1309  0.0946 -0.2203
  577MOL0     C77772   5.421   6.534  10.383 -0.5056 -0.1692 -0.1955
  577MOL0     C77773   5.324   6.576  10.494 -0.1936  1.0014  0.2884
  577MOL0     C77774   5.228   6.458  10.522 -0.3569  0.5208  0.9371
  577MOL0     C77775   5.127   6.499  10.638 -0.9109  0.1686 -0.2801
  577MOL0     C77776   5.052   6.387  10.691 -0.1911  0.7121  0.9823
  577MOL0     N77777   4.927   6.422  10.754 -0.1697 -0.1848 -0.4538
  577MOL0     C77778   4.808   6.356  10.755  0.2994  0.0179  0.1013
  577MOL0     C77779   4.723   6.441  10.819  0.4433  0.4638 -0.1327
  577MOL0     C77780   4.588   6.408  10.880 -0.4538 -0.0359 -0.2531
  577MOL0     C77781   4.586   6.368  11.020 -0.4332  0.0413 -0.3085
  577MOL0     C77782   4.443   6.379  11.077  0.2857 -0.0278  0.3952
  577MOL0     C77783   4.454   6.381  11.221 -0.2740  0.2940 -0.3987
  577MOL0     O77784   4.498   6.250  11.261  0.1270 -0.5933  0.1016
  577MOL0     C77785   4.403   6.149  11.277 -0.3390  0.1204  0.1926
  577MOL0     C77786   4.434   6.021  11.236 -0.8478 -0.5189 -0.2349
  577MOL0     C77787   4.346   5.915  11.243  0.3749 -0.3837  0.5278
  577MOL0     C77788   4.218   5.931  11.297  0.5782  0.4855 -1.0295
  577MOL0     C77789   4.113   5.822  11.292 -0.7249 -0.3474 -0.2382
  577MOL0     O77790   3.983   5.856  11.303  0.2861  0.2652  0.2030
  577MOL0     C77791   3.871   5.766  11.292 -1.3335  0.0593 -0.1720
  577MOL0     C77792   3.869   5.639  11.227 -0.8034 -0.3387 -0.5405
  577MOL0     C77793   3.753   5.569  11.209  0.0581  0.5350  0.1772
  577MOL0     C77794   3.626   5.622  11.246  0.2017 -0.3427 -0.1168
  577MOL0     O77795   3.514   5.554  11.211 -0.9097  0.1704  0.7996
  577MOL0     C77796   3.410   5.541  11.312 -0.8035 -0.1372  0.8719
  577MOL0     C77797   3.320   5.431  11.275 -0.4757  0.2276  0.2349
  577MOL0     C77798   3.223   5.462  11.164 -0.0506 -0.0658  0.2720
  577MOL0     C77799   3.135   5.338  11.134 -0.6296  0.0475  0.9360
  577MOL0     C77800   3.036   5.357  11.018  0.4340  0.5994 -1.0523
  577MOL0     C77801   2.959   5.224  11.021  0.4422  0.1175  0.2145
  577MOL0     C77802   2.905   5.173  10.882 -0.0163 -0.9369 -0.1840
  577MOL0     C77803   2.796   5.273  10.826  0.5066 -0.1374 -0.3595
  577MOL0    Cl77804   2.641   5.220  10.874  0.0138  0.2839 -0.4151
  577MOL0     C77805   3.637   5.742  11.313  0.2920  0.3478  1.1914
  577MOL0     C77806   3.752   5.818  11.331 -0.5622 -0.2327  0.6281
  577MOL0     O77807   4.148   5.703  11.265  0.0600 -0.4142 -0.5141
  577MOL0     C77808   4.174   6.061  11.338 -1.0021 -0.9070  0.9906
  577MOL0     C77809   4.267   6.164  11.327  0.8092  0.4061  0.4366
  577MOL0     N77810   4.794   6.551  10.859 -0.2776 -1.1337 -1.2663
  577MOL0     N77811   4.918   6.537  10.820 -0.0566 -0.5594  0.2441
  577MOL0     C77812   5.989   6.768  10.285  0.2416 -0.0679  0.8442
  577MOL0     C77813   6.104   6.851  10.295  0.4726 -0.2865  0.0299
  577MOL0     C77814   6.329   7.240  10.233 -0.2822  0.7319 -0.5019
  577MOL0     C77815   6.452   7.203  10.297  0.3071  0.8372 -0.0532
  577MOL0     C77816   6.519   7.299  10.364  0.8200  0.2828 -0.8255
  577MOL0     C77817   6.476   7.433  10.382  0.0536  0.6793  0.2025
  577MOL0     O77818   6.539   7.530  10.451 -0.1034 -0.3296  0.3288
  577MOL0     C77819   6.681   7.517  10.499  0.8772 -0.9117  0.4123
  577MOL0     C77820   6.765   7.539  10.370  0.7281  0.0911  0.2745
  577MOL0     C77821   6.914   7.534  10.412 -1.3352  0.4044 -0.3362
  577MOL0     C77822   7.002   7.507  10.286  0.1905  0.1839 -0.0868
  577MOL0     C77823   6.984   7.615  10.199 -0.2861 -0.4985  0.5638
  577MOL0     C77824   6.977   7.706  10.113  0.1321 -0.0521 -0.4058
  577MOL0     C77825   6.357   7.470  10.316  0.2423 -0.0423  0.1654
  577MOL0     C77826   6.285   7.375  10.247  0.5361 -0.6191  0.6472
  577MOL0     C77827   6.148   7.427  10.200  0.2800 -1.0589 -0.6305
  577MOL0     H77828   5.986   7.109  10.109 -1.7240  0.2007 -0.2222
  577MOL0     H77829   5.790   6.960  10.103  0.2483 -1.5515 -1.1474
  577MOL0     H77830   5.591   6.847  10.181 -0.9767 -0.8548 -0.0014
  577MOL0     H77831   5.644   6.749  10.046  1.9142  2.0022 -0.8074
  577MOL0     H77832   5.586   6.546  10.175  0.4155  0.4564 -0.6145
  577MOL0     H77833   5.449   6.645  10.130 -0.7163  1.1971  0.2959
  577MOL0     H77834   5.431   6.744  10.340 -2.1424 -1.3177 -0.6461
  577MOL0     H77835   5.574   6.681  10.409 -1.4088  4.0792  0.0290
  577MOL0     H77836   5.377   6.493  10.292 -0.4528 -4.1069  1.3492
  577MOL0     H77837   5.490   6.453  10.412  0.2558  0.3230 -0.6004
  577MOL0     H77838   5.379   6.594  10.586  0.7065  0.1450 -0.0660
  577MOL0     H77839   5.270   6.661  10.451 -0.3395  0.5104 -0.5266
  577MOL0     H77840   5.167   6.441  10.433  1.4654 -1.2119 -0.0737
  577MOL0     H77841   5.283   6.364  10.532 -0.8227  0.3199  1.7018
  577MOL0     H77842   5.050   6.563  10.594  1.9971  1.9931 -3.2001
  577MOL0     H77843   5.162   6.558  10.723 -2.3998 -3.7731  3.4236
  577MOL0     H77844   5.034   6.306  10.620  3.9602  0.7868 -0.4613
  577MOL0     H77845   5.120   6.341  10.763  0.6318  1.5250  0.7467
  577MOL0     H77846   4.792   6.261  10.705  0.4779  0.5837 -1.0651
  577MOL0     H77847   4.526   6.498  10.869 -1.6546 -0.9783 -1.7784
  577MOL0     H77848   4.544   6.330  10.817 -4.4905  2.2872 -0.6999
  577MOL0     H77849   4.625   6.266  11.027 -1.3848 -0.3817 -0.9220
  577MOL0     H77850   4.651   6.437  11.075  1.1168  0.3706 -2.4676
  577MOL0     H77851   4.379   6.303  11.032 -0.2399  1.6690 -1.9427
  577MOL0     H77852   4.391   6.469  11.041  1.0717  1.1832  2.1513
  577MOL0     H77853   4.364   6.429  11.261  1.5592  3.8158 -0.1481
  577MOL0     H77854   4.535   6.444  11.257  0.7073 -1.8873  1.4886
  577MOL0     H77855   4.531   6.016  11.187 -0.1994  0.9564  0.8206
  577MOL0     H77856   4.383   5.820  11.206  1.0990 -0.1757  0.7177
  577MOL0     H77857   3.964   5.602  11.189  0.5596  1.2256  1.1405
  577MOL0     H77858   3.751   5.470  11.164  1.8857  0.1321  0.8843
  577MOL0     H77859   3.444   5.519  11.414 -3.1008 -1.2460  1.4524
  577MOL0     H77860   3.358   5.637  11.326 -1.2372 -0.2343 -0.0272
  577MOL0     H77861   3.375   5.345  11.234 -1.1112  0.7937 -1.9481
  577MOL0     H77862   3.265   5.402  11.365  2.1626 -3.3034  0.9314
  577MOL0     H77863   3.160   5.546  11.196 -0.1920  0.7468 -1.9223
  577MOL0     H77864   3.279   5.501  11.078  1.3344  0.9562  1.5847
  577MOL0     H77865   3.081   5.304  11.224 -1.4904  0.3265  0.5386
  577MOL0     H77866   3.211   5.263  11.111 -0.0184  0.4702  1.5548
  577MOL0     H77867   3.093   5.381  10.928  0.6345 -0.7827 -1.3275
  577MOL0     H77868   2.970   5.439  11.045  0.9490  1.2921 -1.8689
  577MOL0     H77869   3.013   5.145  11.074  3.9768  2.2938  0.1318
  577MOL0     H77870   2.869   5.236  11.083  0.9853 -0.6742  1.1943
  577MOL0     H77871   2.876   5.072  10.912 -1.4302  0.3320  3.3048
  577MOL0     H77872   2.982   5.156  10.807 -2.0845  1.0302 -2.9470
  577MOL0     H77873   2.817   5.372  10.867  0.2592  1.1447 -3.0665
  577MOL0     H77874   2.813   5.270  10.718  2.7270 -2.1701 -0.0262
  577MOL0     H77875   3.542   5.781  11.350 -0.1379 -0.4251  0.9300
  577MOL0     H77876   3.744   5.920  11.368  0.3109  0.4319 -0.9136
  577MOL0     H77877   4.071   6.089  11.358 -0.3827  0.9995  1.7466
  577MOL0     H77878   4.224   6.261  11.350  0.8170 -0.0511  2.6199
  577MOL0     H77879   5.974   6.668  10.324 -0.4667 -1.7884 -3.3169
  577MOL0     H77880   6.200   6.810  10.323  1.6984  0.8540 -2.1851
  577MOL0     H77881   6.485   7.099  10.293 -0.4860  0.4545  1.9527
  577MOL0     H77882   6.610   7.255  10.405 -0.0868 -1.6873 -0.7857
  577MOL0     H77883   6.700   7.423  10.552 -2.4512 -1.5903  0.5954
  577MOL0     H77884   6.697   7.597  10.571 -2.5247 -1.3269  1.7839
  577MOL0     H77885   6.734   7.626  10.312  0.8657 -0.6139 -0.8938
  577MOL0     H77886   6.736   7.450  10.313  0.2328 -0.5225  1.4444
  577MOL0     H77887   6.921   7.454  10.486 -1.9642 -2.8121 -3.4657
  577MOL0     H77888   6.935   7.628  10.462 -0.8467 -0.1474  0.5221
  577MOL0     H77889   7.108   7.503  10.314  0.6513 -2.3019 -1.8507
  577MOL0     H77890   6.957   7.423  10.232 -0.7524  1.6488 -1.6459
  577MOL0     H77891   6.968   7.783  10.038 -3.2717 -0.0056 -0.1210
  577MOL0     H77892   6.317   7.570  10.323 -0.2070 -0.1747 -0.4596
  577MOL0     H77893   6.163   7.524  10.151  3.9494 -2.0960 -1.8793
  577MOL0     H77894   6.121   7.360  10.118  2.8144 -3.9236  0.6488
  577MOL0     H77895   6.068   7.430  10.275  0.5389 -1.1269 -0.3470
  578MOL0     O77896  11.057   9.888  10.671 -0.6509 -0.5622  0.1523
  578MOL0     C77897  10.969   9.966  10.695 -0.0840 -0.8377 -0.1735
  578MOL0     O77898  10.983  10.088  10.759  0.5015 -0.5502  0.1494
  578MOL0     C77899  11.104  10.143  10.784  0.1061  0.0915 -0.1177
  578MOL0     C77900  11.209  10.151  10.689 -1.3942  0.0439 -0.9940
  578MOL0     C77901  11.329  10.203  10.719  0.2652 -1.0997  0.8665
  578MOL0     C77902  11.361  10.272  10.835  0.3121  1.2175  0.4023
  578MOL0     O77903  11.483  10.333  10.866  0.1149 -0.2388  0.4057
  578MOL0     C77904  11.468  10.446  10.956  0.0798  0.7454 -0.6749
  578MOL0     C77905  11.593  10.536  10.976  0.7521  0.2657 -0.6448
  578MOL0     C77906  11.707  10.473  11.049 -0.8911 -0.2034 -0.0114
  578MOL0     C77907  11.763  10.342  10.972  0.3329  0.1295 -0.0331
  578MOL0     C77908  11.787  10.362  10.812  0.1458 -0.8623  0.1559
  578MOL0     C77909  11.923  10.432  10.797  0.4836 -0.4297  0.8211
  578MOL0     C77910  11.954  10.475  10.647 -0.0240 -0.5258 -0.2780
  578MOL0     C77911  12.043  10.371  10.580  0.1490 -0.1681  0.4860
  578MOL0     N77912  12.184  10.382  10.625  0.7110 -0.0870 -0.2814
  578MOL0     C77913  12.264  10.491  10.601  0.1639  0.3104 -0.5352
  578MOL0     C77914  12.386  10.442  10.642  0.0137  0.5400  0.4206
  578MOL0     C77915  12.519  10.516  10.644 -0.3690  0.0079  0.4121
  578MOL0     C77916  12.638  10.417  10.615 -0.3825  0.5939  0.6782
  578MOL0     C77917  12.767  10.472  10.561 -0.6544 -0.1397 -1.1622
  578MOL0     C77918  12.872  10.371  10.525  0.0681  0.1272  0.3156
  578MOL0     O77919  12.988  10.446  10.497 -0.2207 -0.3596 -0.4316
  578MOL0     C77920  13.111  10.395  10.518  0.0409 -1.1243 -0.0348
  578MOL0     C77921  13.215  10.493  10.520  0.0474 -0.5530  0.7374
  578MOL0     C77922  13.345  10.451  10.541  0.3549 -0.3547 -0.2699
  578MOL0     C77923  13.379  10.310  10.550  0.9040  0.1357 -0.6597
  578MOL0     C77924  13.518  10.270  10.567 -0.4757 -1.0450  0.4679
  578MOL0     O77925  13.551  10.144  10.532 -0.1902  0.0446 -0.4666
  578MOL0     C77926  13.678  10.081  10.542 -0.2111  0.3470 -0.1660
  578MOL0     C77927  13.784  10.123  10.623  0.3803  0.5168  0.4786
  578MOL0     C77928  13.903  10.052  10.611 -0.1237  0.1209  0.1843
  578MOL0     C77929  13.916   9.927  10.538 -0.2133 -0.2463  0.2728
  578MOL0     O77930  14.023   9.838  10.528  0.6060 -0.4652 -0.2541
  578MOL0     C77931  14.140   9.872  10.598 -0.0606  0.2216  0.0556
  578MOL0     C77932  14.246   9.762  10.578 -0.8383  0.0051  0.2923
  578MOL0     C77933  14.314   9.763  10.443 -0.4595 -1.0958  0.2464
  578MOL0     C77934  14.463   9.811  10.443  0.6284  1.1552  0.0048
  578MOL0     C77935  14.528   9.773  10.304  0.6232 -0.9050 -0.0862
  578MOL0     C77936  14.668   9.813  10.298  0.4338 -0.3305 -0.1273
  578MOL0     C77937  14.737   9.785  10.159  0.0599  0.2060 -0.7214
  578MOL0     C77938  14.829   9.895  10.113 -0.3973  0.6306 -0.0406
  578MOL0    Cl77939  14.746  10.048  10.104  0.5228  0.2151  0.4882
  578MOL0     C77940  13.801   9.879  10.473 -0.1617  0.2697  0.0351
  578MOL0     C77941  13.691   9.959  10.472  1.2734  0.9333  0.3831
  578MOL0     O77942  13.596  10.352  10.601 -0.2083 -0.8818  0.5084
  578MOL0     C77943  13.280  10.215  10.543  1.4727  0.3512 -0.1465
  578MOL0     C77944  13.142  10.259  10.529 -0.1855 -0.0770  0.0495
  578MOL0     N77945  12.370  10.314  10.692  0.2249 -0.0619  0.0033
  578MOL0     N77946  12.252  10.276  10.675 -0.1747  0.1678  0.9518
  578MOL0     C77947  11.260  10.266  10.939 -0.1729 -0.0934 -0.0471
  578MOL0     C77948  11.137  10.205  10.907 -1.1128  0.0352  0.1829
  578MOL0     C77949  10.829   9.940  10.658 -0.3423 -0.3999 -0.4582
  578MOL0     C77950  10.718  10.020  10.709 -0.2588 -0.5243 -1.1714
  578MOL0     C77951  10.589   9.994  10.664  1.7028 -0.6419 -0.2444
  578MOL0     C77952  10.563   9.881  10.585 -0.4802 -0.1809  0.5961
  578MOL0     O77953  10.439   9.849  10.545  0.0788 -0.4926  0.2402
  578MOL0     C77954  10.404   9.719  10.504 -0.8858 -0.5970 -0.3583
  578MOL0     C77955  10.261   9.703  10.481 -0.1024  0.0346  0.4511
  578MOL0     C77956  10.226   9.575  10.416  0.6195  1.1471  0.5869
  578MOL0     C77957  10.274   9.566  10.271 -0.2694 -0.8055 -0.4908
  578MOL0     C77958  10.173   9.496  10.195  0.1109  0.6570  0.0125
  578MOL0     C77959  10.101   9.421  10.136  0.8846  0.1939 -0.5341
  578MOL0     C77960  10.670   9.807  10.534 -0.6394  0.7145  0.2866
  578MOL0     C77961  10.797   9.836  10.565  0.2885  0.1289 -1.0812
  578MOL0     C77962  10.894   9.747  10.490  0.0490 -0.6449 -0.4919
  578MOL0     H77963  11.201  10.106  10.590 -0.5789 -1.9609 -0.2133
  578MOL0     H77964  11.407  10.185  10.645  1.5600 -2.6644  2.5160
  578MOL0     H77965  11.388  10.513  10.921  0.3095  1.8484  0.8339
  578MOL0     H77966  11.441  10.414  11.057  3.7167  0.7379  0.4162
  578MOL0     H77967  11.566  10.614  11.048  2.4142 -0.0574  0.3926
  578MOL0     H77968  11.620  10.599  10.892  0.9869  1.9493  0.6411
  578MOL0     H77969  11.680  10.452  11.153 -3.7139  2.1321 -0.1449
  578MOL0     H77970  11.795  10.537  11.052 -1.6995  0.9111  3.2414
  578MOL0     H77971  11.859  10.301  11.005  0.0116 -0.7602 -0.1649
  578MOL0     H77972  11.701  10.253  10.989  1.5931 -1.1665 -1.7924
  578MOL0     H77973  11.804  10.261  10.774 -0.6744 -1.5201  1.4450
  578MOL0     H77974  11.705  10.409  10.757  1.3457 -0.3508 -1.2755
  578MOL0     H77975  11.922  10.529  10.847 -0.1306 -1.5583  3.1142
  578MOL0     H77976  11.995  10.380  10.860 -0.9209 -1.4565  1.6210
  578MOL0     H77977  12.017  10.564  10.654 -1.3074  0.6547 -2.5477
  578MOL0     H77978  11.864  10.507  10.594 -1.3735  0.8580  2.6485
  578MOL0     H77979  12.009  10.271  10.608 -0.6503 -0.0568 -0.0586
  578MOL0     H77980  12.026  10.386  10.473  0.2228 -0.5206  0.4230
  578MOL0     H77981  12.238  10.588  10.560 -3.8626  1.8132  4.5091
  578MOL0     H77982  12.509  10.601  10.576  0.4303 -1.5294 -1.7564
  578MOL0     H77983  12.535  10.560  10.744 -0.3904  2.2645 -0.5121
  578MOL0     H77984  12.648  10.355  10.704 -1.0536 -3.6112 -1.9014
  578MOL0     H77985  12.599  10.353  10.535 -0.8378  3.4107 -1.5149
  578MOL0     H77986  12.816  10.529  10.641  0.1894 -0.7808 -1.2038
  578MOL0     H77987  12.748  10.529  10.470  2.3732  2.0793 -0.5762
  578MOL0     H77988  12.848  10.317  10.433  2.5535  0.2149 -0.4762
  578MOL0     H77989  12.894  10.299  10.604 -0.8910  0.1586  0.6127
  578MOL0     H77990  13.186  10.597  10.529  3.9690  0.5579  2.9467
  578MOL0     H77991  13.412  10.536  10.541 -0.7112  0.5635 -2.7959
  578MOL0     H77992  13.788  10.220  10.671  1.2956  1.4296 -1.3377
  578MOL0     H77993  13.998  10.091  10.647 -1.4546  3.0949  0.7756
  578MOL0     H77994  14.182   9.967  10.563 -0.8152  1.0979  1.4394
  578MOL0     H77995  14.112   9.882  10.703  2.1213  1.7708  0.5720
  578MOL0     H77996  14.328   9.758  10.651  0.4012  0.8254 -1.0060
  578MOL0     H77997  14.193   9.667  10.585 -0.2418 -0.1925  3.6283
  578MOL0     H77998  14.307   9.664  10.397  1.1232 -0.9773 -0.2754
  578MOL0     H77999  14.250   9.840  10.400  0.2037 -1.0341 -0.6327
  578MOL0     H78000  14.534   9.756  10.504  1.0245  0.6218 -0.9132
  578MOL0     H78001  14.469   9.916  10.473 -0.5260  0.8153  1.5781
  578MOL0     H78002  14.473   9.823  10.223 -0.8429 -0.0929  1.3608
  578MOL0     H78003  14.520   9.664  10.292  3.9583 -1.1668 -0.8040
  578MOL0     H78004  14.676   9.920  10.317  0.1271 -0.5624  1.4827
  578MOL0     H78005  14.720   9.766  10.382  0.4269 -1.5174 -0.7654
  578MOL0     H78006  14.656   9.768  10.087 -0.0785  2.8143 -1.2685
  578MOL0     H78007  14.791   9.690  10.166 -0.9101 -0.3820 -0.9137
  578MOL0     H78008  14.910   9.908  10.185  0.5878 -0.2180 -0.9634
  578MOL0     H78009  14.878   9.877  10.017 -0.2822  0.5863  0.0265
  578MOL0     H78010  13.802   9.784  10.419 -0.1597 -0.2544  0.9455
  578MOL0     H78011  13.603   9.923  10.420  0.7643  0.6864  1.3979
  578MOL0     H78012  13.299  10.108  10.544  2.9400  0.5947 -0.1630
  578MOL0     H78013  13.067  10.180  10.532  0.7243 -0.9359  1.3820
  578MOL0     H78014  11.267  10.307  11.039 -1.7957 -0.0755  0.0911
  578MOL0     H78015  11.070  10.202  10.993  0.9628 -0.4631  1.8772
  578MOL0     H78016  10.735  10.110  10.767  1.3860 -0.7726 -1.2420
  578MOL0     H78017  10.498  10.050  10.683  1.4018 -0.4501 -2.0418
  578MOL0     H78018  10.437   9.648  10.581  1.3545  0.6139 -0.1130
  578MOL0     H78019  10.457   9.704  10.409  0.3477  0.3693  0.1475
  578MOL0     H78020  10.236   9.792  10.423  4.8776  1.9051  0.6666
  578MOL0     H78021  10.202   9.712  10.573  1.6379  0.4651  1.5740
  578MOL0     H78022  10.119   9.558  10.428  0.4557 -0.5950 -2.4123
  578MOL0     H78023  10.263   9.486  10.467  0.0015  0.2738 -0.4435
  578MOL0     H78024  10.304   9.662  10.227  1.0067 -0.0761  1.7528
  578MOL0     H78025  10.373   9.521  10.258  0.1048  0.1319 -1.0247
  578MOL0     H78026  10.035   9.359  10.077 -1.8630  2.6262 -0.2235
  578MOL0     H78027  10.655   9.729  10.461  0.3523  0.7937 -0.0168
  578MOL0     H78028  10.971   9.811  10.445 -0.4827  1.1223  0.9779
  578MOL0     H78029  10.942   9.682  10.564 -1.4730 -2.3996 -0.9795
  578MOL0     H78030  10.852   9.676  10.419 -0.5388 -4.6964  3.4447
  579MOL0     O78031  10.709   4.091   2.105 -0.0083  0.2692  0.0891
  579MOL0     C78032  10.786   4.155   2.038  0.6428  0.5721 -0.7121
  579MOL0     O78033  10.765   4.275   2.005  0.0279 -0.1648 -0.1865
  579MOL0     C78034  10.650   4.340   2.046  0.7302 -0.2954 -0.2135
  579MOL0     C78035  10.657   4.468   2.117 -0.0005 -1.1653  0.1549
  579MOL0     C78036  10.545   4.553   2.148 -0.2173 -0.0509  0.5236
  579MOL0     C78037  10.424   4.496   2.122  0.3787 -0.2238  0.1729
  579MOL0     O78038  10.308   4.569   2.142 -0.1425  0.3443 -0.0415
  579MOL0     C78039  10.307   4.691   2.228  0.9661  0.0146  0.4494
  579MOL0     C78040  10.162   4.735   2.222  1.1731 -0.1771  0.1425
  579MOL0     C78041  10.064   4.624   2.253 -0.8338  0.2598 -1.0500
  579MOL0     C78042   9.918   4.668   2.259  0.5953 -0.3218 -0.1097
  579MOL0     C78043   9.883   4.772   2.370 -0.0524  0.4180  0.9321
  579MOL0     C78044   9.910   4.739   2.515 -0.7310 -0.1739  0.1834
  579MOL0     C78045   9.884   4.869   2.596 -0.7123  0.0439 -0.8178
  579MOL0     C78046   9.734   4.896   2.606 -0.0148 -0.7383 -0.0876
  579MOL0     N78047   9.652   4.783   2.649 -0.2988 -0.3630  0.7426
  579MOL0     C78048   9.681   4.694   2.751 -0.4407 -0.2616  0.3541
  579MOL0     C78049   9.571   4.613   2.747  0.6409  0.1959 -0.9362
  579MOL0     C78050   9.547   4.499   2.851  0.0843 -0.7454  0.6796
  579MOL0     C78051   9.630   4.368   2.845  0.3839 -0.2976 -0.0554
  579MOL0     C78052   9.570   4.273   2.739  0.4036  0.7427 -0.5787
  579MOL0     C78053   9.525   4.332   2.604  0.8045  0.1386 -0.6268
  579MOL0     O78054   9.531   4.221   2.516  0.1790  0.2279 -0.2423
  579MOL0     C78055   9.650   4.205   2.447  0.4185 -0.2658  0.0991
  579MOL0     C78056   9.646   4.100   2.351 -0.5050 -0.3453 -0.3477
  579MOL0     C78057   9.769   4.072   2.280  0.3129  0.1314 -0.5318
  579MOL0     C78058   9.880   4.156   2.290  0.6060  0.3512 -0.0109
  579MOL0     C78059   9.986   4.156   2.189 -0.7187  1.3502 -0.4612
  579MOL0     O78060  10.027   4.034   2.133 -0.8645 -0.2688  0.1068
  579MOL0     C78061  10.116   4.047   2.028 -0.4730  0.3366  0.1217
  579MOL0     C78062  10.104   4.135   1.931 -0.0127 -0.7888 -0.1583
  579MOL0     C78063  10.184   4.147   1.822 -0.4205 -0.6097  0.1819
  579MOL0     C78064  10.304   4.072   1.816  0.3148 -0.5611 -1.2884
  579MOL0     O78065  10.396   4.072   1.716 -0.4240  0.4931  0.2333
  579MOL0     C78066  10.338   4.020   1.598  0.6122  0.8426  0.0510
  579MOL0     C78067  10.436   4.005   1.484 -0.1563  0.2477 -0.0989
  579MOL0     C78068  10.526   3.884   1.504 -0.5015  0.5022 -0.3478
  579MOL0     C78069  10.613   3.881   1.625 -0.1362 -0.4881 -0.1151
  579MOL0     C78070  10.695   3.761   1.627 -0.8461 -0.3978 -0.1345
  579MOL0     C78071  10.767   3.749   1.765  0.3433 -0.5571 -0.2620
  579MOL0     C78072  10.806   3.605   1.776 -0.0325  0.7338 -0.3342
  579MOL0     C78073  10.884   3.567   1.903 -0.1818  0.3826 -0.5611
  579MOL0    Cl78074  10.893   3.390   1.937  0.2154  0.2724  0.2854
  579MOL0     C78075  10.327   3.983   1.928  0.4624  0.3876  1.0567
  579MOL0     C78076  10.226   3.959   2.019 -0.3397 -0.3967 -0.4740
  579MOL0     O78077  10.046   4.261   2.186  0.1340 -0.6524  0.4225
  579MOL0     C78078   9.872   4.252   2.385  0.0531 -0.2576 -0.6999
  579MOL0     C78079   9.768   4.276   2.470  0.1819 -1.2781 -0.2088
  579MOL0     N78080   9.499   4.647   2.632  0.2820 -0.4146  0.0441
  579MOL0     N78081   9.544   4.755   2.577 -1.0003  0.6443  0.6914
  579MOL0     C78082  10.411   4.367   2.072 -0.0276 -0.1827 -0.1643
  579MOL0     C78083  10.519   4.291   2.028 -0.0524  0.0366  0.7665
  579MOL0     C78084  10.922   4.098   2.025 -0.5301 -0.8455  0.3427
  579MOL0     C78085  11.011   4.174   1.936  0.3946  0.6891 -0.3006
  579MOL0     C78086  11.142   4.122   1.917  0.8953 -0.2084 -0.1545
  579MOL0     C78087  11.193   4.021   1.994 -0.0271 -0.5496 -0.3321
  579MOL0     O78088  11.326   3.995   1.987 -0.4693 -0.4128 -0.3383
  579MOL0     C78089  11.390   3.905   2.084  0.4641 -0.6040  0.3849
  579MOL0     C78090  11.409   3.965   2.226  0.8065 -0.6348  0.5574
  579MOL0     C78091  11.478   4.110   2.234 -0.5798 -0.8449 -0.6445
  579MOL0     C78092  11.627   4.108   2.191  0.0846 -0.3728 -0.1770
  579MOL0     C78093  11.699   4.009   2.267 -0.6795 -1.0420  0.7902
  579MOL0     C78094  11.758   3.929   2.334  0.0889 -0.2156 -0.0223
  579MOL0     C78095  11.105   3.946   2.065 -0.0286 -0.2010  0.9312
  579MOL0     C78096  10.964   3.969   2.077 -0.0439  0.2809 -0.0560
  579MOL0     C78097  10.894   3.874   2.175 -0.3314  0.2990  0.6608
  579MOL0     H78098  10.758   4.501   2.142  0.4561 -2.2021 -0.2389
  579MOL0     H78099  10.559   4.646   2.201  0.2344  0.6183 -0.7303
  579MOL0     H78100  10.332   4.671   2.332 -1.2017 -0.3999  0.9260
  579MOL0     H78101  10.370   4.772   2.191  1.4367  0.2946  1.7965
  579MOL0     H78102  10.138   4.758   2.118 -2.6834 -1.3893  0.5922
  579MOL0     H78103  10.150   4.826   2.282 -1.3419 -0.5621  0.3604
  579MOL0     H78104  10.100   4.565   2.338  2.6129  2.2488 -0.9305
  579MOL0     H78105  10.069   4.554   2.170 -0.0490  1.5878 -2.1769
  579MOL0     H78106   9.882   4.721   2.170 -1.5880  1.1383  1.5086
  579MOL0     H78107   9.863   4.574   2.270  0.2303 -0.2478 -1.2111
  579MOL0     H78108   9.936   4.865   2.350 -2.3112  1.7468  0.7611
  579MOL0     H78109   9.779   4.801   2.350  0.6686  4.4607  2.0682
  579MOL0     H78110   9.854   4.652   2.552  1.7009 -0.7374  2.8817
  579MOL0     H78111  10.016   4.715   2.518 -0.7538 -0.4015 -0.6540
  579MOL0     H78112   9.941   4.956   2.563  1.3268 -0.1610  1.8010
  579MOL0     H78113   9.931   4.852   2.694 -1.6830  1.3989 -0.0821
  579MOL0     H78114   9.713   4.974   2.681 -0.3077 -0.2405 -0.6826
  579MOL0     H78115   9.701   4.938   2.511 -0.4828  3.6262  1.7718
  579MOL0     H78116   9.758   4.708   2.827  0.4821  2.8786 -0.9969
  579MOL0     H78117   9.572   4.539   2.949 -0.7431  0.9170  0.2537
  579MOL0     H78118   9.441   4.478   2.839  0.1021 -1.1764  1.2550
  579MOL0     H78119   9.739   4.378   2.838  0.4308 -1.3170 -1.2382
  579MOL0     H78120   9.610   4.314   2.938  0.4626 -0.3501 -0.0690
  579MOL0     H78121   9.476   4.235   2.780 -0.8820  2.7245 -1.5220
  579MOL0     H78122   9.647   4.196   2.736 -0.9392 -0.6156 -1.8528
  579MOL0     H78123   9.592   4.414   2.576  0.7779  0.8028  1.1109
  579MOL0     H78124   9.423   4.374   2.607  0.6340 -0.1550 -1.9354
  579MOL0     H78125   9.547   4.056   2.340  0.6180 -2.5744 -2.6193
  579MOL0     H78126   9.768   4.014   2.188 -1.8616  0.4474 -0.7598
  579MOL0     H78127  10.021   4.205   1.931  0.6362  0.2811 -4.2898
  579MOL0     H78128  10.154   4.211   1.739  2.9397 -1.2739 -1.7422
  579MOL0     H78129  10.300   3.920   1.622  1.4334  0.2776 -0.8874
  579MOL0     H78130  10.254   4.079   1.559 -0.4351 -0.8897 -0.4144
  579MOL0     H78131  10.391   3.999   1.385  0.7348 -2.9825 -0.4088
  579MOL0     H78132  10.498   4.094   1.474 -0.3491  0.2056 -1.8711
  579MOL0     H78133  10.467   3.792   1.498 -0.5370  0.5598 -0.8962
  579MOL0     H78134  10.590   3.872   1.416  2.8199  2.6816  1.5480
  579MOL0     H78135  10.551   3.872   1.715  1.7124  0.4079  1.3009
  579MOL0     H78136  10.675   3.970   1.616  0.6497 -1.2371 -4.5590
  579MOL0     H78137  10.770   3.769   1.548  0.1305 -2.1754  0.5546
  579MOL0     H78138  10.649   3.670   1.588 -1.4244  0.6019 -1.8921
  579MOL0     H78139  10.854   3.816   1.767 -0.4239  0.4554  1.4733
  579MOL0     H78140  10.700   3.774   1.848  1.1412 -1.3712  0.6428
  579MOL0     H78141  10.874   3.582   1.694  1.2968 -0.8421  1.1230
  579MOL0     H78142  10.718   3.540   1.774  0.7037 -0.2773 -0.4502
  579MOL0     H78143  10.987   3.603   1.908 -0.0794  0.0111  0.2630
  579MOL0     H78144  10.832   3.616   1.986  0.8767  0.2512  0.1962
  579MOL0     H78145  10.411   3.914   1.933  1.0602  1.1506  2.4060
  579MOL0     H78146  10.235   3.886   2.098  1.0387  0.0495 -0.1881
  579MOL0     H78147   9.955   4.320   2.402 -2.3823  2.2078  2.4152
  579MOL0     H78148   9.770   4.352   2.548 -1.5300 -0.2685 -1.0803
  579MOL0     H78149  10.315   4.320   2.051 -0.2560 -0.0265  0.5013
  579MOL0     H78150  10.492   4.206   1.967  1.6795  0.0589 -0.0851
  579MOL0     H78151  10.979   4.266   1.888  0.1613  0.5260 -0.4606
  579MOL0     H78152  11.207   4.179   1.851 -0.2172 -0.3012 -1.3826
  579MOL0     H78153  11.489   3.877   2.047  2.3804  2.2988  2.8707
  579MOL0     H78154  11.345   3.805   2.075 -0.5729 -0.1970  0.8142
  579MOL0     H78155  11.462   3.889   2.284  0.0950 -0.6739  1.1745
  579MOL0     H78156  11.314   3.985   2.277  1.9921  1.0616  2.2229
  579MOL0     H78157  11.470   4.153   2.334  3.8342 -1.2201  0.0816
  579MOL0     H78158  11.431   4.183   2.168  0.1966  0.9346  0.6675
  579MOL0     H78159  11.632   4.087   2.084 -1.6029 -0.0664 -0.3360
  579MOL0     H78160  11.667   4.207   2.212 -3.0189  1.0981 -0.7316
  579MOL0     H78161  11.816   3.866   2.399  1.1526 -0.3663 -1.0696
  579MOL0     H78162  11.140   3.858   2.118  1.0398 -1.8593 -2.2818
  579MOL0     H78163  10.929   3.771   2.186 -3.6053 -0.6501  4.5492
  579MOL0     H78164  10.912   3.913   2.275  1.0726  0.1526  0.4809
  579MOL0     H78165  10.786   3.867   2.159 -0.2958  1.7293 -0.3854
  580MOL0     O78166   1.696   5.698   1.309 -0.3240  0.0735 -0.5510
  580MOL0     C78167   1.733   5.579   1.291  0.7258  1.0904  0.4525
  580MOL0     O78168   1.859   5.528   1.295  1.0184 -0.4607 -0.1459
  580MOL0     C78169   1.955   5.615   1.320 -0.4699  0.1612 -0.3486
  580MOL0     C78170   1.963   5.729   1.247 -0.6961 -0.1417 -0.3757
  580MOL0     C78171   2.069   5.819   1.268  0.2753 -0.4981 -0.2700
  580MOL0     C78172   2.160   5.790   1.370  0.9825  0.8396  0.0224
  580MOL0     O78173   2.242   5.888   1.405 -0.1706 -0.1877 -0.3469
  580MOL0     C78174   2.264   5.915   1.549 -0.5198  0.8838 -0.0353
  580MOL0     C78175   2.246   6.057   1.601 -0.1394 -0.4259 -0.4910
  580MOL0     C78176   2.123   6.130   1.533 -0.2284  0.1227  0.5396
  580MOL0     C78177   2.163   6.211   1.411 -0.4343 -0.0807 -0.2850
  580MOL0     C78178   2.248   6.341   1.444  0.7887 -0.5630 -0.2090
  580MOL0     C78179   2.190   6.437   1.547 -0.1379 -0.1958  0.3593
  580MOL0     C78180   2.301   6.535   1.591  0.3306 -0.5969 -0.3353
  580MOL0     C78181   2.420   6.479   1.657  0.0443 -0.4941 -0.6380
  580MOL0     N78182   2.509   6.589   1.708 -0.1339  0.4997 -0.2108
  580MOL0     C78183   2.585   6.669   1.630  0.8285 -0.4984 -1.0311
  580MOL0     C78184   2.662   6.743   1.715  0.2805  0.1750 -0.1440
  580MOL0     C78185   2.756   6.867   1.698  0.7963  0.5679  1.2901
  580MOL0     C78186   2.869   6.836   1.603  0.0343  0.0555  0.5778
  580MOL0     C78187   2.951   6.712   1.643 -0.2057  0.2551 -0.3593
  580MOL0     C78188   3.105   6.740   1.609 -0.0017  0.2865  0.5751
  580MOL0     O78189   3.143   6.715   1.478 -0.8183 -0.1191  0.3992
  580MOL0     C78190   3.218   6.807   1.412  1.1808  1.5119 -0.6457
  580MOL0     C78191   3.177   6.836   1.285 -0.3943  0.5974 -0.5562
  580MOL0     C78192   3.256   6.911   1.195  0.9280 -0.2530  0.0184
  580MOL0     C78193   3.359   6.992   1.258  1.1053 -0.2975 -0.2454
  580MOL0     C78194   3.433   7.088   1.175  0.0982 -0.5963 -0.0193
  580MOL0     O78195   3.506   7.188   1.237  0.5243  0.2384  0.3850
  580MOL0     C78196   3.577   7.275   1.153  0.3042  0.7163  0.0556
  580MOL0     C78197   3.715   7.280   1.184 -0.4843  0.0363 -0.6232
  580MOL0     C78198   3.797   7.374   1.116 -0.4090 -0.2872  0.5207
  580MOL0     C78199   3.741   7.460   1.028 -0.4046  0.1681  0.3788
  580MOL0     O78200   3.829   7.548   0.961  0.3631  0.9990  0.7184
  580MOL0     C78201   3.847   7.504   0.821 -0.1081  0.1568  0.5763
  580MOL0     C78202   3.962   7.578   0.749 -0.1400 -0.7949 -0.7142
  580MOL0     C78203   4.088   7.572   0.840 -0.9389 -1.0713 -0.3442
  580MOL0     C78204   4.215   7.615   0.754 -0.4556  0.5204 -0.1296
  580MOL0     C78205   4.333   7.606   0.856 -0.4072  0.1953  0.2242
  580MOL0     C78206   4.462   7.672   0.791  0.2428  1.1276 -0.3928
  580MOL0     C78207   4.579   7.664   0.895  0.9550  0.4069 -0.2906
  580MOL0     C78208   4.709   7.690   0.820 -0.0849  1.3834 -0.0715
  580MOL0    Cl78209   4.837   7.733   0.936 -0.6746 -0.6050 -0.7175
  580MOL0     C78210   3.603   7.452   0.987  0.4597  0.0841  0.0123
  580MOL0     C78211   3.518   7.362   1.057 -0.2170 -0.4302  0.3478
  580MOL0     O78212   3.430   7.076   1.055  1.9384 -0.1729  0.5894
  580MOL0     C78213   3.393   6.964   1.391  0.5045  0.0155  0.0155
  580MOL0     C78214   3.322   6.872   1.478  0.5794 -0.6483 -0.0885
  580MOL0     N78215   2.643   6.690   1.840  0.2070 -0.3015 -0.5533
  580MOL0     N78216   2.549   6.596   1.840  0.3146 -0.3217 -0.3645
  580MOL0     C78217   2.160   5.662   1.435  0.2855 -0.0973  0.0816
  580MOL0     C78218   2.056   5.573   1.407 -0.1964  0.2921  0.2588
  580MOL0     C78219   1.619   5.487   1.248  0.7342  0.6517 -0.3667
  580MOL0     C78220   1.517   5.542   1.164 -0.6308 -0.0629  0.4222
  580MOL0     C78221   1.414   5.461   1.113  0.3273 -0.3268  0.0810
  580MOL0     C78222   1.421   5.321   1.125  0.2546 -0.7980 -0.2733
  580MOL0     O78223   1.337   5.243   1.041  0.1703 -0.3933 -0.3152
  580MOL0     C78224   1.350   5.100   1.054  0.3186 -0.1848 -0.3232
  580MOL0     C78225   1.480   5.041   0.997 -1.0252 -0.0182  1.1827
  580MOL0     C78226   1.539   5.069   0.851  0.1775 -0.3231 -0.2682
  580MOL0     C78227   1.413   5.057   0.763 -0.6008  0.5801 -0.4955
  580MOL0     C78228   1.462   5.079   0.622 -0.0556 -0.4756  0.5829
  580MOL0     C78229   1.502   5.108   0.509  0.2581  0.8175 -0.8270
  580MOL0     C78230   1.511   5.268   1.208 -0.2472 -0.4062  0.2215
  580MOL0     C78231   1.612   5.346   1.277  0.1642 -0.1286  0.5690
  580MOL0     C78232   1.705   5.275   1.367 -0.0964 -0.4326  0.2521
  580MOL0     H78233   1.891   5.762   1.172 -1.3747  3.5244  1.6640
  580MOL0     H78234   2.087   5.911   1.213 -1.1631  0.0683  0.1635
  580MOL0     H78235   2.201   5.849   1.608 -2.0712  1.1134 -1.3764
  580MOL0     H78236   2.371   5.895   1.565 -0.5767  1.4083  1.0832
  580MOL0     H78237   2.337   6.118   1.594  1.2592 -2.5770 -2.5982
  580MOL0     H78238   2.235   6.046   1.709 -1.0893 -0.9832 -0.6336
  580MOL0     H78239   2.064   6.185   1.607 -1.7687  0.2833 -0.7563
  580MOL0     H78240   2.055   6.056   1.489  1.1000 -2.2316  2.2397
  580MOL0     H78241   2.223   6.142   1.351 -0.0461 -2.2936  2.3991
  580MOL0     H78242   2.071   6.242   1.361 -2.1553  0.9776  3.2197
  580MOL0     H78243   2.330   6.296   1.500 -1.6892 -2.1866  2.3880
  580MOL0     H78244   2.283   6.394   1.355 -2.5681  1.8840 -0.2620
  580MOL0     H78245   2.109   6.493   1.501 -0.2012 -1.4293 -1.1402
  580MOL0     H78246   2.157   6.378   1.632  0.5176 -0.0719  0.7085
  580MOL0     H78247   2.259   6.602   1.667  0.6092  0.6756 -1.2736
  580MOL0     H78248   2.328   6.592   1.501  1.4026 -0.9675 -0.2604
  580MOL0     H78249   2.384   6.424   1.744  0.1949  1.9486  1.0462
  580MOL0     H78250   2.488   6.419   1.596 -1.2733 -1.0949 -1.5797
  580MOL0     H78251   2.566   6.676   1.523 -1.3032 -2.5238 -0.8566
  580MOL0     H78252   2.693   6.945   1.653  3.8478  1.9425 -0.9777
  580MOL0     H78253   2.795   6.889   1.797 -1.3098 -0.7976  2.4944
  580MOL0     H78254   2.812   6.816   1.512  1.7746 -0.4018 -0.4479
  580MOL0     H78255   2.925   6.924   1.571 -2.0007  1.7576  1.4303
  580MOL0     H78256   2.914   6.620   1.596 -1.0494 -1.3862  3.2304
  580MOL0     H78257   2.968   6.690   1.748 -0.2424 -1.5319 -0.6990
  580MOL0     H78258   3.161   6.681   1.682 -0.5977  0.5829  1.2750
  580MOL0     H78259   3.121   6.846   1.627 -2.3516  0.4895  1.7962
  580MOL0     H78260   3.090   6.777   1.260 -1.2892  1.7019 -0.1281
  580MOL0     H78261   3.216   6.929   1.096 -1.0668  1.3369  1.0457
  580MOL0     H78262   3.774   7.213   1.246 -1.6121 -1.0577 -0.6864
  580MOL0     H78263   3.904   7.385   1.131 -0.4313 -0.4616  0.8365
  580MOL0     H78264   3.863   7.396   0.825 -1.8331 -0.1626 -0.3658
  580MOL0     H78265   3.758   7.531   0.764  0.7396  3.0138  0.4514
  580MOL0     H78266   3.981   7.522   0.657  1.1332 -0.4882 -0.6494
  580MOL0     H78267   3.939   7.683   0.729  2.9132 -0.0684 -0.8279
  580MOL0     H78268   4.068   7.634   0.928 -0.9149  0.3658 -1.3206
  580MOL0     H78269   4.115   7.468   0.861 -1.6066 -1.3296 -0.7467
  580MOL0     H78270   4.204   7.714   0.708  0.5541  2.1705  2.8919
  580MOL0     H78271   4.225   7.536   0.679 -0.7642  0.5582 -0.2103
  580MOL0     H78272   4.354   7.501   0.877  1.9682 -0.2545 -3.4187
  580MOL0     H78273   4.306   7.657   0.949 -1.4569  2.5522 -1.2889
  580MOL0     H78274   4.484   7.606   0.707  1.4575  1.2129 -0.1714
  580MOL0     H78275   4.442   7.774   0.758 -2.0873  0.4598 -1.2009
  580MOL0     H78276   4.589   7.570   0.951  2.6881 -0.9514 -2.6682
  580MOL0     H78277   4.558   7.741   0.970 -0.8668  0.9933 -1.3599
  580MOL0     H78278   4.744   7.602   0.766  0.0769  2.4524 -1.8072
  580MOL0     H78279   4.686   7.774   0.753  1.7219  0.8532 -1.4537
  580MOL0     H78280   3.563   7.517   0.910 -2.3550 -0.7368  0.6697
  580MOL0     H78281   3.412   7.348   1.037 -0.3281  0.2484  0.4233
  580MOL0     H78282   3.482   7.017   1.424  1.0882 -0.6370 -0.4634
  580MOL0     H78283   3.360   6.857   1.579 -0.9161 -0.9957  0.4413
  580MOL0     H78284   2.218   5.634   1.522 -1.2979 -3.8795  0.1316
  580MOL0     H78285   2.045   5.472   1.446  1.9730  0.0313  0.3226
  580MOL0     H78286   1.520   5.647   1.138 -4.4177  0.0143 -0.2359
  580MOL0     H78287   1.348   5.502   1.038  0.7457  2.0064  0.8839
  580MOL0     H78288   1.270   5.045   1.004 -0.7306 -0.4247  1.5617
  580MOL0     H78289   1.318   5.065   1.152 -1.8569  0.1813 -0.8489
  580MOL0     H78290   1.489   4.935   1.019  0.7566  0.3436  2.4109
  580MOL0     H78291   1.564   5.061   1.064 -0.7187 -1.6339  1.3240
  580MOL0     H78292   1.608   4.993   0.815 -0.1142 -0.6987 -0.0414
  580MOL0     H78293   1.590   5.166   0.850  0.6771 -0.5573  0.7705
  580MOL0     H78294   1.377   4.955   0.780  0.9558  0.3266  1.6442
  580MOL0     H78295   1.330   5.126   0.782  0.3820  1.8849 -0.8473
  580MOL0     H78296   1.527   5.111   0.405 -0.8981 -2.2434 -1.2991
  580MOL0     H78297   1.506   5.160   1.219  1.2644 -0.8048 -2.3536
  580MOL0     H78298   1.753   5.197   1.306  1.3792  0.8031 -0.2257
  580MOL0     H78299   1.782   5.336   1.416 -0.7948  0.2192  0.5617
  580MOL0     H78300   1.640   5.233   1.445 -0.8782 -1.3256 -0.8546
  581MOL0     O78301   8.618   9.009   1.459  1.1170 -0.1046 -0.4828
  581MOL0     C78302   8.609   8.950   1.569 -0.0115  1.4680 -0.0207
  581MOL0     O78303   8.680   8.974   1.674 -1.4607 -0.3203 -1.1020
  581MOL0     C78304   8.803   9.034   1.642 -0.3741  1.3399  0.6817
  581MOL0     C78305   8.832   9.152   1.702  0.6382 -0.3406 -0.2972
  581MOL0     C78306   8.947   9.223   1.681  0.6832  0.9810 -0.9415
  581MOL0     C78307   9.050   9.172   1.595  0.2095  0.8785 -0.4047
  581MOL0     O78308   9.166   9.239   1.574 -0.2578 -0.2585 -0.7733
  581MOL0     C78309   9.253   9.210   1.456 -0.9850 -0.7007 -0.4383
  581MOL0     C78310   9.342   9.338   1.431  0.5167  0.8716 -0.1923
  581MOL0     C78311   9.424   9.386   1.547  0.9311  0.4323  0.9500
  581MOL0     C78312   9.505   9.511   1.513  0.4307  0.3911 -0.0690
  581MOL0     C78313   9.607   9.552   1.624  0.5034 -0.2244  0.0039
  581MOL0     C78314   9.722   9.452   1.647 -0.2539  0.3262  0.0855
  581MOL0     C78315   9.870   9.497   1.668 -0.8910  0.4352 -0.4876
  581MOL0     C78316   9.926   9.611   1.602 -0.4000 -1.3013  0.3327
  581MOL0     N78317  10.058   9.639   1.659  0.2605  0.3238 -0.5151
  581MOL0     C78318  10.169   9.643   1.580 -0.5678 -0.1701  0.2263
  581MOL0     C78319  10.258   9.725   1.645 -0.2658 -0.4439  0.0580
  581MOL0     C78320  10.394   9.775   1.593 -0.4278  0.3244 -0.0055
  581MOL0     C78321  10.377   9.888   1.479 -1.3467  1.1737 -0.6546
  581MOL0     C78322  10.382  10.031   1.542 -0.1644  0.2936 -0.1306
  581MOL0     C78323  10.394  10.134   1.437 -0.1109 -0.3566 -0.4974
  581MOL0     O78324  10.525  10.154   1.381  0.0247 -0.1510  0.6876
  581MOL0     C78325  10.610  10.243   1.432  0.4357 -1.0071  0.3376
  581MOL0     C78326  10.736  10.236   1.386 -0.6980 -0.2952 -0.2125
  581MOL0     C78327  10.830  10.327   1.442  0.2651 -0.4263  0.6104
  581MOL0     C78328  10.799  10.418   1.538 -0.0781 -0.1882 -0.8682
  581MOL0     C78329  10.896  10.517   1.596 -0.5099  0.1738 -0.1803
  581MOL0     O78330  10.843  10.616   1.673 -0.0242  0.3426  0.7551
  581MOL0     C78331  10.916  10.722   1.712 -1.1483 -0.6514 -0.2984
  581MOL0     C78332  11.045  10.707   1.765 -1.2055  0.0820 -0.7111
  581MOL0     C78333  11.122  10.810   1.815 -0.1585 -0.5676 -0.7810
  581MOL0     C78334  11.079  10.944   1.798 -0.6741  0.4032 -0.1672
  581MOL0     O78335  11.154  11.056   1.841  0.0467  0.1314  0.3516
  581MOL0     C78336  11.299  11.055   1.838  0.2606  0.0863  0.2161
  581MOL0     C78337  11.341  11.119   1.703  0.3615  1.0661  0.1789
  581MOL0     C78338  11.277  11.253   1.668 -0.2914 -0.2891  0.6822
  581MOL0     C78339  11.149  11.261   1.591  0.5763  0.3165  0.2764
  581MOL0     C78340  11.095  11.403   1.590  1.3264 -0.3129 -0.2521
  581MOL0     C78341  11.191  11.512   1.535  0.1630  0.0288  0.4253
  581MOL0     C78342  11.159  11.654   1.584 -0.5058 -1.2068  0.1302
  581MOL0     C78343  11.269  11.759   1.558 -0.1585  0.8609  1.0078
  581MOL0    Cl78344  11.422  11.719   1.634  0.0797  0.1702 -0.3495
  581MOL0     C78345  10.947  10.954   1.755 -0.4649 -0.7859 -0.3477
  581MOL0     C78346  10.862  10.848   1.712  0.4691  0.3527  0.7860
  581MOL0     O78347  11.014  10.506   1.562  0.5577 -0.0524  0.0245
  581MOL0     C78348  10.672  10.425   1.584 -0.5477  0.0781 -0.0503
  581MOL0     C78349  10.577  10.341   1.526  0.6866 -0.3360 -0.4014
  581MOL0     N78350  10.200   9.778   1.756 -0.2910 -0.6463  1.2047
  581MOL0     N78351  10.081   9.727   1.764  0.3404 -0.2207 -0.9444
  581MOL0     C78352   9.021   9.046   1.542 -0.2765  0.1372 -0.6332
  581MOL0     C78353   8.905   8.968   1.564 -0.8785  0.2380 -0.6956
  581MOL0     C78354   8.499   8.846   1.584  0.3256  0.8024  0.6340
  581MOL0     C78355   8.367   8.853   1.531 -0.2792 -0.3169  0.0925
  581MOL0     C78356   8.280   8.744   1.516 -0.4225  0.1152  0.0675
  581MOL0     C78357   8.320   8.612   1.550 -0.1175 -0.1882 -0.7165
  581MOL0     O78358   8.246   8.499   1.527 -0.2262 -0.7852 -0.0383
  581MOL0     C78359   8.321   8.398   1.469 -1.1652  0.3237  1.2253
  581MOL0     C78360   8.221   8.300   1.414 -0.7579  0.1410 -0.5177
  581MOL0     C78361   8.288   8.183   1.348  0.0539  0.4880  0.0473
  581MOL0     C78362   8.192   8.103   1.271  0.5677  0.6559  1.2109
  581MOL0     C78363   8.089   8.032   1.351 -0.0270 -0.4520 -0.1979
  581MOL0     C78364   7.996   7.970   1.396  1.1400 -0.7611  0.8421
  581MOL0     C78365   8.448   8.603   1.606  0.2339 -0.0782  0.1470
  581MOL0     C78366   8.537   8.715   1.626 -0.1569 -0.0873 -0.2488
  581MOL0     C78367   8.671   8.698   1.699 -0.6868  0.2613  0.5268
  581MOL0     H78368   8.757   9.191   1.770 -0.5059  0.9294 -2.1955
  581MOL0     H78369   8.961   9.309   1.745  1.4512 -0.5214  1.0141
  581MOL0     H78370   9.319   9.125   1.477 -0.2814  0.3899  2.0040
  581MOL0     H78371   9.197   9.190   1.364  0.3888 -0.7242 -1.3119
  581MOL0     H78372   9.282   9.423   1.396  0.4233  1.9878  2.5031
  581MOL0     H78373   9.404   9.310   1.345  0.7991  1.1843 -0.0885
  581MOL0     H78374   9.491   9.303   1.573  3.1960  1.5523 -0.9393
  581MOL0     H78375   9.358   9.410   1.631 -0.2248 -3.5087  1.3845
  581MOL0     H78376   9.549   9.505   1.413 -0.5308 -1.2212 -0.4397
  581MOL0     H78377   9.427   9.586   1.498 -1.4269 -1.5541 -0.5732
  581MOL0     H78378   9.654   9.647   1.594 -0.2307 -0.1810 -1.0674
  581MOL0     H78379   9.548   9.570   1.714  0.0963 -2.2282  0.1804
  581MOL0     H78380   9.693   9.394   1.736  3.4520  0.4351  1.5279
  581MOL0     H78381   9.739   9.376   1.570  2.0588 -1.0784  1.8704
  581MOL0     H78382   9.937   9.418   1.633 -1.3946 -0.8892  1.4042
  581MOL0     H78383   9.884   9.512   1.776 -0.6739  0.9757 -0.5861
  581MOL0     H78384   9.929   9.601   1.493 -1.7198  0.4056  0.0950
  581MOL0     H78385   9.864   9.700   1.618  0.1286  0.2309 -4.6029
  581MOL0     H78386  10.180   9.612   1.476 -1.2532  0.8048 -0.1566
  581MOL0     H78387  10.453   9.824   1.670 -1.4095 -1.6820  2.1437
  581MOL0     H78388  10.468   9.698   1.572  1.4714  1.2230  2.8393
  581MOL0     H78389  10.460   9.876   1.408 -0.9511  2.1020 -0.3646
  581MOL0     H78390  10.284   9.884   1.422 -0.2490  3.7561 -2.8312
  581MOL0     H78391  10.467  10.038   1.610 -1.0599 -2.4690  1.4165
  581MOL0     H78392  10.290  10.050   1.599  0.4721 -2.5951  2.0667
  581MOL0     H78393  10.355  10.223   1.488 -0.9749 -0.6699 -0.5995
  581MOL0     H78394  10.313  10.110   1.368  0.2929 -1.9656 -0.4558
  581MOL0     H78395  10.782  10.164   1.319  2.1761  1.6347 -0.5001
  581MOL0     H78396  10.932  10.323   1.404  0.8396 -0.2990  2.0916
  581MOL0     H78397  11.090  10.608   1.764 -0.1910  0.4688  1.2390
  581MOL0     H78398  11.216  10.785   1.865 -2.5004 -1.3833  3.7895
  581MOL0     H78399  11.340  11.108   1.925 -0.6585 -0.5466  1.0646
  581MOL0     H78400  11.346  10.957   1.833  1.3564  0.4876  1.7146
  581MOL0     H78401  11.449  11.137   1.707  1.1565 -2.7938  0.2487
  581MOL0     H78402  11.326  11.045   1.624  0.2294 -0.0635  1.2442
  581MOL0     H78403  11.260  11.304   1.763 -0.3205  1.2696 -0.1282
  581MOL0     H78404  11.359  11.307   1.620  1.6542 -2.9933  0.7016
  581MOL0     H78405  11.072  11.199   1.639  0.7833 -0.6112 -0.5672
  581MOL0     H78406  11.173  11.234   1.488  1.3668  4.2180 -0.7321
  581MOL0     H78407  11.066  11.446   1.686  0.6469  3.6996 -2.0454
  581MOL0     H78408  11.000  11.416   1.536  1.5711  4.4685 -0.0046
  581MOL0     H78409  11.295  11.505   1.566  0.2213  0.9128  0.4752
  581MOL0     H78410  11.197  11.504   1.426  0.2185  1.8149  0.2558
  581MOL0     H78411  11.131  11.678   1.687  1.7745  0.2890  0.4689
  581MOL0     H78412  11.072  11.684   1.524  0.6149  0.7660 -0.6054
  581MOL0     H78413  11.300  11.771   1.454  0.8117  1.6236  1.3699
  581MOL0     H78414  11.235  11.858   1.587 -0.9541  1.6196 -2.0975
  581MOL0     H78415  10.895  11.048   1.771 -1.8662 -1.7177  0.8802
  581MOL0     H78416  10.763  10.865   1.670  1.2553  0.7574 -0.9955
  581MOL0     H78417  10.634  10.491   1.662 -0.0100 -1.1046  1.2577
  581MOL0     H78418  10.478  10.371   1.559  0.7769  0.5056 -0.8541
  581MOL0     H78419   9.095   9.005   1.473  0.9810 -2.4994  2.0250
  581MOL0     H78420   8.887   8.866   1.533 -1.0428 -0.7740  2.3647
  581MOL0     H78421   8.335   8.943   1.480 -1.0668 -1.0948 -0.8203
  581MOL0     H78422   8.179   8.777   1.493  0.0311  2.3699  1.0642
  581MOL0     H78423   8.394   8.355   1.539 -1.3732 -0.8038  0.7758
  581MOL0     H78424   8.374   8.432   1.380 -0.6454 -1.4051  0.8313
  581MOL0     H78425   8.159   8.351   1.340 -0.8095  0.4801 -0.2434
  581MOL0     H78426   8.151   8.264   1.490 -3.5534  1.2926 -2.3853
  581MOL0     H78427   8.332   8.112   1.419 -1.5042 -0.6791 -0.0929
  581MOL0     H78428   8.370   8.217   1.285  0.6488 -0.1961  0.4309
  581MOL0     H78429   8.147   8.159   1.188  2.2171  1.7179  0.9822
  581MOL0     H78430   8.253   8.031   1.217  2.2155  2.1539  0.9819
  581MOL0     H78431   7.908   7.944   1.451  1.6034 -0.8685  1.5377
  581MOL0     H78432   8.491   8.506   1.628  5.1700  1.3236 -2.0328
  581MOL0     H78433   8.675   8.599   1.745  0.2290 -0.9251 -1.9333
  581MOL0     H78434   8.755   8.704   1.628  1.3764  1.1565  2.9166
  581MOL0     H78435   8.664   8.772   1.779  0.3761 -1.0333  1.8763
  582MOL0     O78436   1.543   3.888   6.784 -0.2420  0.1351 -0.2793
  582MOL0     C78437   1.603   3.780   6.772 -0.3426  0.0882  0.5611
  582MOL0     O78438   1.721   3.764   6.715 -0.3909  0.1396  0.7700
  582MOL0     C78439   1.799   3.872   6.679 -0.3274 -0.4721 -0.0684
  582MOL0     C78440   1.936   3.867   6.707 -0.8757 -0.3439  0.0487
  582MOL0     C78441   2.013   3.979   6.686  0.2139 -0.2729  0.9284
  582MOL0     C78442   1.971   4.093   6.625 -0.1347 -0.2287 -0.1815
  582MOL0     O78443   2.040   4.209   6.603  0.1910 -0.3397  0.5209
  582MOL0     C78444   2.178   4.190   6.575  0.2809  0.1342  0.3218
  582MOL0     C78445   2.216   4.326   6.513 -0.5282  0.6402 -0.5888
  582MOL0     C78446   2.360   4.299   6.465  0.3796  0.0662  0.1842
  582MOL0     C78447   2.418   4.421   6.381 -0.0482  0.2525 -0.7697
  582MOL0     C78448   2.562   4.379   6.328  0.4323  0.2616 -0.9102
  582MOL0     C78449   2.614   4.495   6.240  0.1133 -0.2689 -0.0206
  582MOL0     C78450   2.732   4.450   6.153  0.4398  0.5124  0.0435
  582MOL0     C78451   2.747   4.550   6.043  0.0257  0.0244  0.0312
  582MOL0     N78452   2.757   4.685   6.102  0.3561 -0.1248 -0.0882
  582MOL0     C78453   2.654   4.783   6.100 -0.2994 -0.3152  0.1166
  582MOL0     C78454   2.690   4.876   6.193 -0.0524  0.1170 -0.5775
  582MOL0     C78455   2.618   5.009   6.203  0.9927 -0.4172  0.1834
  582MOL0     C78456   2.606   5.054   6.345  0.7269 -0.4339 -1.0144
  582MOL0     C78457   2.545   4.962   6.461 -0.6598 -0.4110 -0.5565
  582MOL0     C78458   2.394   4.933   6.452 -0.5767 -0.3596  0.8341
  582MOL0     O78459   2.369   4.842   6.344  0.0925 -0.2298 -0.5634
  582MOL0     C78460   2.258   4.760   6.348  0.4672 -0.6213  0.4004
  582MOL0     C78461   2.224   4.695   6.225 -1.4657  0.1005  0.1127
  582MOL0     C78462   2.117   4.610   6.215  0.1413  0.5869 -0.1802
  582MOL0     C78463   2.027   4.593   6.323  0.2134 -0.9843  0.2743
  582MOL0     C78464   1.894   4.532   6.319  1.2599  0.0794  0.3840
  582MOL0     O78465   1.825   4.495   6.424 -0.5044 -0.2456 -0.7068
  582MOL0     C78466   1.726   4.405   6.408 -0.6501  0.4323  1.3463
  582MOL0     C78467   1.734   4.284   6.320  0.5877 -0.3722 -0.4631
  582MOL0     C78468   1.623   4.194   6.330 -0.7273  0.2798  0.1818
  582MOL0     C78469   1.513   4.221   6.409  0.2297  0.0717  0.6942
  582MOL0     O78470   1.430   4.112   6.430 -0.4957 -0.8128  0.0417
  582MOL0     C78471   1.321   4.122   6.524  0.1014 -0.2542  0.0994
  582MOL0     C78472   1.252   3.982   6.524 -0.2223 -0.0961  0.3132
  582MOL0     C78473   1.125   3.975   6.610 -0.1206 -0.4187  0.0821
  582MOL0     C78474   1.063   3.835   6.582 -0.6040 -0.8242  0.1576
  582MOL0     C78475   0.944   3.791   6.666 -0.2907 -0.7434 -0.9441
  582MOL0     C78476   0.969   3.750   6.812 -0.3648  0.0943 -0.2690
  582MOL0     C78477   0.847   3.721   6.904  0.2057  0.3957 -0.1546
  582MOL0     C78478   0.765   3.855   6.936 -0.1756  0.4716  0.4609
  582MOL0    Cl78479   0.601   3.803   6.995 -0.2677 -0.5848  0.0046
  582MOL0     C78480   1.501   4.343   6.468 -0.1043 -0.5461  0.4018
  582MOL0     C78481   1.609   4.433   6.478  0.1520  0.4870  0.0313
  582MOL0     O78482   1.855   4.505   6.203  0.2078 -0.7490  0.5176
  582MOL0     C78483   2.069   4.647   6.446  0.3836 -0.3463  0.6998
  582MOL0     C78484   2.184   4.725   6.457 -0.5388 -1.3432  0.0469
  582MOL0     N78485   2.818   4.838   6.245  0.4464 -0.0657 -0.4485
  582MOL0     N78486   2.850   4.728   6.184  0.2271 -0.7613 -0.3647
  582MOL0     C78487   1.833   4.093   6.602 -0.1523 -0.4697  0.3273
  582MOL0     C78488   1.747   3.989   6.622  0.2078 -0.3469  0.2734
  582MOL0     C78489   1.547   3.659   6.832 -0.5068  0.3997  0.3830
  582MOL0     C78490   1.628   3.547   6.846  0.8156  0.0898  0.0467
  582MOL0     C78491   1.574   3.428   6.895 -0.3896  0.8164  0.8482
  582MOL0     C78492   1.451   3.421   6.948  0.0082 -0.5696  0.6992
  582MOL0     O78493   1.385   3.314   6.990 -0.2168  0.8882  0.1630
  582MOL0     C78494   1.395   3.195   6.907 -0.7569 -0.4117 -0.3261
  582MOL0     C78495   1.277   3.105   6.929 -0.0099  0.9334 -1.0034
  582MOL0     C78496   1.154   3.186   6.888 -0.0806 -0.4466  0.7532
  582MOL0     C78497   1.022   3.104   6.873 -0.2476  0.1586 -1.0569
  582MOL0     C78498   1.024   2.996   6.774  0.6265  0.5641 -0.3094
  582MOL0     C78499   0.999   2.904   6.695  0.0491 -0.2233 -0.1014
  582MOL0     C78500   1.375   3.535   6.952  0.1875 -0.4528  0.2420
  582MOL0     C78501   1.420   3.654   6.896  1.0897 -0.8455  0.7876
  582MOL0     C78502   1.321   3.780   6.895 -0.3564  0.7387 -0.2333
  582MOL0     H78503   1.983   3.779   6.749  0.0669 -0.6746 -1.5945
  582MOL0     H78504   2.115   3.969   6.719  0.8111  3.4472  0.6728
  582MOL0     H78505   2.235   4.184   6.669  0.2118 -0.9610  0.3139
  582MOL0     H78506   2.196   4.108   6.505 -0.3630 -0.9561  1.3923
  582MOL0     H78507   2.207   4.397   6.595  0.0753  1.3024 -1.0757
  582MOL0     H78508   2.154   4.360   6.429 -1.6900  1.8299  0.7116
  582MOL0     H78509   2.356   4.214   6.396 -0.1574  0.2321  0.0045
  582MOL0     H78510   2.427   4.277   6.548 -1.2120  0.4672  1.6505
  582MOL0     H78511   2.346   4.420   6.299 -0.1775  0.3485 -0.6570
  582MOL0     H78512   2.419   4.510   6.445  0.0794 -1.1993  1.3638
  582MOL0     H78513   2.630   4.351   6.409  0.1691 -0.1616 -0.8308
  582MOL0     H78514   2.549   4.289   6.268  0.2518 -1.0690  1.0345
  582MOL0     H78515   2.527   4.531   6.185 -1.0830 -0.8538  1.4161
  582MOL0     H78516   2.647   4.572   6.310  1.0624  0.4499 -1.2185
  582MOL0     H78517   2.701   4.353   6.112  2.7274 -0.3341  0.1714
  582MOL0     H78518   2.826   4.436   6.207 -0.6267 -4.8593  1.0562
  582MOL0     H78519   2.844   4.531   5.996  1.3981  1.4613  2.0691
  582MOL0     H78520   2.666   4.539   5.971  1.5645 -0.8155 -1.6402
  582MOL0     H78521   2.560   4.782   6.045  0.3517 -0.8128 -1.0122
  582MOL0     H78522   2.669   5.079   6.137  1.2715  1.3093  2.1478
  582MOL0     H78523   2.517   4.994   6.163  0.5512 -0.7885  1.3933
  582MOL0     H78524   2.704   5.093   6.375  0.4287  1.5795 -2.4312
  582MOL0     H78525   2.544   5.145   6.340  2.6371  1.0544  0.5279
  582MOL0     H78526   2.565   5.006   6.559  2.1998 -3.5448  0.4793
  582MOL0     H78527   2.594   4.864   6.463  2.2481  0.9351 -0.5319
  582MOL0     H78528   2.349   5.028   6.423  3.8770  1.3874 -1.3824
  582MOL0     H78529   2.356   4.901   6.549 -0.3270  0.5577  1.2396
  582MOL0     H78530   2.300   4.705   6.148  0.0095  4.0615  1.8410
  582MOL0     H78531   2.095   4.554   6.125 -0.0121 -2.2964  1.5137
  582MOL0     H78532   1.828   4.264   6.270  1.1817 -4.7610  1.8866
  582MOL0     H78533   1.638   4.095   6.288  1.5558  1.2762 -1.5692
  582MOL0     H78534   1.350   4.141   6.627 -0.1237  0.1510  0.0907
  582MOL0     H78535   1.244   4.191   6.489  0.9245  0.4738 -0.3065
  582MOL0     H78536   1.214   3.959   6.424 -2.6316 -0.4053  1.2400
  582MOL0     H78537   1.325   3.920   6.578  0.3395  2.5929  2.8975
  582MOL0     H78538   1.160   3.981   6.714  2.3432 -1.2264 -0.6349
  582MOL0     H78539   1.054   4.053   6.582 -0.9977 -2.2250 -3.3672
  582MOL0     H78540   1.150   3.772   6.605  3.0473  4.0982  1.9936
  582MOL0     H78541   1.032   3.850   6.479 -0.2979  1.2333  0.3141
  582MOL0     H78542   0.901   3.712   6.605 -0.1580  0.0557 -2.1086
  582MOL0     H78543   0.873   3.875   6.657  1.3788  0.5485 -2.9671
  582MOL0     H78544   1.036   3.664   6.807 -1.5027 -0.9698  1.3717
  582MOL0     H78545   1.028   3.829   6.859 -1.5376  1.3986 -0.9123
  582MOL0     H78546   0.886   3.692   7.002 -2.1213 -1.2792  0.3415
  582MOL0     H78547   0.782   3.639   6.872 -0.7801  1.6808 -1.6197
  582MOL0     H78548   0.800   3.917   7.019  0.1361  1.2182 -0.2237
  582MOL0     H78549   0.750   3.920   6.849  2.1621  2.6950  1.5787
  582MOL0     H78550   1.411   4.357   6.526  0.2198 -2.4357  1.4612
  582MOL0     H78551   1.597   4.515   6.547 -1.4346 -3.2832  4.7661
  582MOL0     H78552   2.006   4.632   6.533  1.0281  0.9808  1.4194
  582MOL0     H78553   2.224   4.747   6.556  0.7971  0.2847 -0.7983
  582MOL0     H78554   1.786   4.187   6.575  1.6522  0.7001  1.1021
  582MOL0     H78555   1.647   4.031   6.612 -0.5551 -2.2587 -0.6240
  582MOL0     H78556   1.732   3.561   6.818  1.7364  2.9545  3.9169
  582MOL0     H78557   1.645   3.347   6.910 -1.3294  0.4486  4.2400
  582MOL0     H78558   1.488   3.153   6.945  0.6689  2.4890 -0.3234
  582MOL0     H78559   1.408   3.206   6.799  0.8132  1.5395  0.0118
  582MOL0     H78560   1.291   3.070   7.032 -0.1212  0.0261 -1.2904
  582MOL0     H78561   1.301   3.025   6.858 -0.4033  1.7124 -2.0374
  582MOL0     H78562   1.164   3.230   6.788  1.6010 -2.9685 -0.2836
  582MOL0     H78563   1.148   3.274   6.953  3.1495 -1.2747  2.3802
  582MOL0     H78564   1.015   3.066   6.975 -0.2246  3.0128  0.1170
  582MOL0     H78565   0.940   3.170   6.843 -1.4486 -1.6804 -2.0246
  582MOL0     H78566   0.955   2.825   6.637 -0.2611 -1.0391  1.1971
  582MOL0     H78567   1.281   3.510   7.000  1.0474 -1.2581  1.5579
  582MOL0     H78568   1.237   3.743   6.956  0.3376 -0.1643  0.2034
  582MOL0     H78569   1.370   3.866   6.942  1.9932  0.2318 -1.5960
  582MOL0     H78570   1.293   3.797   6.791 -2.6671  1.0481  0.3932
  583MOL0     O78571   9.079   6.552   5.467 -0.1280  0.3117 -0.0409
  583MOL0     C78572   9.035   6.566   5.579  0.1766  0.1379  0.2476
  583MOL0     O78573   9.114   6.576   5.698 -0.1531 -0.4700  0.6449
  583MOL0     C78574   9.249   6.573   5.692 -0.0453 -0.2105 -0.3445
  583MOL0     C78575   9.306   6.692   5.639  0.0765 -0.6220  0.7712
  583MOL0     C78576   9.443   6.700   5.626  0.2788 -0.5287 -0.6789
  583MOL0     C78577   9.528   6.604   5.676  0.2539  0.1898  0.2866
  583MOL0     O78578   9.666   6.617   5.663  0.2473  1.0303  0.6614
  583MOL0     C78579   9.745   6.598   5.776 -0.2816 -0.0654 -1.3952
  583MOL0     C78580   9.708   6.694   5.884 -0.0047 -1.4548 -0.5283
  583MOL0     C78581   9.829   6.718   5.985  0.0083 -1.0818  0.3404
  583MOL0     C78582   9.857   6.596   6.079 -0.5165 -0.1808  0.2753
  583MOL0     C78583   9.936   6.633   6.203 -0.2654 -0.7248 -0.3329
  583MOL0     C78584   9.887   6.551   6.319 -0.1172  0.1262 -0.4904
  583MOL0     C78585   9.998   6.553   6.436  0.1369 -0.9610  0.7010
  583MOL0     C78586  10.101   6.444   6.419  0.3450  0.3115 -0.5126
  583MOL0     N78587  10.153   6.402   6.554  0.0360  0.4243  1.1088
  583MOL0     C78588  10.259   6.464   6.633 -0.3893  0.7195  0.6972
  583MOL0     C78589  10.274   6.397   6.747 -0.6328  0.4616 -0.3159
  583MOL0     C78590  10.358   6.427   6.867 -0.6485 -1.2924  0.1725
  583MOL0     C78591  10.511   6.428   6.831  0.2724 -0.6254 -0.4619
  583MOL0     C78592  10.573   6.289   6.808  0.5510 -0.6535  0.4783
  583MOL0     C78593  10.672   6.243   6.915 -0.5287  0.3947  0.1224
  583MOL0     O78594  10.774   6.344   6.935 -0.2301 -0.1367  0.1544
  583MOL0     C78595  10.847   6.342   7.051 -0.2872  0.0656 -0.3606
  583MOL0     C78596  10.937   6.231   7.082 -0.4275 -0.5895  0.1793
  583MOL0     C78597  11.006   6.231   7.207  0.0804 -0.9533 -1.3143
  583MOL0     C78598  10.998   6.340   7.292  0.5872  0.0942  0.0284
  583MOL0     C78599  11.076   6.344   7.415  0.2911  0.4743 -0.6866
  583MOL0     O78600  11.147   6.231   7.438 -0.0541  0.3244  0.8757
  583MOL0     C78601  11.226   6.221   7.548 -0.5426 -0.4347  0.3114
  583MOL0     C78602  11.184   6.195   7.673 -0.8309 -0.2209  0.0506
  583MOL0     C78603  11.267   6.191   7.785  0.7338 -1.1610 -0.1600
  583MOL0     C78604  11.397   6.223   7.766 -0.3452  0.7552  0.3737
  583MOL0     O78605  11.475   6.226   7.877 -0.0238 -1.3050  0.8732
  583MOL0     C78606  11.614   6.205   7.863  0.2183  0.2252  0.2870
  583MOL0     C78607  11.682   6.223   7.999 -0.3899  0.2087 -0.4058
  583MOL0     C78608  11.823   6.157   8.015 -0.5809 -0.1911  1.0659
  583MOL0     C78609  11.892   6.178   8.157  0.3296 -0.2688  1.4438
  583MOL0     C78610  11.842   6.091   8.273  0.5524 -0.0244 -0.2164
  583MOL0     C78611  11.926   6.096   8.407  0.7544 -0.3919 -0.2477
  583MOL0     C78612  12.068   6.046   8.416 -0.7481  0.1570 -0.6476
  583MOL0     C78613  12.073   5.956   8.538  0.6541  0.2621 -0.6105
  583MOL0    Cl78614  12.235   5.900   8.562 -0.6090 -0.1338  0.5203
  583MOL0     C78615  11.447   6.239   7.630 -0.0364  0.8145  0.5751
  583MOL0     C78616  11.361   6.243   7.518  0.8322 -0.3195 -0.8634
  583MOL0     O78617  11.052   6.426   7.505 -0.3045  0.3005 -0.1361
  583MOL0     C78618  10.913   6.444   7.258  0.2013  0.3880  0.4594
  583MOL0     C78619  10.834   6.451   7.142  0.2055  0.3623 -0.5632
  583MOL0     N78620  10.183   6.293   6.749  0.0263  0.6662 -0.2951
  583MOL0     N78621  10.128   6.292   6.630  0.4855  0.0736 -0.3587
  583MOL0     C78622   9.480   6.483   5.712  1.2053 -0.3598  0.2812
  583MOL0     C78623   9.335   6.469   5.719  0.1275 -0.8876  0.1532
  583MOL0     C78624   8.887   6.572   5.599  0.4929 -0.5712 -0.6585
  583MOL0     C78625   8.841   6.506   5.719 -0.2877  0.8535  0.3744
  583MOL0     C78626   8.708   6.510   5.757  0.1751  0.0753 -0.0349
  583MOL0     C78627   8.611   6.585   5.682  0.7171 -0.2784 -0.5134
  583MOL0     O78628   8.480   6.600   5.717 -0.5075  0.0051  0.0847
  583MOL0     C78629   8.425   6.518   5.815  0.0015  1.4114  0.2104
  583MOL0     C78630   8.273   6.518   5.788  0.4447 -0.4273 -0.0701
  583MOL0     C78631   8.213   6.655   5.781 -0.2076 -0.8253  0.2628
  583MOL0     C78632   8.191   6.712   5.920 -0.8459 -1.0122  0.2621
  583MOL0     C78633   8.178   6.861   5.914  0.4783  0.5832  0.6191
  583MOL0     C78634   8.164   6.978   5.905 -0.0139  0.1918 -0.0695
  583MOL0     C78635   8.660   6.663   5.572  0.5572 -0.4648  0.4423
  583MOL0     C78636   8.793   6.651   5.525 -1.0026  0.1240 -0.4175
  583MOL0     C78637   8.833   6.720   5.406 -0.5026 -0.9699  0.4577
  583MOL0     H78638   9.240   6.772   5.607  1.7902  0.0375 -1.4506
  583MOL0     H78639   9.472   6.795   5.582 -0.5507 -0.2677 -0.6647
  583MOL0     H78640   9.747   6.499   5.821  1.6299  0.5134 -0.0680
  583MOL0     H78641   9.853   6.610   5.760  0.8527 -2.1035  3.1457
  583MOL0     H78642   9.625   6.673   5.952  2.2573 -0.9268  2.6437
  583MOL0     H78643   9.682   6.790   5.839 -0.2049  0.1359  2.6643
  583MOL0     H78644   9.800   6.804   6.047 -0.8375 -1.3497  0.3360
  583MOL0     H78645   9.921   6.749   5.934 -1.6753 -0.1936 -2.3855
  583MOL0     H78646   9.764   6.548   6.112 -2.4125  1.9016 -1.6753
  583MOL0     H78647   9.912   6.529   6.011 -2.4624 -3.0416  1.3362
  583MOL0     H78648  10.038   6.611   6.171  0.4254  1.4250  0.2368
  583MOL0     H78649   9.934   6.739   6.229  0.1912 -0.0795 -2.6596
  583MOL0     H78650   9.801   6.602   6.365 -3.6568 -5.2083 -0.3192
  583MOL0     H78651   9.855   6.451   6.288 -1.4268 -0.2673  1.9251
  583MOL0     H78652   9.945   6.525   6.528  0.7878 -1.8425  0.8172
  583MOL0     H78653  10.047   6.650   6.428  0.0082 -0.9535 -0.0989
  583MOL0     H78654  10.054   6.359   6.368  2.0606 -0.1206 -1.4398
  583MOL0     H78655  10.179   6.485   6.354  0.5306  0.0068 -0.4843
  583MOL0     H78656  10.309   6.559   6.614  0.5045  0.0406 -0.4082
  583MOL0     H78657  10.332   6.525   6.910  2.4517 -1.0326  1.7673
  583MOL0     H78658  10.332   6.346   6.935 -4.2689 -2.5857 -2.4690
  583MOL0     H78659  10.524   6.485   6.739  1.8189 -2.7581 -1.6583
  583MOL0     H78660  10.568   6.474   6.912  1.5714 -3.1566  0.1568
  583MOL0     H78661  10.629   6.300   6.714  1.3715  0.1973  1.0502
  583MOL0     H78662  10.491   6.219   6.790  0.8846 -0.7475 -0.8043
  583MOL0     H78663  10.722   6.149   6.888  1.7380  1.6224 -0.2351
  583MOL0     H78664  10.625   6.213   7.008  3.6583 -1.3090  1.9652
  583MOL0     H78665  10.942   6.134   7.034 -0.2082 -1.5020  1.9599
  583MOL0     H78666  11.075   6.151   7.232  1.5069  0.4374 -0.6043
  583MOL0     H78667  11.079   6.191   7.702 -0.5889 -0.0400  0.9781
  583MOL0     H78668  11.228   6.167   7.884  0.9168 -0.6857  0.0311
  583MOL0     H78669  11.638   6.109   7.817  0.8181 -0.3412  1.7338
  583MOL0     H78670  11.658   6.275   7.792  1.7997  0.5774  1.5446
  583MOL0     H78671  11.704   6.326   8.028  0.2003 -0.6212  2.4428
  583MOL0     H78672  11.626   6.172   8.078 -2.0686  2.2241 -0.2161
  583MOL0     H78673  11.814   6.053   7.984 -0.1472 -0.1542  0.8054
  583MOL0     H78674  11.892   6.200   7.941  0.2671  0.2010  2.0578
  583MOL0     H78675  11.880   6.283   8.185  5.2564  1.7227 -2.4012
  583MOL0     H78676  11.996   6.154   8.131 -0.4987  0.6636 -3.8157
  583MOL0     H78677  11.826   5.987   8.243 -2.7082  0.2385  0.2424
  583MOL0     H78678  11.741   6.129   8.295  1.1944  0.9257  1.2008
  583MOL0     H78679  11.930   6.199   8.443  3.1285 -1.0255  1.5401
  583MOL0     H78680  11.851   6.043   8.466  0.3677  0.0227 -0.3623
  583MOL0     H78681  12.142   6.124   8.434 -2.2773  0.9374  3.2210
  583MOL0     H78682  12.092   5.993   8.323 -0.1674  0.2651 -0.5631
  583MOL0     H78683  12.039   6.002   8.631 -0.0804 -2.3705  0.5365
  583MOL0     H78684  12.011   5.868   8.518  0.8664 -0.7795  2.6497
  583MOL0     H78685  11.554   6.248   7.614 -0.5492  1.5669 -3.6918
  583MOL0     H78686  11.382   6.274   7.416 -2.9255 -0.1568 -1.7543
  583MOL0     H78687  10.905   6.530   7.324  0.2322  1.6884 -1.1375
  583MOL0     H78688  10.781   6.542   7.117  2.2362  1.0351 -2.7437
  583MOL0     H78689   9.548   6.399   5.722  0.8039 -0.7129  0.0964
  583MOL0     H78690   9.288   6.379   5.757 -4.1937  1.4719  0.9774
  583MOL0     H78691   8.911   6.440   5.769 -0.5493 -0.1213 -0.5161
  583MOL0     H78692   8.684   6.455   5.848  0.7100  1.3790  0.9338
  583MOL0     H78693   8.449   6.558   5.914  1.1102  2.7162 -0.5420
  583MOL0     H78694   8.464   6.416   5.806 -2.4896  0.4724 -0.7575
  583MOL0     H78695   8.223   6.454   5.861  0.8336  2.0915  2.5947
  583MOL0     H78696   8.245   6.483   5.688  0.2615  0.7012 -0.4286
  583MOL0     H78697   8.118   6.646   5.727 -0.1797 -1.5462  0.3179
  583MOL0     H78698   8.274   6.720   5.718 -1.2964 -2.4045 -2.6298
  583MOL0     H78699   8.101   6.668   5.964  0.4150 -1.7239  2.2479
  583MOL0     H78700   8.275   6.693   5.987  0.0408  1.6974  0.0715
  583MOL0     H78701   8.160   7.085   5.910  0.8950  0.1785  2.2217
  583MOL0     H78702   8.589   6.726   5.520 -0.1551  0.8224  2.8555
  583MOL0     H78703   8.902   6.801   5.429 -0.3395 -0.9485 -0.0898
  583MOL0     H78704   8.880   6.651   5.336 -0.0710 -1.2674  1.0300
  583MOL0     H78705   8.740   6.758   5.362 -0.3010 -0.2024  0.6767
  584MOL0     O78706   1.707   2.197   2.445  0.2912  0.0877 -0.9349
  584MOL0     C78707   1.630   2.262   2.518  0.2430  0.4694  0.2629
  584MOL0     O78708   1.669   2.361   2.601 -0.2011  0.0743 -0.6262
  584MOL0     C78709   1.805   2.383   2.603 -0.3752 -0.8452 -0.1323
  584MOL0     C78710   1.865   2.469   2.516  0.2560 -0.2043  1.1931
  584MOL0     C78711   2.000   2.501   2.513 -0.4804 -0.9384  0.6420
  584MOL0     C78712   2.086   2.444   2.610 -0.7877  1.2204 -0.1264
  584MOL0     O78713   2.216   2.485   2.618 -0.7841  0.5178 -0.4031
  584MOL0     C78714   2.317   2.428   2.714  0.3086 -1.2006  0.0650
  584MOL0     C78715   2.378   2.299   2.669 -0.1762  0.5833  0.2869
  584MOL0     C78716   2.457   2.232   2.779 -0.7927 -0.4425  1.0233
  584MOL0     C78717   2.582   2.301   2.817  0.4585 -0.0561 -0.1149
  584MOL0     C78718   2.637   2.264   2.956  1.0916 -0.3488  0.5623
  584MOL0     C78719   2.778   2.315   2.982  0.5366 -0.6917 -0.2136
  584MOL0     C78720   2.836   2.259   3.112  0.9244 -0.1312 -0.2209
  584MOL0     C78721   2.976   2.313   3.133  0.0918 -0.8142  0.9869
  584MOL0     N78722   3.063   2.315   3.014 -0.0297 -0.2534 -0.5901
  584MOL0     C78723   3.113   2.424   2.947  0.4003 -0.7626 -0.7722
  584MOL0     C78724   3.219   2.377   2.885 -0.0543  0.5543  0.1021
  584MOL0     C78725   3.297   2.480   2.794 -0.3305 -0.1037  0.8128
  584MOL0     C78726   3.452   2.473   2.796 -0.4326 -0.2275 -0.2668
  584MOL0     C78727   3.521   2.466   2.927 -0.2172 -0.8788  0.2908
  584MOL0     C78728   3.672   2.437   2.903 -0.2562 -0.5581 -0.6603
  584MOL0     O78729   3.728   2.553   2.842 -0.4377 -0.1603  0.1351
  584MOL0     C78730   3.866   2.557   2.821  0.0818 -0.4980  0.0883
  584MOL0     C78731   3.917   2.670   2.762  0.0567 -0.5292 -0.0489
  584MOL0     C78732   4.054   2.678   2.735 -0.6240  0.3657 -0.7567
  584MOL0     C78733   4.135   2.564   2.755  0.7576  0.0267 -0.1171
  584MOL0     C78734   4.283   2.587   2.745  0.7442 -0.1539  0.8067
  584MOL0     O78735   4.327   2.687   2.654  0.3928  0.5149  0.2482
  584MOL0     C78736   4.459   2.722   2.673 -0.0816 -0.3167  0.1057
  584MOL0     C78737   4.494   2.842   2.737 -0.0051  0.2049 -0.8079
  584MOL0     C78738   4.633   2.876   2.757 -0.3061 -0.1630  1.1746
  584MOL0     C78739   4.727   2.784   2.713 -0.9923  0.1100  0.3540
  584MOL0     O78740   4.863   2.811   2.739  0.0322 -0.2041 -0.5657
  584MOL0     C78741   4.959   2.755   2.651 -0.3317 -0.6147  0.7434
  584MOL0     C78742   5.089   2.845   2.661 -0.2307 -0.5191  0.0983
  584MOL0     C78743   5.207   2.786   2.583  0.3179  0.2392 -0.5254
  584MOL0     C78744   5.341   2.859   2.605 -0.0368 -0.1944 -0.2338
  584MOL0     C78745   5.458   2.769   2.556 -0.0268 -0.2847 -0.6519
  584MOL0     C78746   5.577   2.764   2.638 -0.7737  0.9495 -0.7007
  584MOL0     C78747   5.563   2.703   2.777 -0.1886  0.2196  0.3653
  584MOL0     C78748   5.583   2.551   2.774  0.7341  0.0834 -0.0153
  584MOL0    Cl78749   5.741   2.511   2.728  0.3708  0.4189  0.0997
  584MOL0     C78750   4.688   2.667   2.647 -0.5866 -0.3504  0.1004
  584MOL0     C78751   4.555   2.633   2.620  0.2021 -0.1175  0.8707
  584MOL0     O78752   4.361   2.520   2.811  0.2466  0.2946 -0.2930
  584MOL0     C78753   4.084   2.444   2.808  0.5447  0.1236 -1.5714
  584MOL0     C78754   3.951   2.443   2.854 -0.5879 -0.2134 -0.1852
  584MOL0     N78755   3.237   2.243   2.901 -0.1760 -0.1074  0.2042
  584MOL0     N78756   3.140   2.208   2.977  0.3997  0.3023  1.2966
  584MOL0     C78757   2.029   2.343   2.701 -0.1821 -0.3119 -0.0180
  584MOL0     C78758   1.889   2.317   2.691  0.0702 -0.7016 -1.2279
  584MOL0     C78759   1.484   2.241   2.487 -0.0496  0.1544 -0.5352
  584MOL0     C78760   1.456   2.118   2.424 -0.0323  0.1664  0.2698
  584MOL0     C78761   1.323   2.077   2.411 -0.2990  0.3496  0.1944
  584MOL0     C78762   1.212   2.156   2.427 -0.1100 -0.0388 -0.3529
  584MOL0     O78763   1.079   2.128   2.404 -0.3420  0.1320 -0.2554
  584MOL0     C78764   1.060   2.091   2.266  0.2523 -0.1794 -0.4776
  584MOL0     C78765   0.908   2.103   2.249 -0.0029 -0.0918 -0.1875
  584MOL0     C78766   0.890   2.188   2.119 -0.7069 -0.2859 -0.0172
  584MOL0     C78767   0.753   2.143   2.066  0.4155 -1.0844  0.6496
  584MOL0     C78768   0.718   2.239   1.959  0.5832 -0.5666  0.7058
  584MOL0     C78769   0.702   2.336   1.884  0.1753 -1.1728 -0.5732
  584MOL0     C78770   1.237   2.279   2.484 -0.2281 -0.1255 -0.8623
  584MOL0     C78771   1.366   2.322   2.520 -0.8305 -0.3640  0.7807
  584MOL0     C78772   1.384   2.444   2.602  0.7216 -0.6926  0.2389
  584MOL0     H78773   1.798   2.518   2.446  0.8210  1.0520  1.5075
  584MOL0     H78774   2.050   2.568   2.444  0.9943 -1.5970  1.0169
  584MOL0     H78775   2.393   2.506   2.729  0.1549 -1.4177  2.2150
  584MOL0     H78776   2.270   2.401   2.808  0.8987 -1.4216  0.3002
  584MOL0     H78777   2.436   2.304   2.577  0.5451 -3.3530  0.3668
  584MOL0     H78778   2.298   2.230   2.643  2.7200 -3.0550  0.3322
  584MOL0     H78779   2.475   2.132   2.741 -0.1817  0.1156 -0.2022
  584MOL0     H78780   2.395   2.217   2.868 -0.9272 -0.0206  1.0056
  584MOL0     H78781   2.655   2.280   2.739 -0.1868  0.9445 -1.0332
  584MOL0     H78782   2.579   2.411   2.820 -1.0621 -0.0889  1.2921
  584MOL0     H78783   2.570   2.309   3.029 -2.4194  0.1065 -2.6572
  584MOL0     H78784   2.621   2.156   2.965 -4.5140 -0.1798 -2.6125
  584MOL0     H78785   2.833   2.282   2.894 -2.4171 -1.2819 -1.9813
  584MOL0     H78786   2.774   2.424   2.981 -2.3267 -0.6367  2.2276
  584MOL0     H78787   2.840   2.151   3.100  2.0511 -0.2899  1.2049
  584MOL0     H78788   2.777   2.284   3.201 -0.0705  1.6887 -1.3294
  584MOL0     H78789   2.965   2.417   3.165 -1.9158 -0.7688  0.2587
  584MOL0     H78790   3.029   2.272   3.219 -0.8903  2.2811  3.2331
  584MOL0     H78791   3.087   2.529   2.946  2.7299 -0.1169 -2.8399
  584MOL0     H78792   3.267   2.472   2.689 -0.0105 -0.9505  0.7798
  584MOL0     H78793   3.264   2.581   2.820  1.9626  0.6832  0.8652
  584MOL0     H78794   3.485   2.389   2.735 -0.2202 -0.7330  0.5260
  584MOL0     H78795   3.482   2.561   2.740 -0.7896  0.5308  0.6980
  584MOL0     H78796   3.472   2.381   2.975 -2.5479 -1.2996 -2.5749
  584MOL0     H78797   3.495   2.561   2.977 -2.2714 -0.3018 -1.7066
  584MOL0     H78798   3.694   2.348   2.843  0.4846 -0.2837 -0.8119
  584MOL0     H78799   3.715   2.425   3.003 -1.0645  2.2121  0.0852
  584MOL0     H78800   3.849   2.750   2.735  1.8406  1.5020  1.1338
  584MOL0     H78801   4.088   2.778   2.711 -0.3488  0.6754  0.8280
  584MOL0     H78802   4.409   2.901   2.770 -0.5228 -0.7614 -0.3438
  584MOL0     H78803   4.659   2.973   2.798  0.6909  0.8157 -1.5595
  584MOL0     H78804   4.974   2.650   2.678 -0.7217 -0.1918  2.7449
  584MOL0     H78805   4.927   2.758   2.546  0.3345 -0.1683  0.5446
  584MOL0     H78806   5.066   2.941   2.614  2.8166  0.4617  0.3520
  584MOL0     H78807   5.120   2.852   2.766 -0.3443 -2.0117  0.2534
  584MOL0     H78808   5.224   2.684   2.617  1.6780  0.7556  0.4415
  584MOL0     H78809   5.187   2.801   2.477  0.3831 -0.2915 -0.6130
  584MOL0     H78810   5.354   2.865   2.714  1.7959 -2.7927 -0.1924
  584MOL0     H78811   5.342   2.962   2.568  1.6073 -1.0699 -2.8911
  584MOL0     H78812   5.493   2.804   2.459  3.0164  1.6034  0.9925
  584MOL0     H78813   5.420   2.668   2.537  0.7015 -0.6723 -0.0893
  584MOL0     H78814   5.659   2.707   2.592 -0.5224 -0.9270  1.8555
  584MOL0     H78815   5.618   2.865   2.643  2.1451 -0.1929  2.0749
  584MOL0     H78816   5.464   2.735   2.813 -0.7257 -1.0334  0.0235
  584MOL0     H78817   5.641   2.743   2.843  0.6287  1.0187 -1.0408
  584MOL0     H78818   5.565   2.525   2.879 -2.5196  1.7518 -0.0423
  584MOL0     H78819   5.507   2.494   2.720 -0.0786  0.3354  0.8432
  584MOL0     H78820   4.758   2.595   2.606  0.5963  0.8394 -0.0258
  584MOL0     H78821   4.531   2.539   2.573  1.2688 -0.6950  1.4402
  584MOL0     H78822   4.148   2.357   2.808 -1.3177 -1.5348 -5.6409
  584MOL0     H78823   3.907   2.346   2.876 -0.9966  0.0490  0.1713
  584MOL0     H78824   2.092   2.294   2.775 -0.6149 -0.0496  0.5291
  584MOL0     H78825   1.843   2.238   2.749 -1.2737 -0.5820 -2.0855
  584MOL0     H78826   1.536   2.046   2.412  1.3396  1.4086  1.7053
  584MOL0     H78827   1.300   1.980   2.368  0.2237 -0.5057  1.7464
  584MOL0     H78828   1.109   1.999   2.232 -0.6733 -0.6100 -0.6709
  584MOL0     H78829   1.105   2.167   2.202  4.0787 -1.4797  0.3902
  584MOL0     H78830   0.855   2.152   2.331  1.1613  1.2301 -0.1822
  584MOL0     H78831   0.871   2.004   2.222  1.6826 -1.1104  1.0150
  584MOL0     H78832   0.973   2.164   2.052  0.7932  0.4727  1.4938
  584MOL0     H78833   0.894   2.295   2.142  2.3418 -0.3658  0.1021
  584MOL0     H78834   0.754   2.047   2.014 -2.6135  0.6636 -3.0930
  584MOL0     H78835   0.672   2.147   2.140  0.2862  0.5380  0.4408
  584MOL0     H78836   0.693   2.415   1.813  0.5468 -0.0498  0.6060
  584MOL0     H78837   1.157   2.345   2.515  1.6827  2.2449 -0.6693
  584MOL0     H78838   1.402   2.416   2.707  2.8333 -2.8863 -0.6073
  584MOL0     H78839   1.470   2.506   2.575  0.7821  0.6397  3.1327
  584MOL0     H78840   1.296   2.507   2.590  0.0928 -1.3568  1.2590
  585MOL0     O78841   1.967   4.407   9.475 -0.3685  0.1486  0.6556
  585MOL0     C78842   1.985   4.360   9.586  0.5472  0.4092 -0.9393
  585MOL0     O78843   1.913   4.386   9.702 -0.1398  0.2930  0.3300
  585MOL0     C78844   1.824   4.487   9.683  0.4008  0.8787 -0.3578
  585MOL0     C78845   1.864   4.619   9.695 -0.1556 -0.5102 -0.3824
  585MOL0     C78846   1.776   4.724   9.673  0.0984  0.5888 -0.1686
  585MOL0     C78847   1.645   4.693   9.630 -0.5122 -0.4211 -0.3086
  585MOL0     O78848   1.554   4.782   9.577 -0.2872  0.0225 -0.3649
  585MOL0     C78849   1.605   4.879   9.491  0.1826  0.0743 -0.4021
  585MOL0     C78850   1.590   5.030   9.524 -0.2054 -0.1888  0.1455
  585MOL0     C78851   1.740   5.078   9.515  0.3079  1.3219 -0.1836
  585MOL0     C78852   1.755   5.222   9.491 -0.1231 -0.4871 -0.2916
  585MOL0     C78853   1.726   5.309   9.611 -0.9170 -0.8090 -0.3972
  585MOL0     C78854   1.839   5.313   9.717 -0.8363 -0.2735 -1.4137
  585MOL0     C78855   1.813   5.432   9.818 -0.3892 -1.3735 -1.2498
  585MOL0     C78856   1.934   5.458   9.907  0.7806  0.0388 -0.4401
  585MOL0     N78857   2.051   5.516   9.831  0.8389  0.1080  0.4065
  585MOL0     C78858   2.180   5.493   9.874 -0.6820 -0.1290  0.0092
  585MOL0     C78859   2.260   5.559   9.788 -0.4923 -0.1981 -0.0331
  585MOL0     C78860   2.408   5.605   9.811 -0.0693  0.0638  0.8901
  585MOL0     C78861   2.452   5.750   9.765 -0.0338  0.2395  0.0857
  585MOL0     C78862   2.511   5.760   9.615  0.6724  0.5488 -0.6850
  585MOL0     C78863   2.658   5.723   9.598  0.0767 -0.2492  0.3060
  585MOL0     O78864   2.745   5.835   9.634 -0.2507  0.4838  0.6564
  585MOL0     C78865   2.883   5.804   9.660  0.2333 -0.4874  0.2909
  585MOL0     C78866   2.957   5.697   9.616  0.0052 -0.5070 -0.3406
  585MOL0     C78867   3.092   5.693   9.625 -0.2568 -0.1754 -0.1830
  585MOL0     C78868   3.160   5.785   9.696 -0.3023 -0.4379  0.4817
  585MOL0     C78869   3.315   5.782   9.716  0.6207  0.3149  0.1921
  585MOL0     O78870   3.373   5.894   9.781 -0.0561  0.2046  0.0254
  585MOL0     C78871   3.512   5.898   9.797  0.3661 -0.7594 -0.0453
  585MOL0     C78872   3.581   5.800   9.866  0.4459 -0.3164  1.4916
  585MOL0     C78873   3.715   5.809   9.903  0.7315 -0.6864 -1.2095
  585MOL0     C78874   3.791   5.920   9.856  0.2104  0.0646  0.3447
  585MOL0     O78875   3.932   5.918   9.891  0.0586  0.2577 -0.1547
  585MOL0     C78876   4.007   6.029   9.842  0.4388  0.2007 -0.3019
  585MOL0     C78877   4.145   6.018   9.913  0.2351 -0.4821  0.3874
  585MOL0     C78878   4.153   6.063  10.060  0.7718  0.4217  0.7742
  585MOL0     C78879   4.242   5.990  10.147  0.1109  0.3856 -1.4563
  585MOL0     C78880   4.249   6.046  10.285 -0.6384 -1.3560  0.3977
  585MOL0     C78881   4.397   6.026  10.341  0.4436 -0.6181 -0.3533
  585MOL0     C78882   4.407   6.081  10.486  0.5984  0.2818 -0.2469
  585MOL0     C78883   4.519   6.014  10.562 -0.0987  0.3238 -0.3394
  585MOL0    Cl78884   4.678   6.088  10.508 -0.2603 -0.0069  0.0614
  585MOL0     C78885   3.728   6.012   9.764  0.6193  0.5808 -0.4926
  585MOL0     C78886   3.590   6.009   9.753  0.6921  0.0198 -0.2322
  585MOL0     O78887   3.377   5.686   9.674  0.9934  0.6751  0.1582
  585MOL0     C78888   3.087   5.889   9.756 -0.5594 -0.6958 -0.4657
  585MOL0     C78889   2.951   5.896   9.736  0.3082 -0.3373  0.2306
  585MOL0     N78890   2.180   5.606   9.682  1.0204 -0.1872  0.0292
  585MOL0     N78891   2.057   5.577   9.710  0.3267 -0.1815  0.1886
  585MOL0     C78892   1.615   4.561   9.608  0.3043  0.6797 -0.1224
  585MOL0     C78893   1.702   4.452   9.640 -0.2146  0.1566 -0.1028
  585MOL0     C78894   2.075   4.250   9.601  0.8484 -0.6465 -0.4404
  585MOL0     C78895   2.160   4.235   9.720  0.1309  0.1123  0.3703
  585MOL0     C78896   2.241   4.121   9.736  0.3706 -0.2223 -0.0917
  585MOL0     C78897   2.250   4.024   9.642 -0.6648  0.5384 -0.5910
  585MOL0     O78898   2.332   3.925   9.668  1.3501  0.0720 -0.0901
  585MOL0     C78899   2.340   3.812   9.579 -0.3488  0.1944  0.7630
  585MOL0     C78900   2.398   3.698   9.649  0.7730 -0.4565 -0.1067
  585MOL0     C78901   2.555   3.682   9.641  0.6170  0.4437  0.3795
  585MOL0     C78902   2.593   3.558   9.726 -0.1657 -0.1801 -0.8670
  585MOL0     C78903   2.534   3.434   9.681 -0.8203  0.5712  0.9177
  585MOL0     C78904   2.491   3.320   9.646  0.5244 -0.2856 -0.0858
  585MOL0     C78905   2.183   4.045   9.523  0.4077  0.6528 -0.5829
  585MOL0     C78906   2.092   4.150   9.502 -0.6506  0.0291  0.4957
  585MOL0     C78907   2.010   4.140   9.371  0.8278 -0.1656 -0.6411
  585MOL0     H78908   1.967   4.636   9.727  0.2108 -0.7796 -1.3995
  585MOL0     H78909   1.817   4.823   9.686  0.6588  0.7352 -2.5729
  585MOL0     H78910   1.708   4.854   9.463  0.6524  0.9197  0.4991
  585MOL0     H78911   1.547   4.861   9.400 -1.2153 -0.7709  0.6280
  585MOL0     H78912   1.553   5.039   9.626  1.6402 -4.2004  1.3815
  585MOL0     H78913   1.528   5.085   9.452  2.3682  0.1501 -1.9776
  585MOL0     H78914   1.782   5.031   9.426 -1.6377  0.7486 -0.8491
  585MOL0     H78915   1.797   5.033   9.596 -4.4140 -0.6443  2.4832
  585MOL0     H78916   1.857   5.245   9.457  0.1399  1.1802  1.3914
  585MOL0     H78917   1.681   5.259   9.420  0.2819  4.3967  1.4317
  585MOL0     H78918   1.711   5.415   9.590  1.5384 -0.1776  0.7081
  585MOL0     H78919   1.630   5.280   9.656  0.2694 -2.1163  1.4573
  585MOL0     H78920   1.849   5.217   9.768 -1.6212 -0.2639 -1.2275
  585MOL0     H78921   1.934   5.331   9.665  1.7244 -0.1173  2.8155
  585MOL0     H78922   1.724   5.411   9.877  0.3473 -1.7713 -0.2603
  585MOL0     H78923   1.787   5.526   9.769 -0.7361 -1.6015 -1.5058
  585MOL0     H78924   1.913   5.528   9.988  2.0198  0.8679 -0.8041
  585MOL0     H78925   1.963   5.364   9.953  3.4492  1.7296  1.6174
  585MOL0     H78926   2.213   5.445   9.966 -1.0386  1.3398  0.9509
  585MOL0     H78927   2.434   5.606   9.918  1.4621  0.6040  0.5439
  585MOL0     H78928   2.477   5.536   9.762 -2.7807 -2.6987  0.6759
  585MOL0     H78929   2.372   5.823   9.782 -0.4098 -0.2530  0.4839
  585MOL0     H78930   2.528   5.789   9.834  0.3773  1.4075 -0.9945
  585MOL0     H78931   2.491   5.864   9.587  2.0075  1.6284  1.9828
  585MOL0     H78932   2.460   5.685   9.554  0.4609 -1.1495  1.4566
  585MOL0     H78933   2.667   5.704   9.491  1.7349  1.4930  0.0720
  585MOL0     H78934   2.693   5.630   9.644  0.2458 -0.7191 -0.7300
  585MOL0     H78935   2.913   5.614   9.562 -1.2535  0.5506 -1.0205
  585MOL0     H78936   3.144   5.619   9.566  4.4929  2.9026 -0.3426
  585MOL0     H78937   3.531   5.708   9.895  1.8864 -1.3171  0.8899
  585MOL0     H78938   3.754   5.731   9.969 -3.1100 -0.8288  1.1960
  585MOL0     H78939   4.011   6.018   9.734  0.1777 -0.3154 -0.2653
  585MOL0     H78940   3.955   6.118   9.879  0.1323 -0.5123  1.0439
  585MOL0     H78941   4.196   5.922   9.901 -1.1661 -1.1445 -0.6293
  585MOL0     H78942   4.206   6.089   9.857  2.2036 -0.7479  2.0890
  585MOL0     H78943   4.193   6.165  10.054  1.8070  0.0367  0.9810
  585MOL0     H78944   4.055   6.064  10.109 -0.4130  0.7529 -1.4891
  585MOL0     H78945   4.338   6.006  10.096  0.8033  0.8137 -0.0757
  585MOL0     H78946   4.231   5.881  10.141  0.0538  0.2424  0.5690
  585MOL0     H78947   4.168   6.032  10.357 -2.1583  1.6917 -0.5391
  585MOL0     H78948   4.250   6.154  10.269 -1.3032 -1.2791  0.8620
  585MOL0     H78949   4.424   5.922  10.325  3.1330  0.0567 -0.8583
  585MOL0     H78950   4.470   6.081  10.279 -2.1664  2.3465 -1.0751
  585MOL0     H78951   4.322   6.052  10.548  1.0911  2.1617  1.3829
  585MOL0     H78952   4.425   6.189  10.485 -1.1157  0.6006 -1.7044
  585MOL0     H78953   4.509   6.023  10.670  1.5598  3.5029 -0.3457
  585MOL0     H78954   4.523   5.905  10.546  3.1072 -0.0490  1.9741
  585MOL0     H78955   3.791   6.088   9.720  3.6299 -0.3964  1.8481
  585MOL0     H78956   3.549   6.098   9.706  3.7718  0.8905 -1.5388
  585MOL0     H78957   3.135   5.965   9.818 -1.6986  0.5322 -1.0239
  585MOL0     H78958   2.903   5.989   9.765  2.5505  1.2278 -0.8062
  585MOL0     H78959   1.526   4.545   9.548 -0.9710 -1.2262  2.1059
  585MOL0     H78960   1.678   4.346   9.644  2.8739 -0.6770 -0.9397
  585MOL0     H78961   2.164   4.310   9.799  2.1898  1.1161 -0.6261
  585MOL0     H78962   2.301   4.106   9.825 -0.4494  0.1123  0.5434
  585MOL0     H78963   2.407   3.837   9.496 -0.6634  3.2933  1.3526
  585MOL0     H78964   2.245   3.786   9.531 -0.7146  0.4337  1.3449
  585MOL0     H78965   2.347   3.612   9.605  1.4748 -0.0158 -1.8443
  585MOL0     H78966   2.379   3.702   9.757 -0.3201 -2.3146 -0.2002
  585MOL0     H78967   2.607   3.769   9.683  1.9426 -0.5454  0.8438
  585MOL0     H78968   2.593   3.675   9.539 -0.6828 -1.4670 -0.0235
  585MOL0     H78969   2.701   3.546   9.715 -0.0789 -5.8985  2.4532
  585MOL0     H78970   2.572   3.579   9.831  2.2357 -1.6057 -0.0348
  585MOL0     H78971   2.462   3.220   9.618  0.5168 -0.2494 -0.2102
  585MOL0     H78972   2.192   3.968   9.447  0.1780 -0.4355  0.4554
  585MOL0     H78973   2.016   4.039   9.331  0.0259  1.4830 -5.6290
  585MOL0     H78974   1.910   4.170   9.404  1.1723  2.9154 -2.0862
  585MOL0     H78975   2.039   4.215   9.297 -1.5059  0.9692 -0.4953
  586MOL0     O78976   6.917   9.406   0.991  0.0556 -0.1806  0.0943
  586MOL0     C78977   6.825   9.373   0.911  0.0398 -0.7250 -0.0531
  586MOL0     O78978   6.841   9.291   0.811  0.8265  0.0607  0.0735
  586MOL0     C78979   6.961   9.227   0.765  0.4545  0.0802 -0.1207
  586MOL0     C78980   7.090   9.287   0.776  1.1015 -0.6063 -0.1429
  586MOL0     C78981   7.200   9.228   0.715 -0.0437 -0.4336 -0.8600
  586MOL0     C78982   7.184   9.094   0.674 -0.0602 -0.1490 -0.2810
  586MOL0     O78983   7.300   9.037   0.639 -0.5448  0.3407 -1.0289
  586MOL0     C78984   7.310   8.891   0.627 -0.1570  0.1213  0.7163
  586MOL0     C78985   7.436   8.835   0.567 -0.3532 -0.1792  0.3261
  586MOL0     C78986   7.556   8.913   0.625 -0.1408  0.7224 -0.0629
  586MOL0     C78987   7.681   8.833   0.582 -0.5501  0.3965 -0.6178
  586MOL0     C78988   7.821   8.884   0.634  0.4277  0.4224  0.2471
  586MOL0     C78989   7.836   8.893   0.788 -0.0442 -0.1331  0.3101
  586MOL0     C78990   7.980   8.930   0.825 -1.1783 -0.1039 -0.4830
  586MOL0     C78991   8.008   9.082   0.799  0.0617 -0.2237 -0.0896
  586MOL0     N78992   8.129   9.149   0.844 -0.6389 -0.3988  0.0834
  586MOL0     C78993   8.262   9.103   0.850  1.1261  0.0127  0.4620
  586MOL0     C78994   8.340   9.187   0.910 -0.2974  0.4670 -0.2582
  586MOL0     C78995   8.486   9.177   0.935 -0.0854 -0.0614 -0.1262
  586MOL0     C78996   8.534   9.108   1.066  0.2475 -0.2992  0.2167
  586MOL0     C78997   8.686   9.082   1.071  0.3722  0.3607  0.8633
  586MOL0     C78998   8.774   9.204   1.058 -0.3476 -0.8915  0.9679
  586MOL0     O78999   8.903   9.151   1.073  0.1599 -0.4007  0.5552
  586MOL0     C79000   9.015   9.237   1.080  0.1562  0.4436 -0.1306
  586MOL0     C79001   9.012   9.381   1.085 -0.4749 -0.0757 -0.2343
  586MOL0     C79002   9.133   9.454   1.081  0.7912 -0.1624  0.9777
  586MOL0     C79003   9.258   9.385   1.078  0.5566 -0.5575  0.2300
  586MOL0     C79004   9.386   9.457   1.067  0.0019 -0.6203  0.1343
  586MOL0     O79005   9.500   9.374   1.087  1.1257 -0.5486 -0.1510
  586MOL0     C79006   9.620   9.433   1.115  0.5120  0.5415  0.1673
  586MOL0     C79007   9.666   9.539   1.039  0.0662  0.9227  0.4849
  586MOL0     C79008   9.790   9.604   1.075 -0.8399  0.4239  0.6639
  586MOL0     C79009   9.867   9.548   1.182 -0.1115  0.3472 -0.2108
  586MOL0     O79010  10.003   9.568   1.208 -1.0122  0.1329 -0.3266
  586MOL0     C79011  10.089   9.626   1.113 -0.2294 -0.8693 -0.4079
  586MOL0     C79012  10.226   9.648   1.172 -1.0916  0.0514 -0.9288
  586MOL0     C79013  10.319   9.698   1.061  0.2807  0.1036 -0.2308
  586MOL0     C79014  10.465   9.693   1.109 -1.1010 -0.1183  0.2891
  586MOL0     C79015  10.562   9.719   0.987 -0.4487 -0.2531  0.1387
  586MOL0     C79016  10.565   9.867   0.946  0.0054 -0.8012  0.6470
  586MOL0     C79017  10.662   9.887   0.828 -0.1513 -0.4629 -0.3428
  586MOL0     C79018  10.666  10.032   0.796  0.1381 -0.3661  1.0906
  586MOL0    Cl79019  10.790  10.054   0.662 -0.0412 -0.0199  0.0193
  586MOL0     C79020   9.813   9.444   1.258  0.4389  0.2820  0.1615
  586MOL0     C79021   9.691   9.389   1.220  0.5368 -0.0836 -1.2181
  586MOL0     O79022   9.388   9.576   1.046 -0.4729  0.4342 -0.4223
  586MOL0     C79023   9.248   9.248   1.070 -0.4076  0.3653  0.0068
  586MOL0     C79024   9.132   9.170   1.086 -1.0017  0.2337 -0.1277
  586MOL0     N79025   8.265   9.295   0.946 -0.0255 -0.7242  0.1657
  586MOL0     N79026   8.141   9.272   0.903  0.4731  0.0389  0.0068
  586MOL0     C79027   7.063   9.032   0.684 -0.1658  0.9613 -0.1147
  586MOL0     C79028   6.948   9.098   0.712 -0.3816  0.6865 -0.3459
  586MOL0     C79029   6.691   9.427   0.930 -0.0469 -0.5894 -0.2422
  586MOL0     C79030   6.586   9.370   0.862  0.3090 -0.6576 -0.2316
  586MOL0     C79031   6.463   9.443   0.860 -0.6001  0.9691  0.3865
  586MOL0     C79032   6.442   9.560   0.916 -0.3651 -0.5098 -0.2707
  586MOL0     O79033   6.316   9.603   0.907  0.4384  0.3472 -0.2812
  586MOL0     C79034   6.271   9.724   0.982  0.3439 -0.0683 -1.0679
  586MOL0     C79035   6.135   9.756   0.930  0.3607  0.9964  0.4537
  586MOL0     C79036   6.028   9.686   1.008 -0.0461 -0.2925 -0.3583
  586MOL0     C79037   5.903   9.686   0.926  0.1661  0.2044  0.1399
  586MOL0     C79038   5.793   9.656   1.015  0.3338  0.4461 -0.6654
  586MOL0     C79039   5.717   9.656   1.105 -0.4162  0.3159  0.3241
  586MOL0     C79040   6.549   9.609   0.990  0.5862  0.0721 -0.2652
  586MOL0     C79041   6.676   9.549   1.000  0.6009 -0.7636 -0.3429
  586MOL0     C79042   6.780   9.631   1.068 -0.0564  0.8260  0.8417
  586MOL0     H79043   7.108   9.384   0.822 -0.0287 -0.3035 -0.2872
  586MOL0     H79044   7.296   9.278   0.703  0.2171 -0.1502  1.7353
  586MOL0     H79045   7.288   8.843   0.722  4.1690  0.2031  1.9631
  586MOL0     H79046   7.238   8.836   0.566 -1.1514 -0.4561  2.3494
  586MOL0     H79047   7.450   8.842   0.459  0.9026  1.6912  0.5642
  586MOL0     H79048   7.437   8.731   0.603 -0.1666  0.5082  2.4334
  586MOL0     H79049   7.553   8.928   0.733  2.0129  2.4197 -0.1555
  586MOL0     H79050   7.562   9.017   0.591 -4.1830  0.7136 -1.2608
  586MOL0     H79051   7.645   8.734   0.613 -1.6810  0.0942 -2.7358
  586MOL0     H79052   7.690   8.822   0.474  1.3247 -2.1465 -0.3140
  586MOL0     H79053   7.898   8.813   0.602  0.5774 -0.4192  2.3153
  586MOL0     H79054   7.844   8.983   0.594 -2.8998  0.0707 -3.1208
  586MOL0     H79055   7.768   8.963   0.836 -1.0400 -0.5805 -0.4276
  586MOL0     H79056   7.809   8.793   0.822 -3.2851  1.2764  2.3430
  586MOL0     H79057   8.055   8.865   0.780 -1.1350 -1.0771  0.9335
  586MOL0     H79058   7.978   8.917   0.934 -2.6610  2.2626 -0.1436
  586MOL0     H79059   7.997   9.108   0.694 -0.8039  0.7019  0.2071
  586MOL0     H79060   7.930   9.133   0.857  1.4802  0.0049  1.7368
  586MOL0     H79061   8.302   9.010   0.810 -0.9500 -0.4877 -0.5893
  586MOL0     H79062   8.531   9.125   0.850 -1.5203  0.6024 -1.3505
  586MOL0     H79063   8.530   9.277   0.928  1.0047 -0.5368 -0.2504
  586MOL0     H79064   8.518   9.164   1.159  0.9436  0.8620 -0.3286
  586MOL0     H79065   8.482   9.014   1.083  0.8625 -0.4799  1.1650
  586MOL0     H79066   8.714   9.009   0.994  1.8286  1.0008  0.7580
  586MOL0     H79067   8.703   9.032   1.167 -1.6064  0.6315  1.4105
  586MOL0     H79068   8.753   9.282   1.132 -0.0645  1.6579 -1.4855
  586MOL0     H79069   8.771   9.249   0.958 -0.8005 -1.1747  0.8528
  586MOL0     H79070   8.918   9.434   1.095 -0.3460  0.4954 -1.8048
  586MOL0     H79071   9.113   9.560   1.066  2.1121 -0.3031 -3.2215
  586MOL0     H79072   9.611   9.570   0.951  1.4239 -0.6365 -1.0067
  586MOL0     H79073   9.824   9.671   0.996  1.7853 -2.9230 -1.3317
  586MOL0     H79074  10.085   9.580   1.014 -1.2095 -1.2384 -0.2108
  586MOL0     H79075  10.054   9.729   1.103  2.3985  0.4071  2.0611
  586MOL0     H79076  10.232   9.714   1.259  0.6925  0.0446 -1.0142
  586MOL0     H79077  10.252   9.550   1.213  2.4413  1.2744  0.0921
  586MOL0     H79078  10.309   9.625   0.980  1.5581 -0.3151 -0.0263
  586MOL0     H79079  10.291   9.800   1.034 -0.7244  0.8578  3.1727
  586MOL0     H79080  10.487   9.590   1.139  1.2371 -0.1371 -1.2636
  586MOL0     H79081  10.492   9.768   1.184 -0.8522 -1.0388  1.1370
  586MOL0     H79082  10.546   9.648   0.906 -1.5069 -2.8787  2.4865
  586MOL0     H79083  10.666   9.700   1.015  0.5107  1.7235 -1.7719
  586MOL0     H79084  10.465   9.891   0.909 -0.5101 -1.4977  1.5608
  586MOL0     H79085  10.593   9.930   1.031  2.8017 -2.1328  0.8275
  586MOL0     H79086  10.625   9.833   0.740 -0.7353 -1.0903  0.2720
  586MOL0     H79087  10.761   9.848   0.854  0.0255 -0.5024 -1.0526
  586MOL0     H79088  10.568  10.069   0.766  1.5094  3.2926  0.6124
  586MOL0     H79089  10.694  10.081   0.889 -1.6097 -1.1347  2.0668
  586MOL0     H79090   9.878   9.399   1.332 -1.5633  1.0274  2.4837
  586MOL0     H79091   9.645   9.307   1.274 -2.6455  2.0298 -0.4559
  586MOL0     H79092   9.339   9.190   1.056 -1.4184 -0.9004 -1.7971
  586MOL0     H79093   9.148   9.063   1.081 -1.1504  0.2526 -3.4843
  586MOL0     H79094   7.044   8.930   0.653  2.1702  0.2497  0.5637
  586MOL0     H79095   6.851   9.051   0.705 -1.8128  3.3071  0.4272
  586MOL0     H79096   6.590   9.273   0.815 -1.5503 -1.7671  1.6917
  586MOL0     H79097   6.388   9.389   0.803  2.3971 -2.3768 -0.7776
  586MOL0     H79098   6.340   9.807   0.965 -0.7530  1.7371  2.4024
  586MOL0     H79099   6.262   9.702   1.088  1.0839  1.9426 -0.5524
  586MOL0     H79100   6.118   9.724   0.826 -1.3776  0.3113  0.9245
  586MOL0     H79101   6.140   9.864   0.947 -2.1141  1.1530  0.5296
  586MOL0     H79102   6.026   9.747   1.098  0.3680  1.0955 -1.2491
  586MOL0     H79103   6.053   9.580   1.025  0.6589 -0.5495 -2.5699
  586MOL0     H79104   5.878   9.785   0.886 -1.6678 -1.2604 -2.7267
  586MOL0     H79105   5.915   9.617   0.842  0.6296  2.1806 -1.5079
  586MOL0     H79106   5.640   9.633   1.175 -1.2140  3.8264  0.8232
  586MOL0     H79107   6.525   9.705   1.034 -0.8374 -0.9239  1.2353
  586MOL0     H79108   6.844   9.559   1.120 -0.3552 -0.5652 -0.6335
  586MOL0     H79109   6.849   9.687   1.004 -0.3017  1.3373  1.0107
  586MOL0     H79110   6.741   9.711   1.131 -0.2739  2.3610 -1.1529
  587MOL0     O79111   0.177   4.815   7.442  0.1895  0.2751  0.7036
  587MOL0     C79112   0.114   4.778   7.341  0.4402  0.0557  0.0931
  587MOL0     O79113   0.164   4.710   7.236  0.2687  0.1861  0.3803
  587MOL0     C79114   0.290   4.663   7.254  0.6439  0.1028 -0.1312
  587MOL0     C79115   0.391   4.698   7.159  0.0084  1.1390 -0.1026
  587MOL0     C79116   0.522   4.645   7.172 -0.3481 -0.0631  0.2854
  587MOL0     C79117   0.550   4.554   7.275  0.1332 -0.1799  0.1556
  587MOL0     O79118   0.677   4.517   7.289  0.1311 -0.5945  0.2274
  587MOL0     C79119   0.747   4.537   7.419  0.1984  0.1816  0.1072
  587MOL0     C79120   0.760   4.405   7.498  0.6326  0.2235  0.4016
  587MOL0     C79121   0.884   4.401   7.597  1.0349  0.5987  0.0655
  587MOL0     C79122   0.952   4.269   7.622  0.1242 -0.9327  0.1336
  587MOL0     C79123   1.089   4.299   7.681 -0.1750  0.1328 -1.0347
  587MOL0     C79124   1.135   4.177   7.772  0.4954  0.0777 -0.2734
  587MOL0     C79125   1.261   4.216   7.855  0.2141  0.4154 -0.1285
  587MOL0     C79126   1.309   4.105   7.958 -0.7494  0.0607  0.6152
  587MOL0     N79127   1.360   3.987   7.895 -0.0210  0.7509  0.8922
  587MOL0     C79128   1.488   3.984   7.842 -0.4760 -0.5740 -0.2719
  587MOL0     C79129   1.496   3.866   7.778 -0.6294  0.0349 -1.5055
  587MOL0     C79130   1.623   3.814   7.721  0.6060  0.4780 -0.3535
  587MOL0     C79131   1.620   3.716   7.603 -0.3856  0.2418 -0.4569
  587MOL0     C79132   1.755   3.647   7.582 -0.0369  0.5469  0.5976
  587MOL0     C79133   1.844   3.727   7.485 -0.3749  0.0438 -0.3517
  587MOL0     O79134   1.980   3.675   7.467 -0.2675 -0.6321 -0.1553
  587MOL0     C79135   2.088   3.722   7.538  0.2262  0.0779  0.5265
  587MOL0     C79136   2.086   3.816   7.639 -0.6228  0.0491 -0.6155
  587MOL0     C79137   2.192   3.845   7.720  0.3685 -0.0644 -0.5004
  587MOL0     C79138   2.307   3.770   7.695 -0.3598 -0.2261  0.2179
  587MOL0     C79139   2.436   3.806   7.750 -0.1053 -0.3948  0.3205
  587MOL0     O79140   2.445   3.926   7.826  0.2071  0.4664 -0.5890
  587MOL0     C79141   2.562   3.955   7.890 -0.0182  0.8249 -0.0552
  587MOL0     C79142   2.555   3.942   8.036  0.2366 -0.1464  0.6229
  587MOL0     C79143   2.666   3.971   8.111 -0.4147  0.6724 -0.9465
  587MOL0     C79144   2.789   4.003   8.052  0.5155  0.2631 -0.6498
  587MOL0     O79145   2.883   4.022   8.149  0.4327 -0.3139  0.0092
  587MOL0     C79146   2.983   4.123   8.121  0.0760  0.5275  0.3107
  587MOL0     C79147   3.118   4.066   8.080 -0.2894 -0.8246 -0.3796
  587MOL0     C79148   3.187   3.998   8.197 -0.2994  0.2792  0.0785
  587MOL0     C79149   3.134   3.866   8.235 -0.1142 -0.2185 -0.2651
  587MOL0     C79150   3.227   3.785   8.325 -0.3486 -0.6312 -0.4959
  587MOL0     C79151   3.184   3.640   8.333  1.0676 -0.3564 -0.7556
  587MOL0     C79152   3.038   3.625   8.387 -1.0123 -0.2678 -0.2899
  587MOL0     C79153   3.020   3.626   8.545  0.5524 -0.2768  0.1530
  587MOL0    Cl79154   3.030   3.787   8.620 -0.1797  0.1329  0.4704
  587MOL0     C79155   2.791   4.016   7.908  0.4353 -0.2910  0.0436
  587MOL0     C79156   2.680   3.988   7.834  0.2990 -0.6217  0.2878
  587MOL0     O79157   2.527   3.730   7.735 -0.5082 -0.1045 -1.1516
  587MOL0     C79158   2.300   3.668   7.604  0.3249 -0.7755 -0.7885
  587MOL0     C79159   2.190   3.638   7.535 -0.7317  0.1719 -0.0500
  587MOL0     N79160   1.378   3.796   7.802 -0.5407 -0.5022  0.8412
  587MOL0     N79161   1.301   3.868   7.871  0.2898 -0.3018 -0.2614
  587MOL0     C79162   0.451   4.520   7.368  0.4005  0.0156  0.0253
  587MOL0     C79163   0.322   4.569   7.356 -0.1491  0.0322  0.3627
  587MOL0     C79164  -0.022   4.829   7.334 -0.5953 -0.4329  0.9956
  587MOL0     C79165  -0.018   4.968   7.354 -0.3013 -0.5668  0.4222
  587MOL0     C79166  -0.139   5.050   7.343 -0.4276  0.8063  0.7817
  587MOL0     C79167  -0.253   4.977   7.296 -0.9213  0.4205  0.5700
  587MOL0     O79168  -0.371   5.046   7.283  0.3596 -0.7619  0.1262
  587MOL0     C79169  -0.389   5.091   7.145 -0.1490  0.0882  0.0797
  587MOL0     C79170  -0.535   5.062   7.104  0.0187 -0.0639 -0.4978
  587MOL0     C79171  -0.541   5.063   6.947 -0.7665 -0.9914  0.1153
  587MOL0     C79172  -0.686   5.029   6.918 -0.2790  0.4200 -1.1771
  587MOL0     C79173  -0.711   5.031   6.777  0.3365  1.2468 -1.3707
  587MOL0     C79174  -0.727   5.038   6.658 -0.5200  0.4232  0.4686
  587MOL0     C79175  -0.243   4.847   7.261  0.3440 -0.1046 -0.3671
  587MOL0     C79176  -0.130   4.765   7.283  0.2285  1.1197 -0.9263
  587MOL0     C79177  -0.126   4.620   7.241 -1.3006 -0.1407 -0.5953
  587MOL0     H79178   0.369   4.768   7.079  2.2823  0.7369 -1.1388
  587MOL0     H79179   0.601   4.657   7.098  0.7894  1.9518  1.7280
  587MOL0     H79180   0.849   4.575   7.407  0.3945  0.6597  2.7195
  587MOL0     H79181   0.689   4.612   7.474  1.1527  0.0300  1.3673
  587MOL0     H79182   0.751   4.325   7.424  0.0350  2.0818 -1.6391
  587MOL0     H79183   0.673   4.399   7.563 -1.6745 -0.1959 -2.5595
  587MOL0     H79184   0.855   4.446   7.692  5.0018  2.9045  0.4117
  587MOL0     H79185   0.956   4.473   7.557 -0.3979  2.0948  0.0625
  587MOL0     H79186   0.893   4.204   7.687 -1.0107 -0.6054 -0.5376
  587MOL0     H79187   0.960   4.212   7.529  2.4531  2.0941 -1.7260
  587MOL0     H79188   1.168   4.310   7.607  2.8419 -2.2314  1.5508
  587MOL0     H79189   1.071   4.392   7.736 -2.9923 -1.4758  1.0415
  587MOL0     H79190   1.054   4.146   7.839 -1.9185  0.7377 -2.6772
  587MOL0     H79191   1.152   4.091   7.707 -3.0086  0.1507 -1.5277
  587MOL0     H79192   1.233   4.301   7.918 -0.7796  0.9767 -1.2896
  587MOL0     H79193   1.337   4.230   7.778  1.7388  0.9955  1.4248
  587MOL0     H79194   1.385   4.145   8.026  1.7314 -0.0397 -1.9498
  587MOL0     H79195   1.232   4.060   8.022 -0.2819 -0.6211  0.7042
  587MOL0     H79196   1.566   4.058   7.853  0.1662 -0.7949 -2.8639
  587MOL0     H79197   1.690   3.900   7.709 -2.5611  3.2385  0.0777
  587MOL0     H79198   1.669   3.761   7.804  1.5080  0.8426 -0.6090
  587MOL0     H79199   1.551   3.636   7.629  1.9989 -1.6881  0.3328
  587MOL0     H79200   1.591   3.771   7.513  0.8550  1.5538 -0.1026
  587MOL0     H79201   1.739   3.550   7.533 -0.7985  1.1164 -0.3230
  587MOL0     H79202   1.800   3.631   7.680  0.6942  1.2334  0.3794
  587MOL0     H79203   1.846   3.829   7.524 -0.1228  0.3452 -1.1287
  587MOL0     H79204   1.795   3.736   7.388  0.8287 -1.0605 -1.0928
  587MOL0     H79205   2.004   3.887   7.629 -0.4578  0.7003  1.9407
  587MOL0     H79206   2.189   3.935   7.780 -1.8269 -2.3422  3.1901
  587MOL0     H79207   2.453   3.925   8.070  0.1926  0.2220  0.6768
  587MOL0     H79208   2.656   3.958   8.218  1.6525 -2.5386 -1.0199
  587MOL0     H79209   2.947   4.177   8.033  0.2100 -2.0711 -1.4344
  587MOL0     H79210   2.992   4.189   8.208  1.8781 -1.0547  1.4144
  587MOL0     H79211   3.107   4.005   7.990 -0.1645 -3.4824  1.3215
  587MOL0     H79212   3.188   4.146   8.053 -0.6117 -1.6633 -4.2091
  587MOL0     H79213   3.294   3.990   8.173 -0.5233  1.1203 -1.3276
  587MOL0     H79214   3.181   4.057   8.289  2.2602  1.3677 -0.3818
  587MOL0     H79215   3.104   3.811   8.144 -5.7517  1.2207  0.3226
  587MOL0     H79216   3.050   3.890   8.300  2.2165 -0.6357  3.1239
  587MOL0     H79217   3.207   3.840   8.418  1.6206  0.4733 -0.6757
  587MOL0     H79218   3.334   3.805   8.318 -0.2692 -0.3572  1.1793
  587MOL0     H79219   3.189   3.603   8.230  0.2474 -2.0795 -0.2162
  587MOL0     H79220   3.256   3.594   8.401 -1.0569 -2.5109  0.2021
  587MOL0     H79221   2.998   3.527   8.359 -3.1982  0.1743  1.1062
  587MOL0     H79222   2.982   3.702   8.335  2.5328  0.9597 -2.6762
  587MOL0     H79223   2.924   3.577   8.561 -0.2171  0.2901 -2.2694
  587MOL0     H79224   3.105   3.575   8.592  2.0328 -0.3597 -2.4101
  587MOL0     H79225   2.876   4.063   7.859 -0.5658  1.5452 -0.0294
  587MOL0     H79226   2.688   3.992   7.726  2.1388  1.2247  0.4195
  587MOL0     H79227   2.385   3.603   7.585  1.2848  0.5424 -1.1010
  587MOL0     H79228   2.195   3.548   7.474 -0.7693 -0.2573  0.5673
  587MOL0     H79229   0.466   4.437   7.437  0.9501 -1.0739 -1.3435
  587MOL0     H79230   0.240   4.553   7.425 -1.8265  1.3554 -1.1846
  587MOL0     H79231   0.077   5.014   7.374  0.7817  0.0874 -4.8150
  587MOL0     H79232  -0.139   5.153   7.375 -1.0993  0.6539  1.3020
  587MOL0     H79233  -0.321   5.036   7.080  1.3908  1.8206  0.1390
  587MOL0     H79234  -0.370   5.199   7.141  0.8839 -0.1027 -0.3595
  587MOL0     H79235  -0.597   5.140   7.148  0.0668  0.5559 -1.4945
  587MOL0     H79236  -0.576   4.967   7.140  2.7611 -0.3727  2.2009
  587MOL0     H79237  -0.469   5.002   6.891  2.4792 -0.2603  3.1488
  587MOL0     H79238  -0.514   5.163   6.910 -0.2505 -1.0690  0.2638
  587MOL0     H79239  -0.703   4.924   6.942  0.0987  0.7425  0.7174
  587MOL0     H79240  -0.753   5.090   6.980  0.7012  0.1513  0.1905
  587MOL0     H79241  -0.727   5.056   6.552 -0.9632  1.9773  0.7014
  587MOL0     H79242  -0.330   4.795   7.225 -1.0161  3.1054 -2.1299
  587MOL0     H79243  -0.226   4.575   7.250 -1.8900  1.1665 -0.4688
  587MOL0     H79244  -0.105   4.620   7.134  2.1520 -2.6753 -0.0955
  587MOL0     H79245  -0.055   4.558   7.296 -0.8410 -0.5307 -1.5996
  588MOL0     O79246   7.889   2.655   9.775 -0.2718 -0.0009 -0.4386
  588MOL0     C79247   7.886   2.534   9.734 -0.0936 -0.0502 -0.3068
  588MOL0     O79248   7.788   2.447   9.763  0.0969  0.5147  0.5308
  588MOL0     C79249   7.682   2.497   9.832  0.1785  0.2805  0.6559
  588MOL0     C79250   7.682   2.468   9.967 -0.3477 -0.7068  0.8350
  588MOL0     C79251   7.563   2.472  10.045 -0.2087 -0.7238  0.8197
  588MOL0     C79252   7.453   2.533   9.988  0.3526 -0.1532 -0.8779
  588MOL0     O79253   7.343   2.556  10.066 -0.3107 -0.2221  0.5679
  588MOL0     C79254   7.217   2.527   9.999  0.5391 -0.3066  0.2063
  588MOL0     C79255   7.099   2.499  10.094 -0.2477 -0.1100 -0.3196
  588MOL0     C79256   7.087   2.609  10.197  0.2549 -0.4802  0.2521
  588MOL0     C79257   7.008   2.556  10.318 -0.0307  0.3667  0.2545
  588MOL0     C79258   6.942   2.668  10.394  0.6995 -0.6070 -0.0772
  588MOL0     C79259   6.901   2.640  10.539 -0.1342  0.1280 -0.0270
  588MOL0     C79260   6.833   2.507  10.562  1.0499  0.3215  0.5266
  588MOL0     C79261   6.707   2.493  10.477  0.8191  0.4572 -0.4910
  588MOL0     N79262   6.612   2.605  10.498  0.7897 -0.2223  0.2553
  588MOL0     C79263   6.526   2.620  10.605 -0.2309  0.1178 -0.4178
  588MOL0     C79264   6.481   2.750  10.588 -0.0517  0.1793 -0.3132
  588MOL0     C79265   6.382   2.814  10.682  0.5752  0.5362 -0.7546
  588MOL0     C79266   6.265   2.866  10.604  0.3683  0.6505  0.9327
  588MOL0     C79267   6.151   2.898  10.701 -0.9913 -0.3143 -0.1604
  588MOL0     C79268   6.156   3.034  10.773  0.3989  0.3542 -0.4203
  588MOL0     O79269   6.185   3.009  10.908  0.0719 -0.2935 -0.7220
  588MOL0     C79270   6.261   3.114  10.957 -0.8467  0.5846  0.2428
  588MOL0     C79271   6.225   3.153  11.089 -1.1071 -0.1231 -0.0630
  588MOL0     C79272   6.306   3.241  11.160 -0.0006 -0.6277 -0.0728
  588MOL0     C79273   6.423   3.288  11.101  0.1672  0.5043  0.9810
  588MOL0     C79274   6.517   3.383  11.170  0.9773  0.1083 -0.4942
  588MOL0     O79275   6.465   3.471  11.254  0.1308  0.6829  0.6428
  588MOL0     C79276   6.538   3.542  11.350  0.2980  1.0032 -0.1347
  588MOL0     C79277   6.608   3.474  11.454  0.2351 -0.3921 -0.0024
  588MOL0     C79278   6.682   3.549  11.551  0.5410  1.0234 -0.8248
  588MOL0     C79279   6.678   3.685  11.563 -0.8658 -0.0837 -0.0185
  588MOL0     O79280   6.754   3.758  11.654  0.0144  0.1736  0.6060
  588MOL0     C79281   6.891   3.721  11.692  1.1773  0.1793  0.8014
  588MOL0     C79282   6.977   3.848  11.660 -1.4224  0.6508  0.0196
  588MOL0     C79283   6.965   3.965  11.760 -0.3004  0.4934 -0.1394
  588MOL0     C79284   6.994   3.916  11.904  0.3297  0.3686 -0.3402
  588MOL0     C79285   6.987   4.038  12.000  0.3232  0.1324  1.0499
  588MOL0     C79286   6.953   3.980  12.147  0.8324  0.5034  0.7420
  588MOL0     C79287   7.058   3.883  12.209  0.3179 -0.7091  0.3309
  588MOL0     C79288   7.019   3.817  12.342 -0.6894  0.3290  0.7296
  588MOL0    Cl79289   7.129   3.687  12.393 -0.1183  0.0482  0.2141
  588MOL0     C79290   6.594   3.751  11.469 -0.2923 -0.3322  0.3626
  588MOL0     C79291   6.532   3.675  11.365  0.5012  0.4234 -0.4909
  588MOL0     O79292   6.633   3.359  11.153 -0.1517 -0.0985 -0.8756
  588MOL0     C79293   6.463   3.252  10.969 -0.1868 -0.2076  0.2151
  588MOL0     C79294   6.382   3.159  10.905 -0.4218  0.0766 -0.6630
  588MOL0     N79295   6.538   2.813  10.480  0.7213 -0.2712 -0.1679
  588MOL0     N79296   6.611   2.722  10.425  0.0253  0.0507 -0.7811
  588MOL0     C79297   7.466   2.586   9.857  1.0877 -1.0376 -1.1368
  588MOL0     C79298   7.578   2.573   9.775 -0.6546  0.0380  0.1846
  588MOL0     C79299   7.997   2.490   9.639 -0.8977 -0.8389  1.0039
  588MOL0     C79300   8.118   2.565   9.645  0.1185  0.5619 -0.0885
  588MOL0     C79301   8.219   2.528   9.558  0.3130 -0.0467 -0.0434
  588MOL0     C79302   8.221   2.430   9.466  0.2884  0.6889 -0.0508
  588MOL0     O79303   8.341   2.401   9.400 -0.0104 -0.0842  0.0031
  588MOL0     C79304   8.312   2.335   9.271 -1.0673 -0.7421  0.0653
  588MOL0     C79305   8.425   2.382   9.164  0.5846 -0.2165 -0.1938
  588MOL0     C79306   8.568   2.362   9.222  0.2467 -0.2246  1.0328
  588MOL0     C79307   8.666   2.419   9.119  0.8540  0.1489 -0.6728
  588MOL0     C79308   8.806   2.399   9.158 -0.1523  0.0462 -0.2097
  588MOL0     C79309   8.924   2.390   9.192 -1.3724 -0.1775  0.3371
  588MOL0     C79310   8.108   2.344   9.475 -0.2732  0.3993 -0.6551
  588MOL0     C79311   7.990   2.375   9.544 -0.1381 -0.2069 -0.3393
  588MOL0     C79312   7.869   2.272   9.533 -0.2366  0.4083 -0.2807
  588MOL0     H79313   7.775   2.436  10.012 -0.4701 -0.6530  1.1317
  588MOL0     H79314   7.563   2.432  10.146 -2.1423 -1.5580  0.5269
  588MOL0     H79315   7.190   2.613   9.937 -0.9553 -0.4862  0.5869
  588MOL0     H79316   7.240   2.446   9.929 -0.0408 -0.0053 -0.3456
  588MOL0     H79317   7.115   2.403  10.144 -0.0050  0.7044  1.2287
  588MOL0     H79318   7.007   2.500  10.034  0.1328  0.5464 -0.9027
  588MOL0     H79319   7.050   2.701  10.151  0.7404  0.3696  1.5150
  588MOL0     H79320   7.189   2.629  10.231  1.1514  0.1010 -2.5853
  588MOL0     H79321   6.934   2.478  10.296 -0.5720  0.4725  1.5996
  588MOL0     H79322   7.092   2.510  10.371  0.9769 -1.4598 -2.7203
  588MOL0     H79323   7.011   2.753  10.392  1.4781 -1.2397 -0.4085
  588MOL0     H79324   6.862   2.703  10.327  1.1542  1.4243  0.3657
  588MOL0     H79325   6.995   2.643  10.596 -0.6575  0.4579  0.8254
  588MOL0     H79326   6.844   2.726  10.575  2.4339  1.5989  0.8115
  588MOL0     H79327   6.795   2.494  10.664 -1.1233 -4.6156 -0.5788
  588MOL0     H79328   6.896   2.421  10.538  0.4628 -0.0354  0.2329
  588MOL0     H79329   6.732   2.499  10.371  0.6946 -1.3237 -0.6573
  588MOL0     H79330   6.659   2.398  10.504  3.6915 -0.6922  1.0013
  588MOL0     H79331   6.499   2.565  10.695  1.5411 -0.2667 -0.0951
  588MOL0     H79332   6.348   2.736  10.750  3.3233 -2.8510 -2.8681
  588MOL0     H79333   6.415   2.900  10.741 -1.2968 -0.6299  2.2080
  588MOL0     H79334   6.298   2.953  10.547  0.7249  0.3628  0.6879
  588MOL0     H79335   6.236   2.788  10.532 -0.0252  2.9375 -1.5428
  588MOL0     H79336   6.144   2.808  10.763  0.3037 -1.0093 -0.9776
  588MOL0     H79337   6.059   2.892  10.642 -0.2512 -4.3836 -1.2101
  588MOL0     H79338   6.052   3.067  10.784  0.3759 -0.3309  2.0658
  588MOL0     H79339   6.213   3.114  10.725  2.3007 -0.7729 -0.1548
  588MOL0     H79340   6.141   3.096  11.129 -0.1962 -1.2474  0.3158
  588MOL0     H79341   6.286   3.264  11.264  1.6804 -0.4944  0.2497
  588MOL0     H79342   6.615   3.366  11.450  1.8941 -0.2959 -1.5080
  588MOL0     H79343   6.738   3.472  11.601 -0.7740  0.6144  0.0524
  588MOL0     H79344   6.904   3.696  11.797 -1.4430 -1.0420  0.9126
  588MOL0     H79345   6.912   3.631  11.634 -1.5188 -0.4443  0.6563
  588MOL0     H79346   7.081   3.813  11.659 -1.0733  1.6698 -1.1312
  588MOL0     H79347   6.958   3.887  11.560  2.1078  3.2173  0.1766
  588MOL0     H79348   7.042   4.036  11.729 -1.5908  2.0366  0.0507
  588MOL0     H79349   6.870   4.019  11.752  0.2700  1.5117 -0.1911
  588MOL0     H79350   7.086   3.860  11.917 -0.3961 -1.0788 -1.1499
  588MOL0     H79351   6.907   3.857  11.932  0.7900  0.4143  1.2407
  588MOL0     H79352   6.909   4.106  11.966 -1.2017 -2.3461 -0.7437
  588MOL0     H79353   7.080   4.093  11.982 -0.8555  1.9345  0.1536
  588MOL0     H79354   6.931   4.063  12.214 -3.7563  0.0148  0.1640
  588MOL0     H79355   6.858   3.926  12.141  0.2743  1.3523  1.6199
  588MOL0     H79356   7.152   3.937  12.226  1.3252 -1.1470 -3.0775
  588MOL0     H79357   7.081   3.809  12.132  1.0526  0.7712 -0.9390
  588MOL0     H79358   6.998   3.894  12.417 -4.6940 -0.1552  0.3123
  588MOL0     H79359   6.921   3.773  12.326  0.5393 -2.1493 -0.4996
  588MOL0     H79360   6.592   3.860  11.474 -0.9827 -0.3571  0.7263
  588MOL0     H79361   6.481   3.729  11.285  1.3943  0.3244 -1.1419
  588MOL0     H79362   6.553   3.284  10.918  0.2542  0.2463  1.2365
  588MOL0     H79363   6.413   3.116  10.810 -0.0889  0.3523 -0.6790
  588MOL0     H79364   7.390   2.634   9.797  0.7234 -1.5918 -1.1290
  588MOL0     H79365   7.589   2.607   9.672 -0.9700 -1.2738 -0.2964
  588MOL0     H79366   8.134   2.645   9.716  2.6512 -0.1886  0.2838
  588MOL0     H79367   8.306   2.594   9.564 -0.3343  0.8653 -0.4572
  588MOL0     H79368   8.210   2.360   9.238 -1.6229  2.7724  3.6912
  588MOL0     H79369   8.314   2.228   9.293  3.2043 -1.0011 -0.6313
  588MOL0     H79370   8.390   2.485   9.148  0.2110 -0.7720 -3.6650
  588MOL0     H79371   8.424   2.330   9.068  0.3752  1.5865 -1.2140
  588MOL0     H79372   8.587   2.255   9.236  0.9107 -0.3470 -0.5546
  588MOL0     H79373   8.587   2.416   9.315  3.7915 -0.6820  0.7326
  588MOL0     H79374   8.644   2.381   9.018 -2.8369  0.6983 -0.1945
  588MOL0     H79375   8.662   2.528   9.121 -2.9228  0.1424  2.3137
  588MOL0     H79376   9.019   2.380   9.239  0.6184  0.9111 -3.1008
  588MOL0     H79377   8.117   2.259   9.407  1.0410  3.0602 -4.1100
  588MOL0     H79378   7.901   2.189   9.470 -0.8247 -0.8559  1.0130
  588MOL0     H79379   7.850   2.221   9.628 -0.5819 -1.0018 -1.0948
  588MOL0     H79380   7.774   2.318   9.504 -1.4091 -0.6783  1.5987
  589MOL0     O79381   6.032   1.101   6.829  0.4707  0.4413 -0.1111
  589MOL0     C79382   6.092   1.113   6.939  0.2589  0.8390 -0.4934
  589MOL0     O79383   6.221   1.143   6.965  0.2503 -0.6687  0.4390
  589MOL0     C79384   6.317   1.164   6.868 -0.3525 -0.6496  0.7244
  589MOL0     C79385   6.302   1.192   6.734  0.1018  0.6446 -0.9571
  589MOL0     C79386   6.404   1.180   6.638  0.4444 -0.2023 -0.5604
  589MOL0     C79387   6.540   1.176   6.689  0.6455 -0.5141 -0.1282
  589MOL0     O79388   6.651   1.190   6.608 -0.7925 -0.6558  0.5287
  589MOL0     C79389   6.634   1.198   6.463  0.0352  0.7559 -0.0645
  589MOL0     C79390   6.762   1.203   6.369 -0.0253 -0.5427 -0.1256
  589MOL0     C79391   6.848   1.079   6.391  0.2408  0.0303  0.2458
  589MOL0     C79392   6.989   1.099   6.351  0.5030 -0.5778  0.5462
  589MOL0     C79393   7.001   1.134   6.205  0.1072 -0.4846  0.3609
  589MOL0     C79394   7.152   1.162   6.180 -0.3073  0.3429  0.1499
  589MOL0     C79395   7.186   1.212   6.038  0.3588  0.3509 -0.4635
  589MOL0     C79396   7.333   1.247   6.026  0.6046  0.0559 -0.0389
  589MOL0     N79397   7.349   1.279   5.884  0.4066 -1.0217 -0.7745
  589MOL0     C79398   7.321   1.399   5.821 -0.7448 -0.2385  0.1950
  589MOL0     C79399   7.329   1.365   5.687  0.6391  1.2987  0.0096
  589MOL0     C79400   7.320   1.451   5.562 -0.6214  0.2503  1.2204
  589MOL0     C79401   7.461   1.512   5.530  0.8285  0.5710 -0.1497
  589MOL0     C79402   7.565   1.411   5.476  0.7907 -0.1305 -0.1925
  589MOL0     C79403   7.694   1.459   5.411  0.3166  0.2515  0.3221
  589MOL0     O79404   7.758   1.568   5.480 -0.8917 -0.6476  0.2612
  589MOL0     C79405   7.869   1.622   5.413  0.1200  0.3825  0.1424
  589MOL0     C79406   7.891   1.754   5.436  0.2084 -0.2811 -0.2692
  589MOL0     C79407   7.982   1.825   5.358 -0.4152 -0.5799 -0.1587
  589MOL0     C79408   8.048   1.763   5.243  1.1112 -0.5695  0.9432
  589MOL0     C79409   8.114   1.847   5.144  0.0390 -0.1345 -0.1851
  589MOL0     O79410   8.180   1.783   5.049  0.3264 -0.3049  0.1071
  589MOL0     C79411   8.230   1.847   4.939  0.4894  0.3303  0.5877
  589MOL0     C79412   8.316   1.754   4.872  0.0566 -0.0715 -0.5760
  589MOL0     C79413   8.392   1.791   4.754  0.1488 -0.2232  0.0143
  589MOL0     C79414   8.363   1.914   4.694  0.3130 -0.5040 -0.3133
  589MOL0     O79415   8.437   1.955   4.593 -0.5162 -0.2672  0.1592
  589MOL0     C79416   8.559   2.025   4.634 -0.5590 -0.0338 -0.2942
  589MOL0     C79417   8.621   2.099   4.513  0.1389 -0.4459  0.3405
  589MOL0     C79418   8.764   2.153   4.539 -0.2093 -0.4001 -0.5874
  589MOL0     C79419   8.825   2.225   4.426  0.1587  0.0183  0.0892
  589MOL0     C79420   8.969   2.272   4.443  0.9600 -0.6336 -0.6494
  589MOL0     C79421   9.068   2.151   4.425 -0.3747  0.9309  0.3464
  589MOL0     C79422   9.089   2.108   4.277 -0.7297  0.1943 -0.5931
  589MOL0     C79423   9.237   2.083   4.243  0.0279  0.8925 -0.2859
  589MOL0    Cl79424   9.234   2.061   4.074 -0.5460  0.1053 -0.1277
  589MOL0     C79425   8.267   1.996   4.766 -0.7398  0.2688  0.1418
  589MOL0     C79426   8.213   1.974   4.891 -0.0127 -0.2638 -0.0609
  589MOL0     O79427   8.109   1.967   5.158  0.0134  0.0732  0.0475
  589MOL0     C79428   8.032   1.622   5.229  0.8668 -0.5330  1.5800
  589MOL0     C79429   7.943   1.554   5.313 -0.3288  0.8815 -0.9029
  589MOL0     N79430   7.368   1.232   5.679 -0.0247 -0.0188  0.1960
  589MOL0     N79431   7.389   1.188   5.796 -0.3499  0.6683 -0.4296
  589MOL0     C79432   6.560   1.178   6.832 -0.3519 -0.5589 -0.1491
  589MOL0     C79433   6.446   1.170   6.916 -0.2212 -0.6973 -0.0976
  589MOL0     C79434   6.003   1.109   7.063 -0.5373 -0.2640  0.7303
  589MOL0     C79435   6.065   1.076   7.181 -0.0952  0.3437 -0.1344
  589MOL0     C79436   6.007   1.083   7.311 -1.3468 -0.4800 -0.4874
  589MOL0     C79437   5.871   1.107   7.322 -0.6470  1.1859 -0.7093
  589MOL0     O79438   5.813   1.092   7.444  0.1993 -0.0478 -0.3375
  589MOL0     C79439   5.677   1.115   7.466  0.0407 -0.6685 -0.5396
  589MOL0     C79440   5.634   1.063   7.604 -0.6150  0.5950 -0.5994
  589MOL0     C79441   5.717   1.142   7.702 -0.4109 -0.2139  0.4711
  589MOL0     C79442   5.693   1.090   7.846  0.7753 -0.9710  0.3494
  589MOL0     C79443   5.766   1.194   7.932 -0.4138 -1.0152  0.2026
  589MOL0     C79444   5.846   1.254   7.991  0.6668 -0.3295  0.4350
  589MOL0     C79445   5.798   1.113   7.203 -0.0019 -0.4634 -0.3855
  589MOL0     C79446   5.868   1.131   7.071  1.4364  0.4990  0.1564
  589MOL0     C79447   5.774   1.152   6.957  0.6813  0.1179  0.6277
  589MOL0     H79448   6.203   1.190   6.689 -1.3103 -0.7235  1.9118
  589MOL0     H79449   6.365   1.172   6.537 -0.9277  2.5085 -0.3540
  589MOL0     H79450   6.583   1.104   6.440  1.6693 -0.7332  1.9708
  589MOL0     H79451   6.576   1.283   6.426 -1.1267  0.6008  1.3398
  589MOL0     H79452   6.825   1.292   6.384 -2.0620  1.1713 -1.1881
  589MOL0     H79453   6.731   1.211   6.264 -0.4357 -2.7212 -0.2174
  589MOL0     H79454   6.807   1.009   6.317  1.0981 -0.2938  0.0660
  589MOL0     H79455   6.840   1.049   6.496  0.1758  1.6402  0.7172
  589MOL0     H79456   7.032   1.181   6.409  0.4355 -0.7137  0.7909
  589MOL0     H79457   7.050   1.009   6.366 -0.6124 -1.1613  1.8169
  589MOL0     H79458   6.971   1.046   6.147  1.1760 -1.1407  0.7848
  589MOL0     H79459   6.931   1.212   6.173 -0.5071 -0.8243  0.8543
  589MOL0     H79460   7.191   1.238   6.248 -0.1032  0.8574 -0.5252
  589MOL0     H79461   7.202   1.066   6.199 -0.2481  0.6718  1.7731
  589MOL0     H79462   7.142   1.312   6.025  2.6635  1.6725  1.1216
  589MOL0     H79463   7.158   1.134   5.967  0.3096  0.0267 -0.0900
  589MOL0     H79464   7.357   1.330   6.093  0.2577 -0.0865  0.2643
  589MOL0     H79465   7.400   1.166   6.057 -1.2170 -0.2550  3.6413
  589MOL0     H79466   7.292   1.497   5.858  0.5206  0.3697 -0.3657
  589MOL0     H79467   7.271   1.396   5.481  0.9148  2.3652 -1.2860
  589MOL0     H79468   7.253   1.535   5.580 -0.2564  1.3228 -1.8840
  589MOL0     H79469   7.456   1.587   5.450  4.4032 -0.3288 -1.4038
  589MOL0     H79470   7.503   1.563   5.617 -0.7644  1.7823 -0.0413
  589MOL0     H79471   7.508   1.342   5.413  1.3091 -0.1462 -0.6477
  589MOL0     H79472   7.598   1.357   5.566 -3.4340 -0.1219  1.5807
  589MOL0     H79473   7.667   1.485   5.308  2.5619  0.3841 -0.2817
  589MOL0     H79474   7.767   1.378   5.403  2.5741  2.2677 -0.7078
  589MOL0     H79475   7.835   1.809   5.510  1.2150  0.2364  0.1310
  589MOL0     H79476   7.989   1.932   5.374 -0.8474 -0.4908 -0.5392
  589MOL0     H79477   8.331   1.654   4.912  1.0751 -1.2849 -3.6123
  589MOL0     H79478   8.475   1.727   4.726  0.4672 -2.1350  4.4960
  589MOL0     H79479   8.534   2.108   4.700 -2.1486 -0.9216  0.2901
  589MOL0     H79480   8.643   1.964   4.668 -1.8737 -1.9950 -0.4075
  589MOL0     H79481   8.622   2.029   4.429 -0.6420  0.1052 -0.1374
  589MOL0     H79482   8.554   2.179   4.480 -2.8357 -3.1868 -0.8682
  589MOL0     H79483   8.753   2.217   4.627 -0.9186 -1.8962  0.4434
  589MOL0     H79484   8.838   2.077   4.567  1.5674  1.5375  0.2711
  589MOL0     H79485   8.775   2.322   4.412  1.9331  1.1704  1.3194
  589MOL0     H79486   8.809   2.183   4.326  2.0012 -0.6543  0.0312
  589MOL0     H79487   8.979   2.312   4.544 -3.0521 -3.4204  1.1302
  589MOL0     H79488   9.003   2.356   4.383  3.0014  1.0112  2.5537
  589MOL0     H79489   9.163   2.189   4.467  1.0994 -1.1907 -0.9051
  589MOL0     H79490   9.041   2.068   4.491  0.5931  0.7248  0.4997
  589MOL0     H79491   9.057   2.188   4.210  1.0351  0.1079 -1.5935
  589MOL0     H79492   9.037   2.015   4.254  1.4258 -1.0528 -0.7594
  589MOL0     H79493   9.301   2.168   4.268  0.9909 -0.0654  0.6402
  589MOL0     H79494   9.271   1.992   4.292 -2.3622  0.2480  0.2980
  589MOL0     H79495   8.240   2.096   4.733  0.2526  1.1244  1.7701
  589MOL0     H79496   8.152   2.044   4.947  1.0521 -1.9049  3.4507
  589MOL0     H79497   8.082   1.558   5.157 -1.3712 -0.4279 -0.1860
  589MOL0     H79498   7.947   1.445   5.315 -0.9563  0.8663  0.9050
  589MOL0     H79499   6.664   1.164   6.860 -0.0975  0.5402 -0.4869
  589MOL0     H79500   6.463   1.163   7.023 -0.2241  0.3390 -0.0180
  589MOL0     H79501   6.167   1.039   7.177  0.1355  0.6643  1.8465
  589MOL0     H79502   6.060   1.056   7.402  0.3237  0.0421 -1.2645
  589MOL0     H79503   5.611   1.057   7.401  2.0012 -1.7359 -1.6856
  589MOL0     H79504   5.653   1.220   7.448  0.8064 -0.9363 -3.7250
  589MOL0     H79505   5.650   0.954   7.611  1.3699  0.8734 -0.0003
  589MOL0     H79506   5.530   1.096   7.603 -0.2829  1.6407 -1.0595
  589MOL0     H79507   5.685   1.247   7.695  0.3915 -0.0432 -1.3178
  589MOL0     H79508   5.824   1.142   7.677 -0.6895 -0.5294 -0.7569
  589MOL0     H79509   5.586   1.085   7.869  1.0610 -1.6435  1.6278
  589MOL0     H79510   5.741   0.992   7.855  0.3297 -1.2152  0.1299
  589MOL0     H79511   5.916   1.318   8.041  0.2571  1.9725 -1.7494
  589MOL0     H79512   5.690   1.112   7.209  0.0782 -0.6194  2.9849
  589MOL0     H79513   5.669   1.156   6.989  0.1628  0.2974 -0.9823
  589MOL0     H79514   5.797   1.247   6.908 -2.7923 -0.3310 -2.2925
  589MOL0     H79515   5.787   1.076   6.879 -0.7153  0.7701 -0.3012
  590MOL0     O79516   3.785   1.430   7.699  0.1996  0.3824 -0.2077
  590MOL0     C79517   3.768   1.374   7.590  0.3910  0.1334 -0.7195
  590MOL0     O79518   3.868   1.316   7.525  0.2018  0.6834  0.5399
  590MOL0     C79519   3.991   1.296   7.587  0.2016 -0.3382 -0.6826
  590MOL0     C79520   4.012   1.196   7.689  0.5904  0.4324  0.3236
  590MOL0     C79521   4.139   1.160   7.728 -0.7274 -0.1878 -0.0621
  590MOL0     C79522   4.247   1.209   7.659 -0.8875 -0.7218  0.6439
  590MOL0     O79523   4.372   1.178   7.704  0.6834  0.3863  0.6173
  590MOL0     C79524   4.395   1.220   7.837  0.4942 -0.5750  0.1203
  590MOL0     C79525   4.539   1.215   7.880 -0.4325 -0.9830 -1.5147
  590MOL0     C79526   4.605   1.084   7.827  0.2876  0.0608 -0.2990
  590MOL0     C79527   4.737   1.059   7.907 -0.1430 -0.8845 -0.5350
  590MOL0     C79528   4.850   1.096   7.825 -0.7721 -0.2164 -0.2855
  590MOL0     C79529   4.970   1.074   7.915  0.5805  0.0094 -0.3090
  590MOL0     C79530   5.098   1.108   7.846  0.0548 -0.4083 -0.6340
  590MOL0     C79531   5.151   0.993   7.759  0.0654  0.1791 -0.2786
  590MOL0     N79532   5.249   0.909   7.829 -0.2996 -0.0825  0.5801
  590MOL0     C79533   5.259   0.851   7.955  0.5648  0.1687  0.7174
  590MOL0     C79534   5.385   0.798   7.968 -0.0301 -0.2605 -0.1080
  590MOL0     C79535   5.455   0.715   8.077  1.0309 -0.1406 -0.4533
  590MOL0     C79536   5.577   0.797   8.133 -0.2183 -0.0169 -0.0234
  590MOL0     C79537   5.639   0.723   8.249  0.1018  0.4495 -0.2011
  590MOL0     C79538   5.789   0.753   8.286 -0.6726 -0.3031 -0.0683
  590MOL0     O79539   5.800   0.897   8.317 -0.1964  0.1000  0.2838
  590MOL0     C79540   5.917   0.941   8.362 -0.9351 -0.1472 -0.1389
  590MOL0     C79541   5.955   0.921   8.497  0.4686  0.3060  0.8529
  590MOL0     C79542   6.083   0.973   8.535  0.3381 -0.5282  0.1268
  590MOL0     C79543   6.172   1.034   8.448  0.8283  0.1056 -0.1660
  590MOL0     C79544   6.317   1.068   8.487  0.0782 -0.5666 -0.7073
  590MOL0     O79545   6.410   1.092   8.384  0.2570 -1.1247  0.1361
  590MOL0     C79546   6.539   1.102   8.426  1.1945  0.3383  0.2460
  590MOL0     C79547   6.604   1.017   8.505 -0.1717  0.3259 -0.5904
  590MOL0     C79548   6.719   1.059   8.575 -0.4025 -0.9957 -0.1696
  590MOL0     C79549   6.779   1.183   8.545 -0.5449  0.1725  0.2856
  590MOL0     O79550   6.888   1.208   8.625 -0.0657 -0.1041 -0.2936
  590MOL0     C79551   6.905   1.351   8.661 -0.5515  0.5175 -0.1112
  590MOL0     C79552   7.041   1.364   8.727 -0.1985  0.4148 -0.1337
  590MOL0     C79553   7.061   1.515   8.773  0.7439  0.8204  0.3843
  590MOL0     C79554   7.205   1.554   8.828  0.1498  0.2123 -0.2936
  590MOL0     C79555   7.215   1.706   8.860 -0.1733 -0.1407 -0.2512
  590MOL0     C79556   7.215   1.801   8.744  1.1662  0.6531 -0.5281
  590MOL0     C79557   7.169   1.937   8.789  0.2859  0.2409  0.0255
  590MOL0     C79558   7.062   1.996   8.706  0.7341  0.3370 -0.0499
  590MOL0    Cl79559   6.909   1.911   8.725 -0.2661 -0.1448 -0.2097
  590MOL0     C79560   6.715   1.262   8.461 -0.3919 -0.1478  0.4184
  590MOL0     C79561   6.589   1.223   8.398 -0.2958 -0.4697 -0.0694
  590MOL0     O79562   6.349   1.059   8.611 -0.3504 -0.2447 -0.1462
  590MOL0     C79563   6.124   1.059   8.324 -0.6798  0.5266 -0.0495
  590MOL0     C79564   6.011   1.003   8.272 -0.5460  0.1613 -0.3111
  590MOL0     N79565   5.445   0.819   7.845  0.4268  0.3373  0.1532
  590MOL0     N79566   5.369   0.894   7.770  0.3439 -0.2297 -0.5330
  590MOL0     C79567   4.233   1.301   7.557 -0.1159  0.0611 -0.3269
  590MOL0     C79568   4.104   1.335   7.519  0.3852  0.2728  0.4358
  590MOL0     C79569   3.627   1.373   7.534  0.3969  0.6351 -0.5708
  590MOL0     C79570   3.584   1.267   7.458  0.4667  0.6780 -0.1791
  590MOL0     C79571   3.450   1.270   7.399 -1.6443  0.4848  0.4043
  590MOL0     C79572   3.362   1.368   7.425 -0.8182  0.7103  0.0734
  590MOL0     O79573   3.241   1.366   7.353 -0.2380 -0.4465  0.7458
  590MOL0     C79574   3.146   1.283   7.410 -0.3458 -0.0088  0.4965
  590MOL0     C79575   3.090   1.323   7.548  0.1506  0.1077  0.3072
  590MOL0     C79576   3.001   1.445   7.546  0.0761  0.4942  0.2914
  590MOL0     C79577   2.947   1.478   7.683  0.1033  0.3386  0.3602
  590MOL0     C79578   2.857   1.597   7.695 -0.3036  0.0343  0.6772
  590MOL0     C79579   2.766   1.682   7.686 -1.4468 -0.0098 -0.1078
  590MOL0     C79580   3.408   1.475   7.495 -0.3462  0.8740  0.0756
  590MOL0     C79581   3.532   1.476   7.558 -0.1362 -1.1036 -0.8098
  590MOL0     C79582   3.560   1.602   7.627  0.5123  0.0071 -0.6833
  590MOL0     H79583   3.922   1.155   7.734 -0.0112  0.3218 -0.9195
  590MOL0     H79584   4.147   1.098   7.816 -4.3568 -1.2992 -0.3560
  590MOL0     H79585   4.372   1.326   7.855  1.1780  0.1720 -2.7996
  590MOL0     H79586   4.338   1.162   7.909 -0.1959  0.3289  0.3287
  590MOL0     H79587   4.558   1.207   7.987  0.3589 -0.7180 -1.6286
  590MOL0     H79588   4.592   1.304   7.844 -0.5084 -0.9832 -1.6303
  590MOL0     H79589   4.622   1.064   7.721 -1.3471 -2.3052 -0.1921
  590MOL0     H79590   4.542   1.000   7.858  0.1612  0.1272 -0.3700
  590MOL0     H79591   4.733   1.109   8.005 -1.6010 -2.0849  0.0591
  590MOL0     H79592   4.740   0.952   7.934  0.7243 -1.2417 -1.9607
  590MOL0     H79593   4.861   1.025   7.743 -1.8372 -1.1327  0.3256
  590MOL0     H79594   4.849   1.200   7.793  1.4331  0.5062  1.7299
  590MOL0     H79595   4.958   1.124   8.011  2.6022 -2.5593  1.4047
  590MOL0     H79596   4.959   0.969   7.940 -2.4609  0.4204  0.5258
  590MOL0     H79597   5.180   1.129   7.916 -0.3531  2.2611 -0.8371
  590MOL0     H79598   5.087   1.195   7.781  1.7501 -0.7084 -1.3609
  590MOL0     H79599   5.066   0.939   7.716 -1.6134 -0.4853  3.5062
  590MOL0     H79600   5.193   1.034   7.666  2.6506  2.0017  1.5492
  590MOL0     H79601   5.185   0.845   8.035  1.8546 -2.1699  1.8414
  590MOL0     H79602   5.383   0.686   8.153  0.7196  0.9862 -0.2950
  590MOL0     H79603   5.490   0.623   8.029 -0.0067 -0.5745 -0.3980
  590MOL0     H79604   5.649   0.809   8.051  0.3127  3.3060  0.8014
  590MOL0     H79605   5.548   0.896   8.169 -0.0318  1.4746 -3.5974
  590MOL0     H79606   5.632   0.614   8.236  2.1969  0.1699  0.7031
  590MOL0     H79607   5.573   0.749   8.332 -0.4457 -0.5931 -0.2818
  590MOL0     H79608   5.859   0.736   8.203 -1.5579  3.1246 -1.7124
  590MOL0     H79609   5.825   0.699   8.374  0.3093  2.0395  1.0788
  590MOL0     H79610   5.889   0.883   8.575 -0.0424  0.2467  0.3953
  590MOL0     H79611   6.108   0.966   8.640  1.0602 -1.1818 -0.0786
  590MOL0     H79612   6.552   0.923   8.521  1.2828 -0.2416  1.2264
  590MOL0     H79613   6.774   0.990   8.639  0.2970  1.0372  1.5794
  590MOL0     H79614   6.897   1.410   8.569  0.4280  0.3170 -0.3380
  590MOL0     H79615   6.828   1.385   8.732 -1.3024  0.9064 -1.0852
  590MOL0     H79616   7.044   1.292   8.810 -2.3052 -1.2001 -1.3689
  590MOL0     H79617   7.119   1.337   8.655 -1.0711 -1.2644 -0.4898
  590MOL0     H79618   7.060   1.582   8.686  3.6655 -1.2401 -1.4350
  590MOL0     H79619   6.990   1.535   8.854 -0.9424  0.3159 -0.9018
  590MOL0     H79620   7.288   1.526   8.763  1.5189 -0.9210  1.8235
  590MOL0     H79621   7.216   1.498   8.922  1.2858 -0.2654 -0.7030
  590MOL0     H79622   7.301   1.708   8.927  1.2520  0.4947 -2.0180
  590MOL0     H79623   7.127   1.714   8.924 -0.0999 -1.8814  0.1204
  590MOL0     H79624   7.316   1.802   8.702  0.2783  0.2295 -2.8169
  590MOL0     H79625   7.143   1.769   8.668  1.9071 -0.7340 -0.6621
  590MOL0     H79626   7.251   2.006   8.811 -0.1299  0.0480  2.5423
  590MOL0     H79627   7.112   1.928   8.882 -3.3619  0.5264 -2.0038
  590MOL0     H79628   7.057   2.100   8.737 -1.0719 -0.3404  2.2434
  590MOL0     H79629   7.104   1.988   8.605  1.8286  0.2459  0.3963
  590MOL0     H79630   6.755   1.354   8.419  1.7596 -1.8504 -1.5413
  590MOL0     H79631   6.534   1.283   8.326 -1.1869 -1.2930 -0.0942
  590MOL0     H79632   6.192   1.110   8.256 -0.7788  2.2087  1.0337
  590MOL0     H79633   5.973   1.021   8.171 -2.5539 -1.8107  0.0010
  590MOL0     H79634   4.319   1.348   7.511  0.0932 -0.7470 -0.7824
  590MOL0     H79635   4.092   1.407   7.439 -1.8514 -2.2708 -1.7061
  590MOL0     H79636   3.660   1.192   7.438 -0.9624 -1.2017  1.1580
  590MOL0     H79637   3.411   1.189   7.338 -1.7736  1.8413 -1.3871
  590MOL0     H79638   3.191   1.185   7.430 -2.0871 -1.3114 -1.5556
  590MOL0     H79639   3.066   1.270   7.336  2.2138  0.9780 -2.6628
  590MOL0     H79640   3.168   1.346   7.621  0.3820  2.1020 -0.5111
  590MOL0     H79641   3.034   1.234   7.578 -1.9580  0.7782 -1.3120
  590MOL0     H79642   2.921   1.429   7.473 -1.7750 -0.5383  2.4189
  590MOL0     H79643   3.062   1.528   7.508  1.4831 -0.1329  1.1042
  590MOL0     H79644   2.894   1.388   7.716 -3.0182  1.7808 -0.3595
  590MOL0     H79645   3.040   1.487   7.740 -0.6213  1.7834  1.3866
  590MOL0     H79646   2.686   1.752   7.692  0.4624  2.2151  0.5875
  590MOL0     H79647   3.352   1.567   7.508 -1.1187  0.7781 -2.1780
  590MOL0     H79648   3.548   1.593   7.735 -1.7882 -2.4787 -1.0372
  590MOL0     H79649   3.664   1.633   7.615  0.2761  0.1331 -2.7620
  590MOL0     H79650   3.494   1.684   7.596 -1.7367  0.2777  3.9318
  591MOL0     O79651   2.895   7.129   3.931  0.6472 -0.1593 -0.6614
  591MOL0     C79652   2.869   7.217   4.018  0.1272 -0.7873  0.6928
  591MOL0     O79653   2.949   7.320   4.048  0.0808 -0.2370 -0.1046
  591MOL0     C79654   3.089   7.315   4.021  0.3372 -1.7494 -0.5801
  591MOL0     C79655   3.173   7.267   4.128  0.4276 -0.7409 -0.3943
  591MOL0     C79656   3.308   7.263   4.106 -0.0189  0.6995 -0.0667
  591MOL0     C79657   3.365   7.271   3.986  0.4445 -0.2605 -1.0078
  591MOL0     O79658   3.496   7.243   3.974 -0.5961  0.3730 -0.2145
  591MOL0     C79659   3.547   7.214   3.840  0.3628  0.4134 -0.8777
  591MOL0     C79660   3.670   7.133   3.864  1.2966  0.4668  0.5255
  591MOL0     C79661   3.775   7.225   3.923  0.3865  1.4586  0.5153
  591MOL0     C79662   3.900   7.136   3.954  0.9075  1.0851 -0.3996
  591MOL0     C79663   4.022   7.222   3.997  0.3976  0.8223  0.4184
  591MOL0     C79664   4.067   7.336   3.898 -0.7725  0.1631 -1.2033
  591MOL0     C79665   4.197   7.406   3.949 -1.0551  0.5745  0.6932
  591MOL0     C79666   4.225   7.546   3.886  0.0569  0.4950 -0.5848
  591MOL0     N79667   4.342   7.604   3.944 -0.2685 -0.0403 -0.6172
  591MOL0     C79668   4.463   7.631   3.894  0.2166  0.3165 -0.3036
  591MOL0     C79669   4.543   7.677   3.999 -0.2264  0.5934  0.7853
  591MOL0     C79670   4.690   7.715   4.004 -0.6544  0.9283  0.0793
  591MOL0     C79671   4.780   7.597   3.996 -0.1995  0.2667 -0.1800
  591MOL0     C79672   4.787   7.532   3.857  0.7473  0.2324 -1.3160
  591MOL0     C79673   4.883   7.609   3.761  0.5299 -0.2210 -0.7020
  591MOL0     O79674   5.022   7.601   3.812  0.2052 -0.2513 -1.9542
  591MOL0     C79675   5.104   7.696   3.762 -0.0214  0.0687  0.1795
  591MOL0     C79676   5.196   7.749   3.847  0.6030  0.1953 -0.2082
  591MOL0     C79677   5.281   7.854   3.794  0.2310  0.2989  0.8429
  591MOL0     C79678   5.269   7.892   3.660 -0.6866  0.7799 -0.0068
  591MOL0     C79679   5.356   7.994   3.603  0.4012 -0.4766 -1.0750
  591MOL0     O79680   5.478   8.009   3.675  0.0781 -0.0095 -0.5465
  591MOL0     C79681   5.573   8.103   3.636 -0.6103 -0.3819  0.2551
  591MOL0     C79682   5.674   8.126   3.734 -0.6138  0.6857 -0.1408
  591MOL0     C79683   5.776   8.225   3.716 -0.1745  0.8715  0.4097
  591MOL0     C79684   5.784   8.295   3.594  0.0769 -0.0290 -0.6617
  591MOL0     O79685   5.909   8.358   3.577 -0.3390  0.2304 -0.1912
  591MOL0     C79686   5.914   8.495   3.544  0.4340 -0.6410  0.1075
  591MOL0     C79687   6.040   8.510   3.461 -0.3376  0.6227 -0.3329
  591MOL0     C79688   6.169   8.490   3.545  0.5147  0.2145 -0.4581
  591MOL0     C79689   6.289   8.501   3.470  0.3562  0.6923 -0.2772
  591MOL0     C79690   6.416   8.462   3.553 -0.0020  0.3795  0.5816
  591MOL0     C79691   6.539   8.477   3.471  0.2639  0.2251  0.5751
  591MOL0     C79692   6.657   8.421   3.557 -0.2911  1.3064  0.0204
  591MOL0     C79693   6.781   8.423   3.473 -0.6378  0.2447  0.3878
  591MOL0    Cl79694   6.843   8.594   3.446  0.4113 -0.4155  0.3571
  591MOL0     C79695   5.677   8.284   3.506  0.0412  0.1178  0.9210
  591MOL0     C79696   5.574   8.186   3.528 -0.0290 -0.0613 -0.4254
  591MOL0     O79697   5.313   8.067   3.513 -0.5179  0.3675 -0.5582
  591MOL0     C79698   5.183   7.829   3.576  0.7882 -0.0853 -0.3410
  591MOL0     C79699   5.106   7.726   3.626 -0.4170 -0.8016 -0.3978
  591MOL0     N79700   4.460   7.661   4.113 -0.2544  0.6485 -0.8357
  591MOL0     N79701   4.341   7.629   4.077  0.2106 -0.2985 -1.1310
  591MOL0     C79702   3.287   7.330   3.878 -0.5489  0.0980  0.7629
  591MOL0     C79703   3.148   7.347   3.899  0.7003  0.3278 -0.2879
  591MOL0     C79704   2.746   7.207   4.095  0.6440 -1.0440 -0.0417
  591MOL0     C79705   2.742   7.250   4.231 -0.3030  0.4916 -0.2990
  591MOL0     C79706   2.640   7.243   4.325 -0.5957 -0.8891  0.5894
  591MOL0     C79707   2.524   7.184   4.284  0.8193 -0.8070 -0.4167
  591MOL0     O79708   2.413   7.169   4.353 -0.4970 -0.8025  0.4010
  591MOL0     C79709   2.390   7.276   4.459 -0.5507  0.2370 -1.4980
  591MOL0     C79710   2.251   7.267   4.514  0.9298 -0.6929 -0.2256
  591MOL0     C79711   2.146   7.260   4.403 -0.1126 -0.2682  0.1414
  591MOL0     C79712   2.002   7.263   4.453  0.2673  0.2353 -0.8499
  591MOL0     C79713   1.915   7.204   4.358  0.3972 -0.7986  0.7497
  591MOL0     C79714   1.823   7.161   4.285  0.2740 -0.7966  0.1128
  591MOL0     C79715   2.515   7.133   4.154  0.6947  0.2881 -0.2477
  591MOL0     C79716   2.621   7.144   4.061 -1.2459 -0.4782  0.4877
  591MOL0     C79717   2.587   7.083   3.935 -0.4637 -0.3089  0.4716
  591MOL0     H79718   3.120   7.224   4.213  1.6458  0.3989  0.9843
  591MOL0     H79719   3.366   7.223   4.188  0.2469 -0.7745 -0.9469
  591MOL0     H79720   3.476   7.158   3.778  2.5288 -2.3935 -1.0043
  591MOL0     H79721   3.579   7.306   3.791  0.4671  1.5531  1.2083
  591MOL0     H79722   3.704   7.086   3.772 -0.5554 -1.5125  0.7779
  591MOL0     H79723   3.647   7.055   3.938  1.1001 -0.3421 -0.3749
  591MOL0     H79724   3.731   7.282   4.005 -1.2491  0.7748  0.1627
  591MOL0     H79725   3.802   7.294   3.842 -0.3063  1.4302  0.2464
  591MOL0     H79726   3.886   7.056   4.028 -0.9306 -0.6385 -2.4822
  591MOL0     H79727   3.934   7.087   3.863  0.5902 -2.0890  1.0419
  591MOL0     H79728   4.011   7.271   4.094  3.2991  0.2387  1.1531
  591MOL0     H79729   4.110   7.157   4.003 -0.9707 -2.2847 -5.3199
  591MOL0     H79730   4.087   7.305   3.795  1.1770  1.1658 -1.1746
  591MOL0     H79731   3.988   7.411   3.900 -1.2728 -0.3475  0.3248
  591MOL0     H79732   4.283   7.350   3.911 -1.5501  1.0789 -1.3053
  591MOL0     H79733   4.208   7.405   4.058  2.2049  0.2548  0.4568
  591MOL0     H79734   4.237   7.532   3.778  0.2397  0.7630 -0.6003
  591MOL0     H79735   4.135   7.607   3.903  1.5203  2.2452  1.4011
  591MOL0     H79736   4.486   7.635   3.788 -0.0129  0.0397 -0.3650
  591MOL0     H79737   4.707   7.783   3.919  1.0056  0.9345  0.3748
  591MOL0     H79738   4.716   7.784   4.085  2.8724 -0.5766  0.3925
  591MOL0     H79739   4.885   7.618   4.020 -0.7270  2.7705  0.2313
  591MOL0     H79740   4.735   7.526   4.065 -0.8085  1.0112  0.2089
  591MOL0     H79741   4.687   7.523   3.816  1.2100 -1.0107 -2.2302
  591MOL0     H79742   4.812   7.427   3.875  3.0776  1.2586  2.9585
  591MOL0     H79743   4.838   7.707   3.743 -1.0691 -1.0389 -1.3347
  591MOL0     H79744   4.893   7.570   3.659  4.9672  1.7502 -1.2561
  591MOL0     H79745   5.204   7.706   3.947 -0.7526 -0.6780 -0.4491
  591MOL0     H79746   5.354   7.905   3.856  0.5034  0.3946  0.4430
  591MOL0     H79747   5.694   8.064   3.820  0.8296  1.4047  0.0681
  591MOL0     H79748   5.856   8.229   3.789 -0.0771 -3.3911  0.7502
  591MOL0     H79749   5.830   8.525   3.481  1.2329  1.0358 -0.1927
  591MOL0     H79750   5.910   8.561   3.631  1.9276 -1.5929  0.9323
  591MOL0     H79751   6.039   8.432   3.384  0.3281 -0.7401  0.9982
  591MOL0     H79752   6.038   8.610   3.415 -0.3687  1.0688  0.6281
  591MOL0     H79753   6.153   8.575   3.613  3.5024  0.0040  0.6213
  591MOL0     H79754   6.174   8.398   3.604 -2.1882 -0.9943 -1.9103
  591MOL0     H79755   6.294   8.599   3.421  0.6394  0.9471  0.2577
  591MOL0     H79756   6.286   8.417   3.399  2.0788 -1.0473  1.5945
  591MOL0     H79757   6.406   8.363   3.599 -0.9921  0.7357  1.1695
  591MOL0     H79758   6.412   8.526   3.641 -0.9586  1.4628 -0.2251
  591MOL0     H79759   6.538   8.434   3.370  1.9793  2.2660 -0.4034
  591MOL0     H79760   6.556   8.584   3.456  0.8546 -0.2308 -2.7726
  591MOL0     H79761   6.636   8.320   3.594  2.4233  1.1523  1.4248
  591MOL0     H79762   6.659   8.485   3.646  2.8261  1.6462 -0.1871
  591MOL0     H79763   6.860   8.376   3.531 -0.9642  0.1882  0.7886
  591MOL0     H79764   6.759   8.369   3.380  0.0047 -0.4877  0.6538
  591MOL0     H79765   5.669   8.335   3.410 -0.5794 -2.2726 -0.3607
  591MOL0     H79766   5.504   8.186   3.445  1.2239 -2.2557 -1.5831
  591MOL0     H79767   5.169   7.850   3.470  3.5882 -0.4962 -0.8504
  591MOL0     H79768   5.035   7.678   3.558 -1.4500 -0.3678  0.3406
  591MOL0     H79769   3.335   7.357   3.785 -1.0207  0.4686  0.6217
  591MOL0     H79770   3.087   7.393   3.821 -1.8481 -0.3192  1.1959
  591MOL0     H79771   2.829   7.308   4.262  0.9485 -0.3333 -2.0935
  591MOL0     H79772   2.668   7.279   4.424  2.1655 -0.7089 -0.1600
  591MOL0     H79773   2.415   7.372   4.413  2.9013  1.9729  3.1669
  591MOL0     H79774   2.463   7.261   4.539 -1.3620  0.8040 -0.6356
  591MOL0     H79775   2.232   7.350   4.584  2.0201 -0.1358 -0.5675
  591MOL0     H79776   2.252   7.174   4.571  4.4697 -0.5515  0.1653
  591MOL0     H79777   2.171   7.165   4.354 -1.5186 -0.3189 -0.5533
  591MOL0     H79778   2.161   7.340   4.329 -0.7647  1.2598  1.6122
  591MOL0     H79779   2.000   7.218   4.553 -1.2149  0.5017 -0.7350
  591MOL0     H79780   1.949   7.356   4.476 -0.9023 -0.8405  1.1747
  591MOL0     H79781   1.755   7.129   4.208 -2.6279  2.6031  1.0151
  591MOL0     H79782   2.418   7.096   4.121 -0.2458  3.0678 -0.8088
  591MOL0     H79783   2.586   6.976   3.957 -0.6601 -0.4592 -0.2341
  591MOL0     H79784   2.488   7.117   3.905 -1.6477 -3.1481  0.7919
  591MOL0     H79785   2.660   7.115   3.860 -0.7191  2.1418  1.1993
  592MOL0     O79786   8.159   0.278   9.761  0.3584 -0.6081  0.1366
  592MOL0     C79787   8.212   0.268   9.654  0.7428  1.3711 -0.1742
  592MOL0     O79788   8.317   0.187   9.621 -0.8666  0.4582 -0.0826
  592MOL0     C79789   8.398   0.137   9.721 -0.7164  0.6895 -0.4606
  592MOL0     C79790   8.413   0.196   9.847  0.3890 -0.2464  0.4473
  592MOL0     C79791   8.512   0.153   9.933  0.3642 -0.7533  0.2786
  592MOL0     C79792   8.584   0.036   9.908 -0.5614 -0.7610  0.7022
  592MOL0     O79793   8.678  -0.003   9.994  0.1952 -0.4408  0.0980
  592MOL0     C79794   8.745  -0.135   9.993  0.1202  0.1647 -0.1164
  592MOL0     C79795   8.854  -0.152   9.889 -0.7647  0.3206 -0.6747
  592MOL0     C79796   8.997  -0.171   9.942  0.6611 -0.2694 -0.4811
  592MOL0     C79797   9.023  -0.321   9.965  0.1151 -0.0609  0.0430
  592MOL0     C79798   9.176  -0.355   9.979  0.5505  0.3850 -0.5848
  592MOL0     C79799   9.227  -0.290  10.108  0.1548 -0.3564 -0.0934
  592MOL0     C79800   9.366  -0.330  10.152 -0.4987  0.4488  0.3050
  592MOL0     C79801   9.405  -0.268  10.294  1.2649 -0.6623  0.1472
  592MOL0     N79802   9.530  -0.324  10.348  0.3742 -0.0648  0.4431
  592MOL0     C79803   9.658  -0.273  10.325 -0.7879 -0.2130 -0.3627
  592MOL0     C79804   9.746  -0.349  10.388  0.3675  0.2603 -0.2916
  592MOL0     C79805   9.893  -0.319  10.393  0.7194  0.0235  0.9309
  592MOL0     C79806   9.959  -0.395  10.277  0.8861 -0.1303  0.2660
  592MOL0     C79807  10.102  -0.440  10.313  0.2429  0.2265  1.1350
  592MOL0     C79808  10.192  -0.480  10.200  0.0501 -1.2280 -0.1290
  592MOL0     O79809  10.202  -0.365  10.111 -0.0043 -0.0041 -0.3200
  592MOL0     C79810  10.299  -0.368  10.018  0.3934 -0.1176  0.8227
  592MOL0     C79811  10.388  -0.475   9.992 -0.1538  0.4732  0.3143
  592MOL0     C79812  10.485  -0.475   9.889  0.0698  0.3558 -0.1720
  592MOL0     C79813  10.486  -0.363   9.798  0.0265  0.4639  0.4261
  592MOL0     C79814  10.576  -0.355   9.672 -0.2716  0.7936  0.1077
  592MOL0     O79815  10.584  -0.243   9.594  0.2845  0.1684 -1.0411
  592MOL0     C79816  10.665  -0.256   9.482 -0.0197 -0.3406 -1.2022
  592MOL0     C79817  10.624  -0.340   9.382 -0.5966  1.0487 -0.1924
  592MOL0     C79818  10.707  -0.349   9.274  0.1022 -0.0652 -0.1427
  592MOL0     C79819  10.823  -0.267   9.259  0.7767  0.1434 -0.0029
  592MOL0     O79820  10.910  -0.259   9.161 -0.5513  0.3817  0.2550
  592MOL0     C79821  10.964  -0.394   9.120 -0.1879 -1.0289  0.2999
  592MOL0     C79822  11.115  -0.383   9.139 -0.3968 -0.0780  0.2351
  592MOL0     C79823  11.172  -0.375   9.279 -0.1164  0.3984 -0.3090
  592MOL0     C79824  11.322  -0.397   9.287 -0.4470 -0.2170  0.0017
  592MOL0     C79825  11.369  -0.378   9.428  0.0800 -0.2098  0.0163
  592MOL0     C79826  11.518  -0.383   9.429 -0.6175 -0.9481  0.1974
  592MOL0     C79827  11.570  -0.240   9.432 -0.0237 -0.9762 -0.3291
  592MOL0     C79828  11.730  -0.245   9.452 -0.5916  0.9025  0.6500
  592MOL0    Cl79829  11.765  -0.072   9.489  0.6200 -0.0169 -0.0147
  592MOL0     C79830  10.841  -0.174   9.354  0.6888 -0.5874 -0.1135
  592MOL0     C79831  10.770  -0.167   9.472  0.0844 -0.9863 -0.6671
  592MOL0     O79832  10.631  -0.461   9.649  0.4448  0.5087  0.1396
  592MOL0     C79833  10.392  -0.263   9.820 -0.2870  0.2372  0.9110
  592MOL0     C79834  10.298  -0.271   9.920 -0.8565  0.4434 -0.6834
  592MOL0     N79835   9.673  -0.451  10.443  0.3846  0.1149  0.7287
  592MOL0     N79836   9.544  -0.431  10.420 -0.3490  0.3832  0.5989
  592MOL0     C79837   8.568  -0.029   9.783 -0.1641 -0.1727 -0.4142
  592MOL0     C79838   8.481   0.023   9.698  0.5261 -0.0947  0.0805
  592MOL0     C79839   8.146   0.325   9.532  0.7162 -0.4735  0.1170
  592MOL0     C79840   8.195   0.301   9.401 -0.2005 -0.6595 -0.0522
  592MOL0     C79841   8.134   0.352   9.288 -0.0979 -0.0735  0.3481
  592MOL0     C79842   8.021   0.429   9.294 -0.9312 -0.1529 -0.3810
  592MOL0     O79843   7.976   0.464   9.168  0.9459  0.5687  0.4277
  592MOL0     C79844   7.879   0.569   9.162  0.3025  0.4369 -0.1381
  592MOL0     C79845   7.740   0.525   9.211 -0.3946  0.1301 -0.3604
  592MOL0     C79846   7.673   0.419   9.117 -0.2384  0.1031 -0.3630
  592MOL0     C79847   7.529   0.411   9.187  0.3461 -0.1388  0.2692
  592MOL0     C79848   7.454   0.304   9.117 -0.4816  0.6198  0.5041
  592MOL0     C79849   7.409   0.216   9.045 -0.6265  0.3239  0.4234
  592MOL0     C79850   7.974   0.472   9.422 -1.4508  0.6622 -0.7545
  592MOL0     C79851   8.033   0.416   9.538  0.3419  1.3633  0.1723
  592MOL0     C79852   7.988   0.474   9.662 -0.0491  0.3422  0.1610
  592MOL0     H79853   8.367   0.291   9.870 -1.3665 -1.0398  0.4542
  592MOL0     H79854   8.533   0.221  10.015 -0.5776  2.8385 -2.2008
  592MOL0     H79855   8.784  -0.149  10.094 -4.1819  2.4186  2.1287
  592MOL0     H79856   8.668  -0.211   9.975 -1.2832  1.0546  1.7925
  592MOL0     H79857   8.864  -0.064   9.824  3.7932 -1.2866 -2.6152
  592MOL0     H79858   8.813  -0.230   9.824 -0.2997 -0.9931  0.5466
  592MOL0     H79859   9.018  -0.107  10.028 -0.9463 -2.5156  1.7225
  592MOL0     H79860   9.075  -0.143   9.871  3.5240 -1.7586  1.8886
  592MOL0     H79861   8.965  -0.355  10.051 -0.2307  2.5392  0.9106
  592MOL0     H79862   8.993  -0.376   9.875 -0.0308  0.7050 -0.3831
  592MOL0     H79863   9.177  -0.463   9.997 -1.7944  0.6636  1.9207
  592MOL0     H79864   9.234  -0.332   9.889  0.1452  0.5308 -0.8138
  592MOL0     H79865   9.215  -0.182  10.097 -4.9464 -0.7742 -0.6816
  592MOL0     H79866   9.165  -0.318  10.194  0.1142  2.4472  0.8861
  592MOL0     H79867   9.437  -0.279  10.086  1.3181  2.9436  3.8515
  592MOL0     H79868   9.383  -0.437  10.147 -0.7940  0.4338 -4.1286
  592MOL0     H79869   9.409  -0.159  10.289  0.8746 -0.5935  1.2175
  592MOL0     H79870   9.323  -0.303  10.358  0.7746 -0.5791 -0.4228
  592MOL0     H79871   9.675  -0.180  10.271  1.8492 -0.0610  0.5887
  592MOL0     H79872   9.915  -0.213  10.373 -2.0767  0.0921 -2.8498
  592MOL0     H79873   9.923  -0.331  10.498  0.6018 -3.3495  0.6878
  592MOL0     H79874   9.898  -0.486  10.269  1.7986 -0.9857  2.3008
  592MOL0     H79875   9.959  -0.339  10.184  1.3004  0.8766  0.8526
  592MOL0     H79876  10.089  -0.532  10.370 -0.1306  0.5554  1.5826
  592MOL0     H79877  10.157  -0.366  10.371  0.8243  0.9756 -0.3349
  592MOL0     H79878  10.156  -0.569  10.147 -0.7885 -0.0504 -1.6525
  592MOL0     H79879  10.289  -0.499  10.244  0.5740 -1.6631 -1.4131
  592MOL0     H79880  10.401  -0.557  10.062 -0.2413  1.1274  1.1188
  592MOL0     H79881  10.543  -0.565   9.872 -1.4021 -0.9008  1.1990
  592MOL0     H79882  10.523  -0.381   9.389 -0.7810  1.6490  0.7357
  592MOL0     H79883  10.696  -0.432   9.205  0.4013 -3.3399  3.4063
  592MOL0     H79884  10.916  -0.469   9.183 -0.5376 -0.4822  0.6930
  592MOL0     H79885  10.946  -0.420   9.015  1.2053 -3.2595  0.5625
  592MOL0     H79886  11.160  -0.471   9.091  5.0789  2.1521  0.5566
  592MOL0     H79887  11.152  -0.295   9.087  1.6230  2.3336  5.1101
  592MOL0     H79888  11.142  -0.278   9.321 -1.5633 -0.2648  0.2459
  592MOL0     H79889  11.117  -0.450   9.335 -0.8727 -0.2333 -1.8484
  592MOL0     H79890  11.362  -0.320   9.220  2.1024 -2.0357 -0.6960
  592MOL0     H79891  11.351  -0.495   9.249 -4.1369 -0.4993 -2.6256
  592MOL0     H79892  11.326  -0.455   9.493  0.7169 -0.4857  0.1227
  592MOL0     H79893  11.333  -0.284   9.473  1.0459 -0.3024  1.0247
  592MOL0     H79894  11.542  -0.429   9.525  0.8161 -0.6941 -0.0150
  592MOL0     H79895  11.553  -0.443   9.344  1.7900  1.0612 -0.3367
  592MOL0     H79896  11.530  -0.180   9.514  2.4224  0.1951  0.0850
  592MOL0     H79897  11.556  -0.191   9.335 -1.8204  1.7115  1.1741
  592MOL0     H79898  11.756  -0.320   9.527 -1.8681 -1.5254 -1.1991
  592MOL0     H79899  11.774  -0.277   9.358  2.2687  4.6878  0.4830
  592MOL0     H79900  10.905  -0.086   9.350 -0.7545  0.6144  1.8948
  592MOL0     H79901  10.790  -0.092   9.548  2.1814 -0.8339 -1.3122
  592MOL0     H79902  10.386  -0.180   9.750  1.4692 -0.5339 -0.2195
  592MOL0     H79903  10.226  -0.190   9.930 -0.9628  0.1009  2.1420
  592MOL0     H79904   8.623  -0.118   9.756 -0.0625 -0.0142 -0.7406
  592MOL0     H79905   8.473  -0.016   9.597 -2.0318  3.2120 -1.1916
  592MOL0     H79906   8.285   0.240   9.395  0.6359  0.6629 -2.2174
  592MOL0     H79907   8.176   0.328   9.191  1.8246 -1.3630  1.4186
  592MOL0     H79908   7.884   0.599   9.057  0.8573  0.7395 -0.0286
  592MOL0     H79909   7.905   0.650   9.230  2.6571 -2.6152  2.9920
  592MOL0     H79910   7.684   0.619   9.214 -0.8101 -0.1258  0.0871
  592MOL0     H79911   7.741   0.494   9.316  0.1785  0.2310 -0.3293
  592MOL0     H79912   7.720   0.320   9.126  1.0911  0.1252 -4.7900
  592MOL0     H79913   7.664   0.446   9.011  0.5448  0.6857 -0.2815
  592MOL0     H79914   7.540   0.386   9.293  0.4156  3.9392  1.4051
  592MOL0     H79915   7.476   0.506   9.193 -0.7924 -0.7914  0.9769
  592MOL0     H79916   7.370   0.143   8.977 -0.8147  0.1269  0.7404
  592MOL0     H79917   7.899   0.549   9.433 -0.8088  1.3441 -1.0332
  592MOL0     H79918   7.920   0.558   9.649 -0.8513 -0.3513 -0.2624
  592MOL0     H79919   7.922   0.403   9.714 -2.9844  0.5655 -2.8658
  592MOL0     H79920   8.065   0.508   9.731  1.0394  0.7233 -1.1945
  593MOL0     O79921   7.021   1.531   8.276 -0.3413 -0.0410  0.1112
  593MOL0     C79922   6.953   1.567   8.178  0.1747 -1.1287  0.8928
  593MOL0     O79923   6.970   1.704   8.123 -0.0772  0.1355  0.1711
  593MOL0     C79924   7.082   1.767   8.174  0.7780  0.1415 -0.5176
  593MOL0     C79925   7.196   1.768   8.096 -1.0654 -0.6027 -0.7314
  593MOL0     C79926   7.320   1.812   8.147  0.0416  0.1728 -0.5474
  593MOL0     C79927   7.322   1.856   8.278 -1.2278 -0.0480 -0.3006
  593MOL0     O79928   7.435   1.910   8.330  0.2878  0.4155 -0.1517
  593MOL0     C79929   7.549   1.923   8.239 -0.7820 -0.0272  0.3394
  593MOL0     C79930   7.656   1.982   8.328  0.2508 -0.0709  0.1379
  593MOL0     C79931   7.636   2.125   8.364 -0.5101  0.3748 -0.5443
  593MOL0     C79932   7.739   2.161   8.469 -0.0970  0.0527 -0.0233
  593MOL0     C79933   7.706   2.291   8.550 -0.3238  0.8717 -0.1631
  593MOL0     C79934   7.793   2.296   8.674  0.1097  0.6158 -0.4848
  593MOL0     C79935   7.780   2.424   8.752 -0.1949  0.1563  0.2920
  593MOL0     C79936   7.828   2.416   8.894 -0.3607 -1.0295  0.1020
  593MOL0     N79937   7.961   2.347   8.906  0.3363  0.2650 -0.6093
  593MOL0     C79938   7.974   2.210   8.915  0.1389 -0.3476 -0.2790
  593MOL0     C79939   8.102   2.183   8.938 -0.4036 -0.3349  0.5092
  593MOL0     C79940   8.172   2.043   8.941 -0.0070 -0.5540 -0.1995
  593MOL0     C79941   8.272   2.031   9.063  0.1721  1.1263  0.1309
  593MOL0     C79942   8.294   1.886   9.091 -0.8213 -0.4350 -0.2342
  593MOL0     C79943   8.360   1.881   9.225  0.3024  0.0048 -0.1395
  593MOL0     O79944   8.482   1.940   9.220  0.6322  0.1822 -0.2466
  593MOL0     C79945   8.581   1.871   9.157  0.8841 -0.4274  0.3699
  593MOL0     C79946   8.659   1.943   9.069 -0.1532  0.7473  0.4598
  593MOL0     C79947   8.779   1.892   9.023  0.7138 -0.3397 -0.0805
  593MOL0     C79948   8.811   1.765   9.044  0.2200  0.7291 -0.3266
  593MOL0     C79949   8.941   1.713   8.990 -0.2474 -0.1608 -0.3825
  593MOL0     O79950   8.965   1.579   8.984 -0.8529  0.4165  0.6436
  593MOL0     C79951   9.088   1.528   8.937  0.0840  0.3257  0.5273
  593MOL0     C79952   9.162   1.438   9.012 -0.1015  0.4225  0.1707
  593MOL0     C79953   9.286   1.386   8.968  0.3220  0.4288 -0.8826
  593MOL0     C79954   9.318   1.400   8.838 -0.2605  0.0869  0.4022
  593MOL0     O79955   9.419   1.323   8.792  0.1468  0.1231 -0.1627
  593MOL0     C79956   9.540   1.377   8.750 -0.2080  0.1251  0.3834
  593MOL0     C79957   9.607   1.299   8.638 -0.9310  0.3591  0.5704
  593MOL0     C79958   9.677   1.177   8.691  0.7994  0.0966 -0.5526
  593MOL0     C79959   9.636   1.055   8.621 -0.2961  0.3651 -0.0364
  593MOL0     C79960   9.715   0.924   8.647 -1.0620 -0.1838  0.1296
  593MOL0     C79961   9.649   0.816   8.560 -0.1353 -0.3326  0.6823
  593MOL0     C79962   9.686   0.676   8.590  0.0055  0.0215  0.0360
  593MOL0     C79963   9.836   0.637   8.577  0.3339 -0.1001 -0.1445
  593MOL0    Cl79964   9.863   0.460   8.593 -0.0441 -0.1779 -0.1637
  593MOL0     C79965   9.240   1.480   8.751  0.7251  0.2816 -0.2382
  593MOL0     C79966   9.129   1.539   8.805  1.0911 -1.2843 -0.8592
  593MOL0     O79967   9.020   1.796   8.949 -0.9235 -0.1805  0.1821
  593MOL0     C79968   8.736   1.686   9.131 -0.1133  0.2853 -0.4543
  593MOL0     C79969   8.621   1.740   9.190  0.1016  0.3333  0.9320
  593MOL0     N79970   8.171   2.307   8.948 -0.2915  0.7761 -0.4540
  593MOL0     N79971   8.086   2.400   8.932 -0.8072  0.9279 -0.4642
  593MOL0     C79972   7.211   1.861   8.351 -0.1342 -0.6514  0.2798
  593MOL0     C79973   7.090   1.818   8.300  0.8671  0.0396 -0.3556
  593MOL0     C79974   6.821   1.497   8.149 -0.1593 -0.1001  0.4890
  593MOL0     C79975   6.701   1.574   8.138 -0.5074  0.1972  0.3984
  593MOL0     C79976   6.591   1.516   8.073 -0.2881  0.0678 -0.6983
  593MOL0     C79977   6.596   1.379   8.039 -0.0184  0.0061 -0.1809
  593MOL0     O79978   6.479   1.325   7.984  0.1225 -0.3961 -0.5338
  593MOL0     C79979   6.441   1.190   8.013 -0.1832 -0.4723  0.1661
  593MOL0     C79980   6.294   1.164   7.983 -0.3053 -0.2181  0.8110
  593MOL0     C79981   6.255   1.139   7.828 -0.5799  0.2144  0.1056
  593MOL0     C79982   6.106   1.119   7.787 -0.3105 -0.0372  0.3404
  593MOL0     C79983   6.069   0.999   7.864  0.9041 -0.8641  0.2965
  593MOL0     C79984   6.048   0.893   7.928  0.3152 -0.6710 -0.3337
  593MOL0     C79985   6.713   1.299   8.052 -0.7987 -0.9294  0.4411
  593MOL0     C79986   6.824   1.360   8.106 -0.4730  0.2331 -0.3668
  593MOL0     C79987   6.946   1.278   8.113 -0.0913  0.9321  0.2496
  593MOL0     H79988   7.189   1.742   7.991 -1.1563  0.0345 -0.8888
  593MOL0     H79989   7.406   1.800   8.083  1.0795  3.2042  0.1605
  593MOL0     H79990   7.570   1.821   8.207 -0.9024  0.5509 -1.7185
  593MOL0     H79991   7.522   1.996   8.162  1.8266  0.9166  0.2331
  593MOL0     H79992   7.749   1.984   8.271 -1.1023 -2.6415 -2.4068
  593MOL0     H79993   7.681   1.928   8.420 -2.4984  2.9469  2.8854
  593MOL0     H79994   7.533   2.141   8.399  1.0574  0.2725  5.1114
  593MOL0     H79995   7.639   2.187   8.274  1.0115  0.0309 -0.7583
  593MOL0     H79996   7.761   2.081   8.540  1.3172  0.7110  0.3211
  593MOL0     H79997   7.834   2.164   8.414  1.6973 -0.2375  2.8362
  593MOL0     H79998   7.723   2.374   8.481  0.1520  0.5403 -0.4499
  593MOL0     H79999   7.605   2.303   8.591 -0.7034  1.3110 -1.2075
  593MOL0     H80000   7.764   2.208   8.731  3.4149  0.0430  0.5230
  593MOL0     H80001   7.894   2.278   8.634 -1.0640  0.5563 -3.7936
  593MOL0     H80002   7.677   2.461   8.749 -0.7590 -1.3682  0.3436
  593MOL0     H80003   7.857   2.488   8.708  1.4426 -0.2380  2.4558
  593MOL0     H80004   7.843   2.517   8.935 -5.3622 -1.8678  5.2247
  593MOL0     H80005   7.751   2.361   8.948  0.1027 -0.6677  1.1599
  593MOL0     H80006   7.894   2.141   8.891 -2.3640  0.8809  3.5570
  593MOL0     H80007   8.091   1.971   8.952 -0.4170 -0.0775 -0.1068
  593MOL0     H80008   8.233   2.028   8.851 -1.4591  1.1312 -1.5344
  593MOL0     H80009   8.368   2.079   9.039  2.5465 -3.5981 -1.1677
  593MOL0     H80010   8.232   2.080   9.152  0.9454 -1.0779  1.7822
  593MOL0     H80011   8.348   1.823   9.020  1.5926 -1.9137  2.6603
  593MOL0     H80012   8.196   1.840   9.101 -2.2546  2.1020 -1.5810
  593MOL0     H80013   8.361   1.781   9.270 -1.3139  0.4874  1.0445
  593MOL0     H80014   8.309   1.939   9.302  1.6038  1.1972 -0.1256
  593MOL0     H80015   8.629   2.046   9.058  2.0324  1.3603 -0.3732
  593MOL0     H80016   8.844   1.955   8.962  0.9562  0.3933  0.9082
  593MOL0     H80017   9.136   1.408   9.113  2.3461 -2.5134  0.0661
  593MOL0     H80018   9.349   1.321   9.028  0.7341  2.4816  1.0490
  593MOL0     H80019   9.523   1.483   8.727 -0.6817 -0.0894 -0.2635
  593MOL0     H80020   9.601   1.379   8.841 -0.0016 -1.0403  0.2858
  593MOL0     H80021   9.543   1.260   8.558  2.5493 -1.9240 -1.3821
  593MOL0     H80022   9.676   1.366   8.586 -2.9980  1.0427 -1.4647
  593MOL0     H80023   9.785   1.195   8.682  0.2695  3.7409 -1.0801
  593MOL0     H80024   9.652   1.147   8.794 -1.1982 -1.3353 -1.3866
  593MOL0     H80025   9.640   1.073   8.513  2.6701 -0.3344 -0.1274
  593MOL0     H80026   9.531   1.031   8.639  0.5800 -5.1690 -0.3129
  593MOL0     H80027   9.711   0.903   8.754  0.4022  1.6775  0.5882
  593MOL0     H80028   9.817   0.921   8.609 -1.6983 -3.3223 -1.7154
  593MOL0     H80029   9.545   0.827   8.590 -0.0486  1.1840  0.5164
  593MOL0     H80030   9.655   0.846   8.455  4.4801 -0.9016  0.5517
  593MOL0     H80031   9.631   0.606   8.527  1.9272 -0.3777 -1.2920
  593MOL0     H80032   9.660   0.649   8.693 -2.1873 -0.5567 -0.6133
  593MOL0     H80033   9.867   0.675   8.480 -1.2001 -0.1787 -0.6985
  593MOL0     H80034   9.900   0.694   8.645 -1.5153 -0.0775  1.6784
  593MOL0     H80035   9.262   1.501   8.647 -4.7984 -0.3421 -1.8384
  593MOL0     H80036   9.056   1.577   8.734  1.0336  1.0076  0.3439
  593MOL0     H80037   8.766   1.582   9.143  1.4616  0.8130  0.4642
  593MOL0     H80038   8.557   1.681   9.255  1.9678 -2.7307  0.1383
  593MOL0     H80039   7.225   1.917   8.443 -0.0901  1.5046 -0.9676
  593MOL0     H80040   6.995   1.819   8.352  1.3970  2.6843  0.7161
  593MOL0     H80041   6.703   1.675   8.178  1.3705  0.3038  0.1232
  593MOL0     H80042   6.497   1.567   8.054  0.3794  1.1397 -1.2380
  593MOL0     H80043   6.443   1.176   8.121 -1.8598  1.0325  0.4318
  593MOL0     H80044   6.510   1.126   7.957  2.8007 -0.6976  3.7235
  593MOL0     H80045   6.230   1.247   8.012 -3.2177 -2.8427  2.4405
  593MOL0     H80046   6.271   1.071   8.035 -1.0014 -1.8747 -2.1948
  593MOL0     H80047   6.314   1.061   7.780 -2.0402  0.1151 -1.6224
  593MOL0     H80048   6.300   1.224   7.775 -1.3186  1.2271  1.0330
  593MOL0     H80049   6.049   1.210   7.806 -3.4518 -1.8464  0.2108
  593MOL0     H80050   6.095   1.099   7.680 -2.2942  0.9182  0.3372
  593MOL0     H80051   6.033   0.810   7.995 -2.2687  0.3950  0.5147
  593MOL0     H80052   6.719   1.197   8.015 -1.5169 -1.1050  0.7966
  593MOL0     H80053   6.944   1.226   8.209  0.1064  1.6813  0.6697
  593MOL0     H80054   6.943   1.194   8.044  1.2408 -0.0719  1.3698
  593MOL0     H80055   7.033   1.345   8.113  0.4821  0.3281  2.9095
  594MOL0     O80056   9.314   7.852   4.586 -0.2954 -0.2075  1.0601
  594MOL0     C80057   9.362   7.776   4.497  0.3573 -0.0825 -0.7578
  594MOL0     O80058   9.437   7.670   4.529 -1.2966 -0.7761  0.5897
  594MOL0     C80059   9.501   7.668   4.645 -0.0455 -0.8062 -0.8690
  594MOL0     C80060   9.439   7.619   4.759  0.0302  0.2505  0.9269
  594MOL0     C80061   9.499   7.631   4.880  0.3273  0.0707 -0.5924
  594MOL0     C80062   9.628   7.657   4.893 -0.1991 -1.2379 -0.0792
  594MOL0     O80063   9.678   7.669   5.020 -0.5976  0.4991 -0.1785
  594MOL0     C80064   9.730   7.795   5.055 -1.3754  0.4820 -0.3388
  594MOL0     C80065   9.689   7.840   5.196  0.3187  0.1173 -0.1157
  594MOL0     C80066   9.741   7.989   5.219  0.0926  0.3223  0.1308
  594MOL0     C80067   9.697   8.053   5.349  0.1771 -0.5758 -1.3155
  594MOL0     C80068   9.771   7.990   5.472 -0.2927  0.5121  0.5184
  594MOL0     C80069   9.738   8.069   5.603 -0.0693  0.1053  0.0477
  594MOL0     C80070   9.849   8.039   5.709  0.2840  0.0325 -1.0600
  594MOL0     C80071   9.858   7.895   5.774  0.4744 -0.5134  0.5759
  594MOL0     N80072   9.992   7.853   5.827  0.4077 -0.5575  0.6318
  594MOL0     C80073  10.075   7.937   5.887  0.1331 -0.5780  1.3878
  594MOL0     C80074  10.193   7.874   5.900  0.3844 -0.3047  0.0603
  594MOL0     C80075  10.322   7.925   5.957  0.2649 -0.3395  0.0829
  594MOL0     C80076  10.408   8.030   5.876  0.6486 -0.1222  0.6180
  594MOL0     C80077  10.350   8.170   5.867  0.1376  0.2044  0.2124
  594MOL0     C80078  10.434   8.274   5.779 -0.4428  0.1646 -0.3474
  594MOL0     O80079  10.559   8.321   5.843 -0.1433 -0.7064  0.1781
  594MOL0     C80080  10.640   8.405   5.766  0.1874  0.4346 -0.3030
  594MOL0     C80081  10.779   8.383   5.777  0.0912 -0.0285  0.0071
  594MOL0     C80082  10.863   8.466   5.701 -0.7903 -0.4131 -0.4503
  594MOL0     C80083  10.815   8.562   5.609 -0.7990 -0.9333 -0.7466
  594MOL0     C80084  10.897   8.643   5.520  0.4360 -0.7902  0.4338
  594MOL0     O80085  10.850   8.763   5.490  0.0210 -0.5384 -0.2684
  594MOL0     C80086  10.909   8.852   5.399 -0.5037 -0.0388  0.5525
  594MOL0     C80087  11.042   8.890   5.414  0.2529  0.4189 -0.2670
  594MOL0     C80088  11.094   8.993   5.332 -0.4961  0.2822 -0.6109
  594MOL0     C80089  11.016   9.044   5.227 -0.1699 -0.0817 -0.2809
  594MOL0     O80090  11.073   9.144   5.160 -0.5778 -1.0883 -0.1508
  594MOL0     C80091  11.002   9.263   5.126 -0.2566  0.3915 -0.0444
  594MOL0     C80092  11.030   9.376   5.237  0.3140 -0.3727  0.4404
  594MOL0     C80093  11.181   9.396   5.286  1.1330 -0.2687  0.3731
  594MOL0     C80094  11.181   9.514   5.378  0.2597  0.2780  0.8000
  594MOL0     C80095  11.308   9.524   5.457  0.8101 -0.8367 -0.0631
  594MOL0     C80096  11.333   9.402   5.552  0.1928 -0.2310  0.3176
  594MOL0     C80097  11.395   9.415   5.693 -0.2213  0.0688 -0.4155
  594MOL0     C80098  11.539   9.465   5.700 -0.2259 -0.6138 -0.6753
  594MOL0    Cl80099  11.599   9.464   5.873 -0.0593  0.4730  0.5705
  594MOL0     C80100  10.886   8.996   5.199  0.1555 -0.0335  0.3522
  594MOL0     C80101  10.841   8.899   5.288  0.0886  0.1846 -0.3522
  594MOL0     O80102  10.989   8.590   5.461  0.8513  0.6028  0.4966
  594MOL0     C80103  10.674   8.576   5.608 -0.1416  0.0139 -0.0750
  594MOL0     C80104  10.588   8.501   5.678  0.3538 -0.9151 -0.2768
  594MOL0     N80105  10.181   7.751   5.825  0.8298 -0.4155 -0.0867
  594MOL0     N80106  10.052   7.741   5.790  0.2768  1.2083  0.3134
  594MOL0     C80107   9.700   7.703   4.783  0.0008  0.9391  0.3209
  594MOL0     C80108   9.642   7.711   4.654  0.2583  0.4150  0.4030
  594MOL0     C80109   9.317   7.794   4.357  0.4602 -0.0876 -0.5601
  594MOL0     C80110   9.330   7.676   4.273 -1.0399 -1.0670  0.1361
  594MOL0     C80111   9.272   7.670   4.144  0.5694 -0.1816 -0.0526
  594MOL0     C80112   9.206   7.784   4.099  0.3345 -0.7661  0.4373
  594MOL0     O80113   9.169   7.761   3.967  0.2758 -0.2052 -0.2745
  594MOL0     C80114   9.090   7.865   3.909 -1.1801 -0.2649 -0.7542
  594MOL0     C80115   8.929   7.850   3.927  0.3446  0.0705 -1.1400
  594MOL0     C80116   8.889   7.707   3.975 -0.2687  0.2923 -0.0338
  594MOL0     C80117   8.751   7.715   4.036  0.1404  0.5682  0.3482
  594MOL0     C80118   8.696   7.583   4.077  0.3244  0.1347 -0.6718
  594MOL0     C80119   8.656   7.484   4.130 -0.1093  0.5713  0.6194
  594MOL0     C80120   9.201   7.906   4.176  0.1054 -0.3690  0.4978
  594MOL0     C80121   9.248   7.909   4.310 -0.5625 -0.0418  0.9708
  594MOL0     C80122   9.245   8.049   4.379 -0.1426  0.5283  0.1094
  594MOL0     H80123   9.332   7.598   4.751  0.4857 -2.0398  0.1601
  594MOL0     H80124   9.440   7.595   4.964  0.5791 -1.4218 -1.0227
  594MOL0     H80125   9.839   7.789   5.042 -1.6102  0.4597 -2.9191
  594MOL0     H80126   9.697   7.877   4.990 -2.0333  1.3365  1.0489
  594MOL0     H80127   9.729   7.778   5.276  2.9533  0.2465 -1.2357
  594MOL0     H80128   9.580   7.843   5.201  0.2153  2.1596 -1.7498
  594MOL0     H80129   9.693   8.049   5.141 -0.2294  2.2695  1.7389
  594MOL0     H80130   9.849   8.003   5.209 -0.1094  0.5583 -2.2894
  594MOL0     H80131   9.717   8.160   5.352 -0.1213 -0.5267  0.6385
  594MOL0     H80132   9.588   8.043   5.347 -0.0318  1.2068 -0.6167
  594MOL0     H80133   9.746   7.883   5.477 -2.8347  0.8529 -2.0950
  594MOL0     H80134   9.879   7.995   5.456 -0.0961 -3.5879 -0.6048
  594MOL0     H80135   9.738   8.177   5.582 -1.2830  0.1869  0.3530
  594MOL0     H80136   9.644   8.031   5.644  1.1989 -1.2876  1.8119
  594MOL0     H80137   9.839   8.112   5.790  2.6287 -1.6535  0.8664
  594MOL0     H80138   9.948   8.055   5.666  1.8181  1.0792  2.4991
  594MOL0     H80139   9.780   7.882   5.849 -0.7288 -1.3793 -0.7751
  594MOL0     H80140   9.831   7.822   5.698  1.5989 -0.5194  0.1593
  594MOL0     H80141  10.059   8.041   5.914  1.6618  0.1369 -0.2828
  594MOL0     H80142  10.299   7.973   6.052 -1.8042  1.0412 -1.0521
  594MOL0     H80143  10.393   7.842   5.971  0.5506 -0.2773 -0.8982
  594MOL0     H80144  10.501   8.038   5.932  2.5918  0.7176 -2.4284
  594MOL0     H80145  10.431   7.983   5.780  0.2409 -4.0291  2.2621
  594MOL0     H80146  10.356   8.208   5.969 -1.7525 -1.9109  1.1859
  594MOL0     H80147  10.247   8.175   5.829  0.5018  1.9998 -0.6604
  594MOL0     H80148  10.373   8.364   5.765  0.0259  0.4354 -0.7098
  594MOL0     H80149  10.463   8.230   5.683  2.4633 -3.3237  1.8747
  594MOL0     H80150  10.813   8.308   5.848  0.3472  0.8054  0.7896
  594MOL0     H80151  10.965   8.433   5.690 -1.1051 -1.4951 -0.3056
  594MOL0     H80152  11.096   8.849   5.499 -3.6433 -0.0052  2.2619
  594MOL0     H80153  11.198   9.021   5.345  0.8171 -4.5621  2.4537
  594MOL0     H80154  11.045   9.301   5.033 -0.7258  1.4859  0.1681
  594MOL0     H80155  10.897   9.243   5.102 -1.6196  3.2474  2.8153
  594MOL0     H80156  10.994   9.469   5.192 -0.8099 -1.3911 -0.8632
  594MOL0     H80157  10.967   9.360   5.325 -0.9881  2.7278  0.2036
  594MOL0     H80158  11.221   9.306   5.333  7.2159 -0.6418 -4.3308
  594MOL0     H80159  11.237   9.414   5.194  0.2857  0.6803  0.0277
  594MOL0     H80160  11.096   9.509   5.447 -0.2042 -0.6068  0.1822
  594MOL0     H80161  11.154   9.602   5.319 -4.6072 -0.6307  1.3104
  594MOL0     H80162  11.303   9.613   5.520 -2.3511 -0.3104 -0.9086
  594MOL0     H80163  11.396   9.533   5.392  0.4571 -3.4421 -1.0204
  594MOL0     H80164  11.237   9.352   5.560 -0.6613  1.4121  0.6554
  594MOL0     H80165  11.402   9.332   5.503 -1.1653 -2.9355  2.0642
  594MOL0     H80166  11.393   9.317   5.742 -0.8612  0.9054  1.3289
  594MOL0     H80167  11.330   9.480   5.753 -0.6895 -2.3474  1.8652
  594MOL0     H80168  11.610   9.407   5.640 -0.6363 -0.3268 -1.4439
  594MOL0     H80169  11.538   9.567   5.660 -1.4074 -0.8288 -1.2124
  594MOL0     H80170  10.832   9.035   5.113  0.5025  4.0383  1.7462
  594MOL0     H80171  10.744   8.856   5.267 -0.1110  0.5194 -0.1210
  594MOL0     H80172  10.632   8.636   5.527  3.8479  0.9445 -1.6734
  594MOL0     H80173  10.482   8.518   5.661 -0.0777 -0.3773  2.5500
  594MOL0     H80174   9.802   7.732   4.805  0.5834 -0.3122 -0.6526
  594MOL0     H80175   9.699   7.748   4.570 -1.6828 -1.2928 -1.8009
  594MOL0     H80176   9.356   7.577   4.309  1.8574  0.5777  3.1333
  594MOL0     H80177   9.269   7.582   4.081  1.7578  1.4321 -2.5492
  594MOL0     H80178   9.106   7.863   3.801 -1.8012  0.8487 -0.8879
  594MOL0     H80179   9.112   7.968   3.941 -1.1479 -0.4320 -0.2309
  594MOL0     H80180   8.862   7.870   3.843  0.9898 -0.9411 -1.9304
  594MOL0     H80181   8.904   7.922   4.006  1.8599 -1.6561  1.0308
  594MOL0     H80182   8.953   7.674   4.057 -0.0982 -0.5209 -0.4777
  594MOL0     H80183   8.902   7.622   3.907  2.2927  2.4104 -2.3592
  594MOL0     H80184   8.740   7.784   4.120 -1.9808 -0.0390  0.6210
  594MOL0     H80185   8.686   7.761   3.960  1.1502  1.0649 -0.2548
  594MOL0     H80186   8.633   7.385   4.162 -0.2269  0.4299  0.1080
  594MOL0     H80187   9.152   7.995   4.138  0.0194  0.5609  2.6305
  594MOL0     H80188   9.201   8.050   4.479  2.0949  2.2338  1.1838
  594MOL0     H80189   9.347   8.084   4.397 -0.1403 -0.5070  2.6026
  594MOL0     H80190   9.194   8.121   4.314  0.1851 -1.1185 -2.0608
  595MOL0     O80191   4.717   8.558   1.185  0.7330  0.0960 -0.1823
  595MOL0     C80192   4.746   8.447   1.153  0.3062 -1.1070  0.7931
  595MOL0     O80193   4.655   8.348   1.117 -0.6257 -0.3655  0.4637
  595MOL0     C80194   4.524   8.371   1.133  0.2329 -0.8692 -1.2211
  595MOL0     C80195   4.433   8.370   1.029  0.6607  0.1349 -0.1038
  595MOL0     C80196   4.291   8.374   1.054 -1.0457  0.3110  0.2860
  595MOL0     C80197   4.248   8.384   1.184  0.6084  1.1427 -0.5580
  595MOL0     O80198   4.114   8.395   1.217 -0.2153  0.4559 -0.4389
  595MOL0     C80199   4.012   8.418   1.124 -0.6773  0.5015 -0.6239
  595MOL0     C80200   3.880   8.398   1.187  0.8526  0.2014 -1.0470
  595MOL0     C80201   3.765   8.396   1.085  1.2261  0.4178 -0.0506
  595MOL0     C80202   3.626   8.375   1.155 -0.4093 -0.3031 -0.1563
  595MOL0     C80203   3.497   8.388   1.069 -0.1549 -0.5383 -0.7134
  595MOL0     C80204   3.377   8.330   1.162 -0.2474 -0.2172  0.7010
  595MOL0     C80205   3.362   8.173   1.143  0.2669 -0.3993 -0.2966
  595MOL0     C80206   3.299   8.124   1.013  0.9316  0.2545 -0.2594
  595MOL0     N80207   3.164   8.174   0.973 -0.3402 -0.7218 -0.2658
  595MOL0     C80208   3.056   8.194   1.058  0.3596  0.4313 -0.6262
  595MOL0     C80209   2.957   8.233   0.974 -0.3656 -0.5680 -0.6998
  595MOL0     C80210   2.813   8.233   1.011 -0.1996  0.5093 -0.5072
  595MOL0     C80211   2.729   8.351   0.951 -0.3063  0.6657  0.1547
  595MOL0     C80212   2.596   8.290   0.889 -1.7861 -0.0828 -0.1807
  595MOL0     C80213   2.507   8.224   0.988 -0.3690 -0.3987  0.0908
  595MOL0     O80214   2.411   8.142   0.917 -0.6506 -0.4062  0.4283
  595MOL0     C80215   2.269   8.155   0.932  0.0144  0.4501  0.1748
  595MOL0     C80216   2.197   8.035   0.904 -0.1618 -0.3404  0.3721
  595MOL0     C80217   2.064   8.040   0.921 -0.0797 -0.3083 -0.8466
  595MOL0     C80218   1.984   8.157   0.952  0.1134  0.2401 -0.5776
  595MOL0     C80219   1.832   8.153   0.948 -0.7154  0.3383 -0.2821
  595MOL0     O80220   1.781   8.042   0.891 -0.5805  0.1716 -0.4286
  595MOL0     C80221   1.655   8.010   0.930 -0.0895  0.5232  0.7158
  595MOL0     C80222   1.640   7.973   1.067  0.1361 -0.2035  0.0590
  595MOL0     C80223   1.510   7.961   1.126 -0.9594  0.0415 -0.4899
  595MOL0     C80224   1.395   7.955   1.040 -0.0941  0.0445 -0.8029
  595MOL0     O80225   1.271   7.908   1.087 -0.2542  0.7608  0.0969
  595MOL0     C80226   1.237   7.912   1.223 -0.2503  0.4593  0.8371
  595MOL0     C80227   1.096   7.860   1.226 -0.3584 -0.0749 -0.3863
  595MOL0     C80228   1.038   7.809   1.351  0.6426  0.5064 -0.0966
  595MOL0     C80229   0.886   7.768   1.325 -0.3810 -0.2101 -0.6780
  595MOL0     C80230   0.811   7.742   1.459 -0.0756  0.1681  0.6428
  595MOL0     C80231   0.669   7.682   1.443 -0.8791  0.4172 -0.8187
  595MOL0     C80232   0.603   7.649   1.578 -0.2702  0.1241  0.4602
  595MOL0     C80233   0.465   7.568   1.562  0.1717  0.3005 -1.1632
  595MOL0    Cl80234   0.403   7.523   1.723 -0.2978 -0.3948 -0.2407
  595MOL0     C80235   1.415   7.967   0.901 -0.0997  0.8799 -0.6755
  595MOL0     C80236   1.536   7.997   0.843 -0.6285  0.4483 -0.1568
  595MOL0     O80237   1.773   8.245   1.003  0.3888 -0.0897  0.7256
  595MOL0     C80238   2.058   8.273   0.973 -0.4020  0.0156  0.9204
  595MOL0     C80239   2.200   8.274   0.974  0.9893  0.4809  0.6645
  595MOL0     N80240   3.010   8.250   0.848  0.2361  0.2076 -0.5285
  595MOL0     N80241   3.130   8.206   0.842  0.6451 -0.3513  0.3721
  595MOL0     C80242   4.335   8.397   1.293 -0.0375 -0.8761 -0.6509
  595MOL0     C80243   4.474   8.393   1.268  0.5653 -0.3191 -0.3319
  595MOL0     C80244   4.894   8.422   1.145 -0.3639  0.3025  0.9825
  595MOL0     C80245   4.948   8.347   1.033  0.0910  0.1129 -0.2633
  595MOL0     C80246   5.088   8.337   1.010 -1.3840 -0.5148  0.2523
  595MOL0     C80247   5.179   8.401   1.087  0.4032  0.3403  0.0519
  595MOL0     O80248   5.311   8.402   1.063  0.2416 -0.4054 -0.7170
  595MOL0     C80249   5.411   8.422   1.170  0.5743  0.4762  0.5007
  595MOL0     C80250   5.555   8.375   1.144 -0.0458  0.0609  0.4094
  595MOL0     C80251   5.623   8.469   1.036 -0.0559  0.5612 -0.4385
  595MOL0     C80252   5.763   8.438   0.986 -0.5045 -1.6704  0.1657
  595MOL0     C80253   5.856   8.490   1.086 -0.0739  0.0254  0.1374
  595MOL0     C80254   5.936   8.541   1.152  0.0239  0.1241 -0.8656
  595MOL0     C80255   5.127   8.465   1.194  0.2439  0.8367  0.0105
  595MOL0     C80256   4.987   8.483   1.223  0.0329 -0.1539 -0.3298
  595MOL0     C80257   4.958   8.577   1.336  0.2223 -0.0964 -1.0277
  595MOL0     H80258   4.473   8.368   0.928  0.6185  0.4467 -0.1253
  595MOL0     H80259   4.227   8.371   0.966  1.7157  3.4787 -2.0975
  595MOL0     H80260   4.025   8.523   1.095 -2.5222  0.7700 -0.6483
  595MOL0     H80261   4.028   8.344   1.046  1.2235 -2.9335  2.6745
  595MOL0     H80262   3.864   8.477   1.261 -2.6474  0.6141 -2.0754
  595MOL0     H80263   3.881   8.300   1.236  1.5519 -0.1815 -1.8063
  595MOL0     H80264   3.794   8.314   1.018  2.3134  1.4071 -0.8495
  595MOL0     H80265   3.763   8.482   1.017  1.6040  1.0073  0.6659
  595MOL0     H80266   3.622   8.270   1.184  0.9634  0.2860  2.4229
  595MOL0     H80267   3.619   8.438   1.244 -1.0616 -1.7033  0.8210
  595MOL0     H80268   3.479   8.493   1.046 -1.4619 -0.7981 -0.9361
  595MOL0     H80269   3.502   8.334   0.974  0.9385  1.2576 -1.7254
  595MOL0     H80270   3.379   8.368   1.265  1.2048  0.1947  0.5442
  595MOL0     H80271   3.286   8.373   1.119  0.4639  2.0568  1.2851
  595MOL0     H80272   3.289   8.137   1.216  1.5732  1.2307  1.9374
  595MOL0     H80273   3.454   8.116   1.159  1.6984  1.0359 -2.7846
  595MOL0     H80274   3.372   8.154   0.938  0.3552 -0.0941 -0.9702
  595MOL0     H80275   3.280   8.017   1.027 -2.0635  0.7576  0.1393
  595MOL0     H80276   3.054   8.171   1.164 -0.3823  0.1514 -0.6978
  595MOL0     H80277   2.785   8.131   0.982  4.9577 -0.7455 -2.2237
  595MOL0     H80278   2.803   8.241   1.120  1.4202 -2.6581 -0.0049
  595MOL0     H80279   2.713   8.424   1.031  1.3001 -2.8821  4.0646
  595MOL0     H80280   2.776   8.409   0.871 -0.7255 -1.8142 -2.0237
  595MOL0     H80281   2.615   8.221   0.806 -0.4348 -0.1429  0.1511
  595MOL0     H80282   2.536   8.375   0.857 -3.0892  0.0279  2.2809
  595MOL0     H80283   2.454   8.300   1.046  0.1548 -0.2909  0.4360
  595MOL0     H80284   2.562   8.173   1.067 -0.1267  2.7627  2.1260
  595MOL0     H80285   2.250   7.945   0.876 -2.8635 -1.0990 -3.0333
  595MOL0     H80286   2.011   7.948   0.898  0.1434 -0.6777  0.0706
  595MOL0     H80287   1.732   7.956   1.123 -1.2071  0.8565  2.8108
  595MOL0     H80288   1.496   7.959   1.234  1.3416  1.4539 -0.0971
  595MOL0     H80289   1.312   7.854   1.278  0.6700  0.0163 -0.8133
  595MOL0     H80290   1.250   8.014   1.262  0.2300  1.4696 -1.7444
  595MOL0     H80291   1.035   7.940   1.184 -2.8493 -2.0010 -0.6776
  595MOL0     H80292   1.090   7.770   1.165  3.3174 -3.4364  3.5468
  595MOL0     H80293   1.082   7.718   1.394 -1.0087 -1.4416 -2.2152
  595MOL0     H80294   1.040   7.889   1.425  1.0256 -1.2913  1.9471
  595MOL0     H80295   0.863   7.678   1.267  3.5577 -0.2800 -2.4711
  595MOL0     H80296   0.839   7.851   1.271 -2.5990 -1.4703 -0.7889
  595MOL0     H80297   0.810   7.836   1.515 -0.6795  1.2986 -1.1751
  595MOL0     H80298   0.872   7.671   1.516  2.1626  0.7561 -0.8875
  595MOL0     H80299   0.606   7.751   1.387  1.0880  0.7696 -2.7386
  595MOL0     H80300   0.668   7.590   1.384  1.5899  1.3490 -2.4517
  595MOL0     H80301   0.598   7.738   1.641  1.3751  0.0589  0.7350
  595MOL0     H80302   0.664   7.574   1.631 -2.1696 -0.3152  2.1677
  595MOL0     H80303   0.389   7.628   1.512 -0.0936 -0.5662 -1.8197
  595MOL0     H80304   0.487   7.479   1.503  0.0858 -0.9767  0.6480
  595MOL0     H80305   1.332   7.938   0.836  1.9660 -1.2703 -2.5239
  595MOL0     H80306   1.556   8.010   0.737  2.0482 -0.1258  0.2183
  595MOL0     H80307   1.993   8.360   0.978 -0.8733 -0.0865 -1.7135
  595MOL0     H80308   2.245   8.371   0.994 -1.1945  1.7120 -0.0023
  595MOL0     H80309   4.289   8.430   1.386  0.3757 -2.2771  0.0756
  595MOL0     H80310   4.534   8.406   1.357  0.6971  0.0996 -0.4823
  595MOL0     H80311   4.887   8.282   0.971 -4.0152  1.0374  2.3892
  595MOL0     H80312   5.137   8.285   0.929  0.6502  2.1357 -0.3428
  595MOL0     H80313   5.382   8.367   1.260 -0.6500 -0.2825 -0.3230
  595MOL0     H80314   5.412   8.527   1.199  0.7445 -0.1965  3.1993
  595MOL0     H80315   5.542   8.275   1.101 -1.2334  0.4542 -0.1991
  595MOL0     H80316   5.627   8.386   1.226  1.3564  2.4375 -1.0219
  595MOL0     H80317   5.621   8.569   1.080  2.4468  0.9053 -0.9768
  595MOL0     H80318   5.553   8.467   0.952 -0.5852 -2.3970 -0.0438
  595MOL0     H80319   5.759   8.329   0.977 -1.1979 -1.4545 -2.9603
  595MOL0     H80320   5.776   8.483   0.888  0.7035 -2.5214 -0.0911
  595MOL0     H80321   6.002   8.596   1.216 -1.1269  0.5389  0.0209
  595MOL0     H80322   5.194   8.515   1.262  1.0278 -2.8504  2.2178
  595MOL0     H80323   4.932   8.678   1.304  1.9707  0.9662  0.6864
  595MOL0     H80324   4.873   8.536   1.392  0.7705 -1.7579 -1.3509
  595MOL0     H80325   5.034   8.584   1.414 -2.8360  1.5109  2.1112
  596MOL0     O80326  10.132   9.246   6.043 -0.2361  0.1302 -0.6129
  596MOL0     C80327  10.060   9.339   6.087 -0.3456 -0.2087 -0.0546
  596MOL0     O80328  10.091   9.416   6.190 -0.1048  0.2295 -0.5108
  596MOL0     C80329  10.221   9.423   6.226 -0.4091 -0.0849 -0.2996
  596MOL0     C80330  10.336   9.422   6.142  0.2933 -0.3716  0.1082
  596MOL0     C80331  10.466   9.457   6.188  0.8586  0.2954 -0.1284
  596MOL0     C80332  10.482   9.491   6.330  0.3029  0.7346  0.1078
  596MOL0     O80333  10.599   9.531   6.384 -0.1983 -0.3871  0.0377
  596MOL0     C80334  10.707   9.574   6.305 -0.5504  0.0378 -0.3199
  596MOL0     C80335  10.808   9.668   6.386 -0.0083 -0.0904 -0.4461
  596MOL0     C80336  10.913   9.747   6.303  0.8405  0.3538 -0.3024
  596MOL0     C80337  11.041   9.750   6.388  0.4929  0.1164 -0.1798
  596MOL0     C80338  11.036   9.841   6.517 -0.2945 -0.8097 -0.9718
  596MOL0     C80339  11.172   9.887   6.564 -1.2934 -0.1029 -0.2735
  596MOL0     C80340  11.165   9.970   6.684  0.1348 -0.4691  0.3084
  596MOL0     C80341  11.308   9.986   6.734 -0.3026  0.9722  0.4658
  596MOL0     N80342  11.305  10.068   6.854 -0.0496  0.4120  0.2516
  596MOL0     C80343  11.314  10.012   6.982 -0.4879 -0.4115 -0.7028
  596MOL0     C80344  11.329  10.118   7.061 -1.0172 -0.7569 -0.1330
  596MOL0     C80345  11.336  10.140   7.210  1.1219 -0.2903  0.0872
  596MOL0     C80346  11.470  10.180   7.253 -0.8087  0.5269  0.0781
  596MOL0     C80347  11.462  10.214   7.406  0.4627 -0.3693 -0.8115
  596MOL0     C80348  11.599  10.217   7.473 -0.9534 -0.4688  0.5001
  596MOL0     O80349  11.673  10.096   7.448  0.3685  0.0760 -0.1812
  596MOL0     C80350  11.803  10.086   7.495  0.5768 -0.4886  0.3956
  596MOL0     C80351  11.862  10.172   7.585 -0.3227 -1.1352  0.5217
  596MOL0     C80352  12.004  10.152   7.610 -1.2137 -0.4268 -0.2629
  596MOL0     C80353  12.075  10.044   7.562 -0.0114 -0.4630  0.4332
  596MOL0     C80354  12.218  10.034   7.601 -0.7458  0.7359 -1.1538
  596MOL0     O80355  12.264  10.130   7.677  0.1580 -0.2746  0.2984
  596MOL0     C80356  12.377  10.113   7.742 -0.3506  0.3530  0.9199
  596MOL0     C80357  12.489  10.059   7.677  0.4782  0.6567  0.4737
  596MOL0     C80358  12.613  10.045   7.746  0.6465 -0.2126 -0.9122
  596MOL0     C80359  12.621  10.108   7.874  0.4681 -0.9666 -0.2899
  596MOL0     O80360  12.720  10.090   7.957 -1.7938 -0.5983 -1.1383
  596MOL0     C80361  12.841  10.031   7.907  0.7210 -0.0447 -0.5866
  596MOL0     C80362  12.833   9.884   7.900  0.7829  0.3985  0.5267
  596MOL0     C80363  12.970   9.809   7.860  0.6890  0.1473  0.3477
  596MOL0     C80364  12.931   9.655   7.829 -0.2601 -0.1005  0.8792
  596MOL0     C80365  13.047   9.568   7.837 -0.0399 -0.0605 -0.2248
  596MOL0     C80366  12.989   9.423   7.798 -0.0260 -0.7639 -0.0658
  596MOL0     C80367  13.088   9.306   7.796  0.5406  0.3522  1.2617
  596MOL0     C80368  13.139   9.278   7.933 -0.1808  0.1446 -0.4556
  596MOL0    Cl80369  13.315   9.303   7.945 -0.3169  0.9511 -0.0895
  596MOL0     C80370  12.511  10.170   7.928 -0.9763  0.4999 -0.6227
  596MOL0     C80371  12.391  10.171   7.867 -0.3600 -0.2028 -0.5943
  596MOL0     O80372  12.281   9.936   7.562 -0.0456  0.6284 -0.8617
  596MOL0     C80373  12.013   9.957   7.470  0.3839 -1.4272 -0.0550
  596MOL0     C80374  11.881   9.979   7.433  1.2210 -0.2741 -0.2274
  596MOL0     N80375  11.314  10.237   6.989 -0.4950  0.0153  0.4370
  596MOL0     N80376  11.308  10.204   6.870 -0.1064  0.3000 -0.1869
  596MOL0     C80377  10.372   9.490   6.412 -0.1110  0.4336  0.6053
  596MOL0     C80378  10.242   9.465   6.355 -0.2426 -0.7839 -0.1951
  596MOL0     C80379   9.932   9.362   6.019  0.6998 -0.4443  0.3094
  596MOL0     C80380   9.912   9.496   5.972 -0.1329 -0.0177 -0.1094
  596MOL0     C80381   9.786   9.528   5.912  0.2466  0.3884  0.5325
  596MOL0     C80382   9.677   9.440   5.920 -0.4858 -0.7617 -0.5708
  596MOL0     O80383   9.552   9.472   5.872 -0.1909  1.4011  0.1505
  596MOL0     C80384   9.530   9.602   5.837 -0.5968 -0.2692  0.0969
  596MOL0     C80385   9.408   9.621   5.744 -0.2277  0.5461 -0.0399
  596MOL0     C80386   9.432   9.572   5.602  0.0994  0.3853 -0.7544
  596MOL0     C80387   9.317   9.615   5.503 -0.6421  0.4171  0.9886
  596MOL0     C80388   9.194   9.544   5.538 -0.3656  0.0256  0.7893
  596MOL0     C80389   9.088   9.484   5.560  0.2053 -1.2003 -0.5703
  596MOL0     C80390   9.694   9.319   5.972  0.0282 -0.6158  0.0423
  596MOL0     C80391   9.825   9.273   6.014  0.2028 -0.3893 -0.4595
  596MOL0     C80392   9.850   9.144   6.081 -0.3123 -0.1233 -0.3824
  596MOL0     H80393  10.326   9.384   6.041 -2.0453 -3.4643  1.3364
  596MOL0     H80394  10.553   9.483   6.128  0.0495  4.6280  0.2534
  596MOL0     H80395  10.765   9.490   6.267  0.7377  0.6204  0.2980
  596MOL0     H80396  10.682   9.639   6.221  2.5778  0.3355 -1.1446
  596MOL0     H80397  10.852   9.616   6.472  0.1943  4.6184  2.6785
  596MOL0     H80398  10.746   9.747   6.432  1.1074 -1.6635  4.3171
  596MOL0     H80399  10.884   9.850   6.279  0.2595  0.6220  1.4404
  596MOL0     H80400  10.936   9.687   6.214  0.8824  1.9324 -1.3889
  596MOL0     H80401  11.060   9.650   6.427 -2.6854  0.8691  3.9540
  596MOL0     H80402  11.113   9.794   6.318  0.6250  1.4176  0.7427
  596MOL0     H80403  10.973   9.929   6.504 -2.6909 -1.6837  3.2797
  596MOL0     H80404  10.981   9.781   6.589 -3.9823 -2.6620 -4.8947
  596MOL0     H80405  11.236   9.800   6.584 -1.1816 -0.6624 -2.8019
  596MOL0     H80406  11.221   9.952   6.493  3.5956  0.3590  3.0411
  596MOL0     H80407  11.101   9.923   6.759 -0.9189 -2.3161 -1.6433
  596MOL0     H80408  11.126  10.067   6.654 -1.9960 -0.9996  1.1691
  596MOL0     H80409  11.345   9.887   6.761 -2.0662  0.5692  1.6145
  596MOL0     H80410  11.370  10.023   6.652  1.0770 -0.1990  0.9504
  596MOL0     H80411  11.329   9.909   7.011  0.4864  0.2112  1.1214
  596MOL0     H80412  11.266  10.218   7.241  2.6138  0.5202  1.6220
  596MOL0     H80413  11.310  10.055   7.273  0.3197  0.7930  1.2780
  596MOL0     H80414  11.539  10.095   7.249 -0.6279  0.6755  0.0723
  596MOL0     H80415  11.514  10.258   7.190 -0.3335 -1.0835 -1.6784
  596MOL0     H80416  11.401  10.138   7.456 -1.5928  1.7350  0.1421
  596MOL0     H80417  11.407  10.309   7.413  0.1754 -0.5182 -1.0190
  596MOL0     H80418  11.594  10.235   7.581  3.2912  0.8489  0.6611
  596MOL0     H80419  11.660  10.294   7.425 -1.9983 -1.2233 -2.2513
  596MOL0     H80420  11.811  10.252   7.639  1.3782 -1.3712  2.5851
  596MOL0     H80421  12.057  10.220   7.675 -1.3063 -1.6221  1.1067
  596MOL0     H80422  12.494  10.012   7.580 -2.9296 -1.9657  1.3774
  596MOL0     H80423  12.698   9.995   7.701  1.5692  1.6349 -1.3161
  596MOL0     H80424  12.856  10.087   7.814  2.6862  1.1305  0.3756
  596MOL0     H80425  12.928  10.058   7.967  1.2054 -2.8654  0.1116
  596MOL0     H80426  12.808   9.859   8.004 -2.8252  0.9323 -0.1046
  596MOL0     H80427  12.749   9.848   7.840  1.0831  2.7077 -1.4141
  596MOL0     H80428  13.001   9.860   7.768 -1.2622  1.4290  0.3426
  596MOL0     H80429  13.040   9.824   7.942  2.7163 -3.0481 -0.6194
  596MOL0     H80430  12.879   9.656   7.733  3.1150 -1.6583 -1.1371
  596MOL0     H80431  12.863   9.627   7.910 -1.2630 -0.2909 -0.0069
  596MOL0     H80432  13.073   9.568   7.943 -1.1919 -1.0608  0.0775
  596MOL0     H80433  13.126   9.601   7.769  0.2112  0.3528  0.2608
  596MOL0     H80434  12.909   9.388   7.863  0.1743  0.3552  0.8083
  596MOL0     H80435  12.948   9.443   7.699  1.2811  0.5753 -0.3843
  596MOL0     H80436  13.173   9.349   7.741 -0.2271 -1.6990 -1.7793
  596MOL0     H80437  13.045   9.216   7.750 -3.2920  2.3107  0.6054
  596MOL0     H80438  13.086   9.344   8.002  0.9987  1.1725 -0.4950
  596MOL0     H80439  13.118   9.175   7.962  2.3356 -0.5648 -0.9502
  596MOL0     H80440  12.533  10.210   8.026 -1.8880  2.9327 -1.3343
  596MOL0     H80441  12.306  10.205   7.925 -0.1864 -0.8432  0.0441
  596MOL0     H80442  12.064   9.870   7.431  0.7526 -1.6046  0.7875
  596MOL0     H80443  11.846   9.918   7.351  3.2600 -2.4397  0.4197
  596MOL0     H80444  10.381   9.526   6.514  3.0911  1.0653  0.1826
  596MOL0     H80445  10.150   9.476   6.412  1.5603  0.4857  2.6902
  596MOL0     H80446   9.995   9.566   5.979  0.9232 -1.3743  1.9733
  596MOL0     H80447   9.778   9.626   5.866  0.5400 -0.3592 -1.1829
  596MOL0     H80448   9.614   9.646   5.782  0.0622 -0.9075  0.5682
  596MOL0     H80449   9.525   9.658   5.930  1.5168  0.7062 -0.3257
  596MOL0     H80450   9.383   9.727   5.752  0.0880  0.6228 -0.0546
  596MOL0     H80451   9.315   9.572   5.774 -2.4630  2.0498 -3.8408
  596MOL0     H80452   9.453   9.464   5.603  0.5161  0.4589 -1.0815
  596MOL0     H80453   9.521   9.632   5.580  1.4726 -0.6144  1.6063
  596MOL0     H80454   9.309   9.722   5.524 -0.5276 -0.0071  3.6190
  596MOL0     H80455   9.343   9.593   5.399  3.9213  1.1861  1.7567
  596MOL0     H80456   8.991   9.438   5.556 -1.0493  1.1084  0.8877
  596MOL0     H80457   9.605   9.258   5.965 -1.1997  1.1187 -0.2029
  596MOL0     H80458   9.764   9.077   6.080  1.7212 -2.9172  0.6964
  596MOL0     H80459   9.918   9.090   6.015  0.0875 -0.3374  0.2045
  596MOL0     H80460   9.883   9.161   6.184 -0.6286 -0.8485 -0.1519
  597MOL0     O80461   8.559   4.053   2.741 -0.1403 -0.0511  0.2126
  597MOL0     C80462   8.438   4.062   2.701 -0.3183 -0.3960 -0.0826
  597MOL0     O80463   8.396   4.151   2.604 -0.1399  0.5574  0.7176
  597MOL0     C80464   8.484   4.186   2.501  1.9565  0.0147 -0.2332
  597MOL0     C80465   8.591   4.110   2.456  0.5592 -0.7549 -0.7886
  597MOL0     C80466   8.667   4.146   2.352 -0.6519 -0.4274  0.6528
  597MOL0     C80467   8.642   4.261   2.275 -0.2087 -0.0698 -0.5034
  597MOL0     O80468   8.712   4.301   2.165  0.4535  1.0025  0.8400
  597MOL0     C80469   8.835   4.246   2.148 -0.1256  0.5146  0.8973
  597MOL0     C80470   8.914   4.320   2.033 -0.0455 -0.9999 -0.0843
  597MOL0     C80471   8.883   4.286   1.888  0.5772 -0.0707  0.4317
  597MOL0     C80472   8.968   4.356   1.788 -0.3499  0.2180  0.2762
  597MOL0     C80473   9.099   4.282   1.754  0.0453 -0.4950 -0.3794
  597MOL0     C80474   9.144   4.331   1.610 -0.3134  0.0221  0.3156
  597MOL0     C80475   9.277   4.264   1.567 -1.1126  0.4954 -0.5061
  597MOL0     C80476   9.399   4.332   1.641 -0.1758 -1.0162  0.8442
  597MOL0     N80477   9.411   4.481   1.621  0.0743  0.8771  0.7337
  597MOL0     C80478   9.367   4.580   1.698 -0.5664 -0.3587 -0.2687
  597MOL0     C80479   9.361   4.693   1.619  1.8619  0.5498 -0.7872
  597MOL0     C80480   9.328   4.823   1.682 -0.1535 -0.1518  0.6128
  597MOL0     C80481   9.425   4.936   1.634 -0.3488  0.4048  0.3131
  597MOL0     C80482   9.379   5.070   1.669  0.4437 -0.6831  0.1610
  597MOL0     C80483   9.266   5.122   1.575 -0.1736  0.5218  0.0863
  597MOL0     O80484   9.263   5.265   1.581 -0.0666  0.2900 -0.3804
  597MOL0     C80485   9.368   5.336   1.525 -0.5166 -0.1204 -0.2327
  597MOL0     C80486   9.449   5.295   1.418  0.0391  0.1488  0.4660
  597MOL0     C80487   9.556   5.372   1.368  0.1067 -0.0964 -1.0531
  597MOL0     C80488   9.585   5.499   1.418  0.0226  0.5014 -0.5158
  597MOL0     C80489   9.721   5.555   1.378  0.3980  0.0594  0.4746
  597MOL0     O80490   9.754   5.665   1.453  0.6811  0.0105 -0.0127
  597MOL0     C80491   9.884   5.679   1.463 -0.3139 -0.0170 -1.0606
  597MOL0     C80492   9.937   5.799   1.452 -0.2601 -0.2454  0.0711
  597MOL0     C80493  10.070   5.826   1.491 -1.3286 -0.5671  0.5690
  597MOL0     C80494  10.150   5.718   1.523 -0.4345  0.0902 -0.0093
  597MOL0     O80495  10.285   5.732   1.552 -0.2690  0.3599 -0.3459
  597MOL0     C80496  10.322   5.835   1.648 -0.2045 -0.7325  0.6231
  597MOL0     C80497  10.239   5.826   1.778  0.2273  0.3525 -0.1117
  597MOL0     C80498  10.230   5.687   1.842  0.3585  0.2339  0.2493
  597MOL0     C80499  10.106   5.685   1.926  0.0152 -1.1569 -0.3698
  597MOL0     C80500  10.072   5.541   1.975 -0.8927  1.0439  0.0239
  597MOL0     C80501   9.944   5.521   2.065 -0.3005 -0.5302 -0.6719
  597MOL0     C80502   9.820   5.587   2.022  0.1901 -0.9384 -0.0614
  597MOL0     C80503   9.773   5.555   1.877 -0.2252 -0.6760 -0.6540
  597MOL0    Cl80504   9.728   5.398   1.889  0.1642  0.0619  0.4310
  597MOL0     C80505  10.094   5.594   1.534  0.3211 -0.4410  0.0322
  597MOL0     C80506   9.961   5.574   1.514 -0.0996 -0.1057 -0.1853
  597MOL0     O80507   9.791   5.502   1.294 -0.2622  0.7668 -0.2568
  597MOL0     C80508   9.502   5.545   1.525  0.5795 -0.9715  0.2880
  597MOL0     C80509   9.399   5.464   1.576  0.2274 -0.0296 -0.0329
  597MOL0     N80510   9.406   4.657   1.499  0.0261  0.0065  0.5976
  597MOL0     N80511   9.434   4.538   1.496  0.2369 -0.2771  0.0111
  597MOL0     C80512   8.540   4.342   2.313  1.5768  0.3017 -0.0247
  597MOL0     C80513   8.454   4.304   2.420  0.3894  0.2236 -0.4928
  597MOL0     C80514   8.341   3.955   2.750 -0.5115  0.1123  0.7214
  597MOL0     C80515   8.388   3.837   2.793 -0.1400 -1.1592 -0.4370
  597MOL0     C80516   8.327   3.735   2.858 -0.4083  0.1275 -0.0184
  597MOL0     C80517   8.185   3.740   2.881 -0.3166 -0.5519  0.7099
  597MOL0     O80518   8.116   3.637   2.937 -0.8100  0.0947  0.1509
  597MOL0     C80519   8.163   3.503   2.939  0.0302  1.0814 -0.7895
  597MOL0     C80520   8.094   3.443   3.066  0.1632  0.2421 -0.2119
  597MOL0     C80521   8.158   3.313   3.111  0.2695  0.5677  0.0719
  597MOL0     C80522   8.104   3.256   3.242 -0.4229  0.0645  0.2407
  597MOL0     C80523   8.059   3.358   3.338 -0.0216  0.7426 -0.2774
  597MOL0     C80524   8.010   3.452   3.403  0.2728 -0.7848  0.9118
  597MOL0     C80525   8.125   3.859   2.833  0.6087 -0.2838 -1.1011
  597MOL0     C80526   8.195   3.966   2.764  0.3995  0.5473 -0.2984
  597MOL0     C80527   8.121   4.090   2.735  0.1610  0.0224  0.5388
  597MOL0     H80528   8.607   4.009   2.494 -0.9596 -0.2970  1.2021
  597MOL0     H80529   8.746   4.082   2.314  0.9235  3.0878 -2.6311
  597MOL0     H80530   8.898   4.251   2.237  1.3933  1.3531 -0.1621
  597MOL0     H80531   8.826   4.142   2.118  0.9423  0.9440 -1.1167
  597MOL0     H80532   9.016   4.285   2.053  1.0068  1.2942 -1.1080
  597MOL0     H80533   8.898   4.423   2.066  0.3037 -1.1606  0.6168
  597MOL0     H80534   8.782   4.317   1.862  1.3378  1.0630 -1.3938
  597MOL0     H80535   8.890   4.176   1.892 -2.5661 -0.4761 -1.9852
  597MOL0     H80536   8.926   4.339   1.689  0.3537 -0.1238  0.0321
  597MOL0     H80537   8.996   4.457   1.822  0.9875 -0.0408 -0.0071
  597MOL0     H80538   9.172   4.291   1.835 -1.2930 -0.7964  0.9104
  597MOL0     H80539   9.079   4.174   1.744 -1.8073 -0.3691  1.2386
  597MOL0     H80540   9.060   4.309   1.542 -0.4666  1.2382  0.0922
  597MOL0     H80541   9.158   4.439   1.619  1.5354 -0.2719  1.4318
  597MOL0     H80542   9.290   4.284   1.460  0.6940  0.9443 -0.2316
  597MOL0     H80543   9.272   4.158   1.592 -1.5686  0.3950 -1.0142
  597MOL0     H80544   9.398   4.308   1.748  1.4580  0.8269  1.3316
  597MOL0     H80545   9.493   4.293   1.601 -0.3681 -0.7081  0.0776
  597MOL0     H80546   9.344   4.568   1.804 -0.9669 -0.6386 -0.3855
  597MOL0     H80547   9.222   4.844   1.662 -0.7001 -2.4618  0.7758
  597MOL0     H80548   9.323   4.813   1.791 -1.7933  3.8530  1.0676
  597MOL0     H80549   9.515   4.912   1.692 -1.9862 -1.5240  2.2205
  597MOL0     H80550   9.444   4.926   1.527 -0.3328  1.6983  0.1791
  597MOL0     H80551   9.464   5.139   1.656  1.1942 -1.7686 -0.9726
  597MOL0     H80552   9.335   5.069   1.769 -1.1654  0.5889 -0.4979
  597MOL0     H80553   9.176   5.079   1.620 -0.9304  0.6948 -1.2457
  597MOL0     H80554   9.284   5.081   1.475  2.4664  1.7350 -0.0241
  597MOL0     H80555   9.431   5.199   1.370  0.7629 -0.7866  1.9981
  597MOL0     H80556   9.614   5.314   1.297  0.0960 -0.3796 -0.8303
  597MOL0     H80557   9.872   5.884   1.436  2.0952  1.7456  0.6039
  597MOL0     H80558  10.109   5.926   1.480  2.7372 -1.8801  1.4306
  597MOL0     H80559  10.430   5.835   1.660 -0.1117  1.7946  0.4511
  597MOL0     H80560  10.317   5.937   1.609  1.1798 -0.4580  1.1003
  597MOL0     H80561  10.291   5.891   1.849 -0.9441  1.9846 -0.6913
  597MOL0     H80562  10.143   5.875   1.758 -0.4839 -1.7382 -2.2775
  597MOL0     H80563  10.229   5.607   1.768  0.6343  2.1736 -1.9691
  597MOL0     H80564  10.322   5.683   1.901 -0.3930  3.5584  1.9279
  597MOL0     H80565  10.025   5.724   1.864  1.3385  0.1301 -1.3505
  597MOL0     H80566  10.135   5.753   2.007 -0.4151  2.4551 -2.9810
  597MOL0     H80567  10.158   5.497   2.026  0.2145  1.7032 -1.2522
  597MOL0     H80568  10.054   5.471   1.893 -1.6387  0.0345  1.0044
  597MOL0     H80569   9.919   5.417   2.085  2.0222 -1.4113 -1.9370
  597MOL0     H80570   9.955   5.565   2.164 -0.9450  2.8917 -1.9732
  597MOL0     H80571   9.827   5.695   2.036  2.5718 -0.8845 -1.2217
  597MOL0     H80572   9.737   5.560   2.088 -0.9584  0.9173 -0.6662
  597MOL0     H80573   9.689   5.617   1.844  0.9166  0.5291 -1.4235
  597MOL0     H80574   9.865   5.570   1.819  1.8154  0.7416  2.6420
  597MOL0     H80575  10.152   5.503   1.541 -1.4534 -1.5231  2.1877
  597MOL0     H80576   9.928   5.470   1.511  0.5327 -0.3178  0.0189
  597MOL0     H80577   9.527   5.642   1.566  0.1536  0.4975 -2.6430
  597MOL0     H80578   9.331   5.495   1.655 -0.1582 -0.3837 -0.2207
  597MOL0     H80579   8.526   4.442   2.272 -0.1137  0.1684  0.1746
  597MOL0     H80580   8.375   4.376   2.441  0.8116  1.6973 -3.4574
  597MOL0     H80581   8.494   3.819   2.774  0.8368  2.2392  1.0242
  597MOL0     H80582   8.391   3.650   2.874  1.0418  1.3335  0.8741
  597MOL0     H80583   8.271   3.487   2.949 -0.2002  0.6788  2.0045
  597MOL0     H80584   8.140   3.445   2.850  1.0758 -2.1011  0.8483
  597MOL0     H80585   7.990   3.424   3.037 -0.3555 -1.4804  2.3972
  597MOL0     H80586   8.093   3.515   3.148  1.9877 -0.4893  0.5080
  597MOL0     H80587   8.267   3.325   3.119  0.8694 -2.6993 -1.4708
  597MOL0     H80588   8.141   3.238   3.033 -1.9943 -0.4999  1.4835
  597MOL0     H80589   8.022   3.186   3.222 -1.0297  1.1984 -1.5411
  597MOL0     H80590   8.189   3.203   3.285 -0.7209 -1.4103 -0.8868
  597MOL0     H80591   7.959   3.529   3.458 -2.7074 -3.5577  2.3560
  597MOL0     H80592   8.019   3.880   2.847  0.2427 -2.9267  0.7477
  597MOL0     H80593   8.186   4.178   2.731 -2.1745  1.9998 -4.8073
  597MOL0     H80594   8.087   4.078   2.631 -1.1521  1.6478  0.7367
  597MOL0     H80595   8.036   4.095   2.803  1.4488  0.5289  2.1563
  598MOL0     O80596   1.411   4.755  11.181  0.9979  0.3048  0.4954
  598MOL0     C80597   1.484   4.842  11.137  0.2077 -0.2186  0.0797
  598MOL0     O80598   1.457   4.921  11.027 -0.1011 -0.5052 -0.4368
  598MOL0     C80599   1.325   4.933  10.992 -0.6454  0.1880  0.2356
  598MOL0     C80600   1.294   4.927  10.853 -0.0672 -0.9563 -0.4777
  598MOL0     C80601   1.159   4.941  10.804  0.2060 -0.1813  1.3407
  598MOL0     C80602   1.057   4.968  10.894 -0.4745 -0.0311  0.3150
  598MOL0     O80603   0.928   4.986  10.857 -0.1260  0.6218  1.2027
  598MOL0     C80604   0.891   5.022  10.719 -0.2194 -0.0334  0.3376
  598MOL0     C80605   0.752   4.980  10.698  0.6606 -0.0972  0.0942
  598MOL0     C80606   0.653   5.072  10.776  0.1540  0.7568 -0.3097
  598MOL0     C80607   0.509   5.022  10.787 -1.3186 -0.7580 -0.6407
  598MOL0     C80608   0.460   4.935  10.671  0.5272  1.1673 -0.7284
  598MOL0     C80609   0.320   4.874  10.684  1.0122  0.2798 -0.0520
  598MOL0     C80610   0.288   4.749  10.771 -0.2423  0.6875  0.0880
  598MOL0     C80611   0.144   4.736  10.814 -0.0608 -1.2103  0.6006
  598MOL0     N80612   0.040   4.694  10.712  0.0294  0.1070  0.2385
  598MOL0     C80613  -0.006   4.772  10.608 -0.5354  0.1376  0.3746
  598MOL0     C80614  -0.116   4.718  10.569 -0.3472  0.1085  0.2389
  598MOL0     C80615  -0.215   4.811  10.498  0.6031 -0.3654 -0.2436
  598MOL0     C80616  -0.328   4.849  10.601 -0.4443 -0.0536 -0.0726
  598MOL0     C80617  -0.314   5.001  10.636 -0.1671 -0.5184  0.4833
  598MOL0     C80618  -0.198   5.042  10.725  0.0394  0.1000 -0.0105
  598MOL0     O80619  -0.203   4.985  10.851 -0.0659 -1.1060 -0.8277
  598MOL0     C80620  -0.095   5.001  10.930 -0.5287  0.7301  0.5794
  598MOL0     C80621  -0.098   4.920  11.046 -1.1797  0.0987  0.2244
  598MOL0     C80622   0.016   4.917  11.132  0.3371  0.1327  1.2729
  598MOL0     C80623   0.126   5.011  11.108 -0.0816 -0.0385  0.3538
  598MOL0     C80624   0.244   5.010  11.203 -0.5744 -0.4107 -0.4527
  598MOL0     O80625   0.351   5.095  11.173 -0.0658 -0.2712  0.2888
  598MOL0     C80626   0.466   5.072  11.239 -0.2183  0.0936  0.2554
  598MOL0     C80627   0.575   5.014  11.177  0.2114  0.3538 -0.9673
  598MOL0     C80628   0.698   5.000  11.251 -0.4997  0.1948  0.4904
  598MOL0     C80629   0.706   5.051  11.381  0.2585  0.3265  0.2077
  598MOL0     O80630   0.822   5.031  11.452 -0.0131  0.0388  0.0025
  598MOL0     C80631   0.887   5.153  11.491  0.3143 -0.3760  0.1839
  598MOL0     C80632   0.992   5.147  11.599  0.3250  1.6490  0.4440
  598MOL0     C80633   1.053   5.010  11.608 -0.0425  0.1195  0.4312
  598MOL0     C80634   1.178   4.999  11.520  0.2920 -0.0586  0.2235
  598MOL0     C80635   1.292   5.090  11.573 -0.6365 -0.4998 -0.7966
  598MOL0     C80636   1.407   5.088  11.471  0.8210 -0.1003  0.6140
  598MOL0     C80637   1.403   5.182  11.346 -0.6032  0.3257  0.1088
  598MOL0     C80638   1.434   5.326  11.389  0.2652  0.4058  0.4328
  598MOL0    Cl80639   1.609   5.367  11.425  0.1856  0.3352  0.1982
  598MOL0     C80640   0.594   5.114  11.434 -0.1510 -0.6663 -0.0874
  598MOL0     C80641   0.478   5.129  11.360 -0.2644 -0.8109  0.3662
  598MOL0     O80642   0.253   4.918  11.279 -0.2867  0.1374 -0.2945
  598MOL0     C80643   0.125   5.090  10.988  0.0716 -0.0509  1.0254
  598MOL0     C80644   0.023   5.081  10.900 -0.1158 -0.3832  0.6438
  598MOL0     N80645  -0.138   4.604  10.644 -0.6089  0.3724 -0.2128
  598MOL0     N80646  -0.055   4.607  10.737 -0.8578  0.4220  0.3529
  598MOL0     C80647   1.094   4.975  11.032 -0.4661 -0.1859 -0.9902
  598MOL0     C80648   1.226   4.957  11.079 -0.1352 -0.5336 -0.6329
  598MOL0     C80649   1.615   4.883  11.204  0.9856 -0.2554  0.9080
  598MOL0     C80650   1.698   4.982  11.145  0.1403 -0.0472 -0.2963
  598MOL0     C80651   1.826   5.014  11.195  0.0791  0.0488  0.3324
  598MOL0     C80652   1.869   4.959  11.316  0.6091 -0.1839 -0.3717
  598MOL0     O80653   1.995   5.006  11.366 -0.0460 -0.8715  0.3253
  598MOL0     C80654   1.997   5.042  11.507  0.0434  0.6123  0.1083
  598MOL0     C80655   1.919   5.164  11.543  0.7547  0.0685 -0.5940
  598MOL0     C80656   1.917   5.182  11.697  0.7631 -0.7091  0.6143
  598MOL0     C80657   1.785   5.253  11.741  0.0802  0.0022  0.1001
  598MOL0     C80658   1.816   5.396  11.739  0.3421  0.1677 -0.1339
  598MOL0     C80659   1.840   5.512  11.722  0.2055 -0.5012  0.0477
  598MOL0     C80660   1.800   4.858  11.370  0.1975 -0.6065  0.0556
  598MOL0     C80661   1.667   4.822  11.317  0.7119  0.6605 -0.9317
  598MOL0     C80662   1.587   4.708  11.384 -0.4971  0.1774  0.5667
  598MOL0     H80663   1.377   4.911  10.785  0.2411  1.2391 -0.7090
  598MOL0     H80664   1.142   4.939  10.697 -0.6533 -0.3131  1.4705
  598MOL0     H80665   0.900   5.129  10.696 -4.7433  0.0942 -1.7046
  598MOL0     H80666   0.948   4.960  10.650 -0.0885  0.1028  0.3218
  598MOL0     H80667   0.756   4.872  10.717 -0.5646 -0.1486  0.1094
  598MOL0     H80668   0.731   5.004  10.594  2.3872  2.0853  0.1740
  598MOL0     H80669   0.647   5.167  10.722 -0.4089  0.5577 -0.6056
  598MOL0     H80670   0.691   5.090  10.877  2.8997  2.3666 -1.5061
  598MOL0     H80671   0.501   4.956  10.874  2.0267  0.9672  1.1700
  598MOL0     H80672   0.449   5.114  10.797  2.2243  1.9259 -2.0772
  598MOL0     H80673   0.454   4.994  10.579  1.1424 -0.2070 -1.6829
  598MOL0     H80674   0.531   4.854  10.654  0.5482  1.5388 -2.6449
  598MOL0     H80675   0.243   4.948  10.709 -1.5153 -2.0264 -0.5093
  598MOL0     H80676   0.282   4.833  10.590  2.2021 -3.6555  1.0124
  598MOL0     H80677   0.351   4.767  10.859 -0.5185 -3.7364  1.4269
  598MOL0     H80678   0.323   4.657  10.724 -0.9359  0.5557 -0.1757
  598MOL0     H80679   0.147   4.648  10.880 -0.7497 -1.6398  0.0738
  598MOL0     H80680   0.113   4.829  10.862  3.1492 -0.9825  2.5643
  598MOL0     H80681   0.046   4.859  10.569  0.2835  0.3107  1.7471
  598MOL0     H80682  -0.156   4.899  10.473  1.3200 -0.7282  0.1093
  598MOL0     H80683  -0.255   4.761  10.410 -0.4297 -0.2838  0.1716
  598MOL0     H80684  -0.426   4.828  10.557  0.1171 -2.7826 -0.1452
  598MOL0     H80685  -0.328   4.790  10.693 -3.0556  1.2341  0.8709
  598MOL0     H80686  -0.411   5.039  10.672  1.0285  1.3826  1.8841
  598MOL0     H80687  -0.312   5.067  10.549 -2.1539 -2.1942 -0.9595
  598MOL0     H80688  -0.192   5.151  10.729  0.4945  0.1470 -1.4873
  598MOL0     H80689  -0.110   4.999  10.678  0.5108  0.7172  0.2889
  598MOL0     H80690  -0.192   4.867  11.061 -0.5669 -0.6268  1.7255
  598MOL0     H80691   0.004   4.856  11.221 -4.4836 -2.8520 -1.0322
  598MOL0     H80692   0.567   4.967  11.079 -2.7066  0.1110 -0.6842
  598MOL0     H80693   0.787   4.958  11.205 -1.1260  0.4467 -1.0347
  598MOL0     H80694   0.933   5.191  11.399 -4.4415  1.2808 -1.8489
  598MOL0     H80695   0.811   5.223  11.529  0.8109 -2.2457  5.4489
  598MOL0     H80696   1.052   5.238  11.594 -0.7446  2.3046 -1.0159
  598MOL0     H80697   0.943   5.156  11.697  1.7702  2.8781  1.0937
  598MOL0     H80698   1.091   5.001  11.710  1.2020  3.4571  0.3853
  598MOL0     H80699   0.989   4.923  11.587  1.6260 -1.0873  0.1133
  598MOL0     H80700   1.155   5.030  11.418  1.8853  0.4200 -0.0206
  598MOL0     H80701   1.211   4.894  11.517  0.6812  0.0841 -2.0134
  598MOL0     H80702   1.314   5.033  11.664  0.4458 -1.4774 -1.6546
  598MOL0     H80703   1.259   5.191  11.599  1.4849 -0.0832  0.4921
  598MOL0     H80704   1.491   5.120  11.534 -0.6557 -0.4868  2.9214
  598MOL0     H80705   1.419   4.981  11.452  0.6064  0.2019 -1.4225
  598MOL0     H80706   1.298   5.179  11.316 -0.3483  0.4943 -0.8410
  598MOL0     H80707   1.478   5.158  11.270  1.2282 -2.3809  2.5498
  598MOL0     H80708   1.399   5.401  11.317  0.1312  1.7386  1.8158
  598MOL0     H80709   1.372   5.339  11.479 -0.2808 -0.1007  0.1388
  598MOL0     H80710   0.593   5.154  11.535  1.2668 -1.7077  0.3699
  598MOL0     H80711   0.400   5.180  11.416  0.8402 -1.3373  2.4733
  598MOL0     H80712   0.199   5.169  10.976  0.6634 -0.7070  0.2494
  598MOL0     H80713   0.031   5.147  10.814  0.1265  0.1937  1.1056
  598MOL0     H80714   1.013   5.002  11.099 -0.1157  1.6834 -1.2754
  598MOL0     H80715   1.245   4.995  11.179 -2.1232  0.8711 -0.7390
  598MOL0     H80716   1.670   5.023  11.049 -0.2592 -1.2129 -0.6984
  598MOL0     H80717   1.905   5.059  11.136 -0.8525 -0.0460 -1.0364
  598MOL0     H80718   2.097   5.078  11.535 -0.9704  1.0493  3.7516
  598MOL0     H80719   1.986   4.953  11.569 -0.7802  0.1677 -0.6618
  598MOL0     H80720   1.816   5.147  11.511 -0.0394 -0.0774  1.8736
  598MOL0     H80721   1.970   5.250  11.500  0.0719  0.4233 -0.7032
  598MOL0     H80722   2.006   5.236  11.731 -0.1650  2.5304 -1.6125
  598MOL0     H80723   1.908   5.083  11.743 -0.1871 -0.5430  0.8019
  598MOL0     H80724   1.700   5.224  11.679  0.9630 -0.6537 -0.8351
  598MOL0     H80725   1.750   5.222  11.840  0.6357 -1.8809 -0.2529
  598MOL0     H80726   1.869   5.614  11.706 -1.1855 -0.2330 -0.9377
  598MOL0     H80727   1.841   4.803  11.455 -0.4254 -0.5352  0.4149
  598MOL0     H80728   1.492   4.746  11.423 -2.0464 -1.6760 -1.1296
  598MOL0     H80729   1.569   4.626  11.314  1.0657  0.5459 -0.3134
  598MOL0     H80730   1.658   4.671  11.458  0.0446 -3.1019 -1.3668
  599MOL0     O80731   7.675   6.507   7.206 -0.1199 -0.0861 -0.6424
  599MOL0     C80732   7.659   6.472   7.091 -0.5691 -0.0648 -0.3421
  599MOL0     O80733   7.590   6.362   7.058  0.5356 -0.3565 -0.2268
  599MOL0     C80734   7.493   6.309   7.142 -0.0636 -0.1567  0.2336
  599MOL0     C80735   7.386   6.238   7.081  0.3503 -0.5693  0.2555
  599MOL0     C80736   7.291   6.168   7.152 -0.0032 -1.0033  0.0206
  599MOL0     C80737   7.306   6.160   7.292  0.0935 -0.0022 -0.2881
  599MOL0     O80738   7.208   6.083   7.353 -0.5468  0.4382 -0.3549
  599MOL0     C80739   7.194   6.101   7.497 -0.3019 -0.0909  0.1986
  599MOL0     C80740   7.048   6.056   7.532  0.2166 -0.3655 -0.0704
  599MOL0     C80741   7.031   6.055   7.690 -0.4731 -0.7079 -0.6826
  599MOL0     C80742   6.891   6.014   7.711  0.6066 -0.2475 -0.1599
  599MOL0     C80743   6.875   5.981   7.850 -0.4620  0.1505 -0.1033
  599MOL0     C80744   6.730   5.942   7.878 -0.4746  0.0584  0.2834
  599MOL0     C80745   6.715   5.926   8.026  0.3282  0.1032 -0.8982
  599MOL0     C80746   6.806   5.808   8.094  0.0267 -0.7094  0.2836
  599MOL0     N80747   6.776   5.775   8.233 -0.2783 -0.3039 -0.1765
  599MOL0     C80748   6.757   5.647   8.274 -0.5516  0.1500  0.0219
  599MOL0     C80749   6.730   5.668   8.411  0.4821 -0.3936  0.9615
  599MOL0     C80750   6.692   5.565   8.510  0.0278 -0.1663  0.1250
  599MOL0     C80751   6.795   5.461   8.535 -0.1888  0.3990  0.1285
  599MOL0     C80752   6.750   5.358   8.650  0.4628  0.2965  0.0195
  599MOL0     C80753   6.781   5.410   8.785  0.7047 -0.8308 -0.8750
  599MOL0     O80754   6.920   5.377   8.801 -0.1390 -0.0154  0.3458
  599MOL0     C80755   7.003   5.483   8.853 -0.7220 -0.2060  0.6284
  599MOL0     C80756   7.141   5.476   8.815 -0.4929 -0.2340  0.9066
  599MOL0     C80757   7.226   5.587   8.847  0.3115 -0.7697 -0.8223
  599MOL0     C80758   7.192   5.681   8.952 -0.4834  0.3677  0.0644
  599MOL0     C80759   7.284   5.786   8.998 -0.9788 -0.8742 -0.6808
  599MOL0     O80760   7.392   5.810   8.927  0.9550  0.2367  0.2156
  599MOL0     C80761   7.482   5.912   8.927 -0.2867  0.3273  0.1558
  599MOL0     C80762   7.440   6.045   8.939  0.2672 -0.0354  0.4904
  599MOL0     C80763   7.523   6.159   8.922 -0.4685 -0.2773 -1.0098
  599MOL0     C80764   7.667   6.129   8.910  0.0319 -1.0027  0.1433
  599MOL0     O80765   7.776   6.214   8.899  0.2346  0.8344 -0.2305
  599MOL0     C80766   7.747   6.343   8.854  0.1631 -1.2172 -1.0300
  599MOL0     C80767   7.867   6.429   8.805 -0.0127 -0.1594  0.2172
  599MOL0     C80768   7.981   6.448   8.900  1.1010  0.5300  0.2846
  599MOL0     C80769   7.941   6.548   9.014  0.1484  0.4020 -0.1973
  599MOL0     C80770   8.050   6.578   9.117 -0.0897 -0.3328  0.0531
  599MOL0     C80771   8.005   6.678   9.223  0.1995 -0.0097 -0.4320
  599MOL0     C80772   7.934   6.808   9.179  0.1317  0.2427  0.4898
  599MOL0     C80773   8.015   6.916   9.126  0.4687  0.3651  0.6122
  599MOL0    Cl80774   8.084   6.883   8.971 -0.0657  0.0331  0.0227
  599MOL0     C80775   7.706   5.995   8.887  0.4290 -0.3937 -0.3606
  599MOL0     C80776   7.611   5.895   8.881 -0.2440  0.0424  0.5121
  599MOL0     O80777   7.239   5.858   9.094  0.1252  0.3338  0.3234
  599MOL0     C80778   7.055   5.684   8.989  0.1453  0.9611 -0.6042
  599MOL0     C80779   6.963   5.595   8.931  0.0760  0.2809  0.5467
  599MOL0     N80780   6.750   5.804   8.444  0.3454 -0.3777  0.3906
  599MOL0     N80781   6.766   5.862   8.334 -0.6589 -0.6292 -0.2241
  599MOL0     C80782   7.416   6.215   7.359  0.2618  0.1628  0.1706
  599MOL0     C80783   7.505   6.288   7.276  0.3266  0.0183 -1.0159
  599MOL0     C80784   7.744   6.533   6.983 -0.8493 -0.1838  1.1369
  599MOL0     C80785   7.702   6.506   6.852 -0.4804  0.1378  0.9216
  599MOL0     C80786   7.768   6.562   6.744 -0.0460 -0.1480  0.9557
  599MOL0     C80787   7.875   6.650   6.757 -0.3543  0.2501 -0.5798
  599MOL0     O80788   7.952   6.697   6.656  0.3504  0.1874  0.4524
  599MOL0     C80789   7.894   6.709   6.526 -1.1092  0.4497 -0.0235
  599MOL0     C80790   8.000   6.746   6.423  0.3934  0.4839  0.4864
  599MOL0     C80791   8.102   6.855   6.462  1.4986 -0.0322  0.7460
  599MOL0     C80792   8.173   6.918   6.342 -0.6033  0.1248  0.7401
  599MOL0     C80793   8.273   6.815   6.300  0.8297  0.2037  0.6470
  599MOL0     C80794   8.347   6.726   6.243  0.5458  0.5079  0.1994
  599MOL0     C80795   7.908   6.678   6.889 -0.0076  0.1426  0.4446
  599MOL0     C80796   7.849   6.629   6.998  0.6518 -1.1985  0.2417
  599MOL0     C80797   7.912   6.669   7.131  0.1964  0.7719 -0.2426
  599MOL0     H80798   7.377   6.229   6.973 -0.6318 -0.5787  0.3246
  599MOL0     H80799   7.209   6.106   7.115 -0.0879 -0.4399 -0.7716
  599MOL0     H80800   7.261   6.034   7.552 -0.5076 -2.0180 -1.7325
  599MOL0     H80801   7.206   6.203   7.535 -1.4695 -0.2481  1.0382
  599MOL0     H80802   7.022   5.958   7.492 -0.8454  0.3627 -1.2052
  599MOL0     H80803   6.981   6.137   7.503 -1.0099 -0.9468  1.0508
  599MOL0     H80804   7.063   6.154   7.724  2.8716 -0.8443 -2.9565
  599MOL0     H80805   7.096   5.983   7.742  1.3446  1.6058  0.4535
  599MOL0     H80806   6.831   6.098   7.675 -0.7335 -1.7868 -1.7339
  599MOL0     H80807   6.862   5.920   7.664 -3.0225  0.8937 -0.5336
  599MOL0     H80808   6.943   5.900   7.880  1.8520  1.1707 -2.1600
  599MOL0     H80809   6.915   6.062   7.912 -1.1771  1.3337 -1.1348
  599MOL0     H80810   6.654   6.005   7.831 -2.6244 -3.5439 -1.5745
  599MOL0     H80811   6.713   5.848   7.823 -0.0239 -0.8137  1.5890
  599MOL0     H80812   6.610   5.902   8.043  0.5910 -0.5816 -0.1638
  599MOL0     H80813   6.740   6.012   8.090 -3.7049  1.3278 -0.6953
  599MOL0     H80814   6.793   5.720   8.030  2.9602 -2.8908  2.4259
  599MOL0     H80815   6.913   5.832   8.092  0.1159 -1.1139  0.0567
  599MOL0     H80816   6.746   5.549   8.229 -2.0335 -0.9124  2.4738
  599MOL0     H80817   6.675   5.613   8.607  0.4353 -2.2006  1.2760
  599MOL0     H80818   6.609   5.506   8.471  0.8714 -1.8552  0.7569
  599MOL0     H80819   6.802   5.397   8.447  0.0399 -1.1572  1.2320
  599MOL0     H80820   6.894   5.501   8.559  1.2060 -1.7794 -1.6446
  599MOL0     H80821   6.793   5.258   8.635  0.4204 -0.1473  2.4204
  599MOL0     H80822   6.642   5.351   8.660  0.4235  1.6773  0.7810
  599MOL0     H80823   6.721   5.362   8.863 -0.4754  1.0390 -0.5680
  599MOL0     H80824   6.759   5.517   8.790 -2.4716 -1.4309  1.0692
  599MOL0     H80825   7.195   5.392   8.772  4.8999  2.0655  2.4047
  599MOL0     H80826   7.327   5.564   8.817 -0.3257 -4.0669 -0.7691
  599MOL0     H80827   7.332   6.050   8.954 -0.1905 -2.2111 -1.5720
  599MOL0     H80828   7.487   6.261   8.933 -1.2529 -0.2688 -3.1248
  599MOL0     H80829   7.685   6.331   8.765 -2.2181  2.0054  0.0393
  599MOL0     H80830   7.686   6.396   8.928 -0.0537 -1.3661 -1.1005
  599MOL0     H80831   7.895   6.379   8.711 -0.3653 -0.0936  0.0749
  599MOL0     H80832   7.834   6.530   8.777 -1.4788 -0.6328  0.1607
  599MOL0     H80833   8.005   6.351   8.945  2.6855  0.1181 -1.3598
  599MOL0     H80834   8.070   6.481   8.846  1.9421 -1.0932  0.6091
  599MOL0     H80835   7.856   6.515   9.074 -1.5476 -1.3043 -3.2886
  599MOL0     H80836   7.908   6.643   8.971 -0.3940 -0.0927 -0.8791
  599MOL0     H80837   8.143   6.618   9.075  2.0848 -2.1548  2.7925
  599MOL0     H80838   8.080   6.487   9.168  0.9366 -0.2656 -0.4111
  599MOL0     H80839   7.931   6.629   9.287  0.0342  0.3828 -0.3230
  599MOL0     H80840   8.085   6.709   9.291 -0.0405  0.3743 -0.3201
  599MOL0     H80841   7.894   6.856   9.269  0.2053 -0.4647  0.8997
  599MOL0     H80842   7.840   6.797   9.124  0.2669  2.8740 -0.4252
  599MOL0     H80843   7.952   7.003   9.104  0.4143 -0.0058 -0.7534
  599MOL0     H80844   8.104   6.932   9.189  0.3870  2.0743  0.3515
  599MOL0     H80845   7.811   5.979   8.866  1.4053  3.4002  0.7648
  599MOL0     H80846   7.644   5.792   8.871  0.9665  0.5586 -1.2334
  599MOL0     H80847   7.012   5.762   9.051 -1.3215 -1.5229  1.7332
  599MOL0     H80848   6.858   5.604   8.957 -0.0295 -1.2969  0.7334
  599MOL0     H80849   7.430   6.193   7.465 -1.5345  3.4969  1.2504
  599MOL0     H80850   7.588   6.328   7.333 -1.2414  1.0296  0.6531
  599MOL0     H80851   7.614   6.445   6.832  0.3721 -0.6311 -0.5718
  599MOL0     H80852   7.735   6.548   6.641  2.6965 -0.8709  0.0952
  599MOL0     H80853   7.813   6.782   6.535 -1.1611  0.2064  1.6472
  599MOL0     H80854   7.853   6.611   6.499  2.0530 -0.5442 -1.6879
  599MOL0     H80855   7.953   6.794   6.336  2.0506  0.0603 -0.6979
  599MOL0     H80856   8.042   6.648   6.397  0.3942  0.5074  0.4001
  599MOL0     H80857   8.169   6.822   6.542  0.3233  0.3501  1.9372
  599MOL0     H80858   8.041   6.934   6.507 -1.5355 -1.7680 -0.0357
  599MOL0     H80859   8.114   6.946   6.254  1.6614 -2.3737 -1.8085
  599MOL0     H80860   8.237   7.001   6.374 -1.3153  2.1321 -2.4914
  599MOL0     H80861   8.407   6.650   6.198 -2.6231 -2.1919  0.1153
  599MOL0     H80862   7.988   6.752   6.891  1.7558 -1.6951  0.7927
  599MOL0     H80863   8.010   6.714   7.113  1.0764 -2.4802 -6.3196
  599MOL0     H80864   7.843   6.739   7.180 -0.8465  0.2051 -0.8525
  599MOL0     H80865   7.937   6.583   7.195  0.0264  0.5506 -0.4677
  600MOL0     O80866   4.170   0.309   2.330 -0.1400 -0.3875  0.3681
  600MOL0     C80867   4.131   0.242   2.222  0.0269  0.0237 -0.5345
  600MOL0     O80868   4.178   0.266   2.086  0.3972  0.3159 -0.0103
  600MOL0     C80869   4.208   0.396   2.059 -0.2796 -0.4996  0.0137
  600MOL0     C80870   4.132   0.458   1.962 -0.2309 -0.1447  0.3589
  600MOL0     C80871   4.165   0.584   1.917 -0.2438 -0.1667 -0.3633
  600MOL0     C80872   4.288   0.642   1.960 -0.9655  0.2406  0.3604
  600MOL0     O80873   4.346   0.753   1.912 -0.4414 -0.0235 -0.4178
  600MOL0     C80874   4.271   0.840   1.836 -0.4170  0.3924 -0.1798
  600MOL0     C80875   4.360   0.951   1.779 -0.7106  1.1617 -0.6139
  600MOL0     C80876   4.417   0.921   1.636 -0.1649  0.8828  0.3845
  600MOL0     C80877   4.475   1.044   1.570  0.2678 -0.6715  0.6234
  600MOL0     C80878   4.583   1.014   1.475 -0.7201 -0.1115  0.2480
  600MOL0     C80879   4.644   1.135   1.422  0.1159  0.7903  0.3155
  600MOL0     C80880   4.717   1.104   1.287 -0.0694 -0.3136  0.7950
  600MOL0     C80881   4.831   1.193   1.236 -0.2308  0.4427  0.4806
  600MOL0     N80882   4.827   1.333   1.283 -0.0392  0.3584  0.2364
  600MOL0     C80883   4.721   1.415   1.266  1.0446 -0.0460  0.0396
  600MOL0     C80884   4.747   1.531   1.328  0.3333  0.1306  0.6846
  600MOL0     C80885   4.680   1.660   1.334  0.3354 -0.0029  0.0583
  600MOL0     C80886   4.598   1.669   1.467  0.0725 -0.7738  0.2798
  600MOL0     C80887   4.527   1.799   1.488  0.4280 -0.0160  0.3671
  600MOL0     C80888   4.414   1.822   1.389 -0.7313 -0.1906  0.4697
  600MOL0     O80889   4.336   1.936   1.419  0.5631  0.6357  0.2381
  600MOL0     C80890   4.245   1.981   1.325 -0.6644  1.7726  0.2069
  600MOL0     C80891   4.210   2.117   1.327 -0.1783  0.1125  0.1767
  600MOL0     C80892   4.121   2.168   1.228  0.1567  0.6469 -0.0968
  600MOL0     C80893   4.067   2.087   1.130  0.0490  0.5001 -0.5497
  600MOL0     C80894   3.975   2.146   1.024 -0.1055 -0.4540 -0.0446
  600MOL0     O80895   3.925   2.274   1.044 -0.2316 -0.4815  0.2392
  600MOL0     C80896   3.863   2.344   0.945  1.0651 -0.3505  0.6761
  600MOL0     C80897   3.775   2.291   0.853 -0.2499  0.2366  0.6756
  600MOL0     C80898   3.716   2.376   0.757 -0.5927  0.2068  1.0227
  600MOL0     C80899   3.744   2.517   0.745  0.7833  0.0262  0.0905
  600MOL0     O80900   3.678   2.604   0.659  0.0412 -0.5362  0.2693
  600MOL0     C80901   3.606   2.570   0.534  0.1808  0.4717 -0.2030
  600MOL0     C80902   3.708   2.557   0.424  1.1205  0.7024 -0.7358
  600MOL0     C80903   3.663   2.506   0.286 -0.6533 -0.0359  0.5977
  600MOL0     C80904   3.789   2.505   0.198 -0.8048  0.2323 -0.0918
  600MOL0     C80905   3.743   2.472   0.052 -1.0877 -0.8504  0.3105
  600MOL0     C80906   3.856   2.509  -0.051  0.4457 -0.8537 -0.9862
  600MOL0     C80907   3.798   2.495  -0.194 -0.4010  0.4086  0.8008
  600MOL0     C80908   3.884   2.515  -0.317 -0.3284 -0.0170 -0.5929
  600MOL0    Cl80909   3.952   2.685  -0.315  0.3766  0.2549 -0.5664
  600MOL0     C80910   3.836   2.571   0.843 -0.2110 -0.3819 -0.4633
  600MOL0     C80911   3.889   2.484   0.939  0.3217  0.2638 -0.2000
  600MOL0     O80912   3.965   2.082   0.923  0.3101 -0.4827  0.0056
  600MOL0     C80913   4.121   1.953   1.126 -0.2576  0.2433 -0.2826
  600MOL0     C80914   4.199   1.898   1.220  0.1519 -0.3223 -0.0609
  600MOL0     N80915   4.882   1.524   1.380  0.2949  0.3293 -0.3146
  600MOL0     N80916   4.915   1.399   1.368 -0.4782 -0.0956  0.5662
  600MOL0     C80917   4.365   0.585   2.063  1.2055 -0.3386 -0.2421
  600MOL0     C80918   4.329   0.460   2.105  0.2781  0.2067 -0.7214
  600MOL0     C80919   4.036   0.130   2.243  0.7103 -0.4469  0.2153
  600MOL0     C80920   3.967   0.122   2.369  0.3133 -0.2721 -0.0465
  600MOL0     C80921   3.879   0.018   2.392  0.2138  0.6305 -0.4549
  600MOL0     C80922   3.855  -0.076   2.298 -0.7096  0.1105 -0.3076
  600MOL0     O80923   3.759  -0.170   2.315 -0.0865  0.4669 -0.0696
  600MOL0     C80924   3.655  -0.160   2.415  0.2972 -0.1465 -0.1815
  600MOL0     C80925   3.561  -0.278   2.387  0.0063 -0.4050  0.1165
  600MOL0     C80926   3.422  -0.262   2.440 -0.1036 -0.3569 -0.1640
  600MOL0     C80927   3.422  -0.222   2.587  0.2314 -0.4338 -1.1581
  600MOL0     C80928   3.277  -0.206   2.611  0.1064 -0.3880  0.3100
  600MOL0     C80929   3.157  -0.206   2.640 -0.1178 -0.1544 -1.0021
  600MOL0     C80930   3.919  -0.073   2.176 -0.4476 -0.9137 -0.5054
  600MOL0     C80931   4.010   0.026   2.150 -0.5182  0.1849  1.0120
  600MOL0     C80932   4.073   0.021   2.015 -0.1018 -0.0239 -0.5604
  600MOL0     H80933   4.045   0.404   1.925  1.3678 -1.2803 -2.0021
  600MOL0     H80934   4.099   0.639   1.851 -2.4670  1.9615  3.2431
  600MOL0     H80935   4.228   0.786   1.751 -2.3757  2.5076 -0.6256
  600MOL0     H80936   4.196   0.886   1.901 -1.2653  0.5621 -1.2453
  600MOL0     H80937   4.447   0.970   1.841 -1.3088  1.2332  0.2155
  600MOL0     H80938   4.312   1.049   1.774 -1.8411  0.6439 -0.3986
  600MOL0     H80939   4.338   0.873   1.577  2.7241 -2.3044 -1.2224
  600MOL0     H80940   4.488   0.839   1.647 -0.8265 -0.0365 -1.6484
  600MOL0     H80941   4.400   1.108   1.521  0.1249 -0.6499  0.8725
  600MOL0     H80942   4.527   1.109   1.641  0.2966  0.6408 -0.5542
  600MOL0     H80943   4.656   0.949   1.525  0.4250 -0.4796 -1.7793
  600MOL0     H80944   4.554   0.951   1.390  2.4318 -3.8700  1.6207
  600MOL0     H80945   4.577   1.219   1.402  1.9750  2.8044  2.0180
  600MOL0     H80946   4.711   1.160   1.504 -0.4689 -0.1950  1.1280
  600MOL0     H80947   4.640   1.097   1.210 -1.8189 -1.0878  2.5555
  600MOL0     H80948   4.759   1.003   1.294  0.0801 -0.2699  0.5491
  600MOL0     H80949   4.929   1.149   1.258  1.8116  3.4131 -1.8284
  600MOL0     H80950   4.826   1.186   1.127 -3.3125 -5.3787  0.5460
  600MOL0     H80951   4.634   1.414   1.201  2.5182  1.0220 -2.0471
  600MOL0     H80952   4.759   1.734   1.323  1.9259 -1.9879 -3.9287
  600MOL0     H80953   4.618   1.657   1.244 -0.0013  0.0492  0.2828
  600MOL0     H80954   4.544   1.581   1.505  1.0252  0.3042  4.7800
  600MOL0     H80955   4.687   1.683   1.530  1.4781 -0.0473 -1.7671
  600MOL0     H80956   4.604   1.877   1.486  1.7258 -1.2626 -0.3700
  600MOL0     H80957   4.497   1.814   1.592 -2.9573  1.4104 -0.6853
  600MOL0     H80958   4.353   1.731   1.383 -0.9838  0.0764 -3.0281
  600MOL0     H80959   4.458   1.823   1.289 -1.3343  2.0986  0.1766
  600MOL0     H80960   4.242   2.191   1.400  0.3368  2.3386 -2.1366
  600MOL0     H80961   4.094   2.273   1.238  1.1484  0.8658  0.3155
  600MOL0     H80962   3.745   2.187   0.858 -0.4105  0.2734  0.5251
  600MOL0     H80963   3.646   2.323   0.694 -1.0307  2.2449 -0.2998
  600MOL0     H80964   3.563   2.469   0.540  1.8390 -0.2673 -0.0584
  600MOL0     H80965   3.534   2.647   0.507 -0.0282 -0.3356 -2.1063
  600MOL0     H80966   3.752   2.655   0.408  3.0102 -0.1522 -0.9681
  600MOL0     H80967   3.795   2.498   0.455 -0.3978 -1.0670  0.4022
  600MOL0     H80968   3.626   2.403   0.292  1.8859 -0.9632  1.7439
  600MOL0     H80969   3.587   2.573   0.246 -0.1408 -0.0954 -0.5104
  600MOL0     H80970   3.870   2.438   0.230 -1.9828 -2.1786 -1.8660
  600MOL0     H80971   3.831   2.606   0.198  0.7723 -0.3721  1.1049
  600MOL0     H80972   3.651   2.527   0.032 -0.7964  0.0178  1.2802
  600MOL0     H80973   3.728   2.364   0.046  0.9252 -1.2079  1.0347
  600MOL0     H80974   3.886   2.614  -0.040 -3.4340  0.5807 -2.2691
  600MOL0     H80975   3.949   2.452  -0.049  1.9368  1.4219 -1.5800
  600MOL0     H80976   3.699   2.542  -0.201 -0.8442 -0.7207 -2.1693
  600MOL0     H80977   3.775   2.389  -0.210  0.7260  0.5368 -2.5329
  600MOL0     H80978   3.967   2.444  -0.311  0.0648  0.0574 -3.4753
  600MOL0     H80979   3.828   2.496  -0.409  2.2973 -0.8162 -2.1641
  600MOL0     H80980   3.880   2.669   0.826  3.0394 -1.7693 -0.6271
  600MOL0     H80981   3.956   2.524   1.015 -0.0344 -0.1523  0.3348
  600MOL0     H80982   4.090   1.886   1.047  3.4794 -1.8043 -0.2643
  600MOL0     H80983   4.221   1.792   1.210  1.8610 -0.1039  1.0163
  600MOL0     H80984   4.457   0.637   2.086  1.7367  1.3117 -4.8834
  600MOL0     H80985   4.379   0.401   2.181 -0.0570  1.1857  0.2872
  600MOL0     H80986   3.983   0.191   2.452  2.3506  0.9770 -1.3853
  600MOL0     H80987   3.835   0.012   2.492  2.7113 -1.0484  0.6389
  600MOL0     H80988   3.590  -0.071   2.416 -0.0456 -0.3943 -0.3903
  600MOL0     H80989   3.694  -0.177   2.516  0.1432 -0.7146 -0.2154
  600MOL0     H80990   3.610  -0.370   2.419 -0.6238 -1.1048 -0.9034
  600MOL0     H80991   3.553  -0.292   2.279  0.2753  2.3721 -0.3489
  600MOL0     H80992   3.362  -0.349   2.413 -1.2137  0.9506 -2.1191
  600MOL0     H80993   3.374  -0.179   2.387  1.4829  0.0633 -1.0360
  600MOL0     H80994   3.454  -0.305   2.650 -1.5913 -1.5353 -1.6156
  600MOL0     H80995   3.487  -0.139   2.615  0.2140 -1.4781  2.5793
  600MOL0     H80996   3.051  -0.207   2.657 -0.7530 -5.0010 -3.4813
  600MOL0     H80997   3.890  -0.150   2.105 -3.9511 -0.0971 -0.1905
  600MOL0     H80998   4.056   0.116   1.965  5.1757  2.4703  1.6558
  600MOL0     H80999   4.179   0.009   2.036 -0.7331 -0.2440  3.2112
  600MOL0     H81000   4.032  -0.056   1.949  0.9091  1.5045 -3.1345
  601MOL0     O81001   8.329   5.229   0.192 -0.3943  0.0699  0.0120
  601MOL0     C81002   8.309   5.259   0.076  0.9301 -0.3358  0.6858
  601MOL0     O81003   8.335   5.381   0.014 -0.1926  0.7038 -0.4119
  601MOL0     C81004   8.410   5.470   0.098  0.4350 -0.3540  0.8271
  601MOL0     C81005   8.531   5.510   0.049 -0.4205  0.0516 -1.1369
  601MOL0     C81006   8.618   5.591   0.125 -0.1110 -0.1030  0.3607
  601MOL0     C81007   8.573   5.648   0.245 -0.8298 -0.8011 -0.2602
  601MOL0     O81008   8.661   5.739   0.311 -0.3052 -1.2487  0.2653
  601MOL0     C81009   8.630   5.817   0.427  0.2932 -0.4297 -0.1206
  601MOL0     C81010   8.747   5.823   0.519 -0.5178  0.4129 -0.4866
  601MOL0     C81011   8.796   5.693   0.585  0.4891 -0.0446  0.8966
  601MOL0     C81012   8.945   5.718   0.627 -0.5207 -0.4394  1.1652
  601MOL0     C81013   9.006   5.580   0.639  0.9375 -0.1348 -0.4364
  601MOL0     C81014   9.140   5.589   0.719  0.5172 -0.0202 -0.1789
  601MOL0     C81015   9.190   5.461   0.767 -0.6474  0.0888 -0.2053
  601MOL0     C81016   9.245   5.365   0.658 -0.4297  0.1357 -0.3903
  601MOL0     N81017   9.333   5.427   0.561 -0.3865 -1.0372  0.2351
  601MOL0     C81018   9.460   5.476   0.596 -0.1657  0.5373 -0.7122
  601MOL0     C81019   9.519   5.513   0.479  0.7024  0.4231  0.8134
  601MOL0     C81020   9.661   5.544   0.447 -0.4279 -0.5427  0.5937
  601MOL0     C81021   9.747   5.471   0.554  0.6865 -1.4755  0.3223
  601MOL0     C81022   9.901   5.504   0.563  0.6680  0.0697  0.7836
  601MOL0     C81023   9.948   5.509   0.417 -0.2904 -0.3658 -0.2904
  601MOL0     O81024  10.094   5.494   0.421  0.7575 -0.2177  0.1656
  601MOL0     C81025  10.167   5.584   0.497  0.5408 -0.0382  0.1034
  601MOL0     C81026  10.118   5.720   0.523  0.6096 -0.3507  0.1955
  601MOL0     C81027  10.199   5.790   0.613  0.5816 -0.5368  0.0357
  601MOL0     C81028  10.312   5.734   0.683  0.6916  0.5080  0.3003
  601MOL0     C81029  10.394   5.816   0.767  1.0958  0.5380 -0.4716
  601MOL0     O81030  10.519   5.788   0.792 -0.5763 -0.5879  0.0134
  601MOL0     C81031  10.593   5.882   0.853 -0.2096 -0.4234 -0.5950
  601MOL0     C81032  10.716   5.915   0.791 -0.7296  1.0485  0.0549
  601MOL0     C81033  10.815   5.989   0.860  0.3916  0.0228 -0.2165
  601MOL0     C81034  10.795   6.044   0.991 -0.2125  0.1029  0.1692
  601MOL0     O81035  10.903   6.126   1.041  0.9109  0.2431 -0.6874
  601MOL0     C81036  10.871   6.179   1.175 -0.0494 -0.3782  0.2013
  601MOL0     C81037  10.977   6.274   1.231 -0.2743  0.0516  0.1602
  601MOL0     C81038  11.114   6.203   1.234 -0.3827 -0.2836  1.1706
  601MOL0     C81039  11.236   6.282   1.287 -1.3171  0.2381  0.8311
  601MOL0     C81040  11.265   6.410   1.214  0.0137 -0.3886  0.0003
  601MOL0     C81041  11.394   6.470   1.269  0.4717  0.6342  0.8540
  601MOL0     C81042  11.441   6.594   1.205 -0.0702  0.2575  0.1750
  601MOL0     C81043  11.591   6.614   1.224 -0.3335  0.6314  0.2626
  601MOL0    Cl81044  11.651   6.773   1.154 -0.1297  0.2131  0.1371
  601MOL0     C81045  10.663   6.027   1.042  0.9628  0.9776 -0.0720
  601MOL0     C81046  10.572   5.933   0.983 -0.1610  0.2106  0.5288
  601MOL0     O81047  10.329   5.905   0.816  0.0883 -0.0854 -0.1079
  601MOL0     C81048  10.340   5.597   0.661 -0.4339  1.1062 -0.5070
  601MOL0     C81049  10.263   5.521   0.580 -0.8575  0.0676  0.2292
  601MOL0     N81050   9.424   5.494   0.383  0.7834  0.3487  0.1295
  601MOL0     N81051   9.314   5.448   0.431 -0.6995  0.5644  0.8214
  601MOL0     C81052   8.454   5.605   0.301  0.2656 -0.3384 -0.3845
  601MOL0     C81053   8.370   5.515   0.226  0.1233  0.0115  0.3741
  601MOL0     C81054   8.221   5.161  -0.003  0.0262  1.1294  0.1780
  601MOL0     C81055   8.157   5.063   0.077 -0.6440 -0.8982  0.0168
  601MOL0     C81056   8.089   4.957   0.017 -0.8663  0.7529  0.3512
  601MOL0     C81057   8.081   4.958  -0.124  0.6196  0.0591 -0.0101
  601MOL0     O81058   8.007   4.860  -0.190 -0.3087 -0.6305 -0.4431
  601MOL0     C81059   8.030   4.838  -0.327  0.2562 -0.2117  0.1015
  601MOL0     C81060   7.947   4.738  -0.389 -0.0295  0.3541  0.4873
  601MOL0     C81061   7.968   4.597  -0.323 -0.8990 -0.7111 -0.8749
  601MOL0     C81062   7.903   4.482  -0.395 -0.1941  0.2926  0.4885
  601MOL0     C81063   7.948   4.476  -0.536 -0.3751  0.8755  0.4375
  601MOL0     C81064   7.944   4.477  -0.655 -0.3695  0.9045  0.0231
  601MOL0     C81065   8.147   5.062  -0.210  1.0559  0.5675 -0.9278
  601MOL0     C81066   8.216   5.158  -0.146 -0.1010 -0.2211 -0.7028
  601MOL0     C81067   8.302   5.245  -0.227 -0.4122 -0.1210 -0.1247
  601MOL0     H81068   8.553   5.469  -0.049 -1.9057 -1.2538 -0.9628
  601MOL0     H81069   8.706   5.619   0.068 -2.1953  0.0386 -3.1042
  601MOL0     H81070   8.605   5.922   0.408  0.5689 -0.4318 -0.5120
  601MOL0     H81071   8.541   5.783   0.481  1.0163  0.3236  1.6164
  601MOL0     H81072   8.713   5.883   0.604  1.7355 -0.8874  1.4685
  601MOL0     H81073   8.833   5.875   0.477 -0.9897  1.7856  0.1845
  601MOL0     H81074   8.791   5.607   0.518  1.4784  1.6500 -1.5088
  601MOL0     H81075   8.739   5.664   0.674 -1.8691 -0.1616 -0.5455
  601MOL0     H81076   9.003   5.768   0.549 -1.9412  0.4236  0.6354
  601MOL0     H81077   8.946   5.783   0.714  2.3837  1.5733 -0.2090
  601MOL0     H81078   8.934   5.520   0.696 -2.4005  3.2892 -0.6540
  601MOL0     H81079   9.031   5.531   0.545  3.2295 -0.4294  0.2714
  601MOL0     H81080   9.214   5.636   0.654 -0.6825 -0.9877 -2.3409
  601MOL0     H81081   9.135   5.655   0.807  3.0738  1.0099 -0.6946
  601MOL0     H81082   9.104   5.416   0.818 -3.0506  3.7581 -0.6611
  601MOL0     H81083   9.267   5.488   0.839 -0.0837  1.9011 -1.4200
  601MOL0     H81084   9.293   5.287   0.717 -2.9888  0.1689  1.9524
  601MOL0     H81085   9.158   5.323   0.606 -1.3300  3.2085 -1.5849
  601MOL0     H81086   9.501   5.482   0.696  0.9149 -1.6731 -0.9619
  601MOL0     H81087   9.683   5.520   0.343 -0.2139 -0.3688  0.5980
  601MOL0     H81088   9.664   5.653   0.457 -0.6688 -0.6655  2.3305
  601MOL0     H81089   9.708   5.468   0.656  1.7407 -0.9763  0.7517
  601MOL0     H81090   9.734   5.365   0.531  0.8364 -1.6141  0.8695
  601MOL0     H81091   9.965   5.432   0.614  1.2792 -2.9338 -3.6655
  601MOL0     H81092   9.899   5.604   0.607 -0.2096 -0.3533  1.7397
  601MOL0     H81093   9.912   5.605   0.380 -0.1593  0.1336  0.8310
  601MOL0     H81094   9.900   5.435   0.352 -1.8801  0.7350 -0.4314
  601MOL0     H81095  10.045   5.769   0.459  0.2650 -3.7254 -2.2590
  601MOL0     H81096  10.176   5.893   0.637  1.8018  0.3747 -2.3939
  601MOL0     H81097  10.752   5.872   0.698  2.5195 -1.4776  2.2459
  601MOL0     H81098  10.911   6.024   0.822  0.6436 -1.6073 -1.1773
  601MOL0     H81099  10.779   6.236   1.157  0.7687  1.4957  1.6299
  601MOL0     H81100  10.846   6.100   1.246 -0.9957  0.0173  0.3266
  601MOL0     H81101  10.981   6.358   1.161  0.5853 -1.3976 -1.6148
  601MOL0     H81102  10.946   6.303   1.332 -2.2240 -3.1246  0.6143
  601MOL0     H81103  11.101   6.107   1.286 -4.7424 -3.6950 -4.8498
  601MOL0     H81104  11.137   6.177   1.130 -0.6494  2.5933  0.2925
  601MOL0     H81105  11.322   6.215   1.279 -0.5302  1.4054 -0.8783
  601MOL0     H81106  11.225   6.308   1.393  0.2368 -0.1612  1.1111
  601MOL0     H81107  11.188   6.486   1.231  1.8554  1.6666 -0.3873
  601MOL0     H81108  11.278   6.398   1.106  0.3511  2.4930 -0.3653
  601MOL0     H81109  11.389   6.484   1.378  0.9450 -2.2984  1.3399
  601MOL0     H81110  11.471   6.396   1.248  0.9295  1.4613 -0.4698
  601MOL0     H81111  11.379   6.674   1.247  0.0892  0.9147 -0.8135
  601MOL0     H81112  11.416   6.583   1.099  0.4730 -2.7200  0.2889
  601MOL0     H81113  11.620   6.609   1.330  3.0482 -2.0941 -0.6073
  601MOL0     H81114  11.644   6.531   1.176  3.6448  0.9703  3.4478
  601MOL0     H81115  10.631   6.066   1.138 -1.3317  2.4486 -1.3441
  601MOL0     H81116  10.487   5.892   1.037 -1.8104  3.0420  0.2845
  601MOL0     H81117  10.434   5.554   0.693 -0.3011  1.9663  0.3037
  601MOL0     H81118  10.294   5.420   0.553 -0.4378  0.1981  0.2282
  601MOL0     H81119   8.407   5.639   0.392 -0.4571  3.5193 -2.0165
  601MOL0     H81120   8.272   5.498   0.269 -0.9776 -1.4034 -2.4188
  601MOL0     H81121   8.142   5.071   0.184 -1.3798 -1.6169 -0.0263
  601MOL0     H81122   8.042   4.875   0.069  0.0692  0.7893  1.2863
  601MOL0     H81123   8.135   4.809  -0.339  1.4722  0.9784  5.6015
  601MOL0     H81124   8.005   4.932  -0.376 -0.5743  0.7068  2.1953
  601MOL0     H81125   7.967   4.739  -0.497  0.3287  1.1364  0.5577
  601MOL0     H81126   7.842   4.766  -0.371 -1.4394 -1.9926 -2.9049
  601MOL0     H81127   7.933   4.599  -0.219 -0.5023 -0.3415 -0.7481
  601MOL0     H81128   8.075   4.573  -0.318 -1.2373 -2.0918  1.9219
  601MOL0     H81129   7.936   4.396  -0.335 -0.3846  0.4535  0.8229
  601MOL0     H81130   7.794   4.488  -0.384  0.0238  0.7268  3.0948
  601MOL0     H81131   7.936   4.478  -0.761  0.7007  0.2828 -0.0748
  601MOL0     H81132   8.154   5.064  -0.318 -1.7157  1.4459 -1.1776
  601MOL0     H81133   8.316   5.215  -0.332 -2.8755 -3.8353  0.4178
  601MOL0     H81134   8.266   5.348  -0.238 -1.0911 -0.1371  1.6911
  601MOL0     H81135   8.400   5.247  -0.179  1.2625 -0.3036 -3.2713
  602MOL0     O81136   0.784  10.316   4.533 -0.4821  0.2779 -0.0601
  602MOL0     C81137   0.808  10.248   4.631 -0.0878  1.3163 -0.5676
  602MOL0     O81138   0.931  10.205   4.673  0.2659  0.3470  0.9735
  602MOL0     C81139   1.032  10.272   4.617  0.2156  0.7419  0.3713
  602MOL0     C81140   1.105  10.219   4.516  0.2497  0.1171  0.6607
  602MOL0     C81141   1.214  10.297   4.475  1.0174 -0.5324  0.3960
  602MOL0     C81142   1.239  10.428   4.514  0.0235 -0.2859 -0.4962
  602MOL0     O81143   1.348  10.495   4.468 -0.4809 -0.2576  0.3526
  602MOL0     C81144   1.406  10.591   4.553 -0.1527  0.3325  0.1736
  602MOL0     C81145   1.552  10.622   4.498 -0.3229  0.6057 -0.4456
  602MOL0     C81146   1.643  10.717   4.585 -0.0112  0.5033 -0.3955
  602MOL0     C81147   1.764  10.754   4.497 -0.5026 -0.4133 -0.6024
  602MOL0     C81148   1.830  10.873   4.567  0.2809 -0.9859  0.5317
  602MOL0     C81149   1.766  11.006   4.517 -0.1128 -0.1081  0.0534
  602MOL0     C81150   1.813  11.128   4.599 -0.5360  0.4017 -0.1608
  602MOL0     C81151   1.693  11.229   4.618  0.5338  0.2173  0.6917
  602MOL0     N81152   1.736  11.346   4.694 -0.3039  0.0211  0.2790
  602MOL0     C81153   1.810  11.444   4.642 -0.7148  1.1875 -0.0915
  602MOL0     C81154   1.838  11.537   4.743 -0.3258  0.8354  0.2642
  602MOL0     C81155   1.906  11.674   4.729 -1.3407  0.5989  0.5214
  602MOL0     C81156   2.045  11.661   4.665  0.7903 -0.4772  0.1314
  602MOL0     C81157   2.129  11.562   4.739 -1.0686 -0.1811 -0.4532
  602MOL0     C81158   2.273  11.564   4.685 -0.3650 -0.3954  0.7158
  602MOL0     O81159   2.280  11.549   4.539  0.3939  0.6448 -0.2286
  602MOL0     C81160   2.389  11.598   4.474  1.4182 -0.6332 -0.3284
  602MOL0     C81161   2.521  11.569   4.501 -1.0814 -0.2895 -0.1166
  602MOL0     C81162   2.623  11.622   4.416  0.8531  0.2029  0.3315
  602MOL0     C81163   2.592  11.706   4.313 -0.2066  1.2491  0.7887
  602MOL0     C81164   2.696  11.775   4.234 -0.4054 -0.1216  0.5869
  602MOL0     O81165   2.646  11.863   4.137  0.4434 -0.6300 -0.4646
  602MOL0     C81166   2.736  11.931   4.071 -0.7368  0.2268  0.1463
  602MOL0     C81167   2.782  11.899   3.938  0.2218  0.0342 -0.5040
  602MOL0     C81168   2.876  11.982   3.873 -0.3357 -0.7435  1.0740
  602MOL0     C81169   2.923  12.102   3.928  0.2932  0.1295  0.0971
  602MOL0     O81170   3.024  12.169   3.865  0.4888  0.0560 -0.2778
  602MOL0     C81171   3.087  12.278   3.929 -0.2903 -0.6275 -0.6298
  602MOL0     C81172   3.240  12.276   3.940  0.0549 -0.5990 -0.5650
  602MOL0     C81173   3.308  12.401   3.996  0.0068  0.5602  0.4878
  602MOL0     C81174   3.460  12.373   3.995 -0.4543 -0.2684  0.1119
  602MOL0     C81175   3.535  12.482   4.076 -0.2503  0.2082  1.0358
  602MOL0     C81176   3.674  12.440   4.114 -1.0741 -0.1792  0.3880
  602MOL0     C81177   3.766  12.430   3.993  0.1611 -0.2304  0.6773
  602MOL0     C81178   3.898  12.372   4.036  0.5983 -0.3222  0.5365
  602MOL0    Cl81179   3.883  12.206   4.079  0.1837 -0.1897 -0.0230
  602MOL0     C81180   2.866  12.139   4.052 -1.0174  0.1312 -0.1795
  602MOL0     C81181   2.766  12.062   4.115  0.3859  0.5842 -0.4380
  602MOL0     O81182   2.822  11.760   4.250 -0.9576 -0.4987  0.6537
  602MOL0     C81183   2.458  11.720   4.273  0.5058 -0.2154 -0.2195
  602MOL0     C81184   2.360  11.656   4.352 -0.7297  0.1845  0.5356
  602MOL0     N81185   1.787  11.481   4.864 -1.2264 -0.0447 -0.0093
  602MOL0     N81186   1.725  11.366   4.831  0.4285  0.1075  0.5096
  602MOL0     C81187   1.160  10.477   4.621  0.1745 -0.3239  0.2407
  602MOL0     C81188   1.055  10.396   4.665  0.3101  0.3238  0.7528
  602MOL0     C81189   0.699  10.205   4.717  0.0772  0.0622  0.1263
  602MOL0     C81190   0.574  10.173   4.660 -0.0728  0.3034 -0.3283
  602MOL0     C81191   0.466  10.129   4.735  0.1647  0.8344  0.9363
  602MOL0     C81192   0.473  10.109   4.870  0.0693  0.0393  1.5696
  602MOL0     O81193   0.354  10.063   4.939  0.1483 -0.7710  0.0334
  602MOL0     C81194   0.369  10.011   5.072  0.2668  0.4103  0.4005
  602MOL0     C81195   0.228   9.980   5.135  0.1250 -0.0443 -0.3869
  602MOL0     C81196   0.130   9.884   5.059  0.2149  0.2337 -0.5742
  602MOL0     C81197   0.055   9.807   5.170 -0.7842 -1.1669 -0.2305
  602MOL0     C81198  -0.048   9.725   5.110 -0.6446  0.1772  0.5396
  602MOL0     C81199  -0.137   9.659   5.071 -0.2268  0.3444  0.1502
  602MOL0     C81200   0.595  10.134   4.927 -1.2042 -0.2637  0.0466
  602MOL0     C81201   0.701  10.190   4.859 -0.1908 -0.2199  0.4028
  602MOL0     C81202   0.824  10.222   4.939  0.3549 -0.4177  0.4320
  602MOL0     H81203   1.072  10.120   4.486 -0.1265  0.9482 -1.9175
  602MOL0     H81204   1.273  10.252   4.395  0.1109 -1.2885  0.1423
  602MOL0     H81205   1.346  10.682   4.543  1.9454  1.5154 -3.5390
  602MOL0     H81206   1.413  10.555   4.656  1.3435  1.5087  0.5255
  602MOL0     H81207   1.537  10.650   4.393 -4.4491 -0.2127 -0.2487
  602MOL0     H81208   1.603  10.525   4.496 -1.9086 -0.2609 -0.9218
  602MOL0     H81209   1.675  10.662   4.674 -1.2723 -0.2683 -0.3911
  602MOL0     H81210   1.579  10.803   4.607 -0.1201  1.1139 -2.8090
  602MOL0     H81211   1.831  10.668   4.487 -0.5567 -0.4767 -0.4286
  602MOL0     H81212   1.739  10.794   4.399  2.4317 -0.9576 -1.6792
  602MOL0     H81213   1.817  10.862   4.675 -0.8550  0.0416  0.5211
  602MOL0     H81214   1.937  10.863   4.543 -0.0214 -3.3082 -0.0037
  602MOL0     H81215   1.784  11.027   4.411  2.5679  0.3483  0.5331
  602MOL0     H81216   1.658  10.987   4.521 -0.1450  0.0363 -0.0916
  602MOL0     H81217   1.890  11.184   4.545 -0.2200 -1.3276 -1.6145
  602MOL0     H81218   1.862  11.109   4.695 -0.5459 -0.1274 -0.2609
  602MOL0     H81219   1.649  11.265   4.524  2.0214  0.0400 -0.1166
  602MOL0     H81220   1.616  11.199   4.689  1.6273 -0.6439  1.5291
  602MOL0     H81221   1.837  11.458   4.538  1.9500 -2.3065 -0.0157
  602MOL0     H81222   1.845  11.727   4.655  2.4553  1.3312 -2.4576
  602MOL0     H81223   1.906  11.732   4.822  2.3260 -0.7141  1.5289
  602MOL0     H81224   2.032  11.620   4.564  2.4043 -0.0756 -0.2681
  602MOL0     H81225   2.101  11.754   4.653 -0.1727 -0.0209 -1.0434
  602MOL0     H81226   2.082  11.466   4.716 -1.7672  0.0572 -0.0650
  602MOL0     H81227   2.125  11.587   4.846  1.8729  3.9058 -1.0534
  602MOL0     H81228   2.332  11.481   4.726  2.6816  0.7069 -1.0602
  602MOL0     H81229   2.324  11.658   4.707 -2.8489  0.9950  0.7854
  602MOL0     H81230   2.557  11.514   4.588 -0.1204  1.9959  1.0302
  602MOL0     H81231   2.724  11.611   4.454 -0.1638  1.1826  3.5799
  602MOL0     H81232   2.765  11.799   3.899  4.3247 -1.3158  0.6944
  602MOL0     H81233   2.924  11.951   3.781 -0.7840  4.8592 -1.4414
  602MOL0     H81234   3.071  12.365   3.864  0.8182 -1.2526 -1.7889
  602MOL0     H81235   3.055  12.294   4.032  0.8115 -1.3262 -0.1659
  602MOL0     H81236   3.259  12.192   4.009  1.9380 -0.0626 -0.3804
  602MOL0     H81237   3.286  12.243   3.846 -0.5795 -2.3271 -0.3086
  602MOL0     H81238   3.281  12.489   3.937  1.3760 -0.9581 -2.6082
  602MOL0     H81239   3.270  12.412   4.098 -0.8295 -2.0179  0.5007
  602MOL0     H81240   3.485  12.375   3.888 -2.3409  0.5495 -0.3604
  602MOL0     H81241   3.485  12.271   4.027 -0.9671 -1.3694 -2.6386
  602MOL0     H81242   3.471  12.504   4.161 -1.5052 -1.9487  0.7226
  602MOL0     H81243   3.533  12.570   4.012  0.1035  1.7679  3.0566
  602MOL0     H81244   3.720  12.505   4.188 -2.9996  2.4048 -0.5184
  602MOL0     H81245   3.667  12.338   4.153  0.2556  0.5129  2.5855
  602MOL0     H81246   3.782  12.524   3.939 -2.8999  0.5215  0.9049
  602MOL0     H81247   3.725  12.359   3.920  2.1092  1.7990 -2.6449
  602MOL0     H81248   3.962  12.368   3.947 -1.0867  1.1132 -0.8249
  602MOL0     H81249   3.943  12.436   4.112  2.0084 -1.3954  0.6400
  602MOL0     H81250   2.892  12.226   4.111  0.6010 -1.3598  1.4209
  602MOL0     H81251   2.723  12.099   4.208  0.4188 -1.9840  0.6803
  602MOL0     H81252   2.431  11.782   4.188  2.4197  1.1745  0.0915
  602MOL0     H81253   2.257  11.665   4.317 -0.3474 -0.5696 -0.8765
  602MOL0     H81254   1.187  10.570   4.671  0.3734 -0.2014 -0.0901
  602MOL0     H81255   1.003  10.429   4.755  2.0838 -0.0116  1.9644
  602MOL0     H81256   0.578  10.182   4.551 -1.1514  3.5614 -0.2111
  602MOL0     H81257   0.373  10.109   4.683 -0.6305  3.6187  1.1674
  602MOL0     H81258   0.420  10.093   5.123  1.8570  1.7912 -3.0715
  602MOL0     H81259   0.428   9.919   5.074  1.5607  1.1976 -0.3727
  602MOL0     H81260   0.170  10.073   5.132 -1.0058 -0.7523 -1.7531
  602MOL0     H81261   0.240   9.963   5.242  3.2697  1.4817 -0.3896
  602MOL0     H81262   0.191   9.814   5.001  0.7867 -2.1873  2.6183
  602MOL0     H81263   0.072   9.951   4.996  1.1788  0.1465 -1.5963
  602MOL0     H81264   0.124   9.744   5.226  1.7490  0.8493 -0.9183
  602MOL0     H81265   0.025   9.874   5.252  1.0583 -0.1495 -0.3339
  602MOL0     H81266  -0.222   9.602   5.038 -0.7801 -0.4365  2.6830
  602MOL0     H81267   0.603  10.129   5.035  1.1885 -0.1289 -0.0624
  602MOL0     H81268   0.857  10.122   4.967 -0.8622 -1.8267 -2.7088
  602MOL0     H81269   0.895  10.292   4.893 -2.7278  5.3437  3.2705
  602MOL0     H81270   0.801  10.288   5.023  0.7108 -1.1375  1.1008
  603MOL0     O81271   6.274   4.681  10.027 -0.5592 -0.7467 -0.2483
  603MOL0     C81272   6.289   4.667   9.904 -0.1422 -0.7553 -0.1767
  603MOL0     O81273   6.410   4.694   9.837 -0.0565 -0.1304 -0.1875
  603MOL0     C81274   6.512   4.746   9.909  0.1832 -0.4882 -0.8566
  603MOL0     C81275   6.632   4.693   9.874  0.5045 -1.1515 -0.6920
  603MOL0     C81276   6.744   4.750   9.943 -0.7431 -0.1559 -1.0123
  603MOL0     C81277   6.744   4.870  10.017 -0.2001 -0.0396 -0.2962
  603MOL0     O81278   6.857   4.944  10.044  0.2593 -0.0190 -0.1294
  603MOL0     C81279   6.968   4.937   9.952  0.0236  0.5388 -0.4915
  603MOL0     C81280   7.077   5.002  10.031  0.3183 -0.1756  0.7676
  603MOL0     C81281   7.202   4.992   9.937 -0.1045  0.3406  0.4194
  603MOL0     C81282   7.329   5.035  10.000 -0.5875 -0.1386 -0.0130
  603MOL0     C81283   7.436   5.074   9.896  0.3683  0.5795  0.3624
  603MOL0     C81284   7.568   5.076   9.963  0.0254  0.1219 -0.1424
  603MOL0     C81285   7.679   5.142   9.888 -0.4540 -0.2913 -0.3370
  603MOL0     C81286   7.815   5.111   9.955  1.0277  0.6831  0.3585
  603MOL0     N81287   7.925   5.167   9.881 -0.2545 -0.5124  0.8692
  603MOL0     C81288   8.027   5.234   9.941 -0.6762 -0.2349  0.7317
  603MOL0     C81289   8.119   5.249   9.843  0.1274  0.4828 -0.2751
  603MOL0     C81290   8.247   5.323   9.869  0.8261 -0.1383 -0.1705
  603MOL0     C81291   8.356   5.314   9.753  0.0776 -0.9189 -0.3921
  603MOL0     C81292   8.457   5.428   9.763  0.9416  1.1707  0.0137
  603MOL0     C81293   8.547   5.404   9.643 -0.4983  0.3637  0.2938
  603MOL0     O81294   8.637   5.507   9.627  0.2547 -0.3252  0.4437
  603MOL0     C81295   8.763   5.464   9.581 -0.2179 -0.4524 -0.1364
  603MOL0     C81296   8.805   5.341   9.527 -0.7825  1.4471  0.4172
  603MOL0     C81297   8.940   5.308   9.496 -0.1796 -0.5661 -0.1977
  603MOL0     C81298   9.041   5.394   9.531  0.2187 -0.2128 -0.4017
  603MOL0     C81299   9.192   5.352   9.520  0.7376 -0.3579 -0.4561
  603MOL0     O81300   9.289   5.419   9.600 -0.6402 -0.6449  0.7292
  603MOL0     C81301   9.410   5.352   9.597  1.1883  0.3401 -0.4051
  603MOL0     C81302   9.430   5.221   9.656  0.3674 -0.2087  0.5526
  603MOL0     C81303   9.560   5.172   9.669  0.6819 -0.5945 -0.4478
  603MOL0     C81304   9.670   5.252   9.635  1.4095 -0.5912  0.5376
  603MOL0     O81305   9.806   5.221   9.650  0.5902 -0.2324 -1.1104
  603MOL0     C81306   9.847   5.111   9.570 -0.1546  0.7702 -0.6441
  603MOL0     C81307   9.987   5.069   9.602 -0.5088  0.6998  0.6188
  603MOL0     C81308  10.007   4.979   9.726 -0.2682  0.5102  1.0197
  603MOL0     C81309  10.136   4.893   9.717 -0.8461 -0.3420  0.6344
  603MOL0     C81310  10.176   4.828   9.851  0.4700  0.1876  0.2523
  603MOL0     C81311  10.245   4.690   9.844 -0.2421 -0.3871 -0.0574
  603MOL0     C81312  10.291   4.627   9.970  0.7376 -0.7497  0.5169
  603MOL0     C81313  10.197   4.661  10.091 -0.4249 -0.0689  0.0407
  603MOL0    Cl81314  10.232   4.551  10.230 -0.1071  0.3696  0.0434
  603MOL0     C81315   9.658   5.375   9.580  0.1762 -0.1589 -0.7789
  603MOL0     C81316   9.526   5.424   9.562  0.8032  0.1316 -0.3872
  603MOL0     O81317   9.213   5.243   9.461  0.5263 -0.0298  0.3650
  603MOL0     C81318   9.009   5.526   9.569 -0.4485  0.2943 -1.4798
  603MOL0     C81319   8.872   5.554   9.594  0.1593  0.4994 -0.7365
  603MOL0     N81320   8.086   5.187   9.726 -1.4978  0.4667  0.3732
  603MOL0     N81321   7.969   5.137   9.754 -0.6279  0.1731 -0.4671
  603MOL0     C81322   6.621   4.927  10.036  0.3023  0.3101 -0.9471
  603MOL0     C81323   6.502   4.862   9.995 -0.0961 -0.3015  0.0862
  603MOL0     C81324   6.173   4.651   9.819 -0.3499 -0.7278 -0.4401
  603MOL0     C81325   6.052   4.612   9.886 -0.6202 -0.5206  0.6650
  603MOL0     C81326   5.929   4.607   9.815 -1.2758  0.9984  0.2475
  603MOL0     C81327   5.934   4.609   9.671 -0.9755 -0.0848 -0.1847
  603MOL0     O81328   5.820   4.569   9.607 -0.1475  0.1765 -0.3372
  603MOL0     C81329   5.830   4.513   9.475 -0.1739 -0.3221  0.2964
  603MOL0     C81330   5.695   4.485   9.405 -0.2462  0.2688  0.2628
  603MOL0     C81331   5.611   4.379   9.466  0.8560 -0.7500  0.1419
  603MOL0     C81332   5.497   4.318   9.386 -0.4393 -0.1915  0.5597
  603MOL0     C81333   5.401   4.419   9.355  0.6247 -0.1529  0.3389
  603MOL0     C81334   5.311   4.495   9.324 -0.2647 -0.4617  0.0974
  603MOL0     C81335   6.055   4.631   9.605  0.4939 -0.1518  0.6968
  603MOL0     C81336   6.167   4.670   9.679  0.8127  0.5974  0.1488
  603MOL0     C81337   6.281   4.708   9.592  0.2965  1.0920 -0.8944
  603MOL0     H81338   6.646   4.602   9.816  2.1254 -1.0784 -0.4763
  603MOL0     H81339   6.839   4.702   9.925 -0.3241 -0.2498  1.1912
  603MOL0     H81340   6.990   4.831   9.936  0.7079  1.1443 -4.6205
  603MOL0     H81341   6.952   4.981   9.853  0.4040  1.9514  0.0467
  603MOL0     H81342   7.101   4.955  10.127  2.6377  0.8853  0.7789
  603MOL0     H81343   7.051   5.106  10.052  1.6324  0.9436 -2.4585
  603MOL0     H81344   7.172   5.063   9.859 -0.9252 -1.2100 -0.7283
  603MOL0     H81345   7.216   4.894   9.891  3.6400  0.4946  0.9102
  603MOL0     H81346   7.318   5.125  10.062  3.8236  0.7983 -0.2455
  603MOL0     H81347   7.362   4.954  10.066 -1.0006 -2.2618 -2.2749
  603MOL0     H81348   7.439   5.013   9.805  3.8390  4.2244 -2.2981
  603MOL0     H81349   7.404   5.171   9.856 -0.4198 -0.0569 -0.6031
  603MOL0     H81350   7.547   5.129  10.057  3.2689  0.1651  0.6751
  603MOL0     H81351   7.601   4.981  10.006  0.2033 -0.9772 -2.5804
  603MOL0     H81352   7.664   5.250   9.897  1.1632 -0.2113  2.5674
  603MOL0     H81353   7.671   5.108   9.785 -3.8818  1.1506 -0.6835
  603MOL0     H81354   7.817   5.148  10.058 -0.8839 -2.7296  1.8213
  603MOL0     H81355   7.822   5.002   9.953  1.6281  0.7271  0.1340
  603MOL0     H81356   8.028   5.284  10.037  1.2688  0.9770  0.1499
  603MOL0     H81357   8.212   5.427   9.870 -1.2588 -0.7900 -0.2431
  603MOL0     H81358   8.296   5.291   9.961  2.0567 -1.9701 -1.4077
  603MOL0     H81359   8.409   5.218   9.752  1.7305 -0.0286 -1.2435
  603MOL0     H81360   8.307   5.324   9.656 -0.9367 -0.1112  0.1859
  603MOL0     H81361   8.512   5.421   9.857  0.4759  2.2468  0.3817
  603MOL0     H81362   8.417   5.529   9.749  0.1338  1.2448  2.3306
  603MOL0     H81363   8.484   5.404   9.554  1.0169  0.2316 -0.8064
  603MOL0     H81364   8.599   5.308   9.653  2.4768  1.7149 -1.0095
  603MOL0     H81365   8.737   5.258   9.508  1.7814 -1.3981  2.5602
  603MOL0     H81366   8.960   5.207   9.464 -1.3004 -0.4051 -1.5545
  603MOL0     H81367   9.358   5.156   9.703 -1.7962  0.4869 -1.6123
  603MOL0     H81368   9.581   5.081   9.725 -0.2614  0.2608  1.4020
  603MOL0     H81369   9.791   5.022   9.601  0.9421 -0.2975 -1.5791
  603MOL0     H81370   9.834   5.112   9.462  1.2517 -1.7140 -0.9399
  603MOL0     H81371  10.028   5.015   9.516  0.5705 -0.0609  1.5708
  603MOL0     H81372  10.048   5.159   9.604  0.5848  0.3650 -4.5017
  603MOL0     H81373  10.008   5.038   9.818 -0.6850 -2.0857  2.8011
  603MOL0     H81374   9.930   4.902   9.738  0.7320 -0.8111 -0.5627
  603MOL0     H81375  10.224   4.949   9.684 -2.0652  1.2294 -0.0883
  603MOL0     H81376  10.120   4.824   9.633 -1.9745 -2.0285  2.1484
  603MOL0     H81377  10.083   4.807   9.903  0.6423 -2.5517 -0.3976
  603MOL0     H81378  10.231   4.903   9.909  0.6551  0.3791 -0.1623
  603MOL0     H81379  10.171   4.628   9.794 -2.0584  0.2842  1.6603
  603MOL0     H81380  10.334   4.710   9.783 -1.3412 -0.4017 -1.7107
  603MOL0     H81381  10.393   4.660   9.993  1.3481 -2.3472  0.1890
  603MOL0     H81382  10.291   4.518   9.962  0.2657 -0.6368 -1.9738
  603MOL0     H81383  10.217   4.761  10.131  2.8455 -1.6426  2.7922
  603MOL0     H81384  10.091   4.648  10.063 -1.2921  4.3256  0.5701
  603MOL0     H81385   9.746   5.430   9.548  1.2364 -1.6176 -0.5028
  603MOL0     H81386   9.512   5.527   9.532  0.1911  0.2687  0.3297
  603MOL0     H81387   9.091   5.596   9.586  3.1764 -3.5450 -1.4283
  603MOL0     H81388   8.829   5.649   9.623 -1.8039 -0.9925  1.6634
  603MOL0     H81389   6.633   5.024  10.085  1.5372 -0.2313 -0.1381
  603MOL0     H81390   6.406   4.902  10.025 -1.2690 -2.0679 -1.0943
  603MOL0     H81391   6.052   4.580   9.989 -1.4868  0.3261  0.9495
  603MOL0     H81392   5.832   4.605   9.862  0.5536  0.5472  4.4917
  603MOL0     H81393   5.884   4.418   9.482 -0.0704 -0.1568  2.7248
  603MOL0     H81394   5.882   4.579   9.405 -1.2971  0.0970 -0.1568
  603MOL0     H81395   5.711   4.462   9.300 -0.1063  5.2995 -1.0971
  603MOL0     H81396   5.630   4.574   9.407 -0.3424  0.1843  1.1105
  603MOL0     H81397   5.565   4.415   9.558 -1.9504 -1.0887 -1.0369
  603MOL0     H81398   5.671   4.290   9.485 -2.9613 -3.2082  1.8245
  603MOL0     H81399   5.529   4.270   9.293 -2.5697 -1.1025  0.2256
  603MOL0     H81400   5.449   4.236   9.442 -2.3205  1.0493  0.8527
  603MOL0     H81401   5.231   4.556   9.286 -0.6760 -1.2015 -0.2415
  603MOL0     H81402   6.062   4.634   9.497  1.2932  0.4030  0.7483
  603MOL0     H81403   6.265   4.706   9.484 -0.0037 -1.6250 -0.8804
  603MOL0     H81404   6.310   4.809   9.620 -1.3436  1.4720 -0.4325
  603MOL0     H81405   6.360   4.633   9.602 -1.9581 -1.9073 -3.4923
  604MOL0     O81406  11.078   2.542   1.433  1.4809  0.0757  0.5490
  604MOL0     C81407  11.072   2.595   1.546  0.2523  0.7769 -0.3619
  604MOL0     O81408  11.140   2.705   1.582 -0.1655  0.2955  0.3522
  604MOL0     C81409  11.224   2.761   1.488 -0.7003  0.6344  0.4507
  604MOL0     C81410  11.189   2.854   1.400  0.2258  0.8571  0.5322
  604MOL0     C81411  11.278   2.923   1.315  0.2793 -0.6049  0.0417
  604MOL0     C81412  11.416   2.889   1.319 -0.3109  0.3580 -0.6374
  604MOL0     O81413  11.518   2.946   1.249  0.1714 -0.1771  0.2848
  604MOL0     C81414  11.475   3.045   1.161  0.1312 -0.3976  0.8648
  604MOL0     C81415  11.592   3.076   1.066 -0.4371 -0.0305  1.8822
  604MOL0     C81416  11.547   3.176   0.961 -0.0228 -0.2657 -0.6930
  604MOL0     C81417  11.647   3.271   0.904 -0.4700 -0.0496 -0.7915
  604MOL0     C81418  11.723   3.216   0.786  0.3033  0.0431 -0.7989
  604MOL0     C81419  11.703   3.312   0.663  0.2734  0.3056 -0.1364
  604MOL0     C81420  11.795   3.250   0.555 -0.6351 -0.1343  0.6157
  604MOL0     C81421  11.774   3.302   0.410  0.1005  0.2863 -0.1007
  604MOL0     N81422  11.777   3.450   0.408 -0.3039  0.0373 -0.5908
  604MOL0     C81423  11.858   3.517   0.322  0.0880  0.1114  0.0751
  604MOL0     C81424  11.806   3.640   0.315  0.2969 -1.1448  0.5832
  604MOL0     C81425  11.860   3.765   0.242 -0.2628 -0.0401 -0.6867
  604MOL0     C81426  11.998   3.811   0.293  0.0701  0.1495  0.1199
  604MOL0     C81427  12.040   3.930   0.210 -0.1223 -1.2469  0.2822
  604MOL0     C81428  12.175   3.987   0.253  0.1746 -0.0162 -0.3608
  604MOL0     O81429  12.202   4.113   0.196 -1.2632 -0.5251  0.0559
  604MOL0     C81430  12.325   4.138   0.160 -0.4576  0.3257 -0.1764
  604MOL0     C81431  12.370   4.118   0.025  0.0594  0.2523 -0.2989
  604MOL0     C81432  12.498   4.153  -0.006  0.4303  0.7299 -0.3118
  604MOL0     C81433  12.592   4.201   0.095  0.5085  0.3157 -0.1568
  604MOL0     C81434  12.734   4.209   0.067 -0.1638 -0.3729  0.1976
  604MOL0     O81435  12.781   4.173  -0.056 -0.2922 -0.0000  0.8061
  604MOL0     C81436  12.918   4.207  -0.075 -1.3496 -0.1306 -0.8646
  604MOL0     C81437  12.968   4.340  -0.068 -0.5109  0.1230 -0.5345
  604MOL0     C81438  13.106   4.356  -0.096  0.4024  0.1360  0.2559
  604MOL0     C81439  13.199   4.256  -0.121  1.0941  0.2571 -0.7911
  604MOL0     O81440  13.321   4.294  -0.129 -0.1098 -0.0551 -0.2478
  604MOL0     C81441  13.412   4.234  -0.040 -0.7472  0.0378  0.8804
  604MOL0     C81442  13.539   4.312  -0.045  0.0304 -0.6241  0.0105
  604MOL0     C81443  13.525   4.455   0.011 -0.0813 -0.1290 -0.3795
  604MOL0     C81444  13.639   4.552  -0.030 -0.2329  0.5138  0.7437
  604MOL0     C81445  13.636   4.695   0.029 -0.2403 -0.3567  0.6718
  604MOL0     C81446  13.670   4.692   0.172  0.5870  0.6158 -0.0207
  604MOL0     C81447  13.713   4.823   0.228 -0.3016  0.8484 -0.0518
  604MOL0     C81448  13.850   4.818   0.303  0.0846  0.3642 -0.1036
  604MOL0    Cl81449  13.842   4.822   0.483 -0.4333 -0.1532  0.2773
  604MOL0     C81450  13.145   4.131  -0.144  0.1563  0.7865 -0.3130
  604MOL0     C81451  13.008   4.108  -0.114 -0.4534  0.0977 -0.0054
  604MOL0     O81452  12.803   4.249   0.161  0.5626  0.2474 -0.2552
  604MOL0     C81453  12.542   4.230   0.220  0.0224  0.4212 -0.2599
  604MOL0     C81454  12.408   4.195   0.254  0.2256 -0.0359  0.4926
  604MOL0     N81455  11.689   3.642   0.394 -0.5115  0.2039  0.1032
  604MOL0     N81456  11.682   3.533   0.458 -0.0209 -0.1788  0.1702
  604MOL0     C81457  11.459   2.786   1.410  0.5602 -0.5915  0.0707
  604MOL0     C81458  11.358   2.728   1.499  1.0441 -0.9459 -0.1627
  604MOL0     C81459  10.986   2.535   1.644  0.1332  0.0405 -0.4557
  604MOL0     C81460  10.911   2.619   1.733 -0.3726 -0.4405 -0.9964
  604MOL0     C81461  10.838   2.565   1.838 -0.1422  0.1523 -0.5551
  604MOL0     C81462  10.827   2.432   1.860  0.2988  0.3550  0.0081
  604MOL0     O81463  10.742   2.392   1.957 -0.1788 -0.0321 -0.7480
  604MOL0     C81464  10.666   2.271   1.926  0.3164 -0.2401 -0.0128
  604MOL0     C81465  10.555   2.238   2.027 -1.1293  0.5287  0.7359
  604MOL0     C81466  10.460   2.340   2.066  0.2136 -0.9514 -0.5797
  604MOL0     C81467  10.351   2.270   2.164  0.7791 -0.4451  0.2976
  604MOL0     C81468  10.232   2.346   2.193  0.4057 -0.2137 -0.2001
  604MOL0     C81469  10.131   2.405   2.230 -0.1099 -0.1020  0.0019
  604MOL0     C81470  10.909   2.342   1.776  0.0707 -0.9002  0.0622
  604MOL0     C81471  10.982   2.391   1.664 -0.3840  0.0091  0.5387
  604MOL0     C81472  11.070   2.297   1.592 -0.3445  0.3982  0.3458
  604MOL0     H81473  11.081   2.869   1.394 -0.3753 -2.9931 -1.8383
  604MOL0     H81474  11.232   2.990   1.243 -0.5203 -2.5088 -1.3264
  604MOL0     H81475  11.393   3.008   1.100  1.1509 -2.6752  0.8011
  604MOL0     H81476  11.444   3.127   1.228  1.4696 -0.5995  1.7692
  604MOL0     H81477  11.626   2.981   1.026 -1.6741 -0.1459  1.0313
  604MOL0     H81478  11.669   3.117   1.132  0.3028  1.3051  0.2627
  604MOL0     H81479  11.458   3.225   1.002  0.4039  0.4813 -0.6220
  604MOL0     H81480  11.504   3.117   0.880 -1.0827 -1.4130  0.6673
  604MOL0     H81481  11.604   3.368   0.876 -1.7231  0.2537  1.9188
  604MOL0     H81482  11.731   3.277   0.974 -1.8808 -4.5849  1.7433
  604MOL0     H81483  11.830   3.204   0.804  0.5238  0.9264 -1.4430
  604MOL0     H81484  11.680   3.119   0.761  0.7024 -0.4119  0.2452
  604MOL0     H81485  11.597   3.316   0.634 -0.4043 -1.2142  1.8723
  604MOL0     H81486  11.727   3.418   0.676  2.1804 -0.3101  2.0479
  604MOL0     H81487  11.802   3.141   0.557  0.1398 -0.1073  2.9643
  604MOL0     H81488  11.898   3.276   0.578  0.4196 -2.2389 -1.3330
  604MOL0     H81489  11.859   3.278   0.345  2.3516  2.3466  1.8427
  604MOL0     H81490  11.682   3.259   0.370  0.9443 -0.6094 -1.1350
  604MOL0     H81491  11.930   3.475   0.253  0.4046 -0.3996  0.7012
  604MOL0     H81492  11.879   3.737   0.138  0.5212 -0.6366 -0.3931
  604MOL0     H81493  11.773   3.830   0.235 -1.1826 -1.2367 -0.6672
  604MOL0     H81494  12.010   3.820   0.402  0.5615 -0.3818  0.1089
  604MOL0     H81495  12.072   3.735   0.269 -0.4546  0.0370 -1.2310
  604MOL0     H81496  11.971   4.015   0.212  1.2156 -0.1331  1.5858
  604MOL0     H81497  12.054   3.892   0.109 -2.3227 -0.1526 -0.5115
  604MOL0     H81498  12.246   3.917   0.207 -1.1111 -0.7504 -1.2803
  604MOL0     H81499  12.187   3.991   0.362  1.3708  4.4205 -0.4420
  604MOL0     H81500  12.314   4.097  -0.066  0.2796 -1.1349 -0.1428
  604MOL0     H81501  12.531   4.129  -0.107 -3.4278  0.2536 -1.6270
  604MOL0     H81502  12.893   4.415  -0.042 -0.2731  2.1555 -4.7877
  604MOL0     H81503  13.137   4.459  -0.090 -1.3056  0.6205  2.0212
  604MOL0     H81504  13.370   4.234   0.061 -1.2311 -1.2892  0.7005
  604MOL0     H81505  13.447   4.135  -0.070  2.0694  1.3186 -0.3954
  604MOL0     H81506  13.620   4.273   0.018  1.8489 -0.4516 -2.1096
  604MOL0     H81507  13.572   4.320  -0.149  2.6161 -0.1168  0.7851
  604MOL0     H81508  13.428   4.494  -0.021 -0.6901 -2.2927 -1.3523
  604MOL0     H81509  13.537   4.440   0.119  0.8252 -2.4714 -0.7433
  604MOL0     H81510  13.648   4.568  -0.138  0.5042  0.5035  0.8018
  604MOL0     H81511  13.730   4.498  -0.005 -1.2963 -1.3329  0.8248
  604MOL0     H81512  13.541   4.748   0.018  0.5762  1.1718  0.7242
  604MOL0     H81513  13.704   4.756  -0.030 -1.8426  0.3084 -0.5493
  604MOL0     H81514  13.587   4.664   0.236  0.8137 -0.8170 -0.3238
  604MOL0     H81515  13.745   4.613   0.181 -0.2917 -0.4488 -1.5869
  604MOL0     H81516  13.631   4.871   0.282 -2.1183 -2.2901  0.2291
  604MOL0     H81517  13.727   4.896   0.147 -2.7009 -1.3344 -2.6673
  604MOL0     H81518  13.914   4.733   0.278 -0.6161 -0.1680 -0.1338
  604MOL0     H81519  13.914   4.905   0.286  1.3167 -0.1798  1.4524
  604MOL0     H81520  13.206   4.050  -0.183  1.5885  2.3756 -1.4990
  604MOL0     H81521  12.975   4.005  -0.124 -3.0559  0.2908  4.1381
  604MOL0     H81522  12.604   4.274   0.297  1.5000 -0.2448 -1.0432
  604MOL0     H81523  12.375   4.216   0.355 -0.8423  2.1942 -0.2500
  604MOL0     H81524  11.561   2.759   1.434  0.6815 -0.7982 -0.6823
  604MOL0     H81525  11.381   2.659   1.580 -0.6614  1.7837  2.8763
  604MOL0     H81526  10.900   2.727   1.726 -0.9345 -0.3447  0.9088
  604MOL0     H81527  10.781   2.632   1.903 -0.7682 -0.9717  0.0940
  604MOL0     H81528  10.732   2.184   1.930  2.3353  1.1617 -0.9171
  604MOL0     H81529  10.628   2.274   1.824  0.6526 -2.5406 -0.2640
  604MOL0     H81530  10.602   2.221   2.124  1.3727  3.5040  0.2033
  604MOL0     H81531  10.503   2.146   1.998 -1.2504 -0.6259  4.1683
  604MOL0     H81532  10.430   2.375   1.967  1.2333  2.8250  0.2937
  604MOL0     H81533  10.499   2.429   2.117  1.7333 -2.0241  0.2062
  604MOL0     H81534  10.323   2.172   2.125 -2.4688  1.3968 -2.5910
  604MOL0     H81535  10.400   2.262   2.262 -0.2285  1.6696  1.0174
  604MOL0     H81536  10.040   2.456   2.253  1.5579  3.7434 -1.0910
  604MOL0     H81537  10.915   2.240   1.812 -1.9191 -0.2822  2.4297
  604MOL0     H81538  11.079   2.198   1.638 -3.5413  0.4447  1.3552
  604MOL0     H81539  11.030   2.281   1.491  0.8207  1.3361 -0.2839
  604MOL0     H81540  11.170   2.340   1.585 -0.5961  0.7770 -1.6730
  605MOL0     O81541   8.474  10.014  10.974  0.6296  0.3765  0.7341
  605MOL0     C81542   8.400   9.945  11.041 -0.0323  0.1506 -0.0610
  605MOL0     O81543   8.438   9.858  11.137 -0.4134 -0.4578 -0.0661
  605MOL0     C81544   8.565   9.808  11.138 -0.3232  0.9792  0.1541
  605MOL0     C81545   8.606   9.748  11.258 -0.0567  0.0218 -0.9806
  605MOL0     C81546   8.735   9.692  11.276  0.2449  0.3652  0.5003
  605MOL0     C81547   8.826   9.681  11.166  0.3914  0.5186 -0.1220
  605MOL0     O81548   8.946   9.617  11.157 -0.0384  0.1678 -0.0529
  605MOL0     C81549   8.982   9.526  11.260 -0.6243 -0.3384  0.0620
  605MOL0     C81550   9.126   9.478  11.232 -0.0772  0.0280 -0.5546
  605MOL0     C81551   9.221   9.595  11.290 -0.4703  0.9939  0.3860
  605MOL0     C81552   9.361   9.535  11.312  0.8218 -0.2111  0.3873
  605MOL0     C81553   9.473   9.644  11.293  0.1370 -0.1114 -0.2312
  605MOL0     C81554   9.616   9.602  11.315  1.2183  0.7824 -0.3475
  605MOL0     C81555   9.681   9.480  11.255  0.6641  0.0147  0.1682
  605MOL0     C81556   9.823   9.451  11.328  0.8418  0.2078  0.2283
  605MOL0     N81557   9.865   9.309  11.292  0.1379 -0.7684 -0.0134
  605MOL0     C81558   9.955   9.293  11.195  0.2985  0.4852  0.9077
  605MOL0     C81559  10.000   9.170  11.220 -0.7189 -0.0352  0.7541
  605MOL0     C81560  10.104   9.102  11.145  0.1559 -0.5621  0.6861
  605MOL0     C81561  10.225   9.069  11.241  0.4004  0.6001  0.7678
  605MOL0     C81562  10.296   9.198  11.306 -0.3384  0.3901  0.3025
  605MOL0     C81563  10.440   9.175  11.345 -0.2039 -0.3273  0.8672
  605MOL0     O81564  10.515   9.145  11.220  0.0204  0.5578 -0.8570
  605MOL0     C81565  10.641   9.171  11.203 -0.3753  0.1998  0.0261
  605MOL0     C81566  10.691   9.177  11.074  0.0896  0.0410 -0.1860
  605MOL0     C81567  10.827   9.202  11.048 -1.0151  0.1863 -0.0688
  605MOL0     C81568  10.918   9.219  11.157 -0.7445 -0.2348 -0.5302
  605MOL0     C81569  11.063   9.236  11.137 -0.2389  0.9785  0.1898
  605MOL0     O81570  11.114   9.259  11.017 -0.6931 -0.1064 -0.4534
  605MOL0     C81571  11.244   9.308  11.013 -0.8603 -0.0287 -0.0128
  605MOL0     C81572  11.263   9.448  10.992  1.2226  0.1555 -0.8909
  605MOL0     C81573  11.394   9.496  10.983 -0.2893  0.5959  0.0355
  605MOL0     C81574  11.508   9.414  10.987  0.3490 -1.3119  0.1997
  605MOL0     O81575  11.638   9.467  10.974  0.1368 -0.0031  0.5519
  605MOL0     C81576  11.754   9.384  10.961  0.1973 -1.1953 -0.3292
  605MOL0     C81577  11.876   9.470  10.925  0.2116  0.5397 -0.3568
  605MOL0     C81578  11.892   9.532  10.787 -0.2016  0.2906  0.1141
  605MOL0     C81579  11.892   9.425  10.682  0.6356 -0.4336 -0.3935
  605MOL0     C81580  11.953   9.468  10.551  0.5103 -0.3757 -0.0357
  605MOL0     C81581  11.924   9.367  10.444  0.2607  0.5821  0.2339
  605MOL0     C81582  11.997   9.234  10.458  0.1469  0.2828 -0.6810
  605MOL0     C81583  11.941   9.140  10.354 -0.8347 -0.6366  0.4275
  605MOL0    Cl81584  11.782   9.087  10.384  0.7236  0.5438 -0.1502
  605MOL0     C81585  11.486   9.276  11.006 -0.0601  0.2235  0.3780
  605MOL0     C81586  11.359   9.226  11.012  0.2821  0.1383  0.1832
  605MOL0     O81587  11.129   9.232  11.236 -0.2507  0.7628 -0.0543
  605MOL0     C81588  10.867   9.208  11.290 -0.4182 -0.5735 -0.5859
  605MOL0     C81589  10.728   9.191  11.307 -0.1823  0.0720  0.2533
  605MOL0     N81590   9.918   9.108  11.321 -0.0277  0.4520 -0.3284
  605MOL0     N81591   9.842   9.195  11.364 -0.4982 -0.1105 -1.2375
  605MOL0     C81592   8.796   9.749  11.051 -0.3067 -0.3178  1.1441
  605MOL0     C81593   8.659   9.798  11.034 -0.4552 -0.2931  0.6598
  605MOL0     C81594   8.257   9.949  11.019  0.5645  0.3582 -0.6767
  605MOL0     C81595   8.175   9.851  11.073  0.0270  0.4855 -0.0111
  605MOL0     C81596   8.048   9.840  11.033  0.5971  0.2091 -0.1730
  605MOL0     C81597   7.984   9.931  10.949 -0.7862 -0.3616 -0.7473
  605MOL0     O81598   7.850   9.937  10.927  0.1415 -0.2907  0.6047
  605MOL0     C81599   7.779   9.814  10.941 -0.2599 -0.8170 -0.5830
  605MOL0     C81600   7.642   9.819  10.877 -0.3706  0.1232 -0.4548
  605MOL0     C81601   7.542   9.913  10.940  0.4743  0.5543 -0.2217
  605MOL0     C81602   7.401   9.853  10.967  0.0208  0.4567 -0.6349
  605MOL0     C81603   7.303   9.956  10.990  1.5132  0.1320  0.4657
  605MOL0     C81604   7.215  10.045  10.998 -0.6216 -0.1257  0.1176
  605MOL0     C81605   8.064  10.031  10.891  0.8425  0.3086  0.1012
  605MOL0     C81606   8.199  10.045  10.931  0.0189  0.1267  0.0210
  605MOL0     C81607   8.272  10.166  10.877 -0.1680  0.1441 -0.0828
  605MOL0     H81608   8.545   9.766  11.346  0.4639  0.1280 -0.6345
  605MOL0     H81609   8.771   9.654  11.371  0.5746 -0.5515  0.0260
  605MOL0     H81610   8.974   9.568  11.360  0.3178  1.8606 -0.7359
  605MOL0     H81611   8.927   9.431  11.256  0.0224 -0.7856  1.2457
  605MOL0     H81612   9.149   9.465  11.126  0.9826  2.6286 -0.7194
  605MOL0     H81613   9.158   9.385  11.280  0.8309  0.7570  0.3036
  605MOL0     H81614   9.181   9.653  11.374 -1.0387 -0.8017  1.4018
  605MOL0     H81615   9.227   9.666  11.208 -1.0261  2.2060  1.3560
  605MOL0     H81616   9.366   9.490  11.412  2.3835  2.1742  1.4662
  605MOL0     H81617   9.361   9.449  11.245  0.1882 -0.0061  0.1186
  605MOL0     H81618   9.467   9.689  11.194  2.1718  0.0443 -0.3324
  605MOL0     H81619   9.469   9.721  11.371  0.9945 -1.6271  1.3960
  605MOL0     H81620   9.683   9.687  11.301 -0.9944  2.5427 -0.9038
  605MOL0     H81621   9.624   9.581  11.422  1.2964 -3.7035 -1.0068
  605MOL0     H81622   9.690   9.491  11.147 -1.5434 -0.4243 -0.1182
  605MOL0     H81623   9.622   9.388  11.265 -1.6736  1.4964  0.8555
  605MOL0     H81624   9.899   9.524  11.298 -1.0901  1.5029 -1.8953
  605MOL0     H81625   9.811   9.454  11.436  1.6149  2.6320  0.3102
  605MOL0     H81626   9.989   9.364  11.121 -0.9916  2.3724  2.0264
  605MOL0     H81627  10.087   9.010  11.088  3.4937  0.4217 -2.2559
  605MOL0     H81628  10.123   9.166  11.058 -2.9568 -2.0469 -1.2782
  605MOL0     H81629  10.201   8.995  11.318 -0.0631 -2.0653 -1.7519
  605MOL0     H81630  10.306   9.025  11.182  1.0670  0.7024  1.5942
  605MOL0     H81631  10.244   9.242  11.392  0.0170 -2.4084  2.0780
  605MOL0     H81632  10.304   9.280  11.235  2.2073  1.7017  1.9825
  605MOL0     H81633  10.448   9.095  11.419  2.2751 -0.1316  0.8970
  605MOL0     H81634  10.472   9.271  11.386 -1.3624  0.3506  0.2227
  605MOL0     H81635  10.623   9.152  10.994  0.2463 -2.9727  0.4850
  605MOL0     H81636  10.861   9.197  10.945  0.9809 -0.5148  0.5784
  605MOL0     H81637  11.182   9.519  11.006  2.5979  1.8174 -1.0101
  605MOL0     H81638  11.405   9.603  10.972 -1.3587  0.7327  0.1837
  605MOL0     H81639  11.765   9.333  11.057 -0.6784 -0.4122  0.1998
  605MOL0     H81640  11.739   9.312  10.881  0.7905  0.8072 -2.3639
  605MOL0     H81641  11.869   9.558  10.989 -0.3410 -1.8450  3.1500
  605MOL0     H81642  11.963   9.410  10.953  0.2509  1.3606  1.4318
  605MOL0     H81643  11.812   9.604  10.762 -0.8607 -0.6349 -0.5123
  605MOL0     H81644  11.993   9.572  10.780 -0.3926  0.9898  1.0712
  605MOL0     H81645  11.788   9.406  10.654  0.3348  1.4008 -0.6874
  605MOL0     H81646  11.932   9.332  10.722  1.1318  1.1029  3.0399
  605MOL0     H81647  12.062   9.467  10.566  0.2306 -3.2145  3.1230
  605MOL0     H81648  11.911   9.564  10.522  1.7195  0.7530  1.7204
  605MOL0     H81649  11.815   9.357  10.437  0.5187 -2.8060 -0.4386
  605MOL0     H81650  11.963   9.403  10.348 -1.8927  0.1684 -0.8538
  605MOL0     H81651  11.992   9.200  10.562  0.6823  3.3171  0.4501
  605MOL0     H81652  12.105   9.243  10.445  0.4208  0.7161  1.4683
  605MOL0     H81653  11.959   9.180  10.254  0.3750 -0.6870  0.6127
  605MOL0     H81654  11.996   9.045  10.349 -1.7924 -1.2324  0.8576
  605MOL0     H81655  11.569   9.207  11.001  0.8555  1.2768  0.7561
  605MOL0     H81656  11.343   9.121  11.036 -4.1641  0.2814 -1.2307
  605MOL0     H81657  10.936   9.220  11.374  0.4611 -0.0341 -1.3619
  605MOL0     H81658  10.688   9.174  11.407  0.1547 -0.5198  0.2866
  605MOL0     H81659   8.867   9.739  10.970 -0.2941 -3.0095  1.3960
  605MOL0     H81660   8.633   9.833  10.934 -0.9264 -0.1861  0.8158
  605MOL0     H81661   8.218   9.776  11.139 -1.2884  1.1652  1.7014
  605MOL0     H81662   7.993   9.751  11.060  1.3285 -1.3211 -3.1892
  605MOL0     H81663   7.772   9.791  11.048 -0.1632 -0.9993 -0.6152
  605MOL0     H81664   7.838   9.737  10.890  0.6520 -1.7614  1.7432
  605MOL0     H81665   7.606   9.716  10.883 -1.4192  0.4535 -0.8844
  605MOL0     H81666   7.662   9.851  10.775 -1.1098  0.2941 -0.5540
  605MOL0     H81667   7.534   9.992  10.865  2.2111  0.6209 -0.3801
  605MOL0     H81668   7.570   9.954  11.037  0.5828 -1.6297  0.7238
  605MOL0     H81669   7.355   9.802  10.882  2.9520 -0.5790 -1.7486
  605MOL0     H81670   7.410   9.772  11.039 -0.3991 -1.2246 -2.3816
  605MOL0     H81671   7.139  10.122  10.998  0.9439  1.5805 -2.2813
  605MOL0     H81672   8.025  10.108  10.824  0.8834  0.6747  0.4890
  605MOL0     H81673   8.206  10.237  10.826  3.4034  4.4585  0.6157
  605MOL0     H81674   8.315  10.219  10.962 -0.4545  0.1654  0.0479
  605MOL0     H81675   8.342  10.145  10.795  0.9180 -4.0529  1.6891
  606MOL0     O81676   0.388   1.675   3.298 -0.1883  0.2929 -0.3093
  606MOL0     C81677   0.305   1.596   3.264  0.6944 -0.1658 -0.0050
  606MOL0     O81678   0.317   1.497   3.163 -0.3068  0.2261  0.4129
  606MOL0     C81679   0.441   1.493   3.099 -0.6224 -0.0672  0.8170
  606MOL0     C81680   0.459   1.567   2.981  0.7336 -0.6033  0.7068
  606MOL0     C81681   0.592   1.579   2.939 -0.1436  0.1836  0.0862
  606MOL0     C81682   0.697   1.500   2.989  0.5646  0.6566  0.3740
  606MOL0     O81683   0.811   1.490   2.910 -0.1500 -0.2033  0.1202
  606MOL0     C81684   0.928   1.422   2.965  0.2231  0.4034 -0.2866
  606MOL0     C81685   1.036   1.436   2.859  0.8271  0.0425  0.1552
  606MOL0     C81686   1.154   1.340   2.895  0.3535  1.3961 -0.4549
  606MOL0     C81687   1.247   1.304   2.766 -0.2661 -0.1057  0.2574
  606MOL0     C81688   1.370   1.221   2.798 -0.2855 -0.2025 -0.5924
  606MOL0     C81689   1.384   1.102   2.703  0.4589 -0.2671  0.2365
  606MOL0     C81690   1.277   0.993   2.725 -0.5005  0.5242  0.8204
  606MOL0     C81691   1.254   0.943   2.870  0.1543  0.6024 -0.2591
  606MOL0     N81692   1.377   0.877   2.929  0.0147  0.2183 -0.6985
  606MOL0     C81693   1.380   0.738   2.947  0.0609  0.2453  0.1872
  606MOL0     C81694   1.503   0.720   3.008 -0.0991 -0.5531 -0.3861
  606MOL0     C81695   1.567   0.591   3.042  0.5573  0.1685  0.5210
  606MOL0     C81696   1.467   0.502   3.123 -0.0810 -0.2052  0.6925
  606MOL0     C81697   1.405   0.559   3.253 -0.1850  0.5553  0.2370
  606MOL0     C81698   1.279   0.493   3.315 -0.2991  0.6247  0.0251
  606MOL0     O81699   1.293   0.353   3.322 -0.3443  0.7400 -0.6504
  606MOL0     C81700   1.181   0.275   3.332 -1.1136 -0.3824  0.1436
  606MOL0     C81701   1.197   0.157   3.269  1.0288  0.6562  0.0891
  606MOL0     C81702   1.078   0.076   3.260  0.5145 -0.2246 -0.1492
  606MOL0     C81703   0.949   0.114   3.320 -0.4465 -0.7747 -0.5712
  606MOL0     C81704   0.829   0.032   3.285  0.3086  0.4371  0.1566
  606MOL0     O81705   0.846  -0.094   3.229 -0.2858 -0.3860  0.4644
  606MOL0     C81706   0.735  -0.137   3.162 -1.0511 -0.0845  0.0458
  606MOL0     C81707   0.725  -0.137   3.020 -0.3439 -0.4580 -0.0636
  606MOL0     C81708   0.604  -0.167   2.960  0.5457  0.3875  0.2104
  606MOL0     C81709   0.489  -0.207   3.026  0.6562  0.8540  1.1611
  606MOL0     O81710   0.372  -0.239   2.949 -0.7994 -0.4905  0.8865
  606MOL0     C81711   0.264  -0.304   3.020 -0.7872  0.2919  0.2861
  606MOL0     C81712   0.135  -0.338   2.943  0.9017 -0.7775  0.4870
  606MOL0     C81713   0.168  -0.457   2.852  0.2136 -0.4587  0.7369
  606MOL0     C81714   0.038  -0.534   2.811  0.3093  1.1779  0.0583
  606MOL0     C81715   0.065  -0.666   2.730 -0.5116  0.0385 -0.4033
  606MOL0     C81716  -0.070  -0.745   2.697  0.7073  0.0963  0.5935
  606MOL0     C81717  -0.151  -0.682   2.580 -1.3489  0.7692 -0.1566
  606MOL0     C81718  -0.275  -0.766   2.536 -0.2502  0.4825 -0.4418
  606MOL0    Cl81719  -0.391  -0.762   2.669  0.4733  0.0561 -0.2722
  606MOL0     C81720   0.498  -0.208   3.162 -0.1870  0.7303  1.1513
  606MOL0     C81721   0.622  -0.178   3.234 -0.4734 -0.0246  0.4473
  606MOL0     O81722   0.716   0.086   3.308 -0.2240  0.1589 -0.1989
  606MOL0     C81723   0.948   0.232   3.398 -0.2142 -0.5993  0.3730
  606MOL0     C81724   1.067   0.307   3.405 -0.6275 -0.0358 -0.5036
  606MOL0     N81725   1.569   0.844   3.011  0.2529  0.6325 -0.2091
  606MOL0     N81726   1.489   0.936   2.976  0.2733 -0.2518  0.0640
  606MOL0     C81727   0.677   1.422   3.104  0.5606 -0.0074 -0.4573
  606MOL0     C81728   0.546   1.408   3.153  0.3674  0.0852  0.0040
  606MOL0     C81729   0.162   1.612   3.322  0.2458 -0.1792 -0.4750
  606MOL0     C81730   0.089   1.505   3.373 -0.2886 -0.0547 -0.5563
  606MOL0     C81731  -0.040   1.522   3.423  0.3935  0.3207 -0.2708
  606MOL0     C81732  -0.110   1.641   3.420  0.0997 -0.0335  0.0735
  606MOL0     O81733  -0.233   1.667   3.467 -0.1844  0.5181  0.2319
  606MOL0     C81734  -0.313   1.560   3.518  0.1630 -0.2931 -0.0510
  606MOL0     C81735  -0.460   1.610   3.522 -0.4027  0.4228 -0.4125
  606MOL0     C81736  -0.560   1.514   3.585 -0.2692  0.1569 -0.0827
  606MOL0     C81737  -0.704   1.560   3.558  0.1194 -0.9738 -0.5041
  606MOL0     C81738  -0.788   1.461   3.626  0.0272 -0.6022  0.0274
  606MOL0     C81739  -0.845   1.383   3.700 -0.4120  0.5191  0.2506
  606MOL0     C81740  -0.039   1.748   3.363 -0.1014 -0.8416  0.0064
  606MOL0     C81741   0.089   1.738   3.298  0.3858 -0.2908  0.3679
  606MOL0     C81742   0.147   1.866   3.236 -0.0073 -0.7459 -0.5062
  606MOL0     H81743   0.376   1.626   2.942 -0.3538 -2.2521  0.4389
  606MOL0     H81744   0.636   1.638   2.859 -0.2092  0.8103  0.4982
  606MOL0     H81745   0.955   1.466   3.061  1.9484 -0.6213 -0.2528
  606MOL0     H81746   0.910   1.315   2.979 -0.3913  0.6518  0.9515
  606MOL0     H81747   1.087   1.533   2.856 -1.6722  1.4470  0.2960
  606MOL0     H81748   0.993   1.416   2.761 -0.2884  2.1209  0.1538
  606MOL0     H81749   1.118   1.256   2.954  0.8378  4.3391  4.5865
  606MOL0     H81750   1.216   1.388   2.970  0.3648 -0.6237  0.8947
  606MOL0     H81751   1.183   1.258   2.690 -1.3057  0.2204  0.9147
  606MOL0     H81752   1.269   1.405   2.730 -2.5091 -0.5654 -2.8354
  606MOL0     H81753   1.459   1.284   2.795  0.7153 -1.5369 -4.0681
  606MOL0     H81754   1.360   1.184   2.900  0.2684 -0.5065 -0.6454
  606MOL0     H81755   1.376   1.149   2.604  0.0117  0.0117  0.3999
  606MOL0     H81756   1.484   1.060   2.710  0.8594  0.9086  2.3392
  606MOL0     H81757   1.311   0.901   2.677  0.1670  2.2552 -2.3119
  606MOL0     H81758   1.183   1.016   2.674  1.2758 -3.1294 -5.1679
  606MOL0     H81759   1.218   1.020   2.939 -4.0164 -0.1076 -1.3967
  606MOL0     H81760   1.171   0.872   2.867  1.5258 -1.0106 -1.9765
  606MOL0     H81761   1.300   0.669   2.923  1.3320 -2.6225  3.4542
  606MOL0     H81762   1.591   0.539   2.949  0.6834 -0.9749  1.1728
  606MOL0     H81763   1.662   0.607   3.093 -0.5295 -0.5939  2.9378
  606MOL0     H81764   1.384   0.463   3.064 -2.3812  0.3588  3.3541
  606MOL0     H81765   1.531   0.419   3.154  1.5498  0.5595 -0.4992
  606MOL0     H81766   1.365   0.660   3.236 -0.2456  0.0190 -3.6261
  606MOL0     H81767   1.489   0.552   3.322  0.8333  1.0920 -0.9089
  606MOL0     H81768   1.184   0.521   3.269 -1.4825 -4.0996 -0.8519
  606MOL0     H81769   1.284   0.529   3.418  1.9462 -1.6873  0.8227
  606MOL0     H81770   1.292   0.145   3.217  1.7234  2.0234  0.9863
  606MOL0     H81771   1.065  -0.008   3.193  0.2984  1.6259 -2.5672
  606MOL0     H81772   0.815  -0.121   2.961 -1.5242  1.7429 -1.3477
  606MOL0     H81773   0.601  -0.178   2.852 -3.1413  0.4555  0.1827
  606MOL0     H81774   0.297  -0.395   3.071  1.0149  2.3918  3.2205
  606MOL0     H81775   0.236  -0.240   3.105  2.6562 -1.1160  2.7233
  606MOL0     H81776   0.056  -0.354   3.017 -1.3531  1.3235 -1.2468
  606MOL0     H81777   0.098  -0.252   2.885 -1.8093  0.1934  3.3932
  606MOL0     H81778   0.212  -0.424   2.757 -0.6238 -0.6655  0.2658
  606MOL0     H81779   0.226  -0.523   2.917 -2.8026 -2.2084  1.8477
  606MOL0     H81780  -0.024  -0.467   2.752  0.4272  2.8716  1.7691
  606MOL0     H81781  -0.015  -0.549   2.906  1.0572  2.0651  0.6315
  606MOL0     H81782   0.139  -0.723   2.786 -0.9996 -1.0185 -0.8086
  606MOL0     H81783   0.120  -0.646   2.638  0.8219  1.5412  0.6540
  606MOL0     H81784  -0.048  -0.843   2.654 -0.4416  0.4251 -0.8518
  606MOL0     H81785  -0.120  -0.767   2.792  0.1287 -1.9417 -0.1472
  606MOL0     H81786  -0.093  -0.665   2.489  1.9186  1.7303  1.9176
  606MOL0     H81787  -0.179  -0.578   2.604 -0.2880  1.0702 -0.1805
  606MOL0     H81788  -0.326  -0.714   2.455  1.3447  2.0702 -0.4951
  606MOL0     H81789  -0.240  -0.867   2.511  1.9710  0.8780  0.8418
  606MOL0     H81790   0.419  -0.248   3.225  0.3586 -0.1889  1.2716
  606MOL0     H81791   0.633  -0.179   3.342  2.2569 -1.4943  0.2261
  606MOL0     H81792   0.860   0.280   3.439 -0.7156 -0.1621 -1.1465
  606MOL0     H81793   1.065   0.401   3.458  0.4372 -2.7298  5.0379
  606MOL0     H81794   0.756   1.370   3.157  1.3937  1.6535  0.0209
  606MOL0     H81795   0.524   1.355   3.245  1.1974  0.4959  0.4534
  606MOL0     H81796   0.145   1.412   3.377 -3.2443 -1.9426 -0.1646
  606MOL0     H81797  -0.095   1.445   3.477 -0.9769  1.8477  0.5824
  606MOL0     H81798  -0.279   1.532   3.618  2.2811  0.6547 -0.4440
  606MOL0     H81799  -0.310   1.464   3.465 -1.0820  0.0943 -0.8625
  606MOL0     H81800  -0.479   1.612   3.414  0.7840  1.9902 -0.6244
  606MOL0     H81801  -0.451   1.710   3.563  3.6833  0.1802 -0.3221
  606MOL0     H81802  -0.532   1.528   3.690  1.6802  1.5176 -0.7250
  606MOL0     H81803  -0.541   1.411   3.554 -1.2542 -0.3967  1.0994
  606MOL0     H81804  -0.699   1.664   3.591  4.6279  0.4628 -4.5108
  606MOL0     H81805  -0.724   1.553   3.451 -0.2043 -1.3902 -0.4163
  606MOL0     H81806  -0.891   1.320   3.773  2.2511 -0.5780  1.0961
  606MOL0     H81807  -0.081   1.847   3.379 -1.6930 -1.9612  3.5605
  606MOL0     H81808   0.206   1.850   3.145  1.0709  0.9258 -0.1450
  606MOL0     H81809   0.066   1.938   3.225 -0.2850 -1.0398 -0.3798
  606MOL0     H81810   0.215   1.919   3.304 -1.0430 -2.6551  2.1566
  607MOL0     O81811   5.121   3.222  10.656  0.2128  0.6694 -0.7270
  607MOL0     C81812   5.015   3.273  10.689 -0.2172  0.4511  0.7227
  607MOL0     O81813   4.907   3.274  10.598  0.6679  0.2224 -0.1983
  607MOL0     C81814   4.916   3.179  10.500 -1.0118 -0.4819  0.3536
  607MOL0     C81815   4.907   3.037  10.524  0.3571 -0.5277  1.0665
  607MOL0     C81816   4.916   2.945  10.419  0.0794 -0.3174 -0.3128
  607MOL0     C81817   4.940   2.995  10.288  0.6671 -0.2122  0.7761
  607MOL0     O81818   4.941   2.920  10.170 -0.3348 -0.0061  0.1802
  607MOL0     C81819   4.885   2.786  10.162 -0.1594  0.4663  0.3796
  607MOL0     C81820   4.735   2.782  10.192  0.2427 -0.3407  0.2651
  607MOL0     C81821   4.667   2.656  10.136 -0.7496  0.5558  0.3531
  607MOL0     C81822   4.677   2.533  10.219 -0.3171 -0.0132 -0.5920
  607MOL0     C81823   4.633   2.409  10.143 -0.9281 -0.1466  0.3018
  607MOL0     C81824   4.659   2.280  10.223  0.5783 -0.4255  0.1731
  607MOL0     C81825   4.592   2.162  10.162  0.4358  0.3730 -0.4151
  607MOL0     C81826   4.662   2.028  10.191 -0.2465 -0.3573 -0.9574
  607MOL0     N81827   4.812   2.021  10.174 -0.1439  0.0979 -0.4781
  607MOL0     C81828   4.894   2.071  10.073  0.3774  0.3314 -0.2983
  607MOL0     C81829   5.012   2.004  10.087 -0.3477  0.0567  0.0645
  607MOL0     C81830   5.136   2.012  10.009  0.5594  0.6375 -0.3051
  607MOL0     C81831   5.134   1.893   9.907 -0.1349 -0.7034 -0.2667
  607MOL0     C81832   5.253   1.902   9.800 -0.2455  0.3976  0.2275
  607MOL0     C81833   5.398   1.873   9.853  0.4553  0.5787 -0.0516
  607MOL0     O81834   5.462   1.831   9.736 -0.3252 -0.1190 -0.1064
  607MOL0     C81835   5.575   1.746   9.739 -0.2893 -0.0646  0.7371
  607MOL0     C81836   5.625   1.675   9.853  0.0905 -0.1873 -0.1211
  607MOL0     C81837   5.727   1.588   9.838  0.0691  0.0294 -0.5733
  607MOL0     C81838   5.795   1.564   9.722 -0.2588 -0.2108 -0.6326
  607MOL0     C81839   5.892   1.455   9.711 -0.0454  0.7974  0.3723
  607MOL0     O81840   5.878   1.349   9.798  0.5299 -0.7259 -0.2003
  607MOL0     C81841   5.985   1.250   9.798  0.7622  0.2785 -1.4600
  607MOL0     C81842   6.121   1.290   9.804 -0.3377  0.9473  0.9617
  607MOL0     C81843   6.219   1.190   9.797 -0.1948  0.3937 -0.3398
  607MOL0     C81844   6.192   1.055   9.802  0.0334  0.7318 -0.5914
  607MOL0     O81845   6.299   0.974   9.790  0.2367 -0.3060  0.8152
  607MOL0     C81846   6.320   0.862   9.873 -0.3461 -1.1962 -0.4099
  607MOL0     C81847   6.340   0.735   9.793 -0.0725  0.5072  0.0261
  607MOL0     C81848   6.489   0.717   9.754 -0.1986 -0.1251  0.4777
  607MOL0     C81849   6.600   0.726   9.863 -0.5884  0.8483  0.3094
  607MOL0     C81850   6.733   0.697   9.806  1.1149  0.9456  1.0884
  607MOL0     C81851   6.851   0.753   9.878  0.3662 -0.6011  0.6666
  607MOL0     C81852   6.995   0.697   9.832 -0.2399 -0.0801 -0.5170
  607MOL0     C81853   7.038   0.728   9.689 -0.2148  0.4386  0.1913
  607MOL0    Cl81854   6.988   0.894   9.642 -0.0391 -0.3556  0.0150
  607MOL0     C81855   6.058   1.017   9.813 -0.2492 -0.0026  0.1214
  607MOL0     C81856   5.957   1.108   9.812  0.3860 -0.5136 -0.4189
  607MOL0     O81857   5.979   1.463   9.620 -0.0058  0.0142 -0.2587
  607MOL0     C81858   5.748   1.644   9.613 -0.7571 -0.2347 -0.3747
  607MOL0     C81859   5.641   1.729   9.620  0.2593  0.1966  0.0707
  607MOL0     N81860   5.000   1.924  10.203  0.7574  0.0981  0.6490
  607MOL0     N81861   4.887   1.937  10.248  0.4619  0.1112  0.0495
  607MOL0     C81862   4.950   3.135  10.267 -0.6003 -0.6605 -0.7103
  607MOL0     C81863   4.928   3.225  10.370  0.2366  0.3738 -0.3280
  607MOL0     C81864   4.998   3.353  10.815 -0.4666 -0.1620  0.2741
  607MOL0     C81865   5.112   3.422  10.868 -0.0898 -0.4419 -0.3813
  607MOL0     C81866   5.102   3.503  10.978  0.0795  0.5739 -0.3262
  607MOL0     C81867   4.982   3.515  11.060 -0.6699  0.2919  1.0838
  607MOL0     O81868   4.972   3.567  11.183  0.0259 -0.2113 -0.2339
  607MOL0     C81869   5.100   3.600  11.246 -0.1634 -0.1931  0.7571
  607MOL0     C81870   5.065   3.673  11.377  0.0515 -0.2542  0.8153
  607MOL0     C81871   5.002   3.811  11.352  0.5189  0.7465 -1.1396
  607MOL0     C81872   4.977   3.886  11.484 -0.5955  0.4147 -0.5947
  607MOL0     C81873   5.108   3.946  11.532  1.0196  0.2251  1.0041
  607MOL0     C81874   5.197   3.999  11.590  0.4812  0.7525 -0.1217
  607MOL0     C81875   4.880   3.434  11.002  0.1846 -0.4881 -0.3712
  607MOL0     C81876   4.877   3.360  10.882 -0.5942  0.3468  0.4927
  607MOL0     C81877   4.760   3.268  10.853  0.1121 -0.4432  0.0171
  607MOL0     H81878   4.897   3.004  10.627  2.4882  0.2580  1.5753
  607MOL0     H81879   4.912   2.837  10.430  0.7295 -0.4017 -0.8935
  607MOL0     H81880   4.896   2.746  10.060 -0.7309 -2.0631  1.2408
  607MOL0     H81881   4.929   2.708  10.224  0.0448  0.5694  0.3657
  607MOL0     H81882   4.700   2.865  10.129  1.7597  0.0722 -0.0712
  607MOL0     H81883   4.700   2.798  10.295 -0.2125  1.2640 -0.1157
  607MOL0     H81884   4.699   2.636  10.033 -4.0333  0.8747 -0.8529
  607MOL0     H81885   4.561   2.680  10.131 -0.6550  1.0184  0.4838
  607MOL0     H81886   4.780   2.524  10.255 -0.3250  3.5316  0.7016
  607MOL0     H81887   4.616   2.560  10.306  0.7624  2.2912 -0.4916
  607MOL0     H81888   4.530   2.429  10.113 -0.5175  0.2819 -0.9053
  607MOL0     H81889   4.678   2.411  10.043 -0.8743  3.3650  0.2602
  607MOL0     H81890   4.766   2.256  10.215  0.3930 -1.1982 -0.0758
  607MOL0     H81891   4.621   2.292  10.325 -0.6097  0.6927 -0.3786
  607MOL0     H81892   4.578   2.177  10.055  0.7568  1.6312 -0.2975
  607MOL0     H81893   4.490   2.160  10.200  1.2580 -0.8858  1.9284
  607MOL0     H81894   4.642   2.009  10.297  1.9805  2.4716  0.0903
  607MOL0     H81895   4.612   1.954  10.128 -0.7283 -0.4154 -0.5092
  607MOL0     H81896   4.870   2.132   9.986  2.7082  0.1019 -1.1874
  607MOL0     H81897   5.149   2.105   9.954 -1.1731  0.0410 -1.8412
  607MOL0     H81898   5.208   1.989  10.088 -0.5450 -0.3564  0.4628
  607MOL0     H81899   5.131   1.792   9.951  0.2309 -0.6956 -0.2216
  607MOL0     H81900   5.043   1.894   9.846 -0.8085 -0.4130  0.7215
  607MOL0     H81901   5.255   1.999   9.750  0.8964  0.3207  0.1059
  607MOL0     H81902   5.237   1.829   9.721  0.3534  0.4742  0.0336
  607MOL0     H81903   5.384   1.792   9.925  0.4653 -0.0661 -0.7693
  607MOL0     H81904   5.450   1.955   9.904  0.2974 -0.6932  2.3419
  607MOL0     H81905   5.582   1.694   9.951  1.3524  0.8755  0.2573
  607MOL0     H81906   5.734   1.525   9.926 -1.0976  1.3049  0.4835
  607MOL0     H81907   6.161   1.390   9.807  3.8074 -0.4801  4.9867
  607MOL0     H81908   6.324   1.215   9.785  0.5631 -2.6912 -1.0449
  607MOL0     H81909   6.396   0.876   9.950 -2.7646 -1.7423  2.2098
  607MOL0     H81910   6.225   0.853   9.925 -0.8026  0.6737 -0.8168
  607MOL0     H81911   6.304   0.654   9.856 -0.2918  0.2264 -0.4551
  607MOL0     H81912   6.275   0.743   9.705 -1.5218  0.9234  1.0942
  607MOL0     H81913   6.496   0.620   9.704  0.9398  1.1460 -2.0003
  607MOL0     H81914   6.517   0.800   9.688  1.9145 -1.9215 -1.0305
  607MOL0     H81915   6.587   0.685   9.964  2.9039  0.5392  0.7476
  607MOL0     H81916   6.619   0.829   9.896 -0.1953 -0.0891  3.2896
  607MOL0     H81917   6.740   0.734   9.703 -0.3706  0.3054  0.7225
  607MOL0     H81918   6.739   0.588   9.796  1.5461  1.1097 -0.9425
  607MOL0     H81919   6.860   0.859   9.854  0.1617 -0.4761  1.1284
  607MOL0     H81920   6.839   0.731   9.984  2.1723 -1.3741  0.7402
  607MOL0     H81921   7.009   0.589   9.833 -1.5649 -0.2746 -1.1160
  607MOL0     H81922   7.060   0.741   9.908 -1.5808  1.9622 -0.4694
  607MOL0     H81923   7.142   0.702   9.669 -0.9384 -2.8903  0.0522
  607MOL0     H81924   6.992   0.654   9.622  1.5451 -0.1156 -0.4506
  607MOL0     H81925   6.039   0.910   9.809  0.3601 -0.1374 -4.1380
  607MOL0     H81926   5.855   1.073   9.806  0.1654  0.1729 -0.8927
  607MOL0     H81927   5.792   1.638   9.514 -1.4606  0.0958 -0.7178
  607MOL0     H81928   5.612   1.781   9.529  1.9985 -2.4785 -2.1696
  607MOL0     H81929   4.961   3.168  10.164 -1.0016  2.3430  0.1154
  607MOL0     H81930   4.933   3.331  10.346 -0.8834 -0.0697 -2.8812
  607MOL0     H81931   5.209   3.422  10.819  0.0479  0.9722 -0.1689
  607MOL0     H81932   5.197   3.548  11.003  0.7413  0.7061 -2.8182
  607MOL0     H81933   5.154   3.670  11.182  0.6311 -0.8736  0.6679
  607MOL0     H81934   5.170   3.519  11.265  2.5272  2.2975  2.2489
  607MOL0     H81935   5.159   3.674  11.434 -0.1505 -3.3575  1.3315
  607MOL0     H81936   5.002   3.610  11.439 -1.5380  0.8181  0.3410
  607MOL0     H81937   4.906   3.795  11.303  0.2168 -0.9575 -0.1087
  607MOL0     H81938   5.058   3.881  11.290  1.8625  0.8432  0.1225
  607MOL0     H81939   4.900   3.962  11.469  0.1636  1.3098 -0.0317
  607MOL0     H81940   4.940   3.820  11.563  1.8146  1.2285  1.2994
  607MOL0     H81941   5.279   4.050  11.637  0.6936  1.3190 -1.0700
  607MOL0     H81942   4.784   3.427  11.052 -0.0056 -2.8393 -0.9243
  607MOL0     H81943   4.697   3.249  10.940 -1.1924  0.4261 -0.6923
  607MOL0     H81944   4.694   3.325  10.787  1.7888  4.2240  1.8991
  607MOL0     H81945   4.794   3.175  10.808  0.9430 -0.3757  0.4727
  608MOL0     O81946   5.324   5.566   1.947  0.5223  0.3459 -0.2355
  608MOL0     C81947   5.238   5.546   1.862 -0.0835 -0.0278  0.2577
  608MOL0     O81948   5.123   5.625   1.847  0.2359  0.5423 -0.4361
  608MOL0     C81949   5.101   5.688   1.965  1.0427 -0.7777 -0.7965
  608MOL0     C81950   5.180   5.797   2.008  0.6334  0.3345  1.2422
  608MOL0     C81951   5.170   5.835   2.140  0.5036 -0.3578  0.5849
  608MOL0     C81952   5.063   5.806   2.226  0.1528  0.3044 -0.3274
  608MOL0     O81953   5.033   5.866   2.348  0.2371  0.1120 -0.1749
  608MOL0     C81954   5.114   5.980   2.386 -0.3624  0.5888 -0.1473
  608MOL0     C81955   5.092   6.017   2.534  0.5131  0.7082 -0.0819
  608MOL0     C81956   5.186   5.945   2.625 -0.3898 -0.9389 -0.5232
  608MOL0     C81957   5.150   5.959   2.770 -0.3211  0.2887 -0.2589
  608MOL0     C81958   5.260   5.885   2.855 -0.2382 -0.4306  0.0783
  608MOL0     C81959   5.257   5.735   2.834 -1.1619  0.9448  0.2591
  608MOL0     C81960   5.346   5.658   2.932  0.3216 -0.6262 -0.2685
  608MOL0     C81961   5.329   5.509   2.911  1.2832  0.1263  0.2657
  608MOL0     N81962   5.343   5.431   3.038 -0.1886  0.4209  0.0320
  608MOL0     C81963   5.467   5.381   3.087 -0.1840 -0.4349 -0.5998
  608MOL0     C81964   5.426   5.313   3.206 -0.3837  0.2281  0.0664
  608MOL0     C81965   5.517   5.230   3.299  0.0426 -0.3464  0.5451
  608MOL0     C81966   5.663   5.221   3.261 -0.8982 -0.4276  0.0133
  608MOL0     C81967   5.746   5.349   3.281 -0.1963 -1.3957  0.4112
  608MOL0     C81968   5.891   5.323   3.241  1.2582 -0.0887 -0.3476
  608MOL0     O81969   5.976   5.421   3.316 -0.4908 -0.8670  0.2828
  608MOL0     C81970   6.107   5.373   3.304  0.1487 -0.6899 -0.5382
  608MOL0     C81971   6.183   5.359   3.188 -1.2168  0.3165  0.3762
  608MOL0     C81972   6.320   5.352   3.189 -0.1796  0.0058  0.6826
  608MOL0     C81973   6.384   5.322   3.315 -0.5931 -0.5659 -0.4635
  608MOL0     C81974   6.531   5.326   3.333  0.2307  0.4883 -0.2526
  608MOL0     O81975   6.596   5.368   3.226 -1.2302  0.2298  1.2094
  608MOL0     C81976   6.733   5.350   3.222 -0.2748  0.1545 -1.0247
  608MOL0     C81977   6.794   5.442   3.135  0.4273 -0.4023  0.4647
  608MOL0     C81978   6.929   5.463   3.126 -0.7360  0.4983  0.8272
  608MOL0     C81979   7.021   5.388   3.214 -0.2290  1.0178 -0.5166
  608MOL0     O81980   7.154   5.414   3.225  0.0546  0.1320 -0.6633
  608MOL0     C81981   7.204   5.551   3.198 -0.5068  0.4432 -0.1320
  608MOL0     C81982   7.332   5.591   3.272  0.1451  0.3588 -0.4266
  608MOL0     C81983   7.460   5.600   3.189 -0.0683 -0.1139 -0.1578
  608MOL0     C81984   7.584   5.603   3.286  0.3390  0.0029  0.0618
  608MOL0     C81985   7.707   5.651   3.218 -0.3080 -0.7652 -0.3201
  608MOL0     C81986   7.780   5.552   3.126  0.0030  0.0319 -1.1141
  608MOL0     C81987   7.901   5.596   3.059  0.1251 -0.6492  0.5959
  608MOL0     C81988   7.890   5.723   2.966  0.9600  0.2853  0.3860
  608MOL0    Cl81989   7.772   5.684   2.827  0.0615  0.0593  0.0863
  608MOL0     C81990   6.957   5.281   3.286 -0.0323 -0.7193  0.0546
  608MOL0     C81991   6.817   5.258   3.291 -0.8668 -0.3304  0.6291
  608MOL0     O81992   6.587   5.289   3.433 -0.6238 -0.2561 -0.2151
  608MOL0     C81993   6.301   5.330   3.435 -0.2473 -1.9166 -0.4648
  608MOL0     C81994   6.166   5.361   3.430 -0.7703  0.1665  0.5411
  608MOL0     N81995   5.285   5.323   3.220  0.0065  0.1266 -0.0107
  608MOL0     N81996   5.238   5.385   3.117  0.7401  0.2103  0.3033
  608MOL0     C81997   4.968   5.715   2.173  0.6679  0.7992  0.7527
  608MOL0     C81998   4.995   5.653   2.049  0.9524  0.4081 -0.2818
  608MOL0     C81999   5.243   5.443   1.755 -0.5897  0.1291  0.2240
  608MOL0     C82000   5.156   5.458   1.638 -0.0014  0.8729  0.3663
  608MOL0     C82001   5.145   5.353   1.543  1.1473 -0.5462 -0.6126
  608MOL0     C82002   5.234   5.241   1.549 -0.1462  0.1716 -0.1874
  608MOL0     O82003   5.219   5.159   1.445 -0.4520 -0.4294  0.2861
  608MOL0     C82004   5.253   5.024   1.466  0.1200 -0.4630  0.4477
  608MOL0     C82005   5.154   4.939   1.385 -0.2453  0.3898 -0.2881
  608MOL0     C82006   5.145   4.948   1.239  0.4310  0.5199  0.8870
  608MOL0     C82007   5.071   4.823   1.187  0.1481  0.4362  0.2666
  608MOL0     C82008   5.060   4.816   1.041 -0.4283  0.4635 -0.0221
  608MOL0     C82009   5.015   4.808   0.928 -0.7433 -0.0036 -0.0891
  608MOL0     C82010   5.322   5.233   1.658  0.1915 -0.0168 -0.1181
  608MOL0     C82011   5.328   5.332   1.761 -0.0100  0.3126  0.8756
  608MOL0     C82012   5.392   5.288   1.886  0.5266  0.2076 -0.2496
  608MOL0     H82013   5.252   5.830   1.934 -0.9935 -0.4007 -0.7672
  608MOL0     H82014   5.249   5.901   2.174  0.5586 -0.8617  1.4663
  608MOL0     H82015   5.222   5.968   2.380  0.1798  1.6968  4.2034
  608MOL0     H82016   5.078   6.062   2.322 -2.0097 -0.6691 -0.9049
  608MOL0     H82017   4.992   5.984   2.563  1.7043 -1.5898  1.7174
  608MOL0     H82018   5.102   6.126   2.543 -0.8131  1.0479 -2.0384
  608MOL0     H82019   5.275   6.007   2.614 -1.5886  0.7377 -1.1139
  608MOL0     H82020   5.197   5.841   2.593  2.8653 -0.2716 -1.9542
  608MOL0     H82021   5.144   6.065   2.795  3.3572  1.0642 -1.9829
  608MOL0     H82022   5.062   5.899   2.796  2.3865 -1.9308  5.7642
  608MOL0     H82023   5.360   5.922   2.832  0.4358 -0.1446  3.0566
  608MOL0     H82024   5.238   5.912   2.959  1.0698  1.9667 -0.1753
  608MOL0     H82025   5.155   5.700   2.851 -2.0319  3.0180 -0.3333
  608MOL0     H82026   5.274   5.703   2.731 -2.9130 -1.4557  0.6099
  608MOL0     H82027   5.309   5.694   3.028 -0.6526 -0.7662 -0.5777
  608MOL0     H82028   5.452   5.686   2.929 -0.0361  1.7933  3.5392
  608MOL0     H82029   5.231   5.479   2.874  1.0954 -1.5549  1.9751
  608MOL0     H82030   5.402   5.475   2.837  0.7725 -0.0487 -0.1606
  608MOL0     H82031   5.567   5.399   3.047  0.3218  2.1116  1.5431
  608MOL0     H82032   5.515   5.271   3.401 -0.1731  0.5318  0.1932
  608MOL0     H82033   5.469   5.133   3.285  1.0033 -0.4306 -2.9200
  608MOL0     H82034   5.710   5.143   3.323  4.2206  2.3011  0.1645
  608MOL0     H82035   5.663   5.198   3.155 -3.1301  0.5044 -0.2360
  608MOL0     H82036   5.748   5.352   3.390  2.3693 -0.1231  0.3984
  608MOL0     H82037   5.715   5.440   3.228 -0.3651 -0.7542  1.5871
  608MOL0     H82038   5.897   5.335   3.132 -2.2414 -0.6636 -0.6935
  608MOL0     H82039   5.916   5.219   3.264 -0.3010 -0.0112  1.9456
  608MOL0     H82040   6.129   5.367   3.093  0.2457  1.3662 -0.4016
  608MOL0     H82041   6.379   5.372   3.101  0.9224  0.4478  1.4950
  608MOL0     H82042   6.725   5.509   3.082 -1.0674 -1.4360  1.0328
  608MOL0     H82043   6.967   5.541   3.060  2.1686 -0.3213  1.4262
  608MOL0     H82044   7.232   5.548   3.092  3.1505  0.5652  0.6957
  608MOL0     H82045   7.122   5.619   3.222  1.7588  3.6929 -0.8176
  608MOL0     H82046   7.324   5.682   3.333 -0.2239  0.2550 -0.3165
  608MOL0     H82047   7.346   5.516   3.351 -0.7643  0.1295 -0.4757
  608MOL0     H82048   7.467   5.517   3.118 -1.2774 -2.3020  2.1077
  608MOL0     H82049   7.455   5.696   3.136 -5.5890  2.0506  3.3000
  608MOL0     H82050   7.591   5.505   3.334  2.5990 -0.8639 -1.8229
  608MOL0     H82051   7.564   5.681   3.360 -1.4442  0.1723 -0.5388
  608MOL0     H82052   7.774   5.678   3.300 -1.0224  2.2317 -0.5990
  608MOL0     H82053   7.683   5.749   3.177 -0.0409 -0.0004  1.3006
  608MOL0     H82054   7.795   5.454   3.173  3.5035 -0.4177 -2.8828
  608MOL0     H82055   7.712   5.531   3.043 -0.1084 -0.3891 -0.9227
  608MOL0     H82056   7.936   5.509   3.003 -0.1012 -1.6481  1.9562
  608MOL0     H82057   7.987   5.608   3.126  0.8792 -0.6259 -0.3511
  608MOL0     H82058   7.854   5.811   3.020  2.1449  1.6248 -0.9169
  608MOL0     H82059   7.988   5.753   2.927  0.2881  2.4391  0.2325
  608MOL0     H82060   7.020   5.214   3.342  0.6063 -2.4361 -2.5468
  608MOL0     H82061   6.777   5.173   3.346  1.1851 -1.3211  0.6898
  608MOL0     H82062   6.343   5.313   3.533 -1.2114 -3.1897 -0.2408
  608MOL0     H82063   6.109   5.377   3.521  0.6503  1.0414  1.3203
  608MOL0     H82064   4.880   5.699   2.235 -1.3078  0.3313 -2.0180
  608MOL0     H82065   4.945   5.565   2.009 -0.3712  1.5926 -1.3209
  608MOL0     H82066   5.089   5.543   1.627 -0.0568  0.7643 -0.1443
  608MOL0     H82067   5.079   5.357   1.457 -3.1481 -3.5455  2.1626
  608MOL0     H82068   5.258   4.986   1.568 -2.0134  0.8271  1.0795
  608MOL0     H82069   5.354   5.002   1.430  0.0373 -0.0946 -0.0322
  608MOL0     H82070   5.056   4.971   1.422  0.2686 -0.7170  2.2334
  608MOL0     H82071   5.165   4.832   1.405  0.6451 -0.2384 -3.5833
  608MOL0     H82072   5.241   4.947   1.187 -0.1963 -1.0514 -0.3484
  608MOL0     H82073   5.089   5.036   1.207  2.1196  0.7617 -1.7467
  608MOL0     H82074   5.121   4.729   1.215 -0.2162  0.6591  1.7180
  608MOL0     H82075   4.971   4.827   1.231 -0.3123 -0.3061 -0.6550
  608MOL0     H82076   4.977   4.816   0.828 -0.7760  2.0876  0.0310
  608MOL0     H82077   5.385   5.144   1.659 -1.7297 -1.4447 -0.7389
  608MOL0     H82078   5.451   5.197   1.872 -0.5812 -1.3899  4.1086
  608MOL0     H82079   5.454   5.355   1.946  0.0442 -0.5186  1.0744
  608MOL0     H82080   5.307   5.258   1.947  1.3936  0.7091  1.2433
  609MOL0     O82081   8.310  11.296   8.778  0.1608 -0.1403 -0.1494
  609MOL0     C82082   8.345  11.305   8.658  1.3211 -0.1978  0.6083
  609MOL0     O82083   8.447  11.378   8.611 -0.3705  0.7692 -0.1514
  609MOL0     C82084   8.552  11.385   8.700 -1.1797  0.1441  0.6545
  609MOL0     C82085   8.646  11.276   8.719  0.1386 -0.4200 -0.2896
  609MOL0     C82086   8.749  11.289   8.820 -0.3482 -0.2644 -0.2312
  609MOL0     C82087   8.757  11.411   8.895 -0.5468  0.3799 -0.5507
  609MOL0     O82088   8.848  11.431   8.995  0.3380  0.1158  0.1921
  609MOL0     C82089   8.971  11.452   8.927 -0.2595  0.3748  0.1767
  609MOL0     C82090   9.094  11.445   9.026  0.1707 -0.4898  1.2012
  609MOL0     C82091   9.114  11.579   9.101 -0.2007  0.2008 -0.3274
  609MOL0     C82092   9.247  11.590   9.169  0.2107 -0.1920 -0.8485
  609MOL0     C82093   9.283  11.496   9.287  0.2971  0.3925 -0.0463
  609MOL0     C82094   9.423  11.501   9.337 -0.3319 -0.7766 -0.0192
  609MOL0     C82095   9.440  11.411   9.463  0.3994 -0.4865 -0.3720
  609MOL0     C82096   9.576  11.441   9.519  0.2368 -0.1199 -0.3401
  609MOL0     N82097   9.684  11.416   9.420 -0.7295 -0.1101 -0.0713
  609MOL0     C82098   9.767  11.514   9.371  0.6808 -0.6437 -0.5282
  609MOL0     C82099   9.871  11.446   9.317 -0.1007  0.5547  0.5207
  609MOL0     C82100   9.979  11.518   9.257 -0.0055 -0.0095 -0.2761
  609MOL0     C82101  10.011  11.502   9.105  0.1897  0.3870 -0.9193
  609MOL0     C82102   9.889  11.536   9.014 -0.1623 -0.1454 -0.7031
  609MOL0     C82103   9.839  11.676   9.033  0.3135 -0.2101 -0.2432
  609MOL0     O82104   9.948  11.774   9.051  0.0459 -0.1742 -0.1702
  609MOL0     C82105   9.928  11.906   9.051 -1.1230 -1.0001 -0.0875
  609MOL0     C82106   9.806  11.955   9.012  0.2210 -0.8677 -0.1151
  609MOL0     C82107   9.784  12.096   9.003 -0.0993  0.6856 -0.4241
  609MOL0     C82108   9.888  12.182   9.041 -0.2584  0.4168 -0.4457
  609MOL0     C82109   9.863  12.324   9.050 -0.1793 -0.0763  0.5309
  609MOL0     O82110   9.961  12.404   9.093 -0.0305  1.1771 -0.8767
  609MOL0     C82111   9.955  12.538   9.060 -0.1751  0.2485 -0.7794
  609MOL0     C82112  10.035  12.588   8.958  0.5545 -0.2038 -0.9069
  609MOL0     C82113  10.017  12.722   8.916 -0.5055 -0.3348  0.4425
  609MOL0     C82114   9.915  12.800   8.962  0.0859 -0.9352 -0.0352
  609MOL0     O82115   9.903  12.928   8.906 -0.4550 -0.4583  0.5264
  609MOL0     C82116   9.831  13.030   8.980 -1.1284 -0.2929 -0.3893
  609MOL0     C82117   9.873  13.173   8.924  0.9613  0.1129  0.0443
  609MOL0     C82118  10.024  13.205   8.924 -0.2955 -0.2475  0.4757
  609MOL0     C82119  10.059  13.329   8.840 -0.4210 -0.2673  0.3232
  609MOL0     C82120  10.211  13.362   8.831 -0.5218 -0.2021 -0.3803
  609MOL0     C82121  10.258  13.436   8.959 -1.2509 -0.3666 -0.2777
  609MOL0     C82122  10.185  13.572   8.982 -0.3220 -0.0839 -0.3038
  609MOL0     C82123  10.240  13.660   9.101 -0.1798 -0.5994  0.8846
  609MOL0    Cl82124  10.165  13.816   9.058  0.1011  0.4094 -0.1201
  609MOL0     C82125   9.830  12.744   9.054 -0.0112  0.1670 -0.5407
  609MOL0     C82126   9.853  12.622   9.109  0.1466 -0.0250  0.2545
  609MOL0     O82127   9.767  12.370   8.993 -0.4900  0.9577  0.1932
  609MOL0     C82128  10.017  12.119   9.070  0.0009 -0.8384 -0.0224
  609MOL0     C82129  10.039  11.987   9.073  0.1532  0.7491 -0.5516
  609MOL0     N82130   9.838  11.314   9.312  0.0962  0.3985 -0.1393
  609MOL0     N82131   9.721  11.294   9.376  0.2823  0.4671  0.0060
  609MOL0     C82132   8.671  11.516   8.872  0.4340 -0.0651  0.0487
  609MOL0     C82133   8.569  11.499   8.778 -0.5277 -0.5807  0.7717
  609MOL0     C82134   8.233  11.277   8.558 -0.9160  0.7073 -0.2309
  609MOL0     C82135   8.099  11.316   8.584  0.2723 -0.2280  0.3391
  609MOL0     C82136   7.992  11.318   8.498 -0.6549  0.7893  0.0872
  609MOL0     C82137   8.006  11.251   8.369  0.2930 -0.0655 -0.2566
  609MOL0     O82138   7.892  11.242   8.285 -0.1679 -0.2408  0.3806
  609MOL0     C82139   7.877  11.109   8.232 -0.4212 -0.4740  0.9808
  609MOL0     C82140   7.855  11.130   8.084  0.1338  0.6294 -0.1276
  609MOL0     C82141   7.983  11.166   8.008 -0.1564 -0.4378  0.3457
  609MOL0     C82142   7.986  11.178   7.856 -0.1721 -0.1063  0.0404
  609MOL0     C82143   8.115  11.229   7.811  0.7794 -1.2593 -0.6168
  609MOL0     C82144   8.226  11.272   7.776 -0.5492 -0.9700 -0.3225
  609MOL0     C82145   8.138  11.198   8.343 -0.0425 -1.5475 -0.1773
  609MOL0     C82146   8.254  11.223   8.430 -0.5232  0.3610  1.0025
  609MOL0     C82147   8.393  11.160   8.393 -0.4852 -0.5814 -0.6046
  609MOL0     H82148   8.645  11.183   8.663 -1.4630 -0.7196  0.2018
  609MOL0     H82149   8.802  11.197   8.843  2.2295  0.4911 -2.5908
  609MOL0     H82150   9.006  11.370   8.863 -1.1153  1.8586 -2.3074
  609MOL0     H82151   8.974  11.544   8.869  0.7102  0.1449 -0.1649
  609MOL0     H82152   9.188  11.420   8.977  0.3227  1.7278  0.2457
  609MOL0     H82153   9.086  11.367   9.103 -0.7308  0.0907  1.7289
  609MOL0     H82154   9.029  11.587   9.169 -0.6564  0.1484 -0.8800
  609MOL0     H82155   9.106  11.670   9.041  4.8837  2.7353  2.2096
  609MOL0     H82156   9.322  11.576   9.091 -1.8231  0.3131 -3.0067
  609MOL0     H82157   9.246  11.692   9.208 -0.4707 -0.1569 -0.9491
  609MOL0     H82158   9.218  11.529   9.369  1.5635  1.7032  0.4764
  609MOL0     H82159   9.259  11.391   9.266  3.1684 -0.4980  0.6322
  609MOL0     H82160   9.490  11.484   9.252  2.2718 -0.6057  1.8924
  609MOL0     H82161   9.449  11.606   9.348  2.1307 -1.4438  1.0770
  609MOL0     H82162   9.417  11.306   9.442 -2.3896  0.5837 -3.7755
  609MOL0     H82163   9.372  11.442   9.543  0.4007  0.3571 -0.6815
  609MOL0     H82164   9.582  11.539   9.566 -0.9092 -0.7005  1.1013
  609MOL0     H82165   9.596  11.382   9.609 -0.3600  0.2401  0.0360
  609MOL0     H82166   9.754  11.620   9.356  4.1991 -0.2569 -1.7818
  609MOL0     H82167   9.966  11.626   9.260  1.4582  0.2184 -1.0768
  609MOL0     H82168  10.072  11.490   9.308  1.3054 -0.3120 -2.6399
  609MOL0     H82169  10.092  11.573   9.081 -0.8407  1.8726 -0.1731
  609MOL0     H82170  10.053  11.404   9.083  3.0796  0.3638  3.4379
  609MOL0     H82171   9.810  11.462   9.028 -0.2887  0.1453  0.1808
  609MOL0     H82172   9.934  11.532   8.914  0.5476  2.4295 -0.5485
  609MOL0     H82173   9.771  11.679   9.118  1.2281  4.3097  0.5808
  609MOL0     H82174   9.767  11.704   8.955 -2.4571  3.7050  3.2661
  609MOL0     H82175   9.714  11.900   9.003 -0.0758 -0.0418 -3.0298
  609MOL0     H82176   9.686  12.137   8.983 -0.7519 -0.2367  0.7783
  609MOL0     H82177  10.122  12.533   8.921  0.8217 -1.5707  1.5529
  609MOL0     H82178  10.084  12.755   8.837 -0.3318 -3.2630 -0.7629
  609MOL0     H82179   9.722  13.019   8.973 -1.3858  2.2754 -1.4104
  609MOL0     H82180   9.869  13.029   9.082 -2.4552  0.4760  0.1360
  609MOL0     H82181   9.838  13.168   8.821 -3.1811  1.4927  1.1647
  609MOL0     H82182   9.817  13.252   8.975  2.8361  0.4522  1.6840
  609MOL0     H82183  10.064  13.229   9.023  0.2015  1.9540 -0.1997
  609MOL0     H82184  10.072  13.123   8.870  0.5251  2.1927 -2.8222
  609MOL0     H82185  10.005  13.413   8.884  0.0357  2.3624 -3.5782
  609MOL0     H82186  10.010  13.322   8.743 -1.4992  1.4433  0.7023
  609MOL0     H82187  10.226  13.423   8.741  1.3462 -1.2596 -0.8385
  609MOL0     H82188  10.270  13.275   8.800 -0.5390 -1.6039  3.1393
  609MOL0     H82189  10.228  13.369   9.041  2.2978 -1.4144  0.3395
  609MOL0     H82190  10.367  13.440   8.964 -0.9583 -3.0880 -2.0010
  609MOL0     H82191  10.079  13.553   8.997  0.1387 -3.3157 -0.3569
  609MOL0     H82192  10.197  13.631   8.891  0.3104  0.0676 -0.1298
  609MOL0     H82193  10.194  13.626   9.194  0.8056  0.2782  1.7243
  609MOL0     H82194  10.349  13.657   9.107 -0.1294 -1.1014 -0.0775
  609MOL0     H82195   9.744  12.801   9.088 -0.9544 -1.3163 -0.3724
  609MOL0     H82196   9.785  12.576   9.180  2.9451 -3.9267  0.7111
  609MOL0     H82197  10.103  12.173   9.107 -0.5724 -0.0858  0.2396
  609MOL0     H82198  10.137  11.946   9.094  1.5692  3.3393 -1.6120
  609MOL0     H82199   8.690  11.613   8.915  0.8152  0.0658 -0.4048
  609MOL0     H82200   8.507  11.587   8.764 -0.4949 -0.2260  2.6307
  609MOL0     H82201   8.083  11.365   8.680  3.1278 -0.5642  1.0763
  609MOL0     H82202   7.899  11.366   8.527 -2.9134 -1.9214 -2.0819
  609MOL0     H82203   7.796  11.068   8.294 -0.8789  1.7855  1.9668
  609MOL0     H82204   7.964  11.046   8.254 -1.2054 -1.4833  1.2822
  609MOL0     H82205   7.779  11.205   8.063 -1.5509 -0.2424  2.3955
  609MOL0     H82206   7.811  11.038   8.044  0.2665  1.2839 -1.8536
  609MOL0     H82207   8.061  11.095   8.033  1.8884  0.8158 -2.0176
  609MOL0     H82208   8.021  11.260   8.050 -1.2849  0.5265 -0.6895
  609MOL0     H82209   7.977  11.082   7.804 -0.0069  0.0226 -0.2280
  609MOL0     H82210   7.909  11.247   7.822  1.2099  0.3184 -2.4212
  609MOL0     H82211   8.324  11.311   7.757 -0.0326 -1.1592  1.7155
  609MOL0     H82212   8.162  11.137   8.257  1.2325  1.2165 -1.9168
  609MOL0     H82213   8.404  11.130   8.289 -1.1794  0.8210 -1.1114
  609MOL0     H82214   8.475  11.231   8.406 -2.4535  1.3225  3.2706
  609MOL0     H82215   8.397  11.072   8.458 -1.0587 -1.0661 -1.2157
  610MOL0     O82216   2.198   7.635   7.041 -0.2491 -0.0315  0.3192
  610MOL0     C82217   2.154   7.551   7.123 -0.2679 -0.4973  0.3087
  610MOL0     O82218   2.239   7.470   7.207  0.1372 -0.1883 -0.5152
  610MOL0     C82219   2.367   7.499   7.181 -0.4651 -0.1856 -0.3441
  610MOL0     C82220   2.433   7.599   7.260 -0.0066 -0.3573 -0.1394
  610MOL0     C82221   2.572   7.621   7.230 -0.0710  0.3575  0.2453
  610MOL0     C82222   2.636   7.544   7.130 -0.0529  0.9319 -0.9292
  610MOL0     O82223   2.769   7.558   7.096  0.0043  0.1749  0.5007
  610MOL0     C82224   2.829   7.683   7.119  0.2280 -0.2449  0.4431
  610MOL0     C82225   2.959   7.706   7.041 -0.0972  0.2799  0.2439
  610MOL0     C82226   3.059   7.592   7.062 -0.3112 -0.6179 -0.9188
  610MOL0     C82227   3.186   7.630   6.984 -0.1001 -0.2111 -0.4894
  610MOL0     C82228   3.314   7.555   7.019 -0.6831  0.1021  0.6713
  610MOL0     C82229   3.406   7.509   6.899  0.0170  0.0038  0.1591
  610MOL0     C82230   3.458   7.619   6.805 -0.2100  0.6070  0.5928
  610MOL0     C82231   3.550   7.732   6.861  0.0626  0.4021 -0.4910
  610MOL0     N82232   3.680   7.666   6.910 -0.3800 -0.1684  0.4130
  610MOL0     C82233   3.702   7.611   7.034 -0.4427 -0.6654  0.5221
  610MOL0     C82234   3.840   7.600   7.049 -0.8924  0.6990  0.3662
  610MOL0     C82235   3.909   7.555   7.174  0.1307 -0.4010 -0.0731
  610MOL0     C82236   4.060   7.523   7.143 -0.4993 -0.5107  0.1832
  610MOL0     C82237   4.155   7.481   7.268 -0.1467 -0.4098  0.5987
  610MOL0     C82238   4.305   7.464   7.232  0.9161 -0.6287  0.8157
  610MOL0     O82239   4.367   7.573   7.300 -0.1297 -0.1706  0.4934
  610MOL0     C82240   4.480   7.605   7.236  0.3148 -0.1307  0.0109
  610MOL0     C82241   4.472   7.689   7.130 -0.7202  1.0109  0.5845
  610MOL0     C82242   4.594   7.727   7.061  0.2472  0.2172 -0.4390
  610MOL0     C82243   4.716   7.677   7.101  0.1254 -0.7128 -0.1084
  610MOL0     C82244   4.841   7.729   7.025  0.2447 -0.0050  0.2795
  610MOL0     O82245   4.815   7.835   6.941 -1.0652  0.5423 -0.2685
  610MOL0     C82246   4.915   7.852   6.849 -0.1670 -0.9392  0.1329
  610MOL0     C82247   4.983   7.970   6.858 -0.6541 -0.1032 -0.3365
  610MOL0     C82248   5.093   7.988   6.777 -0.8888 -0.1217  0.6350
  610MOL0     C82249   5.125   7.897   6.679  1.0710 -0.3125 -0.0999
  610MOL0     O82250   5.231   7.939   6.600  0.7047  0.2475  0.0154
  610MOL0     C82251   5.256   7.871   6.480  0.2338 -0.3191 -0.0849
  610MOL0     C82252   5.367   7.964   6.411 -0.0263 -0.4041 -0.0295
  610MOL0     C82253   5.300   8.092   6.361  0.7681  0.3795  1.1278
  610MOL0     C82254   5.402   8.200   6.325  0.2498 -0.0708  0.4095
  610MOL0     C82255   5.324   8.318   6.265  0.0356  1.5440  0.5311
  610MOL0     C82256   5.423   8.437   6.242 -0.2012 -0.5015  0.2632
  610MOL0     C82257   5.363   8.538   6.156 -0.2059 -0.0728 -0.7614
  610MOL0     C82258   5.287   8.642   6.232 -0.0614  0.3788  0.1065
  610MOL0    Cl82259   5.148   8.680   6.121  0.5777 -0.5040  0.2411
  610MOL0     C82260   5.066   7.780   6.680  0.2784  0.6069  0.5189
  610MOL0     C82261   4.954   7.760   6.760  0.1586  0.2815  0.2131
  610MOL0     O82262   4.949   7.669   7.034  0.8851  0.3034 -0.9704
  610MOL0     C82263   4.730   7.590   7.213 -0.3554 -0.3453 -0.4337
  610MOL0     C82264   4.608   7.552   7.276  0.2635  0.3153  0.1192
  610MOL0     N82265   3.890   7.643   6.928 -0.0909  0.3245  0.1806
  610MOL0     N82266   3.801   7.683   6.855  0.3465 -0.3935  0.0168
  610MOL0     C82267   2.565   7.447   7.060 -0.4621 -0.3952 -0.4022
  610MOL0     C82268   2.433   7.419   7.092 -0.6903 -0.6110 -0.2715
  610MOL0     C82269   2.002   7.553   7.139 -0.1776 -0.3613 -1.5480
  610MOL0     C82270   1.947   7.453   7.222  0.0203  0.1737  0.3458
  610MOL0     C82271   1.811   7.445   7.232 -0.2996  0.2747  0.1853
  610MOL0     C82272   1.723   7.536   7.174  0.1812  0.0451  0.8049
  610MOL0     O82273   1.583   7.532   7.184 -0.1219  0.4577 -0.6396
  610MOL0     C82274   1.524   7.408   7.236  0.4689  0.4882 -0.0614
  610MOL0     C82275   1.378   7.435   7.252 -0.3607  0.1162  0.8084
  610MOL0     C82276   1.323   7.527   7.135 -0.2188  0.2440 -0.6483
  610MOL0     C82277   1.168   7.498   7.118  0.3539 -0.9063  0.1670
  610MOL0     C82278   1.091   7.548   7.236 -0.2672 -1.1341 -0.4893
  610MOL0     C82279   1.043   7.603   7.334  0.7948  0.9131  0.4188
  610MOL0     C82280   1.773   7.636   7.093 -0.1436 -0.1751  0.1898
  610MOL0     C82281   1.914   7.656   7.079 -0.0321  0.5178 -0.7544
  610MOL0     C82282   1.959   7.775   6.993  0.5937  0.6298 -0.0780
  610MOL0     H82283   2.371   7.659   7.326 -0.1681  0.6344 -1.1614
  610MOL0     H82284   2.622   7.705   7.276 -0.8171 -0.0084  1.7938
  610MOL0     H82285   2.764   7.761   7.078 -0.1826 -1.3781 -1.1295
  610MOL0     H82286   2.831   7.696   7.228  1.9249 -1.0735  0.5405
  610MOL0     H82287   3.007   7.797   7.079  1.3119 -0.5412  0.4876
  610MOL0     H82288   2.938   7.723   6.935 -2.1087  1.2762  0.7436
  610MOL0     H82289   3.024   7.492   7.033 -1.7772 -0.9320  1.6136
  610MOL0     H82290   3.083   7.588   7.169  1.5030  0.9987 -1.2055
  610MOL0     H82291   3.152   7.622   6.880  2.1210  0.5180 -1.3247
  610MOL0     H82292   3.204   7.737   6.998 -2.2584  0.1287  0.1201
  610MOL0     H82293   3.366   7.610   7.097 -0.0487 -1.0933  1.1158
  610MOL0     H82294   3.284   7.458   7.060  2.5100 -0.7490  1.3476
  610MOL0     H82295   3.491   7.455   6.943  0.8604  0.9722 -0.2298
  610MOL0     H82296   3.354   7.442   6.830  1.0932 -1.6061  0.8456
  610MOL0     H82297   3.372   7.663   6.753 -1.6422 -2.8317 -0.1833
  610MOL0     H82298   3.522   7.580   6.725  0.3752  0.0816  1.3117
  610MOL0     H82299   3.573   7.813   6.792 -0.4381  1.2169  0.2743
  610MOL0     H82300   3.499   7.789   6.939  0.5220  1.3390 -0.8703
  610MOL0     H82301   3.621   7.594   7.104 -0.7206  1.9850  0.9454
  610MOL0     H82302   3.901   7.643   7.238  3.5078 -0.5489  0.7898
  610MOL0     H82303   3.859   7.479   7.235 -0.5994  0.5172  0.4891
  610MOL0     H82304   4.055   7.442   7.069 -0.5387 -1.5840  1.3275
  610MOL0     H82305   4.102   7.614   7.098 -1.7049 -0.0898 -0.1128
  610MOL0     H82306   4.120   7.389   7.315 -2.8747  0.0482 -0.3552
  610MOL0     H82307   4.145   7.566   7.337  1.2052 -0.2249  0.5849
  610MOL0     H82308   4.298   7.483   7.124 -2.6392  2.4596  1.4029
  610MOL0     H82309   4.333   7.363   7.264 -2.2200 -0.4806  4.8603
  610MOL0     H82310   4.376   7.730   7.100 -0.3127  1.2625 -0.4069
  610MOL0     H82311   4.578   7.793   6.976  0.6230 -3.9045 -4.0656
  610MOL0     H82312   4.944   8.045   6.927 -2.6442  0.6719 -2.1933
  610MOL0     H82313   5.162   8.071   6.791 -0.4333 -0.1911 -0.9890
  610MOL0     H82314   5.300   7.771   6.494  2.2476  0.4432 -0.5485
  610MOL0     H82315   5.171   7.865   6.411  0.0661 -1.4100  0.1995
  610MOL0     H82316   5.454   7.992   6.471 -2.0505  2.7981  1.7196
  610MOL0     H82317   5.401   7.905   6.326  1.7471  1.2915 -0.5763
  610MOL0     H82318   5.236   8.064   6.277  1.2296  1.1105  0.5224
  610MOL0     H82319   5.232   8.134   6.436 -0.7824  0.2398 -0.1316
  610MOL0     H82320   5.472   8.160   6.251 -2.2351 -0.2727 -1.9975
  610MOL0     H82321   5.449   8.231   6.418  2.9935 -1.2317 -0.4791
  610MOL0     H82322   5.234   8.342   6.322 -2.1738 -1.3589 -1.4313
  610MOL0     H82323   5.281   8.288   6.169  0.2470  0.2533  0.8197
  610MOL0     H82324   5.463   8.467   6.339  3.4918  0.5800 -1.3974
  610MOL0     H82325   5.499   8.394   6.176 -1.0855 -0.8593 -0.5589
  610MOL0     H82326   5.290   8.504   6.082 -0.5771  1.7158 -1.2832
  610MOL0     H82327   5.446   8.588   6.105 -1.6337  0.0698 -3.0868
  610MOL0     H82328   5.244   8.594   6.320 -1.7584  1.3340 -0.1674
  610MOL0     H82329   5.340   8.731   6.268  1.9038 -0.8543  0.4306
  610MOL0     H82330   5.101   7.702   6.613 -1.4685  2.2719 -2.5685
  610MOL0     H82331   4.889   7.674   6.744 -4.7634  3.4791  0.8384
  610MOL0     H82332   4.830   7.561   7.244  0.4572  0.8776 -1.8093
  610MOL0     H82333   4.615   7.473   7.351  1.8619 -1.1689 -1.4990
  610MOL0     H82334   2.621   7.387   6.990  0.6699 -0.4172  0.4876
  610MOL0     H82335   2.389   7.334   7.042  0.5560  0.2823 -3.0934
  610MOL0     H82336   2.018   7.387   7.271  0.7337  0.7499  0.1044
  610MOL0     H82337   1.775   7.357   7.283  2.8294 -1.8328 -0.9234
  610MOL0     H82338   1.565   7.374   7.332 -3.5349  0.6017  1.9296
  610MOL0     H82339   1.544   7.330   7.162 -1.3062 -0.0201 -0.0569
  610MOL0     H82340   1.359   7.484   7.347  1.0478  0.5551  0.8800
  610MOL0     H82341   1.312   7.347   7.256 -3.5899  2.3170  0.2026
  610MOL0     H82342   1.371   7.506   7.039 -0.8282 -2.4136 -0.4446
  610MOL0     H82343   1.340   7.632   7.162 -1.9569  0.3502  0.1998
  610MOL0     H82344   1.120   7.561   7.042  0.4925 -1.0646 -0.0534
  610MOL0     H82345   1.152   7.397   7.080  1.2909 -0.6330 -1.0396
  610MOL0     H82346   1.005   7.663   7.414 -0.1284  3.3300 -1.6914
  610MOL0     H82347   1.699   7.690   7.034  1.2201  1.0460 -0.4606
  610MOL0     H82348   1.972   7.747   6.887 -2.6079  2.4026 -1.0666
  610MOL0     H82349   1.893   7.862   6.996  0.6637  0.6766  0.1256
  610MOL0     H82350   2.050   7.814   7.038 -0.7292  0.8996  2.5433
  611MOL0     O82351   3.637   3.262   8.307  0.0966 -0.0122  0.0404
  611MOL0     C82352   3.616   3.162   8.244  0.8152  0.4737 -0.1316
  611MOL0     O82353   3.685   3.040   8.258 -0.8090 -0.2281  1.1930
  611MOL0     C82354   3.794   3.049   8.333 -1.0325  0.3010  0.8826
  611MOL0     C82355   3.917   3.095   8.284 -0.3866 -0.4513  0.1958
  611MOL0     C82356   4.025   3.120   8.374  0.2956  0.0892  0.0276
  611MOL0     C82357   4.014   3.096   8.511  0.4577 -0.2151  0.2579
  611MOL0     O82358   4.107   3.142   8.599 -0.7363  0.1080  0.1599
  611MOL0     C82359   4.142   3.279   8.578  0.5456  0.2672  0.6020
  611MOL0     C82360   4.212   3.335   8.688 -0.7709 -0.8649  1.0986
  611MOL0     C82361   4.252   3.480   8.686 -0.2386 -0.0820  0.4461
  611MOL0     C82362   4.309   3.517   8.822  0.0606 -0.6793 -0.4207
  611MOL0     C82363   4.347   3.662   8.838  0.2068 -0.3114  0.5595
  611MOL0     C82364   4.449   3.675   8.950  0.4398 -0.5261 -0.1151
  611MOL0     C82365   4.386   3.657   9.096 -0.2284 -0.2977  0.4686
  611MOL0     C82366   4.502   3.668   9.202 -1.1186  0.5016 -1.4906
  611MOL0     N82367   4.565   3.800   9.220 -0.1677 -0.0507 -1.1184
  611MOL0     C82368   4.538   3.899   9.311  0.2842  0.5945 -0.3011
  611MOL0     C82369   4.622   4.001   9.290  0.6266  0.3732  1.1079
  611MOL0     C82370   4.630   4.128   9.357 -0.2298 -0.1247 -0.6014
  611MOL0     C82371   4.766   4.173   9.411  0.0586 -1.0868  0.6808
  611MOL0     C82372   4.756   4.296   9.505  0.9563 -0.0282 -1.0690
  611MOL0     C82373   4.671   4.275   9.631  0.2458  0.0012  0.3015
  611MOL0     O82374   4.715   4.158   9.703  0.5104 -1.1332  0.1243
  611MOL0     C82375   4.803   4.160   9.815 -1.1558  0.2141 -0.0133
  611MOL0     C82376   4.840   4.036   9.863 -0.2399  0.4430 -0.4738
  611MOL0     C82377   4.928   4.023   9.975  0.3553  0.3648 -0.4476
  611MOL0     C82378   4.984   4.142  10.035  0.7343  0.2247  0.3729
  611MOL0     C82379   5.079   4.129  10.156 -0.0022  0.1857 -0.1020
  611MOL0     O82380   5.119   4.240  10.225  0.6244 -0.2392  0.2904
  611MOL0     C82381   5.232   4.221  10.298 -0.1714 -0.3819 -0.1026
  611MOL0     C82382   5.238   4.144  10.414  0.5423  0.2028 -0.8085
  611MOL0     C82383   5.348   4.140  10.500  0.6072 -0.0872  0.0800
  611MOL0     C82384   5.464   4.216  10.466 -0.4214 -0.3819  0.1135
  611MOL0     O82385   5.582   4.224  10.533  0.4331 -0.1341 -0.8871
  611MOL0     C82386   5.596   4.121  10.637  0.1850 -0.7385 -0.0572
  611MOL0     C82387   5.727   4.146  10.708 -0.2976 -0.3535 -0.3615
  611MOL0     C82388   5.759   4.052  10.826  0.0083  0.2789 -0.2155
  611MOL0     C82389   5.685   4.082  10.958  0.4518 -0.5560 -0.7984
  611MOL0     C82390   5.716   3.992  11.072 -0.9700 -0.6017 -0.3441
  611MOL0     C82391   5.655   4.043  11.213 -0.6467  0.2258 -0.1709
  611MOL0     C82392   5.747   4.028  11.340  0.2791  0.1818  0.0074
  611MOL0     C82393   5.691   4.095  11.470  0.3031 -0.2211 -0.0543
  611MOL0    Cl82394   5.644   4.267  11.454 -0.1408  0.2382  0.1063
  611MOL0     C82395   5.459   4.279  10.337 -0.7056  0.4148 -0.4145
  611MOL0     C82396   5.343   4.292  10.268  0.6110  0.0036  0.3140
  611MOL0     O82397   5.113   4.013  10.184  0.5201 -1.1092 -0.2898
  611MOL0     C82398   4.951   4.264   9.979 -0.7902  0.3402 -0.0152
  611MOL0     C82399   4.849   4.275   9.877  0.1970 -0.5550 -0.0257
  611MOL0     N82400   4.696   3.964   9.181 -0.0014  0.5222 -0.3620
  611MOL0     N82401   4.665   3.845   9.135  0.1834 -0.2836  0.0615
  611MOL0     C82402   3.888   3.055   8.559  0.1270 -0.6534  0.4151
  611MOL0     C82403   3.781   3.035   8.471 -0.1627  0.5234 -0.1728
  611MOL0     C82404   3.505   3.167   8.155  1.0871  0.8485  0.2920
  611MOL0     C82405   3.422   3.283   8.165  0.2855  0.8011  0.0852
  611MOL0     C82406   3.327   3.312   8.067 -0.3815 -0.2532 -0.7627
  611MOL0     C82407   3.306   3.224   7.958  0.9088 -0.8113 -0.5339
  611MOL0     O82408   3.217   3.273   7.865 -0.2232  0.3339 -0.4220
  611MOL0     C82409   3.170   3.188   7.763  0.5510  0.7397  0.6540
  611MOL0     C82410   3.049   3.249   7.692 -0.9620  0.5433 -0.3209
  611MOL0     C82411   3.067   3.381   7.618  0.6092 -0.1247 -0.7580
  611MOL0     C82412   2.969   3.403   7.504 -0.0572 -0.4763 -0.2128
  611MOL0     C82413   2.830   3.386   7.535  0.6611 -0.0783 -0.2773
  611MOL0     C82414   2.706   3.391   7.548 -0.4572  0.4417 -0.4374
  611MOL0     C82415   3.371   3.103   7.960 -0.1625  0.1385  0.0773
  611MOL0     C82416   3.464   3.071   8.056 -0.9545 -0.2226 -0.4437
  611MOL0     C82417   3.539   2.940   8.038 -0.1128 -0.3833 -0.0180
  611MOL0     H82418   3.934   3.101   8.177  1.7398 -1.4288  0.4151
  611MOL0     H82419   4.112   3.158   8.322  0.5993  1.9364  1.7628
  611MOL0     H82420   4.210   3.274   8.493 -2.4616  2.5803 -2.1881
  611MOL0     H82421   4.055   3.333   8.540 -1.5063 -1.4644  2.5000
  611MOL0     H82422   4.303   3.274   8.695 -0.1774 -0.0156  0.9750
  611MOL0     H82423   4.149   3.315   8.775 -1.8020 -0.8527  0.3698
  611MOL0     H82424   4.166   3.546   8.668  0.6757  0.5081 -2.2233
  611MOL0     H82425   4.327   3.501   8.609  3.3791  1.8789  4.1274
  611MOL0     H82426   4.231   3.490   8.894 -1.8992 -2.0534 -2.8887
  611MOL0     H82427   4.395   3.455   8.849  0.2169  0.5939  2.2555
  611MOL0     H82428   4.399   3.700   8.750  1.1776  0.4858  1.4501
  611MOL0     H82429   4.255   3.718   8.856 -0.9417 -0.5896 -3.5540
  611MOL0     H82430   4.519   3.594   8.927  1.2932 -0.2151  1.2614
  611MOL0     H82431   4.506   3.769   8.951  1.7593 -1.2971 -0.7135
  611MOL0     H82432   4.335   3.561   9.097 -1.9795  0.5752 -0.4829
  611MOL0     H82433   4.309   3.732   9.116 -1.1702 -1.2469  0.4456
  611MOL0     H82434   4.464   3.637   9.300  2.0392 -1.6084 -0.7843
  611MOL0     H82435   4.573   3.591   9.172  0.4397  1.1336  0.3944
  611MOL0     H82436   4.460   3.879   9.383 -0.8464 -0.0115 -1.6568
  611MOL0     H82437   4.589   4.213   9.302  0.8057 -0.7702 -2.4189
  611MOL0     H82438   4.585   4.117   9.456 -0.3150  0.9287 -0.5114
  611MOL0     H82439   4.824   4.088   9.450 -0.6162 -2.6607 -1.5120
  611MOL0     H82440   4.830   4.204   9.328 -0.4684 -3.4214 -0.7067
  611MOL0     H82441   4.713   4.382   9.453 -1.0573  0.7646  1.6314
  611MOL0     H82442   4.856   4.319   9.543 -0.3552  3.2185  0.8700
  611MOL0     H82443   4.565   4.263   9.605  0.2142 -1.8418  1.0986
  611MOL0     H82444   4.677   4.368   9.687 -1.3645 -1.0354  2.3251
  611MOL0     H82445   4.801   3.945   9.819 -0.8617  0.1592  0.6230
  611MOL0     H82446   4.943   3.920  10.005 -2.5929 -0.7883 -2.4751
  611MOL0     H82447   5.141   4.103  10.442  0.2890 -1.5892 -3.8013
  611MOL0     H82448   5.335   4.093  10.596  0.3669  3.5504  2.0252
  611MOL0     H82449   5.512   4.126  10.707  0.1573  1.4198 -0.1799
  611MOL0     H82450   5.588   4.018  10.599  1.4060 -0.6196 -0.6588
  611MOL0     H82451   5.804   4.124  10.634 -0.7483  2.0060 -1.6157
  611MOL0     H82452   5.732   4.250  10.741  1.2464 -0.7167  0.7263
  611MOL0     H82453   5.728   3.950  10.800  0.0730  0.1383  0.2500
  611MOL0     H82454   5.868   4.058  10.835  0.5889 -3.4366 -2.8090
  611MOL0     H82455   5.578   4.070  10.938  0.6695  0.1718 -2.6862
  611MOL0     H82456   5.716   4.181  10.994 -0.2239 -1.5639  2.9638
  611MOL0     H82457   5.825   3.996  11.086 -0.6131  1.1595 -2.8494
  611MOL0     H82458   5.691   3.891  11.039  0.8327 -0.4908 -2.2274
  611MOL0     H82459   5.627   4.149  11.212 -1.5676  0.0527  2.2668
  611MOL0     H82460   5.563   3.986  11.226 -0.1133 -0.5627  0.2189
  611MOL0     H82461   5.840   4.080  11.314 -0.3638  1.2381 -0.2654
  611MOL0     H82462   5.767   3.921  11.337 -0.2699  0.0461 -3.6530
  611MOL0     H82463   5.598   4.044  11.497  0.4550  0.2998  1.5331
  611MOL0     H82464   5.756   4.089  11.558 -1.9346  0.6009  1.7535
  611MOL0     H82465   5.545   4.336  10.303 -1.7210  1.7388 -0.8476
  611MOL0     H82466   5.330   4.361  10.186  0.7877 -1.9012 -1.4107
  611MOL0     H82467   4.991   4.357  10.020 -2.6660  1.5820 -0.8375
  611MOL0     H82468   4.827   4.374   9.839  2.1674  0.3300  1.0345
  611MOL0     H82469   3.862   3.060   8.664 -3.0979 -3.0182 -0.1082
  611MOL0     H82470   3.695   2.995   8.525 -2.1055 -0.6478 -3.8061
  611MOL0     H82471   3.434   3.361   8.240 -0.2588  0.8216  0.1608
  611MOL0     H82472   3.279   3.408   8.080 -2.4429 -1.3205  0.0226
  611MOL0     H82473   3.134   3.095   7.808  1.8890 -0.9147 -1.4722
  611MOL0     H82474   3.254   3.163   7.697  1.1416  2.0415  0.8796
  611MOL0     H82475   2.974   3.270   7.769  0.9469  2.9617  1.0071
  611MOL0     H82476   3.015   3.177   7.617  1.9486 -1.0347 -0.2675
  611MOL0     H82477   3.168   3.373   7.577  2.0060  1.4028  2.0599
  611MOL0     H82478   3.070   3.463   7.690  3.4801 -0.7569 -0.0226
  611MOL0     H82479   2.972   3.501   7.456 -1.0300  1.9662  4.1570
  611MOL0     H82480   3.002   3.328   7.432  1.7828 -2.9289  2.8838
  611MOL0     H82481   2.600   3.397   7.565  0.1035 -0.2448  5.0995
  611MOL0     H82482   3.354   3.035   7.877  0.1849  2.1500 -1.7297
  611MOL0     H82483   3.481   2.878   7.968  0.0797 -0.6099  0.0219
  611MOL0     H82484   3.634   2.962   7.988 -0.1325 -3.3181 -1.5852
  611MOL0     H82485   3.549   2.882   8.130  0.3210 -2.0738 -1.0776
  612MOL0     O82486  10.673   4.941   9.319  0.5335  0.3970  0.7002
  612MOL0     C82487  10.596   4.844   9.300 -0.8769 -0.4635  0.2136
  612MOL0     O82488  10.461   4.848   9.308  0.2169  0.0879  0.6821
  612MOL0     C82489  10.406   4.975   9.334 -0.6764 -0.4702 -0.9000
  612MOL0     C82490  10.355   5.044   9.220  1.0042 -0.1206 -0.6900
  612MOL0     C82491  10.292   5.167   9.253  0.6007  0.8775 -0.1439
  612MOL0     C82492  10.273   5.223   9.374  0.1139 -0.3755  0.0694
  612MOL0     O82493  10.204   5.342   9.395  0.0438 -0.1456  0.3363
  612MOL0     C82494  10.084   5.362   9.315  0.2725 -1.1799 -0.0051
  612MOL0     C82495  10.022   5.505   9.341 -0.1231  0.8060 -0.0203
  612MOL0     C82496   9.878   5.506   9.301 -0.2482  0.5922  0.1582
  612MOL0     C82497   9.809   5.632   9.340  0.7902  0.5718 -0.9360
  612MOL0     C82498   9.839   5.734   9.227 -0.2996  0.1738 -0.1553
  612MOL0     C82499   9.776   5.866   9.267  0.2147 -0.7043 -0.1658
  612MOL0     C82500   9.862   5.947   9.368 -0.5542 -0.0417 -0.0741
  612MOL0     C82501   9.822   6.097   9.370 -0.1998 -0.8777  0.3935
  612MOL0     N82502   9.845   6.157   9.506  0.3724  0.5520 -0.3812
  612MOL0     C82503   9.779   6.267   9.555  0.0758 -0.1606 -0.2746
  612MOL0     C82504   9.850   6.312   9.661  0.4452  0.2911  0.4924
  612MOL0     C82505   9.816   6.426   9.763 -0.3005 -0.7131 -0.8914
  612MOL0     C82506   9.685   6.440   9.833  0.7035  1.1336 -1.2477
  612MOL0     C82507   9.591   6.510   9.740  0.2938  0.1510 -0.8797
  612MOL0     C82508   9.448   6.503   9.789  0.3598  0.3363  0.0506
  612MOL0     O82509   9.371   6.588   9.698  0.5719 -0.3788 -0.2685
  612MOL0     C82510   9.238   6.596   9.710 -0.7250 -0.2157 -0.4305
  612MOL0     C82511   9.182   6.639   9.827  0.0116 -0.2468  0.2458
  612MOL0     C82512   9.048   6.672   9.836  1.0626 -0.5385  0.1983
  612MOL0     C82513   8.968   6.652   9.727 -0.0370 -0.0776 -0.2358
  612MOL0     C82514   8.822   6.695   9.716 -0.0118 -0.0603  0.0348
  612MOL0     O82515   8.769   6.750   9.829  0.2724  0.0530 -0.1911
  612MOL0     C82516   8.642   6.802   9.835  0.0096 -0.7377 -0.6216
  612MOL0     C82517   8.621   6.902   9.936 -0.2332 -0.3886  0.4323
  612MOL0     C82518   8.504   6.972   9.950 -0.4422  0.4750  1.0121
  612MOL0     C82519   8.390   6.953   9.863 -0.2937 -0.2289 -0.8296
  612MOL0     O82520   8.268   7.019   9.881 -0.5971 -0.2436  0.0553
  612MOL0     C82521   8.278   7.152   9.934 -0.1232 -0.6383 -0.1021
  612MOL0     C82522   8.151   7.233   9.887  0.5338  0.2524 -0.6841
  612MOL0     C82523   8.026   7.164   9.933 -0.7071 -0.4110  0.3469
  612MOL0     C82524   7.906   7.256   9.955  0.2886  0.7013 -0.1491
  612MOL0     C82525   7.838   7.298   9.818  0.2600  0.4036 -0.3212
  612MOL0     C82526   7.696   7.352   9.838 -0.4092 -0.5321 -1.6124
  612MOL0     C82527   7.607   7.244   9.903 -1.6696 -0.7455 -0.0717
  612MOL0     C82528   7.459   7.277   9.878 -0.4484  0.5378  0.2368
  612MOL0    Cl82529   7.396   7.432   9.959  0.1782 -0.4942 -0.0825
  612MOL0     C82530   8.409   6.849   9.768  0.1357  0.4765  0.4839
  612MOL0     C82531   8.533   6.781   9.753 -0.0118  1.0949  0.5062
  612MOL0     O82532   8.766   6.692   9.604 -0.2835  0.7484  0.3853
  612MOL0     C82533   9.019   6.591   9.610 -0.6022  0.5810 -0.1593
  612MOL0     C82534   9.157   6.569   9.602  0.1255 -0.5962  0.0551
  612MOL0     N82535   9.962   6.246   9.666  0.6228 -0.5317 -0.4194
  612MOL0     N82536   9.960   6.145   9.585  0.2588  0.0045  0.2192
  612MOL0     C82537  10.320   5.153   9.485  0.8119  0.6787  0.9440
  612MOL0     C82538  10.382   5.028   9.470  0.0432 -0.2059  0.7880
  612MOL0     C82539  10.657   4.708   9.257 -0.3742 -0.0352  0.5956
  612MOL0     C82540  10.590   4.640   9.152  0.1556  0.1386  0.7504
  612MOL0     C82541  10.622   4.506   9.113 -0.0383  0.2081 -0.6470
  612MOL0     C82542  10.735   4.453   9.172 -0.4565  0.8498 -0.3565
  612MOL0     O82543  10.764   4.325   9.139  0.0161  0.3619  0.5228
  612MOL0     C82544  10.898   4.297   9.092 -0.6442 -0.2755  0.3480
  612MOL0     C82545  10.913   4.167   9.019  0.2112 -0.0973 -0.0972
  612MOL0     C82546  11.039   4.149   8.924  0.6511 -1.1473 -0.8977
  612MOL0     C82547  11.035   4.002   8.858 -0.5228 -0.3258 -0.8323
  612MOL0     C82548  11.171   3.972   8.814  0.5303 -0.2278 -0.2640
  612MOL0     C82549  11.278   3.960   8.761 -0.1503 -0.3968  0.0476
  612MOL0     C82550  10.812   4.523   9.264 -0.5834  0.2113  1.1404
  612MOL0     C82551  10.771   4.653   9.310  0.0743 -0.0602 -0.4280
  612MOL0     C82552  10.857   4.704   9.424  0.0501  0.2640  1.0191
  612MOL0     H82553  10.365   5.010   9.118  1.9704 -0.2959 -0.5440
  612MOL0     H82554  10.261   5.219   9.163 -0.9579  1.6982  0.8226
  612MOL0     H82555  10.112   5.368   9.210  1.7245  2.2572  0.4351
  612MOL0     H82556  10.004   5.289   9.332  0.0365 -0.5612  1.7985
  612MOL0     H82557  10.079   5.585   9.293 -0.4780  1.4752  0.6322
  612MOL0     H82558  10.027   5.527   9.448  0.2130  1.3943 -0.1515
  612MOL0     H82559   9.828   5.420   9.346 -0.0979  0.5331  0.2144
  612MOL0     H82560   9.874   5.499   9.192  0.9806  1.7104  0.0069
  612MOL0     H82561   9.702   5.621   9.360  0.8032  2.1779  0.1802
  612MOL0     H82562   9.849   5.675   9.432  1.7177 -1.4379 -0.3485
  612MOL0     H82563   9.946   5.742   9.205 -0.2608 -0.3674 -0.1681
  612MOL0     H82564   9.800   5.698   9.131  1.3364  0.9756 -1.1655
  612MOL0     H82565   9.766   5.915   9.170  0.3363 -3.3219 -1.5948
  612MOL0     H82566   9.672   5.851   9.299  0.1253 -4.0115 -1.5223
  612MOL0     H82567   9.966   5.943   9.334  0.2919 -0.2743  2.3549
  612MOL0     H82568   9.841   5.894   9.461 -2.7750 -1.0059 -1.0419
  612MOL0     H82569   9.880   6.164   9.306 -0.5802 -1.2351 -0.3297
  612MOL0     H82570   9.724   6.105   9.323  0.1557 -1.5523 -0.4919
  612MOL0     H82571   9.685   6.304   9.515  0.8021  2.6830  0.4672
  612MOL0     H82572   9.899   6.433   9.833 -2.2658  0.6401  1.4901
  612MOL0     H82573   9.832   6.506   9.690  0.8213  0.1278  0.2329
  612MOL0     H82574   9.641   6.341   9.851  1.1648 -0.1596 -5.8332
  612MOL0     H82575   9.695   6.506   9.919  0.6515 -0.9757  0.4598
  612MOL0     H82576   9.589   6.468   9.639  1.9804 -0.6140 -0.6218
  612MOL0     H82577   9.619   6.615   9.732 -3.7344  1.4431 -0.6112
  612MOL0     H82578   9.443   6.550   9.888  2.5322  1.2409 -0.2064
  612MOL0     H82579   9.415   6.399   9.796  0.3174  0.3286 -0.2557
  612MOL0     H82580   9.252   6.649   9.909 -1.9917 -1.2184  2.1545
  612MOL0     H82581   9.013   6.714   9.930  0.1819  1.9084 -1.1510
  612MOL0     H82582   8.710   6.928   9.992 -0.6586  1.5330  0.2925
  612MOL0     H82583   8.497   7.047  10.029  0.8340  0.9160  0.7385
  612MOL0     H82584   8.283   7.157  10.043  0.8232 -0.9183 -0.1247
  612MOL0     H82585   8.368   7.203   9.898 -0.3946 -0.3051 -0.3077
  612MOL0     H82586   8.150   7.334   9.930 -1.2884  0.5044 -1.2662
  612MOL0     H82587   8.147   7.222   9.779 -0.9915 -1.3683 -0.5002
  612MOL0     H82588   7.997   7.088   9.860  1.5238 -2.5815  1.5916
  612MOL0     H82589   8.057   7.106  10.021  0.9810 -1.0268 -0.6250
  612MOL0     H82590   7.938   7.347  10.006  0.8387  3.2211 -4.4226
  612MOL0     H82591   7.844   7.206  10.029 -1.0255  2.9477  0.3526
  612MOL0     H82592   7.836   7.209   9.755 -3.1035  0.3378 -0.2733
  612MOL0     H82593   7.901   7.369   9.763 -0.3763 -1.6144 -3.9866
  612MOL0     H82594   7.685   7.437   9.906 -0.7357  0.3636 -2.7565
  612MOL0     H82595   7.652   7.389   9.745 -0.0125  1.2841 -1.1004
  612MOL0     H82596   7.620   7.236  10.011 -1.0195  3.0881  0.2544
  612MOL0     H82597   7.623   7.145   9.859  0.3736  0.2090 -1.6303
  612MOL0     H82598   7.436   7.282   9.771  3.5451  0.0244 -0.7824
  612MOL0     H82599   7.403   7.196   9.926  0.6087 -0.7821 -0.6881
  612MOL0     H82600   8.321   6.822   9.709  2.2209 -2.0354 -1.7332
  612MOL0     H82601   8.535   6.718   9.664  0.9585  4.5682 -2.1561
  612MOL0     H82602   8.956   6.548   9.533 -1.7891  1.0875  0.4811
  612MOL0     H82603   9.198   6.508   9.523  0.8900  0.4894 -0.4183
  612MOL0     H82604  10.304   5.191   9.585 -2.3784 -0.5077  0.9861
  612MOL0     H82605  10.428   4.977   9.554 -0.9736 -2.1586  0.2101
  612MOL0     H82606  10.507   4.681   9.097 -0.0287 -0.0340  0.8973
  612MOL0     H82607  10.576   4.445   9.036 -1.6678 -3.3610  2.7861
  612MOL0     H82608  10.965   4.295   9.179  1.2536  1.8400 -0.9550
  612MOL0     H82609  10.926   4.373   9.019  3.8060 -2.1592 -0.2495
  612MOL0     H82610  10.824   4.159   8.956  1.7343  1.1252 -2.5628
  612MOL0     H82611  10.905   4.088   9.094  0.6271 -2.7016 -2.5842
  612MOL0     H82612  11.132   4.158   8.981  0.7518 -1.5315 -0.9961
  612MOL0     H82613  11.035   4.212   8.835 -2.1468 -0.6786 -0.5195
  612MOL0     H82614  11.012   3.921   8.927 -1.6643  1.4772  1.0222
  612MOL0     H82615  10.973   4.003   8.768 -0.5857 -2.4768 -0.8499
  612MOL0     H82616  11.374   3.947   8.714 -0.2529 -1.7544  0.1653
  612MOL0     H82617  10.892   4.476   9.322 -1.0198  1.2118  2.6082
  612MOL0     H82618  10.818   4.671   9.521  0.5969 -0.5777  0.9711
  612MOL0     H82619  10.962   4.673   9.424  0.0299  0.1588 -0.0104
  612MOL0     H82620  10.860   4.812   9.411 -1.4620  0.0161 -2.8076
  613MOL0     O82621   2.082  10.419   9.332 -0.3358  0.1245 -0.0441
  613MOL0     C82622   1.981  10.355   9.356  1.3760 -0.1686 -0.8578
  613MOL0     O82623   1.940  10.308   9.483  0.0168  0.1048  0.1446
  613MOL0     C82624   1.999  10.339   9.601 -0.4241  0.7253  0.8538
  613MOL0     C82625   1.926  10.356   9.721 -0.7148 -0.7303  0.4488
  613MOL0     C82626   1.983  10.354   9.850 -0.0401  0.1280 -0.0808
  613MOL0     C82627   2.124  10.324   9.857  0.5043  0.0548 -0.3608
  613MOL0     O82628   2.195  10.329   9.975  0.5162  0.8014  0.1060
  613MOL0     C82629   2.130  10.299  10.098 -0.0857 -0.4164 -0.2374
  613MOL0     C82630   2.221  10.299  10.220  0.3831 -0.5806  0.1291
  613MOL0     C82631   2.319  10.413  10.215 -0.6491  0.2585  0.1958
  613MOL0     C82632   2.374  10.449  10.350 -0.5512 -0.3293  0.9915
  613MOL0     C82633   2.467  10.341  10.405 -0.3484 -0.8955 -0.5909
  613MOL0     C82634   2.609  10.360  10.337  0.2549 -0.1900 -0.5358
  613MOL0     C82635   2.721  10.279  10.398  0.2067 -0.3375  0.0117
  613MOL0     C82636   2.851  10.283  10.327 -0.7551  0.2007  1.0712
  613MOL0     N82637   2.850  10.235  10.192 -0.0824  0.7071  0.3940
  613MOL0     C82638   2.884  10.113  10.148  0.2319  0.3400 -0.6476
  613MOL0     C82639   2.912  10.119  10.013 -0.4750  0.1038 -1.1256
  613MOL0     C82640   2.950   9.996   9.932 -0.2669 -0.4198 -0.4172
  613MOL0     C82641   3.069  10.045   9.855  0.2993  0.5371  0.1222
  613MOL0     C82642   3.141   9.932   9.786  0.4775  0.9556 -0.3210
  613MOL0     C82643   3.268   9.965   9.706 -0.3530  0.4090 -0.0686
  613MOL0     O82644   3.376   9.976   9.796  0.4363  0.7273 -0.6281
  613MOL0     C82645   3.503  10.021   9.754  0.2736  0.0616 -1.4976
  613MOL0     C82646   3.549  10.031   9.626  0.4177  0.5231  0.2756
  613MOL0     C82647   3.675  10.079   9.601  0.6613  0.5961  0.7085
  613MOL0     C82648   3.770  10.109   9.698 -0.3161 -0.3162  0.1785
  613MOL0     C82649   3.903  10.171   9.659 -0.3227 -0.3862 -0.6994
  613MOL0     O82650   3.906  10.262   9.552  0.0389 -0.4835 -0.2116
  613MOL0     C82651   4.020  10.338   9.552  0.2372  0.0598 -0.3864
  613MOL0     C82652   4.004  10.468   9.602  0.2437 -0.9445 -0.4018
  613MOL0     C82653   4.115  10.560   9.599  0.5243 -0.1402 -0.3913
  613MOL0     C82654   4.242  10.522   9.543 -0.4826  0.0961 -0.8432
  613MOL0     O82655   4.341  10.617   9.528 -0.7401  0.9582 -0.0258
  613MOL0     C82656   4.469  10.562   9.490  0.0754  0.4795 -0.0788
  613MOL0     C82657   4.579  10.670   9.460  0.5710 -0.5851 -1.7505
  613MOL0     C82658   4.711  10.625   9.400 -1.2842  0.3235 -0.1946
  613MOL0     C82659   4.772  10.727   9.318  0.1463  0.7242 -0.2592
  613MOL0     C82660   4.905  10.675   9.275 -0.4664 -0.2089  0.2416
  613MOL0     C82661   5.002  10.798   9.257 -0.0235 -0.0617 -0.3014
  613MOL0     C82662   4.944  10.890   9.147  0.4945 -0.0505  0.4533
  613MOL0     C82663   5.017  10.843   9.015 -0.1341 -0.3391  0.2080
  613MOL0    Cl82664   4.925  10.706   8.940 -0.1775 -0.0683 -0.4546
  613MOL0     C82665   4.248  10.386   9.496 -0.6170 -0.4646 -0.9792
  613MOL0     C82666   4.139  10.301   9.501 -0.4757  0.5795  0.4952
  613MOL0     O82667   3.997  10.157   9.743 -0.3383  0.1519 -0.0279
  613MOL0     C82668   3.722  10.108   9.823 -0.3423  0.4054 -0.4297
  613MOL0     C82669   3.590  10.069   9.853  0.6984 -0.1266  0.5750
  613MOL0     N82670   2.880  10.251   9.969 -1.3272  0.0169 -0.2790
  613MOL0     N82671   2.845  10.313  10.086 -0.1804 -0.5311  0.2742
  613MOL0     C82672   2.201  10.300   9.747 -0.1970  0.1420  0.8780
  613MOL0     C82673   2.137  10.304   9.621  0.1897  0.8181 -0.3247
  613MOL0     C82674   1.880  10.320   9.255 -0.4884 -1.4779 -0.1830
  613MOL0     C82675   1.741  10.308   9.300  0.3054  0.0182 -0.3249
  613MOL0     C82676   1.651  10.254   9.216  0.7113 -1.4404 -0.5083
  613MOL0     C82677   1.682  10.228   9.080  0.1859 -0.8939  0.9368
  613MOL0     O82678   1.562  10.190   9.015  0.3972  0.7618 -0.7549
  613MOL0     C82679   1.575  10.177   8.869  0.8519 -0.2514 -0.4836
  613MOL0     C82680   1.474  10.085   8.798 -0.4323  0.5146 -0.0595
  613MOL0     C82681   1.478   9.936   8.850 -0.3813 -0.4955  0.3518
  613MOL0     C82682   1.602   9.852   8.812  0.1979  0.5326  0.8531
  613MOL0     C82683   1.687   9.852   8.932  0.4727  0.1954 -0.1038
  613MOL0     C82684   1.760   9.856   9.026 -0.6345 -0.9830  0.7623
  613MOL0     C82685   1.820  10.245   9.032  0.2087  0.3931  0.7373
  613MOL0     C82686   1.919  10.284   9.126  0.0492 -0.7415  0.7422
  613MOL0     C82687   2.058  10.265   9.081 -0.0066  0.3457 -0.5054
  613MOL0     H82688   1.820  10.377   9.714  0.0177  3.2992 -0.8966
  613MOL0     H82689   1.908  10.362   9.927 -0.9050 -3.5067 -0.3479
  613MOL0     H82690   2.059  10.381  10.106  1.0475  0.8541 -2.3088
  613MOL0     H82691   2.070  10.208  10.103  0.8606 -1.0438  3.8468
  613MOL0     H82692   2.272  10.203  10.231  0.2996 -0.5432  0.9377
  613MOL0     H82693   2.160  10.318  10.309  2.6534 -0.0614  1.6697
  613MOL0     H82694   2.273  10.492  10.154 -1.0344  0.4203  0.6958
  613MOL0     H82695   2.404  10.385  10.152  1.0287  2.4654  1.3264
  613MOL0     H82696   2.423  10.546  10.339 -2.2480  0.3542 -1.2948
  613MOL0     H82697   2.284  10.458  10.412 -1.5958  1.4681 -0.6525
  613MOL0     H82698   2.465  10.352  10.514  0.5587 -3.3044 -0.2819
  613MOL0     H82699   2.430  10.243  10.373 -0.7297 -1.7606  2.2450
  613MOL0     H82700   2.611  10.332  10.231  1.1112 -1.0183 -0.3159
  613MOL0     H82701   2.636  10.465  10.351  0.7887 -0.6029  2.1773
  613MOL0     H82702   2.684  10.176  10.388 -0.0576 -0.2043 -0.4335
  613MOL0     H82703   2.744  10.300  10.502  2.5080 -1.6491 -0.1700
  613MOL0     H82704   2.882  10.388  10.317 -1.9320  0.3896 -1.5012
  613MOL0     H82705   2.923  10.227  10.388 -0.4672 -0.2385  0.3444
  613MOL0     H82706   2.891  10.030  10.218  1.2402  0.5183 -0.5153
  613MOL0     H82707   2.992   9.917   9.995  0.7650 -1.1295 -1.9220
  613MOL0     H82708   2.865   9.961   9.872 -2.5549  1.7538  1.3182
  613MOL0     H82709   3.038  10.116   9.778  3.9837 -0.1580 -2.2819
  613MOL0     H82710   3.130  10.100   9.927  0.1128 -0.9184  1.4472
  613MOL0     H82711   3.071   9.890   9.712 -0.7906  0.7969  0.9263
  613MOL0     H82712   3.180   9.850   9.848  2.1953 -1.6793 -4.4281
  613MOL0     H82713   3.260  10.049   9.637  1.2287  1.6437  1.1875
  613MOL0     H82714   3.299   9.881   9.643  0.4522  0.6908 -0.0585
  613MOL0     H82715   3.486  10.019   9.538 -0.2814  0.2767  0.7984
  613MOL0     H82716   3.704  10.104   9.499 -1.9459  3.3011  0.4749
  613MOL0     H82717   3.915  10.497   9.656  1.2201  3.1910 -0.6938
  613MOL0     H82718   4.103  10.664   9.628  2.9464 -0.2783  1.3749
  613MOL0     H82719   4.500  10.493   9.568 -1.0923 -0.2852 -0.2590
  613MOL0     H82720   4.460  10.499   9.401 -1.0889 -1.4351  1.3114
  613MOL0     H82721   4.528  10.747   9.401  0.1427 -1.6612 -2.8263
  613MOL0     H82722   4.586  10.706   9.563 -2.1043  0.1012 -1.7311
  613MOL0     H82723   4.780  10.608   9.483  1.2088  3.6813 -1.3506
  613MOL0     H82724   4.703  10.538   9.333  1.2072  0.0460 -0.2306
  613MOL0     H82725   4.779  10.819   9.377  3.3223 -0.1965  0.9852
  613MOL0     H82726   4.704  10.727   9.232  0.9226 -4.2176 -1.1667
  613MOL0     H82727   4.905  10.622   9.179  2.1461  0.2546 -0.0876
  613MOL0     H82728   4.949  10.612   9.353 -1.5170 -1.1898  0.0742
  613MOL0     H82729   5.008  10.842   9.358  2.1162 -2.9498  0.9762
  613MOL0     H82730   5.102  10.759   9.233  0.3883 -1.1227  2.6870
  613MOL0     H82731   4.969  10.995   9.160 -0.1156  0.6812 -3.2195
  613MOL0     H82732   4.836  10.884   9.132 -0.0007  4.5293  0.7866
  613MOL0     H82733   5.005  10.929   8.948 -0.2297  0.5439  1.3450
  613MOL0     H82734   5.124  10.819   9.016 -0.4496 -1.8407  0.1908
  613MOL0     H82735   4.342  10.354   9.451  0.0465 -2.3639  1.5108
  613MOL0     H82736   4.144  10.200   9.460 -2.7896  0.5922  0.0756
  613MOL0     H82737   3.796  10.133   9.899  0.8581  2.2520 -2.1184
  613MOL0     H82738   3.565  10.071   9.958 -0.5125  0.7681  0.2883
  613MOL0     H82739   2.306  10.276   9.753 -0.5742 -3.6038 -2.6797
  613MOL0     H82740   2.197  10.272   9.536 -1.2949 -0.4246 -0.9420
  613MOL0     H82741   1.720  10.337   9.402  3.5705  0.7154  0.2722
  613MOL0     H82742   1.556  10.218   9.252  0.4692 -2.5700 -2.1822
  613MOL0     H82743   1.673  10.135   8.842  1.3467 -0.9591  2.1659
  613MOL0     H82744   1.567  10.277   8.824 -4.0882  0.3283  1.1626
  613MOL0     H82745   1.489  10.096   8.690 -2.1260  4.5621 -0.0646
  613MOL0     H82746   1.379  10.135   8.822 -0.7665 -0.1572  0.0501
  613MOL0     H82747   1.389   9.886   8.810 -0.5726  0.9250 -1.1145
  613MOL0     H82748   1.461   9.939   8.958 -0.3344 -5.4544  0.7590
  613MOL0     H82749   1.557   9.755   8.789  0.6138  0.5550 -0.1070
  613MOL0     H82750   1.665   9.893   8.733 -1.9111  0.7962 -0.7516
  613MOL0     H82751   1.836   9.874   9.100 -0.7400  1.7061  0.3259
  613MOL0     H82752   1.846  10.213   8.932  1.2968  1.3212  0.7138
  613MOL0     H82753   2.130  10.223   9.153 -0.4697  1.2523  0.5166
  613MOL0     H82754   2.057  10.190   9.001 -0.6167 -0.7329  0.4807
  613MOL0     H82755   2.104  10.358   9.047  0.6262  0.1488 -0.2242
  614MOL0     O82756   2.994   7.324   1.943  0.4022 -0.1212 -0.1861
  614MOL0     C82757   2.967   7.340   2.064 -0.0141 -0.1426  0.2936
  614MOL0     O82758   3.028   7.433   2.142 -0.2811 -0.5528 -0.4355
  614MOL0     C82759   3.119   7.515   2.094 -1.0125  0.0092  0.3172
  614MOL0     C82760   3.235   7.539   2.169  0.3585  1.1290 -0.4063
  614MOL0     C82761   3.344   7.619   2.123 -0.3937  0.3810  0.6527
  614MOL0     C82762   3.345   7.670   1.991  0.0296 -0.4137 -0.2478
  614MOL0     O82763   3.450   7.757   1.949  0.1278  0.1147 -0.1664
  614MOL0     C82764   3.579   7.741   2.010  0.0752 -0.2424 -0.0369
  614MOL0     C82765   3.661   7.615   1.960 -0.1404  0.3634 -0.3032
  614MOL0     C82766   3.721   7.645   1.823  0.7439  0.4714  0.0587
  614MOL0     C82767   3.845   7.731   1.842  0.1853  0.4192  0.4040
  614MOL0     C82768   3.968   7.640   1.873  0.8991  0.4855  0.2934
  614MOL0     C82769   4.097   7.714   1.912 -0.3454 -0.3627  1.5422
  614MOL0     C82770   4.217   7.618   1.893 -0.3913  0.0477  0.6131
  614MOL0     C82771   4.353   7.686   1.913 -0.0670  0.6265  0.3164
  614MOL0     N82772   4.474   7.596   1.913 -0.4418  0.4771  0.7086
  614MOL0     C82773   4.471   7.453   1.918  0.8046 -0.3259  0.3232
  614MOL0     C82774   4.605   7.428   1.913  0.4280 -0.4912  0.3274
  614MOL0     C82775   4.657   7.287   1.918  0.1601 -0.1748 -0.1572
  614MOL0     C82776   4.806   7.287   1.973 -0.1445 -0.5234 -0.5494
  614MOL0     C82777   4.860   7.143   2.000 -0.5745 -0.7058 -0.3240
  614MOL0     C82778   4.966   7.139   2.115  0.3488  0.7623  0.8164
  614MOL0     O82779   5.088   7.183   2.069  0.4012  0.1937 -0.9649
  614MOL0     C82780   5.197   7.165   2.148 -0.5195  0.1044 -0.3995
  614MOL0     C82781   5.198   7.098   2.274 -0.1884 -0.7183  0.1581
  614MOL0     C82782   5.324   7.078   2.340  0.6560 -0.3903  0.2738
  614MOL0     C82783   5.437   7.114   2.267 -0.5988  0.4935 -0.7199
  614MOL0     C82784   5.569   7.105   2.345  0.5034  0.6147 -0.4149
  614MOL0     O82785   5.685   7.120   2.268  0.5200  0.2426 -0.3469
  614MOL0     C82786   5.808   7.115   2.321  0.8058  0.2155 -0.1730
  614MOL0     C82787   5.850   7.205   2.423 -0.2008 -0.0121  0.5934
  614MOL0     C82788   5.984   7.223   2.454 -0.1241 -0.6550  0.0281
  614MOL0     C82789   6.083   7.171   2.376 -0.1429  1.0848 -0.7025
  614MOL0     O82790   6.210   7.183   2.421 -0.1806  0.2948  1.2227
  614MOL0     C82791   6.320   7.112   2.347 -0.1378 -0.3836  0.2676
  614MOL0     C82792   6.451   7.182   2.390  0.5207  0.3072  0.8469
  614MOL0     C82793   6.558   7.077   2.385  0.2313  0.0974 -0.2641
  614MOL0     C82794   6.609   7.056   2.238  0.8601 -0.2218 -0.6808
  614MOL0     C82795   6.721   6.955   2.238 -0.0232 -0.0797 -0.4125
  614MOL0     C82796   6.667   6.822   2.297  0.5592 -0.4098 -0.5395
  614MOL0     C82797   6.764   6.700   2.273  0.1685 -0.0128  0.0429
  614MOL0     C82798   6.724   6.568   2.354 -1.2029 -0.6629 -0.6565
  614MOL0    Cl82799   6.562   6.513   2.305  0.2562  0.5338  0.0495
  614MOL0     C82800   6.044   7.090   2.275 -0.8833  0.6904  0.3250
  614MOL0     C82801   5.909   7.063   2.241 -1.0975 -0.1335  0.0407
  614MOL0     O82802   5.565   7.060   2.456 -0.2213  0.4307 -1.0476
  614MOL0     C82803   5.436   7.173   2.142 -0.3221 -0.3972  0.5492
  614MOL0     C82804   5.315   7.193   2.081  0.3995 -0.0475  0.2828
  614MOL0     N82805   4.675   7.549   1.929 -0.0205  0.9452  0.2996
  614MOL0     N82806   4.592   7.647   1.932  0.5970  0.4518  0.0652
  614MOL0     C82807   3.239   7.644   1.909 -0.0870  0.6176 -0.3262
  614MOL0     C82808   3.124   7.574   1.961 -0.0180  0.1241  0.3180
  614MOL0     C82809   2.862   7.252   2.122  0.5865 -0.2897  0.0122
  614MOL0     C82810   2.796   7.158   2.042 -0.1432  0.6597  0.7097
  614MOL0     C82811   2.694   7.076   2.087  0.6305 -1.0582  0.0106
  614MOL0     C82812   2.658   7.070   2.220 -0.2473  0.1745  0.0743
  614MOL0     O82813   2.572   6.979   2.270 -0.3763  0.1259 -0.2960
  614MOL0     C82814   2.525   6.968   2.404  0.1486 -0.0881  0.9867
  614MOL0     C82815   2.443   6.849   2.415 -0.3287 -0.6770 -0.2156
  614MOL0     C82816   2.300   6.882   2.375  0.6528  0.5573 -0.5008
  614MOL0     C82817   2.223   6.749   2.388 -0.2805 -1.3590  0.6291
  614MOL0     C82818   2.095   6.765   2.322  0.0366  0.1820 -0.2588
  614MOL0     C82819   1.991   6.761   2.260  0.0920 -0.8565  0.3146
  614MOL0     C82820   2.734   7.153   2.304  0.4150 -0.5065 -0.5557
  614MOL0     C82821   2.820   7.252   2.259 -0.6495  0.1599 -0.1612
  614MOL0     C82822   2.888   7.339   2.360 -0.1864  0.0168  0.6274
  614MOL0     H82823   3.244   7.499   2.270 -2.1022 -2.6584 -1.4880
  614MOL0     H82824   3.422   7.640   2.195 -0.5927 -2.4113  1.8189
  614MOL0     H82825   3.634   7.830   1.979  2.3789 -1.5779  0.0139
  614MOL0     H82826   3.571   7.733   2.119 -1.5303 -2.0522 -0.2338
  614MOL0     H82827   3.594   7.528   1.962 -2.4272  2.0633  0.5416
  614MOL0     H82828   3.740   7.603   2.035  0.7944  2.9119 -0.7748
  614MOL0     H82829   3.645   7.690   1.758  1.2366  0.0331 -0.8357
  614MOL0     H82830   3.746   7.546   1.786 -2.6118 -1.7315  2.9809
  614MOL0     H82831   3.866   7.786   1.750 -3.4751  2.2949  0.5067
  614MOL0     H82832   3.833   7.807   1.920 -0.5726 -0.5437  1.2480
  614MOL0     H82833   3.935   7.578   1.957 -1.3199  0.9276 -0.1712
  614MOL0     H82834   3.977   7.577   1.785  1.4151  0.1510  0.5831
  614MOL0     H82835   4.108   7.797   1.842 -2.5187 -0.1651  1.3661
  614MOL0     H82836   4.086   7.758   2.012 -0.4657  0.0301  1.3549
  614MOL0     H82837   4.218   7.593   1.786  2.0293 -0.1230  0.6078
  614MOL0     H82838   4.197   7.529   1.954 -1.3179  0.1248  0.4244
  614MOL0     H82839   4.357   7.767   1.839  0.4290  0.6432  0.3545
  614MOL0     H82840   4.353   7.734   2.011 -0.4734  0.8615  0.2045
  614MOL0     H82841   4.391   7.381   1.906 -0.1154  0.9218 -1.6894
  614MOL0     H82842   4.595   7.215   1.972  1.5432 -0.8387  0.6115
  614MOL0     H82843   4.676   7.266   1.812  0.4804  2.6107 -0.7349
  614MOL0     H82844   4.868   7.335   1.897 -2.1538  0.0706 -1.8889
  614MOL0     H82845   4.807   7.336   2.071  0.2313 -1.1953 -0.2131
  614MOL0     H82846   4.897   7.110   1.903  1.2987  1.9997 -0.6423
  614MOL0     H82847   4.778   7.079   2.034 -2.4795  1.8155  0.0735
  614MOL0     H82848   4.984   7.035   2.146  0.9928  1.5722  3.4380
  614MOL0     H82849   4.928   7.180   2.209 -0.2864 -2.1529  1.9658
  614MOL0     H82850   5.109   7.074   2.331  0.8345  1.8520  3.1698
  614MOL0     H82851   5.331   7.023   2.433  1.2710 -1.0131 -0.1394
  614MOL0     H82852   5.777   7.263   2.481 -2.0536 -1.4406 -0.2173
  614MOL0     H82853   6.010   7.282   2.541 -1.2685 -1.3274  0.8645
  614MOL0     H82854   6.307   7.012   2.388 -3.9990 -0.2038 -0.0631
  614MOL0     H82855   6.301   7.124   2.240 -1.8092 -0.1397  0.5604
  614MOL0     H82856   6.482   7.264   2.324 -1.7594  1.1664  0.7610
  614MOL0     H82857   6.439   7.222   2.491  0.4851  0.4801  0.7758
  614MOL0     H82858   6.641   7.107   2.449 -1.1381  0.9935  1.1570
  614MOL0     H82859   6.519   6.985   2.428  0.8837 -0.5941 -1.1127
  614MOL0     H82860   6.641   7.148   2.189 -1.2742  1.0066  0.0723
  614MOL0     H82861   6.519   7.023   2.184  0.3892 -1.4818  0.8001
  614MOL0     H82862   6.807   6.998   2.290  0.3943  0.4506 -1.4974
  614MOL0     H82863   6.745   6.944   2.131  2.7181  0.5951  0.0438
  614MOL0     H82864   6.655   6.831   2.406  3.1383  1.6066 -0.3329
  614MOL0     H82865   6.566   6.801   2.261  0.1257 -0.1344  0.4694
  614MOL0     H82866   6.868   6.725   2.293  0.8341 -1.6434 -1.1328
  614MOL0     H82867   6.751   6.677   2.167  1.2953  0.2709 -0.1623
  614MOL0     H82868   6.787   6.480   2.338 -1.0923 -0.4089 -1.6794
  614MOL0     H82869   6.716   6.592   2.460 -1.4449 -1.1964 -0.5485
  614MOL0     H82870   6.119   7.036   2.218 -2.0097 -1.5178  0.7868
  614MOL0     H82871   5.895   7.021   2.142 -0.3471  1.5738 -0.8339
  614MOL0     H82872   5.535   7.182   2.100  1.0469  1.5061  3.8301
  614MOL0     H82873   5.324   7.223   1.977  1.4806 -0.2486  0.3051
  614MOL0     H82874   3.241   7.689   1.810  1.8994  0.2667 -0.4885
  614MOL0     H82875   3.038   7.566   1.894  1.4065 -1.9911 -1.4098
  614MOL0     H82876   2.812   7.145   1.935  0.8850 -2.5896  1.1420
  614MOL0     H82877   2.644   7.021   2.009  0.3792  0.5503 -1.0172
  614MOL0     H82878   2.473   7.059   2.435  0.5570  0.7067 -0.5559
  614MOL0     H82879   2.611   6.961   2.471  1.1621  2.7639  0.1266
  614MOL0     H82880   2.441   6.812   2.518 -0.9820  1.2289  0.5071
  614MOL0     H82881   2.485   6.768   2.354 -0.3867 -2.0747  1.5141
  614MOL0     H82882   2.300   6.933   2.278  0.3307 -2.7884 -2.4420
  614MOL0     H82883   2.260   6.951   2.450 -0.1472 -0.6805  0.2584
  614MOL0     H82884   2.267   6.660   2.342 -1.2809 -1.2505 -0.5754
  614MOL0     H82885   2.197   6.726   2.492 -0.3531  0.0836  0.9513
  614MOL0     H82886   1.898   6.775   2.209  1.8566 -0.3052 -3.0783
  614MOL0     H82887   2.722   7.132   2.410  4.4658  0.1264  0.1619
  614MOL0     H82888   2.854   7.328   2.463 -0.6627 -3.6220  0.1909
  614MOL0     H82889   2.993   7.309   2.349 -0.1066 -0.2673  2.0586
  614MOL0     H82890   2.879   7.446   2.335 -1.9127 -0.4407 -0.9365
  615MOL0     O82891   1.195   5.621   5.322 -0.9282 -0.4796 -0.3918
  615MOL0     C82892   1.174   5.681   5.222 -0.3243  0.3512  0.4657
  615MOL0     O82893   1.278   5.734   5.148 -0.3168 -0.5600 -0.6307
  615MOL0     C82894   1.408   5.709   5.175  0.9952  0.4941 -0.9659
  615MOL0     C82895   1.486   5.796   5.261  0.6204 -0.4334  0.2699
  615MOL0     C82896   1.607   5.760   5.301 -0.3486  0.7967 -0.4237
  615MOL0     C82897   1.672   5.645   5.256  0.3676  0.3022 -0.3067
  615MOL0     O82898   1.803   5.602   5.283  0.5544  0.0050  0.7054
  615MOL0     C82899   1.853   5.631   5.407  0.2135  0.0137  0.4755
  615MOL0     C82900   1.953   5.524   5.432 -0.3340 -0.0103 -0.1995
  615MOL0     C82901   2.043   5.572   5.550 -0.5653  0.4882 -0.2193
  615MOL0     C82902   2.169   5.480   5.547  0.1232 -0.5552 -0.3346
  615MOL0     C82903   2.255   5.523   5.666 -0.8545 -0.1354  0.2257
  615MOL0     C82904   2.387   5.445   5.673 -0.3940 -0.1778 -0.0947
  615MOL0     C82905   2.459   5.476   5.807 -1.1622  0.5542  0.4410
  615MOL0     C82906   2.513   5.617   5.836 -0.1208 -0.3616  0.7584
  615MOL0     N82907   2.643   5.641   5.777  0.3048  0.3731 -0.4890
  615MOL0     C82908   2.692   5.645   5.645  0.4968  0.4558  0.4722
  615MOL0     C82909   2.828   5.637   5.653 -1.1296 -0.1017  0.5685
  615MOL0     C82910   2.921   5.634   5.536  0.2691 -0.1835  0.6044
  615MOL0     C82911   2.923   5.766   5.456 -0.2019 -0.0436 -0.0850
  615MOL0     C82912   2.995   5.869   5.538 -0.3345 -0.6005 -0.3903
  615MOL0     C82913   2.992   6.014   5.478  0.4059  0.2639  0.1165
  615MOL0     O82914   3.045   6.010   5.352 -0.4884  0.5900 -0.0123
  615MOL0     C82915   3.184   6.000   5.331  0.8401  0.3608 -0.1008
  615MOL0     C82916   3.285   6.055   5.412  0.5960  0.1216  0.3200
  615MOL0     C82917   3.420   6.052   5.374 -0.3841  0.1383 -0.1921
  615MOL0     C82918   3.455   5.987   5.259  0.8539  0.2450 -0.5245
  615MOL0     C82919   3.601   5.981   5.224  0.4344  0.4992  1.2628
  615MOL0     O82920   3.663   6.093   5.252  0.3669 -1.0439  0.3334
  615MOL0     C82921   3.800   6.101   5.229  0.9442  0.7547 -0.3993
  615MOL0     C82922   3.865   6.110   5.100 -0.1010  0.6061 -0.9469
  615MOL0     C82923   4.010   6.097   5.097 -0.1272  0.1918 -0.2614
  615MOL0     C82924   4.090   6.114   5.214  1.7136  0.3710  0.5778
  615MOL0     O82925   4.223   6.100   5.199  0.1231 -0.4384 -0.3773
  615MOL0     C82926   4.317   6.057   5.308 -0.3318 -0.8894 -1.0615
  615MOL0     C82927   4.354   5.910   5.299 -0.1321  0.6331  0.0475
  615MOL0     C82928   4.500   5.881   5.255  0.1664  0.0988  0.0904
  615MOL0     C82929   4.561   5.735   5.289  0.4267  1.1862  0.2327
  615MOL0     C82930   4.626   5.732   5.429 -0.5166  0.4155  1.0049
  615MOL0     C82931   4.682   5.598   5.459  0.2950 -0.6760 -0.0957
  615MOL0     C82932   4.776   5.596   5.574 -0.6465 -0.6316  0.2082
  615MOL0     C82933   4.763   5.476   5.659  0.3891 -0.1348  1.0088
  615MOL0    Cl82934   4.881   5.482   5.800 -0.4625 -0.2957 -0.1929
  615MOL0     C82935   4.018   6.133   5.334  0.3163 -0.5340  0.8412
  615MOL0     C82936   3.881   6.109   5.339  0.2835  0.3163  0.3845
  615MOL0     O82937   3.648   5.873   5.171  0.1011 -0.6179  0.2703
  615MOL0     C82938   3.354   5.925   5.175  0.4598  0.6903  0.1748
  615MOL0     C82939   3.220   5.937   5.207 -0.8014  0.0072 -0.4103
  615MOL0     N82940   2.860   5.642   5.785 -0.5194  0.1594  0.1444
  615MOL0     N82941   2.751   5.639   5.861 -0.3394 -0.3730  0.1742
  615MOL0     C82942   1.608   5.566   5.158 -0.2949 -0.4699 -0.2449
  615MOL0     C82943   1.472   5.597   5.121 -0.1027 -0.2420  0.4295
  615MOL0     C82944   1.034   5.688   5.176 -0.9257  0.3388 -0.1325
  615MOL0     C82945   1.018   5.740   5.047 -0.4881  0.6654 -0.2931
  615MOL0     C82946   0.896   5.734   4.980  0.4515 -0.3807 -0.4969
  615MOL0     C82947   0.785   5.685   5.047 -1.3202 -0.3238 -0.5928
  615MOL0     O82948   0.658   5.686   4.984 -0.5015 -0.3531 -0.4905
  615MOL0     C82949   0.567   5.588   5.026  0.5856 -0.6449  0.2613
  615MOL0     C82950   0.456   5.561   4.927 -0.2832 -0.1866  0.4467
  615MOL0     C82951   0.496   5.488   4.799 -0.0951 -0.1351 -0.7741
  615MOL0     C82952   0.489   5.332   4.815 -0.7083 -0.5761 -0.0496
  615MOL0     C82953   0.552   5.269   4.688 -0.3640 -0.1705  0.4583
  615MOL0     C82954   0.607   5.208   4.600 -0.3137  0.2875 -0.3230
  615MOL0     C82955   0.798   5.641   5.178  0.5760 -0.6390 -0.8074
  615MOL0     C82956   0.921   5.647   5.249 -0.0529  0.0963  0.2046
  615MOL0     C82957   0.933   5.599   5.392 -0.5522 -0.8085 -1.1626
  615MOL0     H82958   1.434   5.886   5.292 -3.2793 -1.8869 -1.3454
  615MOL0     H82959   1.652   5.835   5.366 -1.7703  1.6624 -0.3859
  615MOL0     H82960   1.897   5.731   5.393  0.2662  0.0193  0.6773
  615MOL0     H82961   1.770   5.635   5.478 -1.2654  2.1969 -1.2314
  615MOL0     H82962   2.011   5.518   5.340 -1.3301  0.0351 -0.8427
  615MOL0     H82963   1.913   5.428   5.467  3.4939 -1.7305 -0.0009
  615MOL0     H82964   1.996   5.578   5.649 -2.0237 -1.2792 -0.7640
  615MOL0     H82965   2.068   5.674   5.519 -1.7632  0.6875 -0.5845
  615MOL0     H82966   2.131   5.377   5.554 -1.6205 -0.1421 -2.5647
  615MOL0     H82967   2.226   5.483   5.454  2.0439 -0.0319  0.7915
  615MOL0     H82968   2.280   5.629   5.659 -0.5153 -0.0352  2.2861
  615MOL0     H82969   2.196   5.514   5.758 -1.6465  2.2497  0.0085
  615MOL0     H82970   2.356   5.341   5.662 -2.5395  0.5358 -1.3499
  615MOL0     H82971   2.458   5.456   5.590  0.2108  1.7211  0.6095
  615MOL0     H82972   2.541   5.404   5.808 -2.0645 -0.5198 -0.1292
  615MOL0     H82973   2.399   5.455   5.896 -0.5382  0.3040  0.8034
  615MOL0     H82974   2.451   5.700   5.798  0.1782  0.7743  2.6423
  615MOL0     H82975   2.519   5.625   5.945  2.2259  0.6296  0.6199
  615MOL0     H82976   2.627   5.643   5.558  2.6338  2.2811 -1.2728
  615MOL0     H82977   3.022   5.614   5.573  0.6380 -0.7921 -0.6744
  615MOL0     H82978   2.885   5.552   5.473 -0.2784 -0.4579  1.2648
  615MOL0     H82979   2.986   5.749   5.368 -1.4099  0.0963 -0.9968
  615MOL0     H82980   2.823   5.790   5.420  0.7836  2.1031 -1.6280
  615MOL0     H82981   3.099   5.840   5.554 -1.2907 -3.5141  1.3784
  615MOL0     H82982   2.956   5.888   5.639  0.3570  0.6477 -0.3373
  615MOL0     H82983   3.052   6.082   5.539  2.8146  0.3627 -2.1637
  615MOL0     H82984   2.891   6.053   5.464  1.6319  3.2761 -1.3726
  615MOL0     H82985   3.253   6.103   5.504 -0.7437  1.9203 -1.0086
  615MOL0     H82986   3.492   6.107   5.433  0.4213 -2.1022  1.0079
  615MOL0     H82987   3.810   6.129   5.009  0.0379  0.4141 -1.0730
  615MOL0     H82988   4.071   6.076   5.009  0.8369  4.8166 -0.9556
  615MOL0     H82989   4.406   6.121   5.313 -0.4659 -0.3900 -3.6063
  615MOL0     H82990   4.261   6.065   5.402  0.3839  0.9508 -0.7413
  615MOL0     H82991   4.349   5.854   5.393  0.3121 -2.2845 -1.5388
  615MOL0     H82992   4.286   5.861   5.229 -0.1845 -2.2535  1.9306
  615MOL0     H82993   4.508   5.876   5.146 -2.1686  2.2274 -0.2771
  615MOL0     H82994   4.556   5.965   5.296  0.8773  0.2812 -1.1990
  615MOL0     H82995   4.632   5.694   5.216  0.8282 -0.4240  1.4687
  615MOL0     H82996   4.478   5.664   5.302  2.1972 -0.6447  2.2821
  615MOL0     H82997   4.552   5.761   5.504 -1.1267  0.7540  0.2848
  615MOL0     H82998   4.700   5.812   5.435  1.7698 -1.6194  1.5816
  615MOL0     H82999   4.601   5.526   5.473  1.3737 -1.6644  1.4429
  615MOL0     H83000   4.739   5.544   5.383  1.3633  0.3539 -0.0550
  615MOL0     H83001   4.752   5.685   5.633 -0.0131  0.8794 -1.7275
  615MOL0     H83002   4.879   5.606   5.539 -1.1334 -0.2433 -1.1766
  615MOL0     H83003   4.657   5.462   5.681 -0.4853  1.6589 -1.5305
  615MOL0     H83004   4.789   5.387   5.600 -0.4982  0.5931 -0.5515
  615MOL0     H83005   4.068   6.166   5.425  0.7408  2.4741 -0.3438
  615MOL0     H83006   3.843   6.103   5.440  0.6799 -3.7306  0.4543
  615MOL0     H83007   3.380   5.885   5.078  1.1441 -2.5123  1.5341
  615MOL0     H83008   3.148   5.893   5.139 -0.1219 -1.3322 -0.2965
  615MOL0     H83009   1.654   5.487   5.100 -0.1644  0.4301 -1.3973
  615MOL0     H83010   1.422   5.539   5.044 -0.8162 -2.4675  2.4675
  615MOL0     H83011   1.108   5.772   4.995  1.7890 -0.6888  2.5237
  615MOL0     H83012   0.883   5.759   4.875  1.3586 -2.7748 -1.2616
  615MOL0     H83013   0.506   5.628   5.107 -1.7733 -1.5062 -0.9873
  615MOL0     H83014   0.620   5.497   5.055  2.9042 -0.8260 -3.8469
  615MOL0     H83015   0.409   5.657   4.904 -0.4665 -0.0004  1.5467
  615MOL0     H83016   0.374   5.499   4.965 -2.2455  2.0239  0.0618
  615MOL0     H83017   0.593   5.528   4.768 -1.0917  1.1312 -2.4847
  615MOL0     H83018   0.426   5.512   4.718  1.6908 -0.3461 -2.4570
  615MOL0     H83019   0.539   5.304   4.908 -1.5424  2.6474  1.4923
  615MOL0     H83020   0.380   5.323   4.827 -0.7980  2.3919  2.4174
  615MOL0     H83021   0.637   5.151   4.515 -0.7853 -1.4153  0.6046
  615MOL0     H83022   0.709   5.606   5.229 -0.1132  1.0916 -0.7471
  615MOL0     H83023   0.963   5.675   5.465  1.8482 -0.9506 -1.9273
  615MOL0     H83024   0.829   5.581   5.422 -0.6080  0.8212 -0.2465
  615MOL0     H83025   1.001   5.516   5.413 -1.3916 -0.7548  2.3498
  616MOL0     O83026   6.306   4.626   2.846 -0.1766  0.7881  0.2706
  616MOL0     C83027   6.262   4.512   2.805 -0.2426 -0.1169  0.1045
  616MOL0     O83028   6.325   4.391   2.832  1.2537  0.0938  0.3943
  616MOL0     C83029   6.451   4.374   2.860 -0.1103 -0.1823 -0.0730
  616MOL0     C83030   6.554   4.451   2.808 -0.3594 -0.2230  0.0555
  616MOL0     C83031   6.685   4.390   2.815  0.3483 -0.7701 -0.0138
  616MOL0     C83032   6.720   4.294   2.901 -0.4585  0.8916  0.0835
  616MOL0     O83033   6.851   4.262   2.927  0.8238  0.2670  0.2883
  616MOL0     C83034   6.930   4.371   2.971 -1.0237 -0.0920 -0.3328
  616MOL0     C83035   7.061   4.292   3.019  0.1524  0.1053 -0.0927
  616MOL0     C83036   7.133   4.383   3.119 -0.5345  0.6421 -0.7382
  616MOL0     C83037   7.270   4.319   3.161  1.0912 -0.5604  0.5007
  616MOL0     C83038   7.359   4.412   3.250  0.4738  0.3061 -0.9133
  616MOL0     C83039   7.500   4.357   3.254  0.0878 -1.0206 -0.6539
  616MOL0     C83040   7.607   4.414   3.164 -0.7793 -0.5164  0.4938
  616MOL0     C83041   7.724   4.307   3.155  0.2987  0.1837 -0.0789
  616MOL0     N83042   7.842   4.341   3.075 -0.4704 -0.2484  0.4763
  616MOL0     C83043   7.936   4.441   3.106  0.2144  0.9597  0.8113
  616MOL0     C83044   8.026   4.413   3.010 -0.4205 -0.3017 -0.6721
  616MOL0     C83045   8.148   4.497   2.977  0.7990  0.0574  0.4013
  616MOL0     C83046   8.244   4.424   2.887 -0.4130  0.3680  0.4117
  616MOL0     C83047   8.363   4.515   2.872  0.7473 -0.7304 -0.0739
  616MOL0     C83048   8.493   4.435   2.827 -0.2508 -0.7468 -0.0677
  616MOL0     O83049   8.588   4.533   2.811  0.5204 -0.1125  0.6113
  616MOL0     C83050   8.697   4.495   2.736  0.0321 -0.0634  0.3820
  616MOL0     C83051   8.728   4.369   2.689 -0.1073  0.6200 -0.1424
  616MOL0     C83052   8.825   4.333   2.594  0.4632 -0.4559  0.2277
  616MOL0     C83053   8.903   4.442   2.546 -0.0134  0.7187 -0.2028
  616MOL0     C83054   9.016   4.414   2.453 -0.0755 -0.9212 -0.1418
  616MOL0     O83055   9.063   4.512   2.367  0.7262 -0.2952  0.5663
  616MOL0     C83056   9.177   4.503   2.291 -0.5461  0.0121 -0.0176
  616MOL0     C83057   9.290   4.423   2.324  0.3852  0.3187  0.3362
  616MOL0     C83058   9.406   4.411   2.244 -1.0676  0.5984  0.2519
  616MOL0     C83059   9.409   4.485   2.121 -0.7759 -0.0157 -0.5442
  616MOL0     O83060   9.518   4.503   2.037 -0.4824  0.1560  0.0845
  616MOL0     C83061   9.643   4.469   2.097 -0.1106  0.0500  0.0491
  616MOL0     C83062   9.751   4.531   2.007  0.5771  0.2047  0.8117
  616MOL0     C83063   9.724   4.501   1.861 -0.5905  0.2884  0.1897
  616MOL0     C83064   9.806   4.586   1.766 -0.3124 -0.2631 -0.0643
  616MOL0     C83065   9.960   4.560   1.784 -0.1730 -0.3732 -0.1743
  616MOL0     C83066  10.046   4.677   1.716  0.1688 -0.1948 -0.1256
  616MOL0     C83067  10.186   4.667   1.770  0.3555  0.4646  0.1671
  616MOL0     C83068  10.286   4.771   1.724 -0.3729 -0.0428 -0.3841
  616MOL0    Cl83069  10.324   4.732   1.545  0.1449  0.4988 -0.2560
  616MOL0     C83070   9.299   4.562   2.089  0.3071 -0.1510  0.1246
  616MOL0     C83071   9.182   4.573   2.168  0.3951  1.3979 -0.5115
  616MOL0     O83072   9.054   4.300   2.461 -0.0977  0.2618  0.3839
  616MOL0     C83073   8.858   4.577   2.574 -0.4463 -0.1880  0.5529
  616MOL0     C83074   8.763   4.603   2.676 -0.1928  0.0270  0.5643
  616MOL0     N83075   7.972   4.320   2.921 -0.1175  1.1314  0.1857
  616MOL0     N83076   7.863   4.269   2.965  0.2876  0.5153  0.5134
  616MOL0     C83077   6.617   4.223   2.954 -0.6200  0.2741 -0.3935
  616MOL0     C83078   6.483   4.257   2.928 -0.2015 -0.6453 -0.3825
  616MOL0     C83079   6.126   4.514   2.747  0.3466 -0.1079 -0.3813
  616MOL0     C83080   6.050   4.638   2.758  0.9383 -0.8366 -0.9313
  616MOL0     C83081   5.925   4.652   2.685  0.2641  0.2454 -1.0332
  616MOL0     C83082   5.882   4.554   2.587  0.6633 -0.0394  0.5716
  616MOL0     O83083   5.768   4.552   2.505  0.1469  0.1603 -0.4355
  616MOL0     C83084   5.663   4.653   2.502 -0.8508  0.3155  0.2600
  616MOL0     C83085   5.560   4.577   2.586  0.1334 -0.7894  0.3997
  616MOL0     C83086   5.474   4.683   2.660  0.2425  0.2236 -0.9179
  616MOL0     C83087   5.372   4.608   2.745  0.7802 -0.7984 -0.3638
  616MOL0     C83088   5.254   4.560   2.669  0.0554  0.3290 -0.2286
  616MOL0     C83089   5.164   4.508   2.610  0.9756 -0.0269  0.9739
  616MOL0     C83090   5.952   4.438   2.586 -0.7445  0.7832 -0.2519
  616MOL0     C83091   6.067   4.414   2.661  0.7517 -0.8707 -0.7868
  616MOL0     C83092   6.121   4.273   2.650  0.2428 -0.0473  0.7061
  616MOL0     H83093   6.542   4.545   2.755 -0.1272  0.3834  1.0476
  616MOL0     H83094   6.765   4.441   2.762  0.6273 -1.9172 -0.7339
  616MOL0     H83095   6.966   4.446   2.900  2.3379 -0.8541  0.3632
  616MOL0     H83096   6.888   4.414   3.062 -1.7383  0.2241 -0.8050
  616MOL0     H83097   7.120   4.287   2.927  0.2556 -0.0558 -0.0163
  616MOL0     H83098   7.045   4.195   3.067  2.8718  0.6562  2.1356
  616MOL0     H83099   7.070   4.401   3.206  2.0115  3.4655  0.6861
  616MOL0     H83100   7.143   4.477   3.064  0.0759 -0.2082 -2.1345
  616MOL0     H83101   7.239   4.228   3.215 -1.8751  2.0923  3.8227
  616MOL0     H83102   7.327   4.290   3.072 -1.1632 -1.6100 -0.6785
  616MOL0     H83103   7.351   4.516   3.216 -1.3831  0.7812  0.7869
  616MOL0     H83104   7.319   4.403   3.351  3.0626 -0.7946  0.0936
  616MOL0     H83105   7.542   4.364   3.355 -1.5476 -2.3915  0.1827
  616MOL0     H83106   7.493   4.248   3.248 -0.2797 -1.1168  1.1159
  616MOL0     H83107   7.645   4.509   3.203 -2.3780  1.0892 -1.6390
  616MOL0     H83108   7.564   4.427   3.065  3.1983  0.6244 -1.2769
  616MOL0     H83109   7.750   4.289   3.259 -1.6673 -1.5793  0.1898
  616MOL0     H83110   7.675   4.215   3.122  0.3971  0.9618 -2.6049
  616MOL0     H83111   7.924   4.519   3.181 -4.4264 -2.6959  4.4958
  616MOL0     H83112   8.111   4.591   2.936 -1.6014  0.5114  3.2886
  616MOL0     H83113   8.205   4.524   3.067  1.1329  2.3612 -0.4412
  616MOL0     H83114   8.270   4.335   2.945  0.6738  3.7836  5.8432
  616MOL0     H83115   8.202   4.407   2.787  0.0385 -0.9700  0.4254
  616MOL0     H83116   8.382   4.565   2.967 -3.4840 -4.8331  3.3950
  616MOL0     H83117   8.350   4.594   2.797  1.6775 -0.7375 -0.2669
  616MOL0     H83118   8.470   4.366   2.745  1.5837  0.5757 -1.7946
  616MOL0     H83119   8.519   4.378   2.916 -4.1860 -0.7394  1.3079
  616MOL0     H83120   8.671   4.289   2.736 -1.7236  1.1174 -1.2159
  616MOL0     H83121   8.843   4.227   2.581 -0.5533 -0.4275 -1.7109
  616MOL0     H83122   9.283   4.354   2.407  1.3192 -1.1864 -0.7899
  616MOL0     H83123   9.495   4.355   2.270 -0.4772  1.3450 -0.0978
  616MOL0     H83124   9.650   4.511   2.197 -1.8325  0.8914 -0.1465
  616MOL0     H83125   9.656   4.360   2.098 -0.3253 -0.0198 -1.3724
  616MOL0     H83126   9.733   4.638   2.020  0.6438  0.7243 -2.4800
  616MOL0     H83127   9.854   4.513   2.038 -0.1465 -3.3454  1.5504
  616MOL0     H83128   9.737   4.396   1.835 -0.4441  0.4959 -0.6302
  616MOL0     H83129   9.628   4.533   1.819  0.6283  1.3782 -1.9320
  616MOL0     H83130   9.785   4.693   1.774  2.2417  0.3578 -0.7718
  616MOL0     H83131   9.788   4.561   1.661  3.6642  2.9539 -1.7673
  616MOL0     H83132   9.987   4.467   1.733 -0.2262  0.2474 -1.3804
  616MOL0     H83133   9.981   4.551   1.891 -2.4026 -4.1524  0.1479
  616MOL0     H83134  10.041   4.668   1.607  0.7653 -3.4880  0.0074
  616MOL0     H83135  10.001   4.772   1.746  1.6576  0.2975  0.5896
  616MOL0     H83136  10.232   4.569   1.753  2.9673  1.8455 -1.3712
  616MOL0     H83137  10.183   4.690   1.877  2.1411  1.1721  0.0914
  616MOL0     H83138  10.248   4.873   1.740 -2.0264 -0.4057 -1.7247
  616MOL0     H83139  10.372   4.764   1.791 -0.8343 -0.4932  0.1711
  616MOL0     H83140   9.302   4.624   1.999 -1.9192  2.4304  1.6618
  616MOL0     H83141   9.093   4.626   2.137 -0.0387  0.6112 -0.6644
  616MOL0     H83142   8.923   4.653   2.533 -1.1228  1.1008  1.7698
  616MOL0     H83143   8.754   4.703   2.717  0.2664 -0.8023  2.8481
  616MOL0     H83144   6.642   4.144   3.024 -1.7677  2.3848  2.6089
  616MOL0     H83145   6.417   4.190   2.982 -1.2560 -0.2034 -1.0873
  616MOL0     H83146   6.086   4.710   2.831 -0.4377 -1.0014 -0.0755
  616MOL0     H83147   5.872   4.747   2.693 -0.6133 -0.1369 -1.9917
  616MOL0     H83148   5.632   4.662   2.397  1.0987 -0.5316 -0.4335
  616MOL0     H83149   5.689   4.748   2.549 -0.9601 -0.2380  1.4664
  616MOL0     H83150   5.600   4.515   2.667 -0.7640 -0.4312  1.1338
  616MOL0     H83151   5.497   4.507   2.531  0.6098  0.1260 -1.3768
  616MOL0     H83152   5.418   4.750   2.595 -2.1908 -1.0867 -0.3012
  616MOL0     H83153   5.552   4.734   2.717 -0.2422 -0.0310  0.0077
  616MOL0     H83154   5.428   4.530   2.797  0.7682 -0.7515 -0.2805
  616MOL0     H83155   5.335   4.674   2.824 -3.6451 -1.2776 -1.7041
  616MOL0     H83156   5.089   4.474   2.541  0.2275  3.0451  0.0825
  616MOL0     H83157   5.933   4.363   2.510  3.5388 -0.7551 -0.0986
  616MOL0     H83158   6.132   4.230   2.750  1.3316 -1.2523  0.0823
  616MOL0     H83159   6.046   4.211   2.600  0.3937 -1.0543  1.6942
  616MOL0     H83160   6.215   4.282   2.596  0.1620  0.2937  0.6160
  617MOL0     O83161   0.470   7.791   8.144  1.0678  0.4174 -0.2410
  617MOL0     C83162   0.441   7.891   8.082 -0.0536  0.5967  0.2559
  617MOL0     O83163   0.528   7.958   8.007  0.3405  0.4745 -0.6149
  617MOL0     C83164   0.660   7.967   8.032  0.2287 -0.0973  0.4356
  617MOL0     C83165   0.713   8.079   7.965  1.5723 -0.8630  0.3270
  617MOL0     C83166   0.841   8.122   7.992  1.1438 -0.3183 -0.0237
  617MOL0     C83167   0.921   8.050   8.083  0.6487  0.0272 -0.0218
  617MOL0     O83168   1.048   8.091   8.142  0.1492  0.3256  0.0908
  617MOL0     C83169   1.092   8.216   8.096  0.1326  0.4800 -1.3374
  617MOL0     C83170   1.235   8.242   8.131  0.3769  0.2114  0.2284
  617MOL0     C83171   1.271   8.266   8.280  0.3819  0.0169 -0.2423
  617MOL0     C83172   1.415   8.282   8.307 -0.0123  0.3243 -0.0623
  617MOL0     C83173   1.450   8.299   8.461 -1.0790  0.1933  0.2629
  617MOL0     C83174   1.420   8.442   8.517  0.3537  0.5746 -0.1792
  617MOL0     C83175   1.488   8.462   8.663 -0.5725  0.5094 -0.1562
  617MOL0     C83176   1.450   8.598   8.716  0.2802 -0.4795  0.7435
  617MOL0     N83177   1.480   8.635   8.853 -0.4341 -0.7231  0.3628
  617MOL0     C83178   1.439   8.582   8.969 -1.1724  0.6417 -0.6890
  617MOL0     C83179   1.519   8.620   9.066 -0.6199 -0.0502  0.1666
  617MOL0     C83180   1.521   8.578   9.209  0.4870 -0.2385  0.4171
  617MOL0     C83181   1.453   8.440   9.226 -0.7688  0.8137 -0.3205
  617MOL0     C83182   1.464   8.365   9.362 -0.9305  0.0677 -0.4787
  617MOL0     C83183   1.492   8.452   9.485  0.0426  0.8726  0.1927
  617MOL0     O83184   1.411   8.578   9.476  0.0912  0.7073 -0.1526
  617MOL0     C83185   1.410   8.675   9.579  0.0500 -0.0004  1.6232
  617MOL0     C83186   1.503   8.684   9.679  0.3324  0.8847 -0.9411
  617MOL0     C83187   1.491   8.783   9.777  0.3753  0.1708  1.0585
  617MOL0     C83188   1.379   8.861   9.788  0.6609  0.0531  0.4248
  617MOL0     C83189   1.358   8.945   9.910  0.4782  0.2029  0.6165
  617MOL0     O83190   1.439   8.918  10.018  0.4287 -0.4365  0.0964
  617MOL0     C83191   1.450   9.016  10.118 -0.0451 -0.2447  1.7069
  617MOL0     C83192   1.572   9.027  10.174 -0.2834 -0.1774  1.0051
  617MOL0     C83193   1.589   9.085  10.303 -0.6893 -0.2016 -0.1935
  617MOL0     C83194   1.486   9.153  10.366  0.8227 -0.4189 -1.2824
  617MOL0     O83195   1.503   9.230  10.478 -0.2689  0.0990  0.2603
  617MOL0     C83196   1.473   9.183  10.610  0.1128  0.0440  0.7610
  617MOL0     C83197   1.591   9.123  10.677 -1.6281 -0.2652  0.5754
  617MOL0     C83198   1.714   9.220  10.666 -0.0657  0.4678 -0.5890
  617MOL0     C83199   1.837   9.188  10.755  0.0726  0.2782  0.1767
  617MOL0     C83200   1.867   9.037  10.761  0.0635  0.8404  0.4650
  617MOL0     C83201   2.011   9.021  10.792 -0.5159  0.0135 -0.4546
  617MOL0     C83202   2.048   8.874  10.811 -0.3607  0.9297 -0.4690
  617MOL0     C83203   2.187   8.861  10.866  0.1698 -0.1629 -0.7278
  617MOL0    Cl83204   2.216   8.904  11.034  0.0214 -0.0950 -0.0058
  617MOL0     C83205   1.365   9.156  10.293 -0.5687  0.5544 -0.1567
  617MOL0     C83206   1.342   9.087  10.181 -0.5920  0.2449  0.1192
  617MOL0     O83207   1.292   9.053   9.897 -0.4668  0.1285 -0.3638
  617MOL0     C83208   1.274   8.852   9.688 -0.1656  0.3138  0.8003
  617MOL0     C83209   1.288   8.751   9.590  0.0582 -0.3309  0.1146
  617MOL0     N83210   1.622   8.703   9.005 -0.2390 -0.2992 -0.2844
  617MOL0     N83211   1.591   8.708   8.883  0.5469  0.2308 -0.0638
  617MOL0     C83212   0.870   7.921   8.133 -0.3687  0.5505  0.4019
  617MOL0     C83213   0.744   7.883   8.098 -0.5173 -0.8491  0.5446
  617MOL0     C83214   0.296   7.935   8.086  0.3141 -0.0971 -0.1082
  617MOL0     C83215   0.221   7.867   8.181 -1.1106  0.3146  0.8662
  617MOL0     C83216   0.088   7.890   8.189  0.2153  0.4348 -0.3877
  617MOL0     C83217   0.024   7.981   8.108 -0.1458 -0.9526 -0.1822
  617MOL0     O83218  -0.104   8.011   8.111  0.2618 -0.0797 -0.4796
  617MOL0     C83219  -0.200   7.937   8.192  0.1168 -0.4464 -0.2719
  617MOL0     C83220  -0.344   7.990   8.189 -0.3576 -0.0336  0.0929
  617MOL0     C83221  -0.445   7.903   8.254 -1.2461  0.0750 -1.0002
  617MOL0     C83222  -0.591   7.937   8.239 -0.1952  0.0904 -0.2539
  617MOL0     C83223  -0.624   7.984   8.101 -0.4497 -0.4727 -0.8059
  617MOL0     C83224  -0.655   8.018   7.985 -0.6326 -0.4266 -0.0349
  617MOL0     C83225   0.104   8.061   8.020 -0.2397  0.0198 -0.4747
  617MOL0     C83226   0.238   8.036   7.999  0.2092  0.0700 -0.6776
  617MOL0     C83227   0.302   8.085   7.871 -0.0503 -0.1072 -0.6135
  617MOL0     H83228   0.649   8.130   7.894  0.0018  0.7198  2.7340
  617MOL0     H83229   0.882   8.206   7.936 -0.7040 -0.5765 -1.9141
  617MOL0     H83230   1.085   8.228   7.988 -5.8901  3.7191 -1.0058
  617MOL0     H83231   1.036   8.293   8.149  2.2049  0.9033  0.4044
  617MOL0     H83232   1.248   8.340   8.084 -0.9604  0.7778  0.9760
  617MOL0     H83233   1.287   8.158   8.084  1.5850 -0.3694  2.5040
  617MOL0     H83234   1.237   8.170   8.320 -0.6750 -0.1297 -1.4110
  617MOL0     H83235   1.224   8.350   8.332  0.6743 -0.9284  1.6498
  617MOL0     H83236   1.455   8.196   8.251 -1.0693  0.2416 -0.7136
  617MOL0     H83237   1.459   8.366   8.253  0.2293 -1.1600 -2.3272
  617MOL0     H83238   1.388   8.227   8.515  0.0491 -0.4454  0.7365
  617MOL0     H83239   1.556   8.280   8.480 -0.2228  1.1485 -3.0153
  617MOL0     H83240   1.453   8.526   8.455  0.2906  1.4746  0.9885
  617MOL0     H83241   1.312   8.452   8.523  0.1642 -1.7447  1.3677
  617MOL0     H83242   1.595   8.445   8.656 -0.8015 -0.1338 -3.5463
  617MOL0     H83243   1.438   8.394   8.732  0.3680 -0.1267 -0.0916
  617MOL0     H83244   1.503   8.672   8.654  1.6933 -2.1741 -0.1542
  617MOL0     H83245   1.343   8.615   8.706 -0.0734 -2.1585  1.4457
  617MOL0     H83246   1.358   8.511   8.985  1.6854 -2.4998  1.1905
  617MOL0     H83247   1.618   8.570   9.259  0.2361  0.0259  0.9647
  617MOL0     H83248   1.463   8.653   9.264 -3.2845 -2.1678 -0.6153
  617MOL0     H83249   1.348   8.446   9.195 -1.6109 -2.3381  1.4666
  617MOL0     H83250   1.497   8.368   9.157 -3.4395 -1.8035  0.4927
  617MOL0     H83251   1.548   8.295   9.354  0.2132  1.5356 -1.7191
  617MOL0     H83252   1.373   8.306   9.376  0.6990 -2.6091 -0.4436
  617MOL0     H83253   1.599   8.474   9.477  0.5908 -1.3257  0.5653
  617MOL0     H83254   1.469   8.392   9.574  0.7224 -1.1768 -0.9463
  617MOL0     H83255   1.587   8.615   9.673  1.6881  2.3611  0.0594
  617MOL0     H83256   1.578   8.788   9.843  1.2336 -1.1953  0.0810
  617MOL0     H83257   1.655   8.991  10.113 -0.6803  2.2009 -1.0988
  617MOL0     H83258   1.683   9.085  10.357 -0.9905  1.0920  0.3791
  617MOL0     H83259   1.445   9.278  10.657 -3.1433  1.2369 -2.9954
  617MOL0     H83260   1.390   9.112  10.610 -1.4913  1.8140  1.8864
  617MOL0     H83261   1.565   9.107  10.782  0.2326 -0.3519  1.0544
  617MOL0     H83262   1.607   9.024  10.633  1.4576  1.0276 -1.5368
  617MOL0     H83263   1.749   9.213  10.562  0.4353 -2.0558 -0.2941
  617MOL0     H83264   1.687   9.326  10.676  0.9686  0.6298  0.8613
  617MOL0     H83265   1.822   9.222  10.858  1.6538 -0.5594  0.7248
  617MOL0     H83266   1.931   9.233  10.720  0.5386  1.4584  2.6835
  617MOL0     H83267   1.846   8.997  10.662 -0.0680 -0.1533  0.8817
  617MOL0     H83268   1.801   8.992  10.836 -0.9543  0.3742 -0.6830
  617MOL0     H83269   2.066   9.062  10.707  1.8759  0.3965  1.1852
  617MOL0     H83270   2.048   9.080  10.876  1.7940  1.4917 -2.3543
  617MOL0     H83271   2.039   8.827  10.712 -2.4710  3.5370 -1.6648
  617MOL0     H83272   1.983   8.826  10.885 -2.4830  0.4098 -2.5384
  617MOL0     H83273   2.221   8.757  10.866  6.1983  1.4068  0.3393
  617MOL0     H83274   2.263   8.915  10.809 -0.3348 -0.9411 -2.1861
  617MOL0     H83275   1.276   9.213  10.320 -1.2825  1.0188 -3.1477
  617MOL0     H83276   1.243   9.092  10.136  0.0364  1.8208 -1.1568
  617MOL0     H83277   1.184   8.911   9.676  0.8080  1.7640  0.4846
  617MOL0     H83278   1.210   8.712   9.526  0.2265 -0.0383 -0.2699
  617MOL0     H83279   0.935   7.858   8.192 -0.4683 -0.5758 -0.6615
  617MOL0     H83280   0.691   7.793   8.126 -3.5982  0.8636  0.6485
  617MOL0     H83281   0.277   7.804   8.249  2.3048  0.0370 -1.9071
  617MOL0     H83282   0.038   7.841   8.272 -0.5937 -0.5904 -1.4609
  617MOL0     H83283  -0.165   7.946   8.295 -0.0090  2.8042 -0.4249
  617MOL0     H83284  -0.199   7.834   8.155 -0.3427 -0.1763 -1.0795
  617MOL0     H83285  -0.368   8.024   8.087  0.0301 -0.5980 -0.1876
  617MOL0     H83286  -0.357   8.071   8.261  1.3302 -1.4813  2.1279
  617MOL0     H83287  -0.422   7.899   8.361  0.2759 -0.9326 -1.3295
  617MOL0     H83288  -0.428   7.805   8.207 -0.5334  0.1287 -0.8699
  617MOL0     H83289  -0.651   7.848   8.261  0.5160 -0.8293 -1.8769
  617MOL0     H83290  -0.613   8.007   8.321  2.1840 -2.1173  2.4427
  617MOL0     H83291  -0.674   8.042   7.882  0.6895 -0.2437 -0.2500
  617MOL0     H83292   0.068   8.146   7.963 -0.2104 -0.2514 -0.9056
  617MOL0     H83293   0.377   8.162   7.887  2.5900 -2.5981 -0.0491
  617MOL0     H83294   0.353   8.005   7.816  2.1797  0.2059  0.8718
  617MOL0     H83295   0.227   8.124   7.802  1.3766  1.2636 -1.4424
  618MOL0     O83296   3.362   0.821  10.602  0.2403  0.5007  1.1347
  618MOL0     C83297   3.276   0.770  10.674 -0.5822  1.4945 -0.3466
  618MOL0     O83298   3.293   0.739  10.809 -0.2201 -0.2438 -0.7577
  618MOL0     C83299   3.419   0.740  10.867  0.8459  0.0425  0.4656
  618MOL0     C83300   3.478   0.863  10.902  0.7893  0.8196 -0.3350
  618MOL0     C83301   3.607   0.860  10.975  0.4006  0.0374  0.0729
  618MOL0     C83302   3.651   0.745  11.023  0.0397 -0.0541 -0.5343
  618MOL0     O83303   3.763   0.722  11.101  0.3713  0.1586 -1.1347
  618MOL0     C83304   3.845   0.838  11.138  0.3548 -0.8420  0.5056
  618MOL0     C83305   3.956   0.792  11.222  0.3957 -0.4475 -0.6671
  618MOL0     C83306   4.043   0.905  11.265 -0.6681  0.1871  0.4310
  618MOL0     C83307   4.111   0.882  11.405 -0.7040  0.1427  0.4812
  618MOL0     C83308   4.255   0.834  11.393 -0.0180 -0.8702 -0.0131
  618MOL0     C83309   4.357   0.951  11.363 -0.0906  0.3590  0.1600
  618MOL0     C83310   4.413   1.007  11.492  0.3197  0.4349 -0.0694
  618MOL0     C83311   4.515   1.120  11.482  0.5014  0.6986 -0.3581
  618MOL0     N83312   4.647   1.073  11.452  0.1140  0.0625  0.3115
  618MOL0     C83313   4.690   1.010  11.336 -0.4765 -0.6446 -0.3229
  618MOL0     C83314   4.820   0.990  11.366 -0.1197 -0.7206  0.5157
  618MOL0     C83315   4.923   0.955  11.261 -0.5331  0.0200 -0.3307
  618MOL0     C83316   4.880   0.827  11.181 -0.3141  0.4148 -0.0883
  618MOL0     C83317   4.973   0.832  11.057  0.6654  0.2605  0.0229
  618MOL0     C83318   5.059   0.706  11.057 -0.9296 -0.6226 -0.3913
  618MOL0     O83319   5.138   0.713  11.183 -0.1762 -0.6039 -1.0271
  618MOL0     C83320   5.243   0.628  11.199 -0.6973  0.5002 -0.3144
  618MOL0     C83321   5.316   0.645  11.311  0.0258 -0.3798  0.3178
  618MOL0     C83322   5.434   0.578  11.332 -0.2668  1.3642  1.1033
  618MOL0     C83323   5.474   0.482  11.239 -0.2822 -0.3902  1.3204
  618MOL0     C83324   5.606   0.421  11.239 -0.0733 -0.1784 -0.0575
  618MOL0     O83325   5.652   0.336  11.138  0.2995  0.4744  0.1148
  618MOL0     C83326   5.778   0.271  11.150  0.4053 -0.4436 -0.1669
  618MOL0     C83327   5.866   0.259  11.039  0.0182  0.9708  0.0388
  618MOL0     C83328   5.995   0.205  11.056 -1.3805  0.8499  0.3662
  618MOL0     C83329   6.024   0.132  11.171  0.0422 -0.7125  0.5506
  618MOL0     O83330   6.131   0.052  11.174  0.5708  0.6720 -0.2519
  618MOL0     C83331   6.241   0.051  11.086  0.4586 -0.1926  0.0753
  618MOL0     C83332   6.220  -0.025  10.958 -0.2537 -0.3598 -0.4186
  618MOL0     C83333   6.351  -0.048  10.885 -0.6453  1.0047 -0.4168
  618MOL0     C83334   6.427  -0.174  10.928 -0.7985  0.1881 -0.2289
  618MOL0     C83335   6.558  -0.165  10.858  0.3114  0.3159 -0.9373
  618MOL0     C83336   6.634  -0.301  10.869  0.3588  0.2240  0.7490
  618MOL0     C83337   6.574  -0.417  10.780  0.3530 -0.5151  0.1806
  618MOL0     C83338   6.591  -0.389  10.629  0.3626  0.4910  0.1953
  618MOL0    Cl83339   6.693  -0.528  10.581 -0.1035 -0.3494  0.2096
  618MOL0     C83340   5.928   0.146  11.276 -0.9769  0.6549 -0.3925
  618MOL0     C83341   5.814   0.212  11.273  0.2289  0.1869 -0.0471
  618MOL0     O83342   5.671   0.452  11.342  0.1059  0.1801  0.5322
  618MOL0     C83343   5.394   0.455  11.129  0.5060 -0.1613 -1.3259
  618MOL0     C83344   5.282   0.535  11.105  0.4192  0.4403 -0.7212
  618MOL0     N83345   4.847   1.031  11.499 -0.0386  0.5002 -0.1823
  618MOL0     N83346   4.743   1.080  11.545  0.5680 -0.5050 -0.4681
  618MOL0     C83347   3.594   0.630  10.983  0.4706  0.1739  0.5787
  618MOL0     C83348   3.478   0.620  10.903 -0.8753  0.2243 -0.6360
  618MOL0     C83349   3.144   0.743  10.608 -1.0494 -0.4626  0.5753
  618MOL0     C83350   3.036   0.711  10.698 -0.9253  0.2001 -0.4755
  618MOL0     C83351   2.903   0.690  10.659 -0.1045  0.2583  0.6143
  618MOL0     C83352   2.867   0.705  10.521 -0.1034 -0.0468  0.3168
  618MOL0     O83353   2.738   0.687  10.478  1.2120 -1.1112 -0.6499
  618MOL0     C83354   2.693   0.556  10.502 -0.0344  0.2669  0.1073
  618MOL0     C83355   2.583   0.561  10.613 -0.2378 -0.7203 -0.3780
  618MOL0     C83356   2.467   0.647  10.575  0.2901 -0.5783  0.2956
  618MOL0     C83357   2.372   0.665  10.687  0.2829  0.4388 -1.3550
  618MOL0     C83358   2.249   0.724  10.644  0.4834  0.1254 -0.6235
  618MOL0     C83359   2.148   0.783  10.605  0.2508  0.8789  0.3501
  618MOL0     C83360   2.969   0.733  10.435 -0.0488 -0.0570  0.6880
  618MOL0     C83361   3.107   0.755  10.473 -0.3039  0.1346  0.8680
  618MOL0     C83362   3.203   0.809  10.374 -0.5990  0.0068  0.2936
  618MOL0     H83363   3.434   0.941  10.842 -0.3803  1.3708  1.1792
  618MOL0     H83364   3.654   0.958  10.981 -0.2760  0.4354 -0.8786
  618MOL0     H83365   3.887   0.875  11.044  1.3890 -0.4622  1.1023
  618MOL0     H83366   3.791   0.916  11.194 -0.2417 -0.4534 -0.5952
  618MOL0     H83367   4.013   0.719  11.164 -1.3495 -3.5183  1.2097
  618MOL0     H83368   3.922   0.746  11.316 -0.0000  1.5315  0.2025
  618MOL0     H83369   3.991   1.001  11.259  0.7129  0.9944  1.0692
  618MOL0     H83370   4.113   0.904  11.181  0.0223 -0.6277  0.9973
  618MOL0     H83371   4.112   0.980  11.454 -0.0005 -0.0840  0.9275
  618MOL0     H83372   4.053   0.811  11.465  0.4815  1.3839  3.2721
  618MOL0     H83373   4.276   0.785  11.489  0.4079 -0.9155 -0.1307
  618MOL0     H83374   4.262   0.752  11.320  0.0082 -1.9808  1.2004
  618MOL0     H83375   4.434   0.911  11.296 -1.0414  0.8248 -1.2601
  618MOL0     H83376   4.298   1.031  11.316 -0.7048 -2.2487 -3.9661
  618MOL0     H83377   4.457   0.921  11.543  3.3399  1.9019 -0.0145
  618MOL0     H83378   4.335   1.042  11.560 -0.3434 -4.5770  2.2057
  618MOL0     H83379   4.476   1.196  11.414 -2.4004  0.6853  1.1598
  618MOL0     H83380   4.519   1.161  11.583 -2.2702 -3.0446  1.5105
  618MOL0     H83381   4.636   0.994  11.243 -2.5473  2.9050  0.0795
  618MOL0     H83382   4.934   1.036  11.188 -1.3785  0.9449  0.5294
  618MOL0     H83383   5.016   0.938  11.315 -1.0933 -2.4816 -0.0485
  618MOL0     H83384   4.874   0.727  11.226 -0.0763  0.8444  0.9267
  618MOL0     H83385   4.779   0.841  11.143 -0.4210 -1.3491 -0.5773
  618MOL0     H83386   5.044   0.915  11.054  1.8326 -0.5362  2.5124
  618MOL0     H83387   4.910   0.845  10.969  0.0861  1.2675  0.5724
  618MOL0     H83388   5.129   0.698  10.973 -0.0952 -0.6067  0.2939
  618MOL0     H83389   4.995   0.618  11.062 -1.9711 -0.0423 -2.3968
  618MOL0     H83390   5.271   0.717  11.379  0.0375 -0.4872  0.4394
  618MOL0     H83391   5.496   0.602  11.418  0.0787  1.0061  0.9604
  618MOL0     H83392   5.842   0.311  10.946 -1.1061 -3.1569 -2.2388
  618MOL0     H83393   6.056   0.203  10.966 -2.8814 -1.7296 -0.7113
  618MOL0     H83394   6.294   0.146  11.080  0.5222 -0.0057  2.4516
  618MOL0     H83395   6.315  -0.017  11.130  1.2935  1.5064  1.3932
  618MOL0     H83396   6.170  -0.117  10.988  1.1303 -0.3834  2.0178
  618MOL0     H83397   6.154   0.030  10.889  1.7584 -0.3936 -2.4876
  618MOL0     H83398   6.316  -0.043  10.782  3.5116  1.0405 -2.0319
  618MOL0     H83399   6.419   0.036  10.903  0.2968  0.8077 -2.6907
  618MOL0     H83400   6.377  -0.259  10.881 -0.5064 -1.0551  1.5943
  618MOL0     H83401   6.442  -0.181  11.036  0.4711 -1.2316 -0.4662
  618MOL0     H83402   6.619  -0.086  10.903  0.4295 -0.1321 -0.3007
  618MOL0     H83403   6.549  -0.147  10.751  2.0378 -1.6605 -1.4800
  618MOL0     H83404   6.734  -0.277  10.833  0.7405 -2.1580 -0.0028
  618MOL0     H83405   6.645  -0.332  10.973  0.3268 -1.7656  0.2069
  618MOL0     H83406   6.469  -0.432  10.808 -0.5714  3.9553 -0.2039
  618MOL0     H83407   6.624  -0.510  10.809  1.8634  1.1335  3.3634
  618MOL0     H83408   6.487  -0.381  10.593 -1.6890 -2.2849  4.6383
  618MOL0     H83409   6.649  -0.297  10.617 -0.0094  0.8462  1.0605
  618MOL0     H83410   5.948   0.096  11.370 -2.3066  0.6399 -0.0854
  618MOL0     H83411   5.743   0.205  11.355 -2.5054 -1.9733 -2.3681
  618MOL0     H83412   5.417   0.373  11.062 -3.0919 -1.0433 -1.7030
  618MOL0     H83413   5.215   0.516  11.021 -0.8687 -0.0731  0.3756
  618MOL0     H83414   3.632   0.532  11.009 -1.1393 -1.8649 -3.7281
  618MOL0     H83415   3.437   0.527  10.864 -0.6637 -0.7299  1.3080
  618MOL0     H83416   3.055   0.706  10.804  2.3805  0.9592 -0.9077
  618MOL0     H83417   2.822   0.661  10.724 -1.9749  1.7963 -0.8912
  618MOL0     H83418   2.768   0.483  10.535  1.3414  0.6947 -1.8851
  618MOL0     H83419   2.645   0.528  10.408 -1.2326  0.9121  0.5091
  618MOL0     H83420   2.619   0.582  10.715 -1.1461  0.1620 -0.2283
  618MOL0     H83421   2.540   0.462  10.633  0.3721 -0.8798  0.1912
  618MOL0     H83422   2.409   0.591  10.501 -0.5747 -0.5131  0.9093
  618MOL0     H83423   2.497   0.736  10.519 -0.2316 -0.6372 -0.0861
  618MOL0     H83424   2.357   0.570  10.740 -1.5287  2.4560  2.0729
  618MOL0     H83425   2.425   0.720  10.765  0.5571 -2.3616  0.6039
  618MOL0     H83426   2.073   0.846  10.561  2.7397  1.4604 -3.6058
  618MOL0     H83427   2.930   0.743  10.334 -0.4929 -0.2101  0.8430
  618MOL0     H83428   3.198   0.916  10.393 -3.4988 -0.0893  0.5352
  618MOL0     H83429   3.305   0.772  10.386  0.5486  2.9225  0.1492
  618MOL0     H83430   3.177   0.782  10.271 -1.1200 -2.3629  0.9827
  619MOL0     O83431   4.909   9.939   8.128  0.0089 -0.1114  0.6584
  619MOL0     C83432   4.896  10.013   8.032  0.3186 -1.2130 -0.1674
  619MOL0     O83433   4.994  10.037   7.935  0.0814 -0.5487 -0.1795
  619MOL0     C83434   5.129  10.034   7.978 -1.1794 -0.1182  0.3296
  619MOL0     C83435   5.187  10.151   8.036 -0.5599 -0.3170 -0.0313
  619MOL0     C83436   5.318  10.150   8.070  0.1326 -0.5313  0.0695
  619MOL0     C83437   5.401  10.042   8.041  0.3082  0.9283 -0.3528
  619MOL0     O83438   5.543  10.052   8.063  0.0189 -0.0335  0.0128
  619MOL0     C83439   5.622  10.084   7.947  0.6114 -0.1351 -0.8466
  619MOL0     C83440   5.757  10.164   7.990  0.0253  0.5425 -0.5571
  619MOL0     C83441   5.732  10.291   8.082 -0.3812  1.3564  0.2779
  619MOL0     C83442   5.862  10.349   8.143  0.5700  0.1925  0.0939
  619MOL0     C83443   5.931  10.437   8.033 -0.0155 -0.2904  1.3300
  619MOL0     C83444   6.076  10.478   8.085  0.4623 -0.5073  0.8928
  619MOL0     C83445   6.151  10.519   7.960  0.3595  0.3380  0.7145
  619MOL0     C83446   6.285  10.569   8.006 -0.1963 -0.0589 -0.2291
  619MOL0     N83447   6.287  10.708   8.057  0.5292  0.8590  0.0955
  619MOL0     C83448   6.254  10.814   7.984  0.5077 -0.3744 -0.5042
  619MOL0     C83449   6.254  10.919   8.076 -0.0999 -0.0353  0.3401
  619MOL0     C83450   6.207  11.065   8.056  0.0423  0.1199 -0.7486
  619MOL0     C83451   6.105  11.101   8.147  0.7585  0.1121 -0.0669
  619MOL0     C83452   6.062  11.252   8.131 -0.6561  0.1708 -0.0002
  619MOL0     C83453   6.156  11.368   8.168 -0.7003 -1.0004 -0.1984
  619MOL0     O83454   6.222  11.363   8.295 -0.3856 -0.3742 -0.4203
  619MOL0     C83455   6.144  11.370   8.414 -0.6378 -0.0792  0.5378
  619MOL0     C83456   6.208  11.324   8.527  0.9004 -0.2661 -0.2239
  619MOL0     C83457   6.155  11.333   8.654  0.2539  0.3193 -0.1383
  619MOL0     C83458   6.037  11.399   8.675 -0.5213  0.1861  0.2752
  619MOL0     C83459   5.990  11.425   8.812  0.0666 -0.1864 -0.1448
  619MOL0     O83460   5.871  11.490   8.818 -0.1840  0.6952 -1.0000
  619MOL0     C83461   5.815  11.497   8.937 -0.1073 -0.0331  0.1302
  619MOL0     C83462   5.795  11.392   9.030  0.3451 -0.3109  0.5102
  619MOL0     C83463   5.733  11.423   9.155  1.1426 -0.9490  0.0057
  619MOL0     C83464   5.684  11.552   9.187  0.8559  0.3606  0.7916
  619MOL0     O83465   5.615  11.572   9.307 -0.0399  0.2301  0.3067
  619MOL0     C83466   5.605  11.707   9.368 -1.3120  0.2097  0.2129
  619MOL0     C83467   5.508  11.694   9.487 -0.3221  0.7953  0.0952
  619MOL0     C83468   5.501  11.832   9.556  0.1737  0.1843 -0.0506
  619MOL0     C83469   5.370  11.858   9.618  0.0871 -0.2600 -0.6272
  619MOL0     C83470   5.261  11.911   9.525 -0.1179 -0.3650  0.3476
  619MOL0     C83471   5.296  12.054   9.484 -0.5530 -0.0367 -0.0329
  619MOL0     C83472   5.163  12.122   9.452 -0.7130  0.2560  0.6021
  619MOL0     C83473   5.193  12.261   9.391 -0.4985 -0.3934  0.7215
  619MOL0    Cl83474   5.037  12.331   9.330  0.0353 -0.1073  0.1157
  619MOL0     C83475   5.685  11.648   9.084  0.0257 -0.4268  0.2081
  619MOL0     C83476   5.750  11.617   8.957  0.2601  0.4138  0.2431
  619MOL0     O83477   6.056  11.369   8.902 -0.0616 -0.2554 -0.3686
  619MOL0     C83478   5.961  11.434   8.555 -0.3667 -0.6163 -1.1494
  619MOL0     C83479   6.021  11.430   8.435  0.0192  0.4818 -0.6669
  619MOL0     N83480   6.292  10.873   8.200 -0.8649  0.5041 -0.8821
  619MOL0     N83481   6.317  10.745   8.184 -0.1184 -1.0739  0.7726
  619MOL0     C83482   5.355   9.923   7.976  0.6983 -0.5521  0.4269
  619MOL0     C83483   5.219   9.929   7.945 -0.0987  0.7915  0.4988
  619MOL0     C83484   4.762  10.068   8.007  0.7312 -0.1483  0.2024
  619MOL0     C83485   4.754  10.203   7.979  0.5518  0.2427  0.1751
  619MOL0     C83486   4.631  10.263   7.969 -0.2209 -0.2988  0.1103
  619MOL0     C83487   4.507  10.193   7.979  0.2677 -0.4377  0.4242
  619MOL0     O83488   4.383  10.254   7.974  0.0419 -0.2362  0.2287
  619MOL0     C83489   4.374  10.399   7.991 -0.7143 -0.3425  0.1843
  619MOL0     C83490   4.233  10.427   7.977  0.3942 -0.4308  0.0704
  619MOL0     C83491   4.206  10.582   8.015 -0.2501  0.2419  0.6806
  619MOL0     C83492   4.269  10.631   8.143 -0.6933  0.4621 -0.2767
  619MOL0     C83493   4.253  10.776   8.141  0.0244 -0.0209 -0.1402
  619MOL0     C83494   4.249  10.901   8.150  0.4846  0.7630 -0.6012
  619MOL0     C83495   4.517  10.052   7.993 -0.5606 -0.1935 -0.3294
  619MOL0     C83496   4.641   9.994   8.010 -0.3339  0.8765 -0.1405
  619MOL0     C83497   4.639   9.847   8.041 -0.6617  0.4256  0.7865
  619MOL0     H83498   5.129  10.242   8.048  1.9798  1.4099 -0.2293
  619MOL0     H83499   5.365  10.239   8.110 -1.6296  1.1612 -1.4417
  619MOL0     H83500   5.647   9.992   7.892  3.7803 -0.0948  0.2997
  619MOL0     H83501   5.572  10.159   7.885  1.5366  1.5068  0.3094
  619MOL0     H83502   5.816  10.182   7.899 -1.4447  1.7655 -1.3126
  619MOL0     H83503   5.828  10.102   8.046  0.7876  2.6262  0.9060
  619MOL0     H83504   5.653  10.269   8.155 -1.7506  2.8356 -0.6771
  619MOL0     H83505   5.674  10.361   8.021 -1.0085 -0.7299 -1.6372
  619MOL0     H83506   5.834  10.422   8.220 -0.5797  2.7960 -2.5868
  619MOL0     H83507   5.928  10.279   8.194  2.2895  1.4972 -0.2322
  619MOL0     H83508   5.938  10.389   7.935  1.1065 -0.1193  1.3158
  619MOL0     H83509   5.875  10.531   8.024 -1.3301 -0.8233  3.3058
  619MOL0     H83510   6.075  10.554   8.163  1.4595  0.0443  0.3859
  619MOL0     H83511   6.120  10.393   8.137  0.9438 -0.8791 -0.0876
  619MOL0     H83512   6.091  10.601   7.921 -1.6846 -0.1963  2.5166
  619MOL0     H83513   6.159  10.439   7.885 -2.6352  2.6888 -2.4377
  619MOL0     H83514   6.328  10.500   8.080 -0.1803  0.0148 -0.1684
  619MOL0     H83515   6.362  10.565   7.929 -1.6094 -0.1193 -1.6730
  619MOL0     H83516   6.201  10.818   7.889  0.6680  2.1993 -0.5792
  619MOL0     H83517   6.297  11.127   8.064  1.6311 -2.2213  0.7021
  619MOL0     H83518   6.168  11.068   7.954 -1.9263 -2.6555 -0.2173
  619MOL0     H83519   6.014  11.041   8.140  0.9969 -0.3173  0.4126
  619MOL0     H83520   6.131  11.081   8.252 -2.9564 -3.0820  0.4903
  619MOL0     H83521   5.979  11.261   8.202 -0.1925 -0.1681  0.5885
  619MOL0     H83522   6.030  11.274   8.029 -1.4545 -1.1123 -0.0520
  619MOL0     H83523   6.095  11.458   8.156 -5.0067 -3.4109  1.3483
  619MOL0     H83524   6.239  11.360   8.097 -0.2503 -2.8679  0.4887
  619MOL0     H83525   6.303  11.277   8.505  1.5037  1.0809 -0.6014
  619MOL0     H83526   6.211  11.287   8.735  0.4943 -1.7117 -1.4004
  619MOL0     H83527   5.830  11.291   9.008 -1.9582 -0.5900 -2.5923
  619MOL0     H83528   5.730  11.346   9.232 -0.5660 -1.7894 -0.8244
  619MOL0     H83529   5.700  11.746   9.405 -0.1220 -0.2082 -2.2592
  619MOL0     H83530   5.560  11.780   9.301  0.4923  1.4029  0.2514
  619MOL0     H83531   5.409  11.664   9.452 -0.4663 -1.3295  2.1100
  619MOL0     H83532   5.551  11.620   9.555  2.5586 -0.0086 -2.3658
  619MOL0     H83533   5.582  11.823   9.628  2.1626  0.7380 -2.0873
  619MOL0     H83534   5.517  11.913   9.485 -1.0589  1.3194  0.9204
  619MOL0     H83535   5.390  11.932   9.696  2.1726 -2.9887  1.6410
  619MOL0     H83536   5.338  11.768   9.671 -1.0500  1.3815  1.6657
  619MOL0     H83537   5.157  11.903   9.558  0.3188 -0.2446  1.8254
  619MOL0     H83538   5.263  11.854   9.432 -2.5421 -2.8189  1.6246
  619MOL0     H83539   5.335  12.113   9.567 -0.6925  2.4399 -1.6442
  619MOL0     H83540   5.367  12.058   9.401 -0.1428  1.0843  0.3549
  619MOL0     H83541   5.087  12.133   9.530 -1.5401  1.0487 -0.2716
  619MOL0     H83542   5.123  12.060   9.371  1.5361 -1.8602  1.0126
  619MOL0     H83543   5.236  12.332   9.462 -0.0630  1.5031 -1.3059
  619MOL0     H83544   5.255  12.252   9.301  0.5348  0.9436  1.2617
  619MOL0     H83545   5.636  11.743   9.102 -2.5435 -1.8330  1.0600
  619MOL0     H83546   5.759  11.693   8.881 -1.2711  0.9269  0.5378
  619MOL0     H83547   5.860  11.475   8.552 -0.0650  0.2368 -0.2409
  619MOL0     H83548   5.953  11.453   8.353 -0.1220 -0.1626 -0.7321
  619MOL0     H83549   5.416   9.836   7.956  1.2267 -0.3189  1.0084
  619MOL0     H83550   5.190   9.844   7.885  1.1259 -0.0842  1.1043
  619MOL0     H83551   4.840  10.268   7.967  0.2267  0.4769 -0.9630
  619MOL0     H83552   4.633  10.372   7.965  1.8972 -0.3369 -1.4803
  619MOL0     H83553   4.423  10.442   7.904 -1.5126 -1.3346 -0.7873
  619MOL0     H83554   4.420  10.428   8.086  0.2282 -3.0208  0.6364
  619MOL0     H83555   4.176  10.373   8.053  2.1597 -0.9816  1.0649
  619MOL0     H83556   4.198  10.397   7.878  1.7340 -2.2346  0.0940
  619MOL0     H83557   4.097  10.589   8.006 -0.3412  0.4231  1.7499
  619MOL0     H83558   4.247  10.640   7.932  0.8960  0.1639  1.1761
  619MOL0     H83559   4.217  10.585   8.228  1.1390  0.7662  1.0387
  619MOL0     H83560   4.376  10.610   8.140 -1.2302 -3.1199 -3.3771
  619MOL0     H83561   4.253  11.007   8.142  3.6348  0.6245 -2.3593
  619MOL0     H83562   4.424   9.996   7.989 -1.0712  0.6039  0.0640
  619MOL0     H83563   4.732   9.806   8.002  0.3615  3.0562  0.2418
  619MOL0     H83564   4.651   9.846   8.150  5.9693  0.5762  0.4639
  619MOL0     H83565   4.558   9.784   8.003 -0.3045  1.4497 -1.8776
  620MOL0     O83566   1.685  11.137   5.570  0.3890 -0.5042 -0.4184
  620MOL0     C83567   1.760  11.185   5.662 -0.4643  0.2213  1.0557
  620MOL0     O83568   1.715  11.250   5.774 -0.0844 -0.2600 -0.3545
  620MOL0     C83569   1.577  11.278   5.792 -0.3853  0.5532 -0.8017
  620MOL0     C83570   1.525  11.405   5.784 -0.2743 -0.7476  0.1527
  620MOL0     C83571   1.393  11.436   5.824  0.0776 -0.6370 -0.1954
  620MOL0     C83572   1.319  11.337   5.888 -0.4643 -1.1605  0.1432
  620MOL0     O83573   1.210  11.384   5.957  0.3584  0.4433 -0.2534
  620MOL0     C83574   1.109  11.294   6.011 -0.4085  1.0393  0.0681
  620MOL0     C83575   1.063  11.377   6.123 -0.2508  0.3946  0.0508
  620MOL0     C83576   0.952  11.471   6.085  0.0763 -0.7374  0.7235
  620MOL0     C83577   0.817  11.419   6.103  0.2575 -0.3177 -0.0752
  620MOL0     C83578   0.705  11.513   6.069  0.2529  0.0523 -1.2179
  620MOL0     C83579   0.686  11.544   5.917 -0.8661 -0.1747 -0.6233
  620MOL0     C83580   0.551  11.618   5.889 -0.3714  0.2999  0.1894
  620MOL0     C83581   0.517  11.621   5.741 -0.3173 -0.3705  0.4289
  620MOL0     N83582   0.381  11.645   5.706 -1.0314 -0.1147 -0.1500
  620MOL0     C83583   0.283  11.546   5.713  0.4481 -0.4250  0.4430
  620MOL0     C83584   0.171  11.611   5.680  0.5057  0.8951 -0.2766
  620MOL0     C83585   0.036  11.552   5.702 -1.0401 -0.3925  0.0777
  620MOL0     C83586  -0.028  11.528   5.569  0.4540 -1.0082  0.1217
  620MOL0     C83587  -0.172  11.477   5.607 -0.7135  0.1664  0.1957
  620MOL0     C83588  -0.253  11.434   5.481  0.1651 -0.0972  0.5987
  620MOL0     O83589  -0.384  11.396   5.517 -0.4469  0.3398  0.1064
  620MOL0     C83590  -0.470  11.332   5.436  0.0016  0.1950  0.8321
  620MOL0     C83591  -0.465  11.344   5.298  0.3774 -0.1306 -0.2951
  620MOL0     C83592  -0.566  11.283   5.214  0.7205  0.5993 -0.0808
  620MOL0     C83593  -0.673  11.213   5.267 -0.4261 -0.2505  0.2447
  620MOL0     C83594  -0.770  11.148   5.173 -1.0015 -0.1445  1.1868
  620MOL0     O83595  -0.813  11.029   5.203 -0.1546 -0.4948 -0.5266
  620MOL0     C83596  -0.902  10.960   5.120  0.1771 -0.1494  1.0915
  620MOL0     C83597  -1.015  10.923   5.192 -0.2179 -0.4684  0.3314
  620MOL0     C83598  -1.098  10.843   5.125  1.1505 -0.5257 -0.8055
  620MOL0     C83599  -1.093  10.828   4.983 -1.2094  0.3426 -0.8164
  620MOL0     O83600  -1.161  10.759   4.900  0.0058 -0.4335  0.0779
  620MOL0     C83601  -1.294  10.725   4.935 -0.0554 -0.2634  0.4508
  620MOL0     C83602  -1.388  10.844   4.907 -0.1986  0.1298 -0.7779
  620MOL0     C83603  -1.537  10.820   4.950 -0.3207  0.4554 -0.7732
  620MOL0     C83604  -1.628  10.944   4.911  0.1210 -0.2663  0.5996
  620MOL0     C83605  -1.785  10.937   4.920 -1.3601  0.0111 -0.1077
  620MOL0     C83606  -1.814  10.876   5.060  0.4278 -0.5891  0.0652
  620MOL0     C83607  -1.964  10.868   5.076  0.3047  0.3143 -0.7850
  620MOL0     C83608  -2.011  10.815   5.216  0.0124  1.1930  0.8880
  620MOL0    Cl83609  -1.977  10.937   5.344  0.1206 -0.1884  0.2083
  620MOL0     C83610  -0.987  10.889   4.916  1.1519 -0.0777 -0.4747
  620MOL0     C83611  -0.884  10.943   4.984  0.7334 -0.3149  0.3385
  620MOL0     O83612  -0.791  11.209   5.066  0.6513  0.1697  0.5082
  620MOL0     C83613  -0.674  11.203   5.408 -0.0454  0.5614 -0.0630
  620MOL0     C83614  -0.584  11.264   5.489  0.1426  0.4480 -0.3741
  620MOL0     N83615   0.204  11.741   5.636  0.5811  0.9163  0.5978
  620MOL0     N83616   0.330  11.763   5.667  0.4597  0.2790 -0.2153
  620MOL0     C83617   1.367  11.203   5.887 -0.4816  0.0556  0.9177
  620MOL0     C83618   1.494  11.174   5.852 -1.1699 -0.2038  0.2175
  620MOL0     C83619   1.907  11.176   5.666  0.0642 -0.0878  0.1183
  620MOL0     C83620   1.986  11.291   5.690 -0.0497 -0.6779 -0.3017
  620MOL0     C83621   2.119  11.273   5.700 -0.8800 -0.7757  0.1138
  620MOL0     C83622   2.180  11.144   5.698 -0.1104  0.1666 -1.1174
  620MOL0     O83623   2.307  11.131   5.731  0.5567 -0.3377  0.0916
  620MOL0     C83624   2.359  11.012   5.788 -0.3601  0.5305  1.1609
  620MOL0     C83625   2.331  11.008   5.931  0.4706  0.1581 -0.2659
  620MOL0     C83626   2.435  10.939   6.021  0.2317 -0.0083  0.4578
  620MOL0     C83627   2.438  10.978   6.166 -0.4036 -0.0132  0.3881
  620MOL0     C83628   2.306  10.954   6.230 -0.1767 -0.2161 -0.2423
  620MOL0     C83629   2.194  10.942   6.261  0.3432 -0.2937 -0.4808
  620MOL0     C83630   2.099  11.033   5.681 -0.3907  0.4347  0.5496
  620MOL0     C83631   1.966  11.046   5.654 -0.2533  0.1318 -0.5566
  620MOL0     C83632   1.887  10.925   5.628 -0.9917 -0.0425 -0.2301
  620MOL0     H83633   1.587  11.488   5.751  0.0278 -1.0425 -0.0251
  620MOL0     H83634   1.352  11.536   5.813  1.6960  0.0204 -0.6236
  620MOL0     H83635   1.027  11.270   5.941 -0.7096  1.2266  0.3541
  620MOL0     H83636   1.155  11.204   6.052  0.7198  0.6973 -1.8072
  620MOL0     H83637   1.138  11.449   6.155  0.5949  0.1958 -1.3690
  620MOL0     H83638   1.025  11.311   6.201 -0.7401 -2.9353 -2.7269
  620MOL0     H83639   0.947  11.506   5.982  0.4314 -1.0772  0.5861
  620MOL0     H83640   0.966  11.557   6.152 -1.1726 -1.5460  2.0798
  620MOL0     H83641   0.801  11.335   6.036 -0.9716  1.2175 -1.8018
  620MOL0     H83642   0.822  11.389   6.208  2.5773  1.6361  0.4663
  620MOL0     H83643   0.609  11.473   6.103 -0.3073  2.0307 -0.2955
  620MOL0     H83644   0.729  11.611   6.112  1.7003  0.9364 -3.8405
  620MOL0     H83645   0.771  11.607   5.888 -1.4085  0.8054 -0.1352
  620MOL0     H83646   0.690  11.447   5.867 -1.9560 -0.1308 -0.8133
  620MOL0     H83647   0.556  11.725   5.911  0.4145  0.1981  0.5428
  620MOL0     H83648   0.471  11.566   5.944  0.6779 -1.8394 -0.1825
  620MOL0     H83649   0.569  11.705   5.694  0.5632 -0.3923  1.3341
  620MOL0     H83650   0.547  11.529   5.689  0.7236 -0.2114  0.7160
  620MOL0     H83651   0.304  11.448   5.756 -0.9403 -1.0255 -0.1778
  620MOL0     H83652   0.045  11.453   5.748 -2.0808 -0.0559  1.0484
  620MOL0     H83653  -0.022  11.621   5.765 -2.8435  1.2244 -3.1030
  620MOL0     H83654  -0.033  11.626   5.521 -1.0902 -0.0229  2.1358
  620MOL0     H83655   0.017  11.459   5.497 -0.8822 -2.1309  0.3279
  620MOL0     H83656  -0.221  11.560   5.657  2.4834  0.6232  2.8807
  620MOL0     H83657  -0.176  11.391   5.674  1.5495  0.4087  0.7205
  620MOL0     H83658  -0.199  11.356   5.425  2.3535  2.4335 -1.1110
  620MOL0     H83659  -0.266  11.525   5.422  0.4037 -0.6262 -0.3081
  620MOL0     H83660  -0.379  11.394   5.256  1.2364  0.0247  1.5738
  620MOL0     H83661  -0.565  11.311   5.109 -0.4176 -1.0158 -0.5471
  620MOL0     H83662  -1.031  10.956   5.294 -1.3097 -0.1533  0.0764
  620MOL0     H83663  -1.190  10.812   5.174  1.1954  0.5069 -0.0394
  620MOL0     H83664  -1.331  10.648   4.867 -0.2774 -0.8235  1.1847
  620MOL0     H83665  -1.306  10.689   5.038 -1.5468  0.1644  0.4462
  620MOL0     H83666  -1.354  10.939   4.948  0.0041 -0.1482 -0.2910
  620MOL0     H83667  -1.398  10.867   4.801 -0.3633 -0.2257 -0.8425
  620MOL0     H83668  -1.570  10.726   4.905  0.4892 -0.2401  0.0651
  620MOL0     H83669  -1.525  10.818   5.059  1.3316  0.1681 -0.9499
  620MOL0     H83670  -1.588  10.967   4.811  0.9862  0.1936  1.0435
  620MOL0     H83671  -1.593  11.029   4.970  1.8918 -0.1570 -0.5092
  620MOL0     H83672  -1.825  10.887   4.831 -0.0584  0.9891 -1.2804
  620MOL0     H83673  -1.840  11.031   4.917 -1.2203  0.1615  1.3689
  620MOL0     H83674  -1.761  10.781   5.069  1.0229 -0.1113  2.6175
  620MOL0     H83675  -1.773  10.942   5.138  1.9793  1.1386 -2.0827
  620MOL0     H83676  -2.001  10.793   5.005 -1.6920 -0.5066  1.0309
  620MOL0     H83677  -2.014  10.962   5.055 -1.6690 -0.4523  0.2608
  620MOL0     H83678  -2.118  10.810   5.195  0.3917 -0.8014 -0.9401
  620MOL0     H83679  -1.980  10.713   5.241 -0.7064  0.7981  0.1998
  620MOL0     H83680  -0.981  10.895   4.808  0.7053 -2.2129 -0.6722
  620MOL0     H83681  -0.805  10.991   4.928  1.0373  0.9658  1.8047
  620MOL0     H83682  -0.757  11.147   5.450  0.2947  0.3505  0.3423
  620MOL0     H83683  -0.601  11.260   5.596 -1.2399 -0.8057 -0.6059
  620MOL0     H83684   1.305  11.127   5.935 -0.2283 -0.3962  0.5436
  620MOL0     H83685   1.536  11.076   5.871 -0.0370  0.6361  2.3047
  620MOL0     H83686   1.941  11.389   5.699  0.3742 -0.5505  0.5609
  620MOL0     H83687   2.184  11.355   5.729 -0.6629 -1.2519  1.0066
  620MOL0     H83688   2.468  11.019   5.780 -0.5771  2.9324 -3.8845
  620MOL0     H83689   2.332  10.916   5.744 -1.5958  0.6956  1.5164
  620MOL0     H83690   2.235  10.958   5.946  1.5290 -1.8898  0.0568
  620MOL0     H83691   2.317  11.113   5.958  2.2058  0.7514 -1.5164
  620MOL0     H83692   2.528  10.962   5.968 -0.2440 -3.7011 -2.4429
  620MOL0     H83693   2.428  10.830   6.015 -0.4688 -0.1440  2.8418
  620MOL0     H83694   2.517  10.931   6.226  1.3890  3.2615  0.8396
  620MOL0     H83695   2.458  11.085   6.170 -1.1401  0.1073  0.8161
  620MOL0     H83696   2.095  10.915   6.290  0.9177  1.9575  4.7061
  620MOL0     H83697   2.150  10.938   5.665  0.4858  0.3971  3.0292
  620MOL0     H83698   1.819  10.897   5.709  0.0407 -0.8714  0.3720
  620MOL0     H83699   1.841  10.939   5.530 -0.9753 -1.2946 -0.4316
  620MOL0     H83700   1.952  10.839   5.610  0.7702  1.5772 -2.1185
  621MOL0     O83701   8.528   3.073   8.117  0.6984  0.0639 -0.1381
  621MOL0     C83702   8.462   2.975   8.159 -0.7314 -0.6153  0.0329
  621MOL0     O83703   8.519   2.849   8.173  0.7369  0.0613 -0.4329
  621MOL0     C83704   8.647   2.813   8.175 -0.1005 -0.6424  0.5336
  621MOL0     C83705   8.681   2.714   8.271  0.3681 -0.9167  1.0628
  621MOL0     C83706   8.806   2.672   8.292 -0.1161 -0.0779 -0.6136
  621MOL0     C83707   8.906   2.714   8.202  0.5878 -0.3214 -0.4635
  621MOL0     O83708   9.041   2.690   8.207 -0.2721  0.2334 -0.1700
  621MOL0     C83709   9.097   2.681   8.340  0.0895  0.3535  0.8077
  621MOL0     C83710   9.238   2.731   8.349 -0.6798  0.3892  0.1623
  621MOL0     C83711   9.254   2.862   8.271  0.4463 -0.2695  0.2532
  621MOL0     C83712   9.384   2.929   8.312  0.3672 -0.4321 -0.5585
  621MOL0     C83713   9.402   3.064   8.240  0.8239  0.6184 -0.7180
  621MOL0     C83714   9.390   3.057   8.087 -0.6189  0.6355  0.8592
  621MOL0     C83715   9.427   3.188   8.018 -0.9176  0.0103 -0.6786
  621MOL0     C83716   9.340   3.311   8.061 -0.7044  0.7203 -0.3716
  621MOL0     N83717   9.374   3.412   7.962  0.4273 -0.1100  0.1377
  621MOL0     C83718   9.502   3.458   7.943  0.1667 -0.6931  0.7443
  621MOL0     C83719   9.497   3.542   7.837 -0.0902 -0.7098  0.6807
  621MOL0     C83720   9.612   3.616   7.765 -0.3260  0.5017 -0.5787
  621MOL0     C83721   9.579   3.682   7.630 -0.5650 -0.0818  0.4252
  621MOL0     C83722   9.705   3.762   7.577  1.0327  0.7818  0.1965
  621MOL0     C83723   9.729   3.736   7.430 -0.1600 -0.1218 -0.7483
  621MOL0     O83724   9.608   3.783   7.371  0.2905  0.2538 -0.4363
  621MOL0     C83725   9.546   3.694   7.291  0.9544  0.1748  0.2412
  621MOL0     C83726   9.605   3.611   7.197 -0.7795  0.3667  0.0137
  621MOL0     C83727   9.528   3.518   7.131 -1.1567 -0.7005 -0.0291
  621MOL0     C83728   9.388   3.511   7.145  0.4530 -0.5151  1.5332
  621MOL0     C83729   9.304   3.417   7.074  0.1978  0.3433 -0.3944
  621MOL0     O83730   9.170   3.402   7.101  0.2890  0.0587 -0.5333
  621MOL0     C83731   9.086   3.343   7.008  0.2933  0.4675  0.7598
  621MOL0     C83732   8.997   3.249   7.059 -0.1742 -0.1597  0.8280
  621MOL0     C83733   8.892   3.201   6.973  0.3027 -0.2220  0.0489
  621MOL0     C83734   8.880   3.245   6.843 -0.2383 -0.4222  0.2288
  621MOL0     O83735   8.780   3.193   6.765 -0.3782  0.6109 -0.2172
  621MOL0     C83736   8.811   3.181   6.621  0.7902  0.3032  1.0053
  621MOL0     C83737   8.737   3.061   6.557  0.0150 -0.6721 -0.1850
  621MOL0     C83738   8.775   2.926   6.609  0.9614 -0.0514 -0.0428
  621MOL0     C83739   8.674   2.823   6.568 -0.1099 -0.0661  0.1103
  621MOL0     C83740   8.718   2.683   6.609 -0.6212  0.5979 -0.3771
  621MOL0     C83741   8.620   2.576   6.554  1.0703  0.5839  0.0342
  621MOL0     C83742   8.490   2.587   6.627 -0.1787  1.0301  0.3001
  621MOL0     C83743   8.395   2.467   6.620  0.1676 -0.1938 -0.3484
  621MOL0    Cl83744   8.308   2.471   6.467  0.5935  0.0925  0.3927
  621MOL0     C83745   8.975   3.339   6.796 -0.5053  0.4084  0.3707
  621MOL0     C83746   9.080   3.384   6.873 -0.3847  0.0911 -0.8574
  621MOL0     O83747   9.374   3.341   7.011  0.6436  0.2248  0.0170
  621MOL0     C83748   9.319   3.613   7.220  0.0593 -0.2480 -0.4693
  621MOL0     C83749   9.402   3.700   7.299  0.2430 -0.2826 -0.2388
  621MOL0     N83750   9.365   3.547   7.794 -0.6315 -0.4805 -0.2627
  621MOL0     N83751   9.291   3.461   7.866 -0.3550  0.2224  0.1648
  621MOL0     C83752   8.875   2.792   8.091 -1.1043  0.1625 -0.5514
  621MOL0     C83753   8.744   2.843   8.078  0.4065  0.0706 -0.2794
  621MOL0     C83754   8.320   3.004   8.182  1.4184 -0.6636  0.4405
  621MOL0     C83755   8.265   3.129   8.149 -0.5127 -0.1900 -0.3885
  621MOL0     C83756   8.131   3.145   8.156 -0.2307  0.8221 -0.2108
  621MOL0     C83757   8.040   3.049   8.196 -0.8341 -0.5539 -0.1395
  621MOL0     O83758   7.910   3.079   8.189  0.7913  0.0679 -0.6558
  621MOL0     C83759   7.818   2.969   8.186 -0.2098 -0.0703  0.2314
  621MOL0     C83760   7.670   3.024   8.154 -0.2430 -0.1395 -0.1600
  621MOL0     C83761   7.563   2.911   8.161  1.0089 -0.4454  0.3303
  621MOL0     C83762   7.497   2.897   8.294 -0.1327  0.0743 -0.3651
  621MOL0     C83763   7.495   2.755   8.337 -0.0650 -0.8943 -0.0451
  621MOL0     C83764   7.512   2.642   8.378  0.6127 -0.1812  0.0642
  621MOL0     C83765   8.092   2.924   8.235  0.3562 -0.0673 -0.4053
  621MOL0     C83766   8.236   2.902   8.233  0.0190 -0.2916  0.5732
  621MOL0     C83767   8.260   2.764   8.272  0.2609  0.2806  0.5181
  621MOL0     H83768   8.600   2.678   8.333 -0.1119 -0.5987  0.6253
  621MOL0     H83769   8.822   2.612   8.381 -0.4572 -0.8604 -1.0768
  621MOL0     H83770   9.038   2.736   8.413  0.7773  2.8014 -0.3892
  621MOL0     H83771   9.103   2.575   8.366  1.0067  0.4107  0.8740
  621MOL0     H83772   9.317   2.660   8.321 -1.8596 -0.9698  0.1692
  621MOL0     H83773   9.247   2.758   8.455 -3.1648 -1.5038  0.9629
  621MOL0     H83774   9.171   2.931   8.287  0.2291 -0.5216  0.2319
  621MOL0     H83775   9.246   2.847   8.163 -0.1927  2.2959 -0.1132
  621MOL0     H83776   9.379   2.952   8.419 -0.2024  2.4844 -1.1409
  621MOL0     H83777   9.475   2.869   8.300  0.6987 -0.1432  0.4549
  621MOL0     H83778   9.328   3.132   8.283  0.6137 -0.8240  1.3686
  621MOL0     H83779   9.500   3.094   8.278  1.1181  0.7121 -1.5487
  621MOL0     H83780   9.454   2.974   8.055 -2.5008 -0.6175  0.1451
  621MOL0     H83781   9.286   3.041   8.057 -0.0105 -1.4648 -0.3409
  621MOL0     H83782   9.421   3.159   7.913 -1.5489 -0.0165 -0.6417
  621MOL0     H83783   9.532   3.212   8.036 -0.6336  1.5683 -3.7366
  621MOL0     H83784   9.234   3.284   8.057 -0.6460  0.4099  0.0407
  621MOL0     H83785   9.360   3.332   8.166 -4.1799 -0.8766  0.7800
  621MOL0     H83786   9.591   3.429   7.998 -0.3382 -0.7282  1.5630
  621MOL0     H83787   9.645   3.685   7.843 -0.2866 -1.2781  1.0801
  621MOL0     H83788   9.695   3.544   7.762 -0.3576  0.3186  1.5249
  621MOL0     H83789   9.545   3.605   7.560 -0.3377  0.1904  0.0121
  621MOL0     H83790   9.496   3.747   7.662  1.6495  2.4785  1.3479
  621MOL0     H83791   9.793   3.734   7.637  0.7680 -1.5701 -0.4193
  621MOL0     H83792   9.685   3.868   7.593  3.6285  1.2960  0.4678
  621MOL0     H83793   9.749   3.629   7.420 -0.7541 -0.3893  0.6948
  621MOL0     H83794   9.809   3.800   7.391 -1.9777  2.6912 -0.1769
  621MOL0     H83795   9.709   3.626   7.170  0.4924  0.4475  4.1253
  621MOL0     H83796   9.582   3.439   7.079  1.3595  0.5842  0.4914
  621MOL0     H83797   9.026   3.224   7.161  3.9856  1.1009  0.1613
  621MOL0     H83798   8.824   3.128   7.016 -1.3853 -0.4067 -2.6818
  621MOL0     H83799   8.769   3.264   6.564 -1.4767 -0.6494  1.1882
  621MOL0     H83800   8.917   3.167   6.599  0.3411  0.0146 -1.2329
  621MOL0     H83801   8.631   3.080   6.576  0.1013  0.8192 -1.0670
  621MOL0     H83802   8.753   3.069   6.449 -0.1187 -1.8748 -0.3033
  621MOL0     H83803   8.866   2.898   6.556 -0.2586 -0.4072 -2.0619
  621MOL0     H83804   8.794   2.933   6.716  0.1050  1.0476  0.0584
  621MOL0     H83805   8.660   2.828   6.460  2.9502 -1.4365 -0.4319
  621MOL0     H83806   8.584   2.858   6.620 -2.0820 -1.4828 -2.1407
  621MOL0     H83807   8.733   2.680   6.717 -1.1759  3.2486 -0.1724
  621MOL0     H83808   8.815   2.669   6.560 -1.2366  1.5617 -1.9515
  621MOL0     H83809   8.614   2.598   6.447  1.3411 -1.8273 -0.5493
  621MOL0     H83810   8.673   2.481   6.562 -2.9831 -1.8037  1.4066
  621MOL0     H83811   8.427   2.673   6.603  2.3230  2.1428 -3.0758
  621MOL0     H83812   8.519   2.602   6.732  2.3938 -0.7385 -0.0575
  621MOL0     H83813   8.437   2.368   6.640  1.7671  0.6313  0.6031
  621MOL0     H83814   8.325   2.487   6.701 -0.2696 -0.2453 -0.7145
  621MOL0     H83815   8.976   3.370   6.692  0.4648  2.0839  0.8331
  621MOL0     H83816   9.156   3.453   6.839  0.4472 -0.9237 -1.1137
  621MOL0     H83817   9.211   3.620   7.229  0.1272  0.7272 -0.2728
  621MOL0     H83818   9.366   3.768   7.376  1.8871  0.3733 -0.0019
  621MOL0     H83819   8.958   2.814   8.023  1.3056  0.0033  2.1605
  621MOL0     H83820   8.723   2.910   7.996  0.9682  1.8441  0.9736
  621MOL0     H83821   8.323   3.202   8.094  1.4457 -1.1930  0.2439
  621MOL0     H83822   8.098   3.232   8.099 -0.2651  0.9282 -0.0301
  621MOL0     H83823   7.821   2.920   8.284  2.5823  0.1650  0.3512
  621MOL0     H83824   7.853   2.910   8.100 -0.6441  1.1897 -0.8472
  621MOL0     H83825   7.684   3.061   8.052  2.0875 -0.8392 -0.1543
  621MOL0     H83826   7.640   3.107   8.218 -0.2082  1.8002 -2.5054
  621MOL0     H83827   7.602   2.822   8.112  0.6823 -0.2527 -0.2989
  621MOL0     H83828   7.488   2.947   8.090  1.3398  0.6953  0.5308
  621MOL0     H83829   7.548   2.949   8.375 -1.2942  0.5385  0.0846
  621MOL0     H83830   7.399   2.942   8.280  0.6358  2.2678  0.8491
  621MOL0     H83831   7.535   2.541   8.407 -1.2181 -1.4506 -2.5139
  621MOL0     H83832   8.028   2.846   8.277 -0.4481  0.1334 -1.2493
  621MOL0     H83833   8.180   2.711   8.324 -1.4322  1.8507 -0.3912
  621MOL0     H83834   8.284   2.698   8.188 -1.8150 -0.2883  0.3078
  621MOL0     H83835   8.338   2.777   8.348  0.3843 -1.4493  0.7347
  622MOL0     O83836   5.444   8.705   2.932  0.4374 -0.2104 -0.1330
  622MOL0     C83837   5.379   8.710   2.826 -1.3212  0.4160  0.2606
  622MOL0     O83838   5.442   8.738   2.706 -0.3682  0.1838 -0.1896
  622MOL0     C83839   5.583   8.748   2.702  0.3037  0.1891 -0.2013
  622MOL0     C83840   5.648   8.849   2.777 -0.1870 -0.0104  0.6525
  622MOL0     C83841   5.788   8.833   2.784  0.4576 -0.4188 -1.0489
  622MOL0     C83842   5.854   8.742   2.713  0.7123 -0.0456  1.3183
  622MOL0     O83843   5.994   8.731   2.719 -0.0820  0.4908 -0.1061
  622MOL0     C83844   6.075   8.844   2.764  0.5012  0.0218  0.4926
  622MOL0     C83845   6.223   8.801   2.770  0.0901 -0.2456 -0.2023
  622MOL0     C83846   6.308   8.908   2.835  0.2169 -0.5245 -0.2604
  622MOL0     C83847   6.456   8.855   2.830 -0.8092 -0.8766  0.9770
  622MOL0     C83848   6.554   8.936   2.915 -0.3710 -0.7536 -0.2784
  622MOL0     C83849   6.588   9.076   2.849 -0.9121  0.5694 -0.6518
  622MOL0     C83850   6.500   9.199   2.881 -0.4871 -0.3731  0.1746
  622MOL0     C83851   6.528   9.260   3.025 -0.7705  0.2768  0.3768
  622MOL0     N83852   6.532   9.403   3.039 -0.1971 -0.4656  0.2237
  622MOL0     C83853   6.431   9.483   3.103 -1.0560  0.1757  0.0042
  622MOL0     C83854   6.488   9.616   3.102 -0.8475 -0.8395 -0.2691
  622MOL0     C83855   6.419   9.734   3.161  0.0217  0.1583  0.1348
  622MOL0     C83856   6.503   9.859   3.190  0.1481 -0.6503 -0.6722
  622MOL0     C83857   6.615   9.830   3.295  0.4224  0.3146 -0.3401
  622MOL0     C83858   6.699   9.948   3.333  0.1949  0.7054  0.3607
  622MOL0     O83859   6.610  10.051   3.380 -0.1312 -0.4948  0.1840
  622MOL0     C83860   6.668  10.162   3.433 -0.1959 -0.3383 -0.5434
  622MOL0     C83861   6.797  10.203   3.410  0.0453  0.6783  0.3049
  622MOL0     C83862   6.841  10.321   3.472 -0.1351  0.6312  0.2033
  622MOL0     C83863   6.749  10.401   3.538  0.6431  0.6339 -0.2582
  622MOL0     C83864   6.783  10.543   3.573  0.4119  0.8687 -0.1520
  622MOL0     O83865   6.919  10.576   3.552 -0.2281 -0.4966 -0.5944
  622MOL0     C83866   6.973  10.703   3.581 -0.8462 -0.5035  0.5770
  622MOL0     C83867   7.108  10.712   3.552 -0.4592  0.2037  0.1083
  622MOL0     C83868   7.175  10.832   3.573 -0.1128 -0.3680  0.2861
  622MOL0     C83869   7.116  10.946   3.617  0.2475 -0.4071 -0.8454
  622MOL0     O83870   7.185  11.063   3.647  0.1284  0.7805 -0.5518
  622MOL0     C83871   7.324  11.082   3.619  0.2850 -0.1419  0.3727
  622MOL0     C83872   7.329  11.135   3.480 -0.7928 -1.2515 -0.1847
  622MOL0     C83873   7.455  11.222   3.475 -0.7778  0.2089 -0.7980
  622MOL0     C83874   7.501  11.230   3.331  0.8401  0.6993 -0.1434
  622MOL0     C83875   7.628  11.317   3.323  0.1437  0.0209 -0.3631
  622MOL0     C83876   7.595  11.465   3.315  0.4226  0.5279  0.3055
  622MOL0     C83877   7.490  11.511   3.206 -0.8011  0.5252  0.4282
  622MOL0     C83878   7.465  11.654   3.225  0.0512 -0.3027  0.2817
  622MOL0    Cl83879   7.600  11.746   3.161  0.0404 -0.0238 -0.8364
  622MOL0     C83880   6.978  10.937   3.644  0.1601  0.7274  1.1934
  622MOL0     C83881   6.908  10.813   3.633 -0.2212  0.5500  1.3006
  622MOL0     O83882   6.692  10.621   3.619  0.2348  0.5233 -0.4615
  622MOL0     C83883   6.621  10.353   3.572  0.0329 -0.0006  0.0120
  622MOL0     C83884   6.582  10.235   3.508  0.5819  0.6857 -0.3025
  622MOL0     N83885   6.611   9.615   3.045 -0.9349 -0.7945 -0.1853
  622MOL0     N83886   6.633   9.490   2.994 -0.0390  0.4184 -0.5151
  622MOL0     C83887   5.787   8.641   2.634  0.3100  0.3454 -0.3398
  622MOL0     C83888   5.649   8.643   2.637 -0.6974  0.2284 -0.3927
  622MOL0     C83889   5.242   8.684   2.831  1.0130  0.2344  0.0147
  622MOL0     C83890   5.198   8.574   2.759 -0.6275  0.5706 -0.0987
  622MOL0     C83891   5.067   8.539   2.759  0.2395  0.6179 -0.6027
  622MOL0     C83892   4.968   8.617   2.815 -0.8688 -0.3911  0.2922
  622MOL0     O83893   4.828   8.593   2.813 -0.8982  0.0720  0.1033
  622MOL0     C83894   4.767   8.522   2.713  0.1991  0.6199  0.2051
  622MOL0     C83895   4.770   8.364   2.727 -0.0953  0.3590 -0.2935
  622MOL0     C83896   4.747   8.317   2.871  0.3815 -0.1626 -0.5551
  622MOL0     C83897   4.740   8.166   2.877 -0.7699 -0.3913  1.0420
  622MOL0     C83898   4.676   8.133   2.999 -0.1021  0.5891 -0.5333
  622MOL0     C83899   4.601   8.110   3.093 -0.9834  0.6448  0.0462
  622MOL0     C83900   5.011   8.732   2.881 -0.0274 -0.1999 -0.2156
  622MOL0     C83901   5.144   8.764   2.897  0.1941  0.9787  0.4650
  622MOL0     C83902   5.183   8.881   2.985  0.1109 -0.4472 -0.0659
  622MOL0     H83903   5.610   8.927   2.843 -0.0256  0.2750  0.4102
  622MOL0     H83904   5.846   8.896   2.851 -1.2590  1.5932 -1.3620
  622MOL0     H83905   6.078   8.927   2.693 -0.3726 -2.4087 -2.6030
  622MOL0     H83906   6.050   8.872   2.867 -0.1042  2.2376 -0.2091
  622MOL0     H83907   6.253   8.782   2.666  0.2310  1.8061 -0.5888
  622MOL0     H83908   6.235   8.707   2.824  2.7736  0.1344  0.0277
  622MOL0     H83909   6.266   8.914   2.935 -3.6221 -0.2495 -1.7201
  622MOL0     H83910   6.294   9.007   2.790  2.9655 -0.6631 -1.6985
  622MOL0     H83911   6.472   8.752   2.861 -2.7860 -2.0659 -1.6259
  622MOL0     H83912   6.485   8.861   2.725 -0.0168 -3.2628  1.0144
  622MOL0     H83913   6.508   8.947   3.013 -2.3573  1.2490 -1.3729
  622MOL0     H83914   6.647   8.879   2.926 -1.2228 -2.0973  0.2486
  622MOL0     H83915   6.691   9.106   2.872 -1.3407  2.4348 -1.0349
  622MOL0     H83916   6.576   9.056   2.742  1.5723  0.6393 -1.0085
  622MOL0     H83917   6.393   9.181   2.863 -0.9709  1.3572  1.1405
  622MOL0     H83918   6.526   9.280   2.812  0.6224 -1.8871 -1.2608
  622MOL0     H83919   6.460   9.207   3.093  0.3899 -1.0840  0.5134
  622MOL0     H83920   6.627   9.228   3.056 -0.2847 -1.2920 -2.4364
  622MOL0     H83921   6.336   9.444   3.139 -1.1931  2.2434  2.1298
  622MOL0     H83922   6.340   9.776   3.099 -0.1831  1.6140  1.3209
  622MOL0     H83923   6.384   9.713   3.263  3.8440  1.1365  1.8621
  622MOL0     H83924   6.557   9.894   3.101  3.9221  2.1273  2.3594
  622MOL0     H83925   6.435   9.940   3.216 -3.3472 -3.2407 -1.0824
  622MOL0     H83926   6.686   9.756   3.257  2.2351  2.5584 -1.5501
  622MOL0     H83927   6.572   9.794   3.389  0.9352 -0.0356 -0.2381
  622MOL0     H83928   6.755   9.978   3.244 -1.5172  2.6248 -0.1326
  622MOL0     H83929   6.774   9.926   3.409  0.2553 -1.2628 -0.2090
  622MOL0     H83930   6.863  10.152   3.340 -1.2850 -1.4866  0.5617
  622MOL0     H83931   6.941  10.359   3.458 -0.4118  0.8488 -1.2909
  622MOL0     H83932   7.165  10.620   3.540 -3.4286 -1.7398  0.0275
  622MOL0     H83933   7.281  10.831   3.547  0.3957 -3.4784  2.0275
  622MOL0     H83934   7.367  11.157   3.685  2.8655  0.4479 -1.7996
  622MOL0     H83935   7.389  10.994   3.629  0.2416 -0.0564  1.4522
  622MOL0     H83936   7.335  11.053   3.408  1.3495 -0.3074 -1.1844
  622MOL0     H83937   7.245  11.199   3.454 -0.7660  0.0453  2.5780
  622MOL0     H83938   7.430  11.319   3.520 -0.4529 -0.1325  0.1413
  622MOL0     H83939   7.537  11.183   3.535  1.6134  0.0250 -3.9488
  622MOL0     H83940   7.419  11.260   3.265 -0.1591 -2.0458 -0.2836
  622MOL0     H83941   7.521  11.128   3.297  2.0855  0.8504  0.0879
  622MOL0     H83942   7.671  11.299   3.224 -1.1627 -1.1865 -0.7439
  622MOL0     H83943   7.695  11.292   3.405  0.3180  2.4560  0.3007
  622MOL0     H83944   7.551  11.491   3.412 -2.2190 -0.5799 -0.4896
  622MOL0     H83945   7.692  11.508   3.289  1.3416 -1.0909  0.9217
  622MOL0     H83946   7.400  11.453   3.229  0.8125 -2.6873 -0.8297
  622MOL0     H83947   7.521  11.483   3.105  0.5531 -1.7187  1.3943
  622MOL0     H83948   7.376  11.687   3.171 -1.2144 -2.0923  1.1762
  622MOL0     H83949   7.430  11.679   3.326 -1.3919 -1.2765  0.0539
  622MOL0     H83950   6.929  11.029   3.673  1.4529  1.5281  0.9053
  622MOL0     H83951   6.802  10.823   3.649 -0.6257  0.4812 -0.9450
  622MOL0     H83952   6.556  10.414   3.635 -0.6386  0.4829 -1.1192
  622MOL0     H83953   6.475  10.215   3.517  0.6369  1.2379  3.3445
  622MOL0     H83954   5.843   8.574   2.569  2.6504 -0.6235  2.4853
  622MOL0     H83955   5.600   8.563   2.583 -2.0963  0.8707 -0.1270
  622MOL0     H83956   5.273   8.522   2.700  0.8652  2.4921 -0.0029
  622MOL0     H83957   5.042   8.441   2.717 -1.9845  0.9081 -0.1024
  622MOL0     H83958   4.809   8.546   2.615 -2.2923  2.6064 -0.4903
  622MOL0     H83959   4.662   8.553   2.705 -0.7936 -2.5418 -0.4575
  622MOL0     H83960   4.872   8.341   2.696  0.0929 -0.1768  0.6694
  622MOL0     H83961   4.714   8.312   2.648  1.0253  0.9974 -1.5410
  622MOL0     H83962   4.648   8.351   2.904  0.2499  0.6624 -1.7579
  622MOL0     H83963   4.824   8.358   2.937  0.3282 -0.0817 -0.5433
  622MOL0     H83964   4.681   8.134   2.791  2.3953 -0.3117 -1.3091
  622MOL0     H83965   4.844   8.133   2.880  0.1074  2.0292 -0.0770
  622MOL0     H83966   4.548   8.076   3.180  1.3850  3.1477  2.6980
  622MOL0     H83967   4.934   8.782   2.938 -0.9065 -1.6998 -0.0096
  622MOL0     H83968   5.270   8.940   2.957 -0.0184 -0.5183 -0.6158
  622MOL0     H83969   5.106   8.959   2.984 -1.2170 -1.7084  0.1847
  622MOL0     H83970   5.209   8.854   3.088 -1.0523  1.6388  0.8407
  623MOL0     O83971   4.726   0.368   7.309  0.4474 -0.4942 -0.2428
  623MOL0     C83972   4.657   0.417   7.221 -0.7847 -0.0814  0.1622
  623MOL0     O83973   4.709   0.474   7.114  0.3139 -0.0946 -0.3696
  623MOL0     C83974   4.836   0.448   7.065  0.0406  0.5483 -0.2411
  623MOL0     C83975   4.928   0.559   7.037 -0.5592  0.4334 -0.5149
  623MOL0     C83976   5.064   0.532   7.011 -0.0604 -0.7229 -0.9327
  623MOL0     C83977   5.111   0.401   6.996  0.0017 -0.3837 -0.7590
  623MOL0     O83978   5.241   0.364   6.970 -0.7211 -0.9337  0.2209
  623MOL0     C83979   5.332   0.475   6.937  0.4425 -0.0114 -0.6475
  623MOL0     C83980   5.470   0.417   6.900 -0.6106 -0.4572 -0.4353
  623MOL0     C83981   5.527   0.335   7.015  0.6306  0.4276  0.0863
  623MOL0     C83982   5.669   0.285   6.975 -0.0887  0.0215  0.1168
  623MOL0     C83983   5.683   0.223   6.830 -0.5685  0.5021 -0.0869
  623MOL0     C83984   5.786   0.119   6.814 -0.1048 -0.0608  0.0611
  623MOL0     C83985   5.925   0.184   6.803  0.5784 -0.2346  0.6418
  623MOL0     C83986   6.027   0.092   6.737  0.4635  0.9761  0.0161
  623MOL0     N83987   6.164   0.145   6.735 -0.5875  0.1032  0.5194
  623MOL0     C83988   6.225   0.234   6.647 -0.5870  0.4257  0.5524
  623MOL0     C83989   6.343   0.262   6.707 -0.1521  0.1903 -0.5378
  623MOL0     C83990   6.460   0.332   6.643  0.2065  0.3047 -0.1044
  623MOL0     C83991   6.585   0.239   6.618  0.9038  0.4457  0.0640
  623MOL0     C83992   6.707   0.326   6.602 -0.8099  0.5791 -0.7405
  623MOL0     C83993   6.766   0.374   6.747 -0.2575 -0.0390 -0.8045
  623MOL0     O83994   6.813   0.267   6.828  0.5410  0.0659 -0.4794
  623MOL0     C83995   6.924   0.193   6.799 -0.3805  0.9314 -0.5002
  623MOL0     C83996   7.037   0.258   6.760  0.1712 -0.0086  0.0882
  623MOL0     C83997   7.153   0.188   6.735  0.0176  0.3833 -0.4911
  623MOL0     C83998   7.153   0.052   6.752 -0.0617 -0.5346 -0.2859
  623MOL0     C83999   7.278  -0.022   6.752  0.4019  0.6878  0.3635
  623MOL0     O84000   7.377   0.011   6.836  0.1716  0.2132  0.2078
  623MOL0     C84001   7.491  -0.063   6.839  0.3713  0.5023  0.7499
  623MOL0     C84002   7.601  -0.033   6.754 -0.3053 -0.4232 -0.5039
  623MOL0     C84003   7.717  -0.105   6.755  0.7691  0.0884 -0.4554
  623MOL0     C84004   7.735  -0.207   6.850 -0.2191 -0.3319  0.3505
  623MOL0     O84005   7.858  -0.269   6.860 -0.1963 -0.5185 -0.0643
  623MOL0     C84006   7.893  -0.332   6.983  0.5579 -0.0742 -0.3000
  623MOL0     C84007   8.046  -0.353   7.008 -0.0557 -1.2391 -0.0461
  623MOL0     C84008   8.096  -0.375   7.156  0.2283  0.4625 -0.2928
  623MOL0     C84009   8.231  -0.446   7.163 -0.2819  1.1198  0.5861
  623MOL0     C84010   8.272  -0.497   7.303  0.4972  0.7658 -0.3657
  623MOL0     C84011   8.281  -0.390   7.421  0.1303 -0.2887  0.4844
  623MOL0     C84012   8.289  -0.464   7.553  0.3085 -0.4710 -0.2836
  623MOL0     C84013   8.429  -0.534   7.560 -0.0624  0.6446 -0.9262
  623MOL0    Cl84014   8.460  -0.613   7.728 -0.5013  0.0189  0.1926
  623MOL0     C84015   7.620  -0.246   6.934  0.2217 -0.2700 -0.0561
  623MOL0     C84016   7.503  -0.172   6.921  0.3932 -0.3902  1.0455
  623MOL0     O84017   7.285  -0.115   6.673 -0.8666 -0.1010  1.0101
  623MOL0     C84018   7.038  -0.015   6.796 -0.3706 -0.1230  0.2230
  623MOL0     C84019   6.920   0.058   6.822 -0.0505 -0.2089 -0.3714
  623MOL0     N84020   6.359   0.197   6.825  0.2688 -0.4906  0.6409
  623MOL0     N84021   6.250   0.122   6.837  0.1008  0.0523  0.4401
  623MOL0     C84022   5.017   0.294   7.005  0.1148 -1.0382 -0.4158
  623MOL0     C84023   4.880   0.316   7.044 -0.2738  0.8168  0.2421
  623MOL0     C84024   4.514   0.409   7.237 -0.1403  0.4209  1.1989
  623MOL0     C84025   4.435   0.520   7.215 -0.1754 -0.8460 -0.7457
  623MOL0     C84026   4.299   0.514   7.259  1.1323 -0.4364  0.3165
  623MOL0     C84027   4.248   0.400   7.315  0.6379 -0.3248 -0.8816
  623MOL0     O84028   4.118   0.408   7.353  0.0386  0.5614  0.1974
  623MOL0     C84029   4.068   0.319   7.459 -0.0220 -0.4709  0.4455
  623MOL0     C84030   4.130   0.339   7.597 -0.1997  1.0234 -0.8376
  623MOL0     C84031   4.101   0.214   7.689 -0.0438 -0.0880  0.4733
  623MOL0     C84032   3.993   0.245   7.801  0.4158 -0.4770 -0.4617
  623MOL0     C84033   3.855   0.255   7.751 -0.5040 -0.3313 -0.1807
  623MOL0     C84034   3.743   0.279   7.724  1.0024  0.1069  0.0880
  623MOL0     C84035   4.330   0.288   7.324  0.5319 -0.3536  0.0878
  623MOL0     C84036   4.459   0.293   7.291 -0.9979 -0.1952 -0.5380
  623MOL0     C84037   4.536   0.167   7.326 -0.2384 -0.0578 -0.0413
  623MOL0     H84038   4.899   0.661   7.058  1.8850  0.8731  1.2330
  623MOL0     H84039   5.122   0.623   7.007 -1.8324  0.3995 -2.9602
  623MOL0     H84040   5.285   0.540   6.863  1.3416  0.7633 -0.5668
  623MOL0     H84041   5.343   0.538   7.026 -0.4725 -0.8552  0.0782
  623MOL0     H84042   5.537   0.498   6.870 -0.0587  1.4685  4.8812
  623MOL0     H84043   5.464   0.347   6.816  1.0186 -1.3043  0.1024
  623MOL0     H84044   5.461   0.251   7.040  1.9643 -0.7841 -0.3631
  623MOL0     H84045   5.539   0.400   7.102 -0.9742  1.1068 -0.1537
  623MOL0     H84046   5.735   0.372   6.980 -1.4386  1.2821 -2.1410
  623MOL0     H84047   5.700   0.210   7.047  1.4644  0.3312 -0.2010
  623MOL0     H84048   5.591   0.165   6.816  0.7899 -1.7679  0.0261
  623MOL0     H84049   5.693   0.301   6.753  0.0383  0.0749 -0.4464
  623MOL0     H84050   5.762   0.048   6.894 -3.1257 -0.0172 -0.6662
  623MOL0     H84051   5.771   0.072   6.716  0.3887  1.7969 -0.9571
  623MOL0     H84052   5.962   0.213   6.901  3.4782  0.3502 -0.5415
  623MOL0     H84053   5.913   0.272   6.739 -1.6007 -0.8744  0.0813
  623MOL0     H84054   6.034   0.002   6.798 -3.2482  0.9874  0.6866
  623MOL0     H84055   5.992   0.060   6.639  1.6591 -0.2061 -0.0519
  623MOL0     H84056   6.185   0.276   6.556 -1.9443  4.5684  2.7912
  623MOL0     H84057   6.424   0.384   6.553 -0.4311  2.0417  1.0987
  623MOL0     H84058   6.467   0.407   6.723 -4.8043  2.2018 -1.0591
  623MOL0     H84059   6.597   0.176   6.707 -0.1212  2.5082  1.7583
  623MOL0     H84060   6.564   0.179   6.529 -2.2738 -0.0556  1.0368
  623MOL0     H84061   6.684   0.417   6.546 -2.5997  1.1328  0.7724
  623MOL0     H84062   6.783   0.266   6.551 -0.8905  1.5412 -2.0287
  623MOL0     H84063   6.683   0.426   6.795 -1.1449 -1.4767 -0.7314
  623MOL0     H84064   6.848   0.445   6.734 -1.6098  1.4420 -1.5722
  623MOL0     H84065   7.042   0.365   6.742  3.1035 -0.3229 -1.6849
  623MOL0     H84066   7.247   0.239   6.714  0.7035  0.6692  2.6915
  623MOL0     H84067   7.606   0.043   6.677  3.0776 -0.6207 -0.6494
  623MOL0     H84068   7.799  -0.066   6.695  2.1030  1.4820  2.0812
  623MOL0     H84069   7.866  -0.257   7.058  0.4944 -0.5759  0.1914
  623MOL0     H84070   7.840  -0.427   6.995 -0.3340  0.3829 -0.5660
  623MOL0     H84071   8.079  -0.426   6.933  0.8176 -0.2862 -0.6241
  623MOL0     H84072   8.100  -0.263   6.975 -0.3245 -2.2022 -3.5277
  623MOL0     H84073   8.077  -0.290   7.222 -1.1544  1.1215 -1.4732
  623MOL0     H84074   8.025  -0.452   7.188  1.0310 -0.3849 -0.4989
  623MOL0     H84075   8.302  -0.372   7.124 -2.3117  1.7830 -2.2526
  623MOL0     H84076   8.222  -0.536   7.101 -3.4661  0.5966  1.6140
  623MOL0     H84077   8.371  -0.542   7.291  0.9607  1.8085 -0.5727
  623MOL0     H84078   8.202  -0.579   7.325 -0.2476  1.8196  1.4576
  623MOL0     H84079   8.372  -0.328   7.416 -0.1151  0.1879  1.7237
  623MOL0     H84080   8.185  -0.340   7.429 -0.1796 -1.0040  1.4213
  623MOL0     H84081   8.205  -0.534   7.560 -1.1778  1.2864  0.7625
  623MOL0     H84082   8.279  -0.390   7.634  0.7267 -0.3450 -0.3459
  623MOL0     H84083   8.437  -0.612   7.484 -2.7812  0.5218 -1.1804
  623MOL0     H84084   8.499  -0.458   7.524 -1.2464  1.8745 -0.7153
  623MOL0     H84085   7.615  -0.332   7.001 -0.3340 -0.0989  0.1268
  623MOL0     H84086   7.429  -0.198   6.997  1.4535 -1.6315  1.6998
  623MOL0     H84087   7.026  -0.121   6.816  1.2034 -0.2488  0.5781
  623MOL0     H84088   6.837   0.026   6.885  0.7876  0.6492  1.2155
  623MOL0     H84089   5.059   0.195   6.992 -0.0333 -1.0382 -0.9070
  623MOL0     H84090   4.811   0.237   7.069  0.1132  0.8740  1.5684
  623MOL0     H84091   4.477   0.614   7.183 -0.5723  0.0871  1.3294
  623MOL0     H84092   4.231   0.598   7.252 -1.3155 -2.1525  2.0306
  623MOL0     H84093   4.088   0.213   7.439 -2.1971 -1.4260  2.7926
  623MOL0     H84094   3.961   0.341   7.473 -0.3758 -0.3847 -1.9197
  623MOL0     H84095   4.094   0.423   7.656  0.7632  1.0316 -0.2394
  623MOL0     H84096   4.238   0.356   7.593  0.1038 -0.5204  0.0553
  623MOL0     H84097   4.197   0.190   7.736  1.6225  2.7723 -1.1879
  623MOL0     H84098   4.058   0.133   7.630  2.9177 -0.9379 -0.7335
  623MOL0     H84099   3.989   0.156   7.864  0.8863  0.9645  1.7169
  623MOL0     H84100   4.021   0.335   7.856 -0.0438 -0.0413 -0.9129
  623MOL0     H84101   3.645   0.314   7.698  0.3706 -2.7678 -1.8778
  623MOL0     H84102   4.290   0.194   7.363 -0.6105 -0.2189 -0.6935
  623MOL0     H84103   4.572   0.143   7.225  2.5652 -1.5515  1.1876
  623MOL0     H84104   4.617   0.173   7.400 -0.3095  2.5202 -0.0688
  623MOL0     H84105   4.468   0.092   7.368 -0.8614  2.1851  3.3511
  624MOL0     O84106   4.840   2.571   0.933  0.1317  0.1887 -1.2431
  624MOL0     C84107   4.892   2.599   0.826 -0.6009 -0.2819  0.9912
  624MOL0     O84108   4.820   2.642   0.719  0.1970  0.5414 -0.1634
  624MOL0     C84109   4.693   2.695   0.712  0.2119  0.8490  0.1693
  624MOL0     C84110   4.602   2.711   0.821  0.0498  0.4993  0.9492
  624MOL0     C84111   4.479   2.778   0.813 -0.2208  0.8230 -0.2642
  624MOL0     C84112   4.440   2.846   0.698  1.0264  0.2957  1.1408
  624MOL0     O84113   4.325   2.910   0.679  0.9181 -1.3405  0.2204
  624MOL0     C84114   4.247   2.968   0.789 -0.1495  0.2282  1.1831
  624MOL0     C84115   4.323   3.091   0.846  0.3779 -0.0784 -0.3240
  624MOL0     C84116   4.227   3.159   0.943 -0.0320  1.0544 -0.3882
  624MOL0     C84117   4.309   3.252   1.038 -0.4922 -0.0256  0.6415
  624MOL0     C84118   4.219   3.301   1.150 -0.3988 -0.0016 -0.4207
  624MOL0     C84119   4.309   3.398   1.228 -0.1770  0.8608  0.3348
  624MOL0     C84120   4.323   3.539   1.160  0.0140 -0.8885  0.1407
  624MOL0     C84121   4.403   3.643   1.244 -0.4108  0.3729 -0.2938
  624MOL0     N84122   4.531   3.594   1.269  0.2280  0.6183 -1.1010
  624MOL0     C84123   4.575   3.534   1.388  0.3136 -0.2136  0.7301
  624MOL0     C84124   4.710   3.544   1.387 -1.7188 -0.3175 -1.0698
  624MOL0     C84125   4.798   3.507   1.501  0.6591  0.2678  0.0084
  624MOL0     C84126   4.916   3.604   1.514 -0.1948 -0.9788 -0.0250
  624MOL0     C84127   5.010   3.585   1.633 -0.2725 -0.3287  0.4096
  624MOL0     C84128   5.107   3.699   1.664 -0.3343 -0.0028 -0.5288
  624MOL0     O84129   5.036   3.798   1.735 -0.4697  0.2702 -0.7876
  624MOL0     C84130   5.103   3.908   1.786 -0.9366  0.0689 -0.3319
  624MOL0     C84131   5.245   3.908   1.816  0.8536  0.4168  0.0183
  624MOL0     C84132   5.320   4.017   1.869 -0.2407 -0.2840 -0.6304
  624MOL0     C84133   5.252   4.141   1.882 -0.3996 -0.2131  0.1042
  624MOL0     C84134   5.324   4.275   1.898  0.0688 -0.1829  0.3177
  624MOL0     O84135   5.250   4.382   1.930 -0.2626  0.1133 -0.3370
  624MOL0     C84136   5.306   4.502   1.941 -0.2428  0.5821  0.3705
  624MOL0     C84137   5.260   4.593   1.849  1.1416  0.9946  1.3224
  624MOL0     C84138   5.323   4.717   1.843 -0.4348  0.9548  0.2381
  624MOL0     C84139   5.422   4.758   1.933 -0.6932  0.1160  0.1561
  624MOL0     O84140   5.477   4.878   1.916  0.3993  0.7262  0.5208
  624MOL0     C84141   5.615   4.889   1.942  0.1670  0.1387  0.0683
  624MOL0     C84142   5.660   5.022   1.881  1.0272 -0.0008  0.4891
  624MOL0     C84143   5.807   5.028   1.869 -1.0254  0.0371  0.7460
  624MOL0     C84144   5.881   4.930   1.787 -0.1642 -0.5983 -1.0321
  624MOL0     C84145   6.018   4.977   1.744  0.0954 -0.2951  0.7809
  624MOL0     C84146   6.120   4.871   1.701  0.0190  0.0691  0.1953
  624MOL0     C84147   6.173   4.781   1.813  0.4331  0.3913 -0.8059
  624MOL0     C84148   6.263   4.669   1.769  0.2284  0.2936  0.3717
  624MOL0    Cl84149   6.163   4.539   1.695 -0.2645 -0.1594 -0.1548
  624MOL0     C84150   5.457   4.670   2.041 -0.9165 -0.3760  0.1686
  624MOL0     C84151   5.398   4.542   2.040  0.0644  0.6407 -0.0723
  624MOL0     O84152   5.446   4.281   1.877  0.3091  0.0918 -0.2105
  624MOL0     C84153   5.109   4.135   1.871  0.3316 -0.6412  0.3372
  624MOL0     C84154   5.034   4.026   1.818 -0.7294  0.7017 -0.9216
  624MOL0     N84155   4.743   3.619   1.283 -1.0740 -0.2003  0.0667
  624MOL0     N84156   4.642   3.643   1.207 -0.2355  0.6607 -0.5491
  624MOL0     C84157   4.530   2.841   0.593  0.4447  0.3394 -0.1729
  624MOL0     C84158   4.648   2.762   0.598  0.2525 -0.1296  0.6129
  624MOL0     C84159   5.038   2.590   0.812  1.5307 -1.2585 -0.7001
  624MOL0     C84160   5.116   2.663   0.900 -0.5852 -0.0399  0.7745
  624MOL0     C84161   5.253   2.665   0.882  0.2357 -0.3578  0.0278
  624MOL0     C84162   5.316   2.600   0.780  0.1618  0.2911  0.9577
  624MOL0     O84163   5.448   2.612   0.749 -0.2212  0.8578  0.0654
  624MOL0     C84164   5.494   2.631   0.617 -0.3756  0.7135  0.5951
  624MOL0     C84165   5.632   2.682   0.604  1.0363 -0.4816 -0.2795
  624MOL0     C84166   5.646   2.817   0.682  0.7840 -0.3427 -0.9968
  624MOL0     C84167   5.767   2.902   0.645  0.3388 -0.5847  0.3539
  624MOL0     C84168   5.765   2.941   0.502  0.6209  0.7392 -0.4064
  624MOL0     C84169   5.767   2.953   0.380 -0.1944 -0.3519  0.2526
  624MOL0     C84170   5.238   2.518   0.702  1.2237  0.0635 -0.3533
  624MOL0     C84171   5.094   2.513   0.714 -0.3085  0.7908 -0.2432
  624MOL0     C84172   5.019   2.407   0.630 -0.1373  0.1305 -0.1337
  624MOL0     H84173   4.620   2.663   0.916 -0.1943 -1.0791  0.2237
  624MOL0     H84174   4.408   2.789   0.895  0.7150 -0.8231  0.8441
  624MOL0     H84175   4.147   2.996   0.758 -0.8306 -1.0048  2.1716
  624MOL0     H84176   4.245   2.905   0.879  0.0087 -0.9111  0.4093
  624MOL0     H84177   4.346   3.163   0.767  0.5482 -0.1151 -0.3075
  624MOL0     H84178   4.418   3.058   0.890  0.2486 -1.5878 -1.1361
  624MOL0     H84179   4.182   3.082   1.006  0.5362 -1.1415 -2.4731
  624MOL0     H84180   4.154   3.208   0.878  1.2335  1.6941 -1.3944
  624MOL0     H84181   4.391   3.192   1.079 -0.0172  0.4876  0.4633
  624MOL0     H84182   4.341   3.338   0.978 -1.9674 -0.5301 -0.9484
  624MOL0     H84183   4.129   3.349   1.112  0.4373  2.4887  0.5723
  624MOL0     H84184   4.187   3.219   1.215 -2.3401 -1.4229 -2.9924
  624MOL0     H84185   4.263   3.414   1.326 -1.5455  2.4599 -0.5067
  624MOL0     H84186   4.410   3.358   1.241 -1.2323 -1.1565  3.6983
  624MOL0     H84187   4.227   3.588   1.140  0.9530  1.1735  0.3847
  624MOL0     H84188   4.373   3.531   1.063  3.2595  2.4945  1.2624
  624MOL0     H84189   4.414   3.736   1.189 -4.9078 -0.0505 -2.3662
  624MOL0     H84190   4.363   3.647   1.346  4.0856  1.3374  1.6309
  624MOL0     H84191   4.522   3.488   1.471  3.1974 -4.8258  0.4289
  624MOL0     H84192   4.745   3.509   1.597  2.4111 -3.1681  1.2239
  624MOL0     H84193   4.832   3.403   1.499 -1.0818 -0.3574  0.7774
  624MOL0     H84194   4.977   3.604   1.423  1.5053 -1.0915  1.0720
  624MOL0     H84195   4.865   3.699   1.527 -1.5448 -1.8843  1.7298
  624MOL0     H84196   5.071   3.497   1.611  1.4028  0.3069  2.1977
  624MOL0     H84197   4.953   3.560   1.722  1.9219 -3.4369  1.0986
  624MOL0     H84198   5.170   3.738   1.584 -0.2360 -3.1990 -2.1761
  624MOL0     H84199   5.175   3.648   1.733  0.9054 -1.6543 -2.8363
  624MOL0     H84200   5.301   3.821   1.783 -0.2495  0.3817 -1.9048
  624MOL0     H84201   5.427   4.003   1.882 -0.3984 -1.6035 -0.5854
  624MOL0     H84202   5.176   4.558   1.789  1.7885  1.3519  0.1846
  624MOL0     H84203   5.301   4.794   1.769  1.0099  0.0519 -1.2004
  624MOL0     H84204   5.647   4.895   2.046  1.4375  0.1719 -0.2967
  624MOL0     H84205   5.675   4.807   1.901  0.7979  0.5547  0.1439
  624MOL0     H84206   5.613   5.016   1.782 -3.2023 -0.3440  2.2857
  624MOL0     H84207   5.626   5.112   1.932  1.2956  0.3400  0.0740
  624MOL0     H84208   5.833   5.129   1.836  1.7676 -0.5522  0.9503
  624MOL0     H84209   5.843   5.010   1.971 -1.7638  1.2820  1.2574
  624MOL0     H84210   5.820   4.901   1.701  0.5562  1.2506 -2.2245
  624MOL0     H84211   5.887   4.839   1.848 -1.1355 -1.1293 -1.7052
  624MOL0     H84212   6.072   5.037   1.818  0.5246  0.4896 -0.1403
  624MOL0     H84213   5.991   5.033   1.653 -0.8893  2.6940  2.7416
  624MOL0     H84214   6.068   4.795   1.641 -0.7584 -1.6633  2.8993
  624MOL0     H84215   6.209   4.915   1.654  1.9312 -0.9493  2.6722
  624MOL0     H84216   6.088   4.734   1.863  1.6506 -1.4869 -0.4025
  624MOL0     H84217   6.221   4.847   1.886 -0.0208  1.3590 -1.3652
  624MOL0     H84218   6.332   4.702   1.691 -1.0280 -3.3527 -2.6084
  624MOL0     H84219   6.305   4.614   1.854 -3.8202 -2.1469  1.1016
  624MOL0     H84220   5.533   4.701   2.112  0.6754 -0.9347 -1.2236
  624MOL0     H84221   5.425   4.479   2.124  1.3441 -0.1102 -1.0191
  624MOL0     H84222   5.061   4.233   1.875 -2.8182 -2.1263  2.4014
  624MOL0     H84223   4.925   4.028   1.817 -0.7608  0.4078  0.4763
  624MOL0     H84224   4.511   2.891   0.498  2.0236 -0.3737 -0.9078
  624MOL0     H84225   4.708   2.772   0.508  2.9480  0.8343  2.3843
  624MOL0     H84226   5.069   2.718   0.981 -1.2409 -1.5023  1.4206
  624MOL0     H84227   5.315   2.738   0.933  2.6643 -1.5703 -1.0523
  624MOL0     H84228   5.421   2.690   0.561  0.5771 -0.6215 -2.2820
  624MOL0     H84229   5.505   2.537   0.562  1.3163 -0.9692  3.5206
  624MOL0     H84230   5.647   2.704   0.498  0.5025  0.0056 -0.2580
  624MOL0     H84231   5.703   2.613   0.650  0.5816  0.7336  2.4293
  624MOL0     H84232   5.655   2.789   0.787  0.0828  0.4076 -0.7238
  624MOL0     H84233   5.552   2.871   0.668  1.0493  0.7775  1.1937
  624MOL0     H84234   5.763   2.996   0.702  0.9472  0.1893 -0.8527
  624MOL0     H84235   5.865   2.858   0.667  0.4815  1.1513  4.0683
  624MOL0     H84236   5.781   2.987   0.279  2.6334 -1.3416  0.2371
  624MOL0     H84237   5.288   2.468   0.620  0.7827 -2.6026  0.8860
  624MOL0     H84238   5.076   2.331   0.576 -0.4824 -1.0183  1.0767
  624MOL0     H84239   4.966   2.358   0.712  2.4511  0.9710  2.1744
  624MOL0     H84240   4.940   2.449   0.567 -1.0692 -0.0473  0.8931
  625MOL0     O84241   8.718   1.990   8.653 -0.2344 -0.7206  0.9070
  625MOL0     C84242   8.608   1.937   8.663  0.9931 -0.5289  0.7935
  625MOL0     O84243   8.488   1.999   8.648  0.0631 -0.7670  0.2872
  625MOL0     C84244   8.490   2.135   8.637  0.4282  0.6468  0.0717
  625MOL0     C84245   8.488   2.215   8.747 -0.1484 -0.2287  0.7520
  625MOL0     C84246   8.456   2.351   8.742 -0.1869 -0.0084  0.7009
  625MOL0     C84247   8.412   2.411   8.622  1.2581 -0.5219  0.6870
  625MOL0     O84248   8.350   2.529   8.593 -0.0229  0.8109 -0.2452
  625MOL0     C84249   8.269   2.595   8.699  0.3651 -0.0813  0.7700
  625MOL0     C84250   8.342   2.721   8.748  0.4456 -0.0483  0.6128
  625MOL0     C84251   8.426   2.792   8.640 -0.0315 -0.3980 -0.2972
  625MOL0     C84252   8.487   2.925   8.686 -0.6498 -0.3357 -0.5022
  625MOL0     C84253   8.551   3.014   8.573  0.0047  0.0012  0.5395
  625MOL0     C84254   8.696   2.974   8.533  0.6251  0.2550 -0.2544
  625MOL0     C84255   8.745   3.046   8.407 -0.5619  0.3774 -0.3696
  625MOL0     C84256   8.720   3.192   8.417  0.4131 -0.8508 -0.3345
  625MOL0     N84257   8.815   3.260   8.326 -0.4088 -0.3635 -0.1381
  625MOL0     C84258   8.801   3.256   8.187 -0.2974  0.3675 -0.4947
  625MOL0     C84259   8.932   3.271   8.150  0.6924 -0.3513 -0.0647
  625MOL0     C84260   8.957   3.280   8.007  0.2622 -0.5166  0.2869
  625MOL0     C84261   8.967   3.427   7.955  0.2009  0.0829  0.5747
  625MOL0     C84262   8.840   3.498   7.918 -0.2728  0.9049  0.3874
  625MOL0     C84263   8.892   3.611   7.833  0.8927 -0.5294  0.3401
  625MOL0     O84264   8.969   3.702   7.912  0.8358 -0.3600 -0.0794
  625MOL0     C84265   9.037   3.811   7.846 -0.1199  0.7622 -0.2871
  625MOL0     C84266   9.149   3.787   7.755  0.4185 -0.0526 -0.8153
  625MOL0     C84267   9.213   3.902   7.691 -0.8777  1.4687 -0.6248
  625MOL0     C84268   9.188   4.031   7.737  1.0182 -0.8389  0.4681
  625MOL0     C84269   9.267   4.146   7.685  1.3558  0.2860 -0.1915
  625MOL0     O84270   9.373   4.123   7.606 -0.3304  0.5603 -0.5033
  625MOL0     C84271   9.473   4.218   7.596  0.0757  0.0323  0.7192
  625MOL0     C84272   9.496   4.316   7.693 -0.0661 -0.6432 -0.1946
  625MOL0     C84273   9.600   4.405   7.682 -0.6025  0.4960 -0.7220
  625MOL0     C84274   9.679   4.414   7.570 -0.2757 -0.8533 -0.5267
  625MOL0     O84275   9.778   4.513   7.557 -0.6680  0.3662 -0.3248
  625MOL0     C84276   9.909   4.457   7.552  0.2501 -0.1819  0.5423
  625MOL0     C84277   9.979   4.508   7.673 -0.4900  0.8718  0.1927
  625MOL0     C84278  10.127   4.461   7.679 -0.8866 -0.2521  0.0046
  625MOL0     C84279  10.190   4.444   7.818 -0.3113  0.8375  0.5726
  625MOL0     C84280  10.325   4.360   7.797 -0.0456 -0.2972 -1.0189
  625MOL0     C84281  10.439   4.458   7.765  0.7475  0.3950 -0.1461
  625MOL0     C84282  10.573   4.388   7.770  0.5762 -0.7170 -0.1893
  625MOL0     C84283  10.693   4.484   7.745 -0.6594 -0.5241  0.4393
  625MOL0    Cl84284  10.725   4.568   7.904 -0.7497  0.0531  0.2254
  625MOL0     C84285   9.648   4.325   7.467  0.2746  0.0022 -0.9142
  625MOL0     C84286   9.554   4.221   7.488 -0.3183  0.3163 -0.8421
  625MOL0     O84287   9.229   4.263   7.719 -0.4210  0.4214  0.2243
  625MOL0     C84288   9.077   4.050   7.821  0.2961 -1.0475  0.4374
  625MOL0     C84289   9.014   3.936   7.881 -0.5359 -0.0648 -0.5413
  625MOL0     N84290   9.013   3.306   8.254 -0.6411  0.3290  0.2253
  625MOL0     N84291   8.943   3.295   8.357 -0.2211 -0.3469  0.2046
  625MOL0     C84292   8.429   2.326   8.509  0.3229  0.2211  0.8111
  625MOL0     C84293   8.459   2.190   8.515 -0.2007  0.4957 -0.5910
  625MOL0     C84294   8.610   1.795   8.704 -0.1279 -0.0937 -0.5125
  625MOL0     C84295   8.491   1.746   8.767 -0.8951 -0.6174 -0.6846
  625MOL0     C84296   8.487   1.623   8.825 -0.3033 -0.0993  0.1716
  625MOL0     C84297   8.605   1.544   8.826  0.3154 -0.4441 -0.1595
  625MOL0     O84298   8.619   1.423   8.889  0.6367  0.4078 -0.7216
  625MOL0     C84299   8.508   1.366   8.965 -0.4941  0.2482 -0.4704
  625MOL0     C84300   8.413   1.291   8.863 -0.4180 -0.5305 -0.0297
  625MOL0     C84301   8.498   1.186   8.782  0.0505  0.5841 -0.4155
  625MOL0     C84302   8.419   1.103   8.688 -0.3379  0.3071  1.1359
  625MOL0     C84303   8.360   0.988   8.758  0.5776  0.4168 -0.1219
  625MOL0     C84304   8.322   0.892   8.821 -0.5739 -0.2280  0.2574
  625MOL0     C84305   8.714   1.579   8.746  0.1290 -1.0000 -0.4281
  625MOL0     C84306   8.718   1.702   8.681 -0.2388 -0.3610 -0.0125
  625MOL0     C84307   8.835   1.751   8.604  0.4598  0.2077 -0.1713
  625MOL0     H84308   8.504   2.168   8.844 -0.8836  0.9569  1.4764
  625MOL0     H84309   8.445   2.412   8.831  1.0433 -0.0454  0.8899
  625MOL0     H84310   8.178   2.642   8.660  0.2500 -0.1598  0.9430
  625MOL0     H84311   8.237   2.521   8.772 -2.6766 -1.8682 -2.0979
  625MOL0     H84312   8.421   2.687   8.815  0.1998 -1.1337  0.3643
  625MOL0     H84313   8.286   2.794   8.808  1.7898  1.3442  0.2461
  625MOL0     H84314   8.366   2.824   8.554 -1.3385  2.8970  1.6570
  625MOL0     H84315   8.505   2.727   8.600  2.0196  2.1981 -0.7280
  625MOL0     H84316   8.423   2.993   8.742  1.6384  0.1674  1.7192
  625MOL0     H84317   8.552   2.911   8.773 -1.8660  0.5640  0.5862
  625MOL0     H84318   8.491   3.014   8.482  3.0205 -0.4958 -1.5906
  625MOL0     H84319   8.556   3.117   8.609  1.1286  0.4461 -0.8130
  625MOL0     H84320   8.763   2.996   8.616  1.2503 -2.0742 -0.1044
  625MOL0     H84321   8.707   2.866   8.522 -2.0566  0.1507 -3.9537
  625MOL0     H84322   8.701   3.007   8.315  0.1577  0.5982 -0.8094
  625MOL0     H84323   8.850   3.024   8.389 -0.6562  1.4630 -2.5013
  625MOL0     H84324   8.615   3.202   8.387  0.8801 -0.9282 -2.0941
  625MOL0     H84325   8.743   3.213   8.522  0.6895 -0.4566 -0.4730
  625MOL0     H84326   8.721   3.247   8.114  1.1495  0.8010 -2.2139
  625MOL0     H84327   9.047   3.224   7.980  1.2894  1.4662 -0.6466
  625MOL0     H84328   8.888   3.234   7.936 -0.6569  0.7969  0.3030
  625MOL0     H84329   9.015   3.487   8.033 -1.5975 -0.7436  2.4125
  625MOL0     H84330   9.036   3.414   7.871 -1.8415  1.7623 -1.4926
  625MOL0     H84331   8.789   3.528   8.010 -1.9347 -4.3892  1.5924
  625MOL0     H84332   8.766   3.433   7.870  2.2047 -2.1902  0.3929
  625MOL0     H84333   8.803   3.671   7.810  0.8302  0.4384  2.7541
  625MOL0     H84334   8.949   3.589   7.743 -0.9835  0.4680 -1.1537
  625MOL0     H84335   9.177   3.693   7.708  1.7927  0.6241 -1.4337
  625MOL0     H84336   9.298   3.887   7.624  2.5225 -0.3114  3.6278
  625MOL0     H84337   9.436   4.332   7.782 -0.7607  2.4230 -1.1058
  625MOL0     H84338   9.625   4.475   7.761 -1.9675 -0.3038  0.4491
  625MOL0     H84339   9.903   4.348   7.551 -3.2751 -0.1183 -1.2088
  625MOL0     H84340   9.963   4.481   7.459 -0.2108  4.1935  1.2141
  625MOL0     H84341   9.975   4.617   7.664 -1.2587  1.0483  2.1927
  625MOL0     H84342   9.926   4.472   7.761 -2.2574  2.1770 -0.2681
  625MOL0     H84343  10.132   4.367   7.624 -1.3350 -0.3655  0.1560
  625MOL0     H84344  10.187   4.534   7.624 -1.9376 -0.4385 -1.4490
  625MOL0     H84345  10.138   4.380   7.891  1.1532 -0.1709  0.7909
  625MOL0     H84346  10.212   4.542   7.860  1.8642  0.3167  0.7797
  625MOL0     H84347  10.307   4.283   7.722  2.3977 -2.0316  0.0386
  625MOL0     H84348  10.338   4.300   7.887 -1.2818 -0.4766 -0.9391
  625MOL0     H84349  10.424   4.501   7.665  1.2205 -0.2420 -0.5025
  625MOL0     H84350  10.441   4.535   7.843 -1.1127 -0.8442  1.1808
  625MOL0     H84351  10.582   4.306   7.698  1.4305  0.9112 -2.0586
  625MOL0     H84352  10.589   4.353   7.872  0.0962  0.4834  0.3193
  625MOL0     H84353  10.779   4.418   7.730 -0.8541 -0.1372 -3.2498
  625MOL0     H84354  10.684   4.554   7.662  2.3913 -1.2528 -0.6165
  625MOL0     H84355   9.697   4.329   7.371  0.8181  1.7650 -0.6111
  625MOL0     H84356   9.532   4.155   7.405 -3.6518  0.7976 -0.4732
  625MOL0     H84357   9.026   4.144   7.838 -1.6136 -1.9050 -0.2628
  625MOL0     H84358   8.930   3.951   7.949 -3.5222 -0.6045 -3.7805
  625MOL0     H84359   8.408   2.352   8.405 -0.2415 -0.4718  0.7453
  625MOL0     H84360   8.463   2.127   8.427  2.7045  1.7490 -1.4707
  625MOL0     H84361   8.398   1.799   8.782 -0.7328 -0.9264  1.8202
  625MOL0     H84362   8.396   1.607   8.882 -0.0835  2.4640  1.3935
  625MOL0     H84363   8.464   1.447   9.023  0.0276  0.2711 -0.1013
  625MOL0     H84364   8.554   1.288   9.027  0.2090 -1.2740 -2.7667
  625MOL0     H84365   8.378   1.364   8.789 -2.4185  0.7407  2.0346
  625MOL0     H84366   8.327   1.256   8.920  1.3470 -1.5620  2.1644
  625MOL0     H84367   8.563   1.125   8.846 -1.8648 -0.7204  0.3630
  625MOL0     H84368   8.570   1.241   8.722  2.2658 -2.0454 -0.3719
  625MOL0     H84369   8.335   1.161   8.649 -1.4868 -1.9316  0.0856
  625MOL0     H84370   8.480   1.078   8.601 -3.5348  0.2128 -1.2919
  625MOL0     H84371   8.318   0.800   8.877 -1.7886  1.2085  2.7210
  625MOL0     H84372   8.801   1.514   8.744 -1.2807 -3.3468  3.5071
  625MOL0     H84373   8.886   1.659   8.573 -3.1882 -3.0384  2.5247
  625MOL0     H84374   8.825   1.803   8.508 -1.7068 -0.5572 -0.4232
  625MOL0     H84375   8.900   1.800   8.678  0.5015  0.9034 -0.6556
  626MOL0     O84376   9.566   5.862   2.424  0.9983 -0.5285  0.2778
  626MOL0     C84377   9.596   5.896   2.314 -1.0599 -0.5146  0.2866
  626MOL0     O84378   9.726   5.914   2.271  0.4642 -0.0567  0.3282
  626MOL0     C84379   9.832   5.909   2.353 -0.0277  0.2727 -0.5819
  626MOL0     C84380   9.873   5.780   2.386 -0.2738  0.4641 -0.0567
  626MOL0     C84381   9.973   5.767   2.486  0.0770 -0.3687  0.6238
  626MOL0     C84382  10.023   5.878   2.547  0.3036 -0.2085  0.5516
  626MOL0     O84383  10.110   5.866   2.654  0.3853 -0.3459 -0.4448
  626MOL0     C84384  10.144   5.741   2.710  0.7811  0.4255  0.5686
  626MOL0     C84385  10.236   5.771   2.827 -0.2767  0.3168  0.6897
  626MOL0     C84386  10.276   5.651   2.919 -0.4290 -1.1245  0.0931
  626MOL0     C84387  10.378   5.711   3.008  0.4876 -0.0973  0.2518
  626MOL0     C84388  10.316   5.760   3.141  0.0344  0.6422  0.2051
  626MOL0     C84389  10.432   5.808   3.232  0.5367  0.3426  0.2735
  626MOL0     C84390  10.375   5.850   3.374 -0.5683 -0.1968  0.7768
  626MOL0     C84391  10.467   5.963   3.439  0.2770  0.0425  1.1803
  626MOL0     N84392  10.592   5.906   3.483  0.3269  0.2504  0.1479
  626MOL0     C84393  10.617   5.888   3.612  0.1034 -0.8660  0.6486
  626MOL0     C84394  10.733   5.819   3.615 -0.1788 -0.5839  0.4971
  626MOL0     C84395  10.823   5.801   3.740  0.3601  0.4777 -0.5491
  626MOL0     C84396  10.806   5.658   3.796  0.1835 -0.3822 -0.4389
  626MOL0     C84397  10.665   5.613   3.840  0.1294 -0.8660 -0.4267
  626MOL0     C84398  10.668   5.497   3.931  0.1824  0.3130 -0.4960
  626MOL0     O84399  10.556   5.477   4.022  0.0960 -0.7046  0.1843
  626MOL0     C84400  10.524   5.550   4.138 -0.4001  0.9975  0.5911
  626MOL0     C84401  10.405   5.511   4.194 -0.0224  0.8435 -0.6525
  626MOL0     C84402  10.352   5.586   4.299  0.7625 -0.6085  0.3987
  626MOL0     C84403  10.428   5.688   4.367  0.7888  0.4288  0.4140
  626MOL0     C84404  10.368   5.774   4.471  0.5735  0.2250  0.3879
  626MOL0     O84405  10.245   5.745   4.504  0.0738 -0.1976  0.2416
  626MOL0     C84406  10.189   5.840   4.596  0.3073 -0.9084  0.4111
  626MOL0     C84407  10.117   5.942   4.540 -0.2033 -0.1398  0.3465
  626MOL0     C84408  10.061   6.044   4.623 -0.0983 -1.0119 -0.9380
  626MOL0     C84409  10.066   6.024   4.766 -0.4947  0.1676 -0.2316
  626MOL0     O84410  10.000   6.115   4.846  0.0489 -0.5192 -0.0148
  626MOL0     C84411   9.970   6.087   4.985  0.0267 -0.4842 -0.5009
  626MOL0     C84412  10.062   6.156   5.088 -0.3066 -0.4791  0.4881
  626MOL0     C84413  10.082   6.067   5.215  0.7359  0.3088  0.1798
  626MOL0     C84414  10.154   6.159   5.309  0.1042  0.2635 -0.1019
  626MOL0     C84415  10.195   6.084   5.430 -0.0152  0.2736  0.0786
  626MOL0     C84416  10.259   6.172   5.537  0.1937 -0.5189  0.2422
  626MOL0     C84417  10.406   6.183   5.517  0.5585 -0.1677 -0.6335
  626MOL0     C84418  10.470   6.244   5.642  0.5499  0.3651  0.1919
  626MOL0    Cl84419  10.649   6.252   5.612  0.3937  0.2551  0.3439
  626MOL0     C84420  10.138   5.919   4.817  0.5892 -0.7113  0.0081
  626MOL0     C84421  10.205   5.839   4.724  1.0969  0.8748  0.5691
  626MOL0     O84422  10.437   5.867   4.522  0.7867 -0.2158  0.4127
  626MOL0     C84423  10.552   5.718   4.315 -0.8284 -0.0416 -0.2905
  626MOL0     C84424  10.597   5.651   4.196  0.3820 -0.4380 -0.4224
  626MOL0     N84425  10.771   5.803   3.486 -0.6237 -0.2768  0.4538
  626MOL0     N84426  10.679   5.848   3.406  0.8051 -0.2359 -0.4144
  626MOL0     C84427   9.993   6.009   2.506 -1.0475  0.5722  0.6822
  626MOL0     C84428   9.900   6.022   2.410 -0.4953 -0.4923 -0.3319
  626MOL0     C84429   9.491   5.921   2.213  0.7993  0.6006  0.1983
  626MOL0     C84430   9.398   5.814   2.200  0.2640 -0.7008  0.4425
  626MOL0     C84431   9.294   5.823   2.112 -0.3425  0.8766 -0.1317
  626MOL0     C84432   9.294   5.917   2.010  0.2358 -0.1441  0.7440
  626MOL0     O84433   9.197   5.942   1.924  0.3669  0.2732 -0.2470
  626MOL0     C84434   9.221   5.864   1.802 -0.3332  0.0928  0.6220
  626MOL0     C84435   9.210   5.715   1.812 -0.3868 -0.3236 -0.6388
  626MOL0     C84436   9.077   5.674   1.867 -0.0999  1.1497 -0.2755
  626MOL0     C84437   9.050   5.520   1.845 -0.0887  0.1523  0.1413
  626MOL0     C84438   9.157   5.435   1.903 -0.8044  0.0417 -0.5641
  626MOL0     C84439   9.244   5.384   1.969  0.2569 -1.3021 -0.1602
  626MOL0     C84440   9.391   6.014   2.020 -0.5720  0.2810 -0.2383
  626MOL0     C84441   9.486   6.026   2.124 -0.4144  0.3770 -0.3608
  626MOL0     C84442   9.587   6.141   2.133  0.1631  0.3159  0.0561
  626MOL0     H84443   9.819   5.697   2.343 -2.1473  0.7423  1.5969
  626MOL0     H84444   9.995   5.666   2.518 -1.4692 -0.3986  1.6729
  626MOL0     H84445  10.058   5.684   2.745 -1.2089  1.4043 -2.3404
  626MOL0     H84446  10.194   5.680   2.634 -0.9834 -1.9084  1.1774
  626MOL0     H84447  10.179   5.845   2.885  0.3576  1.7894 -0.5238
  626MOL0     H84448  10.324   5.818   2.783 -0.4160 -0.3100 -0.2832
  626MOL0     H84449  10.299   5.576   2.843  1.5349  0.0039 -0.5027
  626MOL0     H84450  10.197   5.612   2.984  0.9826 -4.1487  0.1464
  626MOL0     H84451  10.458   5.637   3.018  0.4618 -0.2952 -0.8720
  626MOL0     H84452  10.421   5.793   2.951 -1.4668  0.9317  0.1591
  626MOL0     H84453  10.255   5.847   3.117  1.5271  1.4139 -0.9834
  626MOL0     H84454  10.254   5.692   3.200 -1.8000  4.1768  2.7148
  626MOL0     H84455  10.510   5.732   3.237  0.6067  0.5062  2.2749
  626MOL0     H84456  10.470   5.893   3.174 -0.5705  3.0592  3.2115
  626MOL0     H84457  10.350   5.758   3.429  0.8945 -1.6848 -0.8990
  626MOL0     H84458  10.285   5.907   3.350  0.8940  1.6295 -0.5594
  626MOL0     H84459  10.495   6.026   3.354  0.8880 -0.0817  1.2842
  626MOL0     H84460  10.429   6.028   3.519 -2.8485 -0.2312  0.0637
  626MOL0     H84461  10.574   5.920   3.706  0.3486  2.5421 -0.2602
  626MOL0     H84462  10.927   5.825   3.719  1.9965  0.0062  5.1181
  626MOL0     H84463  10.800   5.859   3.830  1.6531 -3.8899  3.0159
  626MOL0     H84464  10.831   5.587   3.716 -1.4909 -1.7993  0.2361
  626MOL0     H84465  10.875   5.642   3.879  1.3429 -0.4245 -1.3803
  626MOL0     H84466  10.593   5.591   3.762 -1.2674 -1.3683  0.9458
  626MOL0     H84467  10.618   5.701   3.887  0.0694 -0.7712 -0.6617
  626MOL0     H84468  10.755   5.505   3.996 -1.5626 -1.3525  2.2145
  626MOL0     H84469  10.676   5.421   3.853  0.3411  0.8938 -1.0610
  626MOL0     H84470  10.362   5.419   4.157  1.2883  0.5455 -1.5070
  626MOL0     H84471  10.255   5.559   4.339  0.1016  2.1267  0.8406
  626MOL0     H84472  10.101   5.941   4.433  1.5965 -1.4707  0.0371
  626MOL0     H84473  10.002   6.125   4.581 -1.0221 -0.8071  0.6636
  626MOL0     H84474   9.871   6.121   5.017  1.0194  2.6786 -0.4653
  626MOL0     H84475   9.967   5.979   5.002 -1.8281 -0.3236  0.4343
  626MOL0     H84476  10.153   6.187   5.037 -2.0099  2.4411 -1.0436
  626MOL0     H84477  10.019   6.250   5.123  0.6759 -0.0680  0.6216
  626MOL0     H84478   9.996   6.027   5.269  0.7423  1.6550  1.2584
  626MOL0     H84479  10.149   5.985   5.187  0.5414  0.1788  0.0978
  626MOL0     H84480  10.089   6.241   5.340  3.0651  2.4772  0.7572
  626MOL0     H84481  10.236   6.211   5.258  2.0499 -1.7127  0.8593
  626MOL0     H84482  10.263   6.003   5.403 -0.2860  0.8262 -2.4352
  626MOL0     H84483  10.105   6.050   5.482  1.5102 -1.6418  1.6187
  626MOL0     H84484  10.209   6.269   5.553 -2.3879 -1.4539 -1.4724
  626MOL0     H84485  10.263   6.126   5.637  0.2385  1.1790  1.0621
  626MOL0     H84486  10.431   6.240   5.427 -0.6638 -2.7122 -2.6953
  626MOL0     H84487  10.452   6.085   5.506 -4.3318 -3.0024  1.1568
  626MOL0     H84488  10.439   6.345   5.669 -0.7292  0.5010 -1.5897
  626MOL0     H84489  10.464   6.196   5.740 -2.0914  2.3361  1.1112
  626MOL0     H84490  10.151   5.898   4.922  0.7267  0.1153  0.1695
  626MOL0     H84491  10.263   5.752   4.754 -0.2778 -0.5730 -0.7831
  626MOL0     H84492  10.608   5.803   4.353 -1.9739  1.1460 -1.1719
  626MOL0     H84493  10.686   5.686   4.145  0.7842  2.4686  1.9599
  626MOL0     H84494  10.042   6.099   2.539  1.7261 -0.9316  0.9620
  626MOL0     H84495   9.873   6.124   2.386 -2.1800 -0.7673  0.2369
  626MOL0     H84496   9.412   5.738   2.276 -0.0402 -2.3902 -1.1170
  626MOL0     H84497   9.212   5.752   2.107  0.9863 -0.8300  0.9466
  626MOL0     H84498   9.312   5.894   1.748  0.1957  0.7910  1.8684
  626MOL0     H84499   9.135   5.887   1.738  1.1898 -2.5416 -2.6869
  626MOL0     H84500   9.289   5.679   1.879  0.9431  1.8810 -0.9229
  626MOL0     H84501   9.222   5.674   1.711  0.0184 -2.5827  0.2497
  626MOL0     H84502   8.989   5.730   1.832 -1.1724 -1.3263 -1.8209
  626MOL0     H84503   9.062   5.689   1.974 -2.0668  1.2528 -0.5212
  626MOL0     H84504   8.953   5.496   1.889  0.6563 -0.2421  1.6399
  626MOL0     H84505   9.039   5.497   1.739  1.4582 -1.2517  0.2523
  626MOL0     H84506   9.331   5.355   2.023  1.1491  1.3420 -0.0186
  626MOL0     H84507   9.393   6.097   1.949  3.1032  0.6785  0.1321
  626MOL0     H84508   9.640   6.150   2.229  1.3721  2.4673 -0.7353
  626MOL0     H84509   9.672   6.139   2.064  1.5406  4.1372  1.3604
  626MOL0     H84510   9.539   6.233   2.099  0.4482  0.9463  1.3013
  627MOL0     O84511   1.492   0.451   2.345  0.8471 -0.6084 -0.7161
  627MOL0     C84512   1.483   0.456   2.230 -0.0653 -0.0975  0.2869
  627MOL0     O84513   1.589   0.478   2.146  0.0400 -0.6106  0.1569
  627MOL0     C84514   1.720   0.488   2.205 -0.3688 -0.7498  0.5965
  627MOL0     C84515   1.814   0.397   2.154 -0.0746 -1.0359  0.1966
  627MOL0     C84516   1.945   0.400   2.199 -1.1175  0.3072  0.9273
  627MOL0     C84517   1.982   0.499   2.294 -0.4254 -0.1488  0.7231
  627MOL0     O84518   2.122   0.497   2.328 -0.2326  0.2166 -0.2541
  627MOL0     C84519   2.163   0.561   2.450  0.2103 -0.3859  0.5804
  627MOL0     C84520   2.315   0.577   2.437 -0.7252 -0.2889 -0.1329
  627MOL0     C84521   2.398   0.447   2.454  0.5310  0.3561  0.9032
  627MOL0     C84522   2.439   0.375   2.322 -0.4434  0.0998  0.3850
  627MOL0     C84523   2.579   0.311   2.327  0.5882  0.3448  0.7076
  627MOL0     C84524   2.664   0.362   2.213  0.3482  0.8151  0.9549
  627MOL0     C84525   2.606   0.340   2.071 -0.4348 -0.3105  0.6242
  627MOL0     C84526   2.600   0.189   2.029  0.3539  0.0758  0.8994
  627MOL0     N84527   2.589   0.198   1.882 -0.0333 -0.8599 -0.7624
  627MOL0     C84528   2.477   0.188   1.800 -0.9071 -0.2063  0.2020
  627MOL0     C84529   2.524   0.199   1.669  0.7558 -0.4375 -0.1116
  627MOL0     C84530   2.441   0.211   1.545  0.4174 -0.4882  0.4669
  627MOL0     C84531   2.358   0.078   1.535  0.0219 -1.1235 -0.1657
  627MOL0     C84532   2.245   0.085   1.432 -0.3936 -0.3148  0.4399
  627MOL0     C84533   2.128   0.157   1.488  0.2797 -0.2033 -0.8604
  627MOL0     O84534   2.033   0.171   1.383 -0.2594 -0.2138 -0.5985
  627MOL0     C84535   1.901   0.121   1.388 -0.2785 -0.0823  0.8210
  627MOL0     C84536   1.834   0.049   1.486 -0.2379 -0.4406 -0.4607
  627MOL0     C84537   1.700   0.002   1.464  0.2543  0.2283  0.3331
  627MOL0     C84538   1.628   0.028   1.350  0.0347  0.2392  0.7362
  627MOL0     C84539   1.493  -0.031   1.329 -0.2778  0.5244  0.2957
  627MOL0     O84540   1.423   0.024   1.219  0.2761 -0.3252 -0.2452
  627MOL0     C84541   1.288   0.022   1.214  0.3534 -0.3076 -0.1645
  627MOL0     C84542   1.212   0.079   1.312  0.2711  0.5663 -0.7932
  627MOL0     C84543   1.069   0.101   1.298 -1.1223  0.5523 -0.0196
  627MOL0     C84544   1.009   0.079   1.175 -0.3404  0.5924  0.1058
  627MOL0     O84545   0.892   0.128   1.143  0.4071  0.0225  0.2445
  627MOL0     C84546   0.855   0.256   1.194  0.6688 -0.5154  0.9343
  627MOL0     C84547   0.789   0.353   1.097 -0.0352  0.6147  0.8599
  627MOL0     C84548   0.682   0.282   1.013 -0.5259  0.0506 -0.0120
  627MOL0     C84549   0.590   0.372   0.927 -0.6776  0.6380 -0.8790
  627MOL0     C84550   0.505   0.292   0.842  0.3782 -0.0557 -0.0211
  627MOL0     C84551   0.439   0.167   0.899  0.0508 -1.1219 -0.3727
  627MOL0     C84552   0.309   0.135   0.831 -0.6383 -0.2356 -0.3799
  627MOL0     C84553   0.247  -0.000   0.868 -0.3009 -0.2878 -0.3243
  627MOL0    Cl84554   0.097  -0.026   0.780 -0.3377 -0.3002 -0.0241
  627MOL0     C84555   1.084   0.002   1.087 -0.1195 -0.6602  0.0961
  627MOL0     C84556   1.218  -0.022   1.100 -1.4154 -0.3182 -1.0751
  627MOL0     O84557   1.443  -0.094   1.419  0.4478 -0.1080  0.1289
  627MOL0     C84558   1.686   0.114   1.259  0.8197  0.7478  0.2799
  627MOL0     C84559   1.820   0.169   1.277  0.1694  0.4593 -0.5933
  627MOL0     N84560   2.656   0.225   1.676  0.1725 -0.1079  0.6505
  627MOL0     N84561   2.694   0.227   1.798  0.5753  0.3982  0.9478
  627MOL0     C84562   1.884   0.580   2.352 -0.4990 -0.5470  0.0554
  627MOL0     C84563   1.755   0.583   2.299  0.0241 -0.3610 -0.3985
  627MOL0     C84564   1.351   0.428   2.170  0.6106 -0.4822  0.3622
  627MOL0     C84565   1.332   0.468   2.036  0.3144  0.2048 -0.0343
  627MOL0     C84566   1.210   0.452   1.971  0.1316  0.3108 -0.0007
  627MOL0     C84567   1.103   0.384   2.027 -0.0923 -0.7093  0.2166
  627MOL0     O84568   0.984   0.383   1.955 -0.6845  0.3171 -0.0564
  627MOL0     C84569   0.866   0.337   2.027 -0.8171 -0.5550 -0.0231
  627MOL0     C84570   0.761   0.352   1.927 -0.5363 -0.0509 -0.3015
  627MOL0     C84571   0.621   0.319   1.989 -1.1520 -0.0690 -0.4970
  627MOL0     C84572   0.510   0.341   1.890  0.3031 -0.1549  0.4458
  627MOL0     C84573   0.392   0.382   1.964  0.4892 -0.3963 -0.5867
  627MOL0     C84574   0.297   0.398   2.044 -1.0666  0.2545  0.3559
  627MOL0     C84575   1.119   0.340   2.157 -0.4649 -0.4230 -0.0437
  627MOL0     C84576   1.233   0.367   2.232  0.5231 -0.2906  0.8525
  627MOL0     C84577   1.228   0.323   2.382  0.0658 -0.0910  0.3587
  627MOL0     H84578   1.787   0.328   2.075  0.0760 -0.6719 -0.1743
  627MOL0     H84579   2.021   0.332   2.162  0.8597  3.2757 -0.8780
  627MOL0     H84580   2.116   0.659   2.465 -1.4509 -1.2505  1.4371
  627MOL0     H84581   2.138   0.496   2.535  0.8568  0.2673  1.2933
  627MOL0     H84582   2.332   0.655   2.512 -3.5098  0.1404  0.1474
  627MOL0     H84583   2.343   0.636   2.349 -1.2139  3.0108  1.7549
  627MOL0     H84584   2.343   0.376   2.515  0.0026  0.7649  0.9153
  627MOL0     H84585   2.492   0.469   2.507  0.7572  1.4941  0.0808
  627MOL0     H84586   2.368   0.301   2.285 -0.7834  1.5098 -2.0142
  627MOL0     H84587   2.432   0.456   2.249 -1.2563  0.3973  0.7903
  627MOL0     H84588   2.634   0.343   2.416  0.2708 -0.9586  1.4099
  627MOL0     H84589   2.561   0.203   2.332  1.3536  0.2011  0.4374
  627MOL0     H84590   2.683   0.469   2.228 -1.7369  1.1817  1.3479
  627MOL0     H84591   2.764   0.318   2.219 -0.3649 -0.9689  0.5500
  627MOL0     H84592   2.674   0.397   2.006  1.6377 -0.5679  2.4321
  627MOL0     H84593   2.510   0.390   2.053  0.7324  0.9104 -3.2692
  627MOL0     H84594   2.700   0.144   2.040 -0.6526 -2.4713  0.3717
  627MOL0     H84595   2.524   0.138   2.089 -0.7303 -0.1126 -0.5892
  627MOL0     H84596   2.372   0.166   1.817 -0.8684 -0.9524 -0.4284
  627MOL0     H84597   2.372   0.296   1.545 -0.8748 -1.4848  1.3034
  627MOL0     H84598   2.516   0.211   1.466  1.6666 -1.0023  1.6172
  627MOL0     H84599   2.431   0.001   1.510 -1.1157 -3.3107  2.6863
  627MOL0     H84600   2.300   0.047   1.622 -0.8063 -3.3875 -1.4351
  627MOL0     H84601   2.232  -0.015   1.390  1.3202 -0.3360 -0.1321
  627MOL0     H84602   2.284   0.133   1.342 -3.7612  3.1970  0.6405
  627MOL0     H84603   2.156   0.259   1.517  0.0454 -0.0622 -1.1219
  627MOL0     H84604   2.088   0.098   1.571  1.1589  0.9263  0.4095
  627MOL0     H84605   1.885   0.031   1.580 -0.0999  3.1233  0.2525
  627MOL0     H84606   1.646  -0.046   1.545 -2.2481  2.8457  0.3579
  627MOL0     H84607   1.270   0.112   1.397 -0.1591  0.2868 -0.3855
  627MOL0     H84608   1.009   0.154   1.371 -3.2680 -1.3082 -0.3594
  627MOL0     H84609   0.789   0.241   1.279  1.1010 -0.0137  1.3662
  627MOL0     H84610   0.941   0.307   1.240 -1.5494  1.8628  2.7023
  627MOL0     H84611   0.747   0.438   1.151  0.3609  0.5067  1.3450
  627MOL0     H84612   0.869   0.393   1.033  0.6246 -1.1115  0.5489
  627MOL0     H84613   0.733   0.223   0.937 -1.1338  1.2547 -1.4011
  627MOL0     H84614   0.621   0.217   1.077  0.5392 -0.2601  0.7237
  627MOL0     H84615   0.647   0.436   0.860 -1.5611 -0.1607 -2.4392
  627MOL0     H84616   0.527   0.435   0.991  0.4955 -0.2246  1.2338
  627MOL0     H84617   0.570   0.263   0.759  2.7172 -0.9634  2.0369
  627MOL0     H84618   0.424   0.349   0.795  1.1693  1.0361 -0.1100
  627MOL0     H84619   0.517   0.090   0.909  2.6638  1.5367  1.2234
  627MOL0     H84620   0.401   0.202   0.996 -2.6447 -1.0955 -1.3682
  627MOL0     H84621   0.330   0.130   0.724  1.6642  1.0742 -0.0448
  627MOL0     H84622   0.231   0.211   0.846 -1.1003 -0.8052  0.1484
  627MOL0     H84623   0.323  -0.078   0.851 -0.2498 -0.5406  0.9628
  627MOL0     H84624   0.230  -0.004   0.976  0.9101  2.4522  0.0299
  627MOL0     H84625   1.039  -0.023   0.991  0.5419  4.3573 -1.8358
  627MOL0     H84626   1.274  -0.068   1.019  1.5899 -1.2784  1.3609
  627MOL0     H84627   1.633   0.146   1.170 -2.9261 -2.9857  0.8964
  627MOL0     H84628   1.877   0.229   1.207  1.2986 -0.8838 -0.8692
  627MOL0     H84629   1.917   0.646   2.432 -0.1940 -0.4750 -0.1292
  627MOL0     H84630   1.680   0.645   2.347 -1.7955 -0.8671 -2.4171
  627MOL0     H84631   1.410   0.516   1.977 -0.3014 -0.1680 -1.1856
  627MOL0     H84632   1.216   0.496   1.872  1.2802 -0.9711 -0.5294
  627MOL0     H84633   0.846   0.404   2.112 -3.2863 -0.7710 -0.3465
  627MOL0     H84634   0.878   0.231   2.052  1.2594 -0.6808 -1.3574
  627MOL0     H84635   0.779   0.285   1.843  1.8127  0.2674 -0.1258
  627MOL0     H84636   0.757   0.458   1.901  1.6267  1.0921  3.3258
  627MOL0     H84637   0.609   0.378   2.081  0.1872 -2.1484  1.1102
  627MOL0     H84638   0.632   0.214   2.017  2.1647 -0.1493 -1.6653
  627MOL0     H84639   0.538   0.415   1.815  0.4744  0.0740  0.7316
  627MOL0     H84640   0.487   0.245   1.844  1.3308  0.4835 -1.5110
  627MOL0     H84641   0.230   0.419   2.125 -0.7955 -0.3058  0.7356
  627MOL0     H84642   1.043   0.275   2.198  1.2251 -0.4332  3.4618
  627MOL0     H84643   1.283   0.231   2.405  1.4442  0.8184  0.8659
  627MOL0     H84644   1.264   0.395   2.456 -1.0692  0.7640  0.1078
  627MOL0     H84645   1.124   0.306   2.409 -0.1290 -1.7036 -1.2619
  628MOL0     O84646   5.712  11.017   3.438  0.4002 -0.0253  0.1764
  628MOL0     C84647   5.766  11.027   3.330 -0.4615  0.5503  0.5960
  628MOL0     O84648   5.783  11.137   3.248 -0.5706  0.6444  0.1923
  628MOL0     C84649   5.718  11.254   3.277 -1.5354  0.0702  0.3523
  628MOL0     C84650   5.693  11.313   3.401  0.3498  0.7619 -0.1570
  628MOL0     C84651   5.615  11.428   3.414  0.8136 -0.3575 -0.4060
  628MOL0     C84652   5.544  11.472   3.301  0.0473 -0.1416 -0.3529
  628MOL0     O84653   5.435  11.557   3.320 -0.5680 -0.1287 -0.3067
  628MOL0     C84654   5.316  11.526   3.238 -0.9319 -0.1351  0.1983
  628MOL0     C84655   5.193  11.560   3.318  0.0039 -0.0345 -0.6031
  628MOL0     C84656   5.067  11.566   3.232 -0.5361 -0.2775 -0.1456
  628MOL0     C84657   4.953  11.625   3.316  0.3448 -0.0258  0.2435
  628MOL0     C84658   4.819  11.604   3.241  0.3516 -0.6602  0.3440
  628MOL0     C84659   4.709  11.623   3.342 -0.5337 -0.5897  0.6938
  628MOL0     C84660   4.579  11.632   3.267  0.0663  0.2925  1.0135
  628MOL0     C84661   4.461  11.619   3.354  0.2142 -0.5594 -0.4784
  628MOL0     N84662   4.341  11.679   3.294 -0.6170  0.3430 -0.5890
  628MOL0     C84663   4.294  11.809   3.309 -0.2995 -0.7406 -0.1552
  628MOL0     C84664   4.181  11.818   3.249 -0.3157  0.4063 -0.2266
  628MOL0     C84665   4.103  11.944   3.223  0.3335  0.0369  0.1985
  628MOL0     C84666   4.010  11.945   3.091 -0.7530 -0.1340 -0.0225
  628MOL0     C84667   3.957  12.089   3.085 -0.6831  1.4016 -0.7107
  628MOL0     C84668   3.870  12.106   2.955  0.8494 -0.2211 -0.8175
  628MOL0     O84669   3.743  12.027   2.981  0.2454 -0.5713 -0.2875
  628MOL0     C84670   3.659  12.004   2.874 -0.5811 -0.6833  0.1217
  628MOL0     C84671   3.680  12.021   2.737  0.0603 -0.3152 -0.4135
  628MOL0     C84672   3.588  11.983   2.642 -0.4530  0.3058 -0.2378
  628MOL0     C84673   3.463  11.934   2.680 -0.4861  0.2251 -0.5865
  628MOL0     C84674   3.358  11.905   2.579 -0.4008 -0.4971 -0.1295
  628MOL0     O84675   3.394  11.920   2.452 -0.1285  0.7362  1.0965
  628MOL0     C84676   3.304  11.901   2.346 -0.3263 -0.9934  1.6496
  628MOL0     C84677   3.347  11.945   2.220 -0.5074 -0.3893 -0.5038
  628MOL0     C84678   3.265  11.946   2.108 -0.0461  1.3073 -0.2746
  628MOL0     C84679   3.129  11.903   2.114  0.0021  0.3441  0.6815
  628MOL0     O84680   3.062  11.906   1.994 -0.5078 -0.2173 -0.5410
  628MOL0     C84681   2.975  12.016   1.973 -0.1965  0.0150 -0.8267
  628MOL0     C84682   2.957  12.037   1.831 -0.1341 -0.8276 -0.6435
  628MOL0     C84683   2.891  12.176   1.812 -0.4052  0.2110 -0.4325
  628MOL0     C84684   2.748  12.173   1.852  0.3030 -0.9618  1.0006
  628MOL0     C84685   2.657  12.100   1.752 -0.2260 -0.5491  0.3375
  628MOL0     C84686   2.584  12.214   1.670 -0.3399 -0.2623  0.5630
  628MOL0     C84687   2.495  12.146   1.568  0.5684 -1.6449  0.8946
  628MOL0     C84688   2.409  12.256   1.503 -0.5502 -0.0620  0.1038
  628MOL0    Cl84689   2.320  12.183   1.379 -0.2760 -0.0317 -0.5847
  628MOL0     C84690   3.076  11.855   2.234 -0.1137 -1.2699 -0.8482
  628MOL0     C84691   3.166  11.854   2.345 -0.4694  0.9359 -0.1446
  628MOL0     O84692   3.254  11.869   2.622 -0.2886  0.0810  0.5111
  628MOL0     C84693   3.433  11.927   2.815 -0.5842  0.5087 -0.4992
  628MOL0     C84694   3.526  11.959   2.915 -0.4585 -0.7740  0.9147
  628MOL0     N84695   4.151  11.695   3.197  0.0347 -0.3175 -1.2477
  628MOL0     N84696   4.248  11.616   3.220  0.2306  1.2595  0.6437
  628MOL0     C84697   5.574  11.423   3.175  0.3400  0.2798  0.0280
  628MOL0     C84698   5.660  11.319   3.166  0.2699  0.2815 -0.2545
  628MOL0     C84699   5.836  10.901   3.283  0.7129  0.7462 -0.1795
  628MOL0     C84700   5.768  10.824   3.180  0.0838  0.9648 -1.1010
  628MOL0     C84701   5.829  10.707   3.130  0.4363 -0.0180  0.0910
  628MOL0     C84702   5.946  10.659   3.182 -0.3054  0.0588  1.0415
  628MOL0     O84703   6.009  10.546   3.134 -0.2155  0.4654  0.3925
  628MOL0     C84704   5.961  10.485   3.009 -0.2279  1.2779 -0.1729
  628MOL0     C84705   6.061  10.394   2.939  0.0507  0.3722 -0.2889
  628MOL0     C84706   6.204  10.424   2.961 -0.3622  0.5110  0.2002
  628MOL0     C84707   6.257  10.551   2.879 -0.6393  0.0256  0.0289
  628MOL0     C84708   6.405  10.553   2.879 -0.2414 -0.0068  1.1398
  628MOL0     C84709   6.526  10.551   2.885  0.3535  1.0027 -0.6062
  628MOL0     C84710   6.009  10.739   3.274 -0.7762 -0.1152 -0.2866
  628MOL0     C84711   5.957  10.856   3.326 -0.5547  0.2611 -0.3637
  628MOL0     C84712   6.035  10.945   3.420 -0.6988  0.8580  0.6459
  628MOL0     H84713   5.739  11.273   3.491  0.8126  2.6761  0.5216
  628MOL0     H84714   5.604  11.462   3.516  1.4235  1.8226 -1.0162
  628MOL0     H84715   5.313  11.580   3.143 -0.7162 -1.1954 -0.4276
  628MOL0     H84716   5.314  11.420   3.213 -0.0460 -0.1714  0.2394
  628MOL0     H84717   5.202  11.652   3.376 -3.0673  0.3299 -0.5515
  628MOL0     H84718   5.177  11.476   3.387 -4.3323  1.3042  0.3118
  628MOL0     H84719   5.033  11.469   3.193 -2.1598 -0.4382  1.5436
  628MOL0     H84720   5.087  11.636   3.151 -2.3782  1.4583  0.8191
  628MOL0     H84721   4.957  11.569   3.410  1.0147 -0.7979 -0.2430
  628MOL0     H84722   4.964  11.732   3.338 -1.3883  0.1955  0.1930
  628MOL0     H84723   4.820  11.668   3.152  1.6374 -4.6108 -2.7769
  628MOL0     H84724   4.809  11.500   3.208  2.1351 -0.5661 -0.6332
  628MOL0     H84725   4.709  11.539   3.412 -0.8588 -0.9196  0.3047
  628MOL0     H84726   4.731  11.714   3.398 -2.1894 -0.7540  1.6728
  628MOL0     H84727   4.577  11.548   3.197  1.8851 -1.1042  2.5235
  628MOL0     H84728   4.584  11.720   3.202  0.9534 -0.7108 -0.3658
  628MOL0     H84729   4.439  11.514   3.373  2.4487 -0.9350  0.3775
  628MOL0     H84730   4.471  11.675   3.447 -2.5479  1.9946 -1.5643
  628MOL0     H84731   4.351  11.889   3.355 -1.1480 -0.8868  1.2433
  628MOL0     H84732   4.037  11.976   3.304  0.8347  2.0636 -0.1379
  628MOL0     H84733   4.176  12.021   3.198 -1.3108  1.5915  0.0229
  628MOL0     H84734   4.075  11.936   3.003 -0.7309 -1.9644  0.1346
  628MOL0     H84735   3.939  11.862   3.088 -0.1862 -0.6264 -0.1611
  628MOL0     H84736   4.033  12.168   3.079  0.2350  0.7456  1.5520
  628MOL0     H84737   3.898  12.097   3.176 -0.2568 -1.2161 -0.1283
  628MOL0     H84738   3.915  12.065   2.863  0.9915  1.8141 -1.7020
  628MOL0     H84739   3.836  12.208   2.935  0.0812 -0.5074 -0.9928
  628MOL0     H84740   3.775  12.070   2.721  1.1295 -1.4509  1.9953
  628MOL0     H84741   3.620  11.998   2.539  4.0520 -2.0884  0.5609
  628MOL0     H84742   3.443  11.990   2.198  1.5208 -2.5897  2.8967
  628MOL0     H84743   3.293  11.991   2.014 -0.6799  3.3825  0.4902
  628MOL0     H84744   2.885  11.995   2.032  0.7514 -0.3174  0.5605
  628MOL0     H84745   3.024  12.101   2.022  2.0772 -1.4143 -0.4912
  628MOL0     H84746   3.054  12.027   1.783  1.6915 -1.2059  2.7808
  628MOL0     H84747   2.893  11.966   1.778  0.5587 -1.2544 -0.9207
  628MOL0     H84748   2.952  12.245   1.871  2.7245 -4.4121  2.4667
  628MOL0     H84749   2.903  12.195   1.705 -0.3213 -2.4053 -0.9675
  628MOL0     H84750   2.713  12.274   1.875  2.3239 -0.4650  2.0956
  628MOL0     H84751   2.743  12.121   1.948 -0.6831 -1.9349  0.4486
  628MOL0     H84752   2.580  12.047   1.809  0.0007 -1.1306  0.1075
  628MOL0     H84753   2.706  12.035   1.679  1.4150  0.5203  0.4358
  628MOL0     H84754   2.530  12.283   1.736 -0.4192 -0.5666  0.8223
  628MOL0     H84755   2.659  12.260   1.605 -0.8252 -1.6352 -1.0380
  628MOL0     H84756   2.433  12.074   1.621 -3.5443 -0.5213 -1.9019
  628MOL0     H84757   2.551  12.097   1.488 -0.2916 -0.1251 -0.7037
  628MOL0     H84758   2.342  12.299   1.577 -0.7054  2.9179 -1.6048
  628MOL0     H84759   2.477  12.336   1.472 -0.8645  0.5268  0.9290
  628MOL0     H84760   2.975  11.818   2.244 -1.4021  1.3328 -2.7972
  628MOL0     H84761   3.127  11.819   2.440 -1.0128  2.4700  0.2378
  628MOL0     H84762   3.335  11.896   2.848 -0.7845 -0.8463 -2.2686
  628MOL0     H84763   3.501  11.935   3.017 -2.1080 -0.2537  0.6648
  628MOL0     H84764   5.532  11.460   3.082 -0.5050 -1.7975 -0.4820
  628MOL0     H84765   5.665  11.267   3.070  2.6549 -0.4660  0.2069
  628MOL0     H84766   5.669  10.851   3.146 -1.3642 -0.9601  1.2740
  628MOL0     H84767   5.762  10.658   3.060  0.7552 -1.2339  0.6058
  628MOL0     H84768   5.944  10.566   2.938  1.3815  0.0080 -2.0858
  628MOL0     H84769   5.867  10.428   3.018  0.7384 -1.0144 -3.0237
  628MOL0     H84770   6.051  10.402   2.831  0.9511  3.9249 -0.2425
  628MOL0     H84771   6.039  10.291   2.967 -1.9321  0.4022 -1.5716
  628MOL0     H84772   6.260  10.331   2.944  2.6097  1.6698  2.6739
  628MOL0     H84773   6.233  10.449   3.064  3.2677  2.5776 -1.1314
  628MOL0     H84774   6.241  10.536   2.772  2.0351 -0.3588 -0.3952
  628MOL0     H84775   6.220  10.643   2.925 -0.4602 -0.7561  1.7829
  628MOL0     H84776   6.626  10.542   2.922  0.0350  0.8543  0.2542
  628MOL0     H84777   6.108  10.720   3.314 -1.4854  1.4612  2.4405
  628MOL0     H84778   6.084  11.022   3.360  1.0659 -0.5863  0.1342
  628MOL0     H84779   5.967  10.979   3.498 -2.7115 -2.5848  0.6082
  628MOL0     H84780   6.116  10.887   3.466 -0.4514 -0.9638 -1.8528
  629MOL0     O84781   3.919   1.686   7.353 -0.0476 -0.2384 -0.2905
  629MOL0     C84782   3.957   1.803   7.368 -0.7493  0.2388  0.6104
  629MOL0     O84783   4.081   1.849   7.331  0.4053  0.9643 -0.9334
  629MOL0     C84784   4.187   1.751   7.325  0.3938  0.4386 -0.2384
  629MOL0     C84785   4.287   1.752   7.426  0.1833  0.5146 -0.1897
  629MOL0     C84786   4.388   1.659   7.438 -0.5764 -0.0601  0.3980
  629MOL0     C84787   4.403   1.573   7.325  0.1526 -0.5828 -0.1708
  629MOL0     O84788   4.500   1.475   7.322 -0.6456 -0.3640 -0.4003
  629MOL0     C84789   4.585   1.459   7.444  0.8196 -0.4214 -0.7581
  629MOL0     C84790   4.668   1.335   7.412  0.3902  0.0268 -0.6125
  629MOL0     C84791   4.753   1.293   7.525  1.1909  0.9583  0.1453
  629MOL0     C84792   4.863   1.398   7.559 -0.0595 -0.0960  0.0970
  629MOL0     C84793   4.978   1.381   7.458  0.1146  0.0291 -0.6991
  629MOL0     C84794   5.077   1.284   7.518 -0.4205 -0.0462  1.0775
  629MOL0     C84795   5.151   1.248   7.375 -0.6533 -0.0883  0.0253
  629MOL0     C84796   5.269   1.162   7.398 -0.0649 -0.8402 -0.1142
  629MOL0     N84797   5.346   1.190   7.282 -0.5457  0.3661  0.1160
  629MOL0     C84798   5.429   1.305   7.263 -0.2145  0.0865 -0.8037
  629MOL0     C84799   5.467   1.306   7.133  0.5473 -0.2765 -0.2189
  629MOL0     C84800   5.568   1.409   7.082  0.4285  1.3814 -0.2878
  629MOL0     C84801   5.496   1.541   7.066 -0.3989 -0.1768 -0.4602
  629MOL0     C84802   5.559   1.632   6.955 -0.0844  0.3331 -0.3066
  629MOL0     C84803   5.702   1.679   6.966  0.8883 -0.2805  0.3066
  629MOL0     O84804   5.705   1.781   7.066 -0.2337  0.3347 -0.1738
  629MOL0     C84805   5.821   1.859   7.067 -0.6508  0.5957  0.9668
  629MOL0     C84806   5.951   1.797   7.026 -0.3903 -0.7475 -0.2668
  629MOL0     C84807   6.072   1.876   7.018 -0.3211 -0.4375  0.5383
  629MOL0     C84808   6.069   2.011   7.064  0.7695 -0.0444 -0.1871
  629MOL0     C84809   6.185   2.093   7.075  0.6632 -0.1135  0.1858
  629MOL0     O84810   6.279   2.087   6.974 -0.3346 -0.7992 -0.5007
  629MOL0     C84811   6.403   2.143   6.993  0.1193  0.0906 -0.7727
  629MOL0     C84812   6.438   2.257   6.913 -0.4949  0.3271  0.1543
  629MOL0     C84813   6.558   2.321   6.924  0.5751 -0.1716 -0.2712
  629MOL0     C84814   6.643   2.287   7.030 -0.0580  0.0103  0.2992
  629MOL0     O84815   6.750   2.366   7.057  0.1623  0.5050  0.7677
  629MOL0     C84816   6.819   2.427   6.942  0.4009 -0.1630  0.8313
  629MOL0     C84817   6.956   2.490   6.976 -0.1658  0.0827 -0.2596
  629MOL0     C84818   7.040   2.379   7.040 -0.4024  0.1000  0.7642
  629MOL0     C84819   7.189   2.402   7.052  0.2092  0.6963 -1.1121
  629MOL0     C84820   7.234   2.511   7.153 -0.9476  0.0639 -0.3039
  629MOL0     C84821   7.388   2.530   7.139 -0.1100 -0.1018 -0.0061
  629MOL0     C84822   7.424   2.648   7.230  0.5803  0.0580  0.0322
  629MOL0     C84823   7.570   2.644   7.265 -0.4640  0.6790  0.5807
  629MOL0    Cl84824   7.604   2.798   7.350 -0.6144  0.0338 -0.0291
  629MOL0     C84825   6.607   2.186   7.124  0.4608 -0.4590 -0.0759
  629MOL0     C84826   6.489   2.107   7.091 -0.0398  0.1179 -0.6699
  629MOL0     O84827   6.188   2.154   7.180  0.3233 -0.2507  0.5537
  629MOL0     C84828   5.940   2.067   7.094 -0.4928  0.4137 -0.5060
  629MOL0     C84829   5.821   1.994   7.099 -0.0866  0.4918  0.9980
  629MOL0     N84830   5.414   1.189   7.076  0.1099  0.7561 -0.4079
  629MOL0     N84831   5.348   1.119   7.168  0.0272 -0.7720 -0.0430
  629MOL0     C84832   4.310   1.566   7.223  0.3876 -0.9212  0.0817
  629MOL0     C84833   4.200   1.655   7.221  0.0304  0.5094  0.2331
  629MOL0     C84834   3.853   1.900   7.404  0.6039 -0.0795 -0.6934
  629MOL0     C84835   3.717   1.854   7.396  0.2008  0.2204 -0.3738
  629MOL0     C84836   3.604   1.925   7.436 -0.0074 -0.6493  0.0926
  629MOL0     C84837   3.625   2.059   7.471  0.0388 -0.1066 -0.3216
  629MOL0     O84838   3.509   2.128   7.503 -0.0426 -0.3691  0.2776
  629MOL0     C84839   3.525   2.261   7.563  0.4121 -0.4220  0.4167
  629MOL0     C84840   3.388   2.315   7.581  0.3593  0.5109 -0.9189
  629MOL0     C84841   3.310   2.249   7.700 -0.5216  0.4391  0.8764
  629MOL0     C84842   3.180   2.329   7.717  0.3065  0.1659  0.9359
  629MOL0     C84843   3.089   2.262   7.820  0.2174  0.3247  0.4353
  629MOL0     C84844   3.027   2.202   7.901 -0.2340 -0.5890 -0.7281
  629MOL0     C84845   3.761   2.106   7.477 -0.2226  0.1065  0.6796
  629MOL0     C84846   3.869   2.030   7.447 -0.0641  0.4260 -0.2891
  629MOL0     C84847   4.000   2.106   7.443 -0.2330 -0.1133  1.5183
  629MOL0     H84848   4.280   1.819   7.511  0.2620 -1.7162  1.6719
  629MOL0     H84849   4.463   1.675   7.515 -1.4653  3.0382  0.7801
  629MOL0     H84850   4.637   1.551   7.470 -0.8463  0.3708 -0.0731
  629MOL0     H84851   4.519   1.427   7.525  1.6857  0.7642  0.4579
  629MOL0     H84852   4.725   1.349   7.319  1.3300 -1.2859 -0.2538
  629MOL0     H84853   4.595   1.256   7.392  2.1302 -1.7554 -0.2008
  629MOL0     H84854   4.802   1.202   7.488 -1.7097  0.5668 -3.2732
  629MOL0     H84855   4.690   1.269   7.611  1.4240  0.5955  0.2156
  629MOL0     H84856   4.819   1.497   7.550 -1.5495 -0.8924 -2.3230
  629MOL0     H84857   4.886   1.378   7.664 -4.3160  0.1802  1.2667
  629MOL0     H84858   4.941   1.351   7.359 -0.4536  0.6154 -0.6680
  629MOL0     H84859   5.028   1.476   7.435 -0.3070  0.4086 -0.0882
  629MOL0     H84860   5.141   1.337   7.589 -0.8587  3.1057 -0.7144
  629MOL0     H84861   5.040   1.191   7.560  0.0613 -1.0323 -0.5753
  629MOL0     H84862   5.176   1.340   7.322  1.1925 -0.3544  0.3843
  629MOL0     H84863   5.086   1.176   7.323 -1.4099 -0.2550  1.1716
  629MOL0     H84864   5.330   1.180   7.488  0.1698  1.6479 -0.6775
  629MOL0     H84865   5.240   1.057   7.400 -0.1489 -0.8020  1.0887
  629MOL0     H84866   5.463   1.380   7.334 -0.9267  1.1498 -1.5618
  629MOL0     H84867   5.662   1.416   7.139 -0.0265 -1.8447  1.0606
  629MOL0     H84868   5.606   1.374   6.986 -0.3900 -0.5286  0.0509
  629MOL0     H84869   5.389   1.525   7.047 -0.9296 -0.0455  2.0577
  629MOL0     H84870   5.504   1.594   7.161  0.9896 -1.1158 -0.0377
  629MOL0     H84871   5.494   1.720   6.953 -2.9933 -1.6542 -0.1746
  629MOL0     H84872   5.544   1.590   6.855  3.7830  2.1749 -1.8564
  629MOL0     H84873   5.737   1.719   6.871 -0.4896  3.0987  1.0793
  629MOL0     H84874   5.763   1.594   6.996  3.0833  0.3464 -2.0059
  629MOL0     H84875   5.954   1.689   7.014 -3.6976 -0.8471 -1.2605
  629MOL0     H84876   6.150   1.821   6.968 -0.3188 -1.0729  1.2196
  629MOL0     H84877   6.379   2.295   6.830 -0.8241  2.5872  1.3405
  629MOL0     H84878   6.562   2.406   6.857 -0.5781 -0.0590 -0.2196
  629MOL0     H84879   6.839   2.344   6.873  0.8908 -0.2394  1.0645
  629MOL0     H84880   6.750   2.500   6.898 -0.8013 -2.8440 -2.1387
  629MOL0     H84881   7.014   2.524   6.890 -0.4772  2.2324  0.3318
  629MOL0     H84882   6.936   2.569   7.049 -1.9670 -0.2900 -0.3054
  629MOL0     H84883   7.009   2.358   7.143  0.4657 -0.5824  0.9016
  629MOL0     H84884   7.033   2.288   6.979 -0.0741 -1.9665  3.5849
  629MOL0     H84885   7.237   2.433   6.958  3.7424  1.5391  0.7977
  629MOL0     H84886   7.226   2.306   7.090 -1.8471  0.7264  1.2163
  629MOL0     H84887   7.215   2.487   7.258 -2.9592  0.8020 -0.4632
  629MOL0     H84888   7.186   2.604   7.123 -0.4358  1.9370  4.0559
  629MOL0     H84889   7.443   2.436   7.153 -0.0136 -0.6118 -3.1474
  629MOL0     H84890   7.401   2.555   7.033 -0.4819  0.1105 -0.0022
  629MOL0     H84891   7.380   2.645   7.330 -1.6290 -0.1985 -0.8784
  629MOL0     H84892   7.389   2.746   7.198  2.0970  1.3474  2.0470
  629MOL0     H84893   7.591   2.554   7.324  1.4257 -0.1848 -1.2998
  629MOL0     H84894   7.627   2.640   7.172 -0.4303 -0.0731  0.6244
  629MOL0     H84895   6.680   2.166   7.201 -0.1427 -1.1950  0.3173
  629MOL0     H84896   6.464   2.017   7.146  1.4732  0.8384  1.3279
  629MOL0     H84897   5.913   2.169   7.118 -1.8886 -0.3534  1.3872
  629MOL0     H84898   5.726   2.042   7.119 -1.3355  0.1361 -3.2083
  629MOL0     H84899   4.322   1.497   7.140  1.2588  1.9802 -2.3870
  629MOL0     H84900   4.110   1.642   7.161 -0.9411  0.7401  1.5754
  629MOL0     H84901   3.687   1.759   7.353  0.2437 -0.0977  0.2769
  629MOL0     H84902   3.507   1.878   7.432 -1.7017  2.6115 -0.7703
  629MOL0     H84903   3.588   2.330   7.507 -0.3092 -0.0086  0.1062
  629MOL0     H84904   3.580   2.248   7.658  0.0134  1.5034  0.9562
  629MOL0     H84905   3.331   2.298   7.489 -1.0174  1.5539 -0.3121
  629MOL0     H84906   3.394   2.423   7.594  3.2662  0.4932 -1.5681
  629MOL0     H84907   3.374   2.255   7.788  2.1901  1.8775 -1.0285
  629MOL0     H84908   3.293   2.146   7.668 -0.1173 -0.5855  3.6610
  629MOL0     H84909   3.201   2.431   7.749 -2.4883  1.7877 -1.8746
  629MOL0     H84910   3.118   2.319   7.628 -2.2366  1.8459  2.4220
  629MOL0     H84911   2.998   2.136   7.981 -2.9636  1.2420 -0.0422
  629MOL0     H84912   3.788   2.206   7.509 -2.3375  1.1619 -0.5773
  629MOL0     H84913   4.026   2.106   7.336 -0.8709 -4.4420  1.1674
  629MOL0     H84914   3.998   2.203   7.492 -3.4055  1.7221 -1.6893
  629MOL0     H84915   4.082   2.055   7.494  2.4480  2.8801  0.4769
  630MOL0     O84916   8.232   2.808   4.576  0.1411  0.0797  0.5659
  630MOL0     C84917   8.262   2.926   4.536  0.5050  0.1143  0.4211
  630MOL0     O84918   8.384   2.965   4.503  0.1239 -0.3901  0.2578
  630MOL0     C84919   8.490   2.927   4.586  0.5956  0.1806  0.4637
  630MOL0     C84920   8.619   2.939   4.527 -0.0189  0.9367  0.6214
  630MOL0     C84921   8.738   2.885   4.591 -0.5148 -0.3502  0.3404
  630MOL0     C84922   8.718   2.830   4.721  0.5341 -0.2962 -0.1463
  630MOL0     O84923   8.810   2.774   4.801 -0.0412 -0.4199  0.5299
  630MOL0     C84924   8.928   2.716   4.747 -0.1472 -0.5970  0.1797
  630MOL0     C84925   8.979   2.600   4.829 -0.4578 -0.1708 -0.4672
  630MOL0     C84926   8.990   2.628   4.973 -0.1321  0.5562  0.4518
  630MOL0     C84927   9.036   2.491   5.033  0.9149 -0.4989  0.0053
  630MOL0     C84928   9.052   2.486   5.187 -0.5621 -0.6281 -0.2284
  630MOL0     C84929   9.186   2.551   5.228  0.1327  0.9579  0.6370
  630MOL0     C84930   9.201   2.530   5.382 -0.1517 -0.1398  1.0570
  630MOL0     C84931   9.325   2.611   5.431  0.1151  0.4099  0.7994
  630MOL0     N84932   9.319   2.630   5.577 -0.3228  0.3808  0.6152
  630MOL0     C84933   9.238   2.720   5.636 -0.3632 -0.2397 -0.7938
  630MOL0     C84934   9.247   2.685   5.771  0.1628  0.5263  0.4874
  630MOL0     C84935   9.194   2.772   5.883 -1.0545  0.8619  0.1804
  630MOL0     C84936   9.294   2.868   5.935 -0.2494  0.4217  0.0237
  630MOL0     C84937   9.425   2.806   5.991  0.4457 -1.7898  0.3512
  630MOL0     C84938   9.516   2.923   6.022 -0.3962  0.0050 -0.1421
  630MOL0     O84939   9.635   2.887   6.097 -0.6522  0.3178 -0.2085
  630MOL0     C84940   9.711   2.985   6.152  0.0625 -0.1744  0.5630
  630MOL0     C84941   9.742   3.112   6.090 -1.2874 -0.0759  0.1593
  630MOL0     C84942   9.830   3.200   6.142 -0.6239 -1.1232  0.1216
  630MOL0     C84943   9.899   3.181   6.262  0.2620  0.5502  0.0529
  630MOL0     C84944   9.985   3.277   6.311 -0.5051  0.4689  0.0695
  630MOL0     O84945  10.020   3.262   6.438  0.5232  0.2061 -0.6571
  630MOL0     C84946  10.121   3.332   6.495 -0.1388  0.8490 -0.3790
  630MOL0     C84947  10.232   3.366   6.423 -0.3515 -0.4810  0.2439
  630MOL0     C84948  10.325   3.454   6.483  0.1190  0.6464  1.0033
  630MOL0     C84949  10.321   3.489   6.617  0.3773  0.7561 -0.0156
  630MOL0     O84950  10.416   3.573   6.664  0.4399  0.3030  0.8226
  630MOL0     C84951  10.488   3.507   6.774  0.3354  0.7152 -0.3726
  630MOL0     C84952  10.618   3.579   6.789  0.5110 -1.3902  1.3320
  630MOL0     C84953  10.717   3.552   6.673 -0.1598 -0.2081 -0.3727
  630MOL0     C84954  10.819   3.663   6.643 -0.1476  0.2302 -0.1630
  630MOL0     C84955  10.908   3.684   6.767  0.3041 -0.3016  0.1123
  630MOL0     C84956  11.029   3.778   6.732  0.8227 -1.0676  0.1502
  630MOL0     C84957  11.136   3.706   6.648 -0.0524  0.8182  0.6865
  630MOL0     C84958  11.265   3.791   6.635  1.3710  0.0093  0.9032
  630MOL0    Cl84959  11.324   3.871   6.779 -0.3529  0.3019  0.1350
  630MOL0     C84960  10.211   3.438   6.687  0.3025 -0.6900  0.5542
  630MOL0     C84961  10.112   3.356   6.636 -0.3287 -0.4866 -0.4161
  630MOL0     O84962  10.026   3.360   6.227 -0.7689  0.5768 -0.2017
  630MOL0     C84963   9.869   3.058   6.333 -1.0988  0.6279  0.1036
  630MOL0     C84964   9.772   2.967   6.277 -0.0692 -0.2063 -0.4978
  630MOL0     N84965   9.332   2.571   5.781 -0.8167  0.2619  0.2184
  630MOL0     N84966   9.368   2.538   5.665 -0.9703 -1.0555 -0.4446
  630MOL0     C84967   8.587   2.821   4.771 -0.6418 -0.6581  0.0322
  630MOL0     C84968   8.477   2.877   4.713 -0.2026 -0.5083  0.5320
  630MOL0     C84969   8.139   3.007   4.496 -0.3509  0.7515 -0.5019
  630MOL0     C84970   8.123   3.045   4.362  0.0038 -0.5281 -0.1565
  630MOL0     C84971   8.018   3.109   4.313  1.0148 -0.7991 -0.1028
  630MOL0     C84972   7.901   3.129   4.394 -0.6136 -0.5506 -0.2463
  630MOL0     O84973   7.790   3.184   4.335  0.0056  0.4256 -0.7768
  630MOL0     C84974   7.662   3.154   4.390  0.0091  0.4742 -0.4931
  630MOL0     C84975   7.553   3.230   4.319  0.2027  0.1836 -0.1881
  630MOL0     C84976   7.528   3.173   4.178 -0.0035 -0.6451 -0.4564
  630MOL0     C84977   7.464   3.269   4.086 -0.1574 -0.1405  0.4022
  630MOL0     C84978   7.322   3.247   4.110  0.6565  0.4782 -0.4067
  630MOL0     C84979   7.202   3.230   4.147  0.3495 -0.5228 -0.2072
  630MOL0     C84980   7.907   3.097   4.537 -0.2032  0.2963  0.4556
  630MOL0     C84981   8.030   3.034   4.588 -0.9023 -0.6160  0.3277
  630MOL0     C84982   8.040   2.997   4.738  0.5187 -1.3773  0.3299
  630MOL0     H84983   8.625   2.982   4.427 -1.7214 -1.7519 -0.7787
  630MOL0     H84984   8.838   2.897   4.551 -0.9269 -0.6500 -0.8094
  630MOL0     H84985   8.899   2.684   4.646  0.5101 -1.7695  0.3447
  630MOL0     H84986   9.014   2.782   4.741 -1.4882  1.2255  0.1874
  630MOL0     H84987   9.072   2.555   4.792 -0.5124 -0.7998  0.1424
  630MOL0     H84988   8.909   2.516   4.830  1.0170 -1.4608  1.1808
  630MOL0     H84989   8.892   2.653   5.013 -0.8460 -1.6504  0.1840
  630MOL0     H84990   9.059   2.709   5.001  3.3429 -2.0117 -0.0342
  630MOL0     H84991   8.958   2.418   5.009  1.2700 -0.8368 -0.1453
  630MOL0     H84992   9.131   2.463   4.988  1.9310 -0.5699  2.0513
  630MOL0     H84993   8.969   2.543   5.229 -0.3147 -0.1019 -0.4416
  630MOL0     H84994   9.046   2.383   5.223  1.0845 -1.0750 -1.1224
  630MOL0     H84995   9.274   2.510   5.178 -1.4792  0.6316 -2.1114
  630MOL0     H84996   9.184   2.654   5.193  0.0245  1.4421  1.9979
  630MOL0     H84997   9.208   2.421   5.389 -0.3659 -0.1779  0.7481
  630MOL0     H84998   9.108   2.538   5.439 -1.8274 -1.0842 -1.3425
  630MOL0     H84999   9.417   2.557   5.407  0.7819  1.5254  0.7528
  630MOL0     H85000   9.332   2.708   5.381  1.3392  2.3531  4.3781
  630MOL0     H85001   9.188   2.811   5.603 -1.4887 -1.0239 -1.2983
  630MOL0     H85002   9.108   2.832   5.854 -0.9474  1.1870  0.5288
  630MOL0     H85003   9.165   2.697   5.958  3.6022 -0.8908  0.5746
  630MOL0     H85004   9.326   2.936   5.855  1.4198  0.6674  0.8375
  630MOL0     H85005   9.247   2.936   6.007 -2.6905 -2.2435  1.1148
  630MOL0     H85006   9.480   2.744   5.920  1.8223  0.3250 -0.5470
  630MOL0     H85007   9.395   2.751   6.080 -0.2276 -2.1418 -0.0870
  630MOL0     H85008   9.450   2.993   6.074  1.3130  0.5069  1.4483
  630MOL0     H85009   9.548   2.972   5.930 -1.4596  1.5030  0.2458
  630MOL0     H85010   9.692   3.143   5.999 -0.3427  0.3653 -0.2202
  630MOL0     H85011   9.842   3.299   6.101  1.3864 -1.2366  0.3452
  630MOL0     H85012  10.245   3.334   6.320  1.7090 -0.4662  0.4587
  630MOL0     H85013  10.390   3.506   6.414 -2.6904  0.7539 -1.8058
  630MOL0     H85014  10.426   3.511   6.864 -0.5157 -0.8650 -0.8614
  630MOL0     H85015  10.502   3.400   6.759 -3.3277  0.0663 -0.1162
  630MOL0     H85016  10.588   3.684   6.803 -2.5734 -2.1156  0.7623
  630MOL0     H85017  10.661   3.554   6.887 -0.4687  0.1636  2.2137
  630MOL0     H85018  10.778   3.464   6.696  0.3698  0.3139  0.2770
  630MOL0     H85019  10.651   3.547   6.587 -1.7390  0.7625  0.7364
  630MOL0     H85020  10.770   3.753   6.607 -1.0315 -0.2085 -0.0874
  630MOL0     H85021  10.877   3.624   6.559 -0.9295 -3.3337  0.7859
  630MOL0     H85022  10.941   3.586   6.802 -0.7639 -1.1775 -1.2248
  630MOL0     H85023  10.842   3.724   6.845 -1.8591 -3.5295  0.1329
  630MOL0     H85024  10.997   3.862   6.670 -0.5842 -0.8633  1.0985
  630MOL0     H85025  11.085   3.810   6.821  0.5246  0.4834 -0.2052
  630MOL0     H85026  11.093   3.686   6.549 -2.7507  0.8216  1.7544
  630MOL0     H85027  11.157   3.606   6.686  1.4496  1.1701  0.8467
  630MOL0     H85028  11.346   3.737   6.585  4.3909  0.5083  4.7823
  630MOL0     H85029  11.244   3.878   6.572  0.0247 -1.3330 -0.6061
  630MOL0     H85030  10.209   3.463   6.793 -3.1771 -0.8213  0.6123
  630MOL0     H85031  10.015   3.339   6.680  0.6741 -3.3564  0.9561
  630MOL0     H85032   9.914   3.031   6.428 -0.6027  2.2997  0.3734
  630MOL0     H85033   9.739   2.879   6.332  0.3999  0.7979  1.4662
  630MOL0     H85034   8.578   2.772   4.868  0.4965  1.6877  1.4087
  630MOL0     H85035   8.382   2.887   4.766 -0.4604 -1.9948  0.3698
  630MOL0     H85036   8.202   3.030   4.289  0.9878 -1.8088  1.1177
  630MOL0     H85037   8.008   3.146   4.211 -2.3945  4.0331  1.5981
  630MOL0     H85038   7.665   3.192   4.493  1.9338 -1.0035  0.0463
  630MOL0     H85039   7.645   3.046   4.393  0.2450  0.4322 -0.7586
  630MOL0     H85040   7.590   3.333   4.312  2.1871 -0.5584 -1.9119
  630MOL0     H85041   7.465   3.232   4.382 -0.7441 -2.8279 -1.2236
  630MOL0     H85042   7.485   3.072   4.179  1.7154 -1.4341 -1.2016
  630MOL0     H85043   7.630   3.153   4.145  0.7619 -0.7855  1.8591
  630MOL0     H85044   7.500   3.367   4.120  1.6239 -0.5808 -0.1067
  630MOL0     H85045   7.485   3.256   3.979  2.0116 -1.1419  0.8941
  630MOL0     H85046   7.102   3.197   4.169  0.2492  0.8122  1.5934
  630MOL0     H85047   7.822   3.119   4.600  1.5673  2.4115  2.2928
  630MOL0     H85048   8.139   3.015   4.780  1.0628 -1.8414 -0.6961
  630MOL0     H85049   7.971   3.057   4.797  0.3591  0.2006 -1.3686
  630MOL0     H85050   8.029   2.889   4.749  2.2658 -1.9244 -2.1343
  631MOL0     O85051   2.194  10.934   3.535  0.8610  0.1047  1.1435
  631MOL0     C85052   2.155  10.968   3.646 -0.0471 -0.0114  0.4182
  631MOL0     O85053   2.235  11.024   3.732  0.0286 -0.8907  0.1247
  631MOL0     C85054   2.368  10.986   3.743 -0.2090  0.7753 -0.0991
  631MOL0     C85055   2.461  11.090   3.740  0.4222 -0.1846 -0.2604
  631MOL0     C85056   2.597  11.057   3.752  0.4557  0.2173 -0.4042
  631MOL0     C85057   2.644  10.925   3.766 -0.0196 -0.4178 -0.8647
  631MOL0     O85058   2.779  10.885   3.779  1.1473 -0.3766  0.6588
  631MOL0     C85059   2.888  10.978   3.769  0.4344  0.8413  0.3927
  631MOL0     C85060   3.027  10.918   3.792 -0.2917 -0.5221 -0.0868
  631MOL0     C85061   3.015  10.842   3.923 -0.3788 -0.4505 -0.1972
  631MOL0     C85062   2.986  10.929   4.056  0.4924  0.7521  0.5342
  631MOL0     C85063   2.999  10.833   4.180  0.0207  0.7332  0.4422
  631MOL0     C85064   3.005  10.907   4.312 -0.3149  0.4253 -0.1830
  631MOL0     C85065   3.009  10.802   4.423  0.7608 -0.2171 -0.1049
  631MOL0     C85066   3.016  10.871   4.561 -0.2905  0.4682  0.5962
  631MOL0     N85067   3.031  10.785   4.676  0.1419 -0.3443 -0.1565
  631MOL0     C85068   3.136  10.709   4.710  0.5497 -0.4023 -1.2352
  631MOL0     C85069   3.100  10.598   4.776  0.3546  0.6718  0.6630
  631MOL0     C85070   3.186  10.483   4.808 -0.2272 -0.2147  0.2894
  631MOL0     C85071   3.113  10.359   4.873  0.5645 -0.0467  0.0585
  631MOL0     C85072   3.208  10.234   4.861  0.1362  0.0609  0.1492
  631MOL0     C85073   3.349  10.246   4.923 -0.2342 -0.7871  0.1810
  631MOL0     O85074   3.357  10.289   5.062 -0.5570 -0.0722 -0.3692
  631MOL0     C85075   3.482  10.303   5.121 -0.4352 -0.3303 -0.2465
  631MOL0     C85076   3.490  10.370   5.247  0.6863  0.0446 -0.8214
  631MOL0     C85077   3.602  10.364   5.328 -0.1948  0.2608 -0.0971
  631MOL0     C85078   3.721  10.309   5.280 -0.2000 -0.2635 -0.5939
  631MOL0     C85079   3.849  10.311   5.363 -0.4562 -0.5437 -0.1337
  631MOL0     O85080   3.960  10.251   5.313 -1.1128  0.6640  0.4286
  631MOL0     C85081   4.079  10.272   5.376  0.1448 -1.0148  0.4908
  631MOL0     C85082   4.121  10.385   5.442  0.3643 -0.5080  1.3478
  631MOL0     C85083   4.253  10.398   5.484  0.1048  0.7398 -0.3985
  631MOL0     C85084   4.341  10.295   5.484  0.2172  1.0215 -0.2583
  631MOL0     O85085   4.471  10.315   5.535  0.4642 -0.0790 -0.0356
  631MOL0     C85086   4.568  10.248   5.448  0.7529 -0.3224 -0.5457
  631MOL0     C85087   4.707  10.314   5.471 -0.6701  0.0109 -0.0310
  631MOL0     C85088   4.810  10.310   5.355 -0.3012  0.2332  0.8242
  631MOL0     C85089   4.861  10.170   5.322 -0.0213  0.7038 -0.0881
  631MOL0     C85090   4.906  10.179   5.168  1.1727  1.3512  0.2053
  631MOL0     C85091   4.959  10.037   5.130  0.0906  1.5066 -0.0069
  631MOL0     C85092   5.004  10.051   4.985 -0.9026 -0.9469 -0.5781
  631MOL0     C85093   4.888  10.024   4.894  1.0827 -0.1474 -0.8207
  631MOL0    Cl85094   4.925  10.028   4.719  0.1443  0.3857  0.1844
  631MOL0     C85095   4.301  10.179   5.420  0.6752  0.9738  0.2772
  631MOL0     C85096   4.171  10.174   5.369 -0.1909  0.9982  0.6520
  631MOL0     O85097   3.843  10.351   5.481  0.5641  0.8892 -0.0465
  631MOL0     C85098   3.720  10.246   5.147  0.0117 -1.4335  0.6577
  631MOL0     C85099   3.600  10.247   5.071 -0.3300  0.4629  0.0405
  631MOL0     N85100   2.964  10.604   4.784 -0.0342 -0.4893  0.3501
  631MOL0     N85101   2.929  10.719   4.727  0.9011  0.6021 -0.0674
  631MOL0     C85102   2.549  10.824   3.777 -0.0431 -0.5488  0.4179
  631MOL0     C85103   2.410  10.853   3.763  1.0243  0.0988  0.2964
  631MOL0     C85104   2.008  10.956   3.669 -0.4782  0.1603 -0.3942
  631MOL0     C85105   1.934  10.884   3.568 -0.7289  0.6096 -0.8680
  631MOL0     C85106   1.793  10.862   3.576  0.0582  0.5728 -0.8543
  631MOL0     C85107   1.723  10.932   3.674  0.6418  0.6849  0.6443
  631MOL0     O85108   1.591  10.905   3.709 -0.0353 -0.0060 -0.8658
  631MOL0     C85109   1.525  10.816   3.620  0.2255  0.7366  0.0454
  631MOL0     C85110   1.375  10.816   3.651 -0.3843 -0.6981 -0.2101
  631MOL0     C85111   1.301  10.690   3.611 -0.3347  0.3799  1.1159
  631MOL0     C85112   1.149  10.694   3.634 -0.4816 -0.2346  0.2959
  631MOL0     C85113   1.106  10.675   3.773 -0.1108  1.0039 -0.2096
  631MOL0     C85114   1.052  10.672   3.880 -0.0135 -0.4528 -0.8772
  631MOL0     C85115   1.794  11.014   3.763  0.6378 -0.1263 -0.4665
  631MOL0     C85116   1.936  11.024   3.767 -0.2154 -0.5570 -0.2154
  631MOL0     C85117   1.997  11.120   3.865 -0.2854 -0.0604  0.1190
  631MOL0     H85118   2.425  11.190   3.721 -0.0997 -0.8418 -3.3532
  631MOL0     H85119   2.667  11.138   3.733  0.8066  0.1233  0.4467
  631MOL0     H85120   2.892  11.028   3.672  3.1153 -1.0848 -0.6241
  631MOL0     H85121   2.874  11.054   3.846 -0.2995  0.9956  0.1105
  631MOL0     H85122   3.099  10.998   3.811 -0.7220 -0.3762  1.0447
  631MOL0     H85123   3.057  10.851   3.711  1.5658  0.6204 -0.3910
  631MOL0     H85124   3.115  10.806   3.949  0.4138  0.1156 -2.3186
  631MOL0     H85125   2.950  10.754   3.919 -0.7661 -0.5202  3.6253
  631MOL0     H85126   3.066  11.005   4.057 -1.7229  3.6506 -4.4915
  631MOL0     H85127   2.888  10.978   4.057  0.0100 -0.1941  1.2569
  631MOL0     H85128   2.918  10.760   4.185  0.3825  0.0478 -2.2136
  631MOL0     H85129   3.089  10.771   4.190 -0.4887  0.1467  1.6591
  631MOL0     H85130   3.098  10.964   4.315 -0.8884  1.3677  2.3709
  631MOL0     H85131   2.914  10.967   4.324  0.4875  1.6131  0.1129
  631MOL0     H85132   3.092  10.730   4.420  3.4633  2.5638  1.8844
  631MOL0     H85133   2.917  10.743   4.432  2.0936 -2.0711  3.2473
  631MOL0     H85134   3.081  10.958   4.571 -1.0245  1.3241 -1.4057
  631MOL0     H85135   2.918  10.918   4.567 -0.9634 -0.7961 -0.0569
  631MOL0     H85136   3.242  10.730   4.698  0.2421  1.1617 -1.4950
  631MOL0     H85137   3.222  10.442   4.713  3.2995 -0.3155  1.5124
  631MOL0     H85138   3.269  10.516   4.871 -0.8454  0.7555  0.6088
  631MOL0     H85139   3.091  10.369   4.979 -3.3963  2.1833 -0.7606
  631MOL0     H85140   3.018  10.353   4.818  0.0755  2.2611  0.5530
  631MOL0     H85141   3.236  10.210   4.758  2.0408  0.5849  0.5087
  631MOL0     H85142   3.154  10.144   4.892  0.9852 -0.4026  0.3264
  631MOL0     H85143   3.412  10.299   4.851 -0.9042  0.9405  0.8152
  631MOL0     H85144   3.398  10.149   4.919  1.7577  0.1966 -0.3050
  631MOL0     H85145   3.398  10.414   5.286  2.1907  0.4806  2.5878
  631MOL0     H85146   3.587  10.405   5.427 -1.3677 -1.5778  0.5437
  631MOL0     H85147   4.052  10.468   5.450  1.6866  0.7111  0.6996
  631MOL0     H85148   4.285  10.482   5.545 -0.3193  0.0626  0.8087
  631MOL0     H85149   4.573  10.145   5.487  0.5770 -0.0336  0.2513
  631MOL0     H85150   4.545  10.249   5.341 -3.5824  1.2904  0.2099
  631MOL0     H85151   4.692  10.420   5.491  1.5049  0.0889  1.6495
  631MOL0     H85152   4.741  10.261   5.561 -0.6466 -0.9186 -0.5807
  631MOL0     H85153   4.765  10.357   5.267  0.7749  4.0213  2.0902
  631MOL0     H85154   4.900  10.365   5.385  1.6837 -1.3269 -1.8857
  631MOL0     H85155   4.786  10.092   5.338  0.9532 -0.9235 -2.8890
  631MOL0     H85156   4.948  10.139   5.382 -0.2852 -1.3681 -0.7244
  631MOL0     H85157   4.977  10.260   5.147  4.4667 -1.4557 -0.2678
  631MOL0     H85158   4.819  10.200   5.105 -0.8084 -3.8798  0.7522
  631MOL0     H85159   5.042  10.017   5.197 -1.0469 -4.1884  0.2086
  631MOL0     H85160   4.880   9.961   5.130 -0.0807  1.6754 -0.6934
  631MOL0     H85161   5.081   9.975   4.973 -0.2960 -0.2494 -1.2117
  631MOL0     H85162   5.051  10.147   4.961 -3.9453  0.6376 -0.7364
  631MOL0     H85163   4.836   9.929   4.910 -0.6780  0.7133 -1.1556
  631MOL0     H85164   4.815  10.105   4.906 -2.7908 -3.1894 -1.6531
  631MOL0     H85165   4.372  10.099   5.403  3.7132  4.0192 -2.9896
  631MOL0     H85166   4.138  10.081   5.324  2.0316  0.1884  0.5619
  631MOL0     H85167   3.811  10.211   5.100 -0.2999 -0.3657 -0.8140
  631MOL0     H85168   3.611  10.197   4.975  1.3876 -2.4985  1.6111
  631MOL0     H85169   2.584  10.723   3.796  0.6833 -0.7161 -1.6056
  631MOL0     H85170   2.339  10.773   3.752  1.2444 -0.2088  1.0282
  631MOL0     H85171   1.981  10.818   3.495  0.0549 -2.0493  1.8302
  631MOL0     H85172   1.755  10.781   3.514 -0.8680 -0.7875  1.3905
  631MOL0     H85173   1.563  10.714   3.617 -0.5618  0.4670 -1.4256
  631MOL0     H85174   1.519  10.847   3.516 -0.8732 -2.6876 -1.0194
  631MOL0     H85175   1.325  10.903   3.607  1.1675  0.7243  0.7274
  631MOL0     H85176   1.352  10.819   3.759  0.5522 -0.8139 -0.0028
  631MOL0     H85177   1.348  10.603   3.657  0.8395 -0.5505 -1.6453
  631MOL0     H85178   1.312  10.675   3.503 -3.0519 -0.2184  0.8590
  631MOL0     H85179   1.109  10.790   3.602 -0.9816 -0.2777  0.7853
  631MOL0     H85180   1.103  10.608   3.586  2.4154 -1.5378 -0.3996
  631MOL0     H85181   0.989  10.675   3.966 -1.2190 -0.6103 -1.7405
  631MOL0     H85182   1.733  11.061   3.839  0.2985 -1.4572  0.1128
  631MOL0     H85183   2.080  11.180   3.825 -0.2780 -0.4247 -0.4307
  631MOL0     H85184   1.926  11.195   3.900  0.2574  0.2132  0.6392
  631MOL0     H85185   2.045  11.073   3.951  1.5650  1.0527 -0.2510
  632MOL0     O85186   5.088  10.060   7.127 -0.4429  0.5860 -0.2509
  632MOL0     C85187   5.013  10.154   7.113  0.4745 -0.5846  0.1756
  632MOL0     O85188   5.041  10.283   7.061 -1.2603 -0.0989  0.1529
  632MOL0     C85189   5.177  10.308   7.039  0.1824  0.7091 -0.7934
  632MOL0     C85190   5.279  10.270   7.127  0.2598 -0.3209  0.1461
  632MOL0     C85191   5.412  10.289   7.090 -0.3751  0.2251  0.3344
  632MOL0     C85192   5.439  10.339   6.964  0.3451  0.6499  0.4137
  632MOL0     O85193   5.560  10.339   6.906 -0.8083 -0.0522 -0.4030
  632MOL0     C85194   5.669  10.263   6.963 -0.0018  0.0972  1.0791
  632MOL0     C85195   5.800  10.288   6.898 -0.4695  0.6260  0.2371
  632MOL0     C85196   5.918  10.195   6.930  0.0534 -0.1745  0.2280
  632MOL0     C85197   6.048  10.257   6.874 -0.0723  0.7568  0.3083
  632MOL0     C85198   6.160  10.154   6.902 -0.1026  0.2521 -0.4551
  632MOL0     C85199   6.177  10.054   6.785 -0.0158  0.5022 -0.0367
  632MOL0     C85200   6.318   9.975   6.792 -0.0800 -0.2615  0.0628
  632MOL0     C85201   6.350   9.873   6.693 -0.6032 -0.1033 -0.4423
  632MOL0     N85202   6.487   9.816   6.716  0.2669  0.5472  0.5555
  632MOL0     C85203   6.525   9.728   6.814  0.5797 -0.4993  0.0038
  632MOL0     C85204   6.651   9.679   6.782 -1.0432  0.5055  0.2535
  632MOL0     C85205   6.740   9.589   6.856  0.0467 -0.5679 -0.2210
  632MOL0     C85206   6.861   9.650   6.922 -0.0433 -0.5441 -0.3820
  632MOL0     C85207   6.964   9.544   6.952  0.4099 -0.0834 -0.4517
  632MOL0     C85208   7.093   9.587   7.029  0.1551 -0.2021  0.1405
  632MOL0     O85209   7.086   9.607   7.167  0.0195 -0.7391 -0.2800
  632MOL0     C85210   7.139   9.522   7.265 -0.3943 -0.2193 -0.2092
  632MOL0     C85211   7.094   9.547   7.398  0.6067 -0.2597 -0.4370
  632MOL0     C85212   7.116   9.450   7.500 -0.1351 -0.4062 -0.1621
  632MOL0     C85213   7.180   9.333   7.465 -0.2937  0.3959 -0.5228
  632MOL0     C85214   7.173   9.233   7.575 -0.3516 -0.3005  0.6119
  632MOL0     O85215   7.255   9.123   7.559  0.0118  0.2477  0.6799
  632MOL0     C85216   7.243   9.022   7.660  0.5346 -0.1970  0.1351
  632MOL0     C85217   7.142   8.925   7.657  0.1076 -1.0390  0.2927
  632MOL0     C85218   7.124   8.840   7.763  0.6722  0.0006  0.6891
  632MOL0     C85219   7.206   8.846   7.872 -0.4241  1.2519  0.0346
  632MOL0     O85220   7.192   8.762   7.980  0.5779  0.6443 -0.5464
  632MOL0     C85221   7.073   8.691   8.003 -0.3404  0.1108 -0.3067
  632MOL0     C85222   7.072   8.610   8.141  0.3264 -0.0592 -0.5765
  632MOL0     C85223   7.161   8.485   8.159 -0.4079  0.1581  0.1361
  632MOL0     C85224   7.309   8.491   8.120  0.6170  0.4251 -0.0481
  632MOL0     C85225   7.394   8.579   8.205  0.0385 -0.6790  0.2801
  632MOL0     C85226   7.532   8.607   8.140  0.1370 -0.2674 -0.2914
  632MOL0     C85227   7.615   8.472   8.123 -0.0212  0.1359  0.3339
  632MOL0     C85228   7.748   8.497   8.186  0.3360 -0.5245  0.2409
  632MOL0    Cl85229   7.839   8.594   8.068 -0.1055  0.2273 -0.3327
  632MOL0     C85230   7.312   8.932   7.874  0.4446  0.6663  0.1003
  632MOL0     C85231   7.331   9.023   7.769  0.0043 -0.8783 -0.9639
  632MOL0     O85232   7.091   9.246   7.668  0.0903  0.4234  0.0350
  632MOL0     C85233   7.232   9.308   7.337 -0.5216 -0.2149 -0.2751
  632MOL0     C85234   7.215   9.400   7.238 -0.6846 -0.2049  1.0988
  632MOL0     N85235   6.686   9.746   6.662 -0.3183  0.0786 -0.1150
  632MOL0     N85236   6.591   9.813   6.623  0.2995 -0.5336  0.9567
  632MOL0     C85237   5.339  10.377   6.875 -0.5749  0.0562 -0.0576
  632MOL0     C85238   5.212  10.365   6.917  0.8634 -0.3954  0.0711
  632MOL0     C85239   4.870  10.132   7.161  0.4335 -1.1273 -0.5501
  632MOL0     C85240   4.802  10.238   7.221 -0.2548  0.4425  0.3320
  632MOL0     C85241   4.675  10.223   7.277 -0.3027 -0.2712 -0.2566
  632MOL0     C85242   4.613  10.099   7.267  0.0771  0.7498  0.7483
  632MOL0     O85243   4.483  10.087   7.312 -0.6281  0.3465 -0.1341
  632MOL0     C85244   4.454   9.969   7.394  0.2562  0.0332 -0.5907
  632MOL0     C85245   4.522   9.979   7.530  0.0471 -0.1884  0.1411
  632MOL0     C85246   4.529   9.847   7.610 -0.4981  0.4561  0.6878
  632MOL0     C85247   4.403   9.785   7.660 -0.8295  0.6256  0.1396
  632MOL0     C85248   4.317   9.877   7.733  0.6063  0.4582 -0.7225
  632MOL0     C85249   4.240   9.940   7.801  0.2492  0.8325  0.8196
  632MOL0     C85250   4.666   9.993   7.190  0.0088 -1.2154  0.1367
  632MOL0     C85251   4.801  10.011   7.140 -0.5513 -0.5886 -0.4322
  632MOL0     C85252   4.854   9.889   7.064  0.9707  0.5539 -0.8793
  632MOL0     H85253   5.260  10.233   7.227  1.2207 -2.5491 -0.4368
  632MOL0     H85254   5.489  10.266   7.163  0.0447 -3.3128 -1.0087
  632MOL0     H85255   5.669  10.260   7.072 -2.5873  0.2933  1.1434
  632MOL0     H85256   5.653  10.163   6.924 -0.8490 -0.0230  1.7097
  632MOL0     H85257   5.816  10.397   6.898 -1.8988  0.9679 -2.9752
  632MOL0     H85258   5.788  10.265   6.791  2.7461 -2.1855  0.3348
  632MOL0     H85259   5.907  10.097   6.884  1.1846 -0.8214  1.3026
  632MOL0     H85260   5.922  10.179   7.038  2.1912  1.9990  0.5539
  632MOL0     H85261   6.035  10.272   6.767 -3.1788 -0.0807  0.4623
  632MOL0     H85262   6.062  10.352   6.926  0.2601  1.3540 -0.8501
  632MOL0     H85263   6.258  10.201   6.906  1.7536 -3.3223  1.2218
  632MOL0     H85264   6.152  10.105   7.000  1.4180  2.8757  1.1204
  632MOL0     H85265   6.083   9.999   6.784 -0.7976  1.8098 -1.0087
  632MOL0     H85266   6.180  10.100   6.686 -0.1491  1.2992  0.3237
  632MOL0     H85267   6.338   9.928   6.889  0.0744  0.4090  0.3683
  632MOL0     H85268   6.388  10.059   6.785  0.3084 -0.7178 -1.9803
  632MOL0     H85269   6.270   9.799   6.683 -1.1328  0.2920  0.6752
  632MOL0     H85270   6.360   9.914   6.592  2.7308 -2.4704 -1.2430
  632MOL0     H85271   6.454   9.694   6.888 -1.3752  1.1126 -1.0202
  632MOL0     H85272   6.683   9.553   6.942 -1.2890  0.4556 -0.6321
  632MOL0     H85273   6.764   9.504   6.792  1.2645  0.3753 -1.0586
  632MOL0     H85274   6.912   9.719   6.855  1.7333 -2.6977 -1.3553
  632MOL0     H85275   6.833   9.698   7.017  1.3318 -2.2012  0.9342
  632MOL0     H85276   6.984   9.499   6.854  3.3588  0.1008 -0.0446
  632MOL0     H85277   6.922   9.462   7.009 -1.9689  1.6509  0.4356
  632MOL0     H85278   7.141   9.674   6.983  2.9498 -0.6032  2.0641
  632MOL0     H85279   7.169   9.508   7.018 -0.8567 -1.3383  0.9747
  632MOL0     H85280   7.039   9.636   7.425  0.6316 -0.4679  0.3180
  632MOL0     H85281   7.089   9.484   7.600  4.4723  3.8027  0.0393
  632MOL0     H85282   7.073   8.944   7.575 -0.0620  1.3381  0.9095
  632MOL0     H85283   7.043   8.768   7.768  0.1774  0.6261  2.2988
  632MOL0     H85284   6.986   8.756   8.015 -1.3758 -1.6092  2.4154
  632MOL0     H85285   7.058   8.623   7.918  1.0608  1.6978 -1.9038
  632MOL0     H85286   7.090   8.679   8.224 -2.7952  0.5359 -0.2744
  632MOL0     H85287   6.971   8.571   8.157  0.4628 -0.7021 -1.2309
  632MOL0     H85288   7.154   8.459   8.265 -1.7683  0.4185  0.1315
  632MOL0     H85289   7.114   8.395   8.119 -1.7188  0.1681  1.5565
  632MOL0     H85290   7.308   8.538   8.021 -0.2027 -0.1480 -0.3235
  632MOL0     H85291   7.346   8.389   8.107 -0.6076  0.0486 -0.7282
  632MOL0     H85292   7.407   8.546   8.309 -0.5477  0.6742  0.7995
  632MOL0     H85293   7.349   8.678   8.195  0.2958 -0.7759 -2.5403
  632MOL0     H85294   7.526   8.649   8.040 -1.1628 -0.3742 -0.2665
  632MOL0     H85295   7.586   8.674   8.208  0.2208 -1.1076  0.4990
  632MOL0     H85296   7.632   8.429   8.024  2.8330  1.7028  0.0195
  632MOL0     H85297   7.567   8.383   8.165 -0.4390 -1.0461 -2.4540
  632MOL0     H85298   7.726   8.548   8.280 -1.7381  1.2953 -1.1442
  632MOL0     H85299   7.792   8.399   8.206  0.9915 -0.3268 -0.1886
  632MOL0     H85300   7.376   8.924   7.961  2.8486 -3.3262 -1.7277
  632MOL0     H85301   7.409   9.098   7.776  1.1602 -2.1627  1.1459
  632MOL0     H85302   7.282   9.212   7.325 -1.6075 -1.1331  1.9125
  632MOL0     H85303   7.246   9.385   7.135 -1.4359  1.3109  0.6322
  632MOL0     H85304   5.372  10.408   6.776  1.4166  0.4875  0.6921
  632MOL0     H85305   5.136  10.393   6.845  0.7163  0.4329  0.5326
  632MOL0     H85306   4.855  10.332   7.228 -0.3764  0.3697  4.5230
  632MOL0     H85307   4.617  10.303   7.320 -1.6571 -1.0845 -0.4936
  632MOL0     H85308   4.475   9.875   7.342  0.0803 -0.7563  0.7310
  632MOL0     H85309   4.346   9.958   7.403 -0.1243  0.6188 -3.4091
  632MOL0     H85310   4.481  10.059   7.593  1.1945 -0.4789  1.3127
  632MOL0     H85311   4.623  10.017   7.513  0.4331 -1.0485  0.4422
  632MOL0     H85312   4.597   9.854   7.695  2.5997 -2.6224 -1.2531
  632MOL0     H85313   4.581   9.772   7.549 -0.2581  0.5385  0.7862
  632MOL0     H85314   4.350   9.745   7.573  1.4408 -0.3521 -0.9011
  632MOL0     H85315   4.422   9.693   7.717 -3.0042 -1.4894 -2.2782
  632MOL0     H85316   4.163   9.986   7.860 -1.7525 -1.4329  0.1534
  632MOL0     H85317   4.610   9.901   7.182 -1.0904 -0.5202 -0.3198
  632MOL0     H85318   4.937   9.851   7.125 -1.0604  1.3307  2.6594
  632MOL0     H85319   4.772   9.818   7.052 -1.9673  3.6494 -0.6858
  632MOL0     H85320   4.905   9.916   6.971  2.1047  3.3559  0.4428
  633MOL0     O85321   2.441   2.093   5.127  0.0834  0.1114  0.1821
  633MOL0     C85322   2.448   2.187   5.207 -0.1126  0.1462  0.3275
  633MOL0     O85323   2.338   2.250   5.273  0.7839 -0.2014 -1.1702
  633MOL0     C85324   2.206   2.243   5.243  0.8818  0.9433 -0.7725
  633MOL0     C85325   2.147   2.139   5.167  0.6219  0.4465 -0.5291
  633MOL0     C85326   2.010   2.126   5.158 -0.7479  0.7237  0.0726
  633MOL0     C85327   1.922   2.212   5.214 -0.1861 -0.3666 -0.3518
  633MOL0     O85328   1.794   2.180   5.205  0.5705  0.7575 -0.0621
  633MOL0     C85329   1.706   2.282   5.248  0.5734 -1.2780 -0.0083
  633MOL0     C85330   1.566   2.256   5.201 -0.1595 -0.0324 -0.4584
  633MOL0     C85331   1.543   2.279   5.051 -0.5989  0.0916 -0.3278
  633MOL0     C85332   1.425   2.198   5.013  0.2927  1.3565 -0.3367
  633MOL0     C85333   1.290   2.220   5.080  1.1231  0.3089  0.1826
  633MOL0     C85334   1.201   2.106   5.035  1.2503  0.3136 -0.3402
  633MOL0     C85335   1.059   2.127   5.096  0.2955 -0.0789 -0.1637
  633MOL0     C85336   0.947   2.037   5.036  0.0991  0.0529 -0.4866
  633MOL0     N85337   0.830   2.026   5.124 -0.9225 -0.0261 -0.0487
  633MOL0     C85338   0.715   2.100   5.119 -0.7226 -0.8432  0.8250
  633MOL0     C85339   0.621   2.027   5.177  0.6582 -0.1866 -0.2112
  633MOL0     C85340   0.475   2.044   5.166  0.0925  0.1593  0.1025
  633MOL0     C85341   0.421   2.058   5.026 -0.7381 -0.1324  0.2381
  633MOL0     C85342   0.458   1.951   4.925  0.6881  0.3746  0.6965
  633MOL0     C85343   0.404   1.967   4.783  0.5139  0.1981  0.7139
  633MOL0     O85344   0.395   2.099   4.728 -0.4034  0.0488 -0.1997
  633MOL0     C85345   0.519   2.164   4.703  0.0948 -0.0634  0.0608
  633MOL0     C85346   0.644   2.095   4.681 -1.1780  0.0440  0.7866
  633MOL0     C85347   0.765   2.166   4.662 -1.0244  0.4577  0.8646
  633MOL0     C85348   0.757   2.306   4.648  0.0664 -0.1332 -0.2155
  633MOL0     C85349   0.879   2.394   4.642  0.4270 -0.6206 -0.3663
  633MOL0     O85350   0.994   2.335   4.669 -0.2857 -0.0976  0.8263
  633MOL0     C85351   1.115   2.398   4.664 -0.0093  0.1531 -0.1529
  633MOL0     C85352   1.172   2.410   4.538 -0.5726  0.0006 -0.4285
  633MOL0     C85353   1.301   2.469   4.530  0.2778  0.4998  1.0161
  633MOL0     C85354   1.378   2.507   4.642  0.2606  0.0850 -0.0411
  633MOL0     O85355   1.504   2.554   4.629 -0.9477 -0.2573 -0.2226
  633MOL0     C85356   1.599   2.555   4.739 -0.0913 -0.0852 -0.7084
  633MOL0     C85357   1.682   2.427   4.762  0.3255  0.5617 -0.4688
  633MOL0     C85358   1.828   2.431   4.708  0.5090 -0.7567 -0.1519
  633MOL0     C85359   1.926   2.537   4.771 -0.5254  0.5631  0.1521
  633MOL0     C85360   2.073   2.484   4.783 -0.4740 -0.0325 -0.1353
  633MOL0     C85361   2.131   2.472   4.932 -0.0515  1.0324  0.1966
  633MOL0     C85362   2.273   2.433   4.942 -0.2290  0.4756 -0.9714
  633MOL0     C85363   2.295   2.303   4.867 -0.7047 -0.2836  0.2592
  633MOL0    Cl85364   2.340   2.326   4.693  0.2640  0.1074 -0.4249
  633MOL0     C85365   1.312   2.489   4.774 -0.5091 -0.2614  0.2775
  633MOL0     C85366   1.185   2.437   4.779 -0.6027 -1.2013  1.0749
  633MOL0     O85367   0.866   2.505   4.595  0.4178 -0.5706  0.2212
  633MOL0     C85368   0.631   2.374   4.650 -0.7000 -0.3386 -0.0520
  633MOL0     C85369   0.519   2.297   4.675  0.2028 -0.0632 -0.3424
  633MOL0     N85370   0.677   1.912   5.224  0.9914  1.0385  0.5767
  633MOL0     N85371   0.803   1.916   5.199 -0.2008 -0.5681 -0.5902
  633MOL0     C85372   1.981   2.323   5.278  0.3215 -0.2449  0.1135
  633MOL0     C85373   2.117   2.337   5.297 -0.4791  0.3067 -0.5468
  633MOL0     C85374   2.577   2.255   5.225  0.1238  0.8622 -0.6195
  633MOL0     C85375   2.576   2.387   5.291 -0.5267 -0.8517 -0.3186
  633MOL0     C85376   2.694   2.460   5.316 -0.3615  0.0221 -1.2031
  633MOL0     C85377   2.807   2.418   5.272 -0.1048  0.9374  0.0294
  633MOL0     O85378   2.919   2.479   5.323  0.2640 -0.9611  1.1205
  633MOL0     C85379   3.049   2.445   5.271 -0.0200 -0.7178  0.0910
  633MOL0     C85380   3.098   2.331   5.369  0.0100  0.4736  0.1298
  633MOL0     C85381   3.136   2.390   5.504 -0.0340 -0.4112  0.3926
  633MOL0     C85382   3.275   2.456   5.505 -0.0657  0.9626 -0.3567
  633MOL0     C85383   3.378   2.349   5.499  0.2313  0.8255 -1.1265
  633MOL0     C85384   3.457   2.261   5.499  0.3369  0.7605  0.7717
  633MOL0     C85385   2.817   2.299   5.204 -0.4263  0.6286  0.6253
  633MOL0     C85386   2.703   2.217   5.180 -1.0204 -0.0326  0.4641
  633MOL0     C85387   2.729   2.083   5.105  0.0679  0.3578 -1.1153
  633MOL0     H85388   2.207   2.063   5.117  0.2674 -0.9107  1.0210
  633MOL0     H85389   1.967   2.045   5.101 -0.2090  1.7698 -1.9017
  633MOL0     H85390   1.706   2.292   5.357  0.4499 -2.3939  0.1097
  633MOL0     H85391   1.738   2.382   5.219  1.1633 -0.7174  2.3935
  633MOL0     H85392   1.486   2.312   5.251 -2.2219 -1.6335 -1.8041
  633MOL0     H85393   1.551   2.153   5.234  1.7058  0.1192  0.9814
  633MOL0     H85394   1.622   2.240   4.987 -0.7799 -0.4658 -0.2182
  633MOL0     H85395   1.518   2.386   5.041  2.2123  1.0969  2.1077
  633MOL0     H85396   1.411   2.193   4.904  2.2310 -1.3048 -0.5545
  633MOL0     H85397   1.453   2.097   5.044 -4.6589  0.7965  3.5480
  633MOL0     H85398   1.303   2.229   5.188  2.3729 -0.3656  0.1077
  633MOL0     H85399   1.252   2.313   5.035 -0.4049  1.8845  4.1991
  633MOL0     H85400   1.204   2.115   4.926  0.3978  2.3153 -0.2471
  633MOL0     H85401   1.246   2.011   5.065 -1.6965 -0.3372  2.5894
  633MOL0     H85402   1.028   2.229   5.075 -3.8004 -0.7551  1.6714
  633MOL0     H85403   1.069   2.106   5.202 -1.0968  0.3866  0.0804
  633MOL0     H85404   0.922   2.086   4.942  0.6351  1.4050  0.0573
  633MOL0     H85405   0.987   1.941   5.002  1.8065  1.0133 -1.3363
  633MOL0     H85406   0.691   2.189   5.063 -0.4717 -2.1233 -1.4314
  633MOL0     H85407   0.439   1.948   5.206 -1.7279  1.4892  1.8848
  633MOL0     H85408   0.439   2.123   5.233  2.5912  0.5017  1.1578
  633MOL0     H85409   0.312   2.051   5.031 -0.8826  0.6737 -1.1214
  633MOL0     H85410   0.440   2.156   4.982 -2.6139  0.4811  0.7287
  633MOL0     H85411   0.431   1.851   4.959 -3.3550  0.8572 -0.5348
  633MOL0     H85412   0.566   1.962   4.913  0.4747  0.2395 -1.9621
  633MOL0     H85413   0.305   1.923   4.794  0.2652  0.7054  0.5558
  633MOL0     H85414   0.453   1.906   4.707  0.9520  0.5771  0.6837
  633MOL0     H85415   0.657   1.989   4.701  1.9417  0.8052  3.7421
  633MOL0     H85416   0.863   2.122   4.677 -1.0228  0.7904  1.9824
  633MOL0     H85417   1.118   2.375   4.451 -1.1367  0.9271 -0.4567
  633MOL0     H85418   1.354   2.473   4.435  1.3071  2.4784  1.6145
  633MOL0     H85419   1.666   2.640   4.727  0.5763 -0.5464 -0.3070
  633MOL0     H85420   1.545   2.582   4.830 -1.7795 -0.3499 -1.5759
  633MOL0     H85421   1.702   2.401   4.866 -1.7073 -1.0434 -0.4079
  633MOL0     H85422   1.624   2.341   4.726  0.9110 -0.2223  0.4140
  633MOL0     H85423   1.874   2.332   4.719  0.9756 -0.3732  1.5303
  633MOL0     H85424   1.817   2.455   4.601  1.0878  0.4776  0.0560
  633MOL0     H85425   1.894   2.570   4.870  0.5876 -2.7612  1.7808
  633MOL0     H85426   1.936   2.629   4.712  1.9577  1.0246  1.1554
  633MOL0     H85427   2.139   2.551   4.726  0.6802  0.7117  1.9596
  633MOL0     H85428   2.087   2.392   4.726  3.2425  1.4045 -1.8711
  633MOL0     H85429   2.128   2.573   4.974  2.9402  0.3616  2.3476
  633MOL0     H85430   2.074   2.398   4.989 -0.5856  0.5778 -0.8919
  633MOL0     H85431   2.296   2.422   5.049 -0.1594 -0.1462 -1.0433
  633MOL0     H85432   2.337   2.518   4.916  0.1711  1.7170  3.2883
  633MOL0     H85433   2.370   2.246   4.923  0.1720  2.1475  1.7240
  633MOL0     H85434   2.207   2.238   4.870 -0.3797 -0.7105  0.7007
  633MOL0     H85435   1.356   2.518   4.868 -1.2305 -0.3195  0.6434
  633MOL0     H85436   1.121   2.429   4.867 -2.3070  0.6324  0.0684
  633MOL0     H85437   0.621   2.479   4.627 -3.2081  0.7255  4.5570
  633MOL0     H85438   0.420   2.341   4.682  0.0245 -0.6535  1.1118
  633MOL0     H85439   1.926   2.406   5.321  0.5717  1.8046 -3.1862
  633MOL0     H85440   2.160   2.422   5.349 -0.0697  0.0195 -0.4137
  633MOL0     H85441   2.491   2.445   5.324 -1.2022 -1.4053 -1.0424
  633MOL0     H85442   2.698   2.553   5.373  0.2912 -1.3580  1.1405
  633MOL0     H85443   3.116   2.531   5.271  0.8851 -1.3166 -2.6018
  633MOL0     H85444   3.052   2.408   5.168  0.8967  0.0686 -0.1712
  633MOL0     H85445   3.189   2.282   5.334  1.3362  1.4403  2.0040
  633MOL0     H85446   3.021   2.255   5.387 -0.9049  1.3105 -0.1610
  633MOL0     H85447   3.135   2.321   5.589  1.7446  2.0775  2.6356
  633MOL0     H85448   3.063   2.467   5.533 -2.3732 -2.4478  0.2002
  633MOL0     H85449   3.289   2.521   5.418  0.8430  0.1989 -0.8059
  633MOL0     H85450   3.300   2.515   5.593  1.1249  0.5535 -0.4038
  633MOL0     H85451   3.532   2.186   5.497 -0.8728 -0.5221 -2.3276
  633MOL0     H85452   2.913   2.279   5.158  0.4900  3.0597  1.2861
  633MOL0     H85453   2.699   1.996   5.163 -0.8967  1.1021 -0.4732
  633MOL0     H85454   2.676   2.070   5.011  0.0232 -0.4858 -0.9765
  633MOL0     H85455   2.836   2.058   5.096 -0.7798 -3.4352 -2.6737
  634MOL0     O85456   2.777   7.439   1.536 -0.5970 -0.7265 -0.0868
  634MOL0     C85457   2.663   7.395   1.511 -0.6848  0.0313 -0.1165
  634MOL0     O85458   2.622   7.330   1.396  0.1937  0.3525  0.5345
  634MOL0     C85459   2.697   7.341   1.280 -0.2524 -0.4653 -0.0468
  634MOL0     C85460   2.630   7.365   1.160  0.0517  0.2459  0.2798
  634MOL0     C85461   2.694   7.389   1.037  0.5378  0.2352  0.0618
  634MOL0     C85462   2.835   7.384   1.036  0.3068 -0.5769  0.8836
  634MOL0     O85463   2.910   7.395   0.921  0.5283  0.1426 -0.2548
  634MOL0     C85464   2.856   7.454   0.805  0.1518  0.1221 -0.4006
  634MOL0     C85465   2.968   7.494   0.709  0.0579  0.2573  0.4106
  634MOL0     C85466   3.067   7.590   0.770  0.0316 -0.3710 -0.0014
  634MOL0     C85467   3.170   7.648   0.674 -0.3604  0.5205 -0.0147
  634MOL0     C85468   3.290   7.718   0.744  0.8282 -0.0458 -0.6023
  634MOL0     C85469   3.354   7.819   0.647  0.0478  0.3773  1.0353
  634MOL0     C85470   3.466   7.902   0.719  0.0339 -0.2644  0.5774
  634MOL0     C85471   3.568   7.816   0.782  0.8950 -0.3808  0.8386
  634MOL0     N85472   3.687   7.875   0.823 -0.1590 -0.1099 -0.3024
  634MOL0     C85473   3.735   7.880   0.957  0.1197 -0.0225  0.1704
  634MOL0     C85474   3.853   7.942   0.941 -0.3606 -0.1163 -0.3702
  634MOL0     C85475   3.939   7.997   1.056 -0.8134  1.4060 -0.8942
  634MOL0     C85476   4.097   7.967   1.048  0.4360  0.2108 -0.4232
  634MOL0     C85477   4.165   8.060   0.956  0.3422 -0.0122  0.5364
  634MOL0     C85478   4.311   8.032   0.960 -0.7961 -0.4047 -0.3852
  634MOL0     O85479   4.371   8.060   0.831  1.0052 -0.2668 -0.1021
  634MOL0     C85480   4.511   8.064   0.822  0.0578 -0.6827 -0.1873
  634MOL0     C85481   4.600   8.038   0.921 -0.0180  0.3122  0.3439
  634MOL0     C85482   4.736   8.041   0.892 -0.7571 -0.1457  0.7546
  634MOL0     C85483   4.782   8.061   0.762 -0.2068 -0.9013  0.5335
  634MOL0     C85484   4.933   8.054   0.737  0.1909 -0.4173  0.2686
  634MOL0     O85485   4.976   8.051   0.598  0.3947  0.2723 -1.3559
  634MOL0     C85486   5.102   8.011   0.568 -0.1683  0.0939  0.5208
  634MOL0     C85487   5.170   8.073   0.459 -0.4688  1.1931 -0.7354
  634MOL0     C85488   5.280   8.012   0.401 -1.1443 -0.4739 -0.4383
  634MOL0     C85489   5.325   7.889   0.454  0.1973 -0.0293  0.3543
  634MOL0     O85490   5.445   7.856   0.401 -0.7342  0.9127 -0.0565
  634MOL0     C85491   5.523   7.752   0.469  0.5698  0.1480 -0.0513
  634MOL0     C85492   5.664   7.741   0.399  0.6796 -0.3442  0.3659
  634MOL0     C85493   5.640   7.689   0.249  0.6130  0.2714  0.5881
  634MOL0     C85494   5.771   7.631   0.207 -0.0508 -0.4559 -0.2298
  634MOL0     C85495   5.890   7.731   0.212 -0.3018 -0.0466 -0.0881
  634MOL0     C85496   6.005   7.669   0.141  0.2433  0.6996  0.4131
  634MOL0     C85497   6.095   7.779   0.096 -0.4072  0.2643  0.8080
  634MOL0     C85498   6.239   7.755   0.157 -0.3878  0.5118 -0.6964
  634MOL0    Cl85499   6.305   7.924   0.146  0.2398  0.4119  0.2903
  634MOL0     C85500   5.256   7.822   0.557 -0.1682  0.3793 -0.5128
  634MOL0     C85501   5.148   7.886   0.614 -0.0348  0.1544  0.8319
  634MOL0     O85502   5.010   8.044   0.831 -0.5668  0.6947  0.7606
  634MOL0     C85503   4.692   8.089   0.653  0.2631 -0.6312 -0.0090
  634MOL0     C85504   4.553   8.083   0.693  0.2459 -0.9434  0.3647
  634MOL0     N85505   3.878   7.962   0.802 -0.7828  1.0242 -0.1051
  634MOL0     N85506   3.773   7.924   0.737 -0.2993 -0.2521  0.1670
  634MOL0     C85507   2.903   7.348   1.154  0.1105 -0.3480 -0.4023
  634MOL0     C85508   2.835   7.322   1.271 -1.0981 -0.3241 -0.1224
  634MOL0     C85509   2.564   7.382   1.626  0.6493 -1.3542  0.7610
  634MOL0     C85510   2.609   7.348   1.752 -0.5130 -0.5224  0.6184
  634MOL0     C85511   2.525   7.331   1.866  0.4481  0.1591  0.8577
  634MOL0     C85512   2.386   7.345   1.850  0.1654  0.0746 -0.1310
  634MOL0     O85513   2.293   7.338   1.955 -0.0661 -0.1451 -0.0581
  634MOL0     C85514   2.333   7.326   2.083  0.3286  0.4988 -0.2731
  634MOL0     C85515   2.216   7.355   2.176  1.1635 -0.3925 -0.3528
  634MOL0     C85516   2.177   7.507   2.160 -0.0608  0.4596 -0.0022
  634MOL0     C85517   2.070   7.560   2.259 -0.0107 -0.3484 -0.6023
  634MOL0     C85518   1.949   7.482   2.234 -0.2888 -0.2603 -0.3493
  634MOL0     C85519   1.857   7.406   2.208 -0.2461 -0.0540  0.3500
  634MOL0     C85520   2.349   7.382   1.726  0.1221 -0.2865 -0.3113
  634MOL0     C85521   2.428   7.401   1.613  0.6479  0.0661 -0.3402
  634MOL0     C85522   2.362   7.409   1.480  0.2851 -0.0984  0.4949
  634MOL0     H85523   2.522   7.364   1.154  0.0645 -3.0971 -2.1908
  634MOL0     H85524   2.641   7.397   0.943  1.5831 -0.3996 -0.6042
  634MOL0     H85525   2.779   7.398   0.752  1.1000 -0.2651 -1.3999
  634MOL0     H85526   2.806   7.547   0.834  0.9108  0.2691  0.4827
  634MOL0     H85527   2.926   7.544   0.621  2.4196 -1.8951 -2.1534
  634MOL0     H85528   3.022   7.405   0.674  0.0221 -0.3090  1.7293
  634MOL0     H85529   3.114   7.546   0.858 -0.7940  0.3447  0.8251
  634MOL0     H85530   3.015   7.682   0.799 -0.8855 -0.5036 -1.1533
  634MOL0     H85531   3.198   7.568   0.605 -1.5628  0.5672 -0.5746
  634MOL0     H85532   3.123   7.727   0.615  0.2954  2.1011  1.4804
  634MOL0     H85533   3.247   7.765   0.832  2.8036  0.1018  0.3289
  634MOL0     H85534   3.355   7.636   0.775 -0.2205 -0.8619 -0.5068
  634MOL0     H85535   3.395   7.774   0.557 -2.2259  1.8604 -0.8797
  634MOL0     H85536   3.274   7.889   0.621 -0.0602  1.4306  3.7984
  634MOL0     H85537   3.427   7.971   0.794  1.5800  0.1952  1.0125
  634MOL0     H85538   3.508   7.962   0.637 -0.3259 -1.2076 -0.3193
  634MOL0     H85539   3.523   7.768   0.870  5.3197 -0.4566  3.3394
  634MOL0     H85540   3.588   7.746   0.700 -0.8190  0.5176 -0.4100
  634MOL0     H85541   3.682   7.843   1.044 -0.5132 -1.3307 -0.7148
  634MOL0     H85542   3.924   8.104   1.076  0.2375  0.7956  4.7900
  634MOL0     H85543   3.895   7.946   1.142 -0.3821 -0.8485 -1.9406
  634MOL0     H85544   4.138   7.989   1.147  1.7465 -2.0784 -0.3944
  634MOL0     H85545   4.113   7.860   1.029  2.3186  0.1932  0.9889
  634MOL0     H85546   4.147   8.159   0.998 -0.6730  0.3728 -0.7401
  634MOL0     H85547   4.135   8.049   0.851  0.3452  1.1630  0.4029
  634MOL0     H85548   4.339   7.931   0.993  2.5773  1.6017  3.9608
  634MOL0     H85549   4.359   8.103   1.028 -0.9035 -1.4925  0.8761
  634MOL0     H85550   4.578   8.011   1.024 -2.9551 -1.9537 -0.7319
  634MOL0     H85551   4.799   8.035   0.981  0.8772  0.7109 -0.2906
  634MOL0     H85552   5.137   8.173   0.433  2.1610  2.3541  0.0422
  634MOL0     H85553   5.342   8.047   0.319  0.7135 -2.4306  0.0202
  634MOL0     H85554   5.538   7.793   0.569  3.3048  0.1132 -0.3573
  634MOL0     H85555   5.492   7.647   0.474  1.2632 -0.1291 -1.1427
  634MOL0     H85556   5.705   7.842   0.401 -0.2908  0.3489 -4.1562
  634MOL0     H85557   5.722   7.659   0.443  1.2917 -1.0545 -1.6371
  634MOL0     H85558   5.571   7.605   0.244  0.1577  0.2130  4.4029
  634MOL0     H85559   5.612   7.768   0.179  2.4216 -1.1180 -1.8300
  634MOL0     H85560   5.756   7.594   0.105  0.9735 -2.6933  0.3697
  634MOL0     H85561   5.791   7.542   0.267 -2.3539  0.0312  1.3836
  634MOL0     H85562   5.921   7.759   0.313 -2.7945  1.0469  0.4635
  634MOL0     H85563   5.861   7.828   0.170 -0.2004 -0.1271 -0.3409
  634MOL0     H85564   6.059   7.603   0.210  2.1558  1.3687 -0.3753
  634MOL0     H85565   5.971   7.627   0.046  0.1882  2.3207 -0.3207
  634MOL0     H85566   6.057   7.873   0.136  0.5944  1.6063 -1.2346
  634MOL0     H85567   6.088   7.780  -0.013  1.5129  0.1290  0.6409
  634MOL0     H85568   6.250   7.735   0.264 -2.0886 -1.9444 -0.8898
  634MOL0     H85569   6.300   7.679   0.107  0.3418 -0.3096  1.3403
  634MOL0     H85570   5.277   7.719   0.585 -1.9111 -0.4221 -1.9355
  634MOL0     H85571   5.102   7.837   0.699  0.9990 -1.3407  0.5643
  634MOL0     H85572   4.723   8.109   0.551 -0.8374 -1.3614 -0.5064
  634MOL0     H85573   4.481   8.079   0.611  0.7745 -3.7371 -0.0489
  634MOL0     H85574   3.010   7.337   1.138 -0.0946 -0.3549 -1.8923
  634MOL0     H85575   2.885   7.304   1.366 -0.4760  0.4366 -0.2894
  634MOL0     H85576   2.716   7.338   1.765 -0.6215 -1.1857  1.0524
  634MOL0     H85577   2.560   7.302   1.965 -1.9708  0.0839  1.7479
  634MOL0     H85578   2.415   7.394   2.108 -0.2150  0.3100  2.3413
  634MOL0     H85579   2.378   7.229   2.104  3.2014  1.4755 -1.4457
  634MOL0     H85580   2.228   7.326   2.281 -0.3948 -1.1615 -0.3643
  634MOL0     H85581   2.134   7.289   2.148  1.8139 -1.5705  0.3904
  634MOL0     H85582   2.138   7.520   2.059 -1.2232  1.3811  0.5233
  634MOL0     H85583   2.271   7.562   2.171 -0.8739  1.8783  0.1748
  634MOL0     H85584   2.102   7.543   2.363  0.7691  0.3396 -0.7193
  634MOL0     H85585   2.038   7.662   2.236 -0.3117 -0.6744 -1.6861
  634MOL0     H85586   1.778   7.335   2.193 -0.7646  0.4788  0.4964
  634MOL0     H85587   2.243   7.371   1.704 -0.0357 -0.3790  0.4573
  634MOL0     H85588   2.257   7.441   1.488  0.1033 -1.0413  2.3199
  634MOL0     H85589   2.425   7.486   1.434  3.8759 -2.2392  1.4750
  634MOL0     H85590   2.372   7.319   1.419  0.2549  0.3483 -0.1912
  635MOL0     O85591   7.890  11.128   3.252  0.6070 -0.4934  0.9189
  635MOL0     C85592   7.908  11.065   3.349  0.0548 -0.0634 -0.3734
  635MOL0     O85593   8.029  11.058   3.412  0.4787  0.7603 -0.1114
  635MOL0     C85594   8.132  11.144   3.383  0.2599  0.4096 -0.1980
  635MOL0     C85595   8.249  11.086   3.329 -0.1484  0.3582 -0.3942
  635MOL0     C85596   8.365  11.167   3.305  0.2159 -0.1645 -0.1997
  635MOL0     C85597   8.353  11.305   3.316  0.7687  0.1990 -0.8483
  635MOL0     O85598   8.450  11.387   3.285 -0.4078 -0.4711  0.0199
  635MOL0     C85599   8.584  11.347   3.322 -0.9200  0.3280 -0.3303
  635MOL0     C85600   8.656  11.323   3.189  0.2211 -0.6946  0.7254
  635MOL0     C85601   8.794  11.269   3.214 -0.3425 -0.5018 -0.9595
  635MOL0     C85602   8.881  11.367   3.295  0.0236  0.7407  0.3394
  635MOL0     C85603   8.988  11.422   3.217  0.0121 -0.2057 -0.4474
  635MOL0     C85604   8.944  11.526   3.114  0.0106  0.4799  0.6650
  635MOL0     C85605   9.066  11.572   3.037 -0.1116  0.6616 -0.1898
  635MOL0     C85606   9.049  11.700   2.961 -0.8180  0.4949 -0.3747
  635MOL0     N85607   8.970  11.675   2.841  0.6011  0.3551 -1.3398
  635MOL0     C85608   9.024  11.638   2.721 -0.1990 -1.1600 -0.7209
  635MOL0     C85609   8.923  11.664   2.632  0.3442  0.0994  0.8928
  635MOL0     C85610   8.925  11.657   2.482  0.5103  0.4211 -0.4780
  635MOL0     C85611   9.045  11.735   2.424  0.2559 -0.0237  0.1070
  635MOL0     C85612   9.013  11.794   2.282 -0.8352  0.8011 -0.4034
  635MOL0     C85613   9.147  11.834   2.220 -0.1999  0.7204 -0.1994
  635MOL0     O85614   9.238  11.724   2.195  0.3751 -0.0336 -0.2578
  635MOL0     C85615   9.216  11.639   2.091  0.0982 -0.2099 -0.0105
  635MOL0     C85616   9.106  11.646   2.002 -0.1351 -1.0658  0.6956
  635MOL0     C85617   9.078  11.541   1.908  0.1183 -0.1844  0.0232
  635MOL0     C85618   9.156  11.421   1.899  0.1745 -0.2249  1.1495
  635MOL0     C85619   9.109  11.312   1.817  0.0260 -0.2556  0.6989
  635MOL0     O85620   9.165  11.191   1.836  0.4458 -0.2391  0.0849
  635MOL0     C85621   9.149  11.107   1.728  0.5545  0.2118  0.2098
  635MOL0     C85622   9.238  11.099   1.622 -0.2018 -0.2185  0.8284
  635MOL0     C85623   9.216  11.014   1.518 -1.0231 -0.6401 -0.6157
  635MOL0     C85624   9.108  10.932   1.503  0.2754 -0.3430 -0.4523
  635MOL0     O85625   9.093  10.836   1.408  0.6030 -0.3381 -0.1455
  635MOL0     C85626   8.970  10.784   1.379 -0.5657 -0.9245 -0.1455
  635MOL0     C85627   8.960  10.641   1.431  0.4310 -0.0105 -0.5583
  635MOL0     C85628   8.834  10.574   1.357 -0.2353 -0.7440 -0.3687
  635MOL0     C85629   8.831  10.421   1.350 -1.0091  0.5386  0.1368
  635MOL0     C85630   8.864  10.347   1.491 -0.0297 -0.5438 -0.0478
  635MOL0     C85631   8.934  10.216   1.485  0.4703 -0.0263 -0.4450
  635MOL0     C85632   8.859  10.120   1.378  0.8402 -0.7180  0.1213
  635MOL0     C85633   8.717  10.080   1.420  0.2694 -0.2369  0.6288
  635MOL0    Cl85634   8.656   9.957   1.294  0.1163  0.2166 -0.4219
  635MOL0     C85635   9.019  10.934   1.612 -0.5906 -0.0517 -0.1413
  635MOL0     C85636   9.024  11.029   1.718 -1.1676 -0.1831 -0.0223
  635MOL0     O85637   9.027  11.339   1.729 -0.6664  0.2086 -0.0659
  635MOL0     C85638   9.266  11.410   1.981  0.2480 -0.3430 -0.0673
  635MOL0     C85639   9.294  11.521   2.066 -0.3227 -0.2648 -0.5050
  635MOL0     N85640   8.820  11.709   2.708  0.2735 -0.1111  0.1367
  635MOL0     N85641   8.836  11.716   2.833  0.2758 -0.0013  0.0007
  635MOL0     C85642   8.236  11.355   3.370  0.9412 -0.5445 -0.4072
  635MOL0     C85643   8.133  11.275   3.409  0.6751 -0.2251 -0.1285
  635MOL0     C85644   7.800  10.968   3.388  0.3146  0.5624  0.7054
  635MOL0     C85645   7.766  10.865   3.295  0.0564 -0.2449 -0.0646
  635MOL0     C85646   7.675  10.764   3.335  0.4343  0.3758 -0.4116
  635MOL0     C85647   7.612  10.778   3.461 -0.0418 -0.5521 -0.8082
  635MOL0     O85648   7.508  10.696   3.505 -0.2110  0.4533 -0.3602
  635MOL0     C85649   7.522  10.550   3.511 -0.3304  0.1322 -1.1368
  635MOL0     C85650   7.390  10.487   3.506  0.1124  1.0282 -0.6641
  635MOL0     C85651   7.402  10.332   3.502 -0.3500 -0.8820 -0.7173
  635MOL0     C85652   7.271  10.260   3.512 -0.1189  0.3536 -0.1884
  635MOL0     C85653   7.209  10.256   3.376  0.0169 -0.1467  0.2422
  635MOL0     C85654   7.165  10.273   3.264 -0.7180 -0.1952  0.7899
  635MOL0     C85655   7.656  10.873   3.553  0.7599  0.6364  0.1111
  635MOL0     C85656   7.747  10.970   3.514  0.4635 -0.4251  0.3698
  635MOL0     C85657   7.781  11.087   3.618  0.5925 -0.0303  0.4597
  635MOL0     H85658   8.258  10.978   3.333  1.8464  0.5052  0.1356
  635MOL0     H85659   8.453  11.118   3.265  1.8801  0.1729  2.7056
  635MOL0     H85660   8.631  11.431   3.374  0.4241  0.7272 -2.0741
  635MOL0     H85661   8.588  11.260   3.389 -0.6927 -0.8905 -1.8678
  635MOL0     H85662   8.654  11.415   3.129  0.5026 -1.9446 -1.2832
  635MOL0     H85663   8.596  11.250   3.134  2.0378 -3.0015  1.6303
  635MOL0     H85664   8.837  11.243   3.117  0.4364  1.4068 -1.1781
  635MOL0     H85665   8.793  11.172   3.264 -3.9912 -0.9673 -1.6368
  635MOL0     H85666   8.817  11.441   3.344 -1.0301 -0.0404  0.1996
  635MOL0     H85667   8.924  11.307   3.375 -3.5042  1.2602  2.8704
  635MOL0     H85668   9.062  11.460   3.287 -0.7694  0.0805  0.2402
  635MOL0     H85669   9.034  11.349   3.150 -1.7436 -0.5500 -1.3442
  635MOL0     H85670   8.871  11.483   3.045  0.8194  0.8282 -0.4393
  635MOL0     H85671   8.898  11.600   3.180  1.0282 -0.1391  2.1206
  635MOL0     H85672   9.086  11.490   2.968  0.6163  0.3295  0.4078
  635MOL0     H85673   9.137  11.586   3.118 -1.2680 -1.6198  1.3198
  635MOL0     H85674   9.008  11.775   3.029  2.4194  0.6411  1.5732
  635MOL0     H85675   9.143  11.742   2.925  0.1989 -1.3136  0.0898
  635MOL0     H85676   9.128  11.614   2.703 -0.2320 -1.9107  0.0545
  635MOL0     H85677   8.922  11.550   2.463  0.7456 -0.2786  2.8527
  635MOL0     H85678   8.832  11.698   2.441 -0.3655 -0.3166  0.7148
  635MOL0     H85679   9.062  11.828   2.479  0.3232 -0.5375  0.9784
  635MOL0     H85680   9.127  11.663   2.420  2.2694  2.2089 -1.2714
  635MOL0     H85681   8.954  11.886   2.278 -1.1902  0.6020  0.1148
  635MOL0     H85682   8.962  11.726   2.214 -1.6672  2.2175 -1.2472
  635MOL0     H85683   9.198  11.914   2.274 -1.0641  0.6514  0.7542
  635MOL0     H85684   9.134  11.879   2.122  2.0579 -2.9074 -2.4146
  635MOL0     H85685   9.031  11.723   2.012  0.0156 -1.0700  1.9926
  635MOL0     H85686   8.990  11.548   1.846  0.1000  1.6545  0.2151
  635MOL0     H85687   9.341  11.132   1.632 -0.6489  0.8420  2.2597
  635MOL0     H85688   9.288  11.010   1.437 -1.2875 -3.7268 -0.7941
  635MOL0     H85689   8.884  10.840   1.416 -1.7335 -3.0250  0.4837
  635MOL0     H85690   8.964  10.783   1.269  0.9365  2.7082 -0.3881
  635MOL0     H85691   9.058  10.593   1.421  0.5553 -0.3938  1.8837
  635MOL0     H85692   8.938  10.641   1.538 -0.7582  2.5546 -0.7294
  635MOL0     H85693   8.740  10.605   1.404 -0.1845 -0.7869 -0.2373
  635MOL0     H85694   8.832  10.610   1.254  1.0759  3.4566  0.8474
  635MOL0     H85695   8.909  10.394   1.279 -1.3346 -1.4313  0.4879
  635MOL0     H85696   8.735  10.400   1.303 -0.2603  2.0010 -2.2374
  635MOL0     H85697   8.768  10.358   1.542  0.2888  3.8393  0.0522
  635MOL0     H85698   8.930  10.413   1.548 -2.4212  1.5736  0.4669
  635MOL0     H85699   9.037  10.227   1.449  0.6024 -2.0692 -0.7704
  635MOL0     H85700   8.956  10.169   1.582  2.0449 -1.2728 -1.3683
  635MOL0     H85701   8.928  10.038   1.353  2.6410 -0.0453  2.5184
  635MOL0     H85702   8.855  10.178   1.286 -1.0626 -1.0795 -0.0789
  635MOL0     H85703   8.718  10.047   1.525 -0.5099  0.9542  1.0352
  635MOL0     H85704   8.653  10.168   1.410 -1.0362 -1.1786  0.4103
  635MOL0     H85705   8.933  10.868   1.609  0.2492 -1.2825  1.5442
  635MOL0     H85706   8.941  11.040   1.788 -1.9539 -1.6128 -0.6813
  635MOL0     H85707   9.325  11.319   1.987  0.0108 -0.4191  1.7023
  635MOL0     H85708   9.386  11.507   2.121 -0.2608  0.6884 -0.3513
  635MOL0     H85709   8.230  11.462   3.387  1.6365 -0.7165  1.1552
  635MOL0     H85710   8.050  11.315   3.465  0.2260  0.9525 -1.5627
  635MOL0     H85711   7.814  10.857   3.198 -1.9245 -0.7178 -1.0402
  635MOL0     H85712   7.645  10.687   3.265 -1.8736 -0.8755  1.7766
  635MOL0     H85713   7.583  10.516   3.594 -1.2339 -1.4070 -1.0659
  635MOL0     H85714   7.565  10.522   3.415  0.7884  1.1416 -0.9563
  635MOL0     H85715   7.345  10.518   3.411 -0.7972 -1.2157 -1.0429
  635MOL0     H85716   7.329  10.509   3.593  0.0968 -0.5942 -0.2237
  635MOL0     H85717   7.478  10.290   3.568 -1.9309 -1.1382  1.0271
  635MOL0     H85718   7.431  10.317   3.397 -3.3790  0.7832 -1.9174
  635MOL0     H85719   7.285  10.164   3.563  2.5649  0.7323 -0.0702
  635MOL0     H85720   7.199  10.321   3.569  0.1206  1.1472 -0.7272
  635MOL0     H85721   7.119  10.287   3.168 -0.3197  2.9266  0.9266
  635MOL0     H85722   7.613  10.855   3.651  1.1537 -2.3590 -0.1739
  635MOL0     H85723   7.891  11.089   3.617  0.6609  1.0418  2.7950
  635MOL0     H85724   7.748  11.188   3.594  0.1813  0.2681  2.1326
  635MOL0     H85725   7.736  11.057   3.713  0.2213 -0.4235  0.1635
  636MOL0     O85726   1.601  11.068   9.553 -0.1605 -0.2503 -0.6568
  636MOL0     C85727   1.569  10.947   9.555  0.6025 -0.6289  1.6184
  636MOL0     O85728   1.654  10.839   9.555  0.7477  0.6207 -0.4120
  636MOL0     C85729   1.775  10.842   9.597  0.0225  0.1935 -0.6990
  636MOL0     C85730   1.830  10.937   9.688 -0.2759 -0.3369 -0.0411
  636MOL0     C85731   1.973  10.939   9.708  0.5550 -1.0538  0.6585
  636MOL0     C85732   2.049  10.835   9.666  1.0408 -0.5429  0.4295
  636MOL0     O85733   2.181  10.842   9.692 -0.2193  0.1744 -0.3414
  636MOL0     C85734   2.256  10.725   9.710 -0.8363 -0.3481 -0.2972
  636MOL0     C85735   2.356  10.763   9.824 -0.4316  0.8715  0.9642
  636MOL0     C85736   2.491  10.690   9.814 -0.3015  0.7400 -0.3423
  636MOL0     C85737   2.543  10.674   9.958  0.1004 -0.4034 -0.4286
  636MOL0     C85738   2.689  10.634   9.961  0.1299  0.8058 -0.1659
  636MOL0     C85739   2.776  10.720   9.870  0.5026  0.4612  0.1087
  636MOL0     C85740   2.913  10.726   9.949  0.0817 -0.2557 -0.6987
  636MOL0     C85741   3.019  10.790   9.851  0.0361  0.5051  0.9024
  636MOL0     N85742   3.137  10.815   9.927 -1.0938  0.5517  0.4257
  636MOL0     C85743   3.248  10.732   9.922  0.2906 -0.1931  0.5735
  636MOL0     C85744   3.342  10.779  10.008  0.7283 -0.5569 -0.2233
  636MOL0     C85745   3.479  10.714  10.046 -0.8424  0.0176 -0.2601
  636MOL0     C85746   3.598  10.811  10.055 -0.6840 -0.4075 -0.8185
  636MOL0     C85747   3.635  10.873   9.919 -0.3889 -0.9089 -0.4484
  636MOL0     C85748   3.764  10.960   9.938  0.3813  0.1272 -0.0248
  636MOL0     O85749   3.876  10.876   9.925 -0.1027  0.1465 -0.0280
  636MOL0     C85750   3.993  10.931   9.884  0.5467  0.7369  0.2407
  636MOL0     C85751   4.105  10.847   9.865  1.4074  0.4537 -0.1605
  636MOL0     C85752   4.233  10.899   9.839 -0.0530 -0.3530 -0.1713
  636MOL0     C85753   4.252  11.037   9.808 -0.3946 -0.0814  0.0444
  636MOL0     C85754   4.384  11.084   9.782 -0.6470 -0.8144 -0.5752
  636MOL0     O85755   4.491  11.004   9.776 -0.0185 -0.0788  0.1228
  636MOL0     C85756   4.611  11.062   9.782 -0.2117  0.1251 -0.4398
  636MOL0     C85757   4.636  11.152   9.892  0.1595 -0.0477 -0.3693
  636MOL0     C85758   4.771  11.180   9.914 -1.5729 -0.8340  1.4063
  636MOL0     C85759   4.883  11.138   9.836 -0.2416 -0.3266  0.5443
  636MOL0     O85760   5.015  11.157   9.846 -0.3198 -0.0006 -0.1758
  636MOL0     C85761   5.056  11.253   9.938 -0.5244 -0.2240  0.1888
  636MOL0     C85762   5.054  11.216  10.085 -0.5072 -0.1152 -0.2071
  636MOL0     C85763   5.122  11.083  10.126 -0.9438 -0.9326 -0.3013
  636MOL0     C85764   5.025  10.969  10.138 -0.2085 -0.3215  0.0578
  636MOL0     C85765   5.090  10.836  10.165 -0.4075 -0.0744 -1.1150
  636MOL0     C85766   5.122  10.832  10.318  0.4713  0.3217 -0.6340
  636MOL0     C85767   5.191  10.702  10.343 -0.2644 -0.1481 -0.3367
  636MOL0     C85768   5.258  10.685  10.493 -0.2915  0.1110 -0.2638
  636MOL0    Cl85769   5.412  10.591  10.465  0.0595 -0.2426 -0.2073
  636MOL0     C85770   4.848  11.058   9.726 -0.6254 -1.0845  0.0904
  636MOL0     C85771   4.721  11.022   9.701  0.1326 -1.4973  0.4879
  636MOL0     O85772   4.379  11.208   9.770 -0.5525  0.1663 -0.0582
  636MOL0     C85773   4.133  11.119   9.816 -0.3227  0.2400  0.4006
  636MOL0     C85774   4.012  11.068   9.853 -0.2155  0.9489 -1.6351
  636MOL0     N85775   3.289  10.892  10.064 -0.2791  0.4386 -0.6721
  636MOL0     N85776   3.166  10.912  10.014 -0.1415 -0.8092  0.4255
  636MOL0     C85777   1.989  10.739   9.584 -0.8280  0.1088 -0.3645
  636MOL0     C85778   1.853  10.741   9.544 -0.1807  0.0236 -0.2577
  636MOL0     C85779   1.421  10.922   9.542  0.5709 -0.5435 -0.0928
  636MOL0     C85780   1.379  10.791   9.505 -0.2326  0.4811  0.8120
  636MOL0     C85781   1.246  10.746   9.504  0.5112  0.0880 -0.2374
  636MOL0     C85782   1.147  10.832   9.547 -0.1592 -0.4477  0.2716
  636MOL0     O85783   1.020  10.778   9.546 -0.5473 -0.0983 -0.3093
  636MOL0     C85784   0.901  10.854   9.597 -0.7407  0.5995  0.2215
  636MOL0     C85785   0.898  10.859   9.745 -0.4959 -0.4641 -0.0927
  636MOL0     C85786   0.753  10.891   9.808 -0.5570  0.5449 -0.4156
  636MOL0     C85787   0.707  11.019   9.750  0.1308  0.5275  0.5186
  636MOL0     C85788   0.566  11.027   9.781 -1.0285 -0.6812  0.4745
  636MOL0     C85789   0.452  11.021   9.811 -0.2955 -0.2146 -0.5780
  636MOL0     C85790   1.184  10.959   9.598 -0.0820  0.6868 -0.1925
  636MOL0     C85791   1.314  11.008   9.593 -0.1736 -0.6135  0.9800
  636MOL0     C85792   1.332  11.152   9.643 -0.0164  0.4774 -0.3653
  636MOL0     H85793   1.775  11.023   9.723 -0.6320  0.4614 -2.3953
  636MOL0     H85794   2.012  11.023   9.764 -4.4948  0.9058  1.8007
  636MOL0     H85795   2.190  10.642   9.737 -3.1285  1.5553  0.2882
  636MOL0     H85796   2.315  10.711   9.618 -0.7929 -1.3775 -0.1264
  636MOL0     H85797   2.311  10.730   9.918 -0.4585  2.9313  1.7287
  636MOL0     H85798   2.375  10.871   9.823  0.9705  0.7658 -3.3858
  636MOL0     H85799   2.563  10.722   9.737  0.8228 -0.1082  0.3166
  636MOL0     H85800   2.477  10.584   9.792  0.1435  0.9853 -1.9495
  636MOL0     H85801   2.545  10.776   9.997  3.8180  1.1659 -3.8476
  636MOL0     H85802   2.486  10.608  10.022  3.0403  0.1319  3.0721
  636MOL0     H85803   2.717  10.643  10.067 -1.4722  1.8504  0.1946
  636MOL0     H85804   2.699  10.527   9.940  0.0875  0.8832 -0.5842
  636MOL0     H85805   2.796  10.676   9.772  2.9915  0.7284  0.4246
  636MOL0     H85806   2.743  10.824   9.866 -2.9854 -0.4535  1.8250
  636MOL0     H85807   2.951  10.629   9.984  1.1873  0.6706  0.8282
  636MOL0     H85808   2.889  10.783  10.039  0.0008 -2.8353  1.0373
  636MOL0     H85809   3.046  10.733   9.762 -0.6856  3.4124 -1.3253
  636MOL0     H85810   2.981  10.880   9.803 -0.6638 -0.9038 -1.3886
  636MOL0     H85811   3.261  10.638   9.869 -0.6695  0.8404 -1.6491
  636MOL0     H85812   3.471  10.655  10.138  1.1362  0.0071 -0.0629
  636MOL0     H85813   3.514  10.642   9.971  0.3238  1.2432 -0.9276
  636MOL0     H85814   3.576  10.896  10.120 -1.3549  1.1964 -3.0053
  636MOL0     H85815   3.684  10.759  10.097  0.4651  1.2021 -1.0900
  636MOL0     H85816   3.553  10.929   9.874  1.2905  3.4744  1.3661
  636MOL0     H85817   3.665  10.793   9.851  0.1289 -1.9029  0.8995
  636MOL0     H85818   3.762  11.012  10.034 -0.0072  0.8107 -0.3969
  636MOL0     H85819   3.758  11.035   9.858  0.1414  0.0462 -0.0828
  636MOL0     H85820   4.106  10.740   9.886 -0.3546  0.0011 -2.0988
  636MOL0     H85821   4.314  10.828   9.851 -0.8456 -1.3348 -0.4540
  636MOL0     H85822   4.561  11.203   9.952  1.3419  0.6808  0.5340
  636MOL0     H85823   4.783  11.265   9.980 -2.0356  0.2993  0.0820
  636MOL0     H85824   5.159  11.268   9.904 -0.0284  1.9713  2.3933
  636MOL0     H85825   5.013  11.353   9.935  2.9764  1.4224 -1.1549
  636MOL0     H85826   5.116  11.283  10.145 -1.3234 -1.4885  2.3294
  636MOL0     H85827   4.951  11.217  10.121 -0.5614  0.7908 -0.3774
  636MOL0     H85828   5.209  11.051  10.068 -0.3598  0.7821 -0.4223
  636MOL0     H85829   5.168  11.101  10.223  0.5347  0.4604 -1.2127
  636MOL0     H85830   4.987  10.957  10.036  0.5666 -1.4060 -0.1180
  636MOL0     H85831   4.931  10.980  10.193 -0.7689 -0.2833 -0.8706
  636MOL0     H85832   5.181  10.835  10.105  0.5488 -2.0846  0.2737
  636MOL0     H85833   5.028  10.749  10.138  0.8088 -1.9010  1.5557
  636MOL0     H85834   5.182  10.920  10.343  1.9859 -1.1196  1.0431
  636MOL0     H85835   5.030  10.831  10.378 -0.6025 -2.3599 -2.1274
  636MOL0     H85836   5.274  10.688  10.274 -0.5669 -3.2519 -0.1769
  636MOL0     H85837   5.114  10.627  10.323 -1.3526  0.4878  1.2579
  636MOL0     H85838   5.278  10.787  10.527 -1.1411  1.1586 -2.6712
  636MOL0     H85839   5.172  10.642  10.545  1.2797 -4.8339 -1.2426
  636MOL0     H85840   4.935  11.029   9.668 -0.4539  0.6176 -0.5497
  636MOL0     H85841   4.698  10.958   9.617  1.1875 -1.4041  0.1207
  636MOL0     H85842   4.146  11.226   9.808 -0.8271  0.3825  1.3872
  636MOL0     H85843   3.923  11.130   9.855 -1.7524 -1.0652  2.0650
  636MOL0     H85844   2.048  10.656   9.545 -0.8445 -0.5619  0.9951
  636MOL0     H85845   1.831  10.661   9.474  2.4291 -1.9137  0.9461
  636MOL0     H85846   1.456  10.719   9.481 -0.8365 -0.0416  0.4175
  636MOL0     H85847   1.217  10.648   9.465 -1.0019  0.4239 -0.0168
  636MOL0     H85848   0.815  10.794   9.565  0.0400 -1.1283  1.1805
  636MOL0     H85849   0.890  10.951   9.548  0.3689 -0.5329 -2.4836
  636MOL0     H85850   0.976  10.918   9.793  0.3281 -1.8954  0.4159
  636MOL0     H85851   0.934  10.758   9.766  0.5540 -0.3055 -1.0133
  636MOL0     H85852   0.751  10.878   9.916 -1.5362 -1.8175 -0.6566
  636MOL0     H85853   0.685  10.815   9.770 -0.0385  0.0807 -0.4239
  636MOL0     H85854   0.763  11.100   9.797 -0.2499  0.4511  1.1146
  636MOL0     H85855   0.703  11.024   9.641 -0.0879 -0.1394  0.4920
  636MOL0     H85856   0.350  11.015   9.842 -0.9142  1.0241 -2.1948
  636MOL0     H85857   1.117  11.038   9.631  0.6456  1.4316 -0.4717
  636MOL0     H85858   1.398  11.209   9.577  0.3441  1.9004  1.1421
  636MOL0     H85859   1.238  11.206   9.651 -0.3135 -0.0385 -0.3577
  636MOL0     H85860   1.377  11.154   9.743 -0.4518  0.9135 -0.1744
  637MOL0     O85861   7.909   9.590  11.249 -0.0621  0.4199  0.7722
  637MOL0     C85862   7.880   9.652  11.353  0.0567  0.5206  0.7954
  637MOL0     O85863   7.964   9.690  11.449 -0.1021  0.1324 -0.2022
  637MOL0     C85864   8.079   9.618  11.468 -0.5432  0.7694  0.0591
  637MOL0     C85865   8.196   9.693  11.513  1.1378  0.3915  0.9466
  637MOL0     C85866   8.309   9.631  11.547  0.4795  0.5948 -0.0781
  637MOL0     C85867   8.319   9.486  11.535  0.5720 -0.4642 -1.0142
  637MOL0     O85868   8.436   9.435  11.576 -0.0895 -0.3922  0.4322
  637MOL0     C85869   8.457   9.301  11.588  0.6267  0.1729 -0.7631
  637MOL0     C85870   8.585   9.272  11.665 -0.0464  0.2916  0.0762
  637MOL0     C85871   8.718   9.276  11.574  0.1731  0.7312 -1.2248
  637MOL0     C85872   8.845   9.225  11.645 -0.7994  1.0254 -0.6997
  637MOL0     C85873   8.833   9.070  11.647 -0.1585  0.6744 -0.0050
  637MOL0     C85874   8.965   8.991  11.696 -1.6818 -0.3279 -0.2082
  637MOL0     C85875   9.084   8.983  11.590 -0.0247  0.1896 -0.0430
  637MOL0     C85876   9.072   8.851  11.501  0.1070 -0.5315 -0.6651
  637MOL0     N85877   9.053   8.734  11.586 -0.1589  0.1621 -1.0911
  637MOL0     C85878   9.162   8.689  11.673 -0.1962  0.2418  0.5092
  637MOL0     C85879   9.110   8.570  11.729  0.1630 -1.0301 -0.0308
  637MOL0     C85880   9.160   8.477  11.832  0.2239 -0.7405 -0.4758
  637MOL0     C85881   9.171   8.331  11.780 -0.3497 -0.7549  0.2072
  637MOL0     C85882   9.286   8.298  11.677  0.0625 -0.5402  0.8970
  637MOL0     C85883   9.428   8.329  11.724 -0.4457 -0.3185  0.6051
  637MOL0     O85884   9.530   8.263  11.642  0.4082 -0.8688  0.1626
  637MOL0     C85885   9.665   8.295  11.674  0.0013 -0.1170 -0.2417
  637MOL0     C85886   9.756   8.222  11.607 -0.4163  0.3108 -0.0303
  637MOL0     C85887   9.893   8.224  11.631  0.4883 -0.1077  1.1798
  637MOL0     C85888   9.936   8.316  11.736  0.1193 -0.7772  0.1183
  637MOL0     C85889  10.071   8.306  11.781 -0.0203  0.0813 -0.2540
  637MOL0     O85890  10.169   8.244  11.696  0.5585 -0.3314 -0.0225
  637MOL0     C85891  10.297   8.262  11.724 -0.8974  0.1756 -0.3151
  637MOL0     C85892  10.369   8.148  11.755 -0.3465  0.3335  0.0667
  637MOL0     C85893  10.504   8.159  11.809  0.5103  0.7499  0.4974
  637MOL0     C85894  10.572   8.282  11.823 -0.0041 -0.1694  0.6414
  637MOL0     O85895  10.703   8.282  11.863 -0.0440  0.1770  0.1137
  637MOL0     C85896  10.776   8.409  11.838  1.1754 -0.1231  0.0776
  637MOL0     C85897  10.921   8.395  11.870 -0.2980  0.7161  0.8445
  637MOL0     C85898  11.001   8.492  11.784 -0.4381 -1.0993  0.4925
  637MOL0     C85899  11.155   8.500  11.815  0.7629 -0.2647 -0.3079
  637MOL0     C85900  11.210   8.633  11.766 -0.3730 -0.2727 -0.2358
  637MOL0     C85901  11.356   8.658  11.820 -0.2341  0.4824 -0.3691
  637MOL0     C85902  11.397   8.801  11.825 -0.2157  1.4808  0.0610
  637MOL0     C85903  11.335   8.897  11.917 -0.2110 -0.6963 -0.8376
  637MOL0    Cl85904  11.314   8.819  12.087  0.4566  0.2038  0.4708
  637MOL0     C85905  10.500   8.395  11.771 -0.2132 -0.3521 -0.1256
  637MOL0     C85906  10.367   8.385  11.726  0.0731 -0.6146  0.5013
  637MOL0     O85907  10.092   8.347  11.899 -0.4455 -0.0906  0.2383
  637MOL0     C85908   9.849   8.394  11.802 -0.1064 -0.6530 -0.2137
  637MOL0     C85909   9.716   8.384  11.772 -0.0190  0.7202 -0.7075
  637MOL0     N85910   8.978   8.560  11.693  0.5448 -0.0746 -1.2296
  637MOL0     N85911   8.949   8.642  11.593 -0.7185 -0.1430 -0.5061
  637MOL0     C85912   8.207   9.410  11.492  0.3427 -0.5002  1.4702
  637MOL0     C85913   8.095   9.479  11.455  0.3453 -0.3053 -0.2093
  637MOL0     C85914   7.735   9.704  11.360 -0.5364  0.6113  0.3892
  637MOL0     C85915   7.629   9.615  11.362  0.2853  0.1142 -0.6890
  637MOL0     C85916   7.496   9.658  11.384  0.0062  0.9119  0.4346
  637MOL0     C85917   7.468   9.786  11.396 -0.5963  0.7334 -0.1609
  637MOL0     O85918   7.337   9.825  11.418 -1.4477  0.8970 -0.2868
  637MOL0     C85919   7.279   9.958  11.401 -0.4690  0.7015 -0.9652
  637MOL0     C85920   7.133   9.943  11.360 -0.4978  0.3145 -0.1187
  637MOL0     C85921   7.056   9.871  11.477 -0.1364 -0.3534  0.6414
  637MOL0     C85922   6.912   9.914  11.470  0.2496 -0.6405  0.2029
  637MOL0     C85923   6.830   9.878  11.596  1.0610 -0.3491 -0.3362
  637MOL0     C85924   6.743   9.865  11.684  0.6010  0.7556  0.6156
  637MOL0     C85925   7.573   9.873  11.400  0.6622  0.2376 -0.2708
  637MOL0     C85926   7.708   9.837  11.379  0.2223 -0.9248 -0.5168
  637MOL0     C85927   7.814   9.948  11.383  0.0313  0.7554  0.1491
  637MOL0     H85928   8.206   9.799  11.532  0.5529  0.7191 -0.4149
  637MOL0     H85929   8.399   9.682  11.580 -0.6116  1.3712  1.8985
  637MOL0     H85930   8.379   9.259  11.652  1.9999 -0.2421  0.6765
  637MOL0     H85931   8.461   9.246  11.493  3.7886 -0.7490 -0.1992
  637MOL0     H85932   8.583   9.182  11.727 -0.4318  2.4689  3.5158
  637MOL0     H85933   8.603   9.350  11.740  1.1205  0.9379 -0.8435
  637MOL0     H85934   8.733   9.379  11.542 -0.9691  0.2757 -3.5224
  637MOL0     H85935   8.699   9.214  11.485 -0.8665 -0.4787 -0.1981
  637MOL0     H85936   8.933   9.258  11.589  0.1662 -2.4689 -1.4524
  637MOL0     H85937   8.865   9.271  11.743 -0.7481  0.3612 -0.3922
  637MOL0     H85938   8.756   9.054  11.722  0.2878 -0.4704  0.2182
  637MOL0     H85939   8.801   9.026  11.553  0.4849 -1.0942  0.5647
  637MOL0     H85940   8.994   9.046  11.786  1.6088 -0.5698 -0.9673
  637MOL0     H85941   8.938   8.891  11.732 -0.7802 -0.2496  0.7458
  637MOL0     H85942   9.182   8.989  11.638 -0.0536 -1.3587  0.2756
  637MOL0     H85943   9.071   9.069  11.524  0.7292  1.3014  1.2190
  637MOL0     H85944   8.982   8.858  11.438 -0.4737 -1.8678 -0.0266
  637MOL0     H85945   9.155   8.839  11.430 -0.9978  2.1447 -2.5812
  637MOL0     H85946   9.253   8.743  11.694  0.3268 -0.1973 -0.5393
  637MOL0     H85947   9.262   8.506  11.857  0.6955  1.5529 -4.3726
  637MOL0     H85948   9.082   8.477  11.910 -2.1262  2.8660 -2.5240
  637MOL0     H85949   9.175   8.264  11.866 -2.9579 -0.9509  0.2394
  637MOL0     H85950   9.076   8.304  11.732 -0.3766  2.6638 -2.0274
  637MOL0     H85951   9.281   8.358  11.585 -0.1546  1.0468  1.9006
  637MOL0     H85952   9.273   8.198  11.636  0.2235 -0.0120 -0.4951
  637MOL0     H85953   9.434   8.311  11.832 -0.4918  1.1177  0.8664
  637MOL0     H85954   9.445   8.436  11.710 -0.8714 -0.4375 -0.9182
  637MOL0     H85955   9.722   8.157  11.527 -1.7854  0.2545  0.5711
  637MOL0     H85956   9.956   8.166  11.564 -0.5216 -1.6726  1.5345
  637MOL0     H85957  10.330   8.047  11.763 -0.4024  0.4256  1.0746
  637MOL0     H85958  10.534   8.061  11.844  0.0078  0.4109 -0.0038
  637MOL0     H85959  10.771   8.449  11.736  0.3587  2.3443  1.0131
  637MOL0     H85960  10.728   8.485  11.900 -0.2910  0.4175 -1.6294
  637MOL0     H85961  10.924   8.428  11.975  0.7617 -2.7741  2.0338
  637MOL0     H85962  10.963   8.297  11.847  1.5351  2.1503 -2.7084
  637MOL0     H85963  10.987   8.472  11.678 -1.5962 -0.7191  0.5611
  637MOL0     H85964  10.959   8.589  11.810  2.2144  0.4519 -0.5489
  637MOL0     H85965  11.206   8.414  11.772 -0.4982 -1.0926 -0.1833
  637MOL0     H85966  11.164   8.484  11.923 -2.0797 -2.3590 -0.2609
  637MOL0     H85967  11.145   8.708  11.811 -1.4987 -0.2711 -1.8028
  637MOL0     H85968  11.204   8.641  11.657 -1.1945 -2.4122 -0.4048
  637MOL0     H85969  11.369   8.619  11.921 -1.2403 -0.0076 -0.4176
  637MOL0     H85970  11.417   8.598  11.752 -0.7038  0.7598 -1.0485
  637MOL0     H85971  11.378   8.839  11.724 -0.5183 -1.4474 -1.0853
  637MOL0     H85972  11.502   8.807  11.853 -0.4909  2.0344  1.0265
  637MOL0     H85973  11.388   8.991  11.934 -1.8671 -0.3325  3.2318
  637MOL0     H85974  11.235   8.910  11.876 -1.9947 -1.6861  2.8422
  637MOL0     H85975  10.534   8.498  11.782  0.1555 -0.5195  0.3742
  637MOL0     H85976  10.317   8.476  11.696  3.0536  0.4978 -1.5889
  637MOL0     H85977   9.876   8.463  11.881  2.2814  0.5115 -1.9140
  637MOL0     H85978   9.642   8.435  11.833 -0.1554  0.7496 -0.8947
  637MOL0     H85979   8.214   9.302  11.482  1.8622 -0.2337 -1.2226
  637MOL0     H85980   8.003   9.427  11.433  0.0057 -0.2492  1.0153
  637MOL0     H85981   7.644   9.508  11.347  2.5513  0.0207  1.4932
  637MOL0     H85982   7.411   9.592  11.400 -1.6395  2.7106 -0.5065
  637MOL0     H85983   7.335  10.021  11.331  1.5829 -1.6464 -1.5740
  637MOL0     H85984   7.282  10.004  11.500  2.2334  0.2246 -0.7754
  637MOL0     H85985   7.115   9.881  11.271  0.4982 -2.6477  1.5845
  637MOL0     H85986   7.087  10.040  11.342 -0.9917  0.7839  3.0655
  637MOL0     H85987   7.103   9.899  11.571 -2.7838 -0.4272  2.0725
  637MOL0     H85988   7.059   9.765  11.453  1.1935 -0.2195  0.0893
  637MOL0     H85989   6.912  10.023  11.460  0.4697 -0.7192 -0.7861
  637MOL0     H85990   6.864   9.881  11.377  0.6522 -2.7273  0.6835
  637MOL0     H85991   6.695   9.867  11.780 -1.5221 -3.0754 -0.1691
  637MOL0     H85992   7.538   9.976  11.407 -2.2946 -0.7533  1.7983
  637MOL0     H85993   7.776  10.045  11.416  1.2370  1.2564  0.1268
  637MOL0     H85994   7.888   9.917  11.457 -0.7171  1.2191  1.1219
  637MOL0     H85995   7.868   9.974  11.292  3.1472 -0.5362  1.4798
  638MOL0     O85996   0.158   4.664   0.776 -0.5326 -0.7096 -0.9018
  638MOL0     C85997   0.058   4.698   0.840  0.3762 -0.2877 -0.0875
  638MOL0     O85998   0.055   4.762   0.961 -0.2220 -0.1380  0.1288
  638MOL0     C85999   0.172   4.829   1.008 -1.5873 -0.0024  0.0027
  638MOL0     C86000   0.209   4.833   1.145  0.0268 -0.2071 -0.3125
  638MOL0     C86001   0.339   4.889   1.192  0.5328  0.4307 -0.1963
  638MOL0     C86002   0.426   4.940   1.098  0.3014 -0.0505 -0.5040
  638MOL0     O86003   0.546   5.005   1.140 -0.5780  0.2195  0.1389
  638MOL0     C86004   0.664   4.983   1.054  0.0873  0.7794 -0.7010
  638MOL0     C86005   0.789   5.059   1.082 -0.1726  0.3803  0.3997
  638MOL0     C86006   0.754   5.213   1.089 -0.2457  0.8053 -0.3534
  638MOL0     C86007   0.871   5.296   1.136 -0.7463  0.2399  0.2348
  638MOL0     C86008   0.846   5.444   1.087  0.0115  0.8004  0.1343
  638MOL0     C86009   0.956   5.524   1.152 -0.3142 -0.3508  0.6008
  638MOL0     C86010   0.925   5.669   1.159  0.7042  0.3025  0.3572
  638MOL0     C86011   1.041   5.767   1.189  0.2312  0.4151 -0.0791
  638MOL0     N86012   1.109   5.726   1.316 -0.4423  0.2433  0.8499
  638MOL0     C86013   1.246   5.714   1.323  1.1872  0.5080  0.8204
  638MOL0     C86014   1.268   5.688   1.451  0.7299 -0.1468 -0.5144
  638MOL0     C86015   1.406   5.644   1.487 -0.3102  0.2451  0.0441
  638MOL0     C86016   1.417   5.553   1.602  0.1541  0.1127 -0.4215
  638MOL0     C86017   1.560   5.484   1.608 -0.0091  0.4417  0.1559
  638MOL0     C86018   1.682   5.567   1.634  0.8308  0.1834 -0.1499
  638MOL0     O86019   1.702   5.580   1.770  0.5190  0.0507 -0.3455
  638MOL0     C86020   1.765   5.698   1.804  0.5829 -0.2492 -0.3914
  638MOL0     C86021   1.772   5.722   1.947  1.1822 -1.1657 -0.4504
  638MOL0     C86022   1.829   5.834   1.995  0.0607 -0.1832 -0.2081
  638MOL0     C86023   1.889   5.929   1.907  0.0532  0.6713 -0.0526
  638MOL0     C86024   1.931   6.063   1.961  0.1374 -0.7777  0.7006
  638MOL0     O86025   1.960   6.162   1.871 -0.0851 -0.2916  0.3253
  638MOL0     C86026   2.010   6.283   1.914 -1.0342 -0.1480  0.8480
  638MOL0     C86027   1.938   6.400   1.939  0.0963 -0.5592  0.5795
  638MOL0     C86028   2.012   6.521   1.960  0.4629 -1.1397 -0.7978
  638MOL0     C86029   2.150   6.514   1.976  0.1576  0.2277  0.7058
  638MOL0     O86030   2.227   6.621   1.973 -0.1645 -0.2334 -0.2878
  638MOL0     C86031   2.178   6.751   1.931 -0.4711 -0.2680  0.5020
  638MOL0     C86032   2.304   6.835   1.952 -0.1358 -1.2041  0.0178
  638MOL0     C86033   2.289   6.977   1.907 -0.6650  0.6848 -0.2370
  638MOL0     C86034   2.255   7.001   1.757  0.5124 -0.4029 -0.0448
  638MOL0     C86035   2.375   7.015   1.677 -0.2885  0.3842  0.1713
  638MOL0     C86036   2.337   7.037   1.530  0.1220  1.0443 -0.2505
  638MOL0     C86037   2.455   7.032   1.438  0.4481 -0.5326 -0.2687
  638MOL0     C86038   2.418   7.055   1.291 -0.8554 -0.3805 -0.8510
  638MOL0    Cl86039   2.566   6.993   1.203  0.5499  0.1168  0.5907
  638MOL0     C86040   2.219   6.392   1.964 -0.3551  0.1472 -0.8620
  638MOL0     C86041   2.149   6.278   1.929  0.8251 -0.1128 -0.3910
  638MOL0     O86042   1.926   6.084   2.082  0.4907  0.0485  0.0648
  638MOL0     C86043   1.907   5.900   1.773 -0.0064  0.7730  0.0280
  638MOL0     C86044   1.842   5.790   1.723 -0.5025 -0.4909 -0.0419
  638MOL0     N86045   1.144   5.668   1.520  0.2354 -0.4509 -0.2456
  638MOL0     N86046   1.052   5.710   1.445  0.0656 -0.4252  0.3749
  638MOL0     C86047   0.386   4.950   0.962  0.0569  0.6994  0.1209
  638MOL0     C86048   0.271   4.877   0.922  0.1354  0.6777  0.5809
  638MOL0     C86049  -0.069   4.701   0.763 -0.3680 -0.3610  0.0371
  638MOL0     C86050  -0.162   4.799   0.797  0.9195  0.7537 -0.9104
  638MOL0     C86051  -0.293   4.808   0.752  0.1220  0.1957  0.3219
  638MOL0     C86052  -0.340   4.707   0.671  0.2808 -0.2175 -0.3638
  638MOL0     O86053  -0.478   4.706   0.644  0.5446 -0.2563 -0.0760
  638MOL0     C86054  -0.535   4.662   0.522 -0.7731  0.1509 -0.2049
  638MOL0     C86055  -0.487   4.745   0.401 -0.4130 -0.1676  0.0497
  638MOL0     C86056  -0.564   4.884   0.378  0.0800  0.4171 -1.2483
  638MOL0     C86057  -0.533   4.934   0.233  0.5464 -0.6253 -0.2118
  638MOL0     C86058  -0.572   5.077   0.214 -0.6921 -0.0230 -0.7699
  638MOL0     C86059  -0.612   5.190   0.190 -0.7005 -0.5501  0.5079
  638MOL0     C86060  -0.257   4.606   0.626  0.1306  0.2998  0.1747
  638MOL0     C86061  -0.120   4.602   0.673 -0.7506 -0.7291  0.1903
  638MOL0     C86062  -0.034   4.492   0.635  0.9020  0.5891  0.8026
  638MOL0     H86063   0.133   4.790   1.209  1.6308 -1.0506  1.1131
  638MOL0     H86064   0.363   4.874   1.297  0.9054  2.6463  0.0690
  638MOL0     H86065   0.693   4.878   1.043  2.8000  1.3177  0.4221
  638MOL0     H86066   0.630   5.020   0.957 -0.9711  0.3515 -0.5125
  638MOL0     H86067   0.854   5.037   0.997  1.6225  1.5856  1.4235
  638MOL0     H86068   0.846   5.017   1.165  4.0570 -1.6628 -3.1448
  638MOL0     H86069   0.668   5.245   1.148 -0.2180  1.6751 -0.7671
  638MOL0     H86070   0.742   5.241   0.984  3.6173  3.0948 -0.3908
  638MOL0     H86071   0.890   5.293   1.243 -1.6892 -0.9322  0.3855
  638MOL0     H86072   0.961   5.252   1.090  0.0648  0.2111  1.7853
  638MOL0     H86073   0.843   5.458   0.978  0.6130  0.5868  0.0878
  638MOL0     H86074   0.751   5.487   1.121  1.3067 -0.2702  6.2473
  638MOL0     H86075   0.967   5.491   1.256  3.6740 -1.9048 -0.1488
  638MOL0     H86076   1.050   5.504   1.100  0.1455  2.4219  0.2210
  638MOL0     H86077   0.845   5.670   1.234  0.4086  0.9979  0.0386
  638MOL0     H86078   0.894   5.708   1.062  2.6184  1.0244 -0.0178
  638MOL0     H86079   1.112   5.768   1.106 -2.1672  1.9290 -2.2853
  638MOL0     H86080   0.985   5.861   1.191 -3.3139 -1.4890 -1.0404
  638MOL0     H86081   1.328   5.729   1.253  0.6385  1.7212  0.4062
  638MOL0     H86082   1.440   5.591   1.397 -2.5166 -1.3331  0.0427
  638MOL0     H86083   1.477   5.726   1.499 -0.3235  0.0961  1.2020
  638MOL0     H86084   1.393   5.595   1.700 -3.3745 -0.7080 -0.8119
  638MOL0     H86085   1.350   5.469   1.586  1.5879 -1.0799 -0.4257
  638MOL0     H86086   1.585   5.430   1.516 -2.3889  1.9427 -1.5074
  638MOL0     H86087   1.553   5.407   1.685  0.0328 -0.6681 -0.9145
  638MOL0     H86088   1.667   5.665   1.586 -2.8347 -0.4603 -0.6010
  638MOL0     H86089   1.771   5.524   1.588  0.0857 -1.6373  0.0506
  638MOL0     H86090   1.718   5.658   2.017  0.1009 -0.0338 -0.2292
  638MOL0     H86091   1.842   5.843   2.103  0.6724  1.2610 -0.3735
  638MOL0     H86092   1.830   6.395   1.946  0.1989 -1.3749  2.1158
  638MOL0     H86093   1.958   6.614   1.974  0.4865 -1.3764  1.2477
  638MOL0     H86094   2.148   6.752   1.825  2.7236 -1.5717 -0.5537
  638MOL0     H86095   2.092   6.785   1.988 -0.7169  0.2286 -0.1511
  638MOL0     H86096   2.319   6.830   2.060  1.6024 -0.6393 -0.1781
  638MOL0     H86097   2.388   6.786   1.902  0.4355 -1.3055  1.0551
  638MOL0     H86098   2.211   7.026   1.966  1.4253  4.0975 -0.0471
  638MOL0     H86099   2.384   7.028   1.925 -0.3437  0.9310 -2.3799
  638MOL0     H86100   2.199   7.096   1.759 -0.4013 -0.9383  1.0795
  638MOL0     H86101   2.189   6.923   1.720 -0.4750  0.3801  0.0110
  638MOL0     H86102   2.442   6.930   1.690  1.7781  1.9764  0.4405
  638MOL0     H86103   2.431   7.100   1.717  0.2265 -0.1670  0.6486
  638MOL0     H86104   2.255   6.969   1.506  0.1190  1.4979 -1.6129
  638MOL0     H86105   2.308   7.142   1.527  1.7989  1.5586  0.1852
  638MOL0     H86106   2.491   6.930   1.455 -0.7038 -0.8264  0.5438
  638MOL0     H86107   2.525   7.110   1.468 -2.3558  1.7435  0.7830
  638MOL0     H86108   2.335   6.995   1.252 -1.8792  0.7781 -0.5181
  638MOL0     H86109   2.408   7.162   1.270 -1.0081 -0.5736 -1.8042
  638MOL0     H86110   2.326   6.388   1.979 -0.1222  0.7357 -2.2851
  638MOL0     H86111   2.196   6.185   1.898  0.4220 -0.2360 -0.6448
  638MOL0     H86112   1.938   5.973   1.698 -1.7265  0.8453 -0.6712
  638MOL0     H86113   1.834   5.775   1.616  0.9467  3.2838 -0.8607
  638MOL0     H86114   0.445   5.001   0.887  0.5005  0.1875  0.1150
  638MOL0     H86115   0.258   4.876   0.815  1.8116 -0.1825  0.3554
  638MOL0     H86116  -0.136   4.874   0.871 -0.6123 -0.2054  0.6668
  638MOL0     H86117  -0.360   4.878   0.800  0.2231  0.2635  0.3666
  638MOL0     H86118  -0.643   4.669   0.535 -1.0008 -3.4803  0.8831
  638MOL0     H86119  -0.519   4.554   0.514 -0.4874 -0.2605  3.7526
  638MOL0     H86120  -0.494   4.678   0.315  0.1030 -1.0975  0.7224
  638MOL0     H86121  -0.380   4.768   0.403 -0.6096  1.0897 -1.3700
  638MOL0     H86122  -0.529   4.955   0.453  1.5347 -0.0888 -1.4034
  638MOL0     H86123  -0.672   4.871   0.379 -0.0208  1.1506 -1.6065
  638MOL0     H86124  -0.427   4.938   0.208  0.7157  4.3226  0.2656
  638MOL0     H86125  -0.578   4.868   0.159 -1.9162  0.9430 -0.2291
  638MOL0     H86126  -0.674   5.266   0.147 -0.9234 -1.4047 -0.7300
  638MOL0     H86127  -0.291   4.528   0.559  2.9429 -0.1742 -0.8420
  638MOL0     H86128  -0.084   4.428   0.562  4.1725  0.6046 -1.6836
  638MOL0     H86129   0.058   4.533   0.593 -1.0359  3.3251 -1.0942
  638MOL0     H86130  -0.006   4.424   0.716 -3.1259  0.6869  2.5130
  639MOL0     O86131   6.848   1.800   1.092  0.2140 -0.2358 -0.3731
  639MOL0     C86132   6.757   1.765   1.017 -0.4232  0.3195 -0.1857
  639MOL0     O86133   6.774   1.723   0.887 -0.8862 -1.0290 -0.2992
  639MOL0     C86134   6.891   1.652   0.848 -0.1384 -0.1754  0.0603
  639MOL0     C86135   7.008   1.726   0.839 -0.6263  0.0662  0.7893
  639MOL0     C86136   7.124   1.662   0.791 -0.0031 -0.0211 -0.1185
  639MOL0     C86137   7.117   1.529   0.756  0.0697  0.7712  0.5258
  639MOL0     O86138   7.223   1.466   0.698  0.9695  0.1382 -0.4428
  639MOL0     C86139   7.281   1.381   0.792 -0.3338  0.5499 -0.1173
  639MOL0     C86140   7.367   1.274   0.717  0.1084 -0.2227 -0.3571
  639MOL0     C86141   7.285   1.196   0.615 -0.4861  0.2331  0.5801
  639MOL0     C86142   7.173   1.116   0.688  0.2575 -0.0385 -0.7058
  639MOL0     C86143   7.092   1.053   0.586  0.8793 -1.1876  0.3657
  639MOL0     C86144   6.972   0.972   0.656 -0.1557 -0.5965  0.2648
  639MOL0     C86145   7.004   0.833   0.713 -0.0169  0.4978 -0.4737
  639MOL0     C86146   6.881   0.767   0.791 -0.9450  0.6507 -0.4489
  639MOL0     N86147   6.883   0.801   0.933  0.5771  0.2335 -0.1813
  639MOL0     C86148   6.958   0.744   1.027 -0.8321 -0.3092  0.3423
  639MOL0     C86149   6.921   0.811   1.141 -0.1542  0.2093  0.2799
  639MOL0     C86150   6.987   0.786   1.281 -0.2515  1.1225  0.4196
  639MOL0     C86151   7.097   0.882   1.308  1.7612 -0.3262  0.3159
  639MOL0     C86152   7.161   0.851   1.443  0.2981  1.0531  0.9819
  639MOL0     C86153   7.259   0.961   1.496 -0.2722 -0.3211  0.1972
  639MOL0     O86154   7.170   1.076   1.513 -0.7647 -0.3089  0.6735
  639MOL0     C86155   7.207   1.175   1.601 -0.3163  0.2118  0.1093
  639MOL0     C86156   7.109   1.242   1.674  1.0879  0.5624  0.0851
  639MOL0     C86157   7.140   1.348   1.768 -1.2752 -0.5405  0.2162
  639MOL0     C86158   7.275   1.373   1.797 -0.3624 -0.3640 -0.2725
  639MOL0     C86159   7.315   1.481   1.889 -0.2690  0.1043 -0.4579
  639MOL0     O86160   7.213   1.567   1.925  0.1034  0.2027 -0.0143
  639MOL0     C86161   7.254   1.670   2.004  0.5287  1.2742  0.3933
  639MOL0     C86162   7.299   1.785   1.944 -0.2698 -0.2644  0.3254
  639MOL0     C86163   7.322   1.893   2.024  0.5866  0.1293  0.2052
  639MOL0     C86164   7.323   1.887   2.163 -0.1489 -0.8031  0.3397
  639MOL0     O86165   7.335   2.009   2.216  0.1093  0.7677 -0.5432
  639MOL0     C86166   7.253   2.025   2.334 -0.6833 -0.1591  0.6225
  639MOL0     C86167   7.221   2.176   2.358  0.4194  0.2184  1.2084
  639MOL0     C86168   7.150   2.191   2.487  0.3952  0.2326  0.1187
  639MOL0     C86169   7.120   2.337   2.510  0.1771  0.0775 -0.0195
  639MOL0     C86170   7.083   2.358   2.660 -0.1475  0.1368  0.4966
  639MOL0     C86171   6.933   2.372   2.668 -0.8514  0.1809 -0.3732
  639MOL0     C86172   6.885   2.402   2.805  0.6497 -0.6716 -0.5495
  639MOL0     C86173   6.735   2.359   2.811  0.7799  0.5742  0.2762
  639MOL0    Cl86174   6.714   2.184   2.799  0.3939 -0.2694  0.2077
  639MOL0     C86175   7.288   1.769   2.223  0.0635  0.5919 -1.4797
  639MOL0     C86176   7.239   1.663   2.149 -0.8246  0.5657 -0.1659
  639MOL0     O86177   7.429   1.478   1.933 -0.2768  0.0603  0.5692
  639MOL0     C86178   7.369   1.296   1.733 -0.0690  0.3133 -0.7943
  639MOL0     C86179   7.339   1.200   1.644 -1.3202 -0.3630  0.7071
  639MOL0     N86180   6.822   0.900   1.112  0.5083 -0.1456  0.1539
  639MOL0     N86181   6.788   0.878   0.994  0.1962  0.4798  0.2761
  639MOL0     C86182   6.993   1.461   0.754 -0.2490  0.4018 -0.3635
  639MOL0     C86183   6.881   1.518   0.805 -0.2258 -0.0931  0.0674
  639MOL0     C86184   6.610   1.771   1.057 -0.7154  0.5300  0.0975
  639MOL0     C86185   6.506   1.772   0.960 -1.1575  0.7511  0.2181
  639MOL0     C86186   6.375   1.774   0.979  0.7091  0.8524  0.1823
  639MOL0     C86187   6.328   1.782   1.108  0.1521  0.3577 -0.1939
  639MOL0     O86188   6.192   1.792   1.148 -0.5571 -0.9050 -0.2669
  639MOL0     C86189   6.107   1.851   1.053  0.3742  0.1025 -0.0777
  639MOL0     C86190   5.966   1.853   1.102 -0.3276  0.1223 -0.3596
  639MOL0     C86191   5.915   1.708   1.058  0.4359  0.1537 -0.6576
  639MOL0     C86192   5.802   1.667   1.149 -0.0137  0.1750 -0.1641
  639MOL0     C86193   5.787   1.522   1.115 -0.6093 -0.0074 -0.2047
  639MOL0     C86194   5.758   1.409   1.080 -0.5344  0.4086  0.1069
  639MOL0     C86195   6.423   1.765   1.217 -0.5034  0.7367 -0.5020
  639MOL0     C86196   6.563   1.759   1.194 -0.0174 -0.2903  0.2719
  639MOL0     C86197   6.659   1.745   1.313 -0.7329  0.0745  1.4009
  639MOL0     H86198   7.019   1.831   0.865  4.2512  0.3320 -1.2020
  639MOL0     H86199   7.211   1.726   0.783 -0.7899  1.1278  0.1859
  639MOL0     H86200   7.352   1.439   0.851  2.7059 -1.6312 -1.4122
  639MOL0     H86201   7.209   1.330   0.857 -0.1606  0.7231  0.2067
  639MOL0     H86202   7.410   1.204   0.789  1.5828 -0.8026 -1.7416
  639MOL0     H86203   7.452   1.326   0.672 -0.5209  2.3864  1.2594
  639MOL0     H86204   7.350   1.126   0.562  0.1047  0.3620  1.1158
  639MOL0     H86205   7.253   1.261   0.533 -0.8466 -1.2490 -0.4802
  639MOL0     H86206   7.223   1.043   0.752  0.2145 -2.8114 -3.5642
  639MOL0     H86207   7.109   1.169   0.758  0.2201  0.3790 -1.0523
  639MOL0     H86208   7.055   1.126   0.513  1.2581 -1.0002  0.3574
  639MOL0     H86209   7.154   0.979   0.535  1.8567  1.0122 -1.8099
  639MOL0     H86210   6.925   1.041   0.726 -2.1486 -2.0146  0.4016
  639MOL0     H86211   6.891   0.964   0.583  0.7797  1.8093 -1.1615
  639MOL0     H86212   7.095   0.838   0.774 -1.5051 -1.3557  2.1119
  639MOL0     H86213   7.038   0.765   0.634 -0.4504  0.0888 -0.3103
  639MOL0     H86214   6.785   0.806   0.756 -0.0035  3.6287  0.0289
  639MOL0     H86215   6.878   0.658   0.779 -1.2282  0.3055  2.1651
  639MOL0     H86216   7.038   0.673   1.007  0.3578  1.5743 -2.1630
  639MOL0     H86217   6.913   0.793   1.362 -0.0709  0.3348  0.6598
  639MOL0     H86218   7.037   0.689   1.278 -0.7897  0.8459  0.2294
  639MOL0     H86219   7.167   0.854   1.228  0.3002  0.9694 -1.4888
  639MOL0     H86220   7.050   0.980   1.306 -0.1418 -1.1778  0.8365
  639MOL0     H86221   7.217   0.759   1.425 -0.2711  0.5070  1.9116
  639MOL0     H86222   7.082   0.819   1.512 -1.1693 -0.7994 -1.3934
  639MOL0     H86223   7.340   0.981   1.425 -0.6707 -2.3146 -0.8981
  639MOL0     H86224   7.301   0.937   1.594 -1.5944  1.6820  1.3271
  639MOL0     H86225   7.003   1.221   1.669  0.9356  1.5694 -1.2091
  639MOL0     H86226   7.065   1.400   1.826 -0.1854  1.2289  0.1192
  639MOL0     H86227   7.299   1.780   1.836  4.7279  3.0399 -0.1398
  639MOL0     H86228   7.327   1.990   1.975 -0.9681  0.3221  0.3785
  639MOL0     H86229   7.158   1.971   2.341 -1.6178  1.2881 -0.3073
  639MOL0     H86230   7.305   1.993   2.425 -1.3572  2.2034  1.9292
  639MOL0     H86231   7.311   2.237   2.360  2.2745 -2.2807 -0.4560
  639MOL0     H86232   7.159   2.217   2.277 -0.1995 -0.2318  1.4408
  639MOL0     H86233   7.055   2.137   2.492 -0.9722  2.4078 -1.0572
  639MOL0     H86234   7.213   2.151   2.567 -0.6793 -1.9686 -0.0495
  639MOL0     H86235   7.040   2.371   2.443 -1.2730  0.0619  1.6082
  639MOL0     H86236   7.220   2.377   2.491 -1.1232  3.7331 -0.0598
  639MOL0     H86237   7.117   2.457   2.690  1.0690 -0.3551  0.7917
  639MOL0     H86238   7.115   2.279   2.729 -1.6914 -1.0056 -0.0216
  639MOL0     H86239   6.897   2.451   2.603 -1.6136  0.3354  0.2248
  639MOL0     H86240   6.885   2.281   2.630  0.5525 -0.5051 -0.5882
  639MOL0     H86241   6.899   2.508   2.829  1.3010 -0.6832 -0.8646
  639MOL0     H86242   6.942   2.341   2.876  1.9786 -0.0268 -1.0315
  639MOL0     H86243   6.690   2.388   2.907 -3.6205 -4.2286  0.1468
  639MOL0     H86244   6.668   2.405   2.737  2.0530  0.1925 -1.1713
  639MOL0     H86245   7.282   1.760   2.331 -2.6654  1.3139 -1.4999
  639MOL0     H86246   7.205   1.570   2.192  1.4170  0.3589  1.3258
  639MOL0     H86247   7.474   1.325   1.739 -1.1460  4.6205  2.0952
  639MOL0     H86248   7.425   1.142   1.609  0.1862  2.5200 -0.8212
  639MOL0     H86249   6.992   1.357   0.725 -0.3988  0.6914 -1.4421
  639MOL0     H86250   6.785   1.466   0.814 -0.3330  0.1954  0.6670
  639MOL0     H86251   6.550   1.780   0.861 -4.2189 -0.5501 -1.3631
  639MOL0     H86252   6.305   1.787   0.897 -0.1050 -3.6384 -0.0923
  639MOL0     H86253   6.109   1.791   0.961 -4.6987  0.6609 -0.8319
  639MOL0     H86254   6.152   1.946   1.022 -0.0705 -0.5528 -3.0176
  639MOL0     H86255   5.922   1.925   1.032 -0.3098 -1.1931 -1.7611
  639MOL0     H86256   5.947   1.876   1.207 -2.3888 -1.0566 -0.4303
  639MOL0     H86257   5.999   1.639   1.069 -1.4144 -2.0263  0.5128
  639MOL0     H86258   5.882   1.704   0.954  1.0137 -3.6262 -0.8163
  639MOL0     H86259   5.832   1.683   1.253 -1.2722 -0.4314  0.3077
  639MOL0     H86260   5.710   1.720   1.124  0.7835  1.2972 -0.8012
  639MOL0     H86261   5.725   1.310   1.056  2.3654 -0.5945 -0.1130
  639MOL0     H86262   6.387   1.748   1.318  1.6590 -1.9368 -0.0450
  639MOL0     H86263   6.743   1.678   1.292 -0.0273  1.3038  0.0908
  639MOL0     H86264   6.702   1.838   1.351 -1.1089 -1.0886  5.0557
  639MOL0     H86265   6.600   1.701   1.394 -2.1661  1.2198  1.0234
  640MOL0     O86266  10.977   1.348   1.919 -0.2114  0.8935 -0.0937
  640MOL0     C86267  10.869   1.296   1.884  0.8013  0.6170  0.9457
  640MOL0     O86268  10.834   1.266   1.754  0.2967  0.3457  0.3655
  640MOL0     C86269  10.936   1.290   1.664  0.5254  0.6480 -0.5670
  640MOL0     C86270  10.996   1.412   1.627 -0.5009  0.0614 -0.1746
  640MOL0     C86271  11.096   1.418   1.534  0.1812 -0.6736  0.3181
  640MOL0     C86272  11.154   1.310   1.477 -0.3812 -0.5759 -0.2054
  640MOL0     O86273  11.243   1.324   1.372 -0.5563  0.8783  0.5314
  640MOL0     C86274  11.351   1.419   1.365  0.5506  0.1798  0.1881
  640MOL0     C86275  11.482   1.352   1.404  0.0602  0.4335 -0.1211
  640MOL0     C86276  11.580   1.451   1.462 -0.1703  0.4988 -0.3877
  640MOL0     C86277  11.723   1.394   1.475  0.1270  0.0469  0.4301
  640MOL0     C86278  11.734   1.278   1.581  0.5721 -0.1937  0.3603
  640MOL0     C86279  11.879   1.224   1.582 -0.2701  0.0869  0.0798
  640MOL0     C86280  11.878   1.108   1.685 -0.0250  0.4038 -0.4510
  640MOL0     C86281  12.023   1.069   1.737  0.6544 -0.2897  0.9493
  640MOL0     N86282  12.084   0.982   1.634  0.2940 -0.2256 -0.2250
  640MOL0     C86283  12.081   0.851   1.644 -0.1389  0.5447 -0.2026
  640MOL0     C86284  12.124   0.799   1.522  0.9762 -0.7243 -0.4216
  640MOL0     C86285  12.120   0.664   1.468 -0.1741  0.1214  0.0660
  640MOL0     C86286  12.237   0.591   1.528 -0.6968 -0.6721  0.1468
  640MOL0     C86287  12.230   0.444   1.490  0.0852 -0.1756 -1.7521
  640MOL0     C86288  12.359   0.375   1.555 -0.2519 -0.0505  0.0715
  640MOL0     O86289  12.470   0.405   1.474 -0.3161 -1.0154  0.8342
  640MOL0     C86290  12.593   0.371   1.518 -0.2208  0.7293  0.1449
  640MOL0     C86291  12.621   0.301   1.637  0.2849  0.1317  0.7942
  640MOL0     C86292  12.756   0.281   1.674 -0.2051  0.2452 -0.2930
  640MOL0     C86293  12.869   0.320   1.595 -0.0842 -0.0320 -0.9101
  640MOL0     C86294  13.006   0.317   1.656 -0.3138  0.8338  0.0989
  640MOL0     O86295  13.109   0.384   1.581  0.0586  0.0408 -0.0331
  640MOL0     C86296  13.237   0.396   1.632  0.4219 -0.3226  0.4053
  640MOL0     C86297  13.305   0.308   1.713 -0.5858 -0.7619 -0.7163
  640MOL0     C86298  13.434   0.333   1.767 -0.0506  0.5024  0.5756
  640MOL0     C86299  13.506   0.448   1.727  0.1378  1.0390  0.2158
  640MOL0     O86300  13.638   0.455   1.756  0.4576  0.4861  0.1558
  640MOL0     C86301  13.674   0.457   1.890  0.3780  0.1005  0.1387
  640MOL0     C86302  13.641   0.595   1.953  0.6804 -0.4379  0.5644
  640MOL0     C86303  13.724   0.713   1.894  0.0197  1.0421  0.1151
  640MOL0     C86304  13.679   0.848   1.955  0.1050 -0.4904  0.1199
  640MOL0     C86305  13.710   0.856   2.106 -0.0402  0.3953  0.8153
  640MOL0     C86306  13.709   1.006   2.143  0.2885  0.0655  0.7263
  640MOL0     C86307  13.748   1.048   2.285 -0.3752  0.1255 -0.9493
  640MOL0     C86308  13.679   0.972   2.403  0.4380 -0.0538  0.3838
  640MOL0    Cl86309  13.507   1.030   2.403  0.3246  0.2093  0.7411
  640MOL0     C86310  13.445   0.540   1.633  0.0643  0.7663 -0.2208
  640MOL0     C86311  13.313   0.510   1.597 -0.6717 -0.1945  0.3297
  640MOL0     O86312  13.026   0.250   1.761 -0.4920  0.0971 -0.4431
  640MOL0     C86313  12.834   0.382   1.476  0.6138  0.3033  0.6071
  640MOL0     C86314  12.699   0.404   1.435  0.4858  0.3488 -0.0678
  640MOL0     N86315  12.153   0.904   1.443  0.2959 -0.6640  0.3605
  640MOL0     N86316  12.131   1.008   1.505 -0.1120  0.1274 -0.3797
  640MOL0     C86317  11.092   1.190   1.504  0.0296  0.1452  0.1070
  640MOL0     C86318  10.988   1.183   1.595 -0.1199  0.5139 -0.6177
  640MOL0     C86319  10.766   1.260   1.986 -0.7033 -0.2134 -0.5842
  640MOL0     C86320  10.730   1.125   2.009  0.9047  0.3882 -0.9103
  640MOL0     C86321  10.636   1.085   2.108  0.1786 -0.1781  0.2304
  640MOL0     C86322  10.583   1.188   2.198  0.3688 -0.3028  0.8569
  640MOL0     O86323  10.467   1.141   2.267 -0.2991  0.0940 -0.5110
  640MOL0     C86324  10.384   1.249   2.326 -0.7828  0.0985  0.1682
  640MOL0     C86325  10.310   1.183   2.438  0.4022  0.3607 -1.6456
  640MOL0     C86326  10.237   1.277   2.539  0.1610 -0.5199 -0.0292
  640MOL0     C86327  10.114   1.353   2.476 -0.1427  0.0514  0.0895
  640MOL0     C86328  10.095   1.485   2.519  0.0064 -0.4316 -0.9388
  640MOL0     C86329  10.081   1.607   2.528  1.3686  1.0474 -0.0695
  640MOL0     C86330  10.636   1.318   2.182 -0.1535 -0.8503  0.9943
  640MOL0     C86331  10.720   1.359   2.078  0.0796  0.0441  0.7642
  640MOL0     C86332  10.762   1.508   2.079  0.2349  0.5840 -0.5043
  640MOL0     H86333  10.966   1.504   1.676  2.6022  0.7714  0.6251
  640MOL0     H86334  11.132   1.516   1.507  0.9485 -0.3034  2.4989
  640MOL0     H86335  11.355   1.462   1.265  1.5487 -0.4949 -0.0901
  640MOL0     H86336  11.331   1.504   1.432 -1.9171 -0.8684  0.8959
  640MOL0     H86337  11.525   1.294   1.322  0.9242  2.5079 -1.2009
  640MOL0     H86338  11.449   1.280   1.479 -1.2720 -0.9370 -1.9169
  640MOL0     H86339  11.534   1.471   1.559  1.9525  2.2950  0.3531
  640MOL0     H86340  11.586   1.541   1.400 -0.2079 -0.6163 -2.0841
  640MOL0     H86341  11.762   1.366   1.377  0.1731  3.3206 -0.5909
  640MOL0     H86342  11.786   1.473   1.517  2.0727 -1.8258  1.2426
  640MOL0     H86343  11.683   1.307   1.673 -0.0269 -3.4736  1.2180
  640MOL0     H86344  11.679   1.187   1.553 -1.2935  0.1535  2.5423
  640MOL0     H86345  11.916   1.192   1.485 -0.9128  1.6555 -0.7195
  640MOL0     H86346  11.942   1.308   1.615 -0.5190  0.7718 -1.1416
  640MOL0     H86347  11.816   1.026   1.648  0.8090 -1.1369  1.3306
  640MOL0     H86348  11.821   1.139   1.773  0.9094 -1.4376  0.8820
  640MOL0     H86349  12.089   1.155   1.747  2.2491 -0.8191 -3.1715
  640MOL0     H86350  12.017   1.008   1.827 -1.7361 -0.2545  0.8804
  640MOL0     H86351  12.057   0.789   1.730  0.0714  2.4803  1.3431
  640MOL0     H86352  12.029   0.611   1.496  1.2741 -0.4344  4.5827
  640MOL0     H86353  12.128   0.663   1.358  2.4851 -1.4442  0.1584
  640MOL0     H86354  12.326   0.632   1.479 -2.8457  3.0244 -1.0737
  640MOL0     H86355  12.240   0.614   1.635 -1.6292 -1.9064  0.4560
  640MOL0     H86356  12.239   0.435   1.382 -1.0368  2.5742 -2.1461
  640MOL0     H86357  12.134   0.402   1.521  0.0952  0.8375 -0.1995
  640MOL0     H86358  12.337   0.267   1.552 -0.7244  0.0616 -1.2625
  640MOL0     H86359  12.368   0.407   1.659 -0.4831  1.7227 -0.4280
  640MOL0     H86360  12.542   0.273   1.706 -1.4404  1.6436 -0.4782
  640MOL0     H86361  12.768   0.232   1.770 -2.1103 -1.2682 -0.7782
  640MOL0     H86362  13.257   0.212   1.722  2.1332 -2.0822  1.2229
  640MOL0     H86363  13.485   0.254   1.821  1.6572  1.8433  1.0409
  640MOL0     H86364  13.616   0.380   1.942 -0.0279  0.2366 -0.1064
  640MOL0     H86365  13.781   0.438   1.901  0.1131 -0.6937  1.5625
  640MOL0     H86366  13.534   0.607   1.935  1.1496  0.7176 -1.8398
  640MOL0     H86367  13.666   0.588   2.059 -0.0202  1.3584  0.8651
  640MOL0     H86368  13.830   0.694   1.911 -0.2026 -0.8868 -0.3391
  640MOL0     H86369  13.713   0.719   1.785 -0.8858 -3.2368 -0.2014
  640MOL0     H86370  13.572   0.865   1.941  0.1225 -1.0078 -0.7183
  640MOL0     H86371  13.730   0.932   1.907 -1.8781  1.7780  1.8022
  640MOL0     H86372  13.802   0.810   2.144 -0.0704 -0.0188  0.3971
  640MOL0     H86373  13.630   0.794   2.149  0.0736 -0.4048 -0.0918
  640MOL0     H86374  13.774   1.064   2.077 -1.1418  0.8406 -0.0476
  640MOL0     H86375  13.605   1.038   2.131 -0.1379  0.0185  3.6591
  640MOL0     H86376  13.718   1.152   2.302  0.3582  0.0464  1.0141
  640MOL0     H86377  13.854   1.043   2.310 -1.1472 -2.6170  2.6305
  640MOL0     H86378  13.688   0.865   2.383  2.0478  0.1492 -0.1432
  640MOL0     H86379  13.726   0.994   2.499  1.6598  0.6081 -0.3375
  640MOL0     H86380  13.495   0.629   1.595 -0.3731  1.4404  0.7288
  640MOL0     H86381  13.261   0.567   1.521 -1.7158 -0.5073  0.7881
  640MOL0     H86382  12.903   0.418   1.401  1.3200 -1.0007  0.5997
  640MOL0     H86383  12.670   0.451   1.341  1.0855  1.5871  0.3498
  640MOL0     H86384  11.129   1.094   1.470  1.1590  1.1060 -1.4994
  640MOL0     H86385  10.947   1.091   1.636 -0.2126 -0.3341 -2.5392
  640MOL0     H86386  10.759   1.045   1.941 -1.7474  0.3502 -2.1256
  640MOL0     H86387  10.605   0.981   2.112  0.5377 -0.2983 -0.0779
  640MOL0     H86388  10.325   1.302   2.251 -0.9692  0.6465  0.6908
  640MOL0     H86389  10.446   1.328   2.368  1.3624 -0.5714 -1.5600
  640MOL0     H86390  10.384   1.136   2.503 -1.1198 -0.1121 -0.1558
  640MOL0     H86391  10.241   1.106   2.403 -0.2987 -0.3464  1.0219
  640MOL0     H86392  10.313   1.341   2.585 -1.8840 -0.0134  2.9802
  640MOL0     H86393  10.193   1.211   2.614 -2.2622  0.7839 -0.1809
  640MOL0     H86394  10.133   1.362   2.369 -0.0863 -0.2777  0.0711
  640MOL0     H86395  10.017   1.304   2.488  0.2936 -0.6714  0.7305
  640MOL0     H86396  10.071   1.713   2.542  1.8427  1.0653  0.1851
  640MOL0     H86397  10.610   1.397   2.252  0.2488  0.8137 -0.6586
  640MOL0     H86398  10.870   1.498   2.094  0.2672 -0.3261 -1.2516
  640MOL0     H86399  10.747   1.554   1.981  1.6972  1.9082 -0.1369
  640MOL0     H86400  10.721   1.573   2.157  1.6589  0.7127  0.1768
  641MOL0     O86401   6.902   9.787   8.219 -0.1045  0.2745 -0.8468
  641MOL0     C86402   6.972   9.881   8.186 -0.1391  0.5529 -0.7000
  641MOL0     O86403   6.953   9.971   8.088 -0.4814  0.0616  0.2376
  641MOL0     C86404   6.866   9.929   7.991 -0.6371  0.1387 -0.4274
  641MOL0     C86405   6.747   9.987   7.978 -1.1703  0.0075  0.7568
  641MOL0     C86406   6.652   9.928   7.886 -0.4882  0.5882 -0.4273
  641MOL0     C86407   6.689   9.816   7.809 -0.1826 -0.9244 -0.9917
  641MOL0     O86408   6.593   9.775   7.721  0.7902  0.2605 -0.6512
  641MOL0     C86409   6.627   9.655   7.645  0.1382 -0.7974 -0.5602
  641MOL0     C86410   6.507   9.601   7.564  0.1180  0.3672  0.0452
  641MOL0     C86411   6.541   9.457   7.502 -0.4481  0.3221 -0.1607
  641MOL0     C86412   6.632   9.475   7.369  0.2982  0.9636 -1.3621
  641MOL0     C86413   6.690   9.342   7.316 -0.5309  0.0063 -0.6646
  641MOL0     C86414   6.801   9.275   7.399 -0.3903 -0.6830 -0.1496
  641MOL0     C86415   6.840   9.134   7.359 -0.2924 -0.0907  0.6298
  641MOL0     C86416   6.912   9.127   7.220 -0.4506  0.7174 -0.4288
  641MOL0     N86417   6.990   9.006   7.182 -0.0689 -0.0584  0.9568
  641MOL0     C86418   7.121   9.024   7.125  0.2206 -0.4012  0.2050
  641MOL0     C86419   7.177   8.906   7.128  0.5084  0.8785 -0.3630
  641MOL0     C86420   7.313   8.872   7.075 -0.7619 -0.0346  1.4043
  641MOL0     C86421   7.423   8.949   7.168 -0.1765  0.4969 -0.1463
  641MOL0     C86422   7.397   8.912   7.315 -0.3019 -0.2232 -0.9674
  641MOL0     C86423   7.502   8.968   7.404  0.3933 -0.0790  0.3004
  641MOL0     O86424   7.641   8.943   7.366  0.5230  0.7110  0.0809
  641MOL0     C86425   7.736   9.025   7.407  0.0198 -0.3232 -0.1039
  641MOL0     C86426   7.850   9.046   7.334  0.6467 -0.7603  0.5159
  641MOL0     C86427   7.951   9.138   7.363 -0.1730  0.4054 -0.4600
  641MOL0     C86428   7.926   9.223   7.474 -0.5494  0.3316  0.3344
  641MOL0     C86429   8.025   9.333   7.493 -0.3779 -0.0901 -0.3034
  641MOL0     O86430   7.988   9.424   7.590 -0.2415 -0.5080  0.2894
  641MOL0     C86431   8.065   9.531   7.619  0.3498 -1.3302 -0.0409
  641MOL0     C86432   8.106   9.621   7.521  0.2085 -0.0447  0.1007
  641MOL0     C86433   8.177   9.732   7.565 -0.2873 -0.0113 -0.5974
  641MOL0     C86434   8.202   9.755   7.703 -0.7153 -0.6493  0.4843
  641MOL0     O86435   8.273   9.862   7.752  0.6718 -0.3549 -0.6761
  641MOL0     C86436   8.310   9.962   7.664 -0.3965  0.1588 -1.0202
  641MOL0     C86437   8.406  10.068   7.743  0.5569  0.3637  0.0603
  641MOL0     C86438   8.529   9.986   7.803 -0.1952 -0.0421  1.2318
  641MOL0     C86439   8.605   9.920   7.686  0.3653  0.2008 -0.1201
  641MOL0     C86440   8.749   9.895   7.724 -0.8406  0.6376 -0.1141
  641MOL0     C86441   8.825   9.814   7.625 -0.7700  0.0160 -0.0505
  641MOL0     C86442   8.975   9.809   7.649 -0.1182  0.4677  0.6713
  641MOL0     C86443   9.009   9.709   7.763 -0.0310 -0.2796  0.0228
  641MOL0    Cl86444   8.983   9.537   7.730 -0.2682  0.0332  0.0365
  641MOL0     C86445   8.170   9.664   7.789 -0.3428  1.1071  0.1697
  641MOL0     C86446   8.095   9.553   7.753  0.1835 -1.3878 -0.3667
  641MOL0     O86447   8.125   9.339   7.417  0.5047 -0.0350  0.3639
  641MOL0     C86448   7.819   9.208   7.555  1.0731 -0.9054 -0.0458
  641MOL0     C86449   7.726   9.110   7.522  0.4294  0.9251  0.0341
  641MOL0     N86450   7.096   8.813   7.193  0.0172  0.0494 -0.4798
  641MOL0     N86451   6.983   8.876   7.216 -0.2477 -0.4185  0.7514
  641MOL0     C86452   6.817   9.757   7.826  0.2159 -0.2468  0.5475
  641MOL0     C86453   6.895   9.809   7.925  0.4713 -0.0526  0.4612
  641MOL0     C86454   7.095   9.890   8.271 -0.1052  0.1830  0.0581
  641MOL0     C86455   7.158   9.767   8.309  0.1197  1.0313 -0.2952
  641MOL0     C86456   7.278   9.771   8.379  0.3378 -0.5524  0.5843
  641MOL0     C86457   7.331   9.894   8.412 -0.6500  0.1600  0.3651
  641MOL0     O86458   7.437   9.907   8.494  0.3752 -0.3440  0.5000
  641MOL0     C86459   7.507   9.803   8.566  0.3324 -0.2695  0.0836
  641MOL0     C86460   7.626   9.845   8.656  0.2683  0.7184  0.4675
  641MOL0     C86461   7.719   9.940   8.581  0.4119  0.2606  0.2297
  641MOL0     C86462   7.826  10.028   8.652  0.1496 -0.3099  0.1497
  641MOL0     C86463   7.933   9.960   8.723  0.6260  0.9890 -0.7839
  641MOL0     C86464   8.020   9.894   8.782  0.5577  0.0526 -0.5848
  641MOL0     C86465   7.277  10.012   8.364  0.4467 -0.0417  0.2147
  641MOL0     C86466   7.156  10.011   8.296 -0.6762 -0.5175  0.3280
  641MOL0     C86467   7.090  10.133   8.268 -0.6144 -0.8335  0.0409
  641MOL0     H86468   6.727  10.062   8.054 -0.0768  0.1120  0.9617
  641MOL0     H86469   6.545   9.940   7.902 -0.9460 -4.3078  1.9459
  641MOL0     H86470   6.695   9.683   7.564 -0.1428  2.1108  0.0944
  641MOL0     H86471   6.665   9.576   7.710 -2.8749 -1.1020  1.0122
  641MOL0     H86472   6.475   9.673   7.489 -2.8249  0.2159  1.0155
  641MOL0     H86473   6.418   9.589   7.628  0.5461  0.7518  0.7234
  641MOL0     H86474   6.450   9.400   7.480  0.2257  0.2482 -3.2515
  641MOL0     H86475   6.603   9.406   7.575  0.2284  1.3053 -0.0194
  641MOL0     H86476   6.574   9.516   7.286 -0.7292  2.4973  0.0590
  641MOL0     H86477   6.712   9.544   7.396  0.0145  0.5167  0.7835
  641MOL0     H86478   6.605   9.274   7.303  0.2853 -0.7775 -2.2758
  641MOL0     H86479   6.728   9.362   7.215  1.6765 -0.4523  0.0201
  641MOL0     H86480   6.891   9.338   7.393  0.5193 -1.9609 -0.3078
  641MOL0     H86481   6.767   9.269   7.502 -0.8390  0.9243 -0.1766
  641MOL0     H86482   6.752   9.069   7.359  1.0955 -2.1310 -1.7319
  641MOL0     H86483   6.916   9.100   7.430  1.1006  0.2756 -0.6261
  641MOL0     H86484   6.851   9.152   7.133  1.0934 -1.4753 -2.2771
  641MOL0     H86485   6.985   9.207   7.206 -0.7285  0.6564 -2.5190
  641MOL0     H86486   7.164   9.116   7.085 -0.3238  0.4877  1.6076
  641MOL0     H86487   7.331   8.764   7.078  3.0806  0.4713  3.1582
  641MOL0     H86488   7.329   8.908   6.973 -0.6750 -0.3854  1.2915
  641MOL0     H86489   7.523   8.915   7.140  0.0117  0.3264  0.6977
  641MOL0     H86490   7.414   9.055   7.146  1.4768  0.8558  0.7898
  641MOL0     H86491   7.386   8.803   7.321 -1.1531 -0.1417 -0.8926
  641MOL0     H86492   7.298   8.937   7.357  0.0835 -1.6323  0.9199
  641MOL0     H86493   7.475   8.920   7.499 -3.9077  1.5268  0.1344
  641MOL0     H86494   7.492   9.075   7.421 -4.1479 -0.4816  1.8140
  641MOL0     H86495   7.850   9.001   7.235  1.8480  0.5335 -0.1152
  641MOL0     H86496   8.025   9.153   7.285 -0.0463  0.2975 -0.3619
  641MOL0     H86497   8.078   9.616   7.416 -0.5125  1.5719  0.1810
  641MOL0     H86498   8.217   9.798   7.489  1.8385 -1.4258 -0.7827
  641MOL0     H86499   8.363   9.909   7.584 -0.5422  0.2574 -1.1836
  641MOL0     H86500   8.225  10.007   7.612  0.1402  1.6292 -0.6699
  641MOL0     H86501   8.436  10.152   7.680 -1.5548 -0.3023 -1.9971
  641MOL0     H86502   8.345  10.097   7.829  1.0872 -0.7483  0.8287
  641MOL0     H86503   8.593  10.059   7.854  3.4242 -1.7178 -0.5665
  641MOL0     H86504   8.490   9.918   7.880 -1.9706 -0.9064 -0.3724
  641MOL0     H86505   8.598   9.979   7.594  0.9107 -0.0091 -0.3065
  641MOL0     H86506   8.570   9.821   7.656  0.9066  0.6880 -2.6511
  641MOL0     H86507   8.761   9.831   7.812 -0.5338  0.1077 -0.5347
  641MOL0     H86508   8.803   9.988   7.741  1.6776 -1.0570  2.0989
  641MOL0     H86509   8.785   9.713   7.610 -2.7265  0.5218  1.3933
  641MOL0     H86510   8.807   9.859   7.527  2.9122 -1.5557 -1.6403
  641MOL0     H86511   8.995   9.912   7.680 -2.3109  0.5083  2.1866
  641MOL0     H86512   9.043   9.771   7.572  0.0638 -1.6693  1.8180
  641MOL0     H86513   9.114   9.722   7.792 -0.0503  0.4827 -0.2250
  641MOL0     H86514   8.946   9.746   7.844  0.3338  0.3641  0.0225
  641MOL0     H86515   8.184   9.673   7.897 -3.0369 -0.0077  0.7054
  641MOL0     H86516   8.062   9.495   7.839  0.2860 -2.4457 -1.0253
  641MOL0     H86517   7.795   9.269   7.641 -1.6128 -2.4254  0.4288
  641MOL0     H86518   7.634   9.097   7.579  0.9469 -0.4379  0.6028
  641MOL0     H86519   6.862   9.681   7.765  1.0029 -0.3648  1.2640
  641MOL0     H86520   6.982   9.755   7.960  0.9648  0.1441 -0.4444
  641MOL0     H86521   7.122   9.667   8.287  2.6109 -0.0149  0.1408
  641MOL0     H86522   7.334   9.679   8.394  0.8783 -0.1376  1.1400
  641MOL0     H86523   7.552   9.727   8.502 -0.5772 -0.6869 -0.0715
  641MOL0     H86524   7.430   9.752   8.625 -2.0188  1.3424 -1.4424
  641MOL0     H86525   7.680   9.755   8.689 -1.3176 -0.7946 -0.8617
  641MOL0     H86526   7.583   9.899   8.741 -2.0626  1.1845 -0.9169
  641MOL0     H86527   7.658   9.997   8.511  0.9731  0.9219  0.2728
  641MOL0     H86528   7.782   9.872   8.522  0.9318  1.9616 -1.2837
  641MOL0     H86529   7.875  10.105   8.591  0.5378 -1.0332 -0.4697
  641MOL0     H86530   7.775  10.097   8.720  0.4725  3.3127 -2.9344
  641MOL0     H86531   8.093   9.829   8.825 -0.0995  0.6158  1.4679
  641MOL0     H86532   7.320  10.112   8.361 -2.1602  1.3072 -4.7118
  641MOL0     H86533   6.981  10.123   8.280 -0.7842 -0.8333 -1.3734
  641MOL0     H86534   7.132  10.210   8.334  2.1852 -1.6392 -0.7103
  641MOL0     H86535   7.108  10.161   8.164  0.6022 -1.5382  0.0419
  642MOL0     O86536   7.647   8.854  11.160  0.0248  0.0934  0.6205
  642MOL0     C86537   7.569   8.946  11.185 -0.2824 -1.1430  0.3355
  642MOL0     O86538   7.598   9.078  11.159 -0.4979  0.2514  0.4279
  642MOL0     C86539   7.712   9.129  11.109 -0.0137 -1.4221 -0.2233
  642MOL0     C86540   7.826   9.072  11.052  0.9329  0.4671 -0.6246
  642MOL0     C86541   7.931   9.150  11.016 -0.3722  0.1173 -0.4729
  642MOL0     C86542   7.943   9.284  11.028  0.1647 -0.2933 -0.4542
  642MOL0     O86543   8.057   9.361  10.989  0.4665 -0.9270 -0.4975
  642MOL0     C86544   8.180   9.341  11.059  0.7941  1.5232  0.6035
  642MOL0     C86545   8.236   9.475  11.101 -0.0765  0.7422 -0.9768
  642MOL0     C86546   8.360   9.443  11.175 -0.4257  0.7999  0.4804
  642MOL0     C86547   8.477   9.404  11.083  0.7430  0.0821  0.3184
  642MOL0     C86548   8.583   9.321  11.163  0.4475  1.1133  0.3627
  642MOL0     C86549   8.714   9.296  11.088 -0.2366  0.2944 -0.8433
  642MOL0     C86550   8.793   9.197  11.166  0.6300 -0.7380  0.6072
  642MOL0     C86551   8.934   9.173  11.109 -0.6280 -0.0940 -0.4136
  642MOL0     N86552   8.927   9.073  11.006 -0.1292  0.7575  0.1182
  642MOL0     C86553   8.999   8.957  11.007 -0.2611 -0.9630 -0.4734
  642MOL0     C86554   8.983   8.917  10.882 -0.4837 -0.0467 -0.6946
  642MOL0     C86555   9.046   8.788  10.818  0.0540  0.0723 -0.6260
  642MOL0     C86556   9.181   8.826  10.760 -0.3370 -0.3292 -0.1085
  642MOL0     C86557   9.225   8.703  10.670 -0.2199  0.1252 -0.4363
  642MOL0     C86558   9.367   8.713  10.616 -0.5736 -0.4681 -0.0331
  642MOL0     O86559   9.458   8.676  10.730  0.6001  0.2611  0.3340
  642MOL0     C86560   9.589   8.692  10.731 -0.0636  0.2252 -0.0234
  642MOL0     C86561   9.655   8.625  10.831 -0.2626  0.3244 -0.4604
  642MOL0     C86562   9.796   8.630  10.843 -1.1904  0.8690 -0.5512
  642MOL0     C86563   9.872   8.696  10.755  0.4856 -0.6340 -0.6953
  642MOL0     C86564  10.028   8.684  10.763  0.3663  0.2565  0.1414
  642MOL0     O86565  10.085   8.635  10.869 -0.1209  0.1988 -0.1318
  642MOL0     C86566  10.218   8.646  10.904 -0.8318 -0.0041  0.3789
  642MOL0     C86567  10.247   8.687  11.024  0.7700 -0.1223  0.6284
  642MOL0     C86568  10.375   8.718  11.057  0.0833 -0.1128 -0.4293
  642MOL0     C86569  10.488   8.696  10.973  0.5483 -0.6207  0.5419
  642MOL0     O86570  10.610   8.725  11.021 -0.4129 -0.3535 -0.3455
  642MOL0     C86571  10.707   8.750  10.921  0.6379  0.0696  0.2760
  642MOL0     C86572  10.845   8.743  10.981  0.8782 -0.3547  1.0623
  642MOL0     C86573  10.946   8.734  10.872 -0.1197 -0.6422 -0.8467
  642MOL0     C86574  11.092   8.716  10.923  0.2111  0.0096 -0.6817
  642MOL0     C86575  11.182   8.704  10.800  0.3396 -0.4486 -1.1070
  642MOL0     C86576  11.322   8.709  10.861  0.2395 -0.3079  0.1957
  642MOL0     C86577  11.424   8.735  10.737  0.3292  0.9710 -0.1435
  642MOL0     C86578  11.434   8.884  10.702  0.6800 -0.1402  0.2450
  642MOL0    Cl86579  11.483   9.000  10.824  0.0657  0.4392 -0.3499
  642MOL0     C86580  10.454   8.649  10.848 -0.3758  0.4441 -0.7782
  642MOL0     C86581  10.323   8.624  10.814 -0.0825  0.3503 -0.1414
  642MOL0     O86582  10.089   8.727  10.669 -0.1000 -0.6527  0.3479
  642MOL0     C86583   9.811   8.757  10.646  0.0350  0.1147 -0.5909
  642MOL0     C86584   9.670   8.762  10.635 -0.1158  0.2664  0.9625
  642MOL0     N86585   8.903   8.995  10.810 -0.3533  1.1167 -0.2973
  642MOL0     N86586   8.879   9.092  10.884  0.1944 -0.4389 -0.1213
  642MOL0     C86587   7.827   9.342  11.072  0.2476  0.1575  0.8841
  642MOL0     C86588   7.713   9.273  11.120  0.3499 -0.3271 -0.4523
  642MOL0     C86589   7.430   8.913  11.240  0.2443  0.3732 -1.1608
  642MOL0     C86590   7.421   8.791  11.293  0.2019  0.6891 -0.2758
  642MOL0     C86591   7.299   8.744  11.354  0.0343 -0.0276  0.5254
  642MOL0     C86592   7.186   8.826  11.353  0.2112  0.4871 -0.3595
  642MOL0     O86593   7.060   8.781  11.390 -0.1125 -1.4082  0.5507
  642MOL0     C86594   7.048   8.674  11.485 -0.6348  0.8738  0.0744
  642MOL0     C86595   6.901   8.648  11.482 -0.6310 -0.7086  0.7702
  642MOL0     C86596   6.860   8.534  11.565  0.9803 -0.0918  0.2615
  642MOL0     C86597   6.862   8.558  11.711 -0.5210 -0.3527 -1.0269
  642MOL0     C86598   6.771   8.667  11.767  0.6651  0.1430 -0.1769
  642MOL0     C86599   6.704   8.763  11.810 -0.6001 -0.0182  0.6721
  642MOL0     C86600   7.205   8.953  11.295 -0.6893 -0.6381 -0.2949
  642MOL0     C86601   7.318   9.000  11.233 -0.6965 -0.6573 -0.0112
  642MOL0     C86602   7.315   9.144  11.178  0.4622 -0.1410  0.1271
  642MOL0     H86603   7.827   8.964  11.050  3.1817  0.4438 -0.7827
  642MOL0     H86604   8.016   9.101  10.969  0.9900  0.3004  1.6790
  642MOL0     H86605   8.145   9.294  11.150 -1.1291  1.7053 -0.0082
  642MOL0     H86606   8.245   9.275  11.001 -0.6707  0.0673  0.5670
  642MOL0     H86607   8.157   9.519  11.162 -1.8429 -3.1474 -0.1344
  642MOL0     H86608   8.255   9.537  11.012  1.2956  1.6430 -0.0934
  642MOL0     H86609   8.348   9.363  11.248  1.9720 -0.9953 -0.9598
  642MOL0     H86610   8.399   9.525  11.236  4.4280 -2.4425  2.2424
  642MOL0     H86611   8.449   9.344  10.996  1.7291 -1.2861  0.9055
  642MOL0     H86612   8.507   9.497  11.035  1.9104 -0.8425 -0.8033
  642MOL0     H86613   8.596   9.366  11.261 -2.0257 -1.5857  2.1147
  642MOL0     H86614   8.532   9.227  11.187  0.3046  0.8726 -0.7872
  642MOL0     H86615   8.702   9.272  10.982  1.6817  0.2259 -1.0773
  642MOL0     H86616   8.770   9.390  11.089 -2.1615  1.6223  3.2315
  642MOL0     H86617   8.744   9.099  11.160  0.5919 -0.6417 -1.8003
  642MOL0     H86618   8.801   9.223  11.272 -1.7127  0.0982  0.6497
  642MOL0     H86619   8.987   9.262  11.075 -0.2920  0.0706  0.5094
  642MOL0     H86620   8.987   9.136  11.198  0.0584  0.0458 -0.7619
  642MOL0     H86621   9.059   8.917  11.089  0.1363 -1.0661 -0.8108
  642MOL0     H86622   9.056   8.712  10.896 -0.6137  0.0058 -0.5974
  642MOL0     H86623   8.973   8.743  10.750  1.6990 -2.5335 -0.8479
  642MOL0     H86624   9.166   8.918  10.703 -3.9855 -0.0964  0.9827
  642MOL0     H86625   9.251   8.837  10.843  1.1256  0.1954 -1.3495
  642MOL0     H86626   9.161   8.680  10.584 -2.9551  0.9883  1.2366
  642MOL0     H86627   9.213   8.614  10.733 -1.4820  0.2039 -0.5410
  642MOL0     H86628   9.384   8.812  10.573 -0.2701 -0.7691 -0.6138
  642MOL0     H86629   9.379   8.640  10.536  2.5152 -1.7712  1.4552
  642MOL0     H86630   9.584   8.551  10.867 -2.8303  0.6793 -4.2287
  642MOL0     H86631   9.832   8.570  10.926 -0.6301  0.5350 -1.0341
  642MOL0     H86632  10.175   8.691  11.106  0.2674 -1.0247  0.2382
  642MOL0     H86633  10.395   8.730  11.163  0.5712 -1.3940 -0.3668
  642MOL0     H86634  10.707   8.669  10.848 -1.0994  0.5315 -0.2830
  642MOL0     H86635  10.689   8.846  10.872  2.5175 -0.1458 -0.9340
  642MOL0     H86636  10.861   8.829  11.047  0.7399  1.4164 -1.0854
  642MOL0     H86637  10.851   8.652  11.040 -1.3907 -1.2498  0.0007
  642MOL0     H86638  10.921   8.649  10.807  0.2430 -0.8671 -0.6983
  642MOL0     H86639  10.939   8.829  10.819  0.4801 -0.8355 -1.2853
  642MOL0     H86640  11.105   8.624  10.981  0.3789  1.8215  2.3800
  642MOL0     H86641  11.123   8.793  10.994  0.7175 -1.2151  0.4513
  642MOL0     H86642  11.178   8.793  10.737  3.7655  0.2550 -0.5181
  642MOL0     H86643  11.165   8.611  10.746  1.1895 -2.2663  1.5741
  642MOL0     H86644  11.339   8.793  10.929 -0.6929  0.1073 -0.0680
  642MOL0     H86645  11.336   8.609  10.904 -0.0580 -0.1016  0.7882
  642MOL0     H86646  11.411   8.666  10.653  3.4163 -1.3820  1.1308
  642MOL0     H86647  11.521   8.705  10.777  0.4723 -1.6709 -2.1997
  642MOL0     H86648  11.507   8.887  10.621  2.3233  1.6653  1.7154
  642MOL0     H86649  11.348   8.926  10.649  0.9722 -2.3001 -2.1647
  642MOL0     H86650  10.528   8.633  10.770  1.3058  1.6956  0.4673
  642MOL0     H86651  10.302   8.584  10.715 -2.7099  2.0611 -0.3536
  642MOL0     H86652   9.872   8.803  10.569 -3.6442  2.7148 -2.2281
  642MOL0     H86653   9.621   8.810  10.551  1.8746  1.3536  0.3538
  642MOL0     H86654   7.821   9.451  11.073 -1.0363  0.1048  0.5537
  642MOL0     H86655   7.614   9.310  11.145  0.2541 -0.6289 -0.3857
  642MOL0     H86656   7.509   8.728  11.297 -2.1200 -2.9502 -0.8987
  642MOL0     H86657   7.306   8.648  11.406  2.6631  0.7655  1.8164
  642MOL0     H86658   7.093   8.710  11.579  1.7537  1.2907 -1.1428
  642MOL0     H86659   7.103   8.585  11.453  3.6159  2.4698  2.0524
  642MOL0     H86660   6.880   8.625  11.378 -1.0542 -1.4386  1.0116
  642MOL0     H86661   6.841   8.735  11.511  1.8827  1.3809  0.1176
  642MOL0     H86662   6.910   8.444  11.527  1.4156 -0.5710  1.8854
  642MOL0     H86663   6.757   8.506  11.540  0.8525 -0.5123  1.2232
  642MOL0     H86664   6.846   8.470  11.774  1.1517  1.3126  1.9980
  642MOL0     H86665   6.965   8.591  11.733 -0.9210 -0.8534  2.1760
  642MOL0     H86666   6.644   8.841  11.852  0.6768  1.6595 -0.5071
  642MOL0     H86667   7.132   9.033  11.302  1.1529  1.1271 -0.3918
  642MOL0     H86668   7.213   9.184  11.184 -0.5703 -2.7944  2.4272
  642MOL0     H86669   7.381   9.216  11.227  3.6053 -1.5639 -1.7072
  642MOL0     H86670   7.328   9.133  11.070  2.0830  0.3820  0.2399
  643MOL0     O86671   0.533   4.292  10.550 -0.1115  0.0285 -0.2313
  643MOL0     C86672   0.436   4.362  10.553  0.2406  0.0119 -0.2239
  643MOL0     O86673   0.426   4.489  10.534 -0.3060  0.2426 -0.1007
  643MOL0     C86674   0.533   4.561  10.478 -0.9474  0.2400  0.7323
  643MOL0     C86675   0.677   4.532  10.501  0.0559  0.4086 -0.3970
  643MOL0     C86676   0.777   4.620  10.463 -0.4866 -0.5867 -1.3521
  643MOL0     C86677   0.743   4.750  10.430  1.0150 -0.5368  0.0330
  643MOL0     O86678   0.848   4.843  10.418  0.2829 -0.1678 -0.2489
  643MOL0     C86679   0.840   4.942  10.311 -0.4418  0.1804  0.1105
  643MOL0     C86680   0.979   4.995  10.258 -0.5151 -0.5271 -0.4990
  643MOL0     C86681   1.049   4.874  10.208 -0.6168 -0.0099  0.0108
  643MOL0     C86682   1.186   4.888  10.147 -0.1822 -0.5881 -0.2863
  643MOL0     C86683   1.294   4.921  10.256 -0.5877 -0.4482  0.5860
  643MOL0     C86684   1.442   4.903  10.207  0.4746  0.2108 -0.9181
  643MOL0     C86685   1.473   4.983  10.089 -0.2486 -0.6121  0.8512
  643MOL0     C86686   1.472   5.133  10.111  0.4935  0.1907 -0.6674
  643MOL0     N86687   1.608   5.175  10.159 -0.1038  0.0436 -0.4381
  643MOL0     C86688   1.692   5.138  10.269  0.0389 -0.1068  0.4476
  643MOL0     C86689   1.812   5.210  10.268  1.1513  0.4603 -0.7151
  643MOL0     C86690   1.929   5.203  10.367 -0.0412  0.5963 -0.5151
  643MOL0     C86691   2.003   5.333  10.386 -0.4111 -0.3934  0.3001
  643MOL0     C86692   1.916   5.451  10.416  0.0017  0.1376 -0.8300
  643MOL0     C86693   2.007   5.575  10.438  0.3138 -0.3434  0.1812
  643MOL0     O86694   2.078   5.560  10.559 -0.4822 -0.7729 -0.9708
  643MOL0     C86695   2.208   5.594  10.577  0.1482 -0.2138  0.6414
  643MOL0     C86696   2.272   5.540  10.694  0.1211 -0.6556 -0.3298
  643MOL0     C86697   2.403   5.572  10.729 -0.0713  0.7876 -0.8031
  643MOL0     C86698   2.475   5.664  10.651 -0.2168 -0.2035 -0.3208
  643MOL0     C86699   2.618   5.686  10.683 -0.3776  0.2392  0.3606
  643MOL0     O86700   2.680   5.592  10.773  0.2068 -0.0585  0.3504
  643MOL0     C86701   2.813   5.614  10.785 -0.6142  0.3450  0.3233
  643MOL0     C86702   2.865   5.683  10.891 -0.2221  0.7781 -0.2920
  643MOL0     C86703   3.008   5.672  10.904  0.7067  0.0584  0.2992
  643MOL0     C86704   3.092   5.602  10.805  0.4852 -1.0115  0.1362
  643MOL0     O86705   3.219   5.584  10.832 -1.3615 -0.7154  1.1543
  643MOL0     C86706   3.307   5.696  10.837 -1.7049  0.7783 -0.8859
  643MOL0     C86707   3.450   5.649  10.874 -1.2452 -0.0774  0.5981
  643MOL0     C86708   3.565   5.762  10.852  0.1838 -0.3627 -0.9277
  643MOL0     C86709   3.579   5.862  10.972  0.2187 -1.1643 -0.3860
  643MOL0     C86710   3.689   5.963  10.942 -0.8698  0.3681 -0.4940
  643MOL0     C86711   3.826   5.896  10.917 -0.6976  0.7433 -0.1571
  643MOL0     C86712   3.940   5.990  10.946 -0.4900  0.2398  0.9567
  643MOL0     C86713   4.065   5.912  10.884 -0.8738  0.1005 -0.0550
  643MOL0    Cl86714   4.211   6.005  10.930  0.7179  0.2267  0.0537
  643MOL0     C86715   3.032   5.560  10.688 -0.1012  0.3613  0.4136
  643MOL0     C86716   2.889   5.568  10.678 -0.4852 -0.2939 -0.0672
  643MOL0     O86717   2.670   5.793  10.647 -0.3433  0.0102 -0.3548
  643MOL0     C86718   2.419   5.724  10.543  0.0753  1.0114  0.7860
  643MOL0     C86719   2.288   5.691  10.505  0.3181 -0.4983  0.1778
  643MOL0     N86720   1.803   5.294  10.154 -0.5447  0.2970 -1.0148
  643MOL0     N86721   1.683   5.270  10.094  0.3656  0.7642 -0.0370
  643MOL0     C86722   0.609   4.770  10.402  0.2580  0.4032 -0.3070
  643MOL0     C86723   0.506   4.678  10.427  0.8200 -0.2661  0.1167
  643MOL0     C86724   0.309   4.286  10.581 -0.2149 -0.6787  0.6330
  643MOL0     C86725   0.191   4.364  10.574  1.2479 -0.3586 -0.1247
  643MOL0     C86726   0.070   4.309  10.616  0.5165  0.5746  0.2750
  643MOL0     C86727   0.057   4.182  10.671 -0.0481  0.1377 -0.7917
  643MOL0     O86728  -0.054   4.118  10.718 -0.4230 -0.3042  0.2016
  643MOL0     C86729  -0.155   4.203  10.779  0.3094  0.5983  0.3240
  643MOL0     C86730  -0.263   4.227  10.672  0.3339  0.1298 -0.4510
  643MOL0     C86731  -0.367   4.333  10.707  0.2480  0.0320  0.6872
  643MOL0     C86732  -0.505   4.278  10.748 -0.0150 -0.9439  0.3656
  643MOL0     C86733  -0.572   4.235  10.621 -0.3422 -0.0643 -0.0128
  643MOL0     C86734  -0.613   4.179  10.515  0.4764  0.0356  0.7775
  643MOL0     C86735   0.175   4.104  10.670 -0.1416  0.1053  0.1243
  643MOL0     C86736   0.299   4.151  10.627 -0.0692  0.4672  0.5080
  643MOL0     C86737   0.415   4.046  10.621 -0.7929 -0.3557 -0.0084
  643MOL0     H86738   0.717   4.438  10.537  1.7459  1.1770 -0.1706
  643MOL0     H86739   0.882   4.594  10.476 -0.5097 -1.9599 -3.3755
  643MOL0     H86740   0.797   4.898  10.220 -0.3218 -0.4981  0.3717
  643MOL0     H86741   0.788   5.032  10.345 -0.0583  0.0622  1.0335
  643MOL0     H86742   1.027   5.044  10.343 -1.8782 -0.9374  0.5560
  643MOL0     H86743   0.973   5.059  10.169  1.0491 -0.4970 -0.6060
  643MOL0     H86744   0.982   4.839  10.129 -0.4850 -0.1686 -0.0301
  643MOL0     H86745   1.053   4.793  10.281 -1.7111  1.1188  1.3944
  643MOL0     H86746   1.218   4.790  10.109 -0.0985 -0.3750 -0.7748
  643MOL0     H86747   1.182   4.966  10.071 -0.1381 -0.2449  0.0600
  643MOL0     H86748   1.282   5.019  10.302  3.1500  0.5526 -0.2481
  643MOL0     H86749   1.285   4.850  10.339  1.2154  0.4391  1.6039
  643MOL0     H86750   1.498   4.946  10.291  1.9745  0.5750 -2.0589
  643MOL0     H86751   1.480   4.802  10.186  3.2758  0.9319  0.2186
  643MOL0     H86752   1.404   4.956  10.008  1.2359 -2.8669  0.2309
  643MOL0     H86753   1.572   4.959  10.049 -0.3046  0.8104 -0.2013
  643MOL0     H86754   1.434   5.182  10.021 -0.0104 -2.4589 -2.0236
  643MOL0     H86755   1.406   5.140  10.198  3.0161  1.6648  1.2362
  643MOL0     H86756   1.664   5.057  10.335 -1.1618 -1.9226 -2.1035
  643MOL0     H86757   1.874   5.174  10.457 -1.5007  1.2573 -1.1506
  643MOL0     H86758   2.004   5.129  10.337 -0.0316  0.0960  0.6787
  643MOL0     H86759   2.065   5.308  10.473 -0.2619 -1.5487 -0.1163
  643MOL0     H86760   2.072   5.355  10.304 -0.3291 -1.4337  0.0695
  643MOL0     H86761   1.841   5.433  10.494  3.2779 -0.4242  2.4341
  643MOL0     H86762   1.865   5.482  10.324 -0.9906  0.5602 -0.1546
  643MOL0     H86763   1.956   5.672  10.431  0.0487 -0.6087 -2.0641
  643MOL0     H86764   2.081   5.572  10.358 -0.6915  1.5657 -0.8725
  643MOL0     H86765   2.226   5.456  10.745 -0.2383  0.8024  1.8679
  643MOL0     H86766   2.443   5.528  10.821 -1.0832  3.2619  0.9283
  643MOL0     H86767   2.792   5.710  10.966 -0.6336  1.5722 -0.9660
  643MOL0     H86768   3.058   5.707  10.994  1.4776 -0.6825  0.1678
  643MOL0     H86769   3.301   5.739  10.736 -1.5765  0.6500 -0.9485
  643MOL0     H86770   3.282   5.757  10.924 -0.0581  0.2110  0.0465
  643MOL0     H86771   3.458   5.616  10.978 -2.3212 -0.2884  0.6243
  643MOL0     H86772   3.476   5.564  10.811 -2.1137  0.9032 -1.1623
  643MOL0     H86773   3.658   5.706  10.847 -0.7204 -1.8299 -2.1572
  643MOL0     H86774   3.552   5.809  10.754 -2.0091 -0.7298 -0.8673
  643MOL0     H86775   3.599   5.811  11.067  2.1240  0.5298  0.1915
  643MOL0     H86776   3.489   5.924  10.973  0.5491 -0.6735  0.5146
  643MOL0     H86777   3.697   6.028  11.030  1.7186  0.3058 -0.5866
  643MOL0     H86778   3.664   6.031  10.860 -4.9335 -0.5148 -0.1660
  643MOL0     H86779   3.840   5.817  10.992  1.6336  1.5532  0.3546
  643MOL0     H86780   3.818   5.856  10.815  0.3470 -0.2171  0.1149
  643MOL0     H86781   3.951   6.004  11.054  1.3986  0.9517  0.7041
  643MOL0     H86782   3.931   6.088  10.900  1.2536 -1.0988 -2.5737
  643MOL0     H86783   4.082   5.809  10.916  5.1508  1.6249  3.0151
  643MOL0     H86784   4.048   5.919  10.776  0.4661  1.0458 -0.2226
  643MOL0     H86785   3.098   5.521  10.611 -0.5710  0.8365 -0.2391
  643MOL0     H86786   2.841   5.534  10.587  1.3390 -0.4262 -1.0166
  643MOL0     H86787   2.477   5.782  10.472  1.6358 -2.5665 -1.1343
  643MOL0     H86788   2.251   5.751  10.422 -0.0222  2.3531  2.2217
  643MOL0     H86789   0.561   4.861  10.368  0.4162  0.5090 -0.2501
  643MOL0     H86790   0.401   4.687  10.402  0.4391 -2.3661  0.7991
  643MOL0     H86791   0.188   4.462  10.527 -0.0026 -2.2219 -4.4963
  643MOL0     H86792  -0.014   4.377  10.607 -0.9286 -1.0904  0.6744
  643MOL0     H86793  -0.106   4.295  10.812 -0.8115  0.9273  1.1734
  643MOL0     H86794  -0.205   4.149  10.861 -1.7790 -0.7859 -1.7380
  643MOL0     H86795  -0.313   4.132  10.653 -0.9920  1.0311 -1.6862
  643MOL0     H86796  -0.215   4.260  10.579 -2.0408  0.2829 -1.6974
  643MOL0     H86797  -0.385   4.392  10.616  0.5238  1.8332  1.7539
  643MOL0     H86798  -0.323   4.409  10.772 -0.1376  2.0769 -1.2832
  643MOL0     H86799  -0.518   4.190  10.812 -2.9081 -0.5939  0.3626
  643MOL0     H86800  -0.561   4.359  10.796  0.4590  0.6239 -1.5761
  643MOL0     H86801  -0.665   4.121  10.443  2.8187  1.3886 -2.2339
  643MOL0     H86802   0.159   4.001  10.700 -1.5585 -0.0235 -0.9499
  643MOL0     H86803   0.433   4.027  10.515 -2.4069  3.1180 -1.0307
  643MOL0     H86804   0.505   4.067  10.679 -0.9627 -0.1946  0.1999
  643MOL0     H86805   0.385   3.949  10.662  0.4599  0.4689  3.1980
  644MOL0     O86806   9.772   6.904  10.256  0.0238 -0.1591  0.6857
  644MOL0     C86807   9.710   6.814  10.191 -0.7780  0.5692  1.0717
  644MOL0     O86808   9.775   6.727  10.119 -0.6829  0.7038 -0.6818
  644MOL0     C86809   9.911   6.700  10.130  1.2030  0.6566  0.3512
  644MOL0     C86810   9.983   6.721  10.013  0.4811  0.5166 -0.2241
  644MOL0     C86811  10.119   6.670  10.006 -0.5930 -0.1621 -0.8622
  644MOL0     C86812  10.176   6.610  10.124 -0.0355  0.0238  0.8611
  644MOL0     O86813  10.312   6.586  10.138  0.1729 -0.0332  0.3522
  644MOL0     C86814  10.422   6.653  10.086  1.0755 -0.9059 -0.1858
  644MOL0     C86815  10.553   6.605  10.156 -0.0983 -0.5543  0.3528
  644MOL0     C86816  10.678   6.624  10.069  1.0956  0.6255 -0.2965
  644MOL0     C86817  10.792   6.612  10.161  0.2794  0.6940  0.3102
  644MOL0     C86818  10.926   6.577  10.101 -0.7781 -0.4426  0.3248
  644MOL0     C86819  10.976   6.689   9.994 -1.4238 -0.1322  0.2946
  644MOL0     C86820  11.120   6.669   9.952  0.1345  0.4815  0.9182
  644MOL0     C86821  11.176   6.777   9.862 -0.0432 -0.0086  0.0472
  644MOL0     N86822  11.319   6.786   9.847 -0.3652  0.0801 -1.1929
  644MOL0     C86823  11.398   6.690   9.793 -0.1961 -0.2994  0.3334
  644MOL0     C86824  11.528   6.737   9.821  0.4334 -0.5961 -1.3099
  644MOL0     C86825  11.648   6.651   9.786 -0.7090  0.2203  0.3454
  644MOL0     C86826  11.782   6.692   9.854 -0.2016 -0.1663 -0.8564
  644MOL0     C86827  11.898   6.597   9.819  0.7738  0.0507 -0.4324
  644MOL0     C86828  12.038   6.643   9.847  0.1422 -1.0228 -0.0278
  644MOL0     O86829  12.139   6.579   9.784 -0.5039 -0.1434  0.3114
  644MOL0     C86830  12.267   6.616   9.798 -0.0591 -0.4449 -0.1094
  644MOL0     C86831  12.334   6.717   9.871 -0.1607  0.0344  0.0099
  644MOL0     C86832  12.466   6.732   9.887 -0.5552 -0.7869  0.4292
  644MOL0     C86833  12.554   6.658   9.809 -0.8060 -0.0013  1.2918
  644MOL0     C86834  12.702   6.680   9.814 -1.0959  0.6785  0.9627
  644MOL0     O86835  12.737   6.777   9.892 -0.2173  0.7053  0.0482
  644MOL0     C86836  12.863   6.804   9.941  1.0266 -0.4117 -0.4814
  644MOL0     C86837  12.882   6.938   9.984 -1.0663  0.8510 -0.1804
  644MOL0     C86838  13.001   6.976  10.033  0.0625 -0.5663  0.0122
  644MOL0     C86839  13.117   6.896  10.046  0.3016  0.3207  0.7693
  644MOL0     O86840  13.220   6.941  10.119  0.4785  0.2719 -0.2664
  644MOL0     C86841  13.338   6.855  10.110  0.3347  0.3747  0.6834
  644MOL0     C86842  13.409   6.884   9.977 -0.8399 -0.1292  0.4195
  644MOL0     C86843  13.494   6.763   9.927 -0.1085  0.3456  0.4635
  644MOL0     C86844  13.614   6.741  10.027 -0.4762 -0.1556  0.0888
  644MOL0     C86845  13.717   6.634   9.985 -0.6346  0.9747  0.1704
  644MOL0     C86846  13.799   6.681   9.873 -0.3411 -0.0219 -0.2926
  644MOL0     C86847  13.916   6.576   9.855 -0.5323  0.4880  0.0304
  644MOL0     C86848  14.025   6.640   9.782  0.4374 -0.5986  0.6383
  644MOL0    Cl86849  13.995   6.623   9.607  0.5032  0.1382  0.1335
  644MOL0     C86850  13.099   6.761   9.992 -0.1429 -0.8636  0.4688
  644MOL0     C86851  12.973   6.722   9.953 -0.1940 -0.4718  0.3042
  644MOL0     O86852  12.781   6.615   9.740  0.1995 -0.1137  0.5638
  644MOL0     C86853  12.498   6.560   9.726  0.4224 -0.4298  0.7497
  644MOL0     C86854  12.363   6.535   9.732  0.1182  0.5364 -0.5884
  644MOL0     N86855  11.518   6.856   9.897 -1.2312  0.1743  0.2639
  644MOL0     N86856  11.395   6.884   9.907  1.0224 -0.4921 -1.0162
  644MOL0     C86857  10.100   6.605  10.238 -0.1069  0.2524  0.1643
  644MOL0     C86858   9.964   6.643  10.243  0.0681  0.5455  0.6884
  644MOL0     C86859   9.560   6.811  10.170 -0.6870  0.6800 -1.4349
  644MOL0     C86860   9.498   6.683  10.183 -0.0410 -0.6435  0.3293
  644MOL0     C86861   9.353   6.675  10.173  0.7118  0.3315  0.1741
  644MOL0     C86862   9.277   6.794  10.149 -0.4047 -0.4986 -0.6998
  644MOL0     O86863   9.144   6.786  10.141  0.4318 -0.3547  0.0301
  644MOL0     C86864   9.087   6.727  10.259  0.5491 -0.1176  0.3485
  644MOL0     C86865   8.945   6.783  10.284  0.2641 -0.1467 -0.1540
  644MOL0     C86866   8.939   6.922  10.344 -0.0545  0.0705 -0.1506
  644MOL0     C86867   8.815   6.940  10.439  0.3958 -0.2915 -0.2519
  644MOL0     C86868   8.686   6.933  10.372  0.1769 -0.2464 -0.0193
  644MOL0     C86869   8.582   6.927  10.311  0.4901  0.1222  0.1847
  644MOL0     C86870   9.350   6.916  10.127 -0.5681 -0.0891 -0.3020
  644MOL0     C86871   9.489   6.924  10.134  0.4454 -1.0764  0.4417
  644MOL0     C86872   9.554   7.061  10.103  0.2470 -0.7252 -0.7311
  644MOL0     H86873   9.936   6.762   9.924 -1.5440  1.2821  1.1146
  644MOL0     H86874  10.176   6.676   9.914  0.0736 -3.2819 -0.7907
  644MOL0     H86875  10.428   6.647   9.977  0.9029 -2.2307 -0.1385
  644MOL0     H86876  10.399   6.759  10.102 -0.7048 -1.1970 -0.6010
  644MOL0     H86877  10.539   6.502  10.189 -1.5957  0.4622  3.3161
  644MOL0     H86878  10.566   6.671  10.242 -0.2071  1.9531 -1.4408
  644MOL0     H86879  10.677   6.715  10.008  2.6031  2.0298  1.6179
  644MOL0     H86880  10.676   6.534  10.007 -3.0934 -2.3850  3.4897
  644MOL0     H86881  10.795   6.707  10.216  0.3407  2.1226 -2.0375
  644MOL0     H86882  10.763   6.532  10.229 -1.7317  0.7046 -0.4438
  644MOL0     H86883  10.998   6.552  10.179 -0.0786 -0.3966 -0.2935
  644MOL0     H86884  10.916   6.483  10.045 -2.1878 -0.1696  0.0611
  644MOL0     H86885  10.919   6.691   9.901  0.4554  1.7780 -0.9192
  644MOL0     H86886  10.968   6.789  10.038  0.4949  0.0904  0.2249
  644MOL0     H86887  11.137   6.573   9.902 -0.8646 -0.4809  2.3580
  644MOL0     H86888  11.192   6.664  10.034  3.0919  2.1411 -1.3349
  644MOL0     H86889  11.134   6.762   9.762  1.0563 -1.1503 -0.2696
  644MOL0     H86890  11.145   6.874   9.902 -0.3784 -0.8157  1.8719
  644MOL0     H86891  11.370   6.598   9.743  0.0924  0.0876 -0.5475
  644MOL0     H86892  11.619   6.551   9.820 -1.9478  0.3481 -0.2816
  644MOL0     H86893  11.655   6.655   9.677 -3.1484  2.4627  0.1656
  644MOL0     H86894  11.805   6.797   9.833  1.6595  0.2476  2.4507
  644MOL0     H86895  11.752   6.685   9.959  2.1694  0.3646 -0.0778
  644MOL0     H86896  11.891   6.591   9.710 -0.4059 -2.7304 -0.2899
  644MOL0     H86897  11.877   6.497   9.859  1.9662 -0.0588 -0.0218
  644MOL0     H86898  12.054   6.621   9.953  0.6308 -1.3322 -0.1623
  644MOL0     H86899  12.047   6.752   9.834 -2.8342 -0.8263 -1.1993
  644MOL0     H86900  12.270   6.794   9.913 -2.0899  1.0723 -4.3226
  644MOL0     H86901  12.506   6.819   9.938 -0.0199  1.1354 -2.9526
  644MOL0     H86902  12.808   7.016   9.971 -3.2552 -0.9872  0.5258
  644MOL0     H86903  12.994   7.079  10.065 -1.9592 -0.1076 -1.6805
  644MOL0     H86904  13.390   6.877  10.204 -2.4303 -1.0967  2.7005
  644MOL0     H86905  13.315   6.749  10.118  0.9004  0.0927 -1.0184
  644MOL0     H86906  13.337   6.906   9.897 -0.4147  3.7543  0.8935
  644MOL0     H86907  13.465   6.978   9.986 -1.5400  0.3300  0.0709
  644MOL0     H86908  13.428   6.677   9.916 -1.0768  0.9675  1.1955
  644MOL0     H86909  13.529   6.787   9.826  0.1406 -1.6334  0.0410
  644MOL0     H86910  13.584   6.718  10.130  3.7875  0.5251  1.7023
  644MOL0     H86911  13.670   6.832  10.050 -1.4125  0.1428  1.3021
  644MOL0     H86912  13.668   6.540   9.956 -3.4527  1.8683  1.6698
  644MOL0     H86913  13.783   6.604  10.067  0.4618 -1.1140 -1.3786
  644MOL0     H86914  13.740   6.688   9.781  3.7505 -2.4276 -3.5058
  644MOL0     H86915  13.834   6.778   9.909  0.6740 -0.9069  1.1844
  644MOL0     H86916  13.888   6.480   9.810 -3.3247  1.1557  0.1625
  644MOL0     H86917  13.954   6.552   9.955 -0.4679  2.3648  0.4950
  644MOL0     H86918  14.025   6.746   9.809 -4.7123  0.2685 -1.5365
  644MOL0     H86919  14.122   6.593   9.797  1.1447  1.0264  1.3217
  644MOL0     H86920  13.177   6.686   9.997  0.0294 -0.6898  0.4349
  644MOL0     H86921  12.966   6.617   9.928  3.6435 -0.5808 -0.9155
  644MOL0     H86922  12.557   6.487   9.671 -0.2463 -1.8055  1.7875
  644MOL0     H86923  12.343   6.439   9.686  0.1984 -0.9445  2.2317
  644MOL0     H86924  10.151   6.559  10.322 -0.6352 -0.3485  0.1634
  644MOL0     H86925   9.924   6.621  10.342  1.1830  0.1909  1.0795
  644MOL0     H86926   9.558   6.598  10.213 -0.0211 -1.6423 -2.3182
  644MOL0     H86927   9.301   6.582  10.191  1.3560  0.1741  1.2894
  644MOL0     H86928   9.143   6.765  10.345 -1.6274  2.6742  0.6953
  644MOL0     H86929   9.098   6.618  10.260 -0.8356 -0.5805 -4.7965
  644MOL0     H86930   8.882   6.731  10.357  0.0824  2.1157  1.3904
  644MOL0     H86931   8.889   6.785  10.190  2.1336 -2.0921 -1.3806
  644MOL0     H86932   8.921   6.992  10.262 -1.1627 -2.5914 -2.3303
  644MOL0     H86933   9.038   6.942  10.386  0.6755  0.6556 -2.0486
  644MOL0     H86934   8.814   6.864  10.518 -2.7819  0.3972  0.5133
  644MOL0     H86935   8.815   7.034  10.495  0.5009  1.5540 -3.1320
  644MOL0     H86936   8.492   6.948  10.257 -1.2269 -1.8609  2.0725
  644MOL0     H86937   9.292   7.004  10.102  1.9792  1.9657  0.5942
  644MOL0     H86938   9.630   7.094  10.174 -0.1413  0.9072 -1.0376
  644MOL0     H86939   9.595   7.054  10.002 -1.0750 -0.9063 -1.2759
  644MOL0     H86940   9.481   7.142  10.108  0.8330 -0.2473  0.4232
  645MOL0     O86941   0.204  10.996   5.898  0.5638  1.0383  0.2593
  645MOL0     C86942   0.156  11.080   5.975 -0.2610 -0.0101 -0.4919
  645MOL0     O86943   0.025  11.111   5.984  0.2350  0.8903 -0.1652
  645MOL0     C86944  -0.069  11.046   5.909  0.4057 -0.6378 -0.6556
  645MOL0     C86945  -0.053  11.001   5.777  0.4005 -0.8023  0.0394
  645MOL0     C86946  -0.151  10.933   5.711  0.3710 -0.0584  0.6828
  645MOL0     C86947  -0.271  10.902   5.772 -0.2518 -0.1688 -0.0027
  645MOL0     O86948  -0.361  10.835   5.701  0.0905 -0.1819  0.3767
  645MOL0     C86949  -0.489  10.898   5.666 -0.4476 -0.2204  0.8720
  645MOL0     C86950  -0.599  10.877   5.754 -0.3972 -0.0591 -0.6483
  645MOL0     C86951  -0.742  10.896   5.685 -0.2981 -0.1478  0.7541
  645MOL0     C86952  -0.853  10.868   5.780 -0.3412  0.2342 -0.8085
  645MOL0     C86953  -0.864  10.948   5.911  0.5129  0.2867  0.4757
  645MOL0     C86954  -0.848  11.102   5.898 -0.3182  0.1677  0.5809
  645MOL0     C86955  -0.858  11.177   6.036  0.4078  0.9305  0.1298
  645MOL0     C86956  -0.727  11.174   6.118 -0.1557  0.0776  0.3399
  645MOL0     N86957  -0.616  11.243   6.045  0.5369 -0.9200 -0.1058
  645MOL0     C86958  -0.603  11.376   6.023 -0.3091 -0.1631 -0.2948
  645MOL0     C86959  -0.479  11.391   5.979 -1.2789  0.2696  0.5373
  645MOL0     C86960  -0.407  11.516   5.933 -0.0394 -1.0297 -0.5365
  645MOL0     C86961  -0.252  11.515   5.959  0.0213 -0.0146  0.9202
  645MOL0     C86962  -0.214  11.533   6.105  0.0320  0.5080  0.8821
  645MOL0     C86963  -0.066  11.564   6.124  0.6939  0.8158  0.2926
  645MOL0     O86964  -0.028  11.673   6.037  0.1332 -0.0993 -0.1198
  645MOL0     C86965   0.105  11.717   6.064  0.2016  0.3417 -0.2877
  645MOL0     C86966   0.139  11.836   6.014 -0.4281 -0.3797 -1.0037
  645MOL0     C86967   0.263  11.900   6.037  0.2678  0.2435  0.6477
  645MOL0     C86968   0.367  11.822   6.088 -0.2898  0.1421  0.9600
  645MOL0     C86969   0.500  11.873   6.086 -0.6420 -0.2202  0.4165
  645MOL0     O86970   0.519  11.988   6.010 -0.1255  0.2616  1.1780
  645MOL0     C86971   0.640  12.051   6.005  0.6478  1.1443 -0.4786
  645MOL0     C86972   0.644  12.187   6.057  0.1183  0.2940  0.2959
  645MOL0     C86973   0.764  12.257   6.061  0.4531  0.6861 -0.0742
  645MOL0     C86974   0.883  12.200   6.008 -0.5456 -0.5384 -0.8146
  645MOL0     O86975   0.982  12.288   6.013  0.4556  0.0671  0.0760
  645MOL0     C86976   1.108  12.236   6.064  0.4300  0.6311 -0.7655
  645MOL0     C86977   1.227  12.337   6.061  0.0068 -0.1481 -0.2403
  645MOL0     C86978   1.283  12.369   5.923 -0.3170 -0.4543  0.2678
  645MOL0     C86979   1.384  12.496   5.923 -0.0560  0.0551  0.3337
  645MOL0     C86980   1.432  12.521   5.775 -0.5399  0.4843 -1.3323
  645MOL0     C86981   1.556  12.610   5.766  0.3143 -0.6221  0.5470
  645MOL0     C86982   1.580  12.646   5.617 -0.6818 -0.2289  0.2764
  645MOL0     C86983   1.627  12.787   5.600  0.1127 -0.1241 -0.0087
  645MOL0    Cl86984   1.702  12.806   5.450  0.3063 -0.4268 -0.1787
  645MOL0     C86985   0.876  12.075   5.945 -0.4126 -0.6960  0.1958
  645MOL0     C86986   0.751  12.010   5.933 -0.2305  0.1752  0.5353
  645MOL0     O86987   0.589  11.827   6.157 -1.1776 -0.3068 -0.0538
  645MOL0     C86988   0.333  11.700   6.153  1.2335  0.3831 -0.5017
  645MOL0     C86989   0.200  11.648   6.144  1.1018 -0.1042 -0.6923
  645MOL0     N86990  -0.412  11.265   5.977  0.2511  0.5298 -0.2737
  645MOL0     N86991  -0.497  11.186   6.033 -0.7224 -0.2808  0.1078
  645MOL0     C86992  -0.294  10.956   5.896  0.2318 -0.2310  0.1345
  645MOL0     C86993  -0.196  11.023   5.961  0.1782  1.0253 -0.6191
  645MOL0     C86994   0.249  11.145   6.074 -0.8421  0.0879 -0.4195
  645MOL0     C86995   0.199  11.184   6.197  0.7917  0.3360  0.4636
  645MOL0     C86996   0.281  11.242   6.295 -0.2744 -0.6065 -0.4155
  645MOL0     C86997   0.417  11.260   6.280 -0.2016  0.9076 -0.0916
  645MOL0     O86998   0.503  11.309   6.370 -0.2332 -0.3302  0.0852
  645MOL0     C86999   0.449  11.369   6.487 -0.2987  0.2180 -0.0134
  645MOL0     C87000   0.549  11.471   6.548 -0.2772 -0.4118 -0.1360
  645MOL0     C87001   0.583  11.579   6.451  0.3510  0.6974  0.5770
  645MOL0     C87002   0.725  11.625   6.468  0.0265 -0.0381 -0.8361
  645MOL0     C87003   0.752  11.683   6.608  0.5353 -0.1464 -1.0126
  645MOL0     C87004   0.748  11.738   6.720 -0.5574 -0.0126  0.1562
  645MOL0     C87005   0.472  11.217   6.154  0.6331  0.5685  0.9033
  645MOL0     C87006   0.387  11.169   6.051 -0.5987  0.2707 -0.4009
  645MOL0     C87007   0.460  11.147   5.920 -0.3784 -0.1786  1.3000
  645MOL0     H87008   0.042  11.019   5.727  0.8598  0.8862  1.4235
  645MOL0     H87009  -0.130  10.892   5.612 -2.5647  0.1270 -0.1172
  645MOL0     H87010  -0.478  11.007   5.666  1.9801 -0.3828  2.4057
  645MOL0     H87011  -0.516  10.864   5.565 -1.0124 -0.0052  0.9496
  645MOL0     H87012  -0.596  10.940   5.843 -1.3793 -0.2214 -0.4884
  645MOL0     H87013  -0.605  10.770   5.777 -1.3321  0.7041  3.5233
  645MOL0     H87014  -0.747  10.820   5.607  1.8578 -0.3035  0.6921
  645MOL0     H87015  -0.741  10.986   5.622  2.3817 -2.0700 -2.2869
  645MOL0     H87016  -0.941  10.903   5.726  0.9136  1.3834 -2.1980
  645MOL0     H87017  -0.847  10.762   5.807  1.8028  1.0264  2.4887
  645MOL0     H87018  -0.959  10.917   5.957 -0.3803  0.5527 -1.1294
  645MOL0     H87019  -0.784  10.925   5.982 -0.9499  0.7246  2.3744
  645MOL0     H87020  -0.751  11.124   5.852  0.4775 -1.8166  1.2236
  645MOL0     H87021  -0.919  11.138   5.823  2.5419  1.9537 -1.4710
  645MOL0     H87022  -0.945  11.126   6.080 -0.4981  2.5567  0.2878
  645MOL0     H87023  -0.891  11.278   6.010 -1.9688  0.4182  0.8497
  645MOL0     H87024  -0.737  11.224   6.214  1.6891  0.8989  0.1471
  645MOL0     H87025  -0.700  11.069   6.134 -2.0160 -1.0467 -2.8954
  645MOL0     H87026  -0.669  11.460   6.039 -0.2447 -0.4434  1.6335
  645MOL0     H87027  -0.421  11.522   5.825 -0.6319  1.8169 -0.3774
  645MOL0     H87028  -0.456  11.595   5.992  0.2224  1.1585 -3.0687
  645MOL0     H87029  -0.216  11.422   5.914 -2.1147  0.2087 -1.4892
  645MOL0     H87030  -0.204  11.590   5.896  1.6939 -2.5689 -1.0740
  645MOL0     H87031  -0.235  11.448   6.171 -0.3655  1.4516  2.0198
  645MOL0     H87032  -0.280  11.613   6.140  0.1321  1.3646 -0.8135
  645MOL0     H87033  -0.019  11.468   6.100 -0.4168  1.0147 -3.2576
  645MOL0     H87034  -0.048  11.586   6.230  2.5497  2.3012 -0.2775
  645MOL0     H87035   0.061  11.891   5.962  1.0136  2.2576 -0.6039
  645MOL0     H87036   0.271  12.001   5.998 -3.7176  0.4510 -0.0889
  645MOL0     H87037   0.556  12.229   6.105  1.1000  0.7866  1.6991
  645MOL0     H87038   0.761  12.350   6.117 -4.7344 -1.3336  3.7473
  645MOL0     H87039   1.080  12.193   6.161 -2.7042  2.2221 -0.8595
  645MOL0     H87040   1.139  12.149   6.005 -2.2239 -0.8722 -0.1010
  645MOL0     H87041   1.178  12.425   6.102 -0.6415  0.3109 -1.8978
  645MOL0     H87042   1.311  12.312   6.127  0.8987  1.0200 -0.8991
  645MOL0     H87043   1.338  12.281   5.888  2.4908  0.6094  1.6430
  645MOL0     H87044   1.197  12.396   5.862 -0.6083  2.3087  1.7371
  645MOL0     H87045   1.482  12.473   5.967  0.5951  1.8493 -0.0570
  645MOL0     H87046   1.344  12.582   5.977 -0.2693  0.7892 -0.9545
  645MOL0     H87047   1.347  12.565   5.723 -1.4425  0.6870  0.2587
  645MOL0     H87048   1.458  12.422   5.736 -1.5691 -0.7583  0.9513
  645MOL0     H87049   1.538  12.702   5.823 -2.5265 -0.8941  0.2269
  645MOL0     H87050   1.642  12.563   5.814  0.2671 -1.4716 -0.1907
  645MOL0     H87051   1.486  12.642   5.562 -1.0806  1.2475  0.8004
  645MOL0     H87052   1.654  12.577   5.574  0.1386 -0.5666  2.1462
  645MOL0     H87053   1.540  12.849   5.625 -0.8975 -2.3077  2.3908
  645MOL0     H87054   1.703  12.812   5.675 -0.6093 -0.6280  0.9190
  645MOL0     H87055   0.965  12.034   5.899  1.1549 -1.3377  3.4736
  645MOL0     H87056   0.733  11.922   5.872 -5.4731  2.7943 -2.3967
  645MOL0     H87057   0.409  11.643   6.205  2.4512  1.9315 -0.4921
  645MOL0     H87058   0.173  11.566   6.209  1.6002  0.7609  0.6659
  645MOL0     H87059  -0.392  10.951   5.941  0.7493  2.8534  1.9470
  645MOL0     H87060  -0.231  11.066   6.054 -0.9853  2.5396 -1.7146
  645MOL0     H87061   0.096  11.156   6.217  0.7128  0.1938 -0.1339
  645MOL0     H87062   0.228  11.273   6.384  0.5187  0.5642 -0.3358
  645MOL0     H87063   0.427  11.287   6.557  2.3559 -2.1103 -1.6673
  645MOL0     H87064   0.353  11.418   6.468 -1.1918 -1.7766 -0.9590
  645MOL0     H87065   0.637  11.423   6.591 -2.9943 -3.7890  2.2543
  645MOL0     H87066   0.506  11.514   6.639 -0.5969  0.1248 -0.5349
  645MOL0     H87067   0.515  11.663   6.465 -1.2764 -0.0446 -2.1243
  645MOL0     H87068   0.574  11.541   6.349  0.6451  0.9846  0.4396
  645MOL0     H87069   0.776  11.531   6.445 -2.6025 -1.2890 -2.0009
  645MOL0     H87070   0.751  11.702   6.393  2.4793  0.2618  0.2098
  645MOL0     H87071   0.734  11.796   6.808 -0.1426  0.2991  0.0200
  645MOL0     H87072   0.575  11.241   6.130 -0.0572  1.0630 -1.8906
  645MOL0     H87073   0.389  11.142   5.837  2.6708  0.2821 -1.5429
  645MOL0     H87074   0.536  11.222   5.897 -1.4270  0.4706 -0.2994
  645MOL0     H87075   0.505  11.048   5.928  1.0530  0.2841 -0.3551
  646MOL0     O87076  10.604   0.715  10.463 -0.1576 -0.0375  0.0257
  646MOL0     C87077  10.503   0.683  10.523  0.3458  0.2037 -0.0907
  646MOL0     O87078  10.467   0.725  10.643 -0.2758 -0.0847 -0.8703
  646MOL0     C87079  10.534   0.819  10.716 -0.9705  0.1631 -0.0468
  646MOL0     C87080  10.458   0.909  10.803 -0.2385 -0.0242 -0.5060
  646MOL0     C87081  10.523   1.002  10.881  0.4882  0.1769 -0.2656
  646MOL0     C87082  10.660   1.014  10.879  0.4225 -0.2052 -0.4699
  646MOL0     O87083  10.725   1.104  10.967 -0.5865  0.1298  0.6514
  646MOL0     C87084  10.669   1.228  10.988  0.3680 -0.2282  0.3157
  646MOL0     C87085  10.767   1.318  11.067  0.0579  1.2037  0.4668
  646MOL0     C87086  10.781   1.261  11.221  0.4518  0.0173 -0.6260
  646MOL0     C87087  10.833   1.362  11.329 -0.6024  0.1523 -0.6531
  646MOL0     C87088  10.876   1.300  11.468 -0.9118 -0.2323 -0.4678
  646MOL0     C87089  11.015   1.249  11.487  0.7845  0.0946  0.1030
  646MOL0     C87090  11.038   1.226  11.645  0.2547  0.2190 -0.4076
  646MOL0     C87091  11.087   1.088  11.680 -0.3462  0.8106  0.1940
  646MOL0     N87092  11.126   1.075  11.821 -0.5442  1.0521 -0.2451
  646MOL0     C87093  11.038   1.092  11.925 -0.0334  1.1718  0.2065
  646MOL0     C87094  11.089   1.022  12.037 -0.2165  0.2522 -0.3365
  646MOL0     C87095  11.032   0.989  12.170  0.1955 -0.3578 -0.0796
  646MOL0     C87096  10.934   1.092  12.235 -0.6420  0.0324 -0.5393
  646MOL0     C87097  10.998   1.235  12.273 -0.5299 -0.4139 -0.0805
  646MOL0     C87098  11.138   1.221  12.326  0.5266  1.4943  0.8131
  646MOL0     O87099  11.185   1.354  12.349  0.4834 -0.0664  0.1173
  646MOL0     C87100  11.259   1.409  12.253 -0.0034  0.0037 -0.8983
  646MOL0     C87101  11.263   1.551  12.263  0.2711 -0.5085  0.2732
  646MOL0     C87102  11.332   1.624  12.170 -0.0109 -0.0759  0.5423
  646MOL0     C87103  11.391   1.559  12.060  0.7269  0.1246  0.8432
  646MOL0     C87104  11.467   1.626  11.953 -0.1877  0.2885 -0.2343
  646MOL0     O87105  11.485   1.556  11.835  0.3842  0.8743 -0.3297
  646MOL0     C87106  11.571   1.582  11.727  0.3093  0.2073 -0.1822
  646MOL0     C87107  11.537   1.530  11.596  0.6458  0.4083 -0.7381
  646MOL0     C87108  11.616   1.564  11.494 -0.1161 -0.7667  1.6708
  646MOL0     C87109  11.735   1.638  11.503  0.3353  0.0117  0.1580
  646MOL0     O87110  11.796   1.679  11.384 -0.6559  0.1771 -0.0294
  646MOL0     C87111  11.912   1.600  11.355  0.1436 -0.2169 -0.4162
  646MOL0     C87112  12.003   1.655  11.247 -0.1428  0.7766 -0.2756
  646MOL0     C87113  11.929   1.687  11.116  0.0538 -1.3406  1.1791
  646MOL0     C87114  12.033   1.718  11.004 -1.3843 -0.6874 -0.1013
  646MOL0     C87115  11.970   1.791  10.878  0.9078  1.2709  0.0290
  646MOL0     C87116  12.062   1.881  10.798 -0.5253  1.0886  0.3779
  646MOL0     C87117  12.017   1.899  10.660 -0.6634 -0.0411  0.7774
  646MOL0     C87118  11.920   2.007  10.639  0.6324  0.1003  0.3551
  646MOL0    Cl87119  11.989   2.162  10.691 -0.2935  0.2787  0.0936
  646MOL0     C87120  11.764   1.686  11.626  0.0172  0.6888 -0.4000
  646MOL0     C87121  11.688   1.652  11.746 -0.0392  0.2674 -0.4315
  646MOL0     O87122  11.518   1.731  11.986 -0.6852  0.1806  1.0146
  646MOL0     C87123  11.374   1.425  12.049 -0.5578  0.3577 -0.2509
  646MOL0     C87124  11.311   1.351  12.138  0.1075  0.4520 -0.1013
  646MOL0     N87125  11.212   0.972  11.987 -0.1123 -0.5770  1.0555
  646MOL0     N87126  11.229   1.000  11.865  0.5851 -0.4097 -0.4016
  646MOL0     C87127  10.736   0.913  10.811  0.4242  0.4277  0.1025
  646MOL0     C87128  10.671   0.808  10.730 -0.6513 -1.7469  0.2471
  646MOL0     C87129  10.415   0.580  10.468  0.1600  0.0875 -0.8803
  646MOL0     C87130  10.285   0.579  10.515  0.3088  1.0739  1.2889
  646MOL0     C87131  10.196   0.483  10.452  0.0979 -0.1566  0.4728
  646MOL0     C87132  10.234   0.391  10.358  0.6939 -0.3008  0.7479
  646MOL0     O87133  10.143   0.291  10.322 -0.4058  0.1044  0.5575
  646MOL0     C87134  10.034   0.339  10.226 -0.2603  0.0970 -0.3685
  646MOL0     C87135  10.087   0.363  10.083 -0.8747 -0.2116  0.8595
  646MOL0     C87136  10.155   0.237  10.035  0.3684 -0.2477  0.3251
  646MOL0     C87137  10.228   0.238   9.903 -0.1084 -0.5039  0.1926
  646MOL0     C87138  10.358   0.316   9.911 -0.1707 -0.6506  0.1339
  646MOL0     C87139  10.463   0.381   9.918 -0.3089 -0.5452  0.6414
  646MOL0     C87140  10.373   0.381  10.333  0.4817 -0.6367  0.4938
  646MOL0     C87141  10.468   0.480  10.378  0.2331 -0.1492 -0.6011
  646MOL0     C87142  10.619   0.465  10.350 -0.3276 -0.1770  0.5044
  646MOL0     H87143  10.350   0.909  10.813 -0.2633  3.9444  1.3076
  646MOL0     H87144  10.443   1.060  10.925  0.6740 -0.2328  0.6277
  646MOL0     H87145  10.652   1.283  10.896  1.6042  2.1913  1.4443
  646MOL0     H87146  10.579   1.215  11.048  1.8363 -1.3024  2.4362
  646MOL0     H87147  10.717   1.412  11.091 -0.9296  0.3287  1.9234
  646MOL0     H87148  10.861   1.329  11.010  0.4142  3.3187  1.3595
  646MOL0     H87149  10.837   1.167  11.226  0.8546  0.2679 -0.2828
  646MOL0     H87150  10.679   1.237  11.252  0.6864 -2.0093 -1.3281
  646MOL0     H87151  10.915   1.420  11.285  1.2881 -1.1486  0.9770
  646MOL0     H87152  10.753   1.429  11.359 -0.6502 -1.6807  4.1487
  646MOL0     H87153  10.884   1.386  11.536 -1.1633  0.3587 -1.1674
  646MOL0     H87154  10.804   1.237  11.521 -0.5721  1.0889  1.6506
  646MOL0     H87155  11.041   1.156  11.435  0.5078 -0.8802  1.6374
  646MOL0     H87156  11.079   1.331  11.454  1.5973 -1.2540 -1.8756
  646MOL0     H87157  10.957   1.260  11.710  2.1293 -0.6605  2.5758
  646MOL0     H87158  11.114   1.301  11.669 -0.0553  0.2342  0.5579
  646MOL0     H87159  11.003   1.017  11.674 -0.1308  0.3786  1.8025
  646MOL0     H87160  11.163   1.051  11.611 -2.6960  0.6755 -2.4661
  646MOL0     H87161  10.942   1.142  11.912 -0.7455 -0.4932 -1.3537
  646MOL0     H87162  10.969   0.901  12.157  0.0248 -0.4075  0.9690
  646MOL0     H87163  11.112   0.956  12.236 -0.2604 -0.7885  0.2690
  646MOL0     H87164  10.839   1.108  12.184 -0.8584  1.8984  0.3421
  646MOL0     H87165  10.905   1.055  12.334  2.6472  1.8797  1.3058
  646MOL0     H87166  10.933   1.273  12.352 -3.6796 -3.8576 -0.7003
  646MOL0     H87167  10.987   1.281  12.175  1.1527 -0.0290 -0.1090
  646MOL0     H87168  11.207   1.156  12.271 -0.0934 -1.2743  3.0873
  646MOL0     H87169  11.136   1.168  12.422  0.6493  0.8334  0.4596
  646MOL0     H87170  11.194   1.593  12.335  1.7081 -0.1898  1.5239
  646MOL0     H87171  11.335   1.732  12.182 -3.5595  0.5446 -2.4963
  646MOL0     H87172  11.457   1.460  11.573  1.3843  0.5909 -4.4914
  646MOL0     H87173  11.602   1.521  11.395 -0.9163 -0.0128  1.4468
  646MOL0     H87174  11.971   1.599  11.447 -0.6793  3.3603  0.2957
  646MOL0     H87175  11.874   1.503  11.322  1.3699 -0.9493  0.2349
  646MOL0     H87176  12.062   1.739  11.285 -0.7825  0.4386  1.5486
  646MOL0     H87177  12.083   1.584  11.227 -0.2344  0.1077  1.5093
  646MOL0     H87178  11.871   1.597  11.092 -1.6689 -0.1699  0.7283
  646MOL0     H87179  11.874   1.781  11.124  4.0319  1.1559  1.4890
  646MOL0     H87180  12.090   1.635  10.961 -0.3142  0.0028 -0.0499
  646MOL0     H87181  12.111   1.776  11.053 -0.1267 -2.9115  0.6821
  646MOL0     H87182  11.884   1.849  10.913 -0.0591 -0.0579 -0.0348
  646MOL0     H87183  11.930   1.721  10.804  0.6366  2.1220 -0.6430
  646MOL0     H87184  12.078   1.973  10.855  1.6824  0.1291  1.4405
  646MOL0     H87185  12.154   1.821  10.798 -2.3029 -1.8985  2.1202
  646MOL0     H87186  11.975   1.805  10.622  0.5510  0.5697 -2.4222
  646MOL0     H87187  12.104   1.924  10.598 -0.6959 -0.1654  0.6806
  646MOL0     H87188  11.889   2.013  10.535  0.8300  0.0091  0.2917
  646MOL0     H87189  11.832   1.978  10.697  1.4921  0.7824  2.0870
  646MOL0     H87190  11.853   1.750  11.629 -0.5813  1.5226  1.5307
  646MOL0     H87191  11.702   1.692  11.846  2.1629  1.0645 -0.9825
  646MOL0     H87192  11.408   1.363  11.966 -0.6599  1.8582 -1.4522
  646MOL0     H87193  11.300   1.244  12.135  2.6730  0.1496 -1.4053
  646MOL0     H87194  10.842   0.903  10.833  0.1625 -1.7676  0.6682
  646MOL0     H87195  10.714   0.718  10.687  0.5074 -1.2505  0.3328
  646MOL0     H87196  10.241   0.656  10.578  1.9885  4.1011 -0.9380
  646MOL0     H87197  10.093   0.468  10.481 -0.5997  0.4225 -1.5416
  646MOL0     H87198   9.991   0.428  10.274 -0.3773  0.5147 -1.2196
  646MOL0     H87199   9.953   0.268  10.209 -0.5303  0.7435 -2.0452
  646MOL0     H87200  10.156   0.448  10.071  1.8108 -2.5893 -2.8358
  646MOL0     H87201  10.004   0.390  10.016  0.9086 -1.7425 -2.2116
  646MOL0     H87202  10.082   0.156  10.030  1.4946 -1.3442  1.0285
  646MOL0     H87203  10.221   0.197  10.113  2.7652 -0.5174 -1.7499
  646MOL0     H87204  10.247   0.137   9.863 -1.2055  1.3255 -6.1163
  646MOL0     H87205  10.164   0.285   9.827 -3.1773 -2.8631  1.0923
  646MOL0     H87206  10.556   0.434   9.912 -0.3294 -0.5740  0.0185
  646MOL0     H87207  10.410   0.303  10.266  1.4636 -0.5449  0.9053
  646MOL0     H87208  10.657   0.544  10.285 -0.7126 -1.8527 -1.8790
  646MOL0     H87209  10.682   0.466  10.440  0.4193 -4.5466  0.2646
  646MOL0     H87210  10.627   0.365  10.305  0.2535  0.0238  0.1489
  647MOL0     O87211   1.473   1.374   7.574 -0.1910 -0.2312  0.1253
  647MOL0     C87212   1.460   1.274   7.504 -0.4964  0.3587  0.3199
  647MOL0     O87213   1.482   1.138   7.542 -0.1002 -0.0622  0.2267
  647MOL0     C87214   1.516   1.114   7.679  0.3401 -0.5518  0.7696
  647MOL0     C87215   1.436   1.018   7.733  0.0738  0.1931  1.6606
  647MOL0     C87216   1.467   0.980   7.868 -0.4936 -0.1589 -0.0166
  647MOL0     C87217   1.565   1.047   7.942  0.4626  0.2544 -0.0767
  647MOL0     O87218   1.595   1.004   8.071 -0.1830  0.0453 -0.0985
  647MOL0     C87219   1.605   0.862   8.102  0.2358  0.1006 -1.2342
  647MOL0     C87220   1.729   0.829   8.203 -0.4900  0.8628 -0.1974
  647MOL0     C87221   1.858   0.889   8.144 -0.0533  0.9563 -0.0466
  647MOL0     C87222   1.979   0.850   8.228  0.3358  0.2970  0.8367
  647MOL0     C87223   2.098   0.939   8.190  0.3553  0.6250 -1.1737
  647MOL0     C87224   2.236   0.862   8.207 -0.0813 -0.1286  0.3893
  647MOL0     C87225   2.349   0.936   8.135 -0.4996  0.6186 -0.2080
  647MOL0     C87226   2.488   0.891   8.203  0.4420 -0.1634  0.2546
  647MOL0     N87227   2.500   0.734   8.199  0.3628 -0.0695  0.4472
  647MOL0     C87228   2.534   0.656   8.092  0.2293  0.0091  0.7743
  647MOL0     C87229   2.509   0.523   8.132 -0.3130  0.6445  0.8731
  647MOL0     C87230   2.542   0.403   8.046  0.6737  0.0048  0.0287
  647MOL0     C87231   2.424   0.370   7.959  0.3558 -0.0196 -0.3123
  647MOL0     C87232   2.414   0.229   7.910  0.5664  0.3240  0.3126
  647MOL0     C87233   2.274   0.201   7.858 -0.0099  0.0803  1.0841
  647MOL0     O87234   2.273   0.077   7.793 -0.7989 -0.4819 -0.1736
  647MOL0     C87235   2.160   0.018   7.753  0.0868  0.3481  0.4554
  647MOL0     C87236   2.037   0.069   7.722  0.9773 -1.3727 -0.8903
  647MOL0     C87237   1.927  -0.004   7.671  0.4148 -0.1447 -0.0673
  647MOL0     C87238   1.948  -0.139   7.625 -0.7868  0.4478 -0.4679
  647MOL0     C87239   1.844  -0.222   7.550 -0.1973 -0.1833  0.7987
  647MOL0     O87240   1.860  -0.354   7.548  0.1632 -0.4600 -0.1950
  647MOL0     C87241   1.784  -0.428   7.460 -0.4718 -0.6391  0.3162
  647MOL0     C87242   1.845  -0.493   7.352 -0.4093  0.7874  0.6371
  647MOL0     C87243   1.762  -0.568   7.257  0.1562 -0.0279 -0.5924
  647MOL0     C87244   1.620  -0.584   7.272 -0.6359  1.2864  0.0555
  647MOL0     O87245   1.544  -0.669   7.198  0.0753 -1.3162 -0.3925
  647MOL0     C87246   1.588  -0.803   7.207 -0.5108  1.0224  0.7642
  647MOL0     C87247   1.486  -0.913   7.166 -0.1836  0.4347 -0.1858
  647MOL0     C87248   1.457  -0.908   7.014 -0.2916  0.0943 -0.0726
  647MOL0     C87249   1.333  -0.986   6.984  0.2795  1.3661  0.0288
  647MOL0     C87250   1.264  -0.984   6.844 -0.0232 -0.0332  0.1554
  647MOL0     C87251   1.355  -1.047   6.734  0.7216 -0.7531  0.6357
  647MOL0     C87252   1.288  -1.045   6.594  0.2204  0.7411  0.0819
  647MOL0     C87253   1.147  -1.106   6.589  0.5206 -0.1564  0.3359
  647MOL0    Cl87254   1.151  -1.289   6.630 -0.0456 -0.1128 -0.0411
  647MOL0     C87255   1.571  -0.519   7.376 -0.2424 -0.9145  0.0069
  647MOL0     C87256   1.647  -0.448   7.474 -0.0330 -0.2145 -0.9243
  647MOL0     O87257   1.753  -0.153   7.493  0.1410 -0.1908 -1.3503
  647MOL0     C87258   2.073  -0.197   7.656  0.0982 -0.2627 -0.6880
  647MOL0     C87259   2.174  -0.121   7.723  0.2416 -0.6492 -0.8167
  647MOL0     N87260   2.471   0.525   8.258  0.2366 -0.1091  0.4317
  647MOL0     N87261   2.474   0.650   8.302 -0.2295  0.1307 -0.4589
  647MOL0     C87262   1.643   1.147   7.875  1.0170  0.0309 -0.2835
  647MOL0     C87263   1.615   1.179   7.745 -1.4735  0.1575 -0.8553
  647MOL0     C87264   1.446   1.305   7.352 -0.6998 -0.2918 -0.3415
  647MOL0     C87265   1.446   1.439   7.308  0.6268 -0.1441 -0.8704
  647MOL0     C87266   1.436   1.474   7.180  0.6767 -0.0631  0.7958
  647MOL0     C87267   1.403   1.384   7.081 -0.0406  0.2364  0.5581
  647MOL0     O87268   1.361   1.411   6.951 -0.1293  0.3918 -0.0051
  647MOL0     C87269   1.356   1.552   6.920 -1.0522  0.5245  0.1607
  647MOL0     C87270   1.229   1.610   6.975 -0.6443 -0.5422 -0.4289
  647MOL0     C87271   1.110   1.542   6.926  0.2406  0.9685 -0.0579
  647MOL0     C87272   0.991   1.632   6.955  0.8169  0.1016 -0.0402
  647MOL0     C87273   0.865   1.560   6.954 -0.3395  0.2026 -0.0776
  647MOL0     C87274   0.762   1.506   6.929  0.1027 -0.5620  0.1135
  647MOL0     C87275   1.391   1.246   7.108 -0.3195 -0.7833 -0.0434
  647MOL0     C87276   1.413   1.209   7.244 -0.3692  0.2677 -0.1895
  647MOL0     C87277   1.387   1.068   7.276 -0.1755 -0.3430  0.5978
  647MOL0     H87278   1.371   0.971   7.660  0.4227  0.3052  1.2692
  647MOL0     H87279   1.417   0.896   7.915 -0.0380 -2.2566 -2.9804
  647MOL0     H87280   1.522   0.820   8.159  1.3510 -0.3355  0.1183
  647MOL0     H87281   1.631   0.805   8.012  1.2814 -4.1427  1.4621
  647MOL0     H87282   1.751   0.722   8.195 -3.5773  0.1955 -1.2177
  647MOL0     H87283   1.708   0.859   8.306 -1.7944  1.9623 -0.7612
  647MOL0     H87284   1.846   0.998   8.144  3.4226  1.4943 -1.8165
  647MOL0     H87285   1.868   0.857   8.040 -1.3816  3.9422 -1.1947
  647MOL0     H87286   1.951   0.848   8.334 -0.8472 -1.2056  0.5347
  647MOL0     H87287   1.983   0.746   8.194 -0.8451  0.7166 -0.6884
  647MOL0     H87288   2.084   0.967   8.086 -1.3200  0.3556 -1.0412
  647MOL0     H87289   2.105   1.022   8.261  1.2642 -0.9997  0.7235
  647MOL0     H87290   2.276   0.861   8.309  0.5115  0.3249  0.1738
  647MOL0     H87291   2.229   0.760   8.167  0.1252  0.5104 -1.3590
  647MOL0     H87292   2.333   1.044   8.126  2.6760  1.4276  2.2387
  647MOL0     H87293   2.334   0.896   8.034  2.3243 -1.7550  0.1741
  647MOL0     H87294   2.569   0.938   8.147  1.0704  2.8344  3.3511
  647MOL0     H87295   2.508   0.928   8.304  2.5561 -2.9128  0.9824
  647MOL0     H87296   2.567   0.692   7.995 -2.9076 -1.6819 -1.0858
  647MOL0     H87297   2.623   0.419   7.975 -0.6241 -0.9457 -1.7752
  647MOL0     H87298   2.559   0.317   8.112  0.3359 -1.3856 -1.6242
  647MOL0     H87299   2.341   0.400   8.024  0.1445 -1.1522 -0.0500
  647MOL0     H87300   2.427   0.430   7.868 -0.7432 -1.3387 -1.2446
  647MOL0     H87301   2.423   0.156   7.991  1.1446 -0.1362 -0.1577
  647MOL0     H87302   2.475   0.212   7.821  0.0229 -1.3746  0.2215
  647MOL0     H87303   2.242   0.265   7.775 -1.4637 -1.9818 -0.0515
  647MOL0     H87304   2.199   0.201   7.938  0.5077  2.6680  1.6807
  647MOL0     H87305   2.015   0.172   7.747 -0.1302 -1.4771 -1.3809
  647MOL0     H87306   1.831   0.041   7.649 -0.9818 -2.4986  0.7491
  647MOL0     H87307   1.951  -0.468   7.349 -0.2970  0.2527 -0.3665
  647MOL0     H87308   1.816  -0.632   7.188  0.8090 -1.2084  0.9468
  647MOL0     H87309   1.659  -0.800   7.124  0.5049 -0.5538  1.5195
  647MOL0     H87310   1.629  -0.830   7.305 -0.2689 -0.4777  0.2797
  647MOL0     H87311   1.541  -1.005   7.185  0.3245  0.8651  0.4572
  647MOL0     H87312   1.396  -0.907   7.228  1.2169  1.0442  1.8827
  647MOL0     H87313   1.432  -0.805   6.985 -1.2712 -0.7285 -2.3541
  647MOL0     H87314   1.550  -0.939   6.966  1.0076  3.1454  0.2292
  647MOL0     H87315   1.256  -0.964   7.058  2.1145  1.2800  2.0517
  647MOL0     H87316   1.364  -1.088   7.008 -1.6620  0.9756  1.1052
  647MOL0     H87317   1.247  -0.878   6.820  1.2471  0.9394  3.0704
  647MOL0     H87318   1.165  -1.030   6.851 -0.8825  1.4368 -1.5935
  647MOL0     H87319   1.444  -0.985   6.720  0.7834 -0.6589  1.4141
  647MOL0     H87320   1.388  -1.143   6.775 -0.4219  0.3400  4.5372
  647MOL0     H87321   1.356  -1.114   6.542  0.4272 -0.5050  1.9066
  647MOL0     H87322   1.290  -0.946   6.548 -1.1920  0.4937 -0.5730
  647MOL0     H87323   1.065  -1.064   6.648  0.0547 -0.4495 -0.0935
  647MOL0     H87324   1.118  -1.103   6.483  0.0018  1.3109  0.5039
  647MOL0     H87325   1.464  -0.522   7.393 -0.2558  2.0154  1.0157
  647MOL0     H87326   1.596  -0.394   7.554  0.8064 -1.5830  0.6154
  647MOL0     H87327   2.095  -0.303   7.641  1.9120  0.1680 -1.3063
  647MOL0     H87328   2.264  -0.171   7.758  1.5220  2.2189  0.3121
  647MOL0     H87329   1.727   1.200   7.919  0.3191  1.5251 -0.6753
  647MOL0     H87330   1.664   1.258   7.689 -0.0704  0.6148  0.9161
  647MOL0     H87331   1.453   1.522   7.377 -2.7614  0.1650 -0.7299
  647MOL0     H87332   1.448   1.579   7.156 -1.2627 -0.6396 -3.7340
  647MOL0     H87333   1.350   1.555   6.811 -5.2709  0.2890  0.2199
  647MOL0     H87334   1.447   1.606   6.949 -0.7937 -0.4088  1.1610
  647MOL0     H87335   1.239   1.707   6.926 -2.7360 -0.4538 -0.7659
  647MOL0     H87336   1.228   1.615   7.084 -2.4771 -2.2612 -0.3101
  647MOL0     H87337   1.105   1.442   6.971 -0.0009  0.3859 -1.3274
  647MOL0     H87338   1.125   1.520   6.820 -0.1948  3.7435 -0.7855
  647MOL0     H87339   1.000   1.686   7.049  2.3643  0.5060 -0.3926
  647MOL0     H87340   0.990   1.709   6.878  1.7314  0.4118  0.2456
  647MOL0     H87341   0.670   1.455   6.910  0.7714 -0.5698 -3.9180
  647MOL0     H87342   1.363   1.180   7.027 -0.0255 -2.4715  1.1655
  647MOL0     H87343   1.462   1.008   7.329  1.7978  0.2833 -1.2971
  647MOL0     H87344   1.295   1.069   7.335 -0.7726  2.5232 -0.2223
  647MOL0     H87345   1.371   1.016   7.181 -1.6028 -1.7646  1.5767
  648MOL0     O87346   9.189   2.847   9.116 -0.4615 -0.8066 -0.2309
  648MOL0     C87347   9.245   2.898   9.020 -0.3935 -0.5222 -0.2300
  648MOL0     O87348   9.277   3.027   9.002  1.1147 -1.0623  0.2782
  648MOL0     C87349   9.263   3.135   9.081 -0.1372 -0.2040  0.4638
  648MOL0     C87350   9.263   3.261   9.024 -0.0666  0.3086  0.5740
  648MOL0     C87351   9.243   3.375   9.107 -0.6771  1.4480 -0.2540
  648MOL0     C87352   9.236   3.364   9.247 -0.6318 -0.3655  0.2338
  648MOL0     O87353   9.227   3.478   9.329  0.6096  0.1398 -0.2762
  648MOL0     C87354   9.138   3.588   9.290  0.9314  0.4367 -0.2784
  648MOL0     C87355   9.078   3.662   9.414 -0.8097  0.2625 -0.4508
  648MOL0     C87356   9.059   3.572   9.538 -0.3706  0.8745 -0.5459
  648MOL0     C87357   8.946   3.634   9.620  0.2927 -0.4002 -1.2012
  648MOL0     C87358   8.921   3.558   9.753 -0.4791 -0.4492  0.1704
  648MOL0     C87359   9.032   3.577   9.853  0.0937 -0.4448 -1.0853
  648MOL0     C87360   8.992   3.530   9.997  0.2975  0.6566  1.1894
  648MOL0     C87361   9.112   3.555  10.088  0.4182 -0.6767 -0.6253
  648MOL0     N87362   9.071   3.509  10.225  0.1629  0.8275 -0.7575
  648MOL0     C87363   9.075   3.383  10.271  0.5999  0.0840 -0.6083
  648MOL0     C87364   9.069   3.395  10.411 -0.7183 -0.1026 -0.1044
  648MOL0     C87365   9.084   3.271  10.492  0.2745  0.2475  0.5579
  648MOL0     C87366   8.949   3.230  10.547  0.4045  0.5943 -0.1577
  648MOL0     C87367   8.942   3.082  10.586  0.1222 -0.6007  0.2641
  648MOL0     C87368   8.836   3.040  10.692  0.1501  0.0699  0.0596
  648MOL0     O87369   8.697   3.067  10.641  0.0034  0.4709 -0.2719
  648MOL0     C87370   8.606   3.095  10.736  0.1916 -1.3727 -0.0628
  648MOL0     C87371   8.505   3.189  10.696 -0.2992 -0.0626 -0.0205
  648MOL0     C87372   8.412   3.245  10.786  0.5096  0.0258  0.6029
  648MOL0     C87373   8.412   3.205  10.924 -0.0268  0.7422 -0.0807
  648MOL0     C87374   8.315   3.267  11.030 -0.3606  0.6524 -0.6183
  648MOL0     O87375   8.227   3.354  10.974 -0.4658 -0.1439 -0.7361
  648MOL0     C87376   8.118   3.374  11.046 -0.3766  0.6037  0.5050
  648MOL0     C87377   8.095   3.485  11.118  0.1039 -0.0291 -0.1568
  648MOL0     C87378   7.977   3.515  11.180 -0.5334 -0.7333 -0.0148
  648MOL0     C87379   7.871   3.424  11.170  1.4990  0.1021  0.0889
  648MOL0     O87380   7.748   3.452  11.231  0.8841 -0.3967 -0.0600
  648MOL0     C87381   7.628   3.390  11.177 -0.1522  0.1347  0.1268
  648MOL0     C87382   7.520   3.504  11.176 -0.3421 -0.7620 -0.7194
  648MOL0     C87383   7.552   3.620  11.075  0.8545  0.5017 -0.2123
  648MOL0     C87384   7.431   3.721  11.057  0.2818  0.1990 -0.4793
  648MOL0     C87385   7.307   3.684  10.974 -0.3000 -0.1824  0.3864
  648MOL0     C87386   7.352   3.687  10.826 -0.5617 -0.8636 -0.4321
  648MOL0     C87387   7.231   3.647  10.747 -0.7682  0.2238  0.2984
  648MOL0     C87388   7.211   3.498  10.726 -0.2772  0.3157 -0.6402
  648MOL0    Cl87389   7.081   3.472  10.608  0.2477 -0.0132 -0.0865
  648MOL0     C87390   7.900   3.294  11.122  0.1018 -1.2836 -0.2055
  648MOL0     C87391   8.026   3.273  11.050  0.6126  0.2041 -0.2679
  648MOL0     O87392   8.333   3.242  11.151  0.1003 -0.2509  0.8780
  648MOL0     C87393   8.509   3.102  10.962 -0.1894  0.0009 -0.6574
  648MOL0     C87394   8.603   3.054  10.869  0.2254 -0.1044 -0.5309
  648MOL0     N87395   9.057   3.526  10.440  0.5199 -0.1591  0.4076
  648MOL0     N87396   9.055   3.593  10.333  0.7000 -0.0383  0.2474
  648MOL0     C87397   9.238   3.243   9.303 -0.3397  0.6177  0.5261
  648MOL0     C87398   9.251   3.128   9.221  0.0100 -0.1734 -0.0822
  648MOL0     C87399   9.279   2.807   8.903 -0.1266 -0.4265 -0.0517
  648MOL0     C87400   9.348   2.870   8.796 -0.5958  0.3787  0.3511
  648MOL0     C87401   9.388   2.790   8.694 -0.0019  0.0026  0.5682
  648MOL0     C87402   9.367   2.645   8.693 -0.4883 -0.3554  0.0273
  648MOL0     O87403   9.411   2.579   8.571 -0.2664 -0.2255 -0.1066
  648MOL0     C87404   9.368   2.445   8.533 -0.7439 -0.2587  0.1624
  648MOL0     C87405   9.479   2.348   8.575  0.4689  0.7859  0.3620
  648MOL0     C87406   9.456   2.212   8.503  0.1527  0.3221  0.2014
  648MOL0     C87407   9.557   2.097   8.539 -0.2144 -0.3422 -0.0833
  648MOL0     C87408   9.678   2.134   8.620 -0.4592  0.0072  0.0471
  648MOL0     C87409   9.780   2.160   8.680  0.8144 -0.8494  0.2151
  648MOL0     C87410   9.293   2.581   8.799 -0.9759 -0.4156 -0.3270
  648MOL0     C87411   9.247   2.664   8.909 -0.7451  0.7079  0.0795
  648MOL0     C87412   9.178   2.589   9.029 -0.4122  0.1508 -0.2840
  648MOL0     H87413   9.277   3.285   8.919 -0.9505 -0.0115  0.3732
  648MOL0     H87414   9.246   3.479   9.077  1.3536  1.3243 -0.6544
  648MOL0     H87415   9.192   3.656   9.225  3.7349 -0.2991  1.1396
  648MOL0     H87416   9.052   3.542   9.239 -0.8575  3.2463 -0.0255
  648MOL0     H87417   8.982   3.690   9.371 -0.7431 -2.2329 -2.4592
  648MOL0     H87418   9.147   3.740   9.450 -1.0071  0.2301  0.0040
  648MOL0     H87419   9.152   3.572   9.596  0.4023  0.3156 -1.7560
  648MOL0     H87420   9.034   3.470   9.507  0.7842  0.8145 -1.3715
  648MOL0     H87421   8.980   3.737   9.635 -2.2758  0.6567 -2.0095
  648MOL0     H87422   8.858   3.615   9.556  0.2049 -1.9929 -0.6432
  648MOL0     H87423   8.826   3.601   9.787  0.5281 -0.1463  2.8871
  648MOL0     H87424   8.917   3.449   9.742  1.6762 -0.6634  0.9909
  648MOL0     H87425   9.119   3.516   9.830 -0.6761 -1.4702 -1.3441
  648MOL0     H87426   9.060   3.682   9.839 -1.2184 -0.3349 -3.3676
  648MOL0     H87427   8.976   3.424   9.980 -1.5640  0.9062  1.1329
  648MOL0     H87428   8.900   3.580  10.030  0.6295  2.1223 -0.0046
  648MOL0     H87429   9.198   3.494  10.058 -1.3020 -2.8969 -1.2250
  648MOL0     H87430   9.136   3.662  10.093  0.4542 -0.7207  0.1818
  648MOL0     H87431   9.085   3.291  10.215 -0.6632 -1.2888  1.3025
  648MOL0     H87432   9.119   3.192  10.425 -1.2077  1.7814 -2.1988
  648MOL0     H87433   9.161   3.281  10.569  1.0932 -0.9911 -0.0629
  648MOL0     H87434   8.908   3.284  10.633 -0.4612 -3.1196  1.9975
  648MOL0     H87435   8.878   3.251  10.466 -2.5162 -2.0604  1.4720
  648MOL0     H87436   9.032   3.062  10.643 -1.4791 -1.0829  2.7821
  648MOL0     H87437   8.933   3.025  10.493 -0.1179 -3.2452  1.8112
  648MOL0     H87438   8.859   3.105  10.777  0.8694 -0.7916  0.5387
  648MOL0     H87439   8.836   2.935  10.723 -2.0719  0.1844  0.6680
  648MOL0     H87440   8.522   3.218  10.593  0.4063 -0.9287 -0.1706
  648MOL0     H87441   8.346   3.323  10.749  0.3613  1.1772  3.1580
  648MOL0     H87442   8.173   3.560  11.124 -0.8221  1.0136 -0.8120
  648MOL0     H87443   7.968   3.608  11.236  1.4631  0.2821 -1.2721
  648MOL0     H87444   7.634   3.346  11.077 -2.0378 -3.6296  1.4444
  648MOL0     H87445   7.600   3.308  11.244  2.4991 -0.9163  0.0526
  648MOL0     H87446   7.428   3.456  11.141 -0.5242 -0.4694 -0.6548
  648MOL0     H87447   7.503   3.545  11.276  1.4935  2.1740 -1.4925
  648MOL0     H87448   7.640   3.680  11.102  0.2691  0.5901  1.5975
  648MOL0     H87449   7.564   3.577  10.975 -0.3292 -0.0879 -0.1051
  648MOL0     H87450   7.475   3.811  11.012 -2.4800  1.9123  0.0243
  648MOL0     H87451   7.403   3.754  11.158  1.2219  0.7051 -0.3694
  648MOL0     H87452   7.230   3.761  10.986 -0.1007  0.8785 -3.8040
  648MOL0     H87453   7.282   3.580  10.995  1.5952 -0.6026  0.7408
  648MOL0     H87454   7.382   3.790  10.803 -2.6299 -0.5529 -1.9819
  648MOL0     H87455   7.436   3.617  10.817  2.4763  2.7486 -4.2935
  648MOL0     H87456   7.228   3.690  10.646  0.4648 -2.6915 -1.0988
  648MOL0     H87457   7.144   3.677  10.806  0.7247  3.0617  1.2397
  648MOL0     H87458   7.308   3.452  10.703 -0.4183 -0.0347 -0.5445
  648MOL0     H87459   7.179   3.448  10.818 -0.6569  1.9511  0.1564
  648MOL0     H87460   7.823   3.218  11.125 -2.1169  0.7669 -1.9828
  648MOL0     H87461   8.030   3.176  11.001 -2.6650 -0.8230  1.2455
  648MOL0     H87462   8.516   3.056  11.060 -2.2961  2.2842  0.6953
  648MOL0     H87463   8.669   2.973  10.902 -0.6873 -1.1237 -1.1576
  648MOL0     H87464   9.221   3.240   9.410  1.2362  0.0992  0.7780
  648MOL0     H87465   9.254   3.027   9.261 -1.4997 -0.3755 -0.4284
  648MOL0     H87466   9.371   2.976   8.792  1.5656 -0.0711 -2.3319
  648MOL0     H87467   9.448   2.824   8.611  0.7101 -3.0634 -0.2900
  648MOL0     H87468   9.364   2.433   8.424  4.1771  1.9529 -0.5323
  648MOL0     H87469   9.274   2.411   8.579  0.6637 -1.3837  2.3606
  648MOL0     H87470   9.475   2.320   8.681  1.1295  0.7220  0.3797
  648MOL0     H87471   9.581   2.376   8.545  0.5434 -2.5896 -3.4023
  648MOL0     H87472   9.487   2.228   8.399  0.2914 -0.5471  0.0977
  648MOL0     H87473   9.350   2.186   8.511  0.9534 -5.0103 -2.0106
  648MOL0     H87474   9.519   2.010   8.595  2.7948 -1.5183  0.2921
  648MOL0     H87475   9.598   2.054   8.448  0.4896 -0.6009  0.3515
  648MOL0     H87476   9.878   2.184   8.716 -0.4412  2.3622  1.8805
  648MOL0     H87477   9.258   2.478   8.800 -1.7113 -0.1978 -1.2710
  648MOL0     H87478   9.073   2.620   9.032 -0.1225  1.2180 -0.7149
  648MOL0     H87479   9.182   2.480   9.017 -2.2189  0.1870 -1.6032
  648MOL0     H87480   9.230   2.615   9.122 -2.1988 -1.7198  1.3586
  649MOL0     O87481   1.624   7.231   2.551  0.5024  0.2162  0.6174
  649MOL0     C87482   1.617   7.110   2.552 -0.2081  0.4932  0.1240
  649MOL0     O87483   1.713   7.017   2.595  0.4173 -0.7061  0.4411
  649MOL0     C87484   1.845   7.038   2.624  0.0161  1.0108  0.5029
  649MOL0     C87485   1.927   7.104   2.542 -1.1138 -0.5909 -0.6662
  649MOL0     C87486   2.065   7.122   2.590  0.1410  0.4258  0.3568
  649MOL0     C87487   2.107   7.081   2.714  0.5805  0.2275 -0.1885
  649MOL0     O87488   2.238   7.107   2.765  0.4695  0.5496 -1.0413
  649MOL0     C87489   2.306   7.219   2.708  0.6869 -0.9887 -0.2268
  649MOL0     C87490   2.439   7.239   2.783 -0.8348  0.0524 -0.1430
  649MOL0     C87491   2.523   7.348   2.711  0.0873 -0.6861 -0.1130
  649MOL0     C87492   2.496   7.386   2.564 -0.7375 -0.8853 -0.5498
  649MOL0     C87493   2.579   7.508   2.526 -0.0651  0.4116  0.2280
  649MOL0     C87494   2.557   7.545   2.378  0.3872 -0.7597 -0.2854
  649MOL0     C87495   2.647   7.660   2.344  0.8014 -0.2596 -0.0220
  649MOL0     C87496   2.592   7.766   2.244  0.4581 -0.7291  0.7557
  649MOL0     N87497   2.702   7.864   2.217  0.0912  0.1293  0.4219
  649MOL0     C87498   2.818   7.841   2.147 -0.4435 -0.6743  0.3888
  649MOL0     C87499   2.885   7.956   2.150 -0.9986 -0.6047 -0.3741
  649MOL0     C87500   3.020   7.966   2.080  0.7758 -0.5362  1.1069
  649MOL0     C87501   3.135   7.942   2.178 -0.4619 -0.8177 -0.5853
  649MOL0     C87502   3.119   8.049   2.286 -0.9389  0.1115 -0.9122
  649MOL0     C87503   3.268   8.100   2.310  0.4410  0.4653  0.7861
  649MOL0     O87504   3.348   8.002   2.372  0.1582 -0.6128  0.4439
  649MOL0     C87505   3.482   8.014   2.346  0.3023 -0.3575  0.0699
  649MOL0     C87506   3.555   8.134   2.315 -0.2681  0.0565  0.5819
  649MOL0     C87507   3.692   8.125   2.285 -0.7608 -0.7490 -0.3089
  649MOL0     C87508   3.755   8.002   2.281  0.4512  0.4593  0.6060
  649MOL0     C87509   3.892   7.985   2.217  0.0229  0.1547  0.0239
  649MOL0     O87510   3.945   8.098   2.170  0.5399  0.5069 -0.4493
  649MOL0     C87511   4.071   8.078   2.122 -0.2043  0.0108 -0.2194
  649MOL0     C87512   4.096   8.111   1.986 -0.6032  1.1372 -0.1251
  649MOL0     C87513   4.225   8.081   1.936 -0.2409 -0.0773 -0.6166
  649MOL0     C87514   4.326   8.034   2.022  0.5100 -0.7908  0.4637
  649MOL0     O87515   4.453   7.999   1.978  0.9643 -1.1161 -0.2179
  649MOL0     C87516   4.504   8.070   1.863 -0.1006 -0.3443 -0.5292
  649MOL0     C87517   4.636   8.014   1.818 -0.6372 -0.7555  0.7244
  649MOL0     C87518   4.749   7.995   1.919 -0.1290  0.3791 -0.1231
  649MOL0     C87519   4.804   8.124   1.984 -0.4696 -0.2905  0.4322
  649MOL0     C87520   4.927   8.171   1.911 -0.1721 -0.3609 -0.7525
  649MOL0     C87521   5.057   8.097   1.945 -0.4024 -0.1588  0.3151
  649MOL0     C87522   5.176   8.177   1.909 -1.4390 -0.1578  1.2602
  649MOL0     C87523   5.315   8.117   1.920 -1.1310 -0.6547  0.1130
  649MOL0    Cl87524   5.393   8.128   2.082 -0.0152  0.0483 -0.3105
  649MOL0     C87525   4.306   8.010   2.158  0.2586  0.2228  0.1524
  649MOL0     C87526   4.173   8.032   2.208  0.1262 -0.5576  0.3071
  649MOL0     O87527   3.937   7.871   2.207 -0.3190  0.5025 -0.0958
  649MOL0     C87528   3.690   7.888   2.327  0.9089 -0.7888 -0.1400
  649MOL0     C87529   3.556   7.892   2.367  0.4018  0.5399  0.7101
  649MOL0     N87530   2.824   8.046   2.241  0.6307 -0.1342  0.9646
  649MOL0     N87531   2.708   7.992   2.270  0.1107  0.2547 -0.2103
  649MOL0     C87532   2.020   7.014   2.803 -0.2381 -0.1797 -0.0693
  649MOL0     C87533   1.887   6.993   2.751  0.4621 -0.0624  0.0906
  649MOL0     C87534   1.483   7.043   2.512 -0.6267 -0.6047 -0.0819
  649MOL0     C87535   1.436   6.924   2.573  0.1672 -0.4106 -0.4726
  649MOL0     C87536   1.319   6.864   2.525  0.2595  0.4443 -0.2396
  649MOL0     C87537   1.244   6.911   2.421  0.0315  0.3263  0.8383
  649MOL0     O87538   1.139   6.840   2.381 -0.0794  0.2962  0.1965
  649MOL0     C87539   1.012   6.902   2.398  0.0773  0.1712 -0.3567
  649MOL0     C87540   0.949   6.972   2.275  0.3553  0.1977  0.0782
  649MOL0     C87541   0.957   6.892   2.145  0.6881 -0.8825 -0.0558
  649MOL0     C87542   0.869   6.762   2.146  0.3081  0.1881  0.1467
  649MOL0     C87543   0.861   6.696   2.011 -0.7193  0.5223 -0.2338
  649MOL0     C87544   0.855   6.626   1.910 -0.1065  0.1696  0.5959
  649MOL0     C87545   1.287   7.027   2.355 -0.9702 -0.0806  0.1845
  649MOL0     C87546   1.414   7.093   2.392  0.5488  0.2184 -0.2464
  649MOL0     C87547   1.453   7.220   2.319  0.3218  0.5512  0.3108
  649MOL0     H87548   1.893   7.136   2.444  1.3599  3.8724 -0.3486
  649MOL0     H87549   2.127   7.180   2.523  0.1890  1.1865  1.0378
  649MOL0     H87550   2.336   7.195   2.606  0.9996  1.9054 -0.8900
  649MOL0     H87551   2.250   7.313   2.714  1.5376 -0.5567  1.7642
  649MOL0     H87552   2.494   7.145   2.769  2.7560  2.0308 -0.7528
  649MOL0     H87553   2.430   7.252   2.891 -2.0453 -3.1805  0.2289
  649MOL0     H87554   2.629   7.327   2.725 -0.3002 -1.9661  1.1379
  649MOL0     H87555   2.504   7.439   2.770  0.5672 -0.1697 -0.7446
  649MOL0     H87556   2.517   7.306   2.493 -3.1521 -2.1138  0.0201
  649MOL0     H87557   2.392   7.420   2.554  0.2419  2.1868 -1.5290
  649MOL0     H87558   2.560   7.591   2.595 -0.3554  0.3643  0.2071
  649MOL0     H87559   2.685   7.481   2.533 -0.2860 -0.1397  1.8229
  649MOL0     H87560   2.589   7.459   2.318  0.2058 -1.2382  0.2975
  649MOL0     H87561   2.451   7.562   2.353  0.4160 -1.2942 -0.8030
  649MOL0     H87562   2.735   7.618   2.295  0.6998  0.2527 -0.6625
  649MOL0     H87563   2.684   7.713   2.432 -0.0319 -0.0680  0.2218
  649MOL0     H87564   2.541   7.739   2.151 -0.6607  3.9351 -0.2159
  649MOL0     H87565   2.510   7.816   2.297  1.9944  0.3431  2.2160
  649MOL0     H87566   2.847   7.754   2.089  1.1942 -0.7709  1.2790
  649MOL0     H87567   3.024   7.895   1.997 -0.5486  0.8500 -0.1960
  649MOL0     H87568   3.037   8.062   2.030 -2.2950 -1.1741 -1.4318
  649MOL0     H87569   3.149   7.843   2.224  3.5722 -0.3209 -0.3988
  649MOL0     H87570   3.230   7.948   2.125  0.6136 -3.0310  0.9513
  649MOL0     H87571   3.077   8.004   2.376 -0.2747 -0.3787 -0.8429
  649MOL0     H87572   3.056   8.128   2.243 -0.0526  0.0868 -2.3070
  649MOL0     H87573   3.276   8.192   2.369  2.1633  1.9720 -1.5686
  649MOL0     H87574   3.301   8.133   2.210 -1.1625 -0.7829 -0.2018
  649MOL0     H87575   3.513   8.233   2.304  1.2260  0.6160 -0.3265
  649MOL0     H87576   3.743   8.216   2.256 -2.6404  2.1162  4.2292
  649MOL0     H87577   4.016   8.151   1.926 -1.4785 -1.0850 -0.5018
  649MOL0     H87578   4.251   8.099   1.833  0.6445 -1.7489 -0.7234
  649MOL0     H87579   4.428   8.056   1.786 -1.9908  1.0685  0.9687
  649MOL0     H87580   4.508   8.177   1.885 -2.2280 -0.0355 -1.3976
  649MOL0     H87581   4.616   7.924   1.759 -1.2679 -0.2629  0.1768
  649MOL0     H87582   4.684   8.080   1.746 -1.3228 -1.9413 -0.9006
  649MOL0     H87583   4.710   7.930   1.998  1.6951  0.0693  0.5739
  649MOL0     H87584   4.834   7.944   1.873  1.0224  1.3013  0.8900
  649MOL0     H87585   4.827   8.107   2.090 -3.1166  0.6822  1.2381
  649MOL0     H87586   4.728   8.202   1.977 -0.5723 -0.4287 -0.0207
  649MOL0     H87587   4.931   8.276   1.940 -0.6731 -1.2349  3.1596
  649MOL0     H87588   4.910   8.163   1.804  1.6739  1.5526 -1.2441
  649MOL0     H87589   5.061   8.069   2.051  0.8462  0.1386  0.3589
  649MOL0     H87590   5.061   8.002   1.891 -0.5118 -1.1049  1.9021
  649MOL0     H87591   5.177   8.269   1.968 -3.4964  0.0537  1.0211
  649MOL0     H87592   5.163   8.217   1.808  1.3280 -0.9609  0.4871
  649MOL0     H87593   5.316   8.012   1.889 -0.7137 -0.6167 -0.0088
  649MOL0     H87594   5.380   8.161   1.844  1.4059 -3.7562  0.2637
  649MOL0     H87595   4.379   7.978   2.232 -1.4668  0.6773  2.1455
  649MOL0     H87596   4.153   8.008   2.312 -0.6838 -0.0819  0.2692
  649MOL0     H87597   3.742   7.793   2.328  1.4114 -0.5266  1.7767
  649MOL0     H87598   3.511   7.805   2.413  3.2130 -1.5241 -0.2055
  649MOL0     H87599   2.055   6.974   2.898 -2.0478 -0.1740  0.6478
  649MOL0     H87600   1.820   6.937   2.816 -0.2208 -0.9682 -1.3574
  649MOL0     H87601   1.494   6.899   2.662 -0.8768  0.3239  0.4257
  649MOL0     H87602   1.275   6.787   2.587 -0.6582  1.2057  0.0726
  649MOL0     H87603   1.022   6.973   2.481  2.2492  0.3707 -0.7444
  649MOL0     H87604   0.947   6.816   2.417  3.6922 -2.5870  0.4749
  649MOL0     H87605   1.003   7.067   2.263  2.7689 -0.9627  1.0884
  649MOL0     H87606   0.842   6.991   2.289  0.7078  0.8668  2.2511
  649MOL0     H87607   1.065   6.875   2.133  0.8553  1.5139 -2.9866
  649MOL0     H87608   0.934   6.953   2.057 -0.1578  0.5826  1.1219
  649MOL0     H87609   0.906   6.692   2.221  3.0003  4.0375  2.8064
  649MOL0     H87610   0.771   6.799   2.176  0.8561  1.3799  0.5291
  649MOL0     H87611   0.849   6.551   1.834  1.1587  0.9265 -0.2705
  649MOL0     H87612   1.229   7.050   2.266 -1.9418  0.5737  0.9723
  649MOL0     H87613   1.530   7.195   2.245 -2.4316  1.6759 -3.2462
  649MOL0     H87614   1.380   7.261   2.248 -1.2985 -1.5216  0.6888
  649MOL0     H87615   1.482   7.300   2.387  1.8562 -1.6578  2.4069
  650MOL0     O87616  11.167  11.008   7.562  0.1785 -0.3378  0.0317
  650MOL0     C87617  11.065  11.012   7.629  0.6315  0.2243 -0.3734
  650MOL0     O87618  11.057  11.038   7.769 -0.6434 -0.5029  0.4679
  650MOL0     C87619  11.185  11.051   7.820  0.1139  0.7570  0.2073
  650MOL0     C87620  11.262  10.939   7.844 -0.5290  0.2348  0.1754
  650MOL0     C87621  11.384  10.953   7.909  0.4403 -0.8837  0.3809
  650MOL0     C87622  11.431  11.076   7.955  0.1000 -0.1045 -0.1192
  650MOL0     O87623  11.542  11.104   8.033 -0.7273 -0.2118  0.1818
  650MOL0     C87624  11.662  11.047   7.977 -0.0390 -0.6955 -0.9728
  650MOL0     C87625  11.770  11.107   8.058 -0.1665 -1.4729 -0.0185
  650MOL0     C87626  11.908  11.066   8.013  0.5172  0.0898 -0.2608
  650MOL0     C87627  11.950  11.131   7.880  0.6722 -0.5414  0.5163
  650MOL0     C87628  12.103  11.134   7.844  0.1859  0.3825 -0.6946
  650MOL0     C87629  12.182  11.001   7.881  0.6322  1.2027  0.7902
  650MOL0     C87630  12.261  11.027   8.015 -0.0476 -0.4565 -0.4764
  650MOL0     C87631  12.400  11.077   7.975 -1.0061 -0.3944  0.1022
  650MOL0     N87632  12.487  11.128   8.086 -0.4697 -0.0198  0.1822
  650MOL0     C87633  12.574  11.230   8.068 -0.5239  0.9392  0.0670
  650MOL0     C87634  12.640  11.247   8.193  0.1597  0.0393  1.7824
  650MOL0     C87635  12.736  11.358   8.210 -0.4594 -0.6893 -0.3698
  650MOL0     C87636  12.869  11.297   8.235  0.5291 -0.1951 -0.2302
  650MOL0     C87637  12.949  11.365   8.338  1.5160  0.9152 -0.0245
  650MOL0     C87638  13.070  11.292   8.382 -0.3880 -0.1462 -0.5034
  650MOL0     O87639  13.080  11.306   8.530  0.2689 -0.3839 -0.2587
  650MOL0     C87640  13.206  11.336   8.576 -0.2625 -0.2077 -0.5749
  650MOL0     C87641  13.221  11.396   8.704  0.6905 -0.5972  0.1485
  650MOL0     C87642  13.338  11.433   8.762 -0.2971 -0.3598 -0.1420
  650MOL0     C87643  13.465  11.416   8.688  0.4402 -0.1450 -0.6329
  650MOL0     C87644  13.593  11.477   8.735  0.1743  0.4938  0.4603
  650MOL0     O87645  13.710  11.433   8.668  0.0250  0.0603  0.0767
  650MOL0     C87646  13.830  11.459   8.732 -0.1257  0.5737  0.2819
  650MOL0     C87647  13.926  11.361   8.704  0.0022  0.2060  0.4053
  650MOL0     C87648  14.064  11.374   8.741  0.0478  0.5948  0.0785
  650MOL0     C87649  14.108  11.486   8.809 -0.6285 -0.6253  0.0616
  650MOL0     O87650  14.238  11.488   8.839  0.5321  0.1288  0.3051
  650MOL0     C87651  14.298  11.603   8.885  0.2940 -0.5005 -0.2625
  650MOL0     C87652  14.455  11.592   8.886  0.7038 -0.3274  0.4333
  650MOL0     C87653  14.525  11.723   8.927  0.5764  0.0608 -0.8407
  650MOL0     C87654  14.656  11.700   8.996 -0.3113 -1.3097 -0.4490
  650MOL0     C87655  14.706  11.813   9.092  0.5551  0.0205  0.0638
  650MOL0     C87656  14.859  11.825   9.101 -0.3288 -0.5165 -1.2782
  650MOL0     C87657  14.884  11.948   9.197 -0.7861  0.3497 -0.1738
  650MOL0     C87658  15.038  11.951   9.237  0.5405  0.3799  0.7082
  650MOL0    Cl87659  15.096  11.802   9.314 -0.3891  0.5892  0.2880
  650MOL0     C87660  14.009  11.580   8.837 -0.2797  0.4839 -0.6741
  650MOL0     C87661  13.877  11.573   8.796  0.2115 -0.0591 -0.6663
  650MOL0     O87662  13.584  11.544   8.839  0.0590 -0.4677  0.5900
  650MOL0     C87663  13.450  11.355   8.564 -0.6902  0.6509 -0.4104
  650MOL0     C87664  13.330  11.317   8.514 -0.2407  1.0555  0.5468
  650MOL0     N87665  12.594  11.154   8.277 -0.2140  0.1216  0.3389
  650MOL0     N87666  12.498  11.084   8.215  0.4944 -0.8506  0.1713
  650MOL0     C87667  11.362  11.193   7.918 -0.4474 -0.4408 -0.0007
  650MOL0     C87668  11.237  11.183   7.847 -0.3934  0.1393 -0.3541
  650MOL0     C87669  10.929  10.973   7.566 -0.8468 -0.2020  0.2393
  650MOL0     C87670  10.816  10.972   7.650 -0.0539  0.4599 -0.6201
  650MOL0     C87671  10.690  10.970   7.600  0.3878 -1.0992 -0.1309
  650MOL0     C87672  10.664  10.956   7.463 -0.1548  0.5931 -0.2866
  650MOL0     O87673  10.542  10.945   7.403 -0.0899 -0.8061 -0.5962
  650MOL0     C87674  10.449  10.868   7.477  0.3823 -1.1046 -1.0913
  650MOL0     C87675  10.345  10.954   7.556 -0.2427 -0.1165 -0.3454
  650MOL0     C87676  10.275  11.064   7.474  0.1035 -0.1751 -0.1005
  650MOL0     C87677  10.148  11.023   7.404 -0.0763  0.0785 -0.6781
  650MOL0     C87678  10.180  10.972   7.268 -0.0373 -0.3255  0.3265
  650MOL0     C87679  10.213  10.938   7.157 -0.0643  0.6110  0.5655
  650MOL0     C87680  10.774  10.960   7.377  0.2245 -0.4790 -0.4598
  650MOL0     C87681  10.904  10.954   7.425  0.0139 -0.3507  0.4255
  650MOL0     C87682  11.005  10.959   7.316 -0.3231  0.1322  0.0053
  650MOL0     H87683  11.239  10.836   7.822 -1.6014 -0.0124  2.1910
  650MOL0     H87684  11.434  10.859   7.930 -0.1803 -1.4171 -0.4568
  650MOL0     H87685  11.659  10.939   7.995  1.0375 -0.5100  0.5149
  650MOL0     H87686  11.684  11.068   7.872  4.7467 -1.1574 -0.2762
  650MOL0     H87687  11.750  11.074   8.160 -1.3419 -0.6635  0.0409
  650MOL0     H87688  11.767  11.216   8.064 -2.0581 -1.5152  0.6127
  650MOL0     H87689  11.907  10.957   8.002 -0.0595  0.2954 -2.8922
  650MOL0     H87690  11.972  11.096   8.097 -0.1193  3.4724 -0.8569
  650MOL0     H87691  11.902  11.077   7.798  2.0968 -0.8997 -0.1208
  650MOL0     H87692  11.919  11.236   7.875  1.8668 -0.1317  1.2192
  650MOL0     H87693  12.099  11.143   7.735  0.3939 -0.2005 -0.7548
  650MOL0     H87694  12.155  11.217   7.893 -0.2891  0.0891  0.3364
  650MOL0     H87695  12.118  10.913   7.888 -1.8481  2.8079 -0.1989
  650MOL0     H87696  12.247  10.969   7.799 -2.6011  1.3224 -2.0207
  650MOL0     H87697  12.284  10.939   8.076  0.2196  0.7156  1.1964
  650MOL0     H87698  12.209  11.099   8.079  0.5411  1.5323 -2.1623
  650MOL0     H87699  12.460  10.998   7.928  0.3716 -0.3189  1.6470
  650MOL0     H87700  12.392  11.149   7.894  0.0717 -1.2793 -0.8292
  650MOL0     H87701  12.591  11.288   7.978 -1.5847  0.4960 -0.4311
  650MOL0     H87702  12.739  11.433   8.131 -1.9172  0.2894  0.4519
  650MOL0     H87703  12.693  11.412   8.296 -0.9607  0.8892 -1.5673
  650MOL0     H87704  12.850  11.194   8.267 -3.3414  1.4245  3.7417
  650MOL0     H87705  12.917  11.302   8.136 -0.0502 -1.9710 -0.6379
  650MOL0     H87706  12.879  11.382   8.421  0.8465 -0.0629 -0.3756
  650MOL0     H87707  12.977  11.466   8.308  3.1144  0.8953  1.2173
  650MOL0     H87708  13.159  11.329   8.329 -0.3495 -0.3787 -0.6025
  650MOL0     H87709  13.067  11.184   8.361 -1.1736 -1.0868  3.6335
  650MOL0     H87710  13.127  11.396   8.759  0.0813  1.8006 -0.7371
  650MOL0     H87711  13.336  11.467   8.865  2.1765 -0.4207 -0.0169
  650MOL0     H87712  13.901  11.269   8.652  2.7142 -0.3365 -0.0972
  650MOL0     H87713  14.141  11.303   8.711  0.1297  0.7789 -0.1525
  650MOL0     H87714  14.267  11.693   8.830  2.5275  1.2797  1.1978
  650MOL0     H87715  14.272  11.621   8.989 -0.8014 -1.7773 -0.2853
  650MOL0     H87716  14.473  11.509   8.954  1.2956 -2.3418 -2.0142
  650MOL0     H87717  14.482  11.558   8.786 -2.7834  1.2371 -1.2316
  650MOL0     H87718  14.552  11.780   8.837  1.7975  3.2424  1.3508
  650MOL0     H87719  14.458  11.777   8.993 -0.4021 -2.2453  0.1654
  650MOL0     H87720  14.729  11.655   8.928  2.1432 -0.5601  1.5495
  650MOL0     H87721  14.652  11.619   9.069  1.1997 -0.6834  0.3884
  650MOL0     H87722  14.665  11.800   9.193  2.1076  0.4988  0.7702
  650MOL0     H87723  14.667  11.912   9.065 -1.8802 -1.2212 -1.3797
  650MOL0     H87724  14.900  11.731   9.140 -2.6627 -3.2512 -4.8500
  650MOL0     H87725  14.912  11.834   9.006  2.1926 -0.9263 -0.0113
  650MOL0     H87726  14.830  11.958   9.291 -1.2291  2.2659 -0.5819
  650MOL0     H87727  14.861  12.039   9.141 -2.8411  0.4234  0.7046
  650MOL0     H87728  15.099  11.966   9.147 -0.7000  0.8250 -0.0827
  650MOL0     H87729  15.058  12.041   9.295  0.4723  1.2718 -0.6204
  650MOL0     H87730  14.036  11.666   8.898 -2.4668  2.6993 -2.6539
  650MOL0     H87731  13.815  11.661   8.809 -2.5237 -1.9407 -0.2493
  650MOL0     H87732  13.541  11.345   8.505  1.9317  4.2793  2.5013
  650MOL0     H87733  13.329  11.270   8.416 -1.3205  0.6167  0.7525
  650MOL0     H87734  11.396  11.291   7.949  0.7952  0.0687 -2.6507
  650MOL0     H87735  11.179  11.272   7.828  2.2732  2.7140  2.4530
  650MOL0     H87736  10.821  10.967   7.758  0.0909  1.1070 -0.5947
  650MOL0     H87737  10.606  10.979   7.667 -1.2107  2.0182 -2.2816
  650MOL0     H87738  10.499  10.798   7.545  1.2045  0.1448 -0.3687
  650MOL0     H87739  10.398  10.803   7.405 -0.2580 -2.8653  0.8541
  650MOL0     H87740  10.411  10.988   7.637  2.3482  1.5065 -2.9369
  650MOL0     H87741  10.268  10.888   7.597  1.1177 -1.4801  0.0940
  650MOL0     H87742  10.338  11.121   7.406 -1.2161  1.0281 -0.3533
  650MOL0     H87743  10.239  11.127   7.556 -1.8888  0.2495 -1.2123
  650MOL0     H87744  10.107  10.936   7.457  3.6799 -1.8067 -0.4932
  650MOL0     H87745  10.080  11.108   7.412 -0.2112 -0.1837  2.1758
  650MOL0     H87746  10.256  10.911   7.063 -1.7029 -1.6188  0.3815
  650MOL0     H87747  10.756  10.965   7.270 -0.8781  2.4434 -0.2190
  650MOL0     H87748  11.060  11.054   7.314  0.2332 -0.1894  0.1384
  650MOL0     H87749  11.084  10.886   7.334 -1.5486 -1.2005  0.1719
  650MOL0     H87750  10.964  10.920   7.222  1.7101 -0.4498 -0.6832
  651MOL0     O87751   0.075   8.162   2.108  0.0379 -0.3239  0.5889
  651MOL0     C87752   0.080   8.189   1.989 -0.2721 -0.9786  1.0118
  651MOL0     O87753  -0.021   8.162   1.901 -1.1518 -0.4437  0.0419
  651MOL0     C87754  -0.148   8.129   1.938  0.0190  0.5117 -0.4419
  651MOL0     C87755  -0.264   8.205   1.913 -0.6801 -0.2280 -0.5267
  651MOL0     C87756  -0.388   8.163   1.950  0.0175 -0.5298 -0.2878
  651MOL0     C87757  -0.400   8.053   2.037  0.5729  0.1124  0.6509
  651MOL0     O87758  -0.536   8.029   2.066 -0.7548  0.0367 -0.8501
  651MOL0     C87759  -0.558   7.916   2.153  0.3796 -0.2445  0.5906
  651MOL0     C87760  -0.711   7.905   2.170 -0.2366 -0.0519 -0.4224
  651MOL0     C87761  -0.788   7.862   2.048 -0.0406 -0.4688  0.1963
  651MOL0     C87762  -0.933   7.838   2.088 -0.7297  0.4464  0.9972
  651MOL0     C87763  -1.034   7.882   1.984 -0.6468  0.0650 -0.4605
  651MOL0     C87764  -1.183   7.829   2.016 -0.6196 -0.7601 -0.1965
  651MOL0     C87765  -1.294   7.923   1.981  0.1355  0.7506  1.0662
  651MOL0     C87766  -1.389   7.976   2.087  0.0446  0.8077  0.1302
  651MOL0     N87767  -1.347   8.101   2.151  0.0474  0.2349  0.1335
  651MOL0     C87768  -1.378   8.228   2.100 -0.6099 -0.8719  0.1289
  651MOL0     C87769  -1.319   8.319   2.180  0.1622  0.1331  0.1273
  651MOL0     C87770  -1.299   8.464   2.141 -0.1259  0.1933  0.1521
  651MOL0     C87771  -1.142   8.512   2.136  1.0742  0.3925  1.1061
  651MOL0     C87772  -1.075   8.447   2.014 -0.2557 -0.5440  0.4594
  651MOL0     C87773  -0.933   8.502   1.983 -0.4195 -0.3433 -0.5260
  651MOL0     O87774  -0.853   8.495   2.109 -0.9230 -0.1571 -0.4270
  651MOL0     C87775  -0.728   8.544   2.119 -0.4396 -0.0991  0.0049
  651MOL0     C87776  -0.660   8.533   2.243  0.5485 -0.0649  0.2673
  651MOL0     C87777  -0.522   8.559   2.260 -0.3423  0.0601 -0.1014
  651MOL0     C87778  -0.445   8.603   2.144 -0.0516  0.6868 -0.3536
  651MOL0     C87779  -0.307   8.626   2.161  0.3912  0.6021 -0.1498
  651MOL0     O87780  -0.245   8.549   2.262  0.5094  0.7166  0.1202
  651MOL0     C87781  -0.106   8.545   2.262 -0.0992  0.7189  0.2745
  651MOL0     C87782  -0.034   8.551   2.377 -0.0302  0.0387 -0.2974
  651MOL0     C87783   0.106   8.547   2.388  1.0933 -0.6230  0.0906
  651MOL0     C87784   0.176   8.530   2.273  0.8262 -0.0573  0.2085
  651MOL0     O87785   0.307   8.535   2.283  0.2814  0.5243 -0.3106
  651MOL0     C87786   0.366   8.657   2.223  0.6425 -0.5959  0.4556
  651MOL0     C87787   0.519   8.668   2.261 -0.0791  0.4723  0.1861
  651MOL0     C87788   0.543   8.761   2.386  0.4863 -0.4890 -0.0261
  651MOL0     C87789   0.687   8.795   2.388  0.0300  0.2140  1.0323
  651MOL0     C87790   0.718   8.942   2.376 -1.1071  0.4780  0.7264
  651MOL0     C87791   0.865   8.958   2.358  0.9089  0.0146 -0.1331
  651MOL0     C87792   0.915   8.918   2.220  0.2221 -0.1372  0.2842
  651MOL0     C87793   1.056   8.980   2.205 -0.8184 -0.4437  0.2283
  651MOL0    Cl87794   1.100   8.950   2.031 -0.1960 -0.1501  0.0596
  651MOL0     C87795   0.107   8.522   2.150 -0.2104 -0.5555 -0.7026
  651MOL0     C87796  -0.031   8.511   2.151 -0.0202 -0.6987  0.9138
  651MOL0     O87797  -0.255   8.718   2.101 -0.3656  0.2156  0.2906
  651MOL0     C87798  -0.514   8.622   2.025  0.4483 -0.6481 -0.1106
  651MOL0     C87799  -0.652   8.591   2.011  0.1039 -0.1378 -0.1510
  651MOL0     N87800  -1.246   8.241   2.277  0.9018  0.3614  0.9106
  651MOL0     N87801  -1.271   8.116   2.265  0.2887  0.1076  0.2169
  651MOL0     C87802  -0.291   7.985   2.072 -0.3303  0.3357 -0.0117
  651MOL0     C87803  -0.161   8.017   2.027 -0.5510  0.5470 -0.2535
  651MOL0     C87804   0.194   8.266   1.928 -0.1023 -0.2525 -0.5269
  651MOL0     C87805   0.175   8.322   1.803 -0.1945  0.3548  0.3923
  651MOL0     C87806   0.273   8.395   1.738  0.5956  0.1798 -0.6345
  651MOL0     C87807   0.389   8.420   1.802  0.4705  0.0246  0.0386
  651MOL0     O87808   0.462   8.511   1.733  0.8163 -0.1139  0.0077
  651MOL0     C87809   0.598   8.530   1.777 -0.1376  0.5050 -0.5288
  651MOL0     C87810   0.629   8.650   1.878  0.3735 -0.5761 -0.2269
  651MOL0     C87811   0.541   8.768   1.848  0.7177  0.1015  0.3487
  651MOL0     C87812   0.575   8.847   1.726 -0.2479  0.8924  0.9592
  651MOL0     C87813   0.678   8.945   1.753 -1.0819 -0.9164 -0.5166
  651MOL0     C87814   0.775   9.016   1.790 -0.5949 -0.4322 -0.5038
  651MOL0     C87815   0.411   8.376   1.928  0.2172  0.1138  0.8461
  651MOL0     C87816   0.314   8.296   1.995 -0.4542  0.2277  0.3140
  651MOL0     C87817   0.338   8.247   2.136  0.7573 -0.1097 -0.7977
  651MOL0     H87818  -0.262   8.300   1.860 -2.5886  0.8896  1.2276
  651MOL0     H87819  -0.467   8.229   1.917  0.4238  0.1023 -0.0313
  651MOL0     H87820  -0.523   7.827   2.100 -0.0691  0.6937 -1.3812
  651MOL0     H87821  -0.509   7.924   2.250 -0.7378 -0.2391  1.1679
  651MOL0     H87822  -0.747   8.004   2.198  0.0435 -0.4154  1.3261
  651MOL0     H87823  -0.743   7.848   2.258 -0.4446  1.9001  0.8384
  651MOL0     H87824  -0.758   7.769   1.998  2.6111  0.8232 -0.8345
  651MOL0     H87825  -0.776   7.934   1.967 -1.6955  0.6137  0.8727
  651MOL0     H87826  -0.945   7.729   2.097  3.2288 -0.4152 -1.4274
  651MOL0     H87827  -0.961   7.883   2.183  1.1761 -2.3646  3.0418
  651MOL0     H87828  -1.029   7.991   1.970  1.9056 -0.3099 -3.5330
  651MOL0     H87829  -1.008   7.843   1.885  1.0822  0.4520 -0.1921
  651MOL0     H87830  -1.200   7.727   1.978 -1.4597 -1.0944  1.0479
  651MOL0     H87831  -1.191   7.814   2.124 -0.6794 -1.5856 -0.3076
  651MOL0     H87832  -1.369   7.864   1.928  1.8065 -0.7942  0.3174
  651MOL0     H87833  -1.248   7.996   1.913 -0.2852  0.3447  0.3301
  651MOL0     H87834  -1.491   7.980   2.048 -0.3347  1.5671  1.1432
  651MOL0     H87835  -1.398   7.908   2.172  0.3752  1.3333  0.5934
  651MOL0     H87836  -1.445   8.246   2.016 -1.5743 -1.4321  0.7519
  651MOL0     H87837  -1.350   8.473   2.044 -1.4857 -0.2614  0.7984
  651MOL0     H87838  -1.360   8.534   2.200 -0.2590  1.3896 -1.3136
  651MOL0     H87839  -1.139   8.619   2.115  1.2418  0.5604  1.9587
  651MOL0     H87840  -1.088   8.471   2.222 -2.6490 -0.0228  3.4995
  651MOL0     H87841  -1.137   8.445   1.923 -1.0545  0.6258  0.9641
  651MOL0     H87842  -1.060   8.339   2.027  1.4268 -0.3173  0.7068
  651MOL0     H87843  -0.943   8.604   1.943 -1.9212 -0.8605 -1.5422
  651MOL0     H87844  -0.882   8.432   1.917  1.0952 -0.9687  1.2072
  651MOL0     H87845  -0.718   8.497   2.328 -1.7224 -1.1567 -1.6313
  651MOL0     H87846  -0.484   8.538   2.360  0.0866  0.5190 -0.1693
  651MOL0     H87847  -0.101   8.571   2.460  1.5601  1.4509  0.6988
  651MOL0     H87848   0.160   8.562   2.480 -0.7753  4.6492  0.6487
  651MOL0     H87849   0.355   8.661   2.114  2.0148 -0.7406  0.2973
  651MOL0     H87850   0.319   8.751   2.255  1.6250  0.6113 -1.4653
  651MOL0     H87851   0.564   8.571   2.284  0.4854  0.8340  0.6240
  651MOL0     H87852   0.574   8.716   2.180 -1.1562 -0.2588 -1.0206
  651MOL0     H87853   0.492   8.858   2.383  0.2256 -0.5439  1.6347
  651MOL0     H87854   0.498   8.707   2.470  1.9121  0.2030  1.2121
  651MOL0     H87855   0.746   8.738   2.316 -3.2940 -2.4290  0.1484
  651MOL0     H87856   0.725   8.755   2.483  0.9451 -3.9827 -0.8750
  651MOL0     H87857   0.678   8.988   2.467 -3.1528  0.1515  0.0437
  651MOL0     H87858   0.668   8.984   2.288 -0.4915 -2.8113 -1.3834
  651MOL0     H87859   0.869   9.066   2.378  2.4676 -0.6335  4.0674
  651MOL0     H87860   0.916   8.900   2.435 -3.1426 -1.9515  1.3401
  651MOL0     H87861   0.848   8.970   2.150  2.3324 -1.4850 -2.9909
  651MOL0     H87862   0.916   8.810   2.199 -0.0474 -0.2129  0.6540
  651MOL0     H87863   1.055   9.089   2.220  3.4455 -0.1421 -0.2962
  651MOL0     H87864   1.135   8.938   2.269  0.6797  2.7910  0.7724
  651MOL0     H87865   0.171   8.521   2.062 -0.7043  2.1438 -1.1803
  651MOL0     H87866  -0.065   8.507   2.049  1.5710  2.3679  0.1366
  651MOL0     H87867  -0.462   8.657   1.936  0.7250 -0.3699  0.1578
  651MOL0     H87868  -0.692   8.601   1.911  2.5682 -1.7139 -1.3952
  651MOL0     H87869  -0.306   7.892   2.126 -0.9525  0.5973  0.2692
  651MOL0     H87870  -0.074   7.958   2.055  0.4117  3.0541  2.6062
  651MOL0     H87871   0.080   8.316   1.751  0.7628  1.7656 -1.6615
  651MOL0     H87872   0.248   8.432   1.640 -0.1601  0.6176 -0.2811
  651MOL0     H87873   0.664   8.537   1.690  4.0425  0.6721  2.3356
  651MOL0     H87874   0.638   8.439   1.825 -1.4754  0.5893  0.8316
  651MOL0     H87875   0.735   8.672   1.859  0.0455 -0.8712 -2.8779
  651MOL0     H87876   0.610   8.626   1.983 -2.8884  2.4426  0.0520
  651MOL0     H87877   0.543   8.836   1.933  1.1873  0.5454 -0.0094
  651MOL0     H87878   0.436   8.739   1.845  0.5493  0.7653 -1.9202
  651MOL0     H87879   0.631   8.785   1.655 -2.3180 -1.1215  0.9890
  651MOL0     H87880   0.487   8.891   1.679 -0.5129  0.6894  1.2636
  651MOL0     H87881   0.851   9.088   1.810  1.9663 -2.7572 -1.2084
  651MOL0     H87882   0.507   8.386   1.978  0.0063 -3.2319  2.2127
  651MOL0     H87883   0.340   8.138   2.139  4.0849 -0.1374  1.0100
  651MOL0     H87884   0.433   8.280   2.180 -0.8637  0.9694  2.1787
  651MOL0     H87885   0.271   8.292   2.209  2.5947  1.6222 -0.0646
  652MOL0     O87886  10.939   6.398   2.874 -0.0277 -0.1148 -0.4469
  652MOL0     C87887  11.005   6.382   2.770 -0.4279  0.0641  0.2363
  652MOL0     O87888  11.137   6.338   2.760  0.3818 -0.0834 -0.1254
  652MOL0     C87889  11.177   6.270   2.874 -0.1564 -0.6976  0.5387
  652MOL0     C87890  11.113   6.156   2.925 -0.0061 -0.1484  1.0565
  652MOL0     C87891  11.170   6.075   3.021  1.0048  0.5240 -1.3288
  652MOL0     C87892  11.293   6.105   3.064 -0.1761 -1.0546 -0.1611
  652MOL0     O87893  11.351   5.999   3.127  0.2466 -0.1449  0.7537
  652MOL0     C87894  11.388   6.020   3.259  0.1071  0.6491  0.2361
  652MOL0     C87895  11.535   6.026   3.265 -0.6679 -0.7127  0.4452
  652MOL0     C87896  11.604   5.893   3.252 -0.3010 -0.7860  0.5382
  652MOL0     C87897  11.763   5.895   3.259  0.1995  0.1902  0.2563
  652MOL0     C87898  11.842   5.783   3.210  0.1037  0.3153 -0.2339
  652MOL0     C87899  11.788   5.657   3.272  0.1423  0.4605 -0.5629
  652MOL0     C87900  11.896   5.544   3.283 -0.7473  0.6596  0.4542
  652MOL0     C87901  11.985   5.567   3.410 -0.2650  0.6721 -0.2183
  652MOL0     N87902  12.126   5.613   3.388 -0.5508 -0.8746 -0.1490
  652MOL0     C87903  12.243   5.539   3.407 -0.5985  0.1170  0.6780
  652MOL0     C87904  12.344   5.624   3.376  0.1857  0.1479  0.4199
  652MOL0     C87905  12.486   5.592   3.368  0.6331 -0.2196 -0.0398
  652MOL0     C87906  12.560   5.670   3.471 -0.2167  0.3412  0.1390
  652MOL0     C87907  12.709   5.645   3.486 -0.5230 -0.0993 -0.3024
  652MOL0     C87908  12.740   5.537   3.590 -0.0224  1.3803  0.6247
  652MOL0     O87909  12.874   5.522   3.644  0.3572  0.4569 -0.0689
  652MOL0     C87910  12.930   5.621   3.723 -0.4781  0.3354  0.1402
  652MOL0     C87911  13.063   5.614   3.763 -0.1829  0.8756  0.1350
  652MOL0     C87912  13.128   5.714   3.826 -0.1347  0.3515 -0.1998
  652MOL0     C87913  13.043   5.822   3.874 -0.3231  0.7275 -0.0335
  652MOL0     C87914  13.104   5.929   3.956  0.5864 -0.8628  0.5249
  652MOL0     O87915  13.245   5.928   3.979  0.3870  0.6453 -0.4182
  652MOL0     C87916  13.291   6.006   4.079  1.0333 -0.9179 -0.4919
  652MOL0     C87917  13.226   6.034   4.197 -0.2852  0.7252  0.5397
  652MOL0     C87918  13.276   6.116   4.294  1.5288 -0.1646 -0.7034
  652MOL0     C87919  13.400   6.179   4.272 -0.2619  0.5505 -0.7932
  652MOL0     O87920  13.463   6.266   4.363 -0.1115 -0.0819  0.2735
  652MOL0     C87921  13.503   6.209   4.495  0.4093 -0.9795  0.4579
  652MOL0     C87922  13.633   6.128   4.493  0.4327  1.0557  0.6364
  652MOL0     C87923  13.752   6.208   4.457 -0.4646  0.1096  0.0438
  652MOL0     C87924  13.779   6.326   4.547  0.0749  0.3928 -0.3443
  652MOL0     C87925  13.923   6.378   4.527 -0.1747 -0.1651  0.1609
  652MOL0     C87926  13.938   6.532   4.561  0.1001  0.0839 -0.6258
  652MOL0     C87927  13.935   6.547   4.708  0.5517 -0.3428 -0.2719
  652MOL0     C87928  13.881   6.685   4.749  0.6591  0.6245 -0.2211
  652MOL0    Cl87929  13.811   6.673   4.922 -0.4028 -0.0663 -0.5407
  652MOL0     C87930  13.469   6.156   4.148  1.7666  0.8803 -0.1033
  652MOL0     C87931  13.409   6.074   4.052 -0.3376 -0.8691 -0.2175
  652MOL0     O87932  13.032   6.027   3.976  0.3020 -0.6004 -0.7610
  652MOL0     C87933  12.913   5.821   3.840 -0.1128  0.4860 -0.7428
  652MOL0     C87934  12.858   5.729   3.760  0.6823 -0.1798 -0.0906
  652MOL0     N87935  12.289   5.740   3.331  0.0118 -0.2909  0.5691
  652MOL0     N87936  12.164   5.735   3.341 -0.1932  0.4515 -0.7984
  652MOL0     C87937  11.359   6.226   3.024 -0.2890 -0.1182  0.2394
  652MOL0     C87938  11.301   6.301   2.928  0.1298 -0.0984 -0.9772
  652MOL0     C87939  10.934   6.432   2.646  0.7810  0.5620 -0.2265
  652MOL0     C87940  10.803   6.384   2.634 -0.1159  0.3304 -0.7777
  652MOL0     C87941  10.729   6.413   2.518  0.2894 -0.6892  0.1399
  652MOL0     C87942  10.781   6.504   2.415 -0.2537  1.1441 -0.1175
  652MOL0     O87943  10.715   6.532   2.296 -0.1437 -0.7241 -0.1925
  652MOL0     C87944  10.605   6.448   2.264  0.3605  1.4073  1.1011
  652MOL0     C87945  10.540   6.495   2.132 -0.1867 -0.2207  0.5407
  652MOL0     C87946  10.459   6.627   2.150  0.4172  0.3261 -0.4726
  652MOL0     C87947  10.392   6.693   2.031 -0.5151  0.2336  0.7529
  652MOL0     C87948  10.486   6.741   1.919 -0.1485  1.1829  0.3648
  652MOL0     C87949  10.584   6.769   1.848 -0.0782 -0.7136 -0.6734
  652MOL0     C87950  10.915   6.548   2.435  1.1336 -0.6672 -0.6689
  652MOL0     C87951  10.986   6.507   2.549 -0.6877  0.2628  0.3504
  652MOL0     C87952  11.132   6.535   2.558 -0.3088 -0.1367  1.0448
  652MOL0     H87953  11.019   6.124   2.882 -1.0946  1.5248  2.0936
  652MOL0     H87954  11.117   5.988   3.058 -1.0513  2.4871  0.7744
  652MOL0     H87955  11.341   6.115   3.287  1.2658  0.7388  2.0254
  652MOL0     H87956  11.348   5.939   3.320 -0.2431 -0.1647 -1.0425
  652MOL0     H87957  11.561   6.082   3.355  3.5651  1.9245 -2.0680
  652MOL0     H87958  11.563   6.096   3.185 -1.0077  0.0748  0.9981
  652MOL0     H87959  11.580   5.863   3.150 -1.6809  1.2912  0.1948
  652MOL0     H87960  11.553   5.825   3.321 -2.5492  0.9591  0.6897
  652MOL0     H87961  11.786   5.987   3.204  2.4378  0.2770  1.2311
  652MOL0     H87962  11.800   5.909   3.361 -0.0700  1.9096  0.1645
  652MOL0     H87963  11.852   5.774   3.101  0.4164  3.2601 -0.5334
  652MOL0     H87964  11.946   5.795   3.240  0.0917 -1.7104  0.7785
  652MOL0     H87965  11.734   5.669   3.366 -0.7888  0.2872 -1.0569
  652MOL0     H87966  11.724   5.605   3.200 -0.7866  1.9906 -0.8722
  652MOL0     H87967  11.955   5.542   3.191 -1.1838 -0.4564  0.1720
  652MOL0     H87968  11.848   5.446   3.300 -0.6033  0.2398 -1.3501
  652MOL0     H87969  11.940   5.639   3.479  0.8935  0.9341  0.2846
  652MOL0     H87970  11.975   5.470   3.460 -0.5694  1.8533  2.1050
  652MOL0     H87971  12.254   5.435   3.436  0.2798  0.5123  1.8547
  652MOL0     H87972  12.500   5.487   3.391 -1.3913 -0.8817 -1.4989
  652MOL0     H87973  12.508   5.606   3.262  1.9545 -0.3191  0.2108
  652MOL0     H87974  12.546   5.775   3.443 -2.2182 -0.5513 -2.6421
  652MOL0     H87975  12.516   5.652   3.569 -1.5551  1.7973 -0.1478
  652MOL0     H87976  12.764   5.738   3.506  2.0423 -1.1806 -1.8630
  652MOL0     H87977  12.741   5.608   3.388  0.0605 -1.8225  0.4904
  652MOL0     H87978  12.719   5.435   3.558  4.0662 -0.0822  1.9286
  652MOL0     H87979  12.679   5.555   3.679 -2.0759 -1.9971  0.0659
  652MOL0     H87980  13.122   5.527   3.736 -1.5298  0.1609 -0.6169
  652MOL0     H87981  13.234   5.716   3.846 -0.4354  0.0602  1.6488
  652MOL0     H87982  13.140   5.974   4.224 -0.6007  0.2827 -1.3414
  652MOL0     H87983  13.213   6.137   4.380  3.7395  1.6540  0.5753
  652MOL0     H87984  13.510   6.292   4.566 -1.7920  0.3224 -0.7099
  652MOL0     H87985  13.418   6.151   4.533 -2.3517  0.5347 -2.8836
  652MOL0     H87986  13.652   6.093   4.595  2.2619 -1.9433 -0.6139
  652MOL0     H87987  13.630   6.038   4.431  1.0562  1.4694 -0.0066
  652MOL0     H87988  13.836   6.137   4.455 -2.9390 -3.0515  0.6998
  652MOL0     H87989  13.736   6.248   4.356 -1.0995 -0.4075 -0.0624
  652MOL0     H87990  13.770   6.299   4.652  3.3047 -1.8949 -0.5260
  652MOL0     H87991  13.715   6.409   4.513  1.1325  0.6796 -1.7340
  652MOL0     H87992  13.942   6.370   4.420  0.7834 -1.4021  0.4154
  652MOL0     H87993  13.990   6.317   4.589  0.2209 -0.1033 -0.2030
  652MOL0     H87994  14.037   6.566   4.533 -0.0285  0.4218 -0.6701
  652MOL0     H87995  13.863   6.585   4.501  1.4830  0.3654 -2.1418
  652MOL0     H87996  14.031   6.521   4.754  0.0119 -1.2324  0.4054
  652MOL0     H87997  13.853   6.480   4.737 -0.9453  0.7374 -1.8079
  652MOL0     H87998  13.953   6.767   4.756 -3.5563  4.6277  4.0395
  652MOL0     H87999  13.794   6.706   4.685  1.2109 -0.1159 -1.2468
  652MOL0     H88000  13.573   6.184   4.136  2.2873 -1.4110 -1.5986
  652MOL0     H88001  13.459   6.057   3.957 -0.9716 -2.1145 -0.3475
  652MOL0     H88002  12.845   5.903   3.865 -0.6415  0.7707 -2.9325
  652MOL0     H88003  12.751   5.739   3.742  0.8164  1.3954 -0.1659
  652MOL0     H88004  11.460   6.247   3.058 -1.2187  2.3329  1.7676
  652MOL0     H88005  11.354   6.393   2.907  1.0528  0.4408  2.9552
  652MOL0     H88006  10.756   6.329   2.716  2.0099  1.2884  1.1972
  652MOL0     H88007  10.624   6.385   2.511 -0.7086  2.4948  0.8673
  652MOL0     H88008  10.522   6.422   2.330 -1.6159  0.1640 -1.6735
  652MOL0     H88009  10.657   6.355   2.238  1.1148  1.3619  2.6793
  652MOL0     H88010  10.468   6.419   2.100 -0.8177  0.2991  0.6784
  652MOL0     H88011  10.604   6.502   2.044 -0.8670  0.9617  0.1106
  652MOL0     H88012  10.517   6.706   2.200 -4.1717  2.7299  1.7051
  652MOL0     H88013  10.388   6.600   2.229  2.3111 -0.5396  1.0333
  652MOL0     H88014  10.301   6.640   2.003 -1.0887  0.8039  1.4833
  652MOL0     H88015  10.352   6.784   2.076 -0.2194  0.0311  1.4497
  652MOL0     H88016  10.659   6.819   1.790 -0.6539  1.1409  0.0700
  652MOL0     H88017  10.946   6.611   2.352  0.0114  0.6710 -0.1044
  652MOL0     H88018  11.162   6.581   2.653  3.0006 -1.8365  0.9903
  652MOL0     H88019  11.194   6.448   2.535  2.1000  1.8761 -0.6287
  652MOL0     H88020  11.144   6.610   2.480 -2.6344  1.5208  2.1672
  653MOL0     O88021   3.422  11.123   1.321 -0.2401 -0.2321 -0.3384
  653MOL0     C88022   3.436  11.187   1.218  0.4026  0.3126  0.0635
  653MOL0     O88023   3.543  11.186   1.143  0.0002  0.0441  0.2418
  653MOL0     C88024   3.633  11.081   1.142  0.7252 -0.2950  0.5030
  653MOL0     C88025   3.606  10.943   1.160  0.6859 -0.1041  0.6555
  653MOL0     C88026   3.712  10.854   1.130  0.4643 -0.1811 -0.1199
  653MOL0     C88027   3.847  10.894   1.120 -0.1270 -0.5288 -0.5747
  653MOL0     O88028   3.939  10.794   1.120 -0.8876  0.3570  0.5451
  653MOL0     C88029   4.077  10.830   1.130 -0.2436 -1.0036  0.1280
  653MOL0     C88030   4.126  10.895   1.264  0.4425 -0.2061  0.1822
  653MOL0     C88031   4.264  10.946   1.237 -0.0027  0.3954 -0.0239
  653MOL0     C88032   4.361  10.848   1.171 -0.1918 -0.3487 -0.0083
  653MOL0     C88033   4.506  10.887   1.187 -0.0765 -0.4618  0.6397
  653MOL0     C88034   4.543  11.014   1.123  1.3612  0.0581  0.2788
  653MOL0     C88035   4.687  11.015   1.092  0.0761  0.4308 -1.2265
  653MOL0     C88036   4.719  11.095   0.972  0.1093  0.2688 -1.0453
  653MOL0     N88037   4.868  11.118   0.962 -0.0909 -0.2219  0.6450
  653MOL0     C88038   4.963  11.023   0.982 -0.2690  0.2510  0.0867
  653MOL0     C88039   5.076  11.092   0.963 -0.4441  0.0428 -0.9745
  653MOL0     C88040   5.215  11.033   0.975  0.1058  0.4486 -0.9507
  653MOL0     C88041   5.317  11.106   1.076 -0.6869 -0.0606 -0.2326
  653MOL0     C88042   5.301  11.074   1.226  0.8483  0.1705  0.3211
  653MOL0     C88043   5.333  10.926   1.256 -0.8679 -0.6979  0.0921
  653MOL0     O88044   5.209  10.852   1.251  0.7218  0.1618  0.4200
  653MOL0     C88045   5.220  10.723   1.281 -0.0347 -0.3427  0.1938
  653MOL0     C88046   5.148  10.680   1.389  0.0475  0.3978  0.6518
  653MOL0     C88047   5.149  10.551   1.437 -0.1099  0.5845  0.8511
  653MOL0     C88048   5.251  10.462   1.382  0.8576 -0.0907  0.0394
  653MOL0     C88049   5.289  10.324   1.446  0.0255 -0.9998  0.2540
  653MOL0     O88050   5.382  10.253   1.368  0.4598 -0.3253 -0.6486
  653MOL0     C88051   5.457  10.145   1.416  0.6780 -0.3709 -0.4949
  653MOL0     C88052   5.518  10.070   1.317 -0.2436  0.0629  0.2968
  653MOL0     C88053   5.624   9.983   1.344 -0.7508  0.8714 -0.7144
  653MOL0     C88054   5.652   9.951   1.479  1.0409  0.3816 -0.1734
  653MOL0     O88055   5.746   9.858   1.519  0.1836  0.5952  0.4266
  653MOL0     C88056   5.819   9.783   1.419  0.7899 -0.9000 -0.0395
  653MOL0     C88057   5.893   9.678   1.497 -0.7474  0.0480 -0.3549
  653MOL0     C88058   5.991   9.609   1.411 -0.7043  0.7479 -0.8978
  653MOL0     C88059   6.064   9.504   1.498  0.0173 -0.1632  0.1246
  653MOL0     C88060   6.139   9.394   1.417  0.2744  0.6503 -0.5406
  653MOL0     C88061   6.265   9.456   1.366 -0.5368 -0.4581  0.4070
  653MOL0     C88062   6.347   9.355   1.294  0.6929  0.0712 -0.0232
  653MOL0     C88063   6.500   9.390   1.277  0.0297  0.1804  0.3760
  653MOL0    Cl88064   6.581   9.459   1.418  0.0538 -0.8244 -0.1509
  653MOL0     C88065   5.575  10.011   1.575  0.0477 -0.3823  0.6441
  653MOL0     C88066   5.483  10.108   1.547 -0.0229 -0.0218 -0.1114
  653MOL0     O88067   5.252  10.297   1.560 -0.5017  0.7832  0.2172
  653MOL0     C88068   5.315  10.500   1.261  0.6591 -0.1653 -0.3748
  653MOL0     C88069   5.301  10.633   1.209 -0.8978  0.0140 -0.1722
  653MOL0     N88070   5.058  11.227   0.945 -0.0828  0.0692 -0.6053
  653MOL0     N88071   4.929  11.236   0.941  0.2555  0.5441 -0.2445
  653MOL0     C88072   3.863  11.031   1.114 -0.4241 -0.0198  0.2388
  653MOL0     C88073   3.762  11.123   1.125  0.8205  0.2702 -0.4357
  653MOL0     C88074   3.343  11.300   1.199 -0.2809 -0.2009  0.0756
  653MOL0     C88075   3.381  11.405   1.122 -0.0958  0.4549  0.1401
  653MOL0     C88076   3.293  11.502   1.083 -0.3861 -0.8728 -0.0342
  653MOL0     C88077   3.161  11.501   1.124 -0.1115  0.6620 -0.4334
  653MOL0     O88078   3.084  11.611   1.085 -0.5780 -0.2417 -0.3828
  653MOL0     C88079   2.949  11.631   1.129  0.4886 -0.4239 -0.5567
  653MOL0     C88080   2.849  11.572   1.028  0.0462 -0.0556  0.2580
  653MOL0     C88081   2.857  11.623   0.885 -0.3336 -0.3795 -0.4304
  653MOL0     C88082   2.770  11.549   0.788  0.7127 -0.4461 -0.3698
  653MOL0     C88083   2.715  11.644   0.687 -0.1097 -0.7869 -0.4310
  653MOL0     C88084   2.660  11.719   0.608  0.0093 -0.4043  0.7205
  653MOL0     C88085   3.108  11.393   1.197 -0.6528 -0.0904 -0.4508
  653MOL0     C88086   3.204  11.297   1.240 -0.4414 -0.3308  0.5581
  653MOL0     C88087   3.148  11.187   1.331 -0.5233 -0.0867 -0.7157
  653MOL0     H88088   3.506  10.904   1.171  0.9164 -0.2488  2.5447
  653MOL0     H88089   3.675  10.752   1.138 -0.9990  0.0197 -2.9034
  653MOL0     H88090   4.129  10.735   1.118 -0.9692 -1.1822 -1.8934
  653MOL0     H88091   4.091  10.897   1.044  0.2733 -1.1390  0.1077
  653MOL0     H88092   4.131  10.817   1.340  1.5564 -2.4370 -2.0297
  653MOL0     H88093   4.064  10.977   1.300  2.6444  0.7588  2.0218
  653MOL0     H88094   4.299  10.971   1.337 -0.6809 -2.4289  1.0198
  653MOL0     H88095   4.266  11.034   1.172  1.3699  0.4374  0.0462
  653MOL0     H88096   4.355  10.746   1.212 -0.7758 -1.0476 -1.7449
  653MOL0     H88097   4.346  10.845   1.063  2.5975 -0.6689 -0.4542
  653MOL0     H88098   4.537  10.902   1.291  1.3797 -0.5728  0.2568
  653MOL0     H88099   4.566  10.802   1.152 -2.0566 -1.4375 -0.5580
  653MOL0     H88100   4.482  11.024   1.033  0.3843 -1.7914  0.6842
  653MOL0     H88101   4.530  11.097   1.193  3.0792  1.5641 -1.0779
  653MOL0     H88102   4.738  10.919   1.078  2.4070  1.4783 -0.3657
  653MOL0     H88103   4.751  11.042   1.177  2.2705 -0.3550 -2.5292
  653MOL0     H88104   4.684  11.034   0.888 -1.0249  3.3474 -2.9770
  653MOL0     H88105   4.666  11.190   0.968 -3.2791 -1.4390 -0.4438
  653MOL0     H88106   4.949  10.920   1.011 -1.0866  0.5442  0.7868
  653MOL0     H88107   5.209  10.926   1.000  0.6254  0.0958 -2.2438
  653MOL0     H88108   5.271  11.029   0.882  0.9354  1.3317 -0.5089
  653MOL0     H88109   5.419  11.079   1.049 -0.6509  0.4107 -0.5847
  653MOL0     H88110   5.315  11.215   1.062  2.1844 -0.0952 -1.5155
  653MOL0     H88111   5.199  11.102   1.253  1.1579  0.0160  1.7521
  653MOL0     H88112   5.372  11.143   1.271  2.4494 -1.4429  0.4094
  653MOL0     H88113   5.369  10.918   1.360  0.0804 -0.4917 -0.2133
  653MOL0     H88114   5.411  10.892   1.188  0.2089 -1.4979  1.6471
  653MOL0     H88115   5.093  10.756   1.443 -1.5391  0.4374 -0.9203
  653MOL0     H88116   5.092  10.519   1.523  2.9046  0.7342  3.0575
  653MOL0     H88117   5.484  10.096   1.218 -0.6397 -0.3637  0.3179
  653MOL0     H88118   5.673   9.941   1.257  1.7177 -2.1173  1.9024
  653MOL0     H88119   5.746   9.738   1.351 -0.6649  2.6423 -1.0813
  653MOL0     H88120   5.889   9.845   1.362 -0.7360 -0.2918 -1.3597
  653MOL0     H88121   5.935   9.733   1.582  0.2683 -0.8348 -0.2656
  653MOL0     H88122   5.813   9.613   1.533  2.2018 -2.7641  1.6562
  653MOL0     H88123   5.960   9.559   1.319  1.3770 -1.9983 -0.2535
  653MOL0     H88124   6.060   9.689   1.385  2.2111 -0.7053  1.7261
  653MOL0     H88125   5.987   9.458   1.561 -0.9844 -0.8155 -1.4926
  653MOL0     H88126   6.136   9.546   1.568  1.2598  3.8757 -3.1862
  653MOL0     H88127   6.079   9.356   1.334 -0.2190 -2.4389  1.0779
  653MOL0     H88128   6.161   9.306   1.478 -1.2874  1.1657  0.8564
  653MOL0     H88129   6.238   9.543   1.307 -0.6146 -2.3387 -2.5469
  653MOL0     H88130   6.325   9.486   1.452  2.0912 -0.6080 -1.2536
  653MOL0     H88131   6.293   9.341   1.200 -2.0217  2.9690  0.9224
  653MOL0     H88132   6.344   9.259   1.347  1.0750  1.0691  1.8940
  653MOL0     H88133   6.557   9.307   1.235 -0.3987 -1.4936  2.9222
  653MOL0     H88134   6.500   9.468   1.199  1.9026  0.2333  0.3889
  653MOL0     H88135   5.585   9.976   1.677  0.2880  0.5013  0.9279
  653MOL0     H88136   5.426  10.141   1.634  2.3716 -1.8455  2.2798
  653MOL0     H88137   5.393  10.443   1.211  1.1160  1.4142 -1.5451
  653MOL0     H88138   5.356  10.662   1.120 -2.2425  3.3706 -0.0278
  653MOL0     H88139   3.960  11.069   1.085  0.5701 -2.6241 -0.0368
  653MOL0     H88140   3.774  11.231   1.121  0.0341  0.3786 -0.1630
  653MOL0     H88141   3.482  11.414   1.085 -1.5658  1.8718 -4.0309
  653MOL0     H88142   3.340  11.579   1.023  0.8082 -3.3681 -2.4899
  653MOL0     H88143   2.922  11.736   1.119 -5.3099 -1.8026 -4.2128
  653MOL0     H88144   2.935  11.601   1.234  0.9406  0.1670 -0.3223
  653MOL0     H88145   2.746  11.593   1.059 -1.2511 -1.9687 -2.4096
  653MOL0     H88146   2.867  11.464   1.031  1.8047  0.2012  0.1396
  653MOL0     H88147   2.960  11.630   0.846  1.0544  2.7369  3.1277
  653MOL0     H88148   2.833  11.730   0.890 -3.3111 -0.9925 -0.2819
  653MOL0     H88149   2.833  11.474   0.739  0.8063  1.0992 -2.7785
  653MOL0     H88150   2.684  11.507   0.841  0.9242  1.8368  1.9538
  653MOL0     H88151   2.608  11.796   0.553  1.9159  0.5404  0.1539
  653MOL0     H88152   3.009  11.403   1.238 -2.5726 -4.7243 -3.1730
  653MOL0     H88153   3.171  11.084   1.302  3.3956 -0.3823  2.5239
  653MOL0     H88154   3.180  11.212   1.433  0.3213 -0.0832 -0.9765
  653MOL0     H88155   3.039  11.191   1.339 -0.5031 -1.7342  1.4350
  654MOL0     O88156   8.776  11.045   5.684  0.7642  0.6533  0.7784
  654MOL0     C88157   8.803  11.007   5.793 -0.3696  0.9894 -0.8303
  654MOL0     O88158   8.929  11.002   5.847  0.6719 -0.3094  0.6859
  654MOL0     C88159   9.029  11.059   5.783  0.1401 -0.0978 -0.5024
  654MOL0     C88160   9.127  10.971   5.731 -0.4835 -0.2023  0.0976
  654MOL0     C88161   9.245  11.019   5.668  0.0270 -0.0494  1.1520
  654MOL0     C88162   9.262  11.159   5.661  0.4372 -0.2165  0.7376
  654MOL0     O88163   9.365  11.212   5.590  0.3205 -1.0071 -0.6985
  654MOL0     C88164   9.358  11.344   5.536 -0.2339  0.6292 -0.9382
  654MOL0     C88165   9.476  11.380   5.441  0.9988  0.2097 -0.3423
  654MOL0     C88166   9.519  11.528   5.454  0.3476 -0.2243  0.2908
  654MOL0     C88167   9.614  11.557   5.338 -0.1657 -0.3918  0.3991
  654MOL0     C88168   9.650  11.699   5.308 -0.4724 -0.4166 -0.0220
  654MOL0     C88169   9.757  11.760   5.405 -0.0387 -0.3176  0.2433
  654MOL0     C88170   9.802  11.901   5.383 -0.6860 -0.0681  0.0600
  654MOL0     C88171   9.915  11.886   5.276  0.6524  0.4374 -1.1786
  654MOL0     N88172   9.972  12.025   5.255  0.1623  0.5710  0.4408
  654MOL0     C88173   9.915  12.128   5.188 -1.1853 -0.3798 -0.1292
  654MOL0     C88174  10.022  12.213   5.170 -0.6390  0.6170 -0.0550
  654MOL0     C88175  10.008  12.332   5.075  1.0882 -0.0623 -0.3573
  654MOL0     C88176   9.974  12.465   5.148 -0.1179 -0.1124  0.8854
  654MOL0     C88177  10.094  12.545   5.184 -0.0954  0.0655 -0.5005
  654MOL0     C88178  10.205  12.482   5.267  0.2498 -0.1290  1.3111
  654MOL0     O88179  10.302  12.579   5.314  0.0733  0.6287 -0.1656
  654MOL0     C88180  10.397  12.631   5.225 -0.0842 -0.4380 -0.0111
  654MOL0     C88181  10.456  12.557   5.126 -0.6387  0.3445  0.4001
  654MOL0     C88182  10.553  12.617   5.041  0.1640 -0.3239  0.3415
  654MOL0     C88183  10.607  12.749   5.069  0.4370 -0.6188 -0.5050
  654MOL0     C88184  10.725  12.809   4.997 -0.2950 -0.0239 -0.7725
  654MOL0     O88185  10.728  12.943   4.982 -0.1638 -0.8098  0.3557
  654MOL0     C88186  10.845  12.996   4.929 -0.0125 -0.6219  0.8890
  654MOL0     C88187  10.848  13.101   4.843 -0.2932 -0.2504  0.6697
  654MOL0     C88188  10.967  13.172   4.813 -0.4650  0.0029  0.5487
  654MOL0     C88189  11.086  13.136   4.877 -0.5284  0.0339 -0.3100
  654MOL0     O88190  11.207  13.183   4.844 -0.2491 -0.0402 -0.2613
  654MOL0     C88191  11.216  13.327   4.851 -0.6249 -0.2376 -0.0810
  654MOL0     C88192  11.366  13.371   4.844  0.4320 -0.6351 -0.3970
  654MOL0     C88193  11.370  13.520   4.829  0.3736 -0.0834 -0.0578
  654MOL0     C88194  11.510  13.579   4.855 -0.1705  0.3290  0.6254
  654MOL0     C88195  11.516  13.733   4.838  0.8078  0.0076  0.0415
  654MOL0     C88196  11.603  13.790   4.950  0.8307 -0.0309  0.2165
  654MOL0     C88197  11.647  13.938   4.938 -0.8714 -0.1468 -0.1953
  654MOL0     C88198  11.572  14.047   4.854  0.8212 -0.2559 -0.7798
  654MOL0    Cl88199  11.415  14.068   4.931  0.0171 -0.0640 -0.0702
  654MOL0     C88200  11.076  13.038   4.980 -0.0906 -0.3033  0.6619
  654MOL0     C88201  10.964  12.975   5.008  0.2006 -0.0039  0.3720
  654MOL0     O88202  10.807  12.732   4.950 -0.3552 -0.4092  1.2343
  654MOL0     C88203  10.550  12.817   5.179  0.9628  0.8484 -0.1249
  654MOL0     C88204  10.459  12.753   5.260 -0.1155 -0.6290  0.0416
  654MOL0     N88205  10.134  12.161   5.233 -0.3791 -0.6090  1.1379
  654MOL0     N88206  10.103  12.048   5.280  0.1343 -0.3065  0.2837
  654MOL0     C88207   9.162  11.244   5.715  0.6406 -0.2423  0.0218
  654MOL0     C88208   9.054  11.197   5.781  0.3384 -1.0048  0.2806
  654MOL0     C88209   8.693  10.981   5.883  0.1254  0.3178 -0.7435
  654MOL0     C88210   8.588  10.889   5.843 -0.5654 -0.1522 -0.4533
  654MOL0     C88211   8.497  10.846   5.933 -0.7299  0.0317 -0.2859
  654MOL0     C88212   8.491  10.894   6.067  0.3489  0.3896  0.8104
  654MOL0     O88213   8.398  10.830   6.146  0.0373 -0.0718 -0.4940
  654MOL0     C88214   8.395  10.883   6.275 -0.6805 -0.3973 -0.6263
  654MOL0     C88215   8.290  10.818   6.365  0.2730  0.6528  0.6747
  654MOL0     C88216   8.144  10.819   6.314 -0.4944  0.3028 -0.2054
  654MOL0     C88217   8.069  10.942   6.347 -0.2442  1.2070  0.1496
  654MOL0     C88218   8.080  10.976   6.493 -0.8023  0.1364  1.1165
  654MOL0     C88219   8.072  11.004   6.609  0.0959  0.0935  0.4824
  654MOL0     C88220   8.586  10.985   6.103  0.6301  0.5763 -0.2592
  654MOL0     C88221   8.688  11.031   6.013  0.0591  0.3730  0.7265
  654MOL0     C88222   8.790  11.132   6.058  0.0410  0.3578 -0.0510
  654MOL0     H88223   9.118  10.863   5.739  1.7636 -0.5738 -1.3706
  654MOL0     H88224   9.288  10.936   5.614 -2.2927 -1.5801  1.4904
  654MOL0     H88225   9.264  11.353   5.481  1.7065  2.8204 -4.2024
  654MOL0     H88226   9.361  11.413   5.621  1.6284 -0.1889 -0.2627
  654MOL0     H88227   9.454  11.346   5.339  2.4475  2.2802 -1.4094
  654MOL0     H88228   9.562  11.315   5.458  0.3651 -0.8141 -0.8975
  654MOL0     H88229   9.582  11.548   5.542  0.0737 -0.8124  0.6252
  654MOL0     H88230   9.422  11.577   5.446 -0.2471 -1.2850  0.8616
  654MOL0     H88231   9.714  11.516   5.354  1.0686  3.0449  2.4906
  654MOL0     H88232   9.567  11.519   5.247  2.3918 -4.5572  0.5174
  654MOL0     H88233   9.696  11.692   5.209  1.7886 -2.2482  1.0650
  654MOL0     H88234   9.556  11.753   5.300 -0.5877 -0.6706 -0.4344
  654MOL0     H88235   9.712  11.756   5.504  1.3351  0.2990  0.9228
  654MOL0     H88236   9.842  11.693   5.390  0.3362  0.6776 -3.0050
  654MOL0     H88237   9.847  11.926   5.480  0.4021  2.9258 -1.1066
  654MOL0     H88238   9.721  11.971   5.360 -0.2050  1.4043  2.4662
  654MOL0     H88239   9.989  11.811   5.305 -0.9161 -0.9041 -0.4248
  654MOL0     H88240   9.877  11.848   5.180  0.7517 -2.4695 -0.1775
  654MOL0     H88241   9.814  12.136   5.148 -1.1483  1.6153  0.0598
  654MOL0     H88242  10.098  12.358   5.019 -0.0872  1.4811 -1.5851
  654MOL0     H88243   9.934  12.316   4.996 -0.3619  1.8776  0.5367
  654MOL0     H88244   9.916  12.513   5.068  1.5812 -1.6181 -1.3915
  654MOL0     H88245   9.906  12.445   5.231  0.3734 -2.1177  0.8435
  654MOL0     H88246  10.055  12.634   5.234  0.1712  0.8266 -1.5886
  654MOL0     H88247  10.148  12.575   5.093  1.1927 -4.2658 -1.3766
  654MOL0     H88248  10.259  12.405   5.211  1.7902 -0.8236  3.6115
  654MOL0     H88249  10.154  12.428   5.347 -0.1488  0.1176  1.2286
  654MOL0     H88250  10.425  12.453   5.117  1.8711 -0.3714 -1.0310
  654MOL0     H88251  10.603  12.554   4.968  0.4992 -1.5033  1.5440
  654MOL0     H88252  10.758  13.138   4.794  0.4970 -0.1130 -0.7420
  654MOL0     H88253  10.970  13.248   4.736  1.5252  0.0435  0.6022
  654MOL0     H88254  11.155  13.359   4.766 -0.2193 -2.1233 -1.1517
  654MOL0     H88255  11.164  13.372   4.935 -2.4587  2.7446 -2.6158
  654MOL0     H88256  11.401  13.357   4.946  0.5437  0.3604 -0.2856
  654MOL0     H88257  11.417  13.326   4.759 -4.4589 -5.1498 -1.4863
  654MOL0     H88258  11.351  13.551   4.726  1.2474 -1.0101 -0.5225
  654MOL0     H88259  11.301  13.576   4.892  0.6233  0.2047 -0.0381
  654MOL0     H88260  11.571  13.519   4.786 -2.1416 -1.7441  0.5430
  654MOL0     H88261  11.545  13.549   4.954 -0.6251 -2.3117  0.0799
  654MOL0     H88262  11.419  13.783   4.850  1.3791  0.8075  1.6222
  654MOL0     H88263  11.569  13.767   4.749  3.0432  4.2492  2.7074
  654MOL0     H88264  11.543  13.782   5.041  2.8292  0.9634  1.6839
  654MOL0     H88265  11.694  13.734   4.971  0.5642  1.2869  7.0577
  654MOL0     H88266  11.745  13.938   4.889 -0.6224  0.4147  0.3029
  654MOL0     H88267  11.658  13.984   5.036 -2.3706 -2.5501  1.2027
  654MOL0     H88268  11.620  14.145   4.850  1.3644 -0.5201 -0.8284
  654MOL0     H88269  11.558  14.023   4.748  0.3415  2.6804 -1.4483
  654MOL0     H88270  11.176  13.018   5.019  0.0243 -1.3533 -0.1436
  654MOL0     H88271  10.954  12.916   5.099 -2.0019 -3.7537 -2.0208
  654MOL0     H88272  10.587  12.916   5.203 -2.5964  2.0078  1.2332
  654MOL0     H88273  10.424  12.804   5.349  0.5421 -1.5793  0.8681
  654MOL0     H88274   9.161  11.353   5.720 -3.8429 -0.1407  2.0579
  654MOL0     H88275   8.971  11.252   5.825  0.9185 -0.4433  0.6726
  654MOL0     H88276   8.591  10.856   5.739  2.4776 -0.0586 -0.4766
  654MOL0     H88277   8.429  10.770   5.897 -2.7687  0.5674  2.1005
  654MOL0     H88278   8.386  10.992   6.283 -0.8728 -0.4671  0.1623
  654MOL0     H88279   8.492  10.862   6.322 -0.2328  0.7096 -1.0182
  654MOL0     H88280   8.294  10.873   6.460 -3.7163  2.3802  0.0432
  654MOL0     H88281   8.329  10.719   6.391 -0.1012  0.2957 -0.1083
  654MOL0     H88282   8.098  10.731   6.360 -2.5862  0.2852 -2.1712
  654MOL0     H88283   8.161  10.796   6.208 -0.3245 -1.0849  0.0991
  654MOL0     H88284   8.109  11.025   6.288  0.9362  2.5283  2.6676
  654MOL0     H88285   7.966  10.926   6.316  0.5386 -0.8918 -1.6926
  654MOL0     H88286   8.069  11.019   6.715 -2.4819  1.1671  0.3214
  654MOL0     H88287   8.593  11.031   6.201 -1.2209  0.1213  0.1223
  654MOL0     H88288   8.805  11.205   5.978 -1.0248  1.4735  0.7272
  654MOL0     H88289   8.752  11.192   6.142  0.7102  3.7209 -1.9785
  654MOL0     H88290   8.876  11.079   6.099 -3.3944 -2.7168  4.1443
  655MOL0     O88291   5.484   6.224   0.977 -0.2793  0.5278  0.0457
  655MOL0     C88292   5.530   6.156   0.882 -0.3793 -0.4872  0.6843
  655MOL0     O88293   5.647   6.178   0.817  0.8174  0.0535 -0.3160
  655MOL0     C88294   5.732   6.279   0.856  0.3202  0.1735 -0.5559
  655MOL0     C88295   5.850   6.241   0.921  0.2576 -1.1145 -0.1342
  655MOL0     C88296   5.931   6.337   0.980 -0.2564 -0.1904 -0.1866
  655MOL0     C88297   5.907   6.475   0.965  0.3627  0.6353 -0.9251
  655MOL0     O88298   6.005   6.555   1.008 -0.5125 -0.8329  0.1578
  655MOL0     C88299   5.980   6.689   0.978  0.3879 -0.6056  0.1883
  655MOL0     C88300   6.121   6.753   0.995  0.4652 -0.1276 -0.0599
  655MOL0     C88301   6.124   6.910   1.031 -0.8901  0.9835 -0.0354
  655MOL0     C88302   6.109   6.933   1.185  0.3324 -0.8268  0.0710
  655MOL0     C88303   6.098   7.082   1.223  0.0298  0.7259  0.1417
  655MOL0     C88304   6.050   7.101   1.359  0.2641  0.1139 -0.2314
  655MOL0     C88305   5.897   7.124   1.373  0.6687 -0.3688  0.2683
  655MOL0     C88306   5.849   7.244   1.287  0.4485  0.4395  0.2311
  655MOL0     N88307   5.714   7.289   1.334  0.1112  0.4773  0.1915
  655MOL0     C88308   5.695   7.369   1.451 -0.1472 -0.1187 -0.2445
  655MOL0     C88309   5.556   7.391   1.456 -1.0959  0.1564  0.4785
  655MOL0     C88310   5.479   7.472   1.565  0.9704  0.4775 -0.9623
  655MOL0     C88311   5.453   7.382   1.682  0.3042 -0.2973  0.0042
  655MOL0     C88312   5.362   7.257   1.661  0.2237  0.5880  0.2130
  655MOL0     C88313   5.212   7.301   1.667  0.4408  0.5860 -0.3083
  655MOL0     O88314   5.143   7.176   1.642 -0.0991 -0.7587  0.1029
  655MOL0     C88315   5.010   7.181   1.612  0.3767 -0.4255  0.0711
  655MOL0     C88316   4.937   7.298   1.599  0.5542  0.9097  0.4126
  655MOL0     C88317   4.808   7.302   1.560  0.0706  0.2044 -0.0579
  655MOL0     C88318   4.748   7.180   1.532  0.6155 -0.4273  1.1458
  655MOL0     C88319   4.604   7.177   1.488  0.5092  1.1609 -0.4678
  655MOL0     O88320   4.516   7.220   1.588  0.4396 -0.6416  0.0470
  655MOL0     C88321   4.378   7.217   1.581  0.2430  0.4223  0.4969
  655MOL0     C88322   4.316   7.199   1.697 -0.1224  0.6900  0.9514
  655MOL0     C88323   4.181   7.203   1.719 -0.4993 -0.6460  0.5426
  655MOL0     C88324   4.101   7.227   1.603  0.6840  0.3889  0.8340
  655MOL0     O88325   3.969   7.235   1.629  0.2978  0.6913  0.2223
  655MOL0     C88326   3.882   7.187   1.534 -0.2808  0.7689  0.2063
  655MOL0     C88327   3.770   7.110   1.601  0.3072  0.1168 -0.5050
  655MOL0     C88328   3.690   7.197   1.706 -0.3819  0.5481 -0.2733
  655MOL0     C88329   3.636   7.329   1.647 -0.6429  0.0302  0.2797
  655MOL0     C88330   3.509   7.318   1.568 -0.1316  0.6252 -0.4108
  655MOL0     C88331   3.386   7.284   1.656 -0.7166  0.1071 -1.1258
  655MOL0     C88332   3.261   7.319   1.569 -0.3239 -0.4883 -0.3206
  655MOL0     C88333   3.119   7.294   1.638  0.4075  0.1315  0.1671
  655MOL0    Cl88334   3.115   7.132   1.690  0.0028 -0.6324 -0.2148
  655MOL0     C88335   4.164   7.248   1.479  0.3151  0.4474 -0.5927
  655MOL0     C88336   4.305   7.240   1.468 -0.5886 -0.5760  0.2650
  655MOL0     O88337   4.570   7.129   1.383  0.7338 -0.9053  0.1601
  655MOL0     C88338   4.822   7.058   1.541  0.0747 -0.9742  0.3671
  655MOL0     C88339   4.956   7.061   1.583  0.6688  0.4339 -0.7372
  655MOL0     N88340   5.503   7.317   1.353  0.5299 -0.0016 -0.0088
  655MOL0     N88341   5.593   7.251   1.289  0.2594 -0.7366  0.0634
  655MOL0     C88342   5.794   6.507   0.902  0.1368 -0.5302 -0.2044
  655MOL0     C88343   5.705   6.412   0.847  0.4182 -0.0222  0.3464
  655MOL0     C88344   5.435   6.049   0.824  0.5272  0.0918  0.5954
  655MOL0     C88345   5.460   6.000   0.697  0.3866 -0.0006  0.0381
  655MOL0     C88346   5.369   5.918   0.626  0.0146  0.3629 -0.1626
  655MOL0     C88347   5.270   5.849   0.688 -0.2544  0.3066 -0.8948
  655MOL0     O88348   5.207   5.747   0.630  0.0679 -0.3511  0.2653
  655MOL0     C88349   5.125   5.662   0.709  0.8695 -0.2565  0.9811
  655MOL0     C88350   4.973   5.704   0.695 -0.7239 -0.7163  0.7995
  655MOL0     C88351   4.880   5.613   0.770 -0.1416  0.6895 -0.1725
  655MOL0     C88352   4.880   5.626   0.926 -0.2710 -0.3706 -0.4475
  655MOL0     C88353   4.847   5.762   0.977 -0.4539  0.4235 -0.2621
  655MOL0     C88354   4.807   5.873   1.005 -0.0985  0.3411 -0.1114
  655MOL0     C88355   5.230   5.906   0.813 -1.3316 -0.0973 -0.3566
  655MOL0     C88356   5.314   6.005   0.881  0.2599  0.5000  0.3345
  655MOL0     C88357   5.259   6.050   1.018  1.0050  0.8942  0.7954
  655MOL0     H88358   5.876   6.135   0.915  0.2097 -1.0533 -2.5493
  655MOL0     H88359   6.012   6.297   1.040 -1.9369 -1.3303  1.4486
  655MOL0     H88360   5.941   6.712   0.878 -0.2472 -4.8279 -0.7152
  655MOL0     H88361   5.918   6.733   1.057 -2.8690 -2.5143 -1.1016
  655MOL0     H88362   6.178   6.737   0.903  1.9355  3.7021 -0.0038
  655MOL0     H88363   6.183   6.710   1.074  1.1847  1.4411  0.2668
  655MOL0     H88364   6.028   6.945   0.991 -2.3595 -0.5107  1.9350
  655MOL0     H88365   6.216   6.961   1.003 -1.1227  3.3065  2.9576
  655MOL0     H88366   6.016   6.882   1.214 -0.3830 -0.7171 -1.8662
  655MOL0     H88367   6.195   6.890   1.237  1.6310  1.8853  0.3540
  655MOL0     H88368   6.196   7.129   1.212  1.1099 -1.4382  0.0834
  655MOL0     H88369   6.028   7.124   1.150 -0.7898 -2.5685 -1.1354
  655MOL0     H88370   6.063   7.005   1.408  2.1218  1.0795  1.2881
  655MOL0     H88371   6.109   7.182   1.404  3.2033 -2.2538  0.4916
  655MOL0     H88372   5.881   7.132   1.480 -2.2420 -3.3180  0.2050
  655MOL0     H88373   5.832   7.049   1.326 -2.0068  2.5333 -1.0111
  655MOL0     H88374   5.929   7.318   1.296  0.3171  0.5907  0.1699
  655MOL0     H88375   5.827   7.219   1.183 -1.7920 -0.6848  0.9073
  655MOL0     H88376   5.765   7.416   1.518  0.4247  1.5755 -1.9452
  655MOL0     H88377   5.543   7.554   1.597 -0.7214  0.5712  2.6095
  655MOL0     H88378   5.380   7.510   1.535 -0.3949 -3.2259 -1.6922
  655MOL0     H88379   5.539   7.351   1.742  1.5345  0.2155 -1.4127
  655MOL0     H88380   5.398   7.447   1.750  0.9446 -1.7990  2.0518
  655MOL0     H88381   5.382   7.190   1.744 -0.0054  2.3584  1.7707
  655MOL0     H88382   5.381   7.202   1.568 -0.1694 -2.6688  1.9161
  655MOL0     H88383   5.196   7.376   1.588 -1.9056  1.4694  0.9124
  655MOL0     H88384   5.183   7.347   1.762  2.9641 -0.4361  1.0480
  655MOL0     H88385   4.988   7.393   1.600 -0.0992  1.2663  0.2733
  655MOL0     H88386   4.758   7.396   1.538 -1.0780 -0.5057 -0.5862
  655MOL0     H88387   4.379   7.166   1.778 -2.0627 -0.8634  1.9158
  655MOL0     H88388   4.136   7.169   1.811  1.7703 -0.5633  1.7568
  655MOL0     H88389   3.844   7.267   1.470 -1.2310  0.0707 -0.1187
  655MOL0     H88390   3.939   7.112   1.478  0.7685  0.1369  2.0214
  655MOL0     H88391   3.704   7.075   1.522 -1.0964  1.5154  0.0004
  655MOL0     H88392   3.810   7.024   1.655  0.5335 -0.0432 -0.9198
  655MOL0     H88393   3.610   7.143   1.757  0.3412  1.4687  1.9887
  655MOL0     H88394   3.754   7.227   1.790 -0.7256 -1.8876  0.9403
  655MOL0     H88395   3.698   7.388   1.578  0.0835  0.7480  1.5081
  655MOL0     H88396   3.617   7.396   1.731  4.0156 -0.3381  1.9215
  655MOL0     H88397   3.529   7.254   1.481  0.0879 -1.2164  0.9172
  655MOL0     H88398   3.486   7.418   1.532  2.6945  1.7322  0.5710
  655MOL0     H88399   3.393   7.181   1.694  2.6544  0.6219 -0.0515
  655MOL0     H88400   3.379   7.357   1.736 -1.2839  1.0138 -1.9818
  655MOL0     H88401   3.258   7.250   1.484  0.3800  0.3254 -1.0266
  655MOL0     H88402   3.268   7.424   1.540  0.9894  0.9507  4.2387
  655MOL0     H88403   3.115   7.360   1.725  3.7323 -0.0756  0.5886
  655MOL0     H88404   3.040   7.321   1.567 -0.5956  1.3284  1.6605
  655MOL0     H88405   4.104   7.255   1.388 -0.7152 -1.4598 -0.1241
  655MOL0     H88406   4.351   7.261   1.372  0.0914 -2.2036  0.1914
  655MOL0     H88407   4.784   6.957   1.538 -0.7965 -0.6758  0.8119
  655MOL0     H88408   5.010   6.967   1.585 -1.0186 -0.5684  0.0797
  655MOL0     H88409   5.761   6.610   0.913  2.1622  0.2336 -0.7404
  655MOL0     H88410   5.611   6.447   0.805 -1.3548  0.5704  4.2655
  655MOL0     H88411   5.541   6.054   0.648 -0.4972 -0.4464 -2.0181
  655MOL0     H88412   5.401   5.893   0.525 -0.8068  0.4389 -0.4445
  655MOL0     H88413   5.148   5.652   0.815 -0.6833  3.0638  1.7818
  655MOL0     H88414   5.127   5.561   0.668  2.5642 -0.1413  0.7184
  655MOL0     H88415   4.933   5.720   0.594  0.4896 -0.7204  0.2955
  655MOL0     H88416   4.974   5.807   0.733  2.5382 -0.5482  0.5773
  655MOL0     H88417   4.902   5.509   0.748 -1.2040  0.3361  0.3411
  655MOL0     H88418   4.777   5.628   0.737  0.4659  3.4825 -1.1153
  655MOL0     H88419   4.799   5.563   0.964 -1.4076  1.1774 -0.1836
  655MOL0     H88420   4.973   5.592   0.971 -0.2778  0.5085  0.2645
  655MOL0     H88421   4.786   5.972   1.039  1.5352  0.7931 -0.3284
  655MOL0     H88422   5.138   5.872   0.859 -1.0691 -0.4796 -0.1027
  655MOL0     H88423   5.151   6.033   1.021  0.9798  0.5137 -0.9399
  655MOL0     H88424   5.304   5.989   1.097 -1.5472  1.2286  2.6379
  655MOL0     H88425   5.275   6.157   1.032  3.4293  1.2658 -3.1831
  656MOL0     O88426   4.926   2.269   1.098 -0.1094  0.1979  0.1543
  656MOL0     C88427   4.828   2.209   1.147 -0.6060 -0.1885  0.4426
  656MOL0     O88428   4.833   2.118   1.247  0.6000 -0.4953 -0.7486
  656MOL0     C88429   4.945   2.113   1.316 -0.5599 -0.4555  0.3603
  656MOL0     C88430   4.983   1.983   1.356 -0.7178 -0.2224 -0.3497
  656MOL0     C88431   5.090   1.961   1.441  0.6013 -0.7014  0.0842
  656MOL0     C88432   5.169   2.067   1.484 -0.0146 -0.4514 -0.8843
  656MOL0     O88433   5.274   2.044   1.568 -0.6425  0.1661  0.1518
  656MOL0     C88434   5.398   2.099   1.521  0.4809 -0.2142  0.2604
  656MOL0     C88435   5.504   2.023   1.603 -0.4345 -0.6937 -0.1169
  656MOL0     C88436   5.649   2.066   1.560 -0.0978 -0.0987  0.5485
  656MOL0     C88437   5.740   1.955   1.573 -0.5253  0.2367  0.4965
  656MOL0     C88438   5.879   2.008   1.550  1.1026 -0.2820 -0.8150
  656MOL0     C88439   5.981   1.898   1.544  0.0192 -0.0625 -0.4464
  656MOL0     C88440   6.130   1.941   1.532  0.5884 -0.3314 -0.1016
  656MOL0     C88441   6.168   2.085   1.572 -0.1688 -0.3518 -0.1594
  656MOL0     N88442   6.303   2.116   1.528  0.2058 -0.4936  0.0214
  656MOL0     C88443   6.320   2.181   1.405 -0.1766 -0.1061 -0.7133
  656MOL0     C88444   6.455   2.180   1.387 -0.6785 -0.5260 -0.3550
  656MOL0     C88445   6.533   2.221   1.256  0.0062  0.0401 -1.0585
  656MOL0     C88446   6.639   2.114   1.229  0.4416 -0.2364  0.6502
  656MOL0     C88447   6.783   2.164   1.282  0.2160 -0.1050  0.6106
  656MOL0     C88448   6.895   2.098   1.200 -0.2443 -1.0969 -0.3282
  656MOL0     O88449   7.011   2.185   1.225 -0.0419 -0.1214  0.3083
  656MOL0     C88450   7.134   2.155   1.164 -1.2364 -0.4518 -0.0023
  656MOL0     C88451   7.164   2.031   1.111  0.5658  0.4492 -0.3014
  656MOL0     C88452   7.293   2.019   1.049  0.4629 -0.5762  0.4694
  656MOL0     C88453   7.393   2.116   1.047  0.1568  0.4647  0.1995
  656MOL0     C88454   7.518   2.096   0.979  0.1788  0.4188  0.3106
  656MOL0     O88455   7.535   1.968   0.933 -0.6022 -0.4418  0.3770
  656MOL0     C88456   7.656   1.928   0.878 -0.0383 -0.7837 -0.2805
  656MOL0     C88457   7.648   1.869   0.751  0.1460  0.5373  0.8950
  656MOL0     C88458   7.766   1.835   0.692 -0.1303  0.6438  0.4393
  656MOL0     C88459   7.892   1.864   0.745 -0.9171 -0.3816 -0.2612
  656MOL0     O88460   8.014   1.828   0.693  0.5130 -0.1111  0.2125
  656MOL0     C88461   8.022   1.835   0.547  0.1311  0.4443  0.6108
  656MOL0     C88462   8.166   1.840   0.499  0.6901  0.0860 -0.4130
  656MOL0     C88463   8.246   1.707   0.516  0.5798  0.0890  0.5179
  656MOL0     C88464   8.338   1.705   0.638  0.1439 -0.6897  0.0287
  656MOL0     C88465   8.394   1.566   0.672 -0.4568 -0.2930  0.1363
  656MOL0     C88466   8.476   1.528   0.551  0.1236 -0.6076 -0.0060
  656MOL0     C88467   8.578   1.428   0.595 -0.1103 -0.8807 -0.4754
  656MOL0     C88468   8.608   1.322   0.480  0.1559  0.0274  0.2673
  656MOL0    Cl88469   8.686   1.187   0.564  0.0200  0.2707  0.0390
  656MOL0     C88470   7.901   1.925   0.871 -0.7816  0.3317 -0.2117
  656MOL0     C88471   7.779   1.952   0.941 -0.3643  0.3255  0.5200
  656MOL0     O88472   7.603   2.185   0.977  0.0052  0.1146  1.0502
  656MOL0     C88473   7.366   2.233   1.123 -0.0410  0.2701  0.1366
  656MOL0     C88474   7.233   2.253   1.172  0.2683 -0.2351  0.3201
  656MOL0     N88475   6.517   2.135   1.507  0.2307  0.0830  0.2053
  656MOL0     N88476   6.424   2.089   1.588  0.6024  0.8697  0.2246
  656MOL0     C88477   5.136   2.193   1.431  1.1273  0.1242  0.2484
  656MOL0     C88478   5.020   2.223   1.359 -0.1725 -0.2519 -0.2549
  656MOL0     C88479   4.714   2.220   1.049  0.9601 -0.3081  0.1895
  656MOL0     C88480   4.722   2.293   0.924 -0.6359  0.6599 -0.7934
  656MOL0     C88481   4.617   2.313   0.839  0.8420 -0.0091  0.4579
  656MOL0     C88482   4.500   2.244   0.860  0.0080 -0.0897  0.4787
  656MOL0     O88483   4.381   2.248   0.789 -0.5074 -0.2098  0.2917
  656MOL0     C88484   4.371   2.313   0.652 -0.5025  0.7331 -0.1877
  656MOL0     C88485   4.369   2.464   0.668  0.1804 -0.0212  0.2094
  656MOL0     C88486   4.225   2.515   0.693 -0.4360 -0.4372  0.3090
  656MOL0     C88487   4.164   2.598   0.571 -0.3767  0.7679 -0.7038
  656MOL0     C88488   4.166   2.522   0.446 -0.4813 -1.3442 -0.4138
  656MOL0     C88489   4.165   2.462   0.342 -0.6614 -0.0815  0.1612
  656MOL0     C88490   4.485   2.176   0.980  0.3836  0.8326 -1.4569
  656MOL0     C88491   4.588   2.170   1.074  0.0315  0.5917 -0.6006
  656MOL0     C88492   4.554   2.079   1.190  0.3178  0.5016  0.2999
  656MOL0     H88493   4.929   1.901   1.310  1.8933 -2.3900  0.1930
  656MOL0     H88494   5.116   1.858   1.462  1.7108 -0.6808 -1.0714
  656MOL0     H88495   5.406   2.086   1.412 -2.2892 -2.1742  0.1976
  656MOL0     H88496   5.400   2.205   1.547 -1.8281 -0.0299 -0.0932
  656MOL0     H88497   5.492   1.915   1.586  0.2152 -1.0401  1.4722
  656MOL0     H88498   5.505   2.029   1.712  1.3696  0.3488 -0.1594
  656MOL0     H88499   5.688   2.143   1.627  2.1371  0.3231 -1.1134
  656MOL0     H88500   5.649   2.106   1.458 -0.5163  0.6457  0.8366
  656MOL0     H88501   5.722   1.914   1.672  0.2646  0.8956  0.9275
  656MOL0     H88502   5.717   1.878   1.499  0.5360  0.7418 -0.3928
  656MOL0     H88503   5.886   2.061   1.455 -0.5078 -1.6920 -1.7892
  656MOL0     H88504   5.897   2.082   1.628 -3.1519  3.4896 -2.9873
  656MOL0     H88505   5.984   1.830   1.630  2.1245  1.3736  0.6964
  656MOL0     H88506   5.949   1.837   1.459 -1.4114 -1.1300  0.7878
  656MOL0     H88507   6.164   1.924   1.430  0.3893 -0.7614 -0.0996
  656MOL0     H88508   6.202   1.882   1.591  0.5741 -0.2140  0.0333
  656MOL0     H88509   6.099   2.159   1.530  0.6892  1.3798  1.3588
  656MOL0     H88510   6.150   2.104   1.678 -1.9560  4.1821 -1.0402
  656MOL0     H88511   6.248   2.199   1.326 -0.8779 -1.9089 -0.5260
  656MOL0     H88512   6.458   2.238   1.178 -1.0353 -2.9627 -0.8448
  656MOL0     H88513   6.586   2.315   1.275  1.7239 -1.4509  2.5623
  656MOL0     H88514   6.605   2.019   1.272 -1.7991  1.1799  2.2829
  656MOL0     H88515   6.634   2.108   1.120  1.1044 -0.8188  0.6454
  656MOL0     H88516   6.793   2.139   1.388 -5.2411 -1.6580  1.0585
  656MOL0     H88517   6.794   2.272   1.267  1.3092 -0.5911 -2.9389
  656MOL0     H88518   6.885   2.091   1.092  0.6291 -3.5494 -0.3280
  656MOL0     H88519   6.907   1.994   1.234  1.2200 -1.2989 -1.3440
  656MOL0     H88520   7.103   1.941   1.108 -1.2211  1.2252  3.9790
  656MOL0     H88521   7.321   1.920   1.014  0.8973  0.1385 -1.2845
  656MOL0     H88522   7.556   1.848   0.699 -0.5230  1.2297  1.7684
  656MOL0     H88523   7.758   1.781   0.599  4.1993 -0.0238  0.2633
  656MOL0     H88524   7.968   1.752   0.501 -1.7324  1.1143  1.4732
  656MOL0     H88525   7.969   1.925   0.514 -2.1402 -1.3466 -0.9674
  656MOL0     H88526   8.159   1.861   0.392  0.2033  0.6592 -0.2708
  656MOL0     H88527   8.217   1.926   0.543  0.7412  1.9032 -3.7555
  656MOL0     H88528   8.175   1.624   0.523  1.4296 -1.2617 -3.6511
  656MOL0     H88529   8.322   1.693   0.438  0.0578  1.4997 -0.2695
  656MOL0     H88530   8.286   1.755   0.720  0.6466  1.8541 -1.1152
  656MOL0     H88531   8.424   1.771   0.628 -0.0185 -0.5751 -0.6412
  656MOL0     H88532   8.320   1.490   0.696 -0.1560 -0.6208  0.0359
  656MOL0     H88533   8.456   1.591   0.758  1.9017  1.8519 -1.9916
  656MOL0     H88534   8.404   1.483   0.482 -0.8916  0.8617  0.0493
  656MOL0     H88535   8.524   1.608   0.493 -1.7890 -0.6058 -1.6856
  656MOL0     H88536   8.537   1.378   0.683  2.7404  0.7151  1.9723
  656MOL0     H88537   8.675   1.470   0.626 -0.0749 -1.4837  0.2358
  656MOL0     H88538   8.517   1.282   0.435  0.3815 -1.9573  1.4682
  656MOL0     H88539   8.685   1.361   0.413  1.5777 -1.8234  0.7331
  656MOL0     H88540   8.000   1.954   0.902 -0.6193  0.3527 -0.7401
  656MOL0     H88541   7.784   2.004   1.037  0.3599  1.1904  0.0354
  656MOL0     H88542   7.449   2.299   1.147  1.1136 -1.4882  1.2499
  656MOL0     H88543   7.213   2.347   1.222 -0.1898  1.3252 -2.6044
  656MOL0     H88544   5.208   2.269   1.458  0.2725  0.8330  0.5727
  656MOL0     H88545   4.985   2.321   1.327  1.6523  0.2887 -0.6763
  656MOL0     H88546   4.809   2.337   0.877 -1.6197  0.3988 -3.0152
  656MOL0     H88547   4.635   2.375   0.751 -0.3299 -0.3540 -0.0510
  656MOL0     H88548   4.282   2.281   0.596 -0.6904 -2.4948  1.6836
  656MOL0     H88549   4.468   2.301   0.604 -0.2700  0.0251  0.4388
  656MOL0     H88550   4.425   2.508   0.585 -0.3049  1.7190  0.7677
  656MOL0     H88551   4.431   2.498   0.751  1.4528 -2.2891  0.2834
  656MOL0     H88552   4.222   2.584   0.777 -0.6772  0.4366 -0.4020
  656MOL0     H88553   4.158   2.432   0.716  0.0062 -1.5446 -2.0434
  656MOL0     H88554   4.060   2.612   0.600 -1.2752 -1.4776 -2.4861
  656MOL0     H88555   4.215   2.693   0.552  1.9767 -0.8471 -3.3894
  656MOL0     H88556   4.171   2.411   0.248 -0.9065  0.6026 -0.2331
  656MOL0     H88557   4.383   2.143   1.000  1.7002 -2.2187  0.9348
  656MOL0     H88558   4.452   2.041   1.192 -0.3289  2.2146  0.6248
  656MOL0     H88559   4.621   1.992   1.188 -0.6944 -0.2983  0.5777
  656MOL0     H88560   4.566   2.139   1.281  1.9759  1.9835 -0.8320
  657MOL0     O88561   3.594   8.164   5.943 -0.3983  0.1406  0.0327
  657MOL0     C88562   3.581   8.225   6.047  0.9960 -0.6278 -0.1612
  657MOL0     O88563   3.664   8.311   6.097 -0.3543 -0.0279 -0.7407
  657MOL0     C88564   3.788   8.314   6.043 -0.7345 -0.4682 -0.7244
  657MOL0     C88565   3.895   8.297   6.127  0.6389  0.3739  0.3598
  657MOL0     C88566   4.030   8.323   6.087  0.6530  0.8437 -0.8809
  657MOL0     C88567   4.053   8.361   5.953 -0.4465 -0.5502  0.3372
  657MOL0     O88568   4.185   8.385   5.908 -0.9581  0.5064 -0.3429
  657MOL0     C88569   4.227   8.411   5.774 -0.3695 -0.2449  0.5013
  657MOL0     C88570   4.383   8.418   5.759 -0.4918  0.4599  0.5781
  657MOL0     C88571   4.436   8.475   5.624  0.5442 -0.3340  0.5672
  657MOL0     C88572   4.416   8.376   5.500 -0.0704 -0.2510 -0.4237
  657MOL0     C88573   4.419   8.445   5.366 -0.9591  0.2243 -0.1450
  657MOL0     C88574   4.410   8.335   5.258  0.3385  0.0606 -0.0790
  657MOL0     C88575   4.537   8.245   5.234 -0.5207  0.0117  0.1174
  657MOL0     C88576   4.536   8.149   5.119  0.0641  0.2968 -0.1727
  657MOL0     N88577   4.647   8.053   5.131 -0.3835  0.4026 -0.6137
  657MOL0     C88578   4.781   8.090   5.148 -0.3333 -0.8271 -0.1087
  657MOL0     C88579   4.840   7.966   5.156 -0.5431 -0.2507  0.4841
  657MOL0     C88580   4.982   7.937   5.202 -0.3370 -0.3793 -0.1849
  657MOL0     C88581   5.009   7.803   5.268 -0.3646  0.9155  0.2754
  657MOL0     C88582   5.004   7.681   5.173  0.4835 -0.2503 -0.4064
  657MOL0     C88583   5.103   7.680   5.061 -0.3632 -0.3691  0.3563
  657MOL0     O88584   5.242   7.648   5.102  0.6199  0.0948 -0.1932
  657MOL0     C88585   5.330   7.750   5.131  0.6005  0.8124  0.5793
  657MOL0     C88586   5.385   7.753   5.259 -0.1124 -0.1898  0.2668
  657MOL0     C88587   5.482   7.850   5.294  0.9030  0.1177 -0.3376
  657MOL0     C88588   5.512   7.947   5.199  0.0847 -0.1117  0.0296
  657MOL0     C88589   5.613   8.057   5.243  0.9897 -0.6562 -1.1181
  657MOL0     O88590   5.642   8.155   5.154  0.3252 -0.5733  0.5239
  657MOL0     C88591   5.739   8.243   5.172  0.5678 -0.0967  0.4358
  657MOL0     C88592   5.861   8.205   5.216 -0.1849  0.4303 -0.2039
  657MOL0     C88593   5.954   8.303   5.257  0.2010  0.1015  0.9047
  657MOL0     C88594   5.921   8.440   5.249  0.0372  0.2431  0.3007
  657MOL0     O88595   6.011   8.527   5.300  0.3253 -0.1046  0.5896
  657MOL0     C88596   5.975   8.665   5.301 -0.3867 -0.2056 -0.7832
  657MOL0     C88597   6.093   8.749   5.351  0.6617  0.5470  0.0213
  657MOL0     C88598   6.226   8.727   5.270  1.1501  0.9181 -0.6575
  657MOL0     C88599   6.327   8.816   5.326 -0.2128 -0.3916 -0.0349
  657MOL0     C88600   6.458   8.802   5.249  0.3397  0.8694 -0.2036
  657MOL0     C88601   6.554   8.906   5.290  0.3839  0.1981  0.3538
  657MOL0     C88602   6.674   8.918   5.203 -0.0445  0.0278 -0.2659
  657MOL0     C88603   6.760   9.043   5.243 -0.6351  0.5156  0.4213
  657MOL0    Cl88604   6.864   9.082   5.092  0.2074 -0.1501 -0.1500
  657MOL0     C88605   5.788   8.480   5.212  0.1814 -0.3141 -0.0261
  657MOL0     C88606   5.696   8.374   5.163 -1.1022 -0.1331 -0.4304
  657MOL0     O88607   5.660   8.056   5.354  0.4451 -0.2853  0.3902
  657MOL0     C88608   5.449   7.948   5.081 -0.4105 -0.0108 -0.4171
  657MOL0     C88609   5.361   7.858   5.041 -0.3784  0.8840 -0.1500
  657MOL0     N88610   4.747   7.863   5.135  0.6520  0.1756  0.4276
  657MOL0     N88611   4.634   7.921   5.117  0.7108 -0.2206  0.3242
  657MOL0     C88612   3.950   8.382   5.862  0.2693 -0.1943  0.1790
  657MOL0     C88613   3.815   8.349   5.908 -0.3692 -1.0096  0.3348
  657MOL0     C88614   3.444   8.224   6.116 -0.7458 -0.4750  0.6147
  657MOL0     C88615   3.427   8.282   6.240  0.2009  0.1106 -0.0620
  657MOL0     C88616   3.299   8.295   6.305  0.1024 -0.1147 -0.5931
  657MOL0     C88617   3.173   8.259   6.240 -0.6426  0.1240 -0.2989
  657MOL0     O88618   3.054   8.278   6.305 -1.2711 -0.3670  0.9267
  657MOL0     C88619   2.950   8.188   6.260  0.2319 -0.3165  0.5541
  657MOL0     C88620   2.815   8.248   6.302 -0.6580 -0.1382  0.7407
  657MOL0     C88621   2.697   8.158   6.290 -0.2031  0.3153  0.0822
  657MOL0     C88622   2.556   8.228   6.312 -0.2043 -0.1493 -0.4565
  657MOL0     C88623   2.556   8.292   6.438  0.7469  0.1637 -0.0477
  657MOL0     C88624   2.555   8.348   6.550 -0.0779 -0.0505  0.0536
  657MOL0     C88625   3.193   8.191   6.112 -0.3078  0.2632  0.7723
  657MOL0     C88626   3.323   8.174   6.053  0.3372 -0.0373  0.0399
  657MOL0     C88627   3.314   8.125   5.907 -0.8890  0.7383  0.1901
  657MOL0     H88628   3.873   8.281   6.232  2.5385 -1.4211  0.5643
  657MOL0     H88629   4.116   8.304   6.150  2.9957  0.6150 -3.9443
  657MOL0     H88630   4.177   8.337   5.712  0.1409  0.0022 -0.2126
  657MOL0     H88631   4.183   8.511   5.758  0.1937 -0.0379  0.2287
  657MOL0     H88632   4.424   8.322   5.790  0.2873  1.4206  2.7274
  657MOL0     H88633   4.414   8.494   5.832  0.6436  1.1933 -0.6307
  657MOL0     H88634   4.544   8.491   5.630  0.3732  1.3857 -0.3213
  657MOL0     H88635   4.390   8.571   5.603  0.9151 -0.5585 -1.5212
  657MOL0     H88636   4.498   8.306   5.516 -0.5060 -0.1781  2.6771
  657MOL0     H88637   4.317   8.331   5.512 -1.2242  2.3112  0.3624
  657MOL0     H88638   4.346   8.526   5.354 -0.6617  0.7557  1.3672
  657MOL0     H88639   4.522   8.480   5.352 -1.0496  2.2558  3.1854
  657MOL0     H88640   4.324   8.273   5.282 -1.0511  3.1337  4.0826
  657MOL0     H88641   4.382   8.392   5.169  2.1992  0.9393 -0.1638
  657MOL0     H88642   4.553   8.191   5.327  3.5815  1.9564  0.7832
  657MOL0     H88643   4.626   8.309   5.223 -0.6482  0.7595  2.8795
  657MOL0     H88644   4.447   8.086   5.123 -0.0186  0.2500 -2.0634
  657MOL0     H88645   4.530   8.216   5.033  1.2871  1.3937  0.5592
  657MOL0     H88646   4.821   8.189   5.163 -2.5042 -0.2517  2.5271
  657MOL0     H88647   5.045   7.944   5.113 -1.2443 -1.1007 -0.9014
  657MOL0     H88648   5.021   8.015   5.267 -0.5836 -0.4800  0.0838
  657MOL0     H88649   5.104   7.799   5.321 -0.2138  0.6145 -0.0147
  657MOL0     H88650   4.934   7.783   5.345  2.1505 -3.0230  1.9809
  657MOL0     H88651   4.907   7.684   5.121  0.7787  5.8667 -1.3373
  657MOL0     H88652   5.024   7.596   5.240  1.9532 -0.1951 -0.7547
  657MOL0     H88653   5.082   7.770   5.002 -3.4117 -0.2373  1.4510
  657MOL0     H88654   5.056   7.600   5.003 -0.9663 -0.7507  1.3423
  657MOL0     H88655   5.359   7.683   5.337  2.1985  0.9735  2.2390
  657MOL0     H88656   5.519   7.847   5.396  1.0736 -1.4085 -0.4248
  657MOL0     H88657   5.889   8.108   5.256 -0.7767  0.7501  1.0169
  657MOL0     H88658   6.041   8.268   5.312  1.0295  0.8073  0.0709
  657MOL0     H88659   5.946   8.703   5.202  0.5045  1.0350 -0.5821
  657MOL0     H88660   5.894   8.675   5.373 -1.5344 -1.8761 -1.7631
  657MOL0     H88661   6.054   8.851   5.346 -2.2599 -0.5054 -1.0900
  657MOL0     H88662   6.114   8.740   5.457  2.2293  0.8533 -0.2373
  657MOL0     H88663   6.268   8.625   5.268  2.4160  1.4242 -2.4199
  657MOL0     H88664   6.201   8.751   5.166 -0.6106  1.7504 -0.0643
  657MOL0     H88665   6.352   8.787   5.428  1.4690 -3.2129 -1.1129
  657MOL0     H88666   6.293   8.920   5.320 -1.2756 -0.5428  2.3574
  657MOL0     H88667   6.435   8.814   5.142 -3.4260  0.8495  0.4889
  657MOL0     H88668   6.502   8.702   5.258  0.2863  0.8408 -0.2520
  657MOL0     H88669   6.495   8.998   5.283 -0.1896 -0.1439  0.5450
  657MOL0     H88670   6.581   8.879   5.392  4.0212 -2.4594 -1.0840
  657MOL0     H88671   6.641   8.931   5.100  0.8845 -0.7941 -0.6749
  657MOL0     H88672   6.740   8.832   5.219  0.7858  0.8460  0.8937
  657MOL0     H88673   6.700   9.129   5.275  1.3412  1.2229  2.4849
  657MOL0     H88674   6.829   9.016   5.323  1.9382 -0.5476 -2.0051
  657MOL0     H88675   5.757   8.583   5.219  1.0241  0.0762 -1.5348
  657MOL0     H88676   5.593   8.401   5.143 -0.9664  1.3824  0.7399
  657MOL0     H88677   5.479   8.029   5.016  1.5939  0.7570  1.3361
  657MOL0     H88678   5.307   7.882   4.950 -5.4185  2.6057  2.9009
  657MOL0     H88679   3.969   8.426   5.765  2.5251  1.7911  1.4072
  657MOL0     H88680   3.739   8.353   5.830  1.2530 -1.9795 -1.3706
  657MOL0     H88681   3.518   8.310   6.292 -0.0700 -1.5912  1.4341
  657MOL0     H88682   3.296   8.341   6.404 -0.4220 -1.1848 -0.0984
  657MOL0     H88683   2.961   8.100   6.324  0.3433  0.4965  1.6957
  657MOL0     H88684   2.948   8.171   6.152 -0.4605  4.3302 -0.3788
  657MOL0     H88685   2.801   8.339   6.242  2.9053 -1.0854 -1.8535
  657MOL0     H88686   2.817   8.274   6.408 -5.5058  0.8557  0.8562
  657MOL0     H88687   2.704   8.078   6.364  0.0281  1.7090  1.6232
  657MOL0     H88688   2.709   8.107   6.194  2.1138  0.6744  0.1403
  657MOL0     H88689   2.540   8.296   6.228 -1.7135 -0.5730 -0.5411
  657MOL0     H88690   2.485   8.144   6.310  0.8525 -1.3532  3.5082
  657MOL0     H88691   2.564   8.393   6.647  0.0777 -0.9138  0.4535
  657MOL0     H88692   3.117   8.174   6.037  0.8729  2.6066 -1.0925
  657MOL0     H88693   3.353   8.203   5.842  2.0220 -0.8320 -0.0933
  657MOL0     H88694   3.384   8.043   5.892  1.8688  3.3095 -2.3589
  657MOL0     H88695   3.219   8.080   5.875 -1.2154  1.2910  0.3526
  658MOL0     O88696   1.714   5.953   8.347  0.0014 -0.6744  0.7131
  658MOL0     C88697   1.714   6.069   8.387  0.2236  0.2571  0.2796
  658MOL0     O88698   1.823   6.146   8.395  0.3348 -0.1329  0.6078
  658MOL0     C88699   1.947   6.098   8.370  0.3283  1.1638  0.6808
  658MOL0     C88700   2.011   5.995   8.438 -0.0849 -0.4005  0.7799
  658MOL0     C88701   2.138   5.946   8.402 -0.4700 -0.3152 -0.2909
  658MOL0     C88702   2.201   6.009   8.294 -0.4490 -0.2806  0.0444
  658MOL0     O88703   2.316   5.946   8.253 -0.4897  0.3635  0.2193
  658MOL0     C88704   2.303   5.905   8.113  0.4779 -0.7585 -0.9110
  658MOL0     C88705   2.418   5.814   8.075 -0.4667  0.8204  0.4677
  658MOL0     C88706   2.550   5.868   8.122 -0.7292 -0.9284  0.0065
  658MOL0     C88707   2.649   5.780   8.053  0.4707  0.1650  0.6866
  658MOL0     C88708   2.788   5.842   8.062  0.2119  0.2104  0.3754
  658MOL0     C88709   2.897   5.736   8.046  0.2441 -0.2165 -0.4018
  658MOL0     C88710   3.033   5.809   8.039  0.2357 -0.1564 -0.2402
  658MOL0     C88711   3.150   5.715   8.013  0.2563 -0.5003  0.8404
  658MOL0     N88712   3.158   5.607   8.116 -0.3861  0.1109 -0.0788
  658MOL0     C88713   3.188   5.621   8.248  0.4439  0.1824 -0.6408
  658MOL0     C88714   3.163   5.497   8.295 -0.2049 -0.1300  0.4060
  658MOL0     C88715   3.186   5.471   8.437 -0.6755 -0.6222 -0.3750
  658MOL0     C88716   3.072   5.523   8.514 -0.6398 -0.2101  0.0174
  658MOL0     C88717   3.031   5.442   8.640 -0.4304 -0.7145 -0.7805
  658MOL0     C88718   2.921   5.508   8.724 -0.1704  0.4081  0.0435
  658MOL0     O88719   2.803   5.473   8.651  0.4823  0.5575 -0.4484
  658MOL0     C88720   2.686   5.535   8.671 -0.1696 -0.2352 -0.0107
  658MOL0     C88721   2.597   5.530   8.561  0.2249 -0.0100  0.3762
  658MOL0     C88722   2.474   5.588   8.573  0.8059 -0.4918  0.2315
  658MOL0     C88723   2.433   5.650   8.696 -0.0706 -0.5554  0.4841
  658MOL0     C88724   2.298   5.702   8.699 -0.3342  0.6640 -0.8408
  658MOL0     O88725   2.263   5.755   8.822  0.0120  0.9855 -0.1808
  658MOL0     C88726   2.134   5.793   8.831 -0.0607  0.0695  0.1019
  658MOL0     C88727   2.081   5.903   8.761  0.0858  0.7083  0.2981
  658MOL0     C88728   1.958   5.954   8.792 -0.6471  0.3464  0.6453
  658MOL0     C88729   1.868   5.891   8.885 -0.1426 -0.0202 -0.0278
  658MOL0     O88730   1.734   5.913   8.917  0.1247 -0.2549 -0.0481
  658MOL0     C88731   1.654   5.982   8.820  0.2932  0.1781 -1.1753
  658MOL0     C88732   1.576   6.104   8.878  0.4779  1.0297  0.6694
  658MOL0     C88733   1.664   6.218   8.921 -0.2498 -0.2293  0.5126
  658MOL0     C88734   1.592   6.351   8.941  0.8344  1.0354 -0.1168
  658MOL0     C88735   1.674   6.446   8.999  0.6800  0.2071  0.0327
  658MOL0     C88736   1.598   6.572   9.039 -0.4370 -0.3729  0.0567
  658MOL0     C88737   1.565   6.673   8.926 -0.1194 -0.9250  0.6314
  658MOL0     C88738   1.682   6.707   8.831 -0.0641  0.9470 -0.0278
  658MOL0    Cl88739   1.613   6.796   8.697  0.2124 -0.3359 -0.1707
  658MOL0     C88740   1.918   5.785   8.960  0.7160  0.0053 -0.0873
  658MOL0     C88741   2.053   5.743   8.935 -0.9169 -0.1243  0.2201
  658MOL0     O88742   2.220   5.698   8.603  0.5096 -0.0273 -0.0756
  658MOL0     C88743   2.515   5.650   8.800  0.3470 -1.0576 -0.8581
  658MOL0     C88744   2.641   5.584   8.789  0.3318 -1.1183 -0.1681
  658MOL0     N88745   3.154   5.410   8.189 -0.2572 -0.0775 -0.1475
  658MOL0     N88746   3.135   5.480   8.077 -1.1639 -0.1057 -0.6993
  658MOL0     C88747   2.136   6.116   8.227 -0.1967  0.4846  0.1692
  658MOL0     C88748   2.012   6.164   8.272 -0.4341  0.5584 -0.9365
  658MOL0     C88749   1.587   6.119   8.443 -0.7818  0.7382 -1.0299
  658MOL0     C88750   1.472   6.030   8.431 -0.1184  0.0146 -0.4188
  658MOL0     C88751   1.352   6.071   8.493 -0.0951 -0.0536 -0.1881
  658MOL0     C88752   1.333   6.191   8.552 -0.4792  0.0185  0.2240
  658MOL0     O88753   1.212   6.239   8.596 -0.0240  0.1968  0.1445
  658MOL0     C88754   1.121   6.150   8.662 -0.3983  0.6483  0.6376
  658MOL0     C88755   1.000   6.244   8.698 -0.1866  0.1946 -0.3072
  658MOL0     C88756   0.914   6.185   8.816  0.6011  0.4782  0.3189
  658MOL0     C88757   0.777   6.258   8.815  1.2854 -0.5319  0.8744
  658MOL0     C88758   0.705   6.216   8.936 -0.1609  0.6225  0.5936
  658MOL0     C88759   0.639   6.150   9.006  0.8585 -0.7192  0.4607
  658MOL0     C88760   1.440   6.283   8.548 -0.8732 -0.0253 -0.0692
  658MOL0     C88761   1.563   6.249   8.500  0.4461  0.4445  0.1930
  658MOL0     C88762   1.666   6.353   8.510  0.3190  0.3356 -0.1132
  658MOL0     H88763   1.955   5.950   8.519 -0.9880 -1.8475 -0.5712
  658MOL0     H88764   2.176   5.857   8.452 -1.2849 -0.3693  0.2427
  658MOL0     H88765   2.203   5.863   8.102 -0.9527  1.5101  2.0797
  658MOL0     H88766   2.307   5.988   8.042  2.0250  0.7104  0.7896
  658MOL0     H88767   2.415   5.801   7.966 -1.0902 -0.6366  0.6413
  658MOL0     H88768   2.393   5.721   8.126  0.7322  0.7600  0.9765
  658MOL0     H88769   2.565   5.857   8.229 -1.4331  0.4043  0.2543
  658MOL0     H88770   2.548   5.975   8.099 -1.6417 -0.7329  0.9605
  658MOL0     H88771   2.653   5.678   8.095 -2.5297  0.3792  1.7890
  658MOL0     H88772   2.624   5.756   7.949 -1.2630  1.9103  0.6473
  658MOL0     H88773   2.799   5.915   7.981 -2.7899  0.9715  0.5173
  658MOL0     H88774   2.813   5.890   8.157  3.6942  1.5840 -1.0472
  658MOL0     H88775   2.880   5.658   8.120 -4.9477  0.1185 -0.9107
  658MOL0     H88776   2.878   5.678   7.955  0.4874  0.1917 -0.7164
  658MOL0     H88777   3.061   5.866   8.128  1.8507 -3.3844  1.4977
  658MOL0     H88778   3.032   5.877   7.954 -1.4270 -0.5707 -0.5882
  658MOL0     H88779   3.128   5.676   7.913 -0.4701  1.9099 -0.0167
  658MOL0     H88780   3.251   5.756   8.000  0.5252 -1.5311 -0.6202
  658MOL0     H88781   3.200   5.712   8.306 -1.1407  0.6691 -1.0296
  658MOL0     H88782   3.194   5.363   8.450  2.0605 -0.3042  1.6138
  658MOL0     H88783   3.270   5.528   8.479 -1.7230  0.0523  0.8768
  658MOL0     H88784   3.089   5.627   8.542 -1.3579 -0.4327  1.3675
  658MOL0     H88785   2.980   5.517   8.454 -0.3395  0.1368 -0.4797
  658MOL0     H88786   3.114   5.445   8.711 -2.0886 -0.5962  1.2774
  658MOL0     H88787   2.997   5.342   8.613 -0.6904 -0.7714 -0.2650
  658MOL0     H88788   2.945   5.614   8.735  1.5670 -0.2428  4.4893
  658MOL0     H88789   2.916   5.469   8.826  1.4732  0.9426  0.3725
  658MOL0     H88790   2.618   5.474   8.471 -4.2611  0.3134 -1.1301
  658MOL0     H88791   2.406   5.577   8.489  2.2723 -2.7535 -0.7717
  658MOL0     H88792   2.143   5.952   8.687 -0.8625  1.6686  0.1196
  658MOL0     H88793   1.939   6.040   8.728  4.2109  2.1373  1.1928
  658MOL0     H88794   1.709   6.023   8.735  0.4799  2.0620 -0.1994
  658MOL0     H88795   1.583   5.915   8.771  0.2366 -0.0997 -0.7144
  658MOL0     H88796   1.513   6.132   8.794 -0.0100 -3.0665 -0.5402
  658MOL0     H88797   1.510   6.072   8.959  1.9621  0.4211  1.6839
  658MOL0     H88798   1.704   6.180   9.015 -2.8249  0.6817  2.0791
  658MOL0     H88799   1.744   6.228   8.847  0.4980 -1.5875  1.1071
  658MOL0     H88800   1.501   6.333   9.000  0.9458  1.9420  0.3425
  658MOL0     H88801   1.555   6.375   8.841 -0.5732 -2.2949 -0.5513
  658MOL0     H88802   1.753   6.464   8.925  0.8725 -0.6991 -0.0013
  658MOL0     H88803   1.715   6.397   9.088  0.1271 -2.6059 -1.1486
  658MOL0     H88804   1.511   6.545   9.099 -0.1059  2.5720  2.0754
  658MOL0     H88805   1.666   6.620   9.110  0.5232 -1.5667 -0.0073
  658MOL0     H88806   1.528   6.761   8.979  2.9106  1.3592 -0.7413
  658MOL0     H88807   1.481   6.631   8.869 -1.1281  1.3804  0.3243
  658MOL0     H88808   1.764   6.763   8.876  1.0519  1.7554 -2.8057
  658MOL0     H88809   1.737   6.630   8.774 -2.8510 -0.0791 -1.5161
  658MOL0     H88810   1.859   5.734   9.035 -0.0567  1.2386  0.1596
  658MOL0     H88811   2.086   5.650   8.980 -1.7628  0.2256  1.6208
  658MOL0     H88812   2.486   5.687   8.898  0.5070  4.4609 -2.5529
  658MOL0     H88813   2.700   5.583   8.880  1.0449 -0.2707 -0.6028
  658MOL0     H88814   2.187   6.151   8.138  1.9030  0.1711  1.1617
  658MOL0     H88815   1.969   6.251   8.224  1.2401  1.1686 -1.3888
  658MOL0     H88816   1.474   5.935   8.379  0.7331  0.3846 -1.0796
  658MOL0     H88817   1.276   5.994   8.497  2.5909 -2.8310  2.9107
  658MOL0     H88818   1.180   6.125   8.750  1.0440  2.0880  0.1257
  658MOL0     H88819   1.095   6.061   8.603 -0.6757  1.6485 -0.8097
  658MOL0     H88820   0.930   6.245   8.614  0.5985 -1.6601 -1.0211
  658MOL0     H88821   1.051   6.338   8.723  1.7218 -0.3219 -1.9612
  658MOL0     H88822   0.971   6.203   8.907  1.9416  0.5944 -0.5264
  658MOL0     H88823   0.898   6.078   8.799  0.5249  0.4147  0.7922
  658MOL0     H88824   0.784   6.367   8.815 -0.5093 -0.3909  1.0352
  658MOL0     H88825   0.732   6.227   8.721  1.2510  0.7868  0.4435
  658MOL0     H88826   0.570   6.088   9.059 -0.5503  0.8388  0.5425
  658MOL0     H88827   1.431   6.380   8.596  2.9484  1.6309 -2.2161
  658MOL0     H88828   1.722   6.365   8.416 -0.3663  3.2541 -0.2286
  658MOL0     H88829   1.621   6.451   8.529 -0.5555  0.0899 -0.8449
  658MOL0     H88830   1.733   6.338   8.595  1.3925 -0.6716 -1.0833
  659MOL0     O88831   5.964   8.402   5.798  0.9252  0.6326  0.4207
  659MOL0     C88832   5.879   8.369   5.880  1.0648 -0.1868 -0.2593
  659MOL0     O88833   5.798   8.461   5.949 -0.5145  0.0991 -0.7483
  659MOL0     C88834   5.793   8.590   5.906 -0.7036  0.0095 -0.5652
  659MOL0     C88835   5.848   8.696   5.988  1.0284 -0.4356 -1.1034
  659MOL0     C88836   5.824   8.827   5.942  0.5154 -2.0064  0.3731
  659MOL0     C88837   5.764   8.850   5.816  0.0581 -0.8389 -0.5041
  659MOL0     O88838   5.718   8.971   5.772 -0.2390  0.3599 -0.2918
  659MOL0     C88839   5.817   9.076   5.746 -0.7079  0.1188  0.3514
  659MOL0     C88840   5.797   9.213   5.795  0.1097 -0.2263 -0.8282
  659MOL0     C88841   5.919   9.301   5.771  0.3737 -0.0136  0.3095
  659MOL0     C88842   5.912   9.435   5.840 -0.5613 -0.2633  0.0485
  659MOL0     C88843   5.990   9.550   5.765 -0.5820  0.3152  0.5460
  659MOL0     C88844   5.902   9.610   5.649 -0.9236  0.0830  0.4536
  659MOL0     C88845   5.799   9.713   5.699  0.6250 -0.3584 -0.5856
  659MOL0     C88846   5.727   9.779   5.579 -0.5575  0.4694 -0.4813
  659MOL0     N88847   5.655   9.690   5.495 -0.4904 -0.6729  0.5198
  659MOL0     C88848   5.560   9.597   5.528  1.1083 -0.8224 -0.2738
  659MOL0     C88849   5.526   9.523   5.424 -0.8352  0.5120  0.4076
  659MOL0     C88850   5.438   9.406   5.417  0.3533 -0.4607 -1.1554
  659MOL0     C88851   5.500   9.299   5.506 -0.5019  0.4297  0.2168
  659MOL0     C88852   5.635   9.267   5.462 -0.3421 -0.7887 -0.3981
  659MOL0     C88853   5.649   9.229   5.314 -0.1880  0.7144 -0.6238
  659MOL0     O88854   5.766   9.144   5.305  0.1019 -0.2857 -0.1369
  659MOL0     C88855   5.879   9.199   5.361  0.2000 -0.0143  0.7719
  659MOL0     C88856   5.926   9.327   5.335 -0.0853 -0.4154 -0.1222
  659MOL0     C88857   6.060   9.367   5.377 -0.0798 -0.1475 -0.3894
  659MOL0     C88858   6.143   9.280   5.438  0.5951  0.8436 -0.1352
  659MOL0     C88859   6.290   9.312   5.464 -0.4735 -0.0525 -0.7213
  659MOL0     O88860   6.383   9.207   5.470  0.3062 -0.1344 -0.2143
  659MOL0     C88861   6.517   9.238   5.508  0.7496  0.2858 -0.8180
  659MOL0     C88862   6.591   9.344   5.476 -0.4381  0.0792  0.2506
  659MOL0     C88863   6.735   9.339   5.497 -0.2271 -0.6213  0.3964
  659MOL0     C88864   6.790   9.241   5.576  0.2523  0.1865 -0.0994
  659MOL0     O88865   6.917   9.259   5.613  0.3306 -1.1006  0.4439
  659MOL0     C88866   6.958   9.201   5.735  0.6492  0.1032 -1.0308
  659MOL0     C88867   7.104   9.237   5.737  0.9494  0.3423 -0.2082
  659MOL0     C88868   7.170   9.181   5.868 -0.3804 -1.5559  0.0127
  659MOL0     C88869   7.331   9.189   5.840  0.6089  0.6188 -0.5787
  659MOL0     C88870   7.401   9.124   5.950 -0.3729  0.4474  0.1534
  659MOL0     C88871   7.556   9.115   5.917 -0.1030  0.2566  1.3836
  659MOL0     C88872   7.639   9.126   6.039 -0.1842 -0.5386  0.0626
  659MOL0     C88873   7.781   9.083   5.998  0.7967  0.0838 -0.9921
  659MOL0    Cl88874   7.849   9.194   5.886  0.0105  0.0542  0.0295
  659MOL0     C88875   6.708   9.136   5.620  1.0891  0.1520 -0.2392
  659MOL0     C88876   6.572   9.130   5.579  0.2761 -0.1650 -0.0834
  659MOL0     O88877   6.327   9.429   5.488  0.6736  0.1937  0.5459
  659MOL0     C88878   6.104   9.150   5.449 -0.1189 -0.3624  0.0463
  659MOL0     C88879   5.967   9.106   5.419 -0.0860 -0.9878  0.0920
  659MOL0     N88880   5.587   9.581   5.316  0.2827  0.6681 -0.0576
  659MOL0     N88881   5.665   9.682   5.358  0.4786  0.1664  0.1810
  659MOL0     C88882   5.712   8.746   5.749  1.1118  1.1104  0.2779
  659MOL0     C88883   5.732   8.616   5.782  0.1533 -0.4848 -0.1078
  659MOL0     C88884   5.853   8.224   5.912  0.7087 -0.6301  0.7670
  659MOL0     C88885   5.796   8.196   6.040 -0.3237  0.4014 -0.2141
  659MOL0     C88886   5.739   8.076   6.071 -0.5418 -0.2103 -0.1433
  659MOL0     C88887   5.755   7.968   5.983  0.2760  0.4444 -0.8244
  659MOL0     O88888   5.698   7.847   6.024  0.3021  0.1554  0.2145
  659MOL0     C88889   5.702   7.740   5.925  0.4129 -0.2936  0.5631
  659MOL0     C88890   5.814   7.640   5.936  0.0117 -0.3436  0.5522
  659MOL0     C88891   5.939   7.681   5.875  0.4406 -0.1610  1.0138
  659MOL0     C88892   6.035   7.567   5.853 -0.0643  0.2210  1.1125
  659MOL0     C88893   6.088   7.527   5.982  0.1189 -0.4755 -0.2183
  659MOL0     C88894   6.118   7.486   6.091 -0.4687  0.3049 -1.0653
  659MOL0     C88895   5.819   7.992   5.860  0.2687 -0.4569  0.5029
  659MOL0     C88896   5.867   8.113   5.825  0.2384 -0.5325 -0.7590
  659MOL0     C88897   5.935   8.128   5.693 -0.2810 -0.5820  0.0960
  659MOL0     H88898   5.884   8.673   6.088 -2.4328  0.1529  0.4176
  659MOL0     H88899   5.859   8.914   5.997  1.3560  0.2091 -3.3021
  659MOL0     H88900   5.914   9.034   5.776  0.1278  0.8636 -1.1675
  659MOL0     H88901   5.838   9.079   5.639  1.8822  0.7502  0.8040
  659MOL0     H88902   5.789   9.207   5.904 -1.7728  2.5026 -0.7123
  659MOL0     H88903   5.706   9.248   5.746 -1.0600 -2.4950 -0.4440
  659MOL0     H88904   5.931   9.321   5.664  0.1200 -0.2910  0.2267
  659MOL0     H88905   6.012   9.251   5.800 -0.0931 -1.1422 -0.0537
  659MOL0     H88906   5.811   9.468   5.862 -0.1672  0.9087  0.1695
  659MOL0     H88907   5.964   9.417   5.934  0.5097  1.4401 -0.1690
  659MOL0     H88908   6.020   9.630   5.833  0.4942  0.4202 -0.0284
  659MOL0     H88909   6.080   9.511   5.718 -2.9968 -1.8579 -2.8006
  659MOL0     H88910   5.971   9.666   5.587 -1.8653  1.7137  0.8263
  659MOL0     H88911   5.859   9.532   5.585 -1.2596  1.3831 -0.9512
  659MOL0     H88912   5.841   9.780   5.775 -0.3855  0.1709 -0.4711
  659MOL0     H88913   5.717   9.653   5.740 -1.5920  3.3209  0.9102
  659MOL0     H88914   5.660   9.851   5.627 -0.1950 -1.1474  2.6435
  659MOL0     H88915   5.806   9.825   5.519  0.4239 -2.3887 -1.5525
  659MOL0     H88916   5.545   9.583   5.634  3.8834  0.1045  0.3293
  659MOL0     H88917   5.340   9.424   5.463 -0.9706 -1.4917 -3.3868
  659MOL0     H88918   5.409   9.388   5.313 -0.3803  3.2284 -1.7393
  659MOL0     H88919   5.502   9.325   5.613  0.2660 -1.8851  0.8234
  659MOL0     H88920   5.446   9.203   5.502  0.8949 -0.3578 -0.4669
  659MOL0     H88921   5.671   9.189   5.529 -0.5784  0.7727  1.6529
  659MOL0     H88922   5.708   9.348   5.477 -0.8188 -0.4751  0.2689
  659MOL0     H88923   5.669   9.317   5.253  3.2280 -0.1062 -0.8980
  659MOL0     H88924   5.559   9.176   5.282 -0.9445 -0.2805  2.7580
  659MOL0     H88925   5.857   9.399   5.293 -2.9134 -2.1167  1.3135
  659MOL0     H88926   6.093   9.470   5.375  0.8529 -0.3246  1.8501
  659MOL0     H88927   6.542   9.414   5.408  1.8978  0.4917 -1.1472
  659MOL0     H88928   6.776   9.437   5.475 -2.7561  0.0863 -1.8030
  659MOL0     H88929   6.904   9.244   5.820 -0.2615 -0.6382 -1.2233
  659MOL0     H88930   6.956   9.092   5.741 -1.5360  0.1948  1.4779
  659MOL0     H88931   7.146   9.204   5.642 -1.7238  0.7206 -1.6342
  659MOL0     H88932   7.111   9.347   5.737 -0.4388  0.4488 -0.0373
  659MOL0     H88933   7.141   9.245   5.951 -1.6273  0.5571 -1.9354
  659MOL0     H88934   7.132   9.081   5.893 -4.2764 -0.0932  0.6624
  659MOL0     H88935   7.376   9.289   5.836  4.7992 -1.0686 -0.6163
  659MOL0     H88936   7.353   9.130   5.751 -0.9729  0.3542 -0.8304
  659MOL0     H88937   7.356   9.029   5.982  0.2212  0.0334 -0.2317
  659MOL0     H88938   7.395   9.194   6.034 -3.3722  0.1214  0.3210
  659MOL0     H88939   7.574   9.020   5.865 -0.0747 -0.5809  2.8491
  659MOL0     H88940   7.575   9.208   5.862  2.4068 -0.2097  1.3266
  659MOL0     H88941   7.589   9.066   6.115 -4.6631  2.1923 -0.3741
  659MOL0     H88942   7.641   9.231   6.073 -1.0219  0.9363 -3.9356
  659MOL0     H88943   7.838   9.078   6.091 -1.0004 -3.2990  0.0976
  659MOL0     H88944   7.771   8.983   5.954  0.4584 -1.0205  1.4204
  659MOL0     H88945   6.740   9.057   5.688 -4.0041 -0.0573  2.4306
  659MOL0     H88946   6.504   9.047   5.596 -1.3965  0.9483 -1.0039
  659MOL0     H88947   6.170   9.068   5.475  2.4199  0.8076 -2.2116
  659MOL0     H88948   5.936   9.003   5.430 -3.8675  0.1375  1.5814
  659MOL0     H88949   5.648   8.748   5.661  1.6091  0.0893 -0.1282
  659MOL0     H88950   5.687   8.541   5.718  0.5486  0.8231 -1.9906
  659MOL0     H88951   5.797   8.282   6.106  0.4183  1.5620 -1.6500
  659MOL0     H88952   5.690   8.066   6.167  1.1353 -2.9647  0.5362
  659MOL0     H88953   5.689   7.781   5.824  1.5382 -0.1768  0.4538
  659MOL0     H88954   5.610   7.684   5.943 -0.7652  1.3372 -0.0840
  659MOL0     H88955   5.777   7.550   5.886 -2.8498  0.8265  0.3666
  659MOL0     H88956   5.823   7.620   6.044 -1.4426  1.6010  1.0932
  659MOL0     H88957   6.002   7.755   5.926 -0.8961 -0.1282  2.6825
  659MOL0     H88958   5.919   7.727   5.778  2.3537 -0.3986  0.4595
  659MOL0     H88959   5.987   7.486   5.796 -2.5402  1.7675  0.8635
  659MOL0     H88960   6.125   7.595   5.799 -0.0039  0.5367  1.3802
  659MOL0     H88961   6.156   7.455   6.186  0.9724  1.1187 -1.3381
  659MOL0     H88962   5.829   7.917   5.782  0.9221 -0.4872  0.6061
  659MOL0     H88963   5.943   8.038   5.631 -1.9785 -0.1106 -0.8983
  659MOL0     H88964   5.889   8.197   5.621  1.7329 -0.0390 -0.7336
  659MOL0     H88965   6.040   8.155   5.701  0.0919 -1.6624 -0.8675
  660MOL0     O88966   9.260   1.627  10.806  0.5124 -0.2738 -0.3628
  660MOL0     C88967   9.251   1.521  10.871  0.1922 -0.1505 -0.7671
  660MOL0     O88968   9.350   1.425  10.897 -0.4825 -0.9595  0.5400
  660MOL0     C88969   9.469   1.423  10.813 -1.0281 -0.8902 -1.2302
  660MOL0     C88970   9.516   1.300  10.773 -1.0911 -0.1846  0.3549
  660MOL0     C88971   9.637   1.301  10.705  0.2083 -0.0423  0.0996
  660MOL0     C88972   9.703   1.420  10.669 -0.1419  0.9687 -0.4445
  660MOL0     O88973   9.816   1.416  10.592 -0.1460  0.7100  0.2437
  660MOL0     C88974   9.851   1.531  10.513  0.1381 -0.3352  0.1852
  660MOL0     C88975   9.879   1.492  10.369  0.5709 -0.7431  0.0926
  660MOL0     C88976  10.016   1.560  10.325  0.2464 -0.2893  0.2565
  660MOL0     C88977  10.034   1.546  10.179  0.6468  0.3457 -0.0573
  660MOL0     C88978  10.148   1.649  10.138 -0.4844  0.3115  0.6305
  660MOL0     C88979  10.277   1.630  10.208 -0.1245  0.6721  0.0385
  660MOL0     C88980  10.368   1.745  10.176 -0.4418 -0.7191 -0.5848
  660MOL0     C88981  10.516   1.737  10.247  1.4175  0.1974  0.0927
  660MOL0     N88982  10.596   1.639  10.187 -0.0009 -0.2750 -0.2646
  660MOL0     C88983  10.647   1.525  10.244  0.2837  0.3491 -0.6543
  660MOL0     C88984  10.706   1.462  10.138  0.5815 -0.5022 -0.3173
  660MOL0     C88985  10.777   1.323  10.149 -0.3548 -0.7057 -0.2506
  660MOL0     C88986  10.924   1.369  10.145 -0.3801 -1.1336  0.7402
  660MOL0     C88987  10.987   1.395  10.280  0.1685  0.0695  1.1623
  660MOL0     C88988  11.135   1.431  10.271  0.4042 -0.4809  0.1786
  660MOL0     O88989  11.199   1.294  10.248  0.1293  0.3281 -0.2509
  660MOL0     C88990  11.330   1.285  10.214 -0.6113 -1.0966 -0.1448
  660MOL0     C88991  11.372   1.162  10.162 -0.1615  0.7118  0.1381
  660MOL0     C88992  11.512   1.141  10.141  0.7107  0.4357  0.3393
  660MOL0     C88993  11.612   1.232  10.181  0.9437 -0.9868  0.2453
  660MOL0     C88994  11.752   1.206  10.131 -0.1057 -0.3276  0.9732
  660MOL0     O88995  11.785   1.100  10.067 -1.0826  0.6386 -0.1580
  660MOL0     C88996  11.917   1.066  10.052 -0.4087 -0.8203 -0.4770
  660MOL0     C88997  11.951   1.039   9.925  0.0177  0.7108  0.1565
  660MOL0     C88998  12.085   0.995   9.906 -0.2908 -0.8768 -0.4070
  660MOL0     C88999  12.179   0.997  10.012 -0.9053 -0.5117 -0.0351
  660MOL0     O89000  12.305   0.952   9.987 -0.2576  0.0255 -0.4114
  660MOL0     C89001  12.347   0.955   9.854 -0.2936 -0.0862  0.1503
  660MOL0     C89002  12.509   0.955   9.854 -0.3675  0.4158 -0.0849
  660MOL0     C89003  12.562   1.097   9.876  1.2112 -0.1203  0.8424
  660MOL0     C89004  12.710   1.098   9.885 -0.5755 -0.6609  1.1461
  660MOL0     C89005  12.750   1.247   9.918  0.5780  0.6185  0.1153
  660MOL0     C89006  12.895   1.268   9.928 -0.2707  0.1489  0.3938
  660MOL0     C89007  12.940   1.260  10.079  0.2706 -0.6773 -0.3367
  660MOL0     C89008  13.088   1.275  10.100  0.4018 -0.2906  0.3145
  660MOL0    Cl89009  13.165   1.160   9.995  0.3299 -0.0774 -0.0816
  660MOL0     C89010  12.131   1.016  10.141  0.3632 -0.9332  0.1753
  660MOL0     C89011  12.000   1.064  10.161  0.2373  0.5037 -0.2965
  660MOL0     O89012  11.829   1.298  10.151  0.1929  0.4070  0.2230
  660MOL0     C89013  11.568   1.351  10.241  0.5683 -0.6447  0.3482
  660MOL0     C89014  11.433   1.377  10.257 -0.5440 -0.0208  1.0879
  660MOL0     N89015  10.705   1.551  10.035  0.0469  0.4734 -0.4516
  660MOL0     N89016  10.632   1.650  10.057 -0.2774  0.1867 -0.4301
  660MOL0     C89017   9.656   1.536  10.720  0.3449 -0.8260 -0.2319
  660MOL0     C89018   9.542   1.544  10.798 -0.1686  0.0187  0.0952
  660MOL0     C89019   9.116   1.490  10.934 -0.3718  0.7108 -0.3982
  660MOL0     C89020   9.120   1.402  11.047  0.7387  0.2796 -0.9416
  660MOL0     C89021   8.995   1.370  11.106 -0.1425  0.0275 -0.0251
  660MOL0     C89022   8.870   1.430  11.074  1.4892  0.1866 -0.3091
  660MOL0     O89023   8.759   1.386  11.148 -0.3859  0.1765  0.4053
  660MOL0     C89024   8.629   1.426  11.103  0.0230 -0.5043 -0.5347
  660MOL0     C89025   8.512   1.374  11.189  0.9611  0.3969  0.3963
  660MOL0     C89026   8.501   1.225  11.172 -0.3168  0.2305  0.6927
  660MOL0     C89027   8.481   1.166  11.020 -0.4702 -0.0131  0.7852
  660MOL0     C89028   8.347   1.199  10.977 -0.0496  0.2412  0.0652
  660MOL0     C89029   8.240   1.244  10.954  0.6134  0.3730  1.0249
  660MOL0     C89030   8.869   1.533  10.978 -0.9160 -0.2141  0.8252
  660MOL0     C89031   8.988   1.550  10.898  0.1204  0.4513 -0.2321
  660MOL0     C89032   8.983   1.649  10.792  0.4638  0.4977 -0.5244
  660MOL0     H89033   9.465   1.206  10.792  0.1570 -0.6450  1.5787
  660MOL0     H89034   9.683   1.215  10.657 -1.2017 -1.0825  0.5646
  660MOL0     H89035   9.780   1.613  10.502  1.1978  0.5684  0.0338
  660MOL0     H89036   9.939   1.571  10.563  0.6039  0.0578 -0.9177
  660MOL0     H89037   9.804   1.537  10.303  1.3933 -1.1112 -1.1168
  660MOL0     H89038   9.876   1.386  10.341  1.7823 -0.0605 -2.8865
  660MOL0     H89039  10.095   1.507  10.379 -1.3325 -0.0684  3.0028
  660MOL0     H89040  10.017   1.664  10.361  3.7039 -0.2571  0.4453
  660MOL0     H89041  10.077   1.447  10.159 -0.1056 -0.4768  2.1683
  660MOL0     H89042   9.940   1.570  10.129  0.9213  1.4944 -0.0296
  660MOL0     H89043  10.173   1.626  10.034  2.1337  0.7213  1.1032
  660MOL0     H89044  10.115   1.751  10.158  0.2308  0.6905 -0.0815
  660MOL0     H89045  10.268   1.625  10.317 -1.0711 -0.3195 -0.0725
  660MOL0     H89046  10.325   1.536  10.180  1.2155  1.7761 -1.5300
  660MOL0     H89047  10.317   1.839  10.201  2.5351  0.6283  0.8174
  660MOL0     H89048  10.392   1.744  10.069  0.8476 -2.4423 -0.3202
  660MOL0     H89049  10.559   1.838  10.241 -1.6289  1.4967 -3.0650
  660MOL0     H89050  10.513   1.713  10.353  4.9745 -1.5082 -0.0520
  660MOL0     H89051  10.638   1.492  10.346  0.2453  3.1607  0.3356
  660MOL0     H89052  10.750   1.267  10.239 -4.9014  0.8692 -0.4029
  660MOL0     H89053  10.771   1.267  10.055  1.0404 -0.9709 -0.2047
  660MOL0     H89054  10.984   1.305  10.080 -1.9828  0.1147 -2.1782
  660MOL0     H89055  10.939   1.457  10.081 -0.4442 -0.7884  1.1969
  660MOL0     H89056  10.965   1.319  10.357  0.7929 -0.0764  1.2027
  660MOL0     H89057  10.942   1.484  10.324 -0.4428  0.0899  0.5202
  660MOL0     H89058  11.163   1.463  10.372  1.2972 -0.9152  0.0794
  660MOL0     H89059  11.167   1.507  10.199 -1.5890  0.2129 -0.0330
  660MOL0     H89060  11.311   1.080  10.127 -0.0396  1.2816 -1.4730
  660MOL0     H89061  11.536   1.052  10.083  0.3474 -0.0030  0.8543
  660MOL0     H89062  11.891   1.035   9.835  0.5117  0.4656 -0.1608
  660MOL0     H89063  12.116   0.966   9.807 -3.1246 -1.9845 -1.0792
  660MOL0     H89064  12.313   0.861   9.811  1.9065  0.8194 -4.1616
  660MOL0     H89065  12.303   1.032   9.790  0.8129  0.3343 -0.1266
  660MOL0     H89066  12.540   0.882   9.929 -2.9017 -2.8502 -1.9373
  660MOL0     H89067  12.541   0.917   9.756 -0.7779  0.2681 -0.1645
  660MOL0     H89068  12.513   1.158   9.800 -0.6630 -2.3582  0.1454
  660MOL0     H89069  12.513   1.129   9.969 -2.3247 -1.5680 -0.3273
  660MOL0     H89070  12.746   1.063   9.789 -2.1451  1.1289 -0.1735
  660MOL0     H89071  12.727   1.033   9.972 -2.5990 -1.2414  1.1674
  660MOL0     H89072  12.713   1.268  10.019  2.4765 -0.4111  1.0780
  660MOL0     H89073  12.710   1.315   9.841  1.7912  1.3549  0.1119
  660MOL0     H89074  12.943   1.192   9.866  0.7321  0.0364  1.2632
  660MOL0     H89075  12.917   1.371   9.899 -0.0276  0.1483  0.5714
  660MOL0     H89076  12.899   1.166  10.118  0.7646 -0.6718  0.2184
  660MOL0     H89077  12.892   1.335  10.143  0.9095 -1.2267  0.8124
  660MOL0     H89078  13.109   1.382  10.086  0.2060 -0.1854  0.8186
  660MOL0     H89079  13.117   1.258  10.204 -2.5920 -0.0496  1.2881
  660MOL0     H89080  12.195   0.992  10.225  0.0651  1.4322  1.1368
  660MOL0     H89081  11.960   1.086  10.260  1.4528 -0.5449  0.4674
  660MOL0     H89082  11.630   1.430  10.282 -2.4833  1.9547  0.3519
  660MOL0     H89083  11.401   1.470  10.303 -2.0185 -0.1886  0.4514
  660MOL0     H89084   9.706   1.632  10.704  0.5127 -1.2109 -2.1774
  660MOL0     H89085   9.529   1.643  10.841  2.4522  0.6829 -0.4271
  660MOL0     H89086   9.210   1.354  11.083 -1.1576 -0.4581  3.3790
  660MOL0     H89087   8.978   1.301  11.187  0.8927 -1.1724 -0.7749
  660MOL0     H89088   8.623   1.414  10.994  1.4317  0.1534 -0.7074
  660MOL0     H89089   8.624   1.535  11.110  3.2957 -0.3125  0.0442
  660MOL0     H89090   8.421   1.426  11.158  2.3816  1.3526 -2.6180
  660MOL0     H89091   8.525   1.385  11.297 -1.7140 -3.6023  1.3310
  660MOL0     H89092   8.411   1.184  11.219 -1.3570  0.6669 -0.8242
  660MOL0     H89093   8.586   1.178  11.221 -1.1987 -1.6725  0.4922
  660MOL0     H89094   8.547   1.216  10.949 -1.0534 -0.2752  0.0551
  660MOL0     H89095   8.502   1.059  11.010 -1.4081 -0.5901  3.8818
  660MOL0     H89096   8.154   1.307  10.939  1.0687  1.1940  1.8128
  660MOL0     H89097   8.778   1.587  10.953 -0.3772  0.7203  0.8006
  660MOL0     H89098   9.004   1.751  10.826 -0.9044  0.7834 -0.4878
  660MOL0     H89099   9.034   1.616  10.701  0.7869  0.6024 -0.3836
  660MOL0     H89100   8.878   1.655  10.763  0.8905  2.4306 -1.8406
  661MOL0     O89101   8.460   6.080   0.294  0.3931 -0.3702 -0.2718
  661MOL0     C89102   8.390   6.003   0.223  0.1984 -0.4064 -0.2800
  661MOL0     O89103   8.421   5.979   0.087  0.9592  0.0481 -0.7766
  661MOL0     C89104   8.516   6.058   0.034 -0.3026 -0.1018 -0.5215
  661MOL0     C89105   8.647   6.018   0.006  0.7118 -0.0958  0.6376
  661MOL0     C89106   8.727   6.100  -0.068  0.8295  0.5505  0.4727
  661MOL0     C89107   8.688   6.232  -0.097  0.6581  0.3620 -0.1659
  661MOL0     O89108   8.746   6.317  -0.182  0.3522 -0.4718  0.5206
  661MOL0     C89109   8.839   6.271  -0.274 -0.0408  0.0041  0.2797
  661MOL0     C89110   8.973   6.310  -0.219  0.5588  0.9112  0.1041
  661MOL0     C89111   9.096   6.286  -0.312  0.1485 -0.3216 -0.6603
  661MOL0     C89112   9.225   6.331  -0.241  0.4298 -0.6925 -0.6068
  661MOL0     C89113   9.353   6.329  -0.328 -0.1676 -0.3422  0.5207
  661MOL0     C89114   9.463   6.420  -0.254  0.2465  0.7784 -0.8527
  661MOL0     C89115   9.594   6.455  -0.330  0.0227 -0.3185  0.1451
  661MOL0     C89116   9.662   6.342  -0.402  0.3888  0.2300 -0.1439
  661MOL0     N89117   9.778   6.395  -0.485  0.4138 -0.1896  0.3748
  661MOL0     C89118   9.909   6.426  -0.450  0.3537 -0.1019  0.1109
  661MOL0     C89119   9.986   6.459  -0.560 -0.4921  0.6662  0.0472
  661MOL0     C89120  10.137   6.488  -0.569  0.6534 -0.3082  0.7127
  661MOL0     C89121  10.167   6.526  -0.719 -0.9924  0.2723  0.0462
  661MOL0     C89122  10.312   6.565  -0.736  0.2480  0.0859  0.5571
  661MOL0     C89123  10.348   6.592  -0.884  0.1164  0.5639 -0.2896
  661MOL0     O89124  10.488   6.621  -0.912  0.4404 -0.1046 -0.3578
  661MOL0     C89125  10.579   6.525  -0.905  0.2030 -0.4453  0.9348
  661MOL0     C89126  10.710   6.570  -0.927 -1.1317  0.3604 -0.1655
  661MOL0     C89127  10.820   6.477  -0.937  0.1744  0.1467  0.2357
  661MOL0     C89128  10.796   6.341  -0.947 -0.3371  0.0052 -0.4966
  661MOL0     C89129  10.912   6.244  -0.977  0.3770  0.1615 -0.4693
  661MOL0     O89130  10.880   6.111  -0.948  0.3832 -0.6690  0.0552
  661MOL0     C89131  10.965   6.016  -0.997 -0.1719  0.1030  0.7776
  661MOL0     C89132  10.994   5.998  -1.135 -0.9943  0.2574 -0.0969
  661MOL0     C89133  11.090   5.903  -1.174 -0.5070  0.4412  0.7464
  661MOL0     C89134  11.156   5.818  -1.083  0.4986  0.1503 -0.8544
  661MOL0     O89135  11.250   5.731  -1.126 -0.6690 -0.3332 -0.3744
  661MOL0     C89136  11.362   5.700  -1.036 -0.2405 -0.1045  0.0918
  661MOL0     C89137  11.448   5.600  -1.114 -1.0280 -0.6285  0.0585
  661MOL0     C89138  11.592   5.583  -1.070  0.8791  0.1244  0.0801
  661MOL0     C89139  11.671   5.504  -1.170  0.6155  0.3997  0.3230
  661MOL0     C89140  11.819   5.501  -1.132  0.2787 -0.2168 -0.1202
  661MOL0     C89141  11.857   5.434  -1.007 -0.3320 -0.5049  0.3679
  661MOL0     C89142  12.013   5.444  -1.001 -0.3235  0.2788 -0.9251
  661MOL0     C89143  12.065   5.339  -0.899 -0.0968 -0.3512 -0.3701
  661MOL0    Cl89144  12.251   5.320  -0.897 -0.0174 -0.1390 -0.4563
  661MOL0     C89145  11.144   5.849  -0.937  0.0062 -0.1805 -0.0835
  661MOL0     C89146  11.042   5.942  -0.901  0.0684  0.5303 -0.6088
  661MOL0     O89147  11.013   6.288  -1.030 -0.8148 -0.4594  0.4770
  661MOL0     C89148  10.663   6.300  -0.916  0.3845 -0.0357  0.3516
  661MOL0     C89149  10.562   6.390  -0.881  0.0000 -0.6962 -0.0596
  661MOL0     N89150   9.894   6.449  -0.659 -0.4798  0.6448  0.0912
  661MOL0     N89151   9.772   6.426  -0.611  0.1178 -0.8446  0.4228
  661MOL0     C89152   8.560   6.273  -0.060  0.7282  1.1124 -0.6543
  661MOL0     C89153   8.471   6.184  -0.002 -0.3837 -0.4119  0.4062
  661MOL0     C89154   8.277   5.940   0.288 -0.5209 -0.2290 -0.3174
  661MOL0     C89155   8.223   5.822   0.227 -0.1116 -0.3689 -0.4227
  661MOL0     C89156   8.111   5.760   0.286 -0.7378  0.5118  0.1231
  661MOL0     C89157   8.054   5.810   0.398  0.1214  0.6341  0.3086
  661MOL0     O89158   7.957   5.736   0.449  0.3739  0.2384  0.3583
  661MOL0     C89159   7.934   5.724   0.587 -0.6719  0.5320 -0.0522
  661MOL0     C89160   7.883   5.579   0.609  0.0380  0.3114 -0.2239
  661MOL0     C89161   7.751   5.539   0.543  0.5114  0.2598 -0.7260
  661MOL0     C89162   7.693   5.423   0.630  0.4560 -0.5051  0.6865
  661MOL0     C89163   7.576   5.350   0.566  0.5879  0.7835  0.5435
  661MOL0     C89164   7.492   5.297   0.495  0.5271  0.6141 -0.2747
  661MOL0     C89165   8.101   5.923   0.455  0.2663  0.1226 -1.2047
  661MOL0     C89166   8.211   5.982   0.408 -0.6523 -0.6877  1.5447
  661MOL0     C89167   8.258   6.095   0.486 -0.0184 -0.3742 -0.5792
  661MOL0     H89168   8.678   5.919   0.040  1.3579 -0.5060 -1.0276
  661MOL0     H89169   8.827   6.066  -0.092  0.4027 -0.0438 -0.5180
  661MOL0     H89170   8.822   6.168  -0.307 -3.0986  0.0424  1.4836
  661MOL0     H89171   8.824   6.328  -0.367  0.7281 -0.1388  0.0585
  661MOL0     H89172   8.994   6.254  -0.127 -0.0847  0.7081  0.1337
  661MOL0     H89173   8.971   6.417  -0.198  0.3490  1.0981 -0.8168
  661MOL0     H89174   9.082   6.343  -0.404  0.7459 -1.0550 -1.2173
  661MOL0     H89175   9.118   6.184  -0.345  2.2425  0.4314 -1.7093
  661MOL0     H89176   9.199   6.431  -0.206 -2.3428 -1.6474  0.3129
  661MOL0     H89177   9.248   6.272  -0.151 -0.6566  0.8333  0.7389
  661MOL0     H89178   9.388   6.226  -0.329  1.6537  0.2545  0.0624
  661MOL0     H89179   9.327   6.361  -0.429  3.2085 -0.1100 -0.3970
  661MOL0     H89180   9.421   6.518  -0.228  2.1091  0.9681  1.8318
  661MOL0     H89181   9.503   6.380  -0.161 -1.6467  0.4526 -0.1432
  661MOL0     H89182   9.667   6.498  -0.261  1.8042 -2.4628 -0.2970
  661MOL0     H89183   9.563   6.521  -0.412  2.4357 -2.8470 -3.0897
  661MOL0     H89184   9.701   6.269  -0.331 -2.4390  0.1003  1.4568
  661MOL0     H89185   9.586   6.288  -0.460  0.5745 -1.8738  1.4444
  661MOL0     H89186   9.968   6.425  -0.359 -1.6210  2.5544  1.5680
  661MOL0     H89187  10.152   6.569  -0.498 -1.3989  2.4330 -1.7087
  661MOL0     H89188  10.191   6.395  -0.547 -1.5105 -1.5828  0.8874
  661MOL0     H89189  10.157   6.442  -0.788  1.4049 -0.1223  0.0893
  661MOL0     H89190  10.105   6.610  -0.753  2.1251  3.2420  1.0463
  661MOL0     H89191  10.381   6.502  -0.680  1.3581  1.1254  0.3985
  661MOL0     H89192  10.323   6.667  -0.699 -3.0567  1.5055 -1.8879
  661MOL0     H89193  10.280   6.664  -0.931 -0.1319 -0.5945 -1.7971
  661MOL0     H89194  10.322   6.505  -0.946  0.3298 -0.7909  1.4603
  661MOL0     H89195  10.715   6.677  -0.943 -2.7570  0.6742  1.1496
  661MOL0     H89196  10.918   6.516  -0.964  0.5496 -2.5754 -3.1174
  661MOL0     H89197  10.943   6.042  -1.220  2.3382 -0.8730 -2.9164
  661MOL0     H89198  11.104   5.874  -1.278 -1.2079  0.7145  0.5741
  661MOL0     H89199  11.406   5.795  -1.003 -1.7006  0.1633  1.4287
  661MOL0     H89200  11.329   5.655  -0.942  1.0668 -1.3735 -0.0162
  661MOL0     H89201  11.396   5.507  -1.090 -2.3657  0.0348 -0.1944
  661MOL0     H89202  11.440   5.613  -1.223 -1.0174  2.8867  0.3745
  661MOL0     H89203  11.642   5.679  -1.059  2.1776 -0.6164  0.7955
  661MOL0     H89204  11.604   5.531  -0.975 -0.2345  0.1357  0.2405
  661MOL0     H89205  11.661   5.536  -1.275  3.7197  2.1732  0.4504
  661MOL0     H89206  11.636   5.401  -1.160  5.1358 -1.3482  0.6265
  661MOL0     H89207  11.864   5.599  -1.114  0.1747 -0.8055  4.5643
  661MOL0     H89208  11.868   5.453  -1.217  3.0338 -1.5970  2.0936
  661MOL0     H89209  11.805   5.481  -0.924 -1.8090  2.6281 -2.1104
  661MOL0     H89210  11.835   5.327  -1.017 -0.2547 -0.4314 -0.7309
  661MOL0     H89211  12.036   5.544  -0.963 -0.1619 -0.1997  0.2799
  661MOL0     H89212  12.060   5.426  -1.098  3.2369  3.1639  0.0376
  661MOL0     H89213  12.025   5.356  -0.798  0.5198  0.7652 -0.3028
  661MOL0     H89214  12.019   5.248  -0.940 -2.0881  0.2112  0.4942
  661MOL0     H89215  11.205   5.791  -0.868  2.2158 -1.0042 -2.5635
  661MOL0     H89216  11.018   5.960  -0.796 -0.2757 -0.0005 -0.5941
  661MOL0     H89217  10.643   6.194  -0.925 -0.8442  0.2662 -0.8648
  661MOL0     H89218  10.466   6.350  -0.849 -0.0783 -0.2884  0.2163
  661MOL0     H89219   8.536   6.378  -0.072 -0.0437  0.8410 -1.6224
  661MOL0     H89220   8.369   6.215   0.015 -1.1785 -3.2133  1.2429
  661MOL0     H89221   8.266   5.788   0.133  1.1384 -0.9707  0.3398
  661MOL0     H89222   8.079   5.673   0.231 -2.5023  0.9802  0.3724
  661MOL0     H89223   7.857   5.798   0.612 -3.3544 -1.0904 -2.7022
  661MOL0     H89224   8.017   5.756   0.650  1.5903 -1.6035 -1.7448
  661MOL0     H89225   7.877   5.565   0.718 -1.2713  0.7659 -0.2205
  661MOL0     H89226   7.949   5.508   0.558 -1.5005  1.5489 -4.2659
  661MOL0     H89227   7.762   5.521   0.436  3.5564 -0.1985 -0.4067
  661MOL0     H89228   7.671   5.614   0.555  0.7631  0.2632  1.2392
  661MOL0     H89229   7.771   5.348   0.647  0.0611 -0.6394  2.0775
  661MOL0     H89230   7.660   5.464   0.726 -2.6086 -2.1935  0.4828
  661MOL0     H89231   7.424   5.250   0.426  1.8342  0.8791 -1.7855
  661MOL0     H89232   8.049   5.957   0.544  0.3167 -0.8922 -0.7702
  661MOL0     H89233   8.197   6.118   0.574  0.0340 -2.0291 -0.0590
  661MOL0     H89234   8.361   6.079   0.519 -0.3109 -3.8507 -0.9696
  661MOL0     H89235   8.252   6.190   0.434 -1.2288  0.5518  1.1404
  662MOL0     O89236   8.208   7.625   7.516  0.7683 -0.1031 -0.4354
  662MOL0     C89237   8.115   7.702   7.487 -0.5530 -0.1198  0.0054
  662MOL0     O89238   8.095   7.827   7.535 -0.1603 -0.0109  0.9597
  662MOL0     C89239   8.193   7.898   7.594 -0.5565 -0.3743  0.0968
  662MOL0     C89240   8.199   8.031   7.554 -0.7996  0.2019 -0.2506
  662MOL0     C89241   8.305   8.109   7.600 -0.2749 -0.2376  0.1730
  662MOL0     C89242   8.401   8.068   7.688 -0.8641 -0.2885 -0.5059
  662MOL0     O89243   8.509   8.154   7.723  0.5283  0.2492 -0.4787
  662MOL0     C89244   8.632   8.089   7.762  1.0162  0.2121  0.0998
  662MOL0     C89245   8.738   8.191   7.759 -0.1433 -0.6081 -0.8751
  662MOL0     C89246   8.869   8.148   7.831  0.1505  0.1905  1.4960
  662MOL0     C89247   8.947   8.274   7.869 -0.3691  1.2525  0.0343
  662MOL0     C89248   9.079   8.233   7.931 -0.3891 -0.6455 -0.2960
  662MOL0     C89249   9.054   8.150   8.058  0.4911 -0.5779 -0.1327
  662MOL0     C89250   9.175   8.152   8.153  0.6615 -0.6753 -0.4678
  662MOL0     C89251   9.175   8.274   8.247  0.1103  0.6009 -0.1336
  662MOL0     N89252   9.300   8.287   8.325  0.4424 -0.0963  0.3951
  662MOL0     C89253   9.347   8.403   8.385  0.1070 -0.1171  1.0342
  662MOL0     C89254   9.459   8.354   8.450 -0.1982 -0.0103  0.2378
  662MOL0     C89255   9.562   8.450   8.513  0.2879 -0.2286  0.3397
  662MOL0     C89256   9.510   8.534   8.641 -0.2631  0.3645 -0.3165
  662MOL0     C89257   9.446   8.449   8.750  0.6041  0.5426  0.4810
  662MOL0     C89258   9.500   8.472   8.890  0.0949 -0.4439 -0.0536
  662MOL0     O89259   9.596   8.372   8.941  0.6918 -0.1104  0.2342
  662MOL0     C89260   9.680   8.396   9.044  0.6301 -1.1749 -0.7487
  662MOL0     C89261   9.690   8.516   9.120 -0.1076 -0.9136 -1.3699
  662MOL0     C89262   9.784   8.536   9.217 -0.1704 -0.3891 -0.2656
  662MOL0     C89263   9.867   8.424   9.246 -0.2120 -0.0393  0.3951
  662MOL0     C89264   9.971   8.441   9.349  0.1489 -0.2335 -1.2554
  662MOL0     O89265   9.957   8.545   9.431 -0.3742 -0.3302 -0.0515
  662MOL0     C89266  10.051   8.583   9.515 -0.0520  0.8699  0.0409
  662MOL0     C89267  10.190   8.610   9.486  0.2159  0.3894  0.2368
  662MOL0     C89268  10.281   8.628   9.594  0.7933 -2.0326  0.4712
  662MOL0     C89269  10.243   8.631   9.732  0.4554  0.4860  0.1356
  662MOL0     O89270  10.323   8.646   9.842 -0.1708 -0.2647  0.3671
  662MOL0     C89271  10.450   8.709   9.807  0.6187  0.5867 -0.3898
  662MOL0     C89272  10.513   8.737   9.937 -0.3594 -0.3560 -0.0747
  662MOL0     C89273  10.646   8.811   9.919 -0.9654  0.6959  0.1203
  662MOL0     C89274  10.692   8.855  10.057 -0.7921 -0.4094  1.5558
  662MOL0     C89275  10.817   8.943  10.045 -0.2289  0.7231  0.1061
  662MOL0     C89276  10.927   8.875   9.964  0.0165 -0.0566  0.3044
  662MOL0     C89277  11.070   8.929  10.009  1.2186  0.2835 -0.3767
  662MOL0     C89278  11.179   8.837   9.939  0.9130 -0.0844  0.1853
  662MOL0    Cl89279  11.337   8.917   9.985  0.4629  0.1616 -0.1526
  662MOL0     C89280  10.101   8.612   9.744  0.0786 -1.0206  0.5453
  662MOL0     C89281  10.007   8.588   9.642 -0.1209  0.9259 -0.4726
  662MOL0     O89282  10.066   8.371   9.338 -0.1868  0.5663 -1.2887
  662MOL0     C89283   9.842   8.300   9.185 -1.2893  0.0925  0.7891
  662MOL0     C89284   9.757   8.289   9.080 -0.2541  0.6374  0.2447
  662MOL0     N89285   9.481   8.225   8.403  0.0898  0.4748  0.9382
  662MOL0     N89286   9.379   8.183   8.338 -0.8318  0.0505 -0.3887
  662MOL0     C89287   8.382   7.932   7.732 -0.5097 -0.3909  0.2331
  662MOL0     C89288   8.286   7.846   7.682 -0.5507  0.1634  0.4699
  662MOL0     C89289   8.005   7.644   7.410 -0.7412 -0.1456 -0.6160
  662MOL0     C89290   7.886   7.714   7.422  0.3677  0.6894  0.2145
  662MOL0     C89291   7.766   7.656   7.375 -0.5193  0.6600  0.2145
  662MOL0     C89292   7.778   7.545   7.290 -0.0776 -0.4846  0.1588
  662MOL0     O89293   7.679   7.491   7.213  0.9102  0.5617 -0.3098
  662MOL0     C89294   7.552   7.485   7.290  0.1047  0.9292  1.0643
  662MOL0     C89295   7.565   7.415   7.425  0.3094  0.6914 -0.1958
  662MOL0     C89296   7.543   7.268   7.406 -0.8972  0.5891 -1.0174
  662MOL0     C89297   7.553   7.189   7.542  0.0502 -0.4799  0.3260
  662MOL0     C89298   7.444   7.235   7.634 -0.7096 -0.4186  0.3984
  662MOL0     C89299   7.363   7.279   7.709  0.2710 -0.1466 -0.0139
  662MOL0     C89300   7.901   7.490   7.254  0.6870  0.1526 -0.2291
  662MOL0     C89301   8.012   7.532   7.324 -0.1119  0.0202  0.4733
  662MOL0     C89302   8.150   7.482   7.273  0.7636  0.3574 -0.1231
  662MOL0     H89303   8.132   8.052   7.471 -0.7704 -2.1767 -0.9194
  662MOL0     H89304   8.308   8.213   7.567 -0.2623 -0.6637 -1.2086
  662MOL0     H89305   8.615   8.062   7.867 -4.7004  1.2218 -0.2126
  662MOL0     H89306   8.659   7.999   7.706  1.0240  0.5199 -0.3949
  662MOL0     H89307   8.691   8.272   7.814  2.9829 -0.5219  1.9890
  662MOL0     H89308   8.766   8.206   7.654  0.0911 -1.4423 -0.9465
  662MOL0     H89309   8.929   8.104   7.751 -3.0459  0.1254 -1.0727
  662MOL0     H89310   8.847   8.085   7.918  2.1107 -2.2969  0.3307
  662MOL0     H89311   8.971   8.323   7.775  1.2088  0.4533 -0.0162
  662MOL0     H89312   8.885   8.347   7.921 -2.1095 -0.3878  0.3778
  662MOL0     H89313   9.151   8.184   7.864  0.7659 -1.4026  1.4213
  662MOL0     H89314   9.132   8.321   7.968  1.9381 -2.5860  1.3402
  662MOL0     H89315   8.965   8.187   8.109  1.2697  1.9796 -0.5123
  662MOL0     H89316   9.028   8.050   8.021 -4.1274  0.3135  0.1714
  662MOL0     H89317   9.267   8.163   8.094 -0.4000 -2.1666 -2.5416
  662MOL0     H89318   9.173   8.056   8.205 -4.2057 -0.3329  0.4234
  662MOL0     H89319   9.167   8.367   8.189  1.4723  1.7440  1.4120
  662MOL0     H89320   9.078   8.272   8.298 -0.7118 -1.9598 -1.6012
  662MOL0     H89321   9.304   8.502   8.385  1.8268  0.7233 -1.4434
  662MOL0     H89322   9.640   8.378   8.536 -0.5040 -0.5567  2.1608
  662MOL0     H89323   9.594   8.526   8.441  0.0542 -2.3685 -2.1603
  662MOL0     H89324   9.593   8.591   8.684 -1.0738 -0.0793  1.9738
  662MOL0     H89325   9.426   8.598   8.613 -1.2150 -0.2620  1.0318
  662MOL0     H89326   9.474   8.348   8.722 -1.6007  0.2307 -0.8232
  662MOL0     H89327   9.337   8.455   8.738  0.1710 -3.8345  0.8364
  662MOL0     H89328   9.418   8.470   8.962 -1.3004 -1.7286 -1.6026
  662MOL0     H89329   9.549   8.569   8.897 -0.7363  0.0091 -0.3848
  662MOL0     H89330   9.619   8.597   9.104 -0.1747 -1.0595 -1.8244
  662MOL0     H89331   9.781   8.624   9.280  3.7018  1.6926 -2.5803
  662MOL0     H89332  10.233   8.607   9.386  0.7490 -3.1590  0.4213
  662MOL0     H89333  10.381   8.652   9.559 -0.4755  1.4745 -1.2707
  662MOL0     H89334  10.516   8.639   9.756 -0.6169 -0.4705 -0.6015
  662MOL0     H89335  10.436   8.803   9.753 -1.2089  1.1998  1.0422
  662MOL0     H89336  10.443   8.798   9.995  0.5080  1.5448 -0.9592
  662MOL0     H89337  10.532   8.640   9.984  2.4623 -0.5507 -1.4613
  662MOL0     H89338  10.718   8.752   9.861  0.8249  1.6834  1.2169
  662MOL0     H89339  10.627   8.898   9.857  1.4244  0.8337 -0.5332
  662MOL0     H89340  10.707   8.766  10.118 -1.2373 -0.5890  1.4066
  662MOL0     H89341  10.608   8.913  10.095 -1.0672 -0.2068  0.6680
  662MOL0     H89342  10.854   8.963  10.146  0.1277  0.5181  0.0173
  662MOL0     H89343  10.790   9.034   9.989  0.6190 -1.3828 -4.1731
  662MOL0     H89344  10.927   8.767   9.976  3.5329 -0.1487  0.6176
  662MOL0     H89345  10.907   8.897   9.858  0.2542 -0.8139  0.1006
  662MOL0     H89346  11.080   8.927  10.118 -1.4577 -0.5757 -0.0774
  662MOL0     H89347  11.098   9.028   9.972  3.0235 -0.5311 -1.3238
  662MOL0     H89348  11.173   8.731   9.965 -2.3961  0.4659  2.2756
  662MOL0     H89349  11.176   8.842   9.830 -1.4876  1.3883  0.2432
  662MOL0     H89350  10.053   8.613   9.841  2.0212  2.7116  1.6329
  662MOL0     H89351   9.904   8.554   9.649 -0.2436  0.1320 -4.0722
  662MOL0     H89352   9.900   8.210   9.201 -2.4127 -0.9731 -0.8497
  662MOL0     H89353   9.755   8.191   9.033  0.5942  0.6105  0.2499
  662MOL0     H89354   8.448   7.878   7.800 -0.1560 -1.4338 -0.9133
  662MOL0     H89355   8.280   7.745   7.719 -0.8943  0.4065  1.0949
  662MOL0     H89356   7.861   7.811   7.465 -0.6251  1.1069 -1.2133
  662MOL0     H89357   7.669   7.704   7.387 -0.6822  0.7575 -1.2974
  662MOL0     H89358   7.478   7.436   7.227  2.4915 -2.0130  0.2906
  662MOL0     H89359   7.526   7.587   7.318 -1.1523  0.9093  0.0124
  662MOL0     H89360   7.488   7.454   7.492 -0.3322  0.8361 -1.0114
  662MOL0     H89361   7.657   7.443   7.477  0.1450  2.7443 -0.9243
  662MOL0     H89362   7.603   7.229   7.323  0.5250  2.1186 -0.7542
  662MOL0     H89363   7.440   7.254   7.372 -1.2121 -3.3292  1.0663
  662MOL0     H89364   7.542   7.081   7.527  0.6236 -0.4235 -0.5886
  662MOL0     H89365   7.652   7.206   7.587  0.0151 -1.7268  0.9002
  662MOL0     H89366   7.285   7.328   7.765  1.5636  0.7305  1.0792
  662MOL0     H89367   7.904   7.408   7.183  1.2979 -0.6513  0.7020
  662MOL0     H89368   8.198   7.574   7.238 -1.4219  1.8451  0.5945
  662MOL0     H89369   8.207   7.424   7.346  0.8878 -3.0793 -2.7123
  662MOL0     H89370   8.141   7.409   7.191  2.1858 -2.7164  2.2643
  663MOL0     O89371   1.117   6.717  10.828  0.1454  0.1841  0.9244
  663MOL0     C89372   1.135   6.805  10.743  0.6110  1.0290  0.8098
  663MOL0     O89373   1.254   6.843  10.692 -0.7560 -0.2176  0.6029
  663MOL0     C89374   1.365   6.778  10.745 -0.9297  1.2286  0.5966
  663MOL0     C89375   1.400   6.644  10.715 -0.0847 -0.2645  0.3579
  663MOL0     C89376   1.518   6.582  10.746 -1.0064 -0.3950  0.6736
  663MOL0     C89377   1.617   6.651  10.826 -0.4622 -0.2339 -0.5999
  663MOL0     O89378   1.734   6.577  10.854 -0.4757  0.6681  0.0124
  663MOL0     C89379   1.848   6.642  10.915  0.2810 -0.7269 -0.1466
  663MOL0     C89380   1.955   6.540  10.873  0.3834  0.4889 -1.1411
  663MOL0     C89381   1.976   6.536  10.716 -0.0877  0.1552  0.2996
  663MOL0     C89382   2.094   6.447  10.656  0.1698  0.1349  0.0427
  663MOL0     C89383   2.081   6.427  10.501  0.2362 -0.0430  0.3042
  663MOL0     C89384   2.202   6.357  10.436  0.2460 -0.6125  0.1758
  663MOL0     C89385   2.217   6.209  10.478  0.0940  0.3854 -0.9606
  663MOL0     C89386   2.314   6.139  10.387  0.5946  0.4695  0.4860
  663MOL0     N89387   2.448   6.171  10.426 -0.1789  0.1042  0.2337
  663MOL0     C89388   2.536   6.074  10.469 -1.0277  0.0079 -0.0576
  663MOL0     C89389   2.649   6.137  10.443 -1.1990 -1.1115 -0.3597
  663MOL0     C89390   2.781   6.055  10.450  0.4957  0.3741  0.2615
  663MOL0     C89391   2.876   6.119  10.545 -1.2940 -0.4651  0.7103
  663MOL0     C89392   3.026   6.062  10.540  0.4564  0.1326  0.9408
  663MOL0     C89393   3.117   6.166  10.606 -0.9889  0.7248  0.0368
  663MOL0     O89394   3.251   6.122  10.607  0.8613 -0.7655 -0.1932
  663MOL0     C89395   3.342   6.203  10.671 -0.8897 -0.7269 -0.2306
  663MOL0     C89396   3.472   6.152  10.663  0.0541 -0.1205  0.0948
  663MOL0     C89397   3.583   6.231  10.721  0.0974 -0.1205 -0.0300
  663MOL0     C89398   3.556   6.353  10.789 -0.0998 -0.2455  0.5611
  663MOL0     C89399   3.673   6.417  10.855 -0.1511 -0.1198 -0.0123
  663MOL0     O89400   3.796   6.393  10.820 -0.0102 -0.0742 -0.1692
  663MOL0     C89401   3.895   6.459  10.881  0.1774 -0.3283 -0.7242
  663MOL0     C89402   3.935   6.589  10.842  0.4397  0.7168 -0.1883
  663MOL0     C89403   4.050   6.649  10.899  0.6276  0.6096  0.0080
  663MOL0     C89404   4.111   6.584  11.003 -0.1416  0.3150 -0.9794
  663MOL0     O89405   4.217   6.641  11.078  0.0683  0.1164 -0.0860
  663MOL0     C89406   4.262   6.772  11.043  0.0152  0.8384 -1.0391
  663MOL0     C89407   4.415   6.768  11.061 -1.3177 -1.3644  0.9352
  663MOL0     C89408   4.464   6.910  11.013  0.8460  0.3023 -0.7231
  663MOL0     C89409   4.615   6.923  10.992  0.2904  0.2781  0.5432
  663MOL0     C89410   4.668   7.062  10.959  0.7195 -0.0344 -1.0980
  663MOL0     C89411   4.647   7.082  10.813 -0.6563  0.0093  0.4178
  663MOL0     C89412   4.709   7.213  10.759  0.8798 -0.5426  0.1473
  663MOL0     C89413   4.851   7.237  10.808  0.7582 -0.9575 -0.0212
  663MOL0    Cl89414   4.969   7.109  10.771  0.3400 -0.2871 -0.1502
  663MOL0     C89415   4.073   6.461  11.044  0.6827  0.5419 -0.9979
  663MOL0     C89416   3.966   6.394  10.984  0.5731  0.8376 -0.0064
  663MOL0     O89417   3.639   6.482  10.952 -0.5428 -0.5253 -0.2846
  663MOL0     C89418   3.424   6.395  10.800 -0.0981  0.8203  0.1973
  663MOL0     C89419   3.321   6.322  10.737  0.5036 -0.5475 -0.9930
  663MOL0     N89420   2.633   6.261  10.397 -0.1308  1.0591 -0.5743
  663MOL0     N89421   2.513   6.277  10.380  0.0980 -0.9221 -0.3122
  663MOL0     C89422   1.585   6.789  10.859  0.1119 -0.8515  0.8083
  663MOL0     C89423   1.461   6.853  10.811 -0.4026 -0.0098 -0.3221
  663MOL0     C89424   1.008   6.880  10.686 -0.3892  0.8518  1.2967
  663MOL0     C89425   1.012   7.018  10.682  0.7346  1.2240 -0.5161
  663MOL0     C89426   0.904   7.099  10.633 -0.4555  0.1853  0.7527
  663MOL0     C89427   0.790   7.036  10.584 -1.1648  0.3876 -0.4722
  663MOL0     O89428   0.681   7.123  10.556 -0.2195 -0.4620  0.1330
  663MOL0     C89429   0.585   7.077  10.453  0.6641 -0.1164 -0.9219
  663MOL0     C89430   0.468   7.168  10.460  0.3261 -0.1156  0.0702
  663MOL0     C89431   0.358   7.129  10.367  0.6611  0.3559  0.0057
  663MOL0     C89432   0.262   7.246  10.320 -0.5087  0.7180  0.1905
  663MOL0     C89433   0.147   7.172  10.256 -0.2653  0.2667 -0.3403
  663MOL0     C89434   0.061   7.119  10.194  0.4111  0.2986 -0.5014
  663MOL0     C89435   0.794   6.895  10.574  1.0441  0.9557  0.3206
  663MOL0     C89436   0.902   6.813  10.620 -0.6070 -0.4689 -0.3286
  663MOL0     C89437   0.901   6.667  10.599 -0.3494  0.5976  0.9890
  663MOL0     H89438   1.331   6.586  10.654 -0.4962  1.8242 -1.2847
  663MOL0     H89439   1.547   6.482  10.715  1.2031  0.2179  0.5628
  663MOL0     H89440   1.870   6.738  10.866  0.4708  0.9589  2.9615
  663MOL0     H89441   1.833   6.668  11.020  3.2056  1.5151 -0.1391
  663MOL0     H89442   1.920   6.448  10.922  0.2811  1.4032  0.5456
  663MOL0     H89443   2.056   6.557  10.912  1.0529  0.0383 -2.5845
  663MOL0     H89444   1.979   6.636  10.672 -2.3126  0.0582 -0.2087
  663MOL0     H89445   1.881   6.504  10.672  0.9875  0.5557 -2.5294
  663MOL0     H89446   2.185   6.505  10.674 -1.5714  2.2233  2.8591
  663MOL0     H89447   2.103   6.349  10.705 -2.1324  1.0775  2.6044
  663MOL0     H89448   1.988   6.377  10.474 -0.0066 -0.0381  1.1177
  663MOL0     H89449   2.074   6.529  10.462  0.2423 -0.6015 -1.2327
  663MOL0     H89450   2.196   6.385  10.330 -0.3822  3.5042  1.1147
  663MOL0     H89451   2.295   6.404  10.470  1.0545  0.6080 -3.2625
  663MOL0     H89452   2.121   6.158  10.465  0.1139  0.6507 -2.3436
  663MOL0     H89453   2.259   6.195  10.577 -0.0542 -0.2971 -0.9871
  663MOL0     H89454   2.306   6.031  10.396 -1.6676  0.3938 -1.5346
  663MOL0     H89455   2.310   6.169  10.281  0.1256 -2.4313 -0.3966
  663MOL0     H89456   2.528   5.967  10.485 -0.7127 -0.2593 -1.5665
  663MOL0     H89457   2.753   5.955  10.484 -2.8370  0.8002 -0.8405
  663MOL0     H89458   2.817   6.026  10.352 -2.3160 -1.1378 -0.4397
  663MOL0     H89459   2.878   6.221  10.506 -0.3584 -0.3664  0.9776
  663MOL0     H89460   2.833   6.122  10.646 -1.1304 -0.6558  0.7882
  663MOL0     H89461   3.068   6.062  10.439  1.1190  2.3523  1.1559
  663MOL0     H89462   3.032   5.961  10.581  1.7763 -0.4225 -0.5155
  663MOL0     H89463   3.071   6.173  10.704 -1.1604 -0.1488  0.0256
  663MOL0     H89464   3.116   6.266  10.560 -2.4662  1.5396  1.7310
  663MOL0     H89465   3.511   6.062  10.616 -2.1477 -0.2365 -1.6436
  663MOL0     H89466   3.684   6.195  10.702  0.3235  0.9542 -0.9749
  663MOL0     H89467   3.899   6.636  10.751 -1.8527  1.2740  0.9532
  663MOL0     H89468   4.074   6.743  10.852 -0.7553  0.3068 -1.4122
  663MOL0     H89469   4.240   6.794  10.939  0.5238  2.7940 -0.7702
  663MOL0     H89470   4.215   6.850  11.103  0.2858  0.6060 -0.5161
  663MOL0     H89471   4.442   6.761  11.167 -0.7843  0.8915  0.9945
  663MOL0     H89472   4.460   6.684  11.007  0.1137 -1.1063  1.6833
  663MOL0     H89473   4.409   6.934  10.921 -2.5713 -1.5946  0.6162
  663MOL0     H89474   4.434   6.985  11.086  0.2760  0.7359 -1.3876
  663MOL0     H89475   4.633   6.855  10.908  0.9131  0.8996  0.1547
  663MOL0     H89476   4.671   6.883  11.077  0.4821 -0.3925  0.1114
  663MOL0     H89477   4.770   7.067  10.998  0.1600  1.4486  0.2785
  663MOL0     H89478   4.613   7.133  11.021 -2.0336 -1.9842 -1.1389
  663MOL0     H89479   4.686   6.999  10.754  1.9497  1.4499 -0.0645
  663MOL0     H89480   4.540   7.091  10.795 -1.3618 -3.1977  2.1829
  663MOL0     H89481   4.651   7.304  10.777  1.0509 -0.3166 -0.4154
  663MOL0     H89482   4.707   7.212  10.650  1.2792  2.0210  0.0578
  663MOL0     H89483   4.886   7.335  10.772 -0.2899 -0.5839 -0.0799
  663MOL0     H89484   4.851   7.233  10.917  0.6587  0.3776  0.0530
  663MOL0     H89485   4.101   6.413  11.137 -0.7931 -0.5721 -1.0831
  663MOL0     H89486   3.931   6.301  11.026  5.3055 -0.2267  2.2293
  663MOL0     H89487   3.396   6.479  10.863 -0.7494 -1.0658  2.5776
  663MOL0     H89488   3.217   6.347  10.756  0.5718 -0.9884  0.0751
  663MOL0     H89489   1.650   6.850  10.919 -0.0821  1.7426 -1.4097
  663MOL0     H89490   1.445   6.959  10.827  0.3184  0.0001  0.4246
  663MOL0     H89491   1.094   7.070  10.730  0.0509  0.9447  1.0303
  663MOL0     H89492   0.905   7.208  10.634 -0.1715  0.3741 -3.6422
  663MOL0     H89493   0.552   6.973  10.463  2.6847 -0.6743  0.7226
  663MOL0     H89494   0.618   7.093  10.350 -0.2497 -0.4289 -1.2693
  663MOL0     H89495   0.506   7.268  10.436 -2.2146  0.1927 -3.5569
  663MOL0     H89496   0.430   7.176  10.562  0.7941  1.1322  0.1726
  663MOL0     H89497   0.306   7.049  10.422  1.9214  1.9347  3.8690
  663MOL0     H89498   0.401   7.082  10.278  1.0080 -1.7597  1.2030
  663MOL0     H89499   0.223   7.304  10.404  1.0036 -0.1220  1.5283
  663MOL0     H89500   0.317   7.313  10.254  1.1120  1.9752  2.6628
  663MOL0     H89501  -0.019   7.066  10.145 -0.4717 -1.0825  2.2005
  663MOL0     H89502   0.717   6.840  10.520 -0.0671  3.9669 -1.4278
  663MOL0     H89503   0.841   6.634  10.513  1.9115  0.8551 -0.7691
  663MOL0     H89504   1.003   6.630  10.584 -1.5367 -2.4345 -0.5515
  663MOL0     H89505   0.863   6.623  10.692 -0.3820  0.0034  0.7013
  664MOL0     O89506   7.439   7.326   6.497 -0.1452 -0.0470  0.8967
  664MOL0     C89507   7.539   7.256   6.500  0.0107 -0.1786  1.4696
  664MOL0     O89508   7.660   7.280   6.443  0.4020  0.1680 -0.1821
  664MOL0     C89509   7.666   7.410   6.406  0.2244 -0.0994  0.7904
  664MOL0     C89510   7.739   7.499   6.488  0.4577 -0.6888 -0.3293
  664MOL0     C89511   7.772   7.633   6.460 -0.1596  0.7440 -0.2216
  664MOL0     C89512   7.726   7.680   6.334  0.0473 -0.5125 -0.6126
  664MOL0     O89513   7.739   7.812   6.292 -0.2452  0.4639  0.7211
  664MOL0     C89514   7.876   7.856   6.300  0.8811 -0.0060  0.0992
  664MOL0     C89515   7.901   7.999   6.237 -0.3772 -0.0704  0.9000
  664MOL0     C89516   8.051   8.044   6.255 -0.5706 -0.4978  0.3209
  664MOL0     C89517   8.103   8.078   6.404  0.2292  0.0579 -0.3020
  664MOL0     C89518   8.212   8.186   6.404  0.6639 -0.1502  0.9578
  664MOL0     C89519   8.280   8.185   6.546  0.8955 -0.7174  0.3437
  664MOL0     C89520   8.377   8.294   6.568 -0.1266 -0.3130 -0.6336
  664MOL0     C89521   8.485   8.268   6.683  0.2819 -0.3590  0.7892
  664MOL0     N89522   8.570   8.155   6.632  0.2277 -0.5313  0.5035
  664MOL0     C89523   8.673   8.172   6.540 -0.1622  0.0643 -0.1929
  664MOL0     C89524   8.733   8.052   6.545  0.5186  0.6665  1.0473
  664MOL0     C89525   8.862   8.021   6.477  0.8358  0.0664 -0.8165
  664MOL0     C89526   8.987   8.049   6.560  0.7632  0.0579  0.0202
  664MOL0     C89527   9.120   8.028   6.484  0.2219  0.5135 -0.8445
  664MOL0     C89528   9.244   8.049   6.569  0.9127 -0.8404 -0.4443
  664MOL0     O89529   9.243   8.192   6.597  0.1442 -0.8668 -0.1341
  664MOL0     C89530   9.381   8.235   6.603 -0.0191  0.2436  0.4235
  664MOL0     C89531   9.484   8.194   6.679  0.1425  0.5509  0.0765
  664MOL0     C89532   9.611   8.260   6.669 -0.3277  1.1022 -0.1467
  664MOL0     C89533   9.638   8.366   6.579  0.0852  0.7276 -0.1250
  664MOL0     C89534   9.769   8.429   6.567  0.3544  0.1719 -0.6710
  664MOL0     O89535   9.765   8.548   6.513  0.3616 -0.6637  0.4307
  664MOL0     C89536   9.883   8.616   6.512 -0.0373  0.3088 -0.7028
  664MOL0     C89537   9.946   8.624   6.395  0.6422  1.0924  0.1799
  664MOL0     C89538  10.063   8.702   6.377 -0.2066  0.9305 -0.2226
  664MOL0     C89539  10.114   8.768   6.487  0.8938  0.2341  0.3678
  664MOL0     O89540  10.219   8.856   6.487 -0.0588 -0.4897 -0.1412
  664MOL0     C89541  10.198   8.964   6.394  0.5463 -0.5581  0.0531
  664MOL0     C89542  10.176   9.103   6.459 -0.6898  0.0702 -0.0937
  664MOL0     C89543  10.294   9.156   6.534 -0.4695  0.2992  0.2608
  664MOL0     C89544  10.363   9.052   6.631  0.2884  0.1664 -0.1537
  664MOL0     C89545  10.466   9.104   6.727 -0.4786  0.7866 -0.5833
  664MOL0     C89546  10.588   9.133   6.643  0.6816 -0.0175  0.6692
  664MOL0     C89547  10.717   9.180   6.716 -0.7339  1.1895 -1.0732
  664MOL0     C89548  10.798   9.270   6.639 -0.5499 -0.9807  0.6510
  664MOL0    Cl89549  10.934   9.342   6.730 -0.1304 -0.0012  0.0637
  664MOL0     C89550  10.058   8.741   6.613 -0.6574 -0.3908 -0.0358
  664MOL0     C89551   9.932   8.674   6.622 -1.0135  0.2557 -0.1809
  664MOL0     O89552   9.867   8.372   6.611 -0.1308  0.1554  0.5734
  664MOL0     C89553   9.520   8.413   6.510  0.2497 -0.7150  0.2653
  664MOL0     C89554   9.395   8.345   6.516  0.0354 -0.2940 -0.4373
  664MOL0     N89555   8.666   7.966   6.627  0.0855  0.1019  0.2744
  664MOL0     N89556   8.571   8.031   6.679  0.3626 -0.7277 -0.1550
  664MOL0     C89557   7.650   7.595   6.246  1.0151  0.1971 -0.3065
  664MOL0     C89558   7.615   7.467   6.287 -0.4646 -0.1332 -0.7371
  664MOL0     C89559   7.533   7.131   6.581 -1.0426  0.1562  0.1483
  664MOL0     C89560   7.406   7.102   6.642 -0.5613 -0.2110  0.9954
  664MOL0     C89561   7.386   6.995   6.722  0.1982 -0.0643 -0.2844
  664MOL0     C89562   7.494   6.905   6.751  0.1358 -0.7116 -0.0544
  664MOL0     O89563   7.486   6.781   6.821 -0.2118  0.0813  0.6070
  664MOL0     C89564   7.354   6.738   6.855 -0.8622  0.1571  0.1423
  664MOL0     C89565   7.363   6.600   6.916  0.5714 -0.8492  0.6658
  664MOL0     C89566   7.234   6.521   6.913 -0.5864 -0.5633 -0.8924
  664MOL0     C89567   7.114   6.604   6.977  0.3048 -0.0292 -0.2499
  664MOL0     C89568   6.996   6.520   6.966  0.4688  0.1198 -0.5859
  664MOL0     C89569   6.896   6.453   6.948  0.7454 -0.2129  0.2885
  664MOL0     C89570   7.620   6.937   6.705  0.2995  0.5102  0.2933
  664MOL0     C89571   7.641   7.048   6.618  0.2549  0.4124  0.3329
  664MOL0     C89572   7.790   7.068   6.582  0.4262  0.8262 -0.0018
  664MOL0     H89573   7.770   7.457   6.583 -0.4668 -2.6379 -0.8257
  664MOL0     H89574   7.828   7.692   6.532  0.8603 -2.1638  1.5731
  664MOL0     H89575   7.912   7.851   6.403  1.9634  1.9127 -0.1348
  664MOL0     H89576   7.947   7.790   6.248  3.4721  2.1682  0.6178
  664MOL0     H89577   7.840   8.084   6.269  0.4099  0.9411 -0.2061
  664MOL0     H89578   7.893   7.993   6.128  0.3928  3.0377  0.5696
  664MOL0     H89579   8.058   8.120   6.177 -2.7622  0.8676  1.3534
  664MOL0     H89580   8.122   7.966   6.227  2.8196  3.2073 -2.6164
  664MOL0     H89581   8.015   8.126   6.448 -1.2306 -1.8716 -0.9675
  664MOL0     H89582   8.126   7.988   6.463  1.3215 -0.9115 -2.1028
  664MOL0     H89583   8.285   8.156   6.328  0.5110 -3.8787  2.1186
  664MOL0     H89584   8.166   8.285   6.394 -0.8589 -0.6660  2.4658
  664MOL0     H89585   8.204   8.189   6.625 -1.0680 -1.5385 -1.4089
  664MOL0     H89586   8.337   8.092   6.553  2.3288  0.1950  1.5138
  664MOL0     H89587   8.329   8.389   6.592 -0.3695 -0.7404  0.5905
  664MOL0     H89588   8.420   8.319   6.470 -1.2940  3.4022 -0.3242
  664MOL0     H89589   8.538   8.361   6.707 -0.0361  0.1137 -0.2601
  664MOL0     H89590   8.429   8.221   6.764 -2.3025 -3.7332 -2.5982
  664MOL0     H89591   8.691   8.268   6.493  0.0926  0.5710  0.9093
  664MOL0     H89592   8.857   7.915   6.451  0.8662 -0.1664  0.1152
  664MOL0     H89593   8.872   8.080   6.385 -0.9789 -1.1082 -1.8177
  664MOL0     H89594   8.977   8.156   6.582  0.4371 -0.1571  1.0188
  664MOL0     H89595   8.979   7.991   6.652 -3.0917  1.8018  1.0257
  664MOL0     H89596   9.116   8.091   6.395 -3.2503  2.3012  0.3886
  664MOL0     H89597   9.108   7.928   6.441 -1.2742  1.8393 -3.7282
  664MOL0     H89598   9.329   8.006   6.515 -0.4900 -3.2815 -0.8576
  664MOL0     H89599   9.245   7.998   6.665  1.2181 -1.7985 -0.9415
  664MOL0     H89600   9.471   8.099   6.729  0.0203  0.3867 -0.2630
  664MOL0     H89601   9.688   8.212   6.727 -1.5285 -2.7989 -1.4416
  664MOL0     H89602   9.891   8.579   6.314 -2.1860 -0.7782  2.9371
  664MOL0     H89603  10.105   8.717   6.278  0.7730  0.6143  0.1373
  664MOL0     H89604  10.276   8.966   6.317 -0.1805  2.8781 -0.7863
  664MOL0     H89605  10.108   8.955   6.333  0.3001  0.8645  0.1634
  664MOL0     H89606  10.149   9.177   6.383 -0.0665  0.3120 -0.0875
  664MOL0     H89607  10.087   9.105   6.523 -0.2330 -3.4745  0.8968
  664MOL0     H89608  10.364   9.173   6.452  0.1041 -0.8691  0.4864
  664MOL0     H89609  10.272   9.250   6.585  0.2362  1.0549 -0.7963
  664MOL0     H89610  10.406   8.966   6.579 -0.1185  0.0505 -0.3022
  664MOL0     H89611  10.287   9.022   6.703 -0.2484  1.7720 -0.0160
  664MOL0     H89612  10.494   9.026   6.798  0.6930  1.6685 -0.0481
  664MOL0     H89613  10.433   9.193   6.781 -3.6217  0.5984 -1.9297
  664MOL0     H89614  10.626   9.051   6.581 -0.8257 -0.9966  0.9803
  664MOL0     H89615  10.562   9.211   6.571  2.0191  2.5726  2.8270
  664MOL0     H89616  10.781   9.096   6.743  1.1716  2.4348 -1.4944
  664MOL0     H89617  10.687   9.233   6.808 -2.8004 -1.8264  0.1383
  664MOL0     H89618  10.839   9.219   6.552 -3.5406 -2.0410 -0.2470
  664MOL0     H89619  10.732   9.348   6.599  0.6762  0.4423  1.2609
  664MOL0     H89620  10.106   8.798   6.693  4.5052  0.1054 -3.0517
  664MOL0     H89621   9.878   8.663   6.716 -0.9608 -0.4718 -0.2290
  664MOL0     H89622   9.536   8.494   6.441 -1.4661 -2.3796 -2.2524
  664MOL0     H89623   9.307   8.381   6.464  0.3586 -0.2373 -0.9463
  664MOL0     H89624   7.632   7.642   6.150  2.5058  1.1883 -0.1351
  664MOL0     H89625   7.553   7.398   6.230 -0.7116 -0.8898  0.4277
  664MOL0     H89626   7.316   7.155   6.612 -0.3745 -1.6247 -2.5906
  664MOL0     H89627   7.284   6.995   6.759  1.1871  1.6772  2.8571
  664MOL0     H89628   7.288   6.733   6.768 -0.7039  3.0338 -0.2447
  664MOL0     H89629   7.320   6.812   6.929 -3.4715  0.9837 -1.7212
  664MOL0     H89630   7.393   6.609   7.021  0.9598  0.6341  0.4505
  664MOL0     H89631   7.434   6.537   6.862 -1.5859 -2.0241 -0.9605
  664MOL0     H89632   7.252   6.430   6.970  4.4032 -0.4813 -1.9088
  664MOL0     H89633   7.218   6.500   6.806  2.5399 -1.1834 -1.3180
  664MOL0     H89634   7.135   6.651   7.074 -1.4715 -0.0848  0.1998
  664MOL0     H89635   7.092   6.688   6.910  1.4270  1.2471  0.9362
  664MOL0     H89636   6.832   6.368   6.932  3.9341 -2.9362  0.7811
  664MOL0     H89637   7.701   6.873   6.737 -0.5149  1.0317  3.8896
  664MOL0     H89638   7.851   6.994   6.633 -1.9775 -0.7366  0.7757
  664MOL0     H89639   7.807   7.058   6.475 -2.8475 -1.4209 -0.4658
  664MOL0     H89640   7.817   7.172   6.603 -0.8280  1.1173  0.3008
  665MOL0     O89641   8.963   4.595  10.102  0.2095  0.5434 -0.1569
  665MOL0     C89642   8.923   4.701  10.141 -0.6733  0.0776  0.3239
  665MOL0     O89643   8.989   4.787  10.228 -0.3811  0.0204  0.5881
  665MOL0     C89644   9.125   4.779  10.260  0.6336 -0.0704  0.2504
  665MOL0     C89645   9.166   4.853  10.376  0.0542 -0.4780  0.7443
  665MOL0     C89646   9.290   4.840  10.432  0.0780  0.1854  0.8688
  665MOL0     C89647   9.377   4.743  10.382  0.0024 -0.3342  0.1500
  665MOL0     O89648   9.500   4.714  10.432  0.0969 -0.1577  0.4536
  665MOL0     C89649   9.506   4.710  10.578 -0.7267  0.0056  0.4113
  665MOL0     C89650   9.645   4.640  10.602  0.1125  0.0176  0.1486
  665MOL0     C89651   9.699   4.645  10.752 -0.8507  0.3636 -0.0742
  665MOL0     C89652   9.751   4.502  10.794 -1.0356 -0.2109  0.5419
  665MOL0     C89653   9.898   4.492  10.748 -1.0257  0.1350  0.4314
  665MOL0     C89654   9.966   4.357  10.799  0.3669  0.4142  0.2187
  665MOL0     C89655  10.002   4.360  10.947  0.5774 -0.4340  0.1450
  665MOL0     C89656  10.138   4.319  10.978 -0.4558  0.0713 -0.2686
  665MOL0     N89657  10.171   4.379  11.109 -0.4228  0.2175  1.1503
  665MOL0     C89658  10.196   4.515  11.127 -0.0191 -0.2249  0.3883
  665MOL0     C89659  10.215   4.530  11.256  0.3453  0.1482 -0.8398
  665MOL0     C89660  10.263   4.657  11.327 -0.0383  0.6076 -0.0971
  665MOL0     C89661  10.401   4.704  11.276 -0.8829 -0.3487  0.4289
  665MOL0     C89662  10.454   4.832  11.342  0.0135 -0.2330  0.2497
  665MOL0     C89663  10.468   4.818  11.493 -0.5637  0.9090  0.3556
  665MOL0     O89664  10.567   4.708  11.519 -0.4546  0.2294 -0.0889
  665MOL0     C89665  10.551   4.654  11.649 -0.2651  0.2523 -0.8209
  665MOL0     C89666  10.506   4.716  11.764  1.0751  0.8200 -0.3683
  665MOL0     C89667  10.488   4.656  11.889 -0.2139 -0.6420 -0.4122
  665MOL0     C89668  10.520   4.524  11.912  0.4792 -0.2574 -0.3987
  665MOL0     C89669  10.495   4.466  12.044 -0.8971 -0.0371 -0.4325
  665MOL0     O89670  10.487   4.554  12.155 -0.0675 -0.0822 -0.3468
  665MOL0     C89671  10.470   4.508  12.281  0.0215  0.3754 -0.1611
  665MOL0     C89672  10.374   4.409  12.309 -0.2106  0.0983 -0.0127
  665MOL0     C89673  10.365   4.360  12.436 -0.5208 -0.0417  0.4455
  665MOL0     C89674  10.425   4.428  12.549 -0.0359 -0.3852  0.2362
  665MOL0     O89675  10.397   4.419  12.673  0.1146 -0.2938 -0.2109
  665MOL0     C89676  10.280   4.348  12.706  0.1640  0.2148 -0.1671
  665MOL0     C89677  10.231   4.390  12.840  0.4259 -0.2913  0.1805
  665MOL0     C89678  10.099   4.342  12.887  0.0711  0.2276  0.0549
  665MOL0     C89679   9.985   4.393  12.802  0.1754  1.0883 -0.3162
  665MOL0     C89680   9.851   4.350  12.860 -0.1129 -0.2438  0.3353
  665MOL0     C89681   9.746   4.449  12.809  0.6775  0.4663  0.3394
  665MOL0     C89682   9.711   4.411  12.664 -0.2930 -0.2260  0.6488
  665MOL0     C89683   9.603   4.513  12.616  0.7633 -0.3275 -0.0693
  665MOL0    Cl89684   9.587   4.516  12.438  0.3060  0.0401  0.2434
  665MOL0     C89685  10.518   4.528  12.527 -0.3244 -0.8278  0.6480
  665MOL0     C89686  10.535   4.567  12.392  0.1026 -0.5609 -0.2662
  665MOL0     O89687  10.500   4.339  12.057  0.0325  0.0975 -0.5911
  665MOL0     C89688  10.564   4.451  11.800  0.8342 -0.3568 -0.2772
  665MOL0     C89689  10.585   4.518  11.675  0.3161  0.2183  0.2324
  665MOL0     N89690  10.213   4.406  11.324  0.0993 -0.6712  0.3554
  665MOL0     N89691  10.179   4.315  11.228 -0.7404  0.0635 -0.0882
  665MOL0     C89692   9.347   4.693  10.258  0.9694  0.3650  0.2519
  665MOL0     C89693   9.221   4.714  10.191 -0.2837  0.4067  0.8714
  665MOL0     C89694   8.790   4.745  10.101 -0.1834 -0.3134  0.3286
  665MOL0     C89695   8.756   4.883  10.113 -1.1588 -0.2883 -0.8204
  665MOL0     C89696   8.632   4.931  10.063  0.2445  0.2160  0.0054
  665MOL0     C89697   8.531   4.847  10.013  0.3039 -0.1224  1.0409
  665MOL0     O89698   8.413   4.894   9.964 -0.2246 -0.5310  0.8049
  665MOL0     C89699   8.315   4.925  10.056 -0.3622 -0.2141 -0.6242
  665MOL0     C89700   8.221   4.809  10.038  0.1346  1.2446 -0.3877
  665MOL0     C89701   8.080   4.851  10.082  0.5378  0.4818 -0.7148
  665MOL0     C89702   8.003   4.717  10.093  0.5028  0.1746 -0.0171
  665MOL0     C89703   7.863   4.753  10.111  0.1849  0.0958 -1.0791
  665MOL0     C89704   7.747   4.790  10.135  0.2068  0.5224  0.3976
  665MOL0     C89705   8.557   4.715  10.014 -0.9737  0.0754  0.4229
  665MOL0     C89706   8.684   4.659  10.051  1.0401  0.5818 -0.1993
  665MOL0     C89707   8.701   4.511  10.011 -0.0597  0.1946  0.1087
  665MOL0     H89708   9.091   4.924  10.408  0.1704  1.7940 -3.3028
  665MOL0     H89709   9.305   4.903  10.519  0.2050 -1.1258  1.8351
  665MOL0     H89710   9.511   4.813  10.613 -2.5520 -0.1817  1.3402
  665MOL0     H89711   9.425   4.653  10.625  0.6273 -1.6205  0.8736
  665MOL0     H89712   9.710   4.691  10.531 -1.4054  1.2204 -0.4255
  665MOL0     H89713   9.620   4.537  10.576  0.3689  0.2291 -0.9847
  665MOL0     H89714   9.621   4.682  10.820 -2.3692  0.7687 -1.9115
  665MOL0     H89715   9.775   4.723  10.742 -1.0239  0.3503 -1.8453
  665MOL0     H89716   9.752   4.498  10.903  3.2319 -0.2713  0.6737
  665MOL0     H89717   9.695   4.420  10.747 -1.5245 -0.7684  2.0587
  665MOL0     H89718   9.905   4.504  10.640 -0.7728 -0.2995  0.3960
  665MOL0     H89719   9.956   4.579  10.778  2.2912 -0.9516 -2.2487
  665MOL0     H89720   9.897   4.276  10.774 -1.2492  1.3608  1.3997
  665MOL0     H89721  10.053   4.340  10.735 -0.3945  2.6929 -1.5351
  665MOL0     H89722   9.921   4.309  11.001  2.5467 -1.4716  2.2525
  665MOL0     H89723   9.992   4.467  10.968 -0.8555 -0.8537  1.8675
  665MOL0     H89724  10.149   4.210  10.970  2.0341  0.1685  0.9370
  665MOL0     H89725  10.210   4.361  10.908 -0.0238  0.4348  0.3869
  665MOL0     H89726  10.210   4.585  11.045  1.9893 -1.6898 -0.5790
  665MOL0     H89727  10.180   4.726  11.310 -2.5856 -2.6810 -2.3625
  665MOL0     H89728  10.263   4.635  11.434 -2.0753  0.5723 -0.0662
  665MOL0     H89729  10.474   4.622  11.278  3.0341  2.8500  1.8552
  665MOL0     H89730  10.388   4.724  11.169  0.0958 -1.8543 -0.0064
  665MOL0     H89731  10.387   4.917  11.328 -0.7155 -0.4678  2.0903
  665MOL0     H89732  10.553   4.856  11.300 -1.4365  0.8956 -2.8784
  665MOL0     H89733  10.371   4.801  11.540 -1.5744  4.4699 -0.1606
  665MOL0     H89734  10.508   4.910  11.537  1.1566 -0.2283  1.3273
  665MOL0     H89735  10.498   4.824  11.757  4.2936  1.1051 -1.7861
  665MOL0     H89736  10.443   4.711  11.972 -0.2899 -0.9478 -0.2499
  665MOL0     H89737  10.319   4.355  12.233  1.4539 -0.8363 -0.6064
  665MOL0     H89738  10.296   4.278  12.450 -0.5949 -0.0779 -0.1159
  665MOL0     H89739  10.200   4.371  12.636  1.5525  2.9434 -1.0366
  665MOL0     H89740  10.297   4.241  12.720 -0.8749  0.2793  2.0460
  665MOL0     H89741  10.301   4.354  12.916 -1.6346 -0.9337  1.8897
  665MOL0     H89742  10.235   4.499  12.843 -1.8580 -0.1489 -0.1538
  665MOL0     H89743  10.084   4.234  12.877 -2.8754  0.6220 -0.5711
  665MOL0     H89744  10.090   4.361  12.994 -3.0023  0.8438 -0.2296
  665MOL0     H89745   9.983   4.359  12.698 -3.7046  0.3523 -0.1804
  665MOL0     H89746   9.984   4.502  12.792 -1.4032  1.3190  1.7584
  665MOL0     H89747   9.840   4.359  12.969 -3.0679 -0.2642  0.1207
  665MOL0     H89748   9.818   4.247  12.850 -2.1378  0.2909  1.0563
  665MOL0     H89749   9.648   4.447  12.859 -0.8856 -1.2477 -2.5341
  665MOL0     H89750   9.777   4.552  12.830  1.1023  0.0007  2.1043
  665MOL0     H89751   9.669   4.312  12.644 -2.9990  0.4511  2.4105
  665MOL0     H89752   9.797   4.431  12.599 -2.0948  2.3593 -1.1319
  665MOL0     H89753   9.502   4.494  12.653  0.7038 -1.5204 -0.7858
  665MOL0     H89754   9.626   4.614  12.651  0.6664  0.0555 -1.0681
  665MOL0     H89755  10.554   4.563  12.624  0.5388  0.9443 -0.2576
  665MOL0     H89756  10.614   4.640  12.376 -1.4906  1.8032  1.8618
  665MOL0     H89757  10.589   4.345  11.802  1.2127 -0.3202 -1.9231
  665MOL0     H89758  10.611   4.441  11.603  1.1023 -2.1373  2.8519
  665MOL0     H89759   9.411   4.631  10.196  3.0777  2.3306  0.3047
  665MOL0     H89760   9.194   4.690  10.088  0.4427  2.3278  0.1800
  665MOL0     H89761   8.825   4.956  10.154 -2.4386  1.2392 -1.3145
  665MOL0     H89762   8.618   5.038  10.048 -0.9334  0.3108  1.5937
  665MOL0     H89763   8.262   5.017  10.026  2.5187  2.1731  1.0611
  665MOL0     H89764   8.345   4.924  10.161 -2.5140  5.6685  0.4549
  665MOL0     H89765   8.258   4.714  10.077 -0.2227  0.6938 -1.3508
  665MOL0     H89766   8.202   4.784   9.933 -0.2481  3.9769 -1.0360
  665MOL0     H89767   8.031   4.917  10.010 -1.1281 -0.2819 -0.3314
  665MOL0     H89768   8.079   4.907  10.176 -1.0377  0.6934 -0.8369
  665MOL0     H89769   8.016   4.653  10.005 -1.8853  1.0958 -1.1224
  665MOL0     H89770   8.036   4.663  10.183 -0.8487  1.1882  1.1190
  665MOL0     H89771   7.645   4.821  10.151  0.6800  2.1170  0.5515
  665MOL0     H89772   8.494   4.645   9.961  1.5331 -0.4103 -2.1805
  665MOL0     H89773   8.620   4.462   9.955  1.7846 -2.7264 -0.1981
  665MOL0     H89774   8.783   4.512   9.939  2.1118  2.0863  2.4247
  665MOL0     H89775   8.713   4.462  10.108  1.6189  1.8834  0.8112
  666MOL0     O89776  10.433   0.288   5.503  0.1028  0.0171 -0.1720
  666MOL0     C89777  10.487   0.192   5.451 -0.5172 -0.2960  0.5301
  666MOL0     O89778  10.615   0.147   5.479  0.5419 -0.1742  0.3021
  666MOL0     C89779  10.702   0.253   5.497  0.8325  0.9907 -0.0142
  666MOL0     C89780  10.692   0.375   5.445  0.3506  0.2520  0.4530
  666MOL0     C89781  10.787   0.471   5.469  1.1356  0.2610  0.4915
  666MOL0     C89782  10.894   0.450   5.558  0.1423  0.1271  0.5155
  666MOL0     O89783  10.980   0.547   5.591 -0.0093  0.1320  0.1616
  666MOL0     C89784  11.036   0.630   5.480  1.0706  0.7911  0.1400
  666MOL0     C89785  11.187   0.643   5.495  0.5862  0.2034  0.7764
  666MOL0     C89786  11.232   0.715   5.616 -0.8107  0.3831  0.3297
  666MOL0     C89787  11.390   0.689   5.625  0.0255  0.0311  0.4048
  666MOL0     C89788  11.471   0.750   5.745 -0.1284  0.3468 -0.9527
  666MOL0     C89789  11.448   0.906   5.752 -0.4478  0.0547 -0.8435
  666MOL0     C89790  11.545   0.969   5.856  0.1612 -0.4578  0.0805
  666MOL0     C89791  11.481   1.062   5.958  0.0654  0.5374  0.1435
  666MOL0     N89792  11.574   1.131   6.045 -0.1663  0.1950 -0.2345
  666MOL0     C89793  11.551   1.251   6.118 -0.4560  0.4228  0.0899
  666MOL0     C89794  11.661   1.269   6.194 -0.4072  0.5797  0.2245
  666MOL0     C89795  11.687   1.386   6.285  0.2434  0.0351  0.1197
  666MOL0     C89796  11.792   1.349   6.393 -1.0494 -0.2793  0.2397
  666MOL0     C89797  11.852   1.466   6.472  0.5747 -0.9928  0.8356
  666MOL0     C89798  11.983   1.417   6.550 -0.9453  0.4459 -0.1201
  666MOL0     O89799  12.088   1.407   6.448  0.2551 -0.7330  0.4160
  666MOL0     C89800  12.185   1.322   6.489  0.6164 -0.1443  0.8110
  666MOL0     C89801  12.198   1.202   6.415  0.5330  0.1372  0.6854
  666MOL0     C89802  12.310   1.127   6.429 -0.8728 -0.6123 -0.0877
  666MOL0     C89803  12.410   1.170   6.525 -0.3775  0.0489 -1.0554
  666MOL0     C89804  12.531   1.077   6.551 -0.5148  1.0224  0.0812
  666MOL0     O89805  12.601   1.097   6.670  0.0653  0.3409 -0.2426
  666MOL0     C89806  12.719   1.038   6.692 -0.1538 -0.2537  0.1521
  666MOL0     C89807  12.740   0.903   6.672 -0.3935  0.6617 -1.0449
  666MOL0     C89808  12.864   0.838   6.712 -0.1691  0.0719 -0.5036
  666MOL0     C89809  12.962   0.912   6.781  0.3154  0.1746  0.7981
  666MOL0     O89810  13.085   0.873   6.826  0.0376 -0.9281 -0.1132
  666MOL0     C89811  13.132   0.742   6.794 -0.4458 -0.2494  0.4098
  666MOL0     C89812  13.264   0.725   6.873 -1.1621 -0.2057 -0.3792
  666MOL0     C89813  13.262   0.749   7.028  0.5197  0.4422 -0.0455
  666MOL0     C89814  13.388   0.732   7.108 -0.2014 -0.3424 -0.0221
  666MOL0     C89815  13.382   0.812   7.232 -0.1636  1.1640  0.5136
  666MOL0     C89816  13.295   0.759   7.339  0.9130  0.2377 -0.2981
  666MOL0     C89817  13.298   0.845   7.461 -0.4148 -0.0245 -0.6690
  666MOL0     C89818  13.195   0.789   7.558  0.0293  0.1655 -0.1503
  666MOL0    Cl89819  13.206   0.883   7.719 -0.0671  0.6784  0.6881
  666MOL0     C89820  12.942   1.051   6.794 -0.0373 -0.3065  0.0386
  666MOL0     C89821  12.825   1.115   6.750  0.3711 -0.7133 -0.9771
  666MOL0     O89822  12.548   0.990   6.469  0.0948  0.5701 -0.1608
  666MOL0     C89823  12.390   1.282   6.601  0.1503  0.1526  1.5303
  666MOL0     C89824  12.277   1.364   6.582  0.1131  0.3373  0.1744
  666MOL0     N89825  11.749   1.165   6.164 -0.0753 -0.3651 -0.1094
  666MOL0     N89826  11.698   1.091   6.074 -0.1138  0.6915 -0.5479
  666MOL0     C89827  10.903   0.325   5.617  0.2130  0.2046  1.0553
  666MOL0     C89828  10.807   0.229   5.587  0.1068  0.2171 -0.3186
  666MOL0     C89829  10.407   0.114   5.350 -0.3092  0.5749  0.6328
  666MOL0     C89830  10.478   0.055   5.245  0.0120  0.4473 -0.5680
  666MOL0     C89831  10.408   0.002   5.136  0.1978 -0.4198  1.6033
  666MOL0     C89832  10.271  -0.004   5.135 -0.2142  0.2403 -0.6492
  666MOL0     O89833  10.213  -0.067   5.031 -0.7282  0.6817  0.1481
  666MOL0     C89834  10.216  -0.210   5.037 -0.3876 -0.0100 -0.5592
  666MOL0     C89835  10.254  -0.258   4.896 -0.3643  0.4620  0.9646
  666MOL0     C89836  10.147  -0.226   4.789  0.2573  0.0614  0.8196
  666MOL0     C89837  10.176  -0.300   4.658  1.3930  0.7616  0.0318
  666MOL0     C89838  10.066  -0.290   4.563 -0.2714  0.6434 -0.2685
  666MOL0     C89839   9.969  -0.284   4.479  0.2511  0.2561 -0.7940
  666MOL0     C89840  10.202   0.046   5.237 -0.2606  0.2082  0.7865
  666MOL0     C89841  10.263   0.105   5.343  0.7055 -0.0944 -0.0049
  666MOL0     C89842  10.170   0.155   5.450 -0.4407 -1.0669 -0.1499
  666MOL0     H89843  10.621   0.394   5.365  1.3130 -2.8250 -1.2715
  666MOL0     H89844  10.783   0.564   5.412  1.1603 -0.4113 -0.6467
  666MOL0     H89845  11.013   0.590   5.381 -3.5144  1.0472  0.8632
  666MOL0     H89846  10.985   0.727   5.479 -2.3368 -0.7883 -2.8718
  666MOL0     H89847  11.220   0.694   5.404  0.7715 -1.2527  0.0074
  666MOL0     H89848  11.231   0.543   5.496  0.0294 -0.0487  1.9716
  666MOL0     H89849  11.189   0.669   5.705 -3.7330  1.5853 -0.3435
  666MOL0     H89850  11.197   0.818   5.602  0.3050  0.8536  0.9134
  666MOL0     H89851  11.419   0.584   5.616 -1.8068 -0.6356  1.5987
  666MOL0     H89852  11.420   0.733   5.530  0.7942  0.1142  0.6768
  666MOL0     H89853  11.446   0.698   5.838  4.7119 -0.0141  0.4476
  666MOL0     H89854  11.577   0.727   5.731  0.7773  3.2275  0.4324
  666MOL0     H89855  11.475   0.946   5.654  1.7847  1.3918  0.2406
  666MOL0     H89856  11.341   0.920   5.774 -1.0759  1.1882 -4.1098
  666MOL0     H89857  11.629   1.016   5.803  0.8061  0.0966  1.5372
  666MOL0     H89858  11.593   0.888   5.911  3.1757  2.0173  1.3866
  666MOL0     H89859  11.415   1.136   5.912 -1.5839 -1.3256 -0.6501
  666MOL0     H89860  11.412   1.004   6.020  0.5105  0.2946  0.4159
  666MOL0     H89861  11.461   1.311   6.121 -3.3101 -3.5054  0.8660
  666MOL0     H89862  11.711   1.469   6.217  0.9248  2.7685  3.3947
  666MOL0     H89863  11.603   1.435   6.335  1.8495  0.8928  2.1433
  666MOL0     H89864  11.760   1.265   6.455 -1.8432  0.5214  0.9330
  666MOL0     H89865  11.878   1.307   6.339 -2.6052  0.0496 -2.7364
  666MOL0     H89866  11.775   1.507   6.538  0.1553 -1.9068  0.9249
  666MOL0     H89867  11.886   1.538   6.397 -0.7640  0.6947  1.7798
  666MOL0     H89868  11.959   1.326   6.606  0.0593 -0.3394 -0.9085
  666MOL0     H89869  12.008   1.492   6.625  0.1175 -0.8988  0.9305
  666MOL0     H89870  12.111   1.182   6.353  1.7685  1.4889 -1.6472
  666MOL0     H89871  12.310   1.040   6.365  0.3920 -1.0546  0.4864
  666MOL0     H89872  12.661   0.837   6.639 -1.4602  1.8499 -0.9564
  666MOL0     H89873  12.881   0.733   6.692  1.1035  0.5918 -2.5190
  666MOL0     H89874  13.059   0.664   6.820  0.3483 -0.8140  0.9890
  666MOL0     H89875  13.146   0.747   6.685 -1.6999  1.4342  0.2923
  666MOL0     H89876  13.317   0.634   6.841 -1.5218 -0.7807  0.6203
  666MOL0     H89877  13.318   0.806   6.823 -3.9867 -0.2210 -3.8687
  666MOL0     H89878  13.212   0.845   7.039 -2.1998 -0.8494 -0.4777
  666MOL0     H89879  13.190   0.674   7.060 -0.0704 -0.1987 -2.5970
  666MOL0     H89880  13.463   0.778   7.043  0.3774 -1.7277 -0.3502
  666MOL0     H89881  13.426   0.631   7.120  1.0702 -0.6091 -4.5344
  666MOL0     H89882  13.361   0.916   7.206  1.5713  0.7016 -3.6505
  666MOL0     H89883  13.478   0.798   7.283  0.1137 -3.2343 -0.8692
  666MOL0     H89884  13.189   0.753   7.315  0.8311  1.2178 -0.2345
  666MOL0     H89885  13.322   0.656   7.361 -0.1013 -0.0209 -0.2180
  666MOL0     H89886  13.293   0.952   7.440 -0.4177  0.0563 -0.2665
  666MOL0     H89887  13.396   0.829   7.508 -0.8221 -1.6667 -0.3097
  666MOL0     H89888  13.095   0.794   7.516  0.1534 -0.2365 -0.4915
  666MOL0     H89889  13.230   0.686   7.570 -0.8805 -0.1355 -0.0125
  666MOL0     H89890  13.017   1.113   6.842 -2.2973  3.5412 -0.9481
  666MOL0     H89891  12.812   1.217   6.784  1.9757 -1.3540  1.8244
  666MOL0     H89892  12.467   1.316   6.670  0.9503  1.6749 -0.0463
  666MOL0     H89893  12.273   1.452   6.646 -0.2517  1.4066 -1.2717
  666MOL0     H89894  10.979   0.318   5.694 -0.8669  0.6540  2.1931
  666MOL0     H89895  10.801   0.138   5.646 -1.5429 -0.2701 -1.1615
  666MOL0     H89896  10.586   0.041   5.244  0.3776  2.4212  1.8436
  666MOL0     H89897  10.451  -0.036   5.044 -3.7492 -1.2918 -0.1124
  666MOL0     H89898  10.122  -0.252   5.074 -1.0053  0.8599 -1.0966
  666MOL0     H89899  10.290  -0.246   5.109 -1.6319  2.1193  1.9639
  666MOL0     H89900  10.269  -0.366   4.893  2.7265  0.8461 -0.6481
  666MOL0     H89901  10.349  -0.212   4.868 -0.3855 -0.4804 -0.7782
  666MOL0     H89902  10.141  -0.119   4.767  1.3754  0.7645  3.6381
  666MOL0     H89903  10.054  -0.270   4.825 -0.3593 -0.2728 -1.0739
  666MOL0     H89904  10.271  -0.267   4.617  1.3464  0.7654 -0.0731
  666MOL0     H89905  10.178  -0.409   4.675 -1.8774  0.2753 -1.8905
  666MOL0     H89906   9.894  -0.268   4.404 -1.3704  0.3094  0.7689
  666MOL0     H89907  10.095   0.058   5.222 -0.3983 -2.3752 -0.7520
  666MOL0     H89908  10.177   0.264   5.454 -1.4135 -0.9718 -0.6990
  666MOL0     H89909  10.064   0.133   5.431 -0.2140  0.0035 -3.1505
  666MOL0     H89910  10.194   0.107   5.546  0.8097 -0.7248 -0.2810
  667MOL0     O89911   3.289   4.181   2.368 -0.2837  0.3065  0.1673
  667MOL0     C89912   3.175   4.211   2.335  0.7999  0.3955  0.6778
  667MOL0     O89913   3.087   4.271   2.423 -0.1404 -0.0241  0.2457
  667MOL0     C89914   3.093   4.266   2.559  0.2404  0.4997 -0.4151
  667MOL0     C89915   2.989   4.343   2.624  0.3545 -0.1190 -0.3022
  667MOL0     C89916   3.004   4.380   2.762  0.3087  0.7674  0.9742
  667MOL0     C89917   3.113   4.336   2.829 -0.2789 -0.2976 -0.5292
  667MOL0     O89918   3.122   4.376   2.963 -0.4282  0.2677  0.5457
  667MOL0     C89919   3.184   4.512   2.971 -1.0031  0.4424  0.1036
  667MOL0     C89920   3.280   4.524   3.090 -0.5985 -0.5503  0.4924
  667MOL0     C89921   3.206   4.532   3.220  1.3127  0.5060 -0.3908
  667MOL0     C89922   3.308   4.510   3.332 -0.0902  0.0471  0.1028
  667MOL0     C89923   3.272   4.575   3.467 -0.3821  0.2327  0.1310
  667MOL0     C89924   3.304   4.721   3.476  0.0913 -0.5358 -0.0445
  667MOL0     C89925   3.285   4.774   3.620  0.3162  1.1454  0.8840
  667MOL0     C89926   3.314   4.925   3.623 -0.7235  0.5798 -0.1242
  667MOL0     N89927   3.459   4.953   3.606  0.4889  0.0168  0.2062
  667MOL0     C89928   3.569   4.867   3.630 -1.1091 -0.2023 -0.0012
  667MOL0     C89929   3.673   4.933   3.572 -0.0592  0.8939  0.0552
  667MOL0     C89930   3.812   4.884   3.569 -0.0832  0.8818  0.0693
  667MOL0     C89931   3.903   4.996   3.507 -0.0205 -0.7106  0.2300
  667MOL0     C89932   4.040   4.943   3.505 -0.7529 -0.7669  0.1694
  667MOL0     C89933   4.138   5.039   3.424  1.0661  0.0782 -0.1652
  667MOL0     O89934   4.178   5.146   3.511 -0.2327 -0.3120  0.0668
  667MOL0     C89935   4.307   5.201   3.514  0.4132 -0.1328 -0.0772
  667MOL0     C89936   4.319   5.326   3.578  0.3101 -0.2447  0.4307
  667MOL0     C89937   4.444   5.387   3.592 -0.0975  0.5661  0.1318
  667MOL0     C89938   4.558   5.319   3.551 -0.0720 -0.9668  0.0491
  667MOL0     C89939   4.691   5.386   3.576  0.6343 -0.9458  0.5727
  667MOL0     O89940   4.713   5.465   3.682  0.1867 -0.5339  0.1520
  667MOL0     C89941   4.842   5.514   3.697 -0.6023  0.0309 -0.1375
  667MOL0     C89942   4.960   5.431   3.697  0.0624  0.4051  0.5463
  667MOL0     C89943   5.091   5.485   3.728  1.1730  0.3738 -0.4811
  667MOL0     C89944   5.101   5.618   3.773 -0.0021  0.7777 -0.5852
  667MOL0     O89945   5.221   5.647   3.835  0.6835  0.4326  0.2846
  667MOL0     C89946   5.278   5.774   3.789 -0.1205  0.6432  0.6758
  667MOL0     C89947   5.444   5.758   3.790 -0.3822 -0.4558 -0.1428
  667MOL0     C89948   5.510   5.752   3.932  1.1951  0.3748 -0.4590
  667MOL0     C89949   5.662   5.762   3.923 -0.2099 -0.6327  0.0990
  667MOL0     C89950   5.733   5.749   4.058 -0.2949  0.3223  0.2394
  667MOL0     C89951   5.890   5.718   4.045  0.0084 -0.4062  0.0050
  667MOL0     C89952   5.954   5.680   4.181 -0.3577  0.9289 -0.7398
  667MOL0     C89953   6.108   5.682   4.189  1.0400 -0.6171  0.0786
  667MOL0    Cl89954   6.161   5.553   4.075  0.0079 -0.5796 -0.3296
  667MOL0     C89955   4.987   5.699   3.765  0.2027  1.2956 -0.2574
  667MOL0     C89956   4.863   5.648   3.725 -0.5956  0.5475 -0.9403
  667MOL0     O89957   4.776   5.365   3.490  0.5975  0.0548 -0.4404
  667MOL0     C89958   4.545   5.201   3.478  0.0691 -0.0819 -1.0900
  667MOL0     C89959   4.424   5.140   3.464 -0.4095 -0.3420 -1.4402
  667MOL0     N89960   3.629   5.053   3.531  0.3609  0.1537 -0.7505
  667MOL0     N89961   3.504   5.060   3.545  0.2193  0.5514 -0.7082
  667MOL0     C89962   3.199   4.250   2.773  1.4069  0.7512 -0.6784
  667MOL0     C89963   3.197   4.212   2.642  0.2323  1.0951  0.0848
  667MOL0     C89964   3.116   4.182   2.197  0.4235 -0.4800  0.4548
  667MOL0     C89965   2.972   4.166   2.184  0.0396  0.0273  0.3302
  667MOL0     C89966   2.910   4.125   2.064 -0.2851 -0.9694 -0.4825
  667MOL0     C89967   2.987   4.109   1.954  0.4582  0.0485  0.0256
  667MOL0     O89968   2.946   4.054   1.834 -0.4236  0.6564 -0.3755
  667MOL0     C89969   2.818   3.988   1.835 -0.2908 -0.0784 -0.1652
  667MOL0     C89970   2.793   3.916   1.708  0.2284  0.1732 -0.4981
  667MOL0     C89971   2.793   4.004   1.578  0.0104 -0.0136  0.1087
  667MOL0     C89972   2.793   3.922   1.444  0.4359  0.0762  0.7205
  667MOL0     C89973   2.905   3.827   1.427 -0.3845  0.8908  0.0167
  667MOL0     C89974   2.992   3.747   1.410 -0.8915 -0.1385  0.0035
  667MOL0     C89975   3.113   4.146   1.953  0.2721 -0.0825 -0.0967
  667MOL0     C89976   3.186   4.184   2.074 -0.3445 -0.3098 -0.8843
  667MOL0     C89977   3.338   4.201   2.075 -0.0414 -0.3192  0.0695
  667MOL0     H89978   2.894   4.354   2.573 -1.3223 -2.1762  2.1248
  667MOL0     H89979   2.917   4.431   2.801  2.1651  3.9223  1.2965
  667MOL0     H89980   3.258   4.514   2.891 -0.9414 -5.0704 -0.3982
  667MOL0     H89981   3.115   4.597   2.967 -0.3143  1.1036  1.5989
  667MOL0     H89982   3.348   4.610   3.084  0.4212 -1.2961  0.9309
  667MOL0     H89983   3.331   4.427   3.091 -2.3378 -1.7047 -3.6604
  667MOL0     H89984   3.130   4.455   3.237  1.1167 -0.0303 -3.2112
  667MOL0     H89985   3.155   4.628   3.229 -0.2220 -0.4298  1.9372
  667MOL0     H89986   3.321   4.404   3.355  2.1991  0.4353  0.8176
  667MOL0     H89987   3.394   4.558   3.285 -2.8057  3.3701 -2.0248
  667MOL0     H89988   3.167   4.565   3.493 -0.5032  1.9607  0.4015
  667MOL0     H89989   3.331   4.524   3.543  0.1339  1.6487  0.7201
  667MOL0     H89990   3.410   4.718   3.450  0.1631 -1.9350  0.3402
  667MOL0     H89991   3.247   4.779   3.402 -0.3870 -0.4761  0.3621
  667MOL0     H89992   3.350   4.735   3.699  2.3087  0.6861 -0.8664
  667MOL0     H89993   3.180   4.748   3.636  0.1901 -1.3093 -2.5668
  667MOL0     H89994   3.256   4.965   3.540 -0.3242 -0.0571 -0.7161
  667MOL0     H89995   3.281   4.979   3.713 -1.0360  1.3720 -0.7093
  667MOL0     H89996   3.565   4.775   3.687  1.6828  0.3740  1.2715
  667MOL0     H89997   3.851   4.860   3.669  1.9503  0.1423 -0.8413
  667MOL0     H89998   3.814   4.786   3.520  0.7234 -2.0850  5.1972
  667MOL0     H89999   3.870   5.031   3.408 -0.9655 -1.6345  0.1932
  667MOL0     H90000   3.904   5.091   3.561  0.8721  0.4000 -1.6328
  667MOL0     H90001   4.040   4.861   3.433  0.9808  3.0786 -4.7628
  667MOL0     H90002   4.088   4.918   3.600  0.3034 -2.7012 -0.8147
  667MOL0     H90003   4.102   5.084   3.331  0.5655 -0.6988 -0.3548
  667MOL0     H90004   4.227   4.981   3.401  2.3355  1.4199  1.1437
  667MOL0     H90005   4.230   5.372   3.620  0.4757 -0.8476  1.4751
  667MOL0     H90006   4.455   5.486   3.635  4.6364  1.0955 -1.6947
  667MOL0     H90007   4.966   5.330   3.660  3.3093  0.8887 -0.5622
  667MOL0     H90008   5.185   5.430   3.726  0.5706 -0.6868 -0.4552
  667MOL0     H90009   5.243   5.801   3.689  2.1645 -1.8839 -0.9466
  667MOL0     H90010   5.246   5.846   3.865 -1.5416 -1.9250  2.7207
  667MOL0     H90011   5.468   5.669   3.731 -0.8717 -0.7670  0.1209
  667MOL0     H90012   5.492   5.844   3.741  1.3098 -0.1439  1.9492
  667MOL0     H90013   5.484   5.843   3.987  0.8810  0.0655 -0.0949
  667MOL0     H90014   5.473   5.669   3.993 -0.9494  0.9354 -0.9056
  667MOL0     H90015   5.693   5.853   3.869  1.8678 -0.6543  1.1657
  667MOL0     H90016   5.692   5.674   3.865  2.8823 -0.6449  1.5043
  667MOL0     H90017   5.689   5.662   4.106 -0.5303  1.0528  1.3960
  667MOL0     H90018   5.715   5.829   4.130 -3.4044 -0.4030  0.3881
  667MOL0     H90019   5.891   5.628   3.982 -0.1463  0.0878 -0.7140
  667MOL0     H90020   5.947   5.800   4.002  1.3349 -2.1294 -1.7152
  667MOL0     H90021   5.918   5.579   4.201  1.9775  0.2958  0.7115
  667MOL0     H90022   5.910   5.744   4.257 -3.8809 -3.5092  1.3958
  667MOL0     H90023   6.145   5.780   4.158 -1.1459 -0.0021 -0.8032
  667MOL0     H90024   6.140   5.663   4.292 -1.6885  2.7552  1.7990
  667MOL0     H90025   4.993   5.803   3.794 -0.8660  1.1550  0.5188
  667MOL0     H90026   4.782   5.720   3.714 -0.6890  0.6140  0.0590
  667MOL0     H90027   4.627   5.142   3.439 -0.0637 -1.0665  0.0429
  667MOL0     H90028   4.428   5.040   3.422  2.0526 -0.4443 -1.1192
  667MOL0     H90029   3.283   4.217   2.833  0.5591 -1.3779 -0.5760
  667MOL0     H90030   3.275   4.147   2.606  0.3374 -0.0144  2.1863
  667MOL0     H90031   2.912   4.199   2.268  2.3546 -0.1974  2.1972
  667MOL0     H90032   2.803   4.106   2.073 -0.2224 -0.3404  3.8176
  667MOL0     H90033   2.739   4.061   1.857  0.5084  0.2652  1.7828
  667MOL0     H90034   2.808   3.927   1.926  1.1977  0.9230  0.7152
  667MOL0     H90035   2.689   3.883   1.716 -0.3961  2.4605  2.4852
  667MOL0     H90036   2.859   3.831   1.689 -1.2063 -1.4107  1.2291
  667MOL0     H90037   2.886   4.062   1.584  0.4836 -0.5758 -1.2490
  667MOL0     H90038   2.710   4.075   1.566  0.1415 -0.2150 -2.9307
  667MOL0     H90039   2.706   3.856   1.450 -1.0815  1.8710 -0.4474
  667MOL0     H90040   2.770   3.996   1.367 -0.9381  0.4006  1.4063
  667MOL0     H90041   3.074   3.678   1.409  3.8202  4.7766  0.4052
  667MOL0     H90042   3.168   4.143   1.860  0.4145 -0.7947  0.0094
  667MOL0     H90043   3.396   4.116   2.110  0.7769  0.2495  0.1371
  667MOL0     H90044   3.379   4.234   1.978  1.5592 -0.1146  0.7832
  667MOL0     H90045   3.346   4.286   2.143 -1.0458 -0.7182  0.6959
  668MOL0     O90046   3.592   0.720   7.709 -0.2240  0.4586 -0.1238
  668MOL0     C90047   3.627   0.829   7.752 -0.7051 -0.2148  0.0568
  668MOL0     O90048   3.549   0.944   7.730 -0.4528 -0.4061  0.5951
  668MOL0     C90049   3.431   0.920   7.658  0.0953 -0.1326  0.8401
  668MOL0     C90050   3.308   0.894   7.729  0.1344 -1.2139 -0.1675
  668MOL0     C90051   3.185   0.898   7.658  0.5277  0.2828  0.4366
  668MOL0     C90052   3.181   0.911   7.518  0.4767  0.3994 -0.2932
  668MOL0     O90053   3.060   0.917   7.453  0.3394 -0.8003  0.3630
  668MOL0     C90054   3.038   0.912   7.312 -0.1177 -0.1748 -0.0430
  668MOL0     C90055   3.028   0.768   7.254  0.5253  0.1747 -0.0259
  668MOL0     C90056   3.164   0.695   7.218 -0.4045  0.2255  0.0547
  668MOL0     C90057   3.209   0.701   7.077  0.5765  0.7571 -0.1574
  668MOL0     C90058   3.349   0.642   7.043 -0.1848  0.3146 -0.3731
  668MOL0     C90059   3.459   0.748   7.067 -0.9103 -0.2048 -0.2218
  668MOL0     C90060   3.597   0.687   7.030  0.3747 -0.7852  1.0216
  668MOL0     C90061   3.715   0.781   7.040 -0.1613  0.2936  0.1892
  668MOL0     N90062   3.745   0.843   7.166 -0.5101  0.4451 -0.3263
  668MOL0     C90063   3.827   0.778   7.257 -0.4314 -0.4054 -0.8189
  668MOL0     C90064   3.841   0.862   7.360  0.1873 -0.0831 -0.3896
  668MOL0     C90065   3.917   0.855   7.492  0.2412  0.4042 -0.3623
  668MOL0     C90066   4.062   0.841   7.462 -0.5736  0.2873 -0.5112
  668MOL0     C90067   4.143   0.821   7.588 -0.0864  0.1275 -0.6257
  668MOL0     C90068   4.279   0.879   7.572  0.2697  0.7163 -0.7207
  668MOL0     O90069   4.354   0.787   7.483 -0.4044 -0.0671 -0.5010
  668MOL0     C90070   4.491   0.792   7.491  0.9022 -0.0293  0.4702
  668MOL0     C90071   4.551   0.666   7.468 -0.5794  0.1021 -0.5391
  668MOL0     C90072   4.693   0.663   7.470  0.0659  0.7768 -0.4666
  668MOL0     C90073   4.766   0.783   7.489 -0.4377  0.3667 -0.5425
  668MOL0     C90074   4.912   0.773   7.487  0.1978 -0.7124  0.1501
  668MOL0     O90075   4.968   0.651   7.507  0.8016  0.1827  0.1865
  668MOL0     C90076   5.099   0.643   7.500 -0.9077  1.1569 -0.1205
  668MOL0     C90077   5.189   0.662   7.605  0.0326  0.1180 -0.1021
  668MOL0     C90078   5.326   0.641   7.588 -0.5800  0.2047 -0.5254
  668MOL0     C90079   5.377   0.614   7.462  0.4669 -0.7330 -0.1019
  668MOL0     O90080   5.516   0.606   7.469  0.2955 -0.0988 -0.2049
  668MOL0     C90081   5.588   0.593   7.344 -0.3785 -0.0875  0.0523
  668MOL0     C90082   5.598   0.728   7.270 -0.4337 -0.4619  0.0283
  668MOL0     C90083   5.659   0.718   7.136 -0.7307  0.0704 -0.0089
  668MOL0     C90084   5.793   0.632   7.144  0.3652 -1.1917  0.6219
  668MOL0     C90085   5.851   0.647   7.001  0.1234 -0.1580  0.2228
  668MOL0     C90086   5.986   0.574   6.983  0.2964 -0.3427  0.4013
  668MOL0     C90087   6.040   0.562   6.846  0.1941  0.4932  0.0672
  668MOL0     C90088   6.192   0.564   6.836  0.0278 -0.0360 -0.3463
  668MOL0    Cl90089   6.237   0.729   6.881  0.0170 -0.6792  0.2271
  668MOL0     C90090   5.289   0.605   7.354 -0.9214  0.1301  0.5724
  668MOL0     C90091   5.153   0.614   7.376  0.0334  0.6831  0.6987
  668MOL0     O90092   4.982   0.879   7.460  1.1124 -0.1200 -0.3876
  668MOL0     C90093   4.697   0.901   7.494 -1.0332  0.2933  0.0047
  668MOL0     C90094   4.565   0.910   7.498  0.7780 -0.2421 -1.8160
  668MOL0     N90095   3.758   0.974   7.340 -0.3387 -0.0163 -0.7031
  668MOL0     N90096   3.696   0.953   7.226 -0.3988 -0.2253  0.0595
  668MOL0     C90097   3.305   0.915   7.454 -0.4848 -1.5931 -0.5991
  668MOL0     C90098   3.428   0.922   7.518  1.1786 -0.1111  0.0826
  668MOL0     C90099   3.750   0.829   7.841  0.0055 -0.1860  0.3288
  668MOL0     C90100   3.782   0.953   7.903 -0.0735  0.0450  0.2359
  668MOL0     C90101   3.899   0.968   7.980 -0.5001 -0.5429  0.2334
  668MOL0     C90102   3.983   0.863   8.005 -0.1172 -0.6921 -0.2863
  668MOL0     O90103   4.098   0.898   8.084  0.7537 -0.2728  0.5918
  668MOL0     C90104   4.160   0.794   8.140 -0.7158  0.2392 -0.0357
  668MOL0     C90105   4.308   0.796   8.108  1.6723 -0.6087  0.0714
  668MOL0     C90106   4.379   0.661   8.142  0.3168 -0.2187 -0.4334
  668MOL0     C90107   4.364   0.552   8.040 -0.1457 -0.7197  0.6756
  668MOL0     C90108   4.426   0.579   7.907  0.0709 -0.2667 -0.0960
  668MOL0     C90109   4.486   0.601   7.809 -1.1074 -0.2956  0.2039
  668MOL0     C90110   3.949   0.736   7.953  0.4122 -0.3767  0.0980
  668MOL0     C90111   3.838   0.720   7.866  0.1822 -0.0399  1.2782
  668MOL0     C90112   3.815   0.576   7.803  0.8386 -0.3796 -1.1399
  668MOL0     H90113   3.295   0.893   7.836 -3.5142  2.7987 -0.3123
  668MOL0     H90114   3.095   0.888   7.717  1.0579  1.0296  1.4118
  668MOL0     H90115   2.945   0.963   7.286 -0.5713 -1.7720 -1.8402
  668MOL0     H90116   3.116   0.971   7.262 -1.2993  3.5189  2.0938
  668MOL0     H90117   2.975   0.765   7.158 -2.5498 -1.8685  1.5992
  668MOL0     H90118   2.960   0.703   7.309 -1.3389  1.6680 -0.4584
  668MOL0     H90119   3.147   0.589   7.237 -1.6881  0.4725  0.3507
  668MOL0     H90120   3.242   0.736   7.283 -0.9182  3.1997 -1.0363
  668MOL0     H90121   3.143   0.629   7.028 -0.7833  1.3986  0.6848
  668MOL0     H90122   3.205   0.805   7.044 -3.5511  1.0857  0.8277
  668MOL0     H90123   3.366   0.551   7.101 -1.5383 -1.7151 -2.9016
  668MOL0     H90124   3.337   0.604   6.941 -1.7885  0.6948 -0.3516
  668MOL0     H90125   3.431   0.841   7.017 -1.6336  0.3729  1.1821
  668MOL0     H90126   3.453   0.769   7.174  0.7862  0.0069 -0.1476
  668MOL0     H90127   3.595   0.669   6.922  0.3934 -1.1594  1.0805
  668MOL0     H90128   3.614   0.587   7.071 -2.0125 -1.2294  1.0597
  668MOL0     H90129   3.811   0.734   7.014 -0.2241  0.4002 -0.2392
  668MOL0     H90130   3.693   0.866   6.976  1.0644  0.1973 -0.3875
  668MOL0     H90131   3.864   0.676   7.251  2.9176  0.7237 -1.6006
  668MOL0     H90132   3.896   0.947   7.548  0.6140 -1.7860  3.6795
  668MOL0     H90133   3.884   0.771   7.552  2.6976  0.3945  1.0785
  668MOL0     H90134   4.077   0.752   7.400 -1.7417 -0.5204  0.3215
  668MOL0     H90135   4.095   0.929   7.406  0.6896 -0.7434 -1.4409
  668MOL0     H90136   4.161   0.716   7.609  1.1735  0.2330 -1.1015
  668MOL0     H90137   4.091   0.865   7.674 -1.5267 -0.0525 -1.3695
  668MOL0     H90138   4.322   0.892   7.671 -1.3425 -1.9223  0.4451
  668MOL0     H90139   4.275   0.972   7.515 -1.8851 -0.2583 -2.3508
  668MOL0     H90140   4.497   0.572   7.464  2.1326 -1.5619 -0.6531
  668MOL0     H90141   4.743   0.571   7.443 -2.6686  0.1627 -4.2556
  668MOL0     H90142   5.142   0.689   7.699 -1.6409 -0.3423 -0.7535
  668MOL0     H90143   5.404   0.650   7.663 -1.5866 -1.3163  0.7741
  668MOL0     H90144   5.689   0.567   7.377 -1.9452 -1.3769  4.5765
  668MOL0     H90145   5.545   0.511   7.286  0.4780 -0.3641 -0.2183
  668MOL0     H90146   5.496   0.761   7.247 -0.4623 -1.8758 -2.1069
  668MOL0     H90147   5.664   0.798   7.322  1.2549 -0.9001 -1.4414
  668MOL0     H90148   5.596   0.681   7.054 -0.4221  0.5023 -0.4548
  668MOL0     H90149   5.684   0.817   7.097 -2.8361  0.7150  0.1196
  668MOL0     H90150   5.777   0.525   7.158  3.6911 -2.0050 -0.9000
  668MOL0     H90151   5.850   0.668   7.230 -2.6601 -0.3524  2.4381
  668MOL0     H90152   5.867   0.754   6.983  4.9589 -1.1054 -3.0891
  668MOL0     H90153   5.772   0.620   6.930 -2.6840  4.3224  1.2056
  668MOL0     H90154   6.046   0.641   7.046 -3.1369  1.7641  1.7185
  668MOL0     H90155   5.975   0.471   7.018 -0.3287 -0.4070  0.0166
  668MOL0     H90156   6.004   0.653   6.798  1.6454  2.1485  1.9753
  668MOL0     H90157   5.994   0.477   6.795  1.8066 -0.9869  0.9706
  668MOL0     H90158   6.237   0.492   6.905  0.0317 -0.0155 -0.3275
  668MOL0     H90159   6.231   0.550   6.734  0.9742  0.6096 -0.0835
  668MOL0     H90160   5.330   0.592   7.255 -0.2612 -1.3617  1.0173
  668MOL0     H90161   5.079   0.595   7.299 -1.2234  1.6868  1.6197
  668MOL0     H90162   4.753   0.994   7.495 -0.7393  0.1422 -1.0528
  668MOL0     H90163   4.509   1.002   7.515 -1.5210 -2.2089  3.7934
  668MOL0     H90164   3.307   0.938   7.348 -0.3318 -1.9349 -0.6709
  668MOL0     H90165   3.528   0.946   7.484  1.8239 -1.5903  0.8390
  668MOL0     H90166   3.719   1.042   7.898 -0.0276  0.3653  3.3592
  668MOL0     H90167   3.921   1.068   8.016 -2.1242  1.1991 -3.0935
  668MOL0     H90168   4.131   0.691   8.116  3.7246 -1.7785  1.9380
  668MOL0     H90169   4.153   0.801   8.249  0.6680 -4.1955  0.5476
  668MOL0     H90170   4.341   0.879   8.171 -0.4809  2.4159 -2.4358
  668MOL0     H90171   4.315   0.815   8.000  0.2108 -1.3545 -0.1772
  668MOL0     H90172   4.340   0.617   8.234 -0.7583  3.4987  1.0843
  668MOL0     H90173   4.488   0.671   8.146  0.9544 -3.8455 -3.1366
  668MOL0     H90174   4.407   0.464   8.089  0.9044  0.6837  2.4044
  668MOL0     H90175   4.262   0.527   8.008 -0.4276 -0.5265  1.4017
  668MOL0     H90176   4.535   0.641   7.722 -1.8629  1.4204  0.5262
  668MOL0     H90177   4.005   0.643   7.955  1.6575  0.3610  2.0007
  668MOL0     H90178   3.896   0.515   7.845  1.2871 -0.7593 -2.5162
  668MOL0     H90179   3.721   0.542   7.847  0.6140  3.3276  1.7951
  668MOL0     H90180   3.811   0.563   7.695 -2.1856  1.0114 -1.2841
  669MOL0     O90181  10.573   7.024   3.669 -0.1288  0.0593 -0.2004
  669MOL0     C90182  10.513   6.996   3.564  0.3496  0.2745 -0.7670
  669MOL0     O90183  10.547   7.049   3.441  0.1059  0.1224  0.7761
  669MOL0     C90184  10.643   7.148   3.434 -0.2382  0.2062  0.3378
  669MOL0     C90185  10.615   7.273   3.488 -0.2069  0.2748  0.8894
  669MOL0     C90186  10.712   7.368   3.476  0.1204  1.1809  0.7809
  669MOL0     C90187  10.838   7.340   3.429  0.3471 -1.1569  1.1452
  669MOL0     O90188  10.918   7.450   3.427  0.1236 -0.2305  0.2641
  669MOL0     C90189  11.033   7.446   3.514 -0.1032 -0.4348  0.8196
  669MOL0     C90190  11.046   7.570   3.611 -0.2501  0.1425 -0.0966
  669MOL0     C90191  11.181   7.565   3.685 -0.2891  0.1116 -0.1596
  669MOL0     C90192  11.184   7.680   3.787  0.1344  0.3098 -0.2853
  669MOL0     C90193  11.305   7.671   3.881  0.1940  0.3178  0.1934
  669MOL0     C90194  11.315   7.799   3.971 -0.5455  0.3536  0.4398
  669MOL0     C90195  11.455   7.800   4.038 -0.1041  0.2707  0.0612
  669MOL0     C90196  11.466   7.918   4.136 -0.1108 -0.0019  0.2807
  669MOL0     N90197  11.410   7.891   4.268 -0.1077 -0.2125 -0.2981
  669MOL0     C90198  11.487   7.837   4.364 -0.2303 -0.2107 -0.3364
  669MOL0     C90199  11.388   7.804   4.451 -0.0504 -0.2058 -0.3469
  669MOL0     C90200  11.415   7.727   4.573 -0.2818  0.2773  0.5202
  669MOL0     C90201  11.462   7.584   4.533  0.2215 -0.2211  0.8739
  669MOL0     C90202  11.455   7.498   4.661  0.1983  0.6515 -0.1779
  669MOL0     C90203  11.464   7.344   4.635  0.6436  0.0618 -0.3562
  669MOL0     O90204  11.603   7.326   4.596  0.6257 -0.2760  0.2366
  669MOL0     C90205  11.639   7.192   4.572  0.2451  0.3776  0.6965
  669MOL0     C90206  11.555   7.075   4.588  0.4401 -0.3942  0.0063
  669MOL0     C90207  11.615   6.951   4.589  0.3219 -0.1581  0.3080
  669MOL0     C90208  11.749   6.937   4.557  0.3181 -0.0073 -0.0932
  669MOL0     C90209  11.799   6.795   4.546 -1.0255  0.1655  0.2950
  669MOL0     O90210  11.931   6.766   4.569  0.5032  0.1063 -0.7825
  669MOL0     C90211  11.985   6.638   4.563  0.0437 -0.6993 -0.9335
  669MOL0     C90212  11.942   6.549   4.657 -0.1867  0.8736 -0.3291
  669MOL0     C90213  11.991   6.418   4.644  0.1937  0.1956  0.5925
  669MOL0     C90214  12.077   6.380   4.541 -0.4620  0.6062 -0.3214
  669MOL0     O90215  12.117   6.247   4.535 -0.3804 -0.0166 -0.7648
  669MOL0     C90216  12.201   6.192   4.434  0.1002  0.5939  1.4477
  669MOL0     C90217  12.348   6.234   4.454 -0.1472  0.2960  0.2135
  669MOL0     C90218  12.441   6.142   4.375 -0.1617 -0.1768  0.6583
  669MOL0     C90219  12.561   6.235   4.339  0.5373  0.5318  0.0019
  669MOL0     C90220  12.662   6.147   4.264 -0.1318  0.5332  0.0688
  669MOL0     C90221  12.777   6.208   4.187 -1.0119 -0.3570 -0.5791
  669MOL0     C90222  12.746   6.222   4.035  0.1236  0.4138  0.5397
  669MOL0     C90223  12.848   6.324   3.967 -0.6856 -0.3787 -0.3827
  669MOL0    Cl90224  12.788   6.485   4.019  0.0809  0.3518 -0.2451
  669MOL0     C90225  12.119   6.472   4.447  0.1253 -1.0819  0.0356
  669MOL0     C90226  12.069   6.599   4.457  0.0510  0.2348 -0.2646
  669MOL0     O90227  11.719   6.709   4.499  0.4266 -0.4331  0.2003
  669MOL0     C90228  11.836   7.040   4.540  0.1981 -1.0282 -0.2403
  669MOL0     C90229  11.781   7.169   4.538  1.1241  0.2794 -1.1378
  669MOL0     N90230  11.263   7.849   4.422  0.2325  0.1232  0.8736
  669MOL0     N90231  11.276   7.909   4.305  0.1979  0.0705  0.1401
  669MOL0     C90232  10.869   7.214   3.388 -0.6392 -0.0980  0.6956
  669MOL0     C90233  10.773   7.115   3.398 -0.0697  0.8675 -0.1277
  669MOL0     C90234  10.394   6.889   3.571  0.6577 -0.5507  0.1261
  669MOL0     C90235  10.323   6.876   3.454 -0.0768  0.9032  1.0497
  669MOL0     C90236  10.211   6.789   3.448 -0.7856  0.3604 -0.0212
  669MOL0     C90237  10.170   6.722   3.563  0.0805 -0.2229  0.3756
  669MOL0     O90238  10.058   6.633   3.562 -0.3212 -0.3379 -0.2230
  669MOL0     C90239   9.935   6.682   3.606 -0.4103  0.7949 -0.4415
  669MOL0     C90240   9.870   6.759   3.487  0.2188 -0.2331  0.3625
  669MOL0     C90241   9.743   6.836   3.542  0.1159  0.7140 -0.5003
  669MOL0     C90242   9.688   6.917   3.424  0.2313 -0.5300  0.6035
  669MOL0     C90243   9.568   6.995   3.470  0.0020  0.2826 -0.6288
  669MOL0     C90244   9.473   7.064   3.519  0.9505  0.3186 -0.2896
  669MOL0     C90245  10.248   6.732   3.683  0.4784  1.3930 -0.3031
  669MOL0     C90246  10.366   6.814   3.687  0.5661  0.1820 -0.4250
  669MOL0     C90247  10.449   6.813   3.813  0.5378 -0.6403 -0.2842
  669MOL0     H90248  10.524   7.301   3.540  0.1216  0.9172  1.1396
  669MOL0     H90249  10.688   7.469   3.509 -0.5393  1.6939 -1.1487
  669MOL0     H90250  11.037   7.359   3.580 -0.2121 -0.2350  1.0912
  669MOL0     H90251  11.118   7.444   3.444 -1.3165  0.1996 -0.7381
  669MOL0     H90252  10.959   7.558   3.676 -1.7474  2.3950 -1.5332
  669MOL0     H90253  11.023   7.666   3.563 -1.5418  0.1140  0.4165
  669MOL0     H90254  11.261   7.578   3.612 -0.1639 -1.1725 -0.2674
  669MOL0     H90255  11.182   7.470   3.740 -1.3542  0.4838  0.5253
  669MOL0     H90256  11.193   7.777   3.738 -0.0195  0.2856 -0.3630
  669MOL0     H90257  11.098   7.683   3.855  0.7833 -1.8556  0.7381
  669MOL0     H90258  11.288   7.589   3.951 -0.0444  2.8177  3.2564
  669MOL0     H90259  11.394   7.650   3.821  1.4013  1.2598  1.5937
  669MOL0     H90260  11.314   7.890   3.911  2.4889 -0.7902 -1.6467
  669MOL0     H90261  11.233   7.811   4.042  0.5372  2.0336  1.4763
  669MOL0     H90262  11.533   7.819   3.963  1.7241 -0.2358  1.7338
  669MOL0     H90263  11.483   7.701   4.076  3.2448 -0.0288 -2.6332
  669MOL0     H90264  11.566   7.962   4.136 -1.1674  2.5616  0.6159
  669MOL0     H90265  11.403   7.993   4.088 -0.2534 -1.1213 -1.3553
  669MOL0     H90266  11.591   7.806   4.362  0.6070  2.3300  0.2987
  669MOL0     H90267  11.485   7.778   4.640 -0.2050 -1.5452  1.9280
  669MOL0     H90268  11.322   7.721   4.629 -1.5005  2.7773 -1.0769
  669MOL0     H90269  11.381   7.528   4.485  1.2943 -3.2938  2.4142
  669MOL0     H90270  11.554   7.568   4.476  0.7312  0.6413  1.4189
  669MOL0     H90271  11.363   7.514   4.718 -0.7468 -0.2053 -1.4169
  669MOL0     H90272  11.531   7.534   4.731  0.1985  0.7836 -0.2464
  669MOL0     H90273  11.389   7.326   4.558 -1.0869  4.1136  0.1002
  669MOL0     H90274  11.439   7.297   4.730 -1.4424  0.1089 -0.8445
  669MOL0     H90275  11.447   7.080   4.585  0.4519  0.5800 -3.6684
  669MOL0     H90276  11.552   6.863   4.601  0.0653  0.0736  0.6315
  669MOL0     H90277  11.869   6.564   4.736  0.2802 -2.0355  0.7619
  669MOL0     H90278  11.948   6.355   4.722 -0.8628  1.1329  0.7909
  669MOL0     H90279  12.192   6.083   4.421  0.0730  0.8264 -0.7903
  669MOL0     H90280  12.174   6.233   4.337  1.8587 -0.2948  0.5177
  669MOL0     H90281  12.356   6.341   4.435  2.3955  0.3190  1.0503
  669MOL0     H90282  12.382   6.209   4.555  1.6243  0.7000 -0.2541
  669MOL0     H90283  12.468   6.054   4.435 -1.4527 -0.4963  0.7894
  669MOL0     H90284  12.388   6.120   4.283  0.7151 -0.0514  0.1065
  669MOL0     H90285  12.611   6.297   4.414  2.1807  1.0632 -1.4484
  669MOL0     H90286  12.536   6.307   4.261  2.0165  0.1363 -0.8960
  669MOL0     H90287  12.601   6.089   4.194 -2.6785  0.3814  2.2638
  669MOL0     H90288  12.708   6.086   4.343 -1.8487 -0.2827  0.4826
  669MOL0     H90289  12.796   6.306   4.231 -0.1626 -1.4584  1.6647
  669MOL0     H90290  12.867   6.150   4.208 -0.5950  0.8759  1.3055
  669MOL0     H90291  12.645   6.253   4.010 -0.1664 -2.8993 -3.3026
  669MOL0     H90292  12.757   6.123   3.989  0.7407  0.2707  0.9687
  669MOL0     H90293  12.951   6.316   4.002  0.0836 -3.3606 -2.8983
  669MOL0     H90294  12.846   6.321   3.858 -0.6487 -1.2095 -0.3731
  669MOL0     H90295  12.173   6.438   4.359 -0.0623 -0.3906 -0.3565
  669MOL0     H90296  12.101   6.681   4.394  1.3924 -0.7479 -0.8992
  669MOL0     H90297  11.938   7.017   4.510  0.8022  0.8496  0.2398
  669MOL0     H90298  11.845   7.248   4.500  3.3926 -1.7755 -1.8952
  669MOL0     H90299  10.963   7.187   3.342  0.4367 -0.5032  3.0247
  669MOL0     H90300  10.790   7.010   3.378 -0.6799  1.0357 -1.6365
  669MOL0     H90301  10.358   6.923   3.363  1.5988 -2.6870 -0.3841
  669MOL0     H90302  10.158   6.780   3.354  1.4536 -1.7581 -1.1927
  669MOL0     H90303   9.938   6.751   3.691  1.4102 -0.2452  0.3975
  669MOL0     H90304   9.876   6.592   3.628  0.9764 -0.5297 -1.8947
  669MOL0     H90305   9.841   6.684   3.412  0.4392  2.6158 -2.8539
  669MOL0     H90306   9.940   6.822   3.431 -0.9177 -0.0869 -0.9575
  669MOL0     H90307   9.775   6.900   3.624  2.5920  1.4525 -1.9231
  669MOL0     H90308   9.674   6.759   3.577  1.4047 -0.1722  0.1145
  669MOL0     H90309   9.762   6.988   3.386 -0.6567  0.0570 -0.0759
  669MOL0     H90310   9.651   6.856   3.340 -0.8525 -3.1691  2.8436
  669MOL0     H90311   9.392   7.133   3.529 -0.4678 -1.3164 -0.0698
  669MOL0     H90312  10.226   6.668   3.768  2.6201 -2.2927 -2.2557
  669MOL0     H90313  10.549   6.770   3.808  1.2678  0.8552  0.5434
  669MOL0     H90314  10.459   6.917   3.845  1.6463 -0.7542 -0.2029
  669MOL0     H90315  10.400   6.756   3.893  3.1449  3.0122  4.4706
  670MOL0     O90316  11.374   0.737   6.077  0.4369  0.1467  0.5276
  670MOL0     C90317  11.349   0.651   6.164  0.4025  0.4868 -0.3534
  670MOL0     O90318  11.435   0.608   6.259  0.2797  0.3834 -0.4162
  670MOL0     C90319  11.560   0.653   6.274 -0.4464 -0.2959  0.0548
  670MOL0     C90320  11.615   0.784   6.239 -0.1508  0.2007  0.1971
  670MOL0     C90321  11.745   0.824   6.272  0.2025 -0.3324  0.3367
  670MOL0     C90322  11.828   0.727   6.343  0.3673  0.8904  0.3325
  670MOL0     O90323  11.954   0.767   6.377  0.8176 -0.1764  0.2807
  670MOL0     C90324  12.043   0.666   6.420 -0.5724  0.3304 -0.6437
  670MOL0     C90325  12.179   0.718   6.461 -0.4912 -0.0318 -0.4570
  670MOL0     C90326  12.274   0.607   6.506  0.6042  0.4679  0.1204
  670MOL0     C90327  12.421   0.658   6.481  0.9948 -0.6580  0.2496
  670MOL0     C90328  12.530   0.560   6.499 -0.5919 -0.4943 -0.5479
  670MOL0     C90329  12.548   0.499   6.639  0.0595 -0.4366 -0.4659
  670MOL0     C90330  12.685   0.440   6.648  0.8131  0.6473  0.4258
  670MOL0     C90331  12.706   0.390   6.799  0.5135 -0.2615  0.3982
  670MOL0     N90332  12.618   0.285   6.842 -0.2563  0.9979 -0.3150
  670MOL0     C90333  12.621   0.155   6.787 -0.6441 -0.0287 -2.0326
  670MOL0     C90334  12.523   0.093   6.862 -0.4035  0.0149  0.0034
  670MOL0     C90335  12.483  -0.054   6.845 -0.3178 -0.3002  0.4373
  670MOL0     C90336  12.402  -0.072   6.714 -0.4039 -0.0199 -0.6498
  670MOL0     C90337  12.349  -0.220   6.712 -0.3294 -0.2469 -0.2559
  670MOL0     C90338  12.264  -0.266   6.595 -0.3097 -0.0927 -0.0270
  670MOL0     O90339  12.347  -0.246   6.482 -0.0798  0.0211  0.6236
  670MOL0     C90340  12.323  -0.327   6.374 -0.3327 -0.1036 -0.7686
  670MOL0     C90341  12.432  -0.397   6.316  0.0230  0.3726 -0.5754
  670MOL0     C90342  12.404  -0.477   6.210 -1.2651 -0.9457 -0.0206
  670MOL0     C90343  12.274  -0.491   6.153 -0.6330 -0.0393  0.1551
  670MOL0     C90344  12.244  -0.592   6.045 -0.4059 -0.5794 -0.4574
  670MOL0     O90345  12.112  -0.612   6.010 -0.0371 -1.1803 -0.1311
  670MOL0     C90346  12.087  -0.673   5.889 -0.4748  0.2541 -0.2602
  670MOL0     C90347  12.130  -0.625   5.757  0.2463  0.1863 -0.4027
  670MOL0     C90348  12.105  -0.698   5.636  0.0680 -0.5437  0.6702
  670MOL0     C90349  12.044  -0.825   5.643  0.1539 -1.4913  0.2568
  670MOL0     O90350  12.011  -0.897   5.530  0.3854 -0.6235 -0.6637
  670MOL0     C90351  12.056  -0.830   5.410  0.3455  0.2836 -0.5425
  670MOL0     C90352  12.014  -0.912   5.283 -0.6291 -1.3445 -0.2913
  670MOL0     C90353  12.081  -0.845   5.161 -0.7460  0.8048 -0.8380
  670MOL0     C90354  12.012  -0.903   5.036  0.3122  0.6656 -0.4522
  670MOL0     C90355  12.079  -0.861   4.906 -0.5442 -0.1082  0.0395
  670MOL0     C90356  11.981  -0.868   4.790  0.4767 -0.5212  0.4906
  670MOL0     C90357  12.043  -0.817   4.658  0.0389  0.0985  0.1321
  670MOL0     C90358  11.953  -0.858   4.546 -0.1571 -0.4931 -0.6313
  670MOL0    Cl90359  11.794  -0.825   4.575 -0.2441  0.7389 -0.1799
  670MOL0     C90360  12.011  -0.868   5.771 -0.7137  0.6083  0.2422
  670MOL0     C90361  12.031  -0.796   5.890 -0.1552  0.1473 -0.7930
  670MOL0     O90362  12.350  -0.634   5.989  0.8407 -0.0336  0.4377
  670MOL0     C90363  12.167  -0.424   6.215 -0.0520 -0.3773 -1.2786
  670MOL0     C90364  12.188  -0.342   6.325  0.2483  0.6945 -0.2755
  670MOL0     N90365  12.456   0.180   6.950 -0.4853 -1.1116 -0.1275
  670MOL0     N90366  12.513   0.300   6.934 -0.1181 -0.8238  0.7898
  670MOL0     C90367  11.775   0.601   6.358 -0.7841 -1.3590 -1.2086
  670MOL0     C90368  11.648   0.561   6.323  0.3700  0.1347 -0.2933
  670MOL0     C90369  11.221   0.578   6.149 -0.6236  0.1645 -0.2041
  670MOL0     C90370  11.166   0.562   6.018  0.2250 -0.9046 -0.3663
  670MOL0     C90371  11.039   0.500   5.993 -1.2352 -0.6550 -0.1352
  670MOL0     C90372  10.961   0.470   6.101 -0.6762  0.3886  0.3154
  670MOL0     O90373  10.829   0.430   6.095  0.1567 -0.6936  0.3086
  670MOL0     C90374  10.775   0.405   5.968  1.0837  0.9885 -0.1006
  670MOL0     C90375  10.659   0.312   5.972 -0.2227 -0.3418 -0.5534
  670MOL0     C90376  10.557   0.336   5.859 -0.0283  0.3712  0.7332
  670MOL0     C90377  10.443   0.222   5.850  0.0668  0.2828 -0.3602
  670MOL0     C90378  10.505   0.091   5.809  0.7150 -0.0589  0.2363
  670MOL0     C90379  10.557  -0.002   5.768 -0.2909  0.4012  0.5961
  670MOL0     C90380  11.019   0.475   6.231 -0.7753  1.0813 -0.0542
  670MOL0     C90381  11.144   0.535   6.263 -0.1753  0.8473  0.5182
  670MOL0     C90382  11.190   0.525   6.402 -0.1569  0.9136  0.4789
  670MOL0     H90383  11.533   0.845   6.203 -1.9162 -1.7308  0.7089
  670MOL0     H90384  11.791   0.920   6.252  2.2711 -1.3126  0.1494
  670MOL0     H90385  11.998   0.613   6.504  0.9355 -1.2255 -0.7642
  670MOL0     H90386  12.055   0.589   6.343 -2.2064 -1.2285  0.5740
  670MOL0     H90387  12.186   0.798   6.535  1.3139 -1.1491  0.6533
  670MOL0     H90388  12.214   0.758   6.366 -0.7824 -1.8199 -1.3719
  670MOL0     H90389  12.252   0.518   6.446  0.0276 -0.0104  1.0279
  670MOL0     H90390  12.257   0.590   6.612 -4.7072  3.9528  0.1870
  670MOL0     H90391  12.424   0.687   6.375  0.0920  0.8554  0.6091
  670MOL0     H90392  12.451   0.745   6.539  3.7099  0.3243 -2.3916
  670MOL0     H90393  12.495   0.478   6.435 -1.5749  1.5561 -2.8021
  670MOL0     H90394  12.618   0.606   6.451  0.0042  2.4181  2.9415
  670MOL0     H90395  12.539   0.580   6.712  1.6791  0.9232 -1.6973
  670MOL0     H90396  12.468   0.427   6.662  0.5523 -1.0738 -0.7328
  670MOL0     H90397  12.760   0.513   6.618  1.0561  0.0190 -0.5546
  670MOL0     H90398  12.698   0.355   6.580  2.3225 -0.0360  1.4954
  670MOL0     H90399  12.809   0.352   6.810  1.9388  2.9642 -0.6779
  670MOL0     H90400  12.709   0.477   6.865 -1.1165  0.7483 -0.7864
  670MOL0     H90401  12.679   0.110   6.707  0.7914  0.6319 -1.3885
  670MOL0     H90402  12.575  -0.113   6.840  0.1163  0.4450 -2.9211
  670MOL0     H90403  12.427  -0.089   6.932  0.2454 -1.4771  0.3471
  670MOL0     H90404  12.316  -0.005   6.708 -0.4370 -0.1315 -1.5226
  670MOL0     H90405  12.466  -0.047   6.629 -1.2476  1.0765 -0.9858
  670MOL0     H90406  12.275  -0.226   6.793  1.8722 -0.4895  1.8555
  670MOL0     H90407  12.422  -0.298   6.735  0.8628  0.8789 -0.1137
  670MOL0     H90408  12.174  -0.206   6.578 -2.2548 -2.8904 -0.4782
  670MOL0     H90409  12.236  -0.372   6.600 -0.7253  0.0362  0.5593
  670MOL0     H90410  12.528  -0.386   6.364 -0.8076 -0.3268  1.3634
  670MOL0     H90411  12.489  -0.543   6.191  1.4242  2.2432 -0.0208
  670MOL0     H90412  12.192  -0.536   5.750 -3.5843  3.4936  2.4812
  670MOL0     H90413  12.143  -0.654   5.544  0.7158  0.0441  1.2104
  670MOL0     H90414  12.022  -0.726   5.408 -0.3103  0.1065  0.3832
  670MOL0     H90415  12.164  -0.844   5.421  0.1066 -0.3404  1.4601
  670MOL0     H90416  12.047  -1.015   5.293  0.5363 -0.9736 -0.1862
  670MOL0     H90417  11.906  -0.917   5.266 -0.5537  0.0960 -1.3681
  670MOL0     H90418  12.080  -0.735   5.159  0.6716  0.8156 -2.0335
  670MOL0     H90419  12.188  -0.866   5.170 -0.2874  2.7080 -1.3739
  670MOL0     H90420  11.911  -0.865   5.021  0.0545 -0.2631 -1.1160
  670MOL0     H90421  11.998  -1.011   5.039 -0.4843  0.7606  1.8261
  670MOL0     H90422  12.173  -0.914   4.890 -0.0956  0.7615 -0.2158
  670MOL0     H90423  12.112  -0.758   4.919  0.6199 -0.3330 -0.9709
  670MOL0     H90424  11.953  -0.973   4.773  2.5679 -0.8884 -0.9970
  670MOL0     H90425  11.895  -0.808   4.822 -0.3197 -0.2158 -2.0070
  670MOL0     H90426  12.140  -0.867   4.651  0.2431  0.4696  0.3002
  670MOL0     H90427  12.063  -0.710   4.653  0.9081 -0.1317 -1.9558
  670MOL0     H90428  11.992  -0.811   4.455 -0.8880  2.9701  0.6800
  670MOL0     H90429  11.961  -0.966   4.529  0.6170 -0.6044  0.3387
  670MOL0     H90430  11.982  -0.971   5.789  0.5779  0.2622  0.4490
  670MOL0     H90431  11.991  -0.834   5.984  1.5180 -0.9476 -0.4536
  670MOL0     H90432  12.062  -0.431   6.188 -0.3045  0.2742 -0.5235
  670MOL0     H90433  12.113  -0.268   6.352  2.6126  4.7061 -3.4059
  670MOL0     H90434  11.832   0.533   6.421  1.1054 -1.2676 -2.7400
  670MOL0     H90435  11.612   0.459   6.334  3.0032 -1.5004 -4.4075
  670MOL0     H90436  11.234   0.584   5.937  3.1586 -1.5934  1.7513
  670MOL0     H90437  11.008   0.502   5.889 -1.7226 -0.0925  0.0147
  670MOL0     H90438  10.836   0.370   5.884 -0.3554  0.5341 -0.9946
  670MOL0     H90439  10.736   0.503   5.940 -0.2350 -0.1070 -2.4448
  670MOL0     H90440  10.612   0.321   6.071 -3.1687  0.2627 -1.8937
  670MOL0     H90441  10.698   0.210   5.968  1.1060 -0.1123  3.0086
  670MOL0     H90442  10.602   0.344   5.760 -0.8092  0.3122  0.3718
  670MOL0     H90443  10.512   0.434   5.877 -1.8635 -0.3936  0.4699
  670MOL0     H90444  10.393   0.220   5.947 -2.5513  1.2764 -1.6027
  670MOL0     H90445  10.374   0.249   5.770 -0.1591  0.1121 -0.2243
  670MOL0     H90446  10.600  -0.086   5.716 -1.5577  0.5962 -0.8384
  670MOL0     H90447  10.965   0.414   6.303  0.3177 -1.7725 -1.4553
  670MOL0     H90448  11.260   0.607   6.422  1.0735 -0.0157  0.1359
  670MOL0     H90449  11.112   0.523   6.479  0.1553 -1.5677  0.8152
  670MOL0     H90450  11.243   0.430   6.416 -1.4385  0.2384  0.9252
  671MOL0     O90451   4.065   7.321   3.514 -0.1313 -0.0521 -0.4109
  671MOL0     C90452   3.974   7.405   3.525  0.3763 -0.0571 -0.3682
  671MOL0     O90453   3.843   7.378   3.498  0.5379  0.6135  0.2445
  671MOL0     C90454   3.806   7.268   3.423  0.7094 -0.4706 -0.4716
  671MOL0     C90455   3.716   7.293   3.311  0.2673 -0.3512 -0.2158
  671MOL0     C90456   3.666   7.181   3.239 -0.8570  0.5810 -0.0159
  671MOL0     C90457   3.683   7.057   3.299  0.4197  0.7514  0.5871
  671MOL0     O90458   3.620   6.953   3.226 -0.6024 -0.5406 -0.0064
  671MOL0     C90459   3.710   6.890   3.134 -0.6029  0.8597  0.8280
  671MOL0     C90460   3.651   6.777   3.050  1.3755 -0.3428 -0.1272
  671MOL0     C90461   3.743   6.726   2.943 -0.0827  0.2005  0.2473
  671MOL0     C90462   3.678   6.626   2.846 -0.1484 -0.8084 -0.2436
  671MOL0     C90463   3.782   6.594   2.733  0.9088  0.0148 -0.2475
  671MOL0     C90464   3.896   6.507   2.786  0.8838 -0.3541 -0.0184
  671MOL0     C90465   3.863   6.395   2.884  1.2380  1.5548  0.0064
  671MOL0     C90466   3.988   6.314   2.922  0.0978 -0.0076  0.2696
  671MOL0     N90467   4.031   6.240   2.808 -0.1141 -0.1454  0.1640
  671MOL0     C90468   3.953   6.136   2.775  0.0612 -0.3984 -1.7913
  671MOL0     C90469   4.037   6.060   2.697  0.2122  0.1429  0.8186
  671MOL0     C90470   4.018   5.928   2.626  0.4823  0.5778 -0.2177
  671MOL0     C90471   3.960   5.815   2.709 -0.2167 -0.9396  1.1634
  671MOL0     C90472   3.985   5.682   2.645 -0.3067  0.1609  0.2018
  671MOL0     C90473   3.916   5.653   2.510  0.5915  0.6020 -0.0428
  671MOL0     O90474   3.773   5.672   2.521 -0.1454 -0.6537  0.5905
  671MOL0     C90475   3.687   5.640   2.410 -0.2892  0.5194  0.2492
  671MOL0     C90476   3.561   5.700   2.410  0.2854 -0.5632  0.6856
  671MOL0     C90477   3.463   5.667   2.310 -0.8783  0.1990  0.0792
  671MOL0     C90478   3.495   5.583   2.204  0.1868  0.2391  0.4151
  671MOL0     C90479   3.396   5.541   2.108 -0.2718 -0.7104 -0.6065
  671MOL0     O90480   3.447   5.469   2.006  0.5910 -0.2208 -0.2554
  671MOL0     C90481   3.348   5.407   1.928  0.3958  1.0390 -0.8387
  671MOL0     C90482   3.277   5.291   1.971  0.5272  0.2738 -0.3497
  671MOL0     C90483   3.194   5.224   1.881  0.1535 -0.5167 -0.2043
  671MOL0     C90484   3.180   5.271   1.745 -0.7584  0.2220 -0.7287
  671MOL0     O90485   3.123   5.183   1.653  0.0462 -0.4348  0.3762
  671MOL0     C90486   2.983   5.152   1.666 -0.1739 -0.4877  0.3760
  671MOL0     C90487   2.921   5.179   1.523 -0.6722  0.2170 -0.4812
  671MOL0     C90488   2.785   5.115   1.518  0.6803 -0.1409  0.3814
  671MOL0     C90489   2.718   5.135   1.382 -0.8470  0.7068  0.4501
  671MOL0     C90490   2.611   5.018   1.379 -1.0003  0.7536  0.3132
  671MOL0     C90491   2.522   5.036   1.248 -0.8250 -0.0541  0.5286
  671MOL0     C90492   2.394   4.951   1.269  0.5258 -0.3858  0.4300
  671MOL0     C90493   2.290   4.951   1.154  0.1949  0.0566 -0.3354
  671MOL0    Cl90494   2.326   4.820   1.037  0.0491  0.2579  0.0039
  671MOL0     C90495   3.263   5.374   1.704 -0.7990 -0.1757  0.0879
  671MOL0     C90496   3.341   5.448   1.791 -0.3190 -0.2782  0.9843
  671MOL0     O90497   3.277   5.558   2.135 -0.0577 -0.2588 -0.3684
  671MOL0     C90498   3.627   5.536   2.197 -0.0367 -0.3271  0.1241
  671MOL0     C90499   3.720   5.568   2.296  0.6440  0.2867 -0.2615
  671MOL0     N90500   4.156   6.134   2.689  0.8648 -0.2180  0.4051
  671MOL0     N90501   4.152   6.235   2.756 -0.5605 -1.1225  0.9510
  671MOL0     C90502   3.765   7.036   3.412 -1.3649 -1.2038 -0.1672
  671MOL0     C90503   3.832   7.143   3.470  0.0453  0.5821 -0.3078
  671MOL0     C90504   4.015   7.542   3.568 -0.3112  0.8162  0.6189
  671MOL0     C90505   3.931   7.608   3.659  0.9103 -0.0519  0.0023
  671MOL0     C90506   3.964   7.728   3.717 -0.6945  0.1542  0.7432
  671MOL0     C90507   4.080   7.793   3.685 -0.4101  0.2965 -0.4756
  671MOL0     O90508   4.092   7.922   3.733 -0.3550 -0.4514 -0.4272
  671MOL0     C90509   4.228   7.960   3.763  0.7028  0.4562 -0.7461
  671MOL0     C90510   4.239   7.945   3.918  0.5802  0.3846  0.0488
  671MOL0     C90511   4.184   8.080   3.968 -0.2560  0.2442 -0.1862
  671MOL0     C90512   4.218   8.085   4.120 -0.3421  0.0576 -0.1874
  671MOL0     C90513   4.112   8.130   4.200  0.7156 -0.0105 -0.1592
  671MOL0     C90514   4.004   8.170   4.241  0.5422 -0.0605  0.0578
  671MOL0     C90515   4.167   7.735   3.590 -0.5352 -0.6918 -0.3638
  671MOL0     C90516   4.143   7.608   3.538  0.1008  0.4572 -0.0519
  671MOL0     C90517   4.252   7.543   3.450 -0.3855  1.0330 -0.3376
  671MOL0     H90518   3.702   7.397   3.282  1.4221 -0.0393  0.3128
  671MOL0     H90519   3.598   7.172   3.155 -0.6383 -3.7527  0.0256
  671MOL0     H90520   3.737   6.965   3.060  3.6911 -1.7079 -0.5351
  671MOL0     H90521   3.799   6.850   3.183  0.6558 -0.7721 -2.4928
  671MOL0     H90522   3.560   6.817   3.003  1.1227 -0.4002  0.3071
  671MOL0     H90523   3.630   6.692   3.115 -0.6704 -0.2001 -0.5297
  671MOL0     H90524   3.826   6.672   2.990 -1.3117 -3.2127 -1.2096
  671MOL0     H90525   3.783   6.812   2.887  0.3215 -0.7193 -0.9074
  671MOL0     H90526   3.648   6.536   2.900 -0.8657 -1.1484 -1.1739
  671MOL0     H90527   3.589   6.676   2.807  0.2628 -0.1265 -0.3092
  671MOL0     H90528   3.737   6.526   2.660 -1.0430  2.1003 -1.1094
  671MOL0     H90529   3.834   6.676   2.682  0.3347 -0.0298 -0.9173
  671MOL0     H90530   3.945   6.459   2.701  0.9715 -0.3522  0.0308
  671MOL0     H90531   3.965   6.575   2.837  1.8993  1.0956 -3.1036
  671MOL0     H90532   3.788   6.330   2.840  2.4257  0.7046 -0.8224
  671MOL0     H90533   3.818   6.438   2.974  1.3385 -0.2687  0.9838
  671MOL0     H90534   4.062   6.384   2.963 -0.8525  0.0700  1.9130
  671MOL0     H90535   3.974   6.241   3.002 -0.8084  2.1548  2.1857
  671MOL0     H90536   3.857   6.105   2.815  0.9997  0.2026  1.1281
  671MOL0     H90537   3.943   5.950   2.548  0.5712  1.9798  0.0736
  671MOL0     H90538   4.107   5.887   2.578 -1.1696  0.1998 -3.2196
  671MOL0     H90539   4.006   5.818   2.808  1.1484  2.0657  0.5529
  671MOL0     H90540   3.852   5.830   2.701  0.0479  0.9765  0.6750
  671MOL0     H90541   3.938   5.602   2.704 -0.0611 -1.7206 -2.0179
  671MOL0     H90542   4.093   5.669   2.639  0.1209  2.5093  1.6366
  671MOL0     H90543   3.949   5.552   2.480  0.2522 -0.3735  2.6225
  671MOL0     H90544   3.963   5.719   2.437 -0.0329  1.7455  0.5622
  671MOL0     H90545   3.536   5.756   2.500 -3.0352 -0.1985 -0.3400
  671MOL0     H90546   3.359   5.698   2.307 -1.2897 -0.9363  1.5091
  671MOL0     H90547   3.293   5.236   2.063  1.4257 -0.8989 -1.1687
  671MOL0     H90548   3.137   5.134   1.901  0.8636 -1.3169 -1.6223
  671MOL0     H90549   2.970   5.046   1.686  0.7958 -1.5771 -3.8436
  671MOL0     H90550   2.943   5.223   1.740 -1.7456 -1.3500  0.3938
  671MOL0     H90551   2.927   5.285   1.499  2.1809 -0.0564 -1.3944
  671MOL0     H90552   2.995   5.130   1.459  0.1878 -0.2014  0.7918
  671MOL0     H90553   2.791   5.008   1.540  2.7834  0.4404  3.3959
  671MOL0     H90554   2.733   5.177   1.592 -0.1458  1.0299 -1.1361
  671MOL0     H90555   2.791   5.143   1.301 -0.2723  1.7179  1.0583
  671MOL0     H90556   2.663   5.229   1.370  0.1322  1.2622  0.2184
  671MOL0     H90557   2.554   5.028   1.472  0.7559  0.6426  1.4489
  671MOL0     H90558   2.659   4.919   1.382 -0.5741  0.8133 -2.4652
  671MOL0     H90559   2.495   5.142   1.238  1.0356  0.3515 -0.6579
  671MOL0     H90560   2.566   5.009   1.152 -2.0082  0.3505 -0.1580
  671MOL0     H90561   2.344   4.999   1.354 -2.5720  1.7297 -2.3308
  671MOL0     H90562   2.421   4.848   1.293  0.0396 -1.0979 -1.8295
  671MOL0     H90563   2.186   4.954   1.187 -0.0087  3.3019 -0.9141
  671MOL0     H90564   2.299   5.043   1.096 -2.1004  1.3386  1.1918
  671MOL0     H90565   3.266   5.392   1.597  4.0027 -0.0257  0.0265
  671MOL0     H90566   3.388   5.536   1.749  0.3662  0.5538  3.3131
  671MOL0     H90567   3.641   5.472   2.110 -0.2840 -1.7332  1.0851
  671MOL0     H90568   3.821   5.531   2.281 -0.1968 -1.9266 -0.8748
  671MOL0     H90569   3.790   6.941   3.458  1.1163  0.3785  2.0374
  671MOL0     H90570   3.911   7.128   3.544  0.9164  1.3248 -1.0673
  671MOL0     H90571   3.832   7.565   3.675  1.1429 -0.3132  0.8021
  671MOL0     H90572   3.897   7.774   3.789 -3.4986 -1.9129 -0.3273
  671MOL0     H90573   4.248   8.063   3.735  1.7836  0.3094 -0.5597
  671MOL0     H90574   4.312   7.907   3.718 -0.2308 -3.3979  1.5505
  671MOL0     H90575   4.337   7.925   3.963 -0.7332 -1.5885  2.2865
  671MOL0     H90576   4.173   7.866   3.956 -1.7016  2.3571  0.5019
  671MOL0     H90577   4.077   8.089   3.947 -0.7253 -2.5625  0.5572
  671MOL0     H90578   4.245   8.163   3.931 -0.4873  1.7029  2.4246
  671MOL0     H90579   4.252   7.990   4.163 -2.2961 -1.3205 -1.5242
  671MOL0     H90580   4.302   8.155   4.124  2.2876 -2.7443 -1.7119
  671MOL0     H90581   3.920   8.212   4.292  0.5057 -0.4987  0.3639
  671MOL0     H90582   4.260   7.783   3.561  0.6560 -4.3460 -3.4393
  671MOL0     H90583   4.336   7.614   3.456 -1.0733  1.8011  0.4356
  671MOL0     H90584   4.285   7.449   3.495 -1.6398  1.2298  1.0486
  671MOL0     H90585   4.228   7.517   3.347  0.7270  1.6882 -0.7850
  672MOL0     O90586   5.617   6.541   8.231 -0.1903  0.5038  0.5629
  672MOL0     C90587   5.570   6.631   8.164 -0.8179  0.7670  0.5074
  672MOL0     O90588   5.626   6.762   8.156  0.1642  0.0290  0.7221
  672MOL0     C90589   5.701   6.814   8.255 -0.4677 -0.0611 -0.7662
  672MOL0     C90590   5.663   6.792   8.397  0.9607  0.6318 -0.4553
  672MOL0     C90591   5.733   6.855   8.495 -1.0583  0.7303  0.3522
  672MOL0     C90592   5.835   6.941   8.466  0.6438 -0.5246 -0.5418
  672MOL0     O90593   5.916   7.005   8.562  0.1354  0.1157 -0.1684
  672MOL0     C90594   5.862   7.006   8.703 -0.9552 -0.5112  0.2786
  672MOL0     C90595   5.939   7.106   8.806 -0.9969 -0.2625  0.0256
  672MOL0     C90596   6.095   7.094   8.811 -0.2031  0.9369  0.6181
  672MOL0     C90597   6.139   6.951   8.844  0.2973  0.2204 -0.4720
  672MOL0     C90598   6.258   6.957   8.949 -0.4551  0.5984 -0.0174
  672MOL0     C90599   6.329   6.816   8.961 -0.1214  0.0464  0.6339
  672MOL0     C90600   6.437   6.814   9.061 -0.5010 -0.1887 -0.1795
  672MOL0     C90601   6.536   6.701   9.048  0.3863  0.5605  0.9493
  672MOL0     N90602   6.461   6.574   9.018 -0.6418  0.8686 -0.1863
  672MOL0     C90603   6.486   6.496   8.911 -0.2511 -0.2397  0.1993
  672MOL0     C90604   6.421   6.378   8.943 -0.9195  0.0486  0.0298
  672MOL0     C90605   6.419   6.265   8.846  0.3521  0.2478  0.6767
  672MOL0     C90606   6.542   6.246   8.763 -0.1461  0.0333  0.5459
  672MOL0     C90607   6.665   6.215   8.847  0.4405  0.1765 -0.6000
  672MOL0     C90608   6.781   6.182   8.754 -0.3100  0.3368 -0.7973
  672MOL0     O90609   6.887   6.116   8.829 -0.2720 -0.8733  0.0626
  672MOL0     C90610   6.998   6.083   8.756 -0.0676 -0.0697  0.7783
  672MOL0     C90611   7.005   5.963   8.677  0.3213  0.3208 -0.5103
  672MOL0     C90612   7.109   5.940   8.593 -0.2068 -0.2501  0.5755
  672MOL0     C90613   7.209   6.030   8.575 -0.0268  0.1743 -0.5743
  672MOL0     C90614   7.328   6.005   8.485 -0.0044 -0.3655 -1.4155
  672MOL0     O90615   7.342   5.877   8.460 -0.2657  0.2064 -0.3893
  672MOL0     C90616   7.471   5.839   8.433 -0.2799  0.8986  0.7250
  672MOL0     C90617   7.558   5.842   8.541  1.0361  0.8820 -0.8619
  672MOL0     C90618   7.695   5.836   8.526 -0.3999  0.3011 -0.6498
  672MOL0     C90619   7.749   5.805   8.396  0.6151 -0.1637  0.8033
  672MOL0     O90620   7.884   5.783   8.374  1.1096  0.6219 -0.8109
  672MOL0     C90621   7.945   5.718   8.261 -0.0310  0.6286 -0.6957
  672MOL0     C90622   8.088   5.679   8.312  0.2486  0.6776  0.5581
  672MOL0     C90623   8.173   5.607   8.202  0.7908  0.1174  0.2182
  672MOL0     C90624   8.282   5.521   8.268  0.0170  0.5305  0.0549
  672MOL0     C90625   8.406   5.482   8.189 -0.6638 -0.3108 -0.0034
  672MOL0     C90626   8.467   5.612   8.151 -0.3862 -0.4240  0.9045
  672MOL0     C90627   8.613   5.599   8.088 -0.8242 -0.5638  0.8003
  672MOL0     C90628   8.671   5.733   8.041  0.2050 -0.8667 -0.4050
  672MOL0    Cl90629   8.567   5.782   7.897  0.2544 -0.0898 -0.1892
  672MOL0     C90630   7.663   5.799   8.289  0.3914  0.7318  0.2978
  672MOL0     C90631   7.521   5.822   8.303 -0.4455  0.3602  0.2951
  672MOL0     O90632   7.417   6.091   8.468 -0.2439  0.2755  0.3640
  672MOL0     C90633   7.207   6.152   8.647  0.6884  0.5815  0.4015
  672MOL0     C90634   7.094   6.184   8.726  0.0240  0.7972 -0.3223
  672MOL0     N90635   6.362   6.380   9.065  0.0952 -0.7900 -0.4853
  672MOL0     N90636   6.389   6.503   9.111  0.8703 -0.2435  0.2221
  672MOL0     C90637   5.880   6.949   8.328 -0.8064 -1.1291 -0.0987
  672MOL0     C90638   5.807   6.895   8.223  0.3895  0.6873 -0.3757
  672MOL0     C90639   5.448   6.620   8.073 -0.0522  0.7134 -0.7292
  672MOL0     C90640   5.429   6.733   7.983 -0.3610  0.1686  0.2618
  672MOL0     C90641   5.310   6.742   7.905  0.0203 -0.2506  0.0184
  672MOL0     C90642   5.217   6.635   7.908 -0.7679 -0.2631 -1.0537
  672MOL0     O90643   5.099   6.621   7.843  0.4968  0.4441  0.5568
  672MOL0     C90644   5.067   6.712   7.728  0.3234 -0.2469 -0.7609
  672MOL0     C90645   4.937   6.669   7.659  0.3293  0.6849 -0.2852
  672MOL0     C90646   4.914   6.767   7.537 -0.6939  0.5975 -0.3064
  672MOL0     C90647   4.839   6.688   7.425  0.3402 -0.3125 -0.0138
  672MOL0     C90648   4.795   6.799   7.339 -1.0007 -0.5466 -0.2709
  672MOL0     C90649   4.754   6.897   7.284  0.1941  0.3668  0.1613
  672MOL0     C90650   5.244   6.519   7.979 -0.0860  0.7554  0.7371
  672MOL0     C90651   5.357   6.511   8.063  0.3272 -0.3397  0.0907
  672MOL0     C90652   5.381   6.385   8.131  0.3212 -0.4292 -0.1098
  672MOL0     H90653   5.580   6.733   8.432 -1.3719  3.4626 -0.8241
  672MOL0     H90654   5.710   6.830   8.598  2.5028  0.5350  1.2282
  672MOL0     H90655   5.762   7.050   8.704 -1.1038 -0.6629 -2.1796
  672MOL0     H90656   5.865   6.905   8.745  1.5999 -1.8946 -2.8103
  672MOL0     H90657   5.884   7.091   8.899  0.5926  2.6305  1.5447
  672MOL0     H90658   5.922   7.207   8.768  3.7012  0.2975 -1.2048
  672MOL0     H90659   6.131   7.162   8.889  1.4755 -2.7958  3.3633
  672MOL0     H90660   6.129   7.138   8.716  0.0198  0.9413  0.6986
  672MOL0     H90661   6.061   6.894   8.895  0.9689  0.2724  0.6578
  672MOL0     H90662   6.175   6.907   8.751 -0.3453  1.4490 -1.3305
  672MOL0     H90663   6.336   7.030   8.928  0.5949 -0.5995 -0.3816
  672MOL0     H90664   6.229   6.999   9.046 -0.3129 -0.4643  0.4925
  672MOL0     H90665   6.258   6.734   8.973  0.6560 -0.5421  1.3383
  672MOL0     H90666   6.367   6.807   8.859  0.7327  2.7985  0.6201
  672MOL0     H90667   6.384   6.798   9.155 -0.0669 -0.3623  0.0428
  672MOL0     H90668   6.492   6.908   9.059 -3.4800  1.6649 -1.5855
  672MOL0     H90669   6.616   6.720   8.976 -3.0413  1.8305 -2.9092
  672MOL0     H90670   6.598   6.690   9.138 -1.6770 -0.3595  2.3493
  672MOL0     H90671   6.541   6.524   8.821  0.4147 -3.8263 -0.6810
  672MOL0     H90672   6.407   6.171   8.900 -1.5099  0.7968  1.2586
  672MOL0     H90673   6.337   6.273   8.775  0.9192  1.0249  0.0932
  672MOL0     H90674   6.531   6.156   8.702  1.2465 -0.1031  0.4732
  672MOL0     H90675   6.548   6.338   8.703 -1.0623  1.0491  1.9370
  672MOL0     H90676   6.645   6.137   8.921 -0.1450  1.5735  0.7696
  672MOL0     H90677   6.687   6.307   8.902  4.1006  0.2740 -1.9468
  672MOL0     H90678   6.831   6.272   8.717  0.6924  0.0349 -0.1982
  672MOL0     H90679   6.747   6.116   8.674 -1.2972  1.4882 -1.3608
  672MOL0     H90680   6.925   5.889   8.670 -1.6531  2.1436  1.3383
  672MOL0     H90681   7.109   5.853   8.528 -0.2427  1.6135 -2.0985
  672MOL0     H90682   7.522   5.850   8.643 -0.9600  1.5160 -1.5587
  672MOL0     H90683   7.759   5.847   8.614 -1.7541  1.0708  0.2743
  672MOL0     H90684   7.893   5.631   8.218  4.2473 -1.8898 -1.4010
  672MOL0     H90685   7.961   5.788   8.179  0.1257 -1.0827 -2.2068
  672MOL0     H90686   8.131   5.756   8.377 -1.3240 -0.4277  3.0809
  672MOL0     H90687   8.058   5.602   8.383 -1.7093  1.3566  0.5413
  672MOL0     H90688   8.114   5.563   8.120  2.0806  1.6220 -1.6071
  672MOL0     H90689   8.212   5.687   8.139 -1.3004 -0.8760 -2.5788
  672MOL0     H90690   8.223   5.435   8.302  0.2375  0.7127  0.9069
  672MOL0     H90691   8.313   5.569   8.360 -0.1770  3.0672 -1.1246
  672MOL0     H90692   8.400   5.424   8.096  0.1434  2.2187 -1.7185
  672MOL0     H90693   8.476   5.435   8.258  1.0383 -0.0271 -1.4711
  672MOL0     H90694   8.403   5.649   8.071  1.8161  1.8027  0.0343
  672MOL0     H90695   8.465   5.679   8.237  1.7546 -2.3022  2.5519
  672MOL0     H90696   8.612   5.529   8.004 -0.1788 -2.8981  2.6341
  672MOL0     H90697   8.686   5.559   8.159 -0.1543 -3.5666 -1.3934
  672MOL0     H90698   8.688   5.809   8.118 -0.5959 -0.2801 -0.7944
  672MOL0     H90699   8.771   5.706   8.004  0.8968 -1.1714  1.5950
  672MOL0     H90700   7.709   5.784   8.192  2.3378 -2.4216  1.5328
  672MOL0     H90701   7.455   5.821   8.217 -0.2686 -3.9033  0.0037
  672MOL0     H90702   7.280   6.232   8.641  0.9142  0.3257 -0.3869
  672MOL0     H90703   7.094   6.268   8.794 -1.4201 -0.9522  2.0104
  672MOL0     H90704   5.963   7.013   8.299 -2.1158  1.0386  0.6655
  672MOL0     H90705   5.832   6.910   8.119 -1.9327  1.5410 -0.8565
  672MOL0     H90706   5.508   6.806   7.969 -1.8826  2.3352  2.1928
  672MOL0     H90707   5.290   6.827   7.840 -0.0727  1.1799  1.8333
  672MOL0     H90708   5.144   6.709   7.651  1.8769  2.4831  0.5755
  672MOL0     H90709   5.057   6.814   7.764 -3.1219 -1.8470  3.9045
  672MOL0     H90710   4.860   6.649   7.735  0.7970  0.1081  0.0501
  672MOL0     H90711   4.949   6.569   7.618 -1.1501 -0.4278  1.8162
  672MOL0     H90712   5.001   6.820   7.499 -0.4850  1.0751  0.8044
  672MOL0     H90713   4.853   6.849   7.577 -0.7791  1.3986 -1.9926
  672MOL0     H90714   4.895   6.601   7.390 -0.3377 -0.6992 -0.1548
  672MOL0     H90715   4.748   6.646   7.469  1.0005 -2.0478 -0.2457
  672MOL0     H90716   4.713   6.982   7.232 -1.0039 -2.2487 -3.5653
  672MOL0     H90717   5.179   6.432   7.980 -0.9189  1.2956 -1.1844
  672MOL0     H90718   5.485   6.352   8.141 -0.2331 -2.2683 -0.0480
  672MOL0     H90719   5.344   6.394   8.234 -1.5898 -0.9905 -0.7157
  672MOL0     H90720   5.330   6.301   8.083 -2.4304  1.0556  0.0225
  673MOL0     O90721   0.053  11.354   6.659  0.2669  0.1708 -0.4745
  673MOL0     C90722   0.135  11.377   6.749 -0.5853  0.0578  0.2003
  673MOL0     O90723   0.159  11.289   6.853  0.4931  0.2180  0.2643
  673MOL0     C90724   0.101  11.163   6.835  0.0948 -0.4723 -0.0436
  673MOL0     C90725   0.136  11.085   6.724  0.3353 -0.6086 -0.4146
  673MOL0     C90726   0.080  10.956   6.719 -0.8290  0.6853 -1.1897
  673MOL0     C90727  -0.014  10.909   6.818 -0.3867  0.1826 -0.3677
  673MOL0     O90728  -0.089  10.798   6.803  0.1419  0.3148 -0.2427
  673MOL0     C90729  -0.071  10.723   6.683 -0.0874 -0.3555 -0.5418
  673MOL0     C90730  -0.170  10.604   6.687  0.6475 -0.5675  0.4468
  673MOL0     C90731  -0.180  10.534   6.553 -0.3234  0.1312  0.0868
  673MOL0     C90732  -0.072  10.422   6.547 -0.2186 -0.5794  0.1900
  673MOL0     C90733  -0.073  10.349   6.409 -0.8524 -0.0802 -0.7945
  673MOL0     C90734   0.036  10.235   6.408 -1.4486  0.0915 -0.2806
  673MOL0     C90735   0.050  10.153   6.281  0.1582 -0.4709  0.5031
  673MOL0     C90736  -0.085  10.112   6.227 -0.5885 -0.3761  0.7704
  673MOL0     N90737  -0.074   9.996   6.138 -0.8125  0.3015 -0.1165
  673MOL0     C90738  -0.044  10.001   5.999  0.4525 -0.4922 -0.7682
  673MOL0     C90739  -0.036   9.875   5.957  0.5920 -0.4356 -0.3296
  673MOL0     C90740  -0.013   9.847   5.803 -0.2197  0.1107  0.3262
  673MOL0     C90741   0.138   9.845   5.774  0.5013 -0.9227 -1.3478
  673MOL0     C90742   0.163   9.876   5.623  0.7148  0.5542  0.3234
  673MOL0     C90743   0.306   9.845   5.568  0.1253 -0.1373 -0.3911
  673MOL0     O90744   0.311   9.707   5.526 -0.1205  0.0145 -0.4664
  673MOL0     C90745   0.442   9.663   5.509 -0.5991  0.1336  0.1150
  673MOL0     C90746   0.523   9.587   5.600  1.1984  0.7991 -0.0336
  673MOL0     C90747   0.661   9.564   5.585  0.2269  0.1330  0.1682
  673MOL0     C90748   0.717   9.608   5.468 -0.1920 -0.0114  0.3677
  673MOL0     C90749   0.859   9.582   5.437 -1.0869  0.3630 -1.2710
  673MOL0     O90750   0.899   9.613   5.313  0.0187  0.1862 -0.3644
  673MOL0     C90751   1.031   9.596   5.273 -0.8468  0.1647  0.6640
  673MOL0     C90752   1.140   9.669   5.333  0.6841 -0.2172 -0.2465
  673MOL0     C90753   1.271   9.643   5.285  0.3454 -0.2261  0.0946
  673MOL0     C90754   1.298   9.552   5.183  0.4443  0.0182  1.2281
  673MOL0     O90755   1.422   9.553   5.133 -0.1609  0.9870  0.2201
  673MOL0     C90756   1.440   9.502   5.003  0.5296  0.2185  0.4074
  673MOL0     C90757   1.584   9.503   4.975 -0.3792 -0.5878  0.1628
  673MOL0     C90758   1.603   9.478   4.829 -0.2233  0.7438  0.0380
  673MOL0     C90759   1.617   9.332   4.792  0.3636  0.8815 -0.6165
  673MOL0     C90760   1.608   9.316   4.645 -0.4249 -0.0377 -0.6262
  673MOL0     C90761   1.613   9.178   4.586 -0.5792  0.3187 -0.0139
  673MOL0     C90762   1.490   9.093   4.611  0.1948  0.7988  0.0603
  673MOL0     C90763   1.458   8.981   4.509 -1.1616 -0.1534  0.1122
  673MOL0    Cl90764   1.569   8.840   4.559 -0.4636 -0.2408 -0.4157
  673MOL0     C90765   1.187   9.477   5.134  0.0087 -0.3874 -0.4585
  673MOL0     C90766   1.063   9.495   5.183 -0.8981 -0.3923 -0.0595
  673MOL0     O90767   0.933   9.537   5.528 -0.1181  0.7483  0.1909
  673MOL0     C90768   0.640   9.668   5.368 -0.1916  1.1031  0.0459
  673MOL0     C90769   0.501   9.695   5.385 -0.4210 -0.1611 -0.0777
  673MOL0     N90770  -0.065   9.794   6.067 -0.2378  0.4215  0.6261
  673MOL0     N90771  -0.081   9.866   6.172 -0.6540 -0.1002  0.1063
  673MOL0     C90772  -0.026  10.981   6.935  0.6730  0.7119 -1.0285
  673MOL0     C90773   0.030  11.108   6.946  0.5259 -0.5645  0.4356
  673MOL0     C90774   0.204  11.511   6.749  0.0772  0.4741 -0.1262
  673MOL0     C90775   0.304  11.528   6.850  0.4808 -0.2034  0.3011
  673MOL0     C90776   0.381  11.639   6.849  0.0124  0.8251  0.1271
  673MOL0     C90777   0.350  11.750   6.766 -0.0852  0.8070  1.0409
  673MOL0     O90778   0.430  11.865   6.778 -0.2011  0.2331  0.2572
  673MOL0     C90779   0.371  11.993   6.767  0.0694  0.8224 -0.3424
  673MOL0     C90780   0.445  12.105   6.846  0.1183  0.1525  0.4998
  673MOL0     C90781   0.448  12.099   7.002 -0.1153  0.3570  0.1147
  673MOL0     C90782   0.436  11.961   7.058  0.0293  0.5683  0.8838
  673MOL0     C90783   0.466  11.965   7.202 -0.5198  0.2732  0.0331
  673MOL0     C90784   0.502  11.973   7.314 -1.2680 -0.1602  0.0605
  673MOL0     C90785   0.248  11.737   6.674  0.8682  0.8170  0.1723
  673MOL0     C90786   0.181  11.618   6.660  0.1279 -0.3283  0.5071
  673MOL0     C90787   0.081  11.626   6.543 -0.2999  0.2033 -0.5733
  673MOL0     H90788   0.201  11.127   6.648 -0.3217  0.0504 -0.6292
  673MOL0     H90789   0.091  10.892   6.632  0.3699  1.0532 -1.3349
  673MOL0     H90790  -0.090  10.783   6.593 -0.3752  1.6672  0.8030
  673MOL0     H90791   0.032  10.687   6.684 -0.4788 -1.5364 -0.7149
  673MOL0     H90792  -0.272  10.635   6.712  0.9272  1.3034 -0.5724
  673MOL0     H90793  -0.144  10.532   6.764  0.1914  0.4815  1.6156
  673MOL0     H90794  -0.156  10.590   6.462  0.7281 -3.9982 -2.4084
  673MOL0     H90795  -0.270  10.476   6.530 -0.9991  0.2522  2.1933
  673MOL0     H90796   0.026  10.470   6.555 -0.0399 -1.0782  1.0191
  673MOL0     H90797  -0.075  10.348   6.627  4.0837 -0.3488  0.7721
  673MOL0     H90798  -0.173  10.306   6.394 -1.1813  0.8777 -1.4464
  673MOL0     H90799  -0.060  10.422   6.328 -3.0213 -1.0689 -2.1384
  673MOL0     H90800   0.132  10.286   6.421 -2.0434  0.9507  0.9097
  673MOL0     H90801   0.028  10.168   6.494  0.3507  0.7210  0.4089
  673MOL0     H90802   0.109  10.064   6.303  1.7968  0.0059 -1.5809
  673MOL0     H90803   0.090  10.214   6.200  0.0363 -0.4892  0.4285
  673MOL0     H90804  -0.140  10.073   6.313  0.3899 -1.0591  1.1056
  673MOL0     H90805  -0.143  10.187   6.173  0.0395  0.3864  1.1302
  673MOL0     H90806  -0.025  10.094   5.946  0.6110  1.2778  2.1435
  673MOL0     H90807  -0.057   9.753   5.768 -0.4520 -0.1121  1.1988
  673MOL0     H90808  -0.054   9.930   5.745 -0.0234 -1.4853 -2.2746
  673MOL0     H90809   0.195   9.918   5.831  1.0842 -2.2407 -0.1747
  673MOL0     H90810   0.157   9.741   5.803 -3.4388 -1.0041  1.8138
  673MOL0     H90811   0.149   9.983   5.604  1.0775  0.7403  1.0569
  673MOL0     H90812   0.087   9.832   5.558 -0.5704  3.1782 -0.0952
  673MOL0     H90813   0.381   9.854   5.647 -1.2803  1.4566  0.8243
  673MOL0     H90814   0.325   9.903   5.477  0.5454 -0.8074 -0.7375
  673MOL0     H90815   0.459   9.544   5.676 -2.9300  2.5436 -2.2311
  673MOL0     H90816   0.706   9.513   5.669 -3.6326 -2.4095  0.9395
  673MOL0     H90817   1.137   9.750   5.405 -2.1584 -0.4197 -0.0272
  673MOL0     H90818   1.351   9.697   5.335  1.7429 -2.3478  0.2899
  673MOL0     H90819   1.407   9.398   5.002  1.2434 -0.0205  0.8098
  673MOL0     H90820   1.384   9.562   4.931 -1.4437 -1.2592  0.6174
  673MOL0     H90821   1.618   9.604   5.000 -0.4948 -0.8011  1.2184
  673MOL0     H90822   1.641   9.431   5.034  1.8577  1.5132  0.7016
  673MOL0     H90823   1.522   9.518   4.767  0.0129 -3.0911 -3.1912
  673MOL0     H90824   1.693   9.527   4.791  0.0654 -0.3610 -0.7701
  673MOL0     H90825   1.533   9.282   4.841 -0.1604  0.1532 -2.1970
  673MOL0     H90826   1.709   9.293   4.836  0.5986  1.2580 -0.7810
  673MOL0     H90827   1.689   9.364   4.589 -0.2247 -1.5789 -1.7221
  673MOL0     H90828   1.517   9.366   4.611 -2.0081 -2.0791  0.4177
  673MOL0     H90829   1.625   9.204   4.481 -1.6341 -4.1130 -1.4562
  673MOL0     H90830   1.710   9.128   4.600  0.0812  0.9020 -2.1845
  673MOL0     H90831   1.400   9.156   4.605 -0.5095 -0.2555 -0.7785
  673MOL0     H90832   1.497   9.049   4.711  1.2212 -1.7212 -1.0509
  673MOL0     H90833   1.358   8.937   4.504 -0.4597 -2.0754  1.5145
  673MOL0     H90834   1.490   9.004   4.407 -3.1601  0.7586 -0.3404
  673MOL0     H90835   1.212   9.398   5.064  1.3457  0.3472 -0.8402
  673MOL0     H90836   0.982   9.431   5.149  0.6376 -2.7822  0.6050
  673MOL0     H90837   0.689   9.714   5.283  0.3325  1.2263  0.4118
  673MOL0     H90838   0.446   9.753   5.311 -0.3245  0.2814  0.1930
  673MOL0     H90839  -0.079  10.940   7.020  0.6376  0.7942 -1.0108
  673MOL0     H90840   0.018  11.177   7.029 -0.7805  0.3923 -0.5184
  673MOL0     H90841   0.304  11.453   6.929  2.5866 -1.5988 -0.8903
  673MOL0     H90842   0.461  11.622   6.919 -1.3286 -4.1357  0.8675
  673MOL0     H90843   0.264  11.981   6.787 -0.7583 -1.5952 -4.8610
  673MOL0     H90844   0.375  12.019   6.661 -2.0153  0.2294 -0.6093
  673MOL0     H90845   0.391  12.195   6.813 -1.4380 -0.4976  1.1604
  673MOL0     H90846   0.548  12.111   6.811 -0.3874 -0.8313 -1.2704
  673MOL0     H90847   0.377  12.166   7.050 -1.2688 -2.2776  2.3409
  673MOL0     H90848   0.544  12.136   7.041  0.6365  0.3129 -1.6022
  673MOL0     H90849   0.334  11.923   7.043  1.4650 -4.7325  2.3332
  673MOL0     H90850   0.508  11.889   7.017 -1.0740 -0.8282  1.3066
  673MOL0     H90851   0.520  11.981   7.420  0.2594 -2.5125  0.0567
  673MOL0     H90852   0.253  11.816   6.601 -1.6046 -0.2738 -1.3199
  673MOL0     H90853   0.113  11.705   6.475  3.9588  2.5941  3.5723
  673MOL0     H90854   0.063  11.530   6.494 -1.8727  0.0885  0.1497
  673MOL0     H90855  -0.017  11.659   6.578 -0.2259  3.4857 -3.0086
  674MOL0     O90856   5.018   0.170  10.085  0.4298 -0.1526 -0.4152
  674MOL0     C90857   5.005   0.295  10.063 -0.0369 -0.4567  0.4321
  674MOL0     O90858   4.892   0.369  10.082  0.2785  0.2914 -0.5826
  674MOL0     C90859   4.780   0.295  10.120  0.0033 -0.7148  0.5781
  674MOL0     C90860   4.738   0.302  10.250  0.5022  0.4510 -0.5142
  674MOL0     C90861   4.620   0.236  10.294 -0.3540 -0.4119 -0.2151
  674MOL0     C90862   4.538   0.168  10.205  0.3221  0.1221 -0.0211
  674MOL0     O90863   4.437   0.092  10.253 -0.0379  0.5845 -0.5312
  674MOL0     C90864   4.330   0.064  10.171  0.0947  0.2314 -0.0923
  674MOL0     C90865   4.199   0.059  10.258 -0.1821 -0.2599  1.1827
  674MOL0     C90866   4.219  -0.040  10.371  0.4639  0.4441  0.2929
  674MOL0     C90867   4.219  -0.186  10.316 -0.5120 -0.3099  0.1522
  674MOL0     C90868   4.232  -0.284  10.424 -0.0582 -0.2036 -0.1661
  674MOL0     C90869   4.203  -0.426  10.389 -0.9007  0.5329 -0.1133
  674MOL0     C90870   4.061  -0.468  10.348 -0.0186 -0.1404  0.0062
  674MOL0     C90871   4.058  -0.510  10.201 -0.6465 -0.2337  0.2682
  674MOL0     N90872   4.128  -0.639  10.175  0.5847 -0.7839  0.7129
  674MOL0     C90873   4.054  -0.754  10.189  0.2890  0.0838  0.5114
  674MOL0     C90874   4.136  -0.857  10.143 -0.4695  0.0836  0.6124
  674MOL0     C90875   4.095  -1.004  10.122  0.1366 -0.1433  0.5571
  674MOL0     C90876   3.978  -1.011  10.020  0.1088  0.3606 -0.3326
  674MOL0     C90877   3.853  -0.958  10.076  0.5010 -0.2591 -0.1283
  674MOL0     C90878   3.733  -1.043  10.022  0.4509 -0.5542 -0.9050
  674MOL0     O90879   3.715  -1.013   9.882  0.1096  0.1283 -0.3167
  674MOL0     C90880   3.587  -1.003   9.821  0.1304  0.2661 -0.5386
  674MOL0     C90881   3.584  -0.935   9.700 -0.1844  0.2499 -0.1516
  674MOL0     C90882   3.463  -0.923   9.628  1.2787  0.5409 -0.4465
  674MOL0     C90883   3.344  -0.979   9.673 -0.1436 -0.2343  0.8613
  674MOL0     C90884   3.221  -0.978   9.592  0.3579 -1.4888  0.3607
  674MOL0     O90885   3.118  -1.057   9.635  0.5023 -0.7896 -0.8173
  674MOL0     C90886   2.988  -1.040   9.585 -0.0740  0.5377 -0.1599
  674MOL0     C90887   2.881  -1.009   9.665  0.0015  0.6298  0.3770
  674MOL0     C90888   2.754  -0.968   9.611  0.2343  0.5277 -0.5959
  674MOL0     C90889   2.736  -0.965   9.469  0.2435 -0.8068  0.3496
  674MOL0     O90890   2.618  -0.911   9.429 -0.2393  0.3024  0.5328
  674MOL0     C90891   2.587  -0.907   9.292  0.5561  0.2241 -0.1017
  674MOL0     C90892   2.535  -1.045   9.249 -0.8751  0.5265  0.2491
  674MOL0     C90893   2.482  -1.046   9.109 -0.2583  0.5296 -0.6387
  674MOL0     C90894   2.467  -1.185   9.061  0.3631 -0.6923 -0.0021
  674MOL0     C90895   2.398  -1.177   8.922 -1.1684  0.9428 -0.2145
  674MOL0     C90896   2.406  -1.311   8.838  0.3161  0.5029 -0.1954
  674MOL0     C90897   2.377  -1.290   8.695  0.4695 -0.7724  0.5399
  674MOL0     C90898   2.326  -1.417   8.626 -0.5036  0.9566 -1.0905
  674MOL0    Cl90899   2.438  -1.554   8.641  0.5419 -0.3735  0.2722
  674MOL0     C90900   2.837  -1.016   9.383  0.8459  0.8837 -0.7177
  674MOL0     C90901   2.958  -1.056   9.449  0.2380 -0.7414  1.0564
  674MOL0     O90902   3.218  -0.904   9.486 -0.2122  0.3267 -0.4541
  674MOL0     C90903   3.354  -1.051   9.792 -0.2323 -0.0387  0.7489
  674MOL0     C90904   3.468  -1.060   9.868 -0.8543  0.3976  0.4901
  674MOL0     N90905   4.259  -0.788  10.115  0.5140  0.2858  0.8868
  674MOL0     N90906   4.258  -0.666  10.147  0.4468  0.6102  0.3280
  674MOL0     C90907   4.575   0.162  10.069 -0.4451 -0.7312 -0.0364
  674MOL0     C90908   4.695   0.225  10.028 -0.2500  0.1157 -0.9541
  674MOL0     C90909   5.127   0.369  10.026  0.1507  1.2609 -0.1947
  674MOL0     C90910   5.143   0.501  10.052  0.0117 -0.9363  0.2703
  674MOL0     C90911   5.260   0.574  10.032  0.3254 -0.3083  0.0023
  674MOL0     C90912   5.369   0.511   9.986  0.0089  0.5555  0.2507
  674MOL0     O90913   5.494   0.567   9.961 -0.0620 -0.4345 -0.6681
  674MOL0     C90914   5.527   0.691  10.044  0.1835 -0.1120  0.1832
  674MOL0     C90915   5.649   0.755   9.984 -0.1633  0.9145  0.6820
  674MOL0     C90916   5.626   0.797   9.835  0.8245  0.1594 -0.1384
  674MOL0     C90917   5.676   0.711   9.714  0.3053 -0.4190 -0.9881
  674MOL0     C90918   5.824   0.704   9.703  0.4543 -0.5267 -0.1215
  674MOL0     C90919   5.932   0.686   9.660 -0.2029 -0.6455 -0.2841
  674MOL0     C90920   5.352   0.387   9.937 -1.0966  0.4345 -0.3014
  674MOL0     C90921   5.238   0.313   9.959  0.3740  0.5470  0.5255
  674MOL0     C90922   5.238   0.168   9.908  0.8407  0.1067 -0.1575
  674MOL0     H90923   4.786   0.359  10.328 -0.3106 -1.5461  1.5724
  674MOL0     H90924   4.592   0.228  10.398 -0.5243 -2.3814 -0.3661
  674MOL0     H90925   4.304   0.130  10.088 -1.2155 -1.8940 -1.4714
  674MOL0     H90926   4.348  -0.031  10.119 -1.8086 -0.1533 -0.1337
  674MOL0     H90927   4.110   0.035  10.199  0.7511  0.8851 -0.8093
  674MOL0     H90928   4.184   0.152  10.314  1.9570  0.3231  0.8642
  674MOL0     H90929   4.135  -0.020  10.438  1.9649  2.2809  1.7332
  674MOL0     H90930   4.305  -0.006  10.429  0.5966  3.9821 -1.6587
  674MOL0     H90931   4.124  -0.188  10.262 -1.9178  2.0838  2.2710
  674MOL0     H90932   4.309  -0.190  10.254 -0.0818 -0.9320  0.7969
  674MOL0     H90933   4.327  -0.271  10.477 -0.2129 -0.0771  0.0815
  674MOL0     H90934   4.147  -0.251  10.486  0.4424  1.3381 -0.2616
  674MOL0     H90935   4.284  -0.469  10.329 -1.2332  1.7401 -1.4734
  674MOL0     H90936   4.214  -0.481  10.483  4.3112  3.2124  1.1991
  674MOL0     H90937   4.003  -0.376  10.353 -0.9229 -0.6407 -0.8694
  674MOL0     H90938   4.019  -0.537  10.421  0.1794 -1.1831 -0.8359
  674MOL0     H90939   3.952  -0.530  10.180 -0.9640  1.0267  0.6077
  674MOL0     H90940   4.091  -0.433  10.130 -1.5170 -1.7977 -1.9582
  674MOL0     H90941   3.951  -0.766  10.222  0.5573  1.1272  1.8119
  674MOL0     H90942   4.177  -1.046  10.064  0.2206  0.6827  0.0549
  674MOL0     H90943   4.079  -1.062  10.214 -1.9807 -0.3037  0.1306
  674MOL0     H90944   4.005  -0.954   9.931  0.8132  0.0080 -0.3467
  674MOL0     H90945   3.966  -1.117   9.998  1.5036  0.2255 -0.5270
  674MOL0     H90946   3.836  -0.854  10.047  0.8062  0.5106  2.2402
  674MOL0     H90947   3.864  -0.945  10.184  2.5612 -0.7123 -0.2562
  674MOL0     H90948   3.645  -1.004  10.075 -0.8989  0.2500 -3.5785
  674MOL0     H90949   3.751  -1.148  10.045 -0.3266 -0.0266  2.6964
  674MOL0     H90950   3.672  -0.890   9.656  0.0324 -1.4678 -1.5916
  674MOL0     H90951   3.481  -0.887   9.527  1.8249  1.0034 -0.1881
  674MOL0     H90952   2.904  -1.004   9.770 -3.4453 -0.0136  1.2810
  674MOL0     H90953   2.670  -0.939   9.674 -1.1701 -2.7542 -0.7642
  674MOL0     H90954   2.504  -0.836   9.301 -0.0522 -0.4607 -0.2271
  674MOL0     H90955   2.670  -0.873   9.229  1.3693 -0.6041  0.4852
  674MOL0     H90956   2.615  -1.119   9.253 -0.4154  1.0607  1.2265
  674MOL0     H90957   2.458  -1.076   9.321 -0.5628 -0.0481  0.3457
  674MOL0     H90958   2.383  -1.000   9.117 -1.7667 -2.6738  1.3596
  674MOL0     H90959   2.544  -0.986   9.043 -0.9788  0.6291 -1.2332
  674MOL0     H90960   2.404  -1.237   9.134 -1.0739  0.9177 -0.0375
  674MOL0     H90961   2.564  -1.235   9.050 -0.0876 -1.1978 -2.0948
  674MOL0     H90962   2.455  -1.104   8.865 -0.9918  4.7136  4.2274
  674MOL0     H90963   2.293  -1.148   8.929 -0.4743  3.2470  2.3653
  674MOL0     H90964   2.501  -1.364   8.848 -0.7524 -1.4091  0.5102
  674MOL0     H90965   2.338  -1.376   8.894  1.1380 -1.5804 -1.5167
  674MOL0     H90966   2.462  -1.244   8.642  0.6296 -0.2800  1.2100
  674MOL0     H90967   2.292  -1.223   8.683  1.9280  0.6653 -3.7412
  674MOL0     H90968   2.240  -1.454   8.684  0.6649  0.6460  0.4951
  674MOL0     H90969   2.280  -1.397   8.529  0.0037  1.7156 -1.1833
  674MOL0     H90970   2.825  -1.020   9.275 -0.5134 -0.9203 -0.5535
  674MOL0     H90971   3.035  -1.080   9.377 -1.0798 -3.3971  0.4265
  674MOL0     H90972   3.267  -1.104   9.828 -0.9019  1.0186  0.7549
  674MOL0     H90973   3.479  -1.123   9.956  1.0948 -2.7511 -1.8025
  674MOL0     H90974   4.535   0.098   9.990 -2.7571  0.2841  0.2341
  674MOL0     H90975   4.712   0.213   9.922 -0.7741  2.2884 -1.3266
  674MOL0     H90976   5.061   0.553  10.102 -2.1692 -2.7472 -1.2067
  674MOL0     H90977   5.264   0.677  10.066 -1.9576 -0.2287  0.2192
  674MOL0     H90978   5.543   0.664  10.148  1.9053 -2.0311 -0.5073
  674MOL0     H90979   5.445   0.762  10.027  2.9557  2.6831 -3.4230
  674MOL0     H90980   5.743   0.701   9.998 -1.6360 -1.5727  1.8172
  674MOL0     H90981   5.671   0.846  10.042 -0.5596  2.1287 -0.9897
  674MOL0     H90982   5.678   0.893   9.827 -0.7267  1.0312 -0.1642
  674MOL0     H90983   5.521   0.820   9.819  0.4419 -1.7910 -0.6185
  674MOL0     H90984   5.650   0.605   9.717  0.3527 -0.5174 -3.0117
  674MOL0     H90985   5.626   0.754   9.627 -1.2655 -1.1404 -0.4852
  674MOL0     H90986   6.032   0.673   9.623 -0.0241 -5.1266  1.1332
  674MOL0     H90987   5.435   0.354   9.876 -0.2670  0.1787  0.9152
  674MOL0     H90988   5.269   0.105   9.992  4.0844  0.9626 -0.5686
  674MOL0     H90989   5.143   0.146   9.858  1.8341 -0.3803 -1.8854
  674MOL0     H90990   5.310   0.157   9.827  0.6982  1.2463 -0.4608
  675MOL0     O90991   4.554   6.827   7.932 -0.3463 -0.6299 -0.4174
  675MOL0     C90992   4.498   6.799   8.034 -0.2051  0.1240 -0.1682
  675MOL0     O90993   4.570   6.767   8.153  0.8830 -0.1062 -0.0412
  675MOL0     C90994   4.703   6.804   8.158 -0.6636  0.6642  1.0169
  675MOL0     C90995   4.738   6.921   8.229 -0.2414  0.5182 -0.2915
  675MOL0     C90996   4.868   6.965   8.269 -0.5471 -0.1967 -0.0578
  675MOL0     C90997   4.971   6.886   8.215  0.1385  0.4840  0.3688
  675MOL0     O90998   5.107   6.901   8.227  0.9243 -0.0341  0.5034
  675MOL0     C90999   5.166   7.011   8.295  0.5022  0.3872 -0.1067
  675MOL0     C91000   5.297   6.962   8.370  0.0664  0.0394 -0.9575
  675MOL0     C91001   5.323   7.063   8.478  0.4331 -0.5475 -0.7006
  675MOL0     C91002   5.457   7.047   8.547  0.5882  0.9112  0.5244
  675MOL0     C91003   5.473   7.143   8.664 -0.7939  0.1894 -0.0359
  675MOL0     C91004   5.509   7.288   8.639  0.1217 -0.1341  0.2619
  675MOL0     C91005   5.474   7.386   8.752  0.3547  0.7243  0.8511
  675MOL0     C91006   5.532   7.523   8.745 -0.4765 -0.0321  0.5641
  675MOL0     N91007   5.674   7.524   8.769 -0.6194 -0.1917 -0.2239
  675MOL0     C91008   5.742   7.544   8.887  0.0994  0.4230 -1.0506
  675MOL0     C91009   5.875   7.545   8.862 -0.6045  0.4633 -0.2445
  675MOL0     C91010   5.980   7.551   8.964 -0.2795  0.3212 -1.0971
  675MOL0     C91011   5.991   7.422   9.039 -0.1189  0.6996  0.0337
  675MOL0     C91012   6.047   7.428   9.177 -0.9419 -0.2702 -0.2834
  675MOL0     C91013   6.017   7.308   9.262  0.2923 -0.2383  0.3652
  675MOL0     O91014   6.084   7.321   9.389  0.1680  0.2846 -0.2847
  675MOL0     C91015   6.220   7.307   9.400  0.3142  0.5347  0.4493
  675MOL0     C91016   6.280   7.339   9.518  0.2901 -0.6266 -0.6093
  675MOL0     C91017   6.412   7.329   9.529 -0.0921 -0.3524 -1.0197
  675MOL0     C91018   6.492   7.255   9.438 -0.1440 -0.3911  0.2404
  675MOL0     C91019   6.628   7.219   9.469 -0.3689  0.5029  0.5565
  675MOL0     O91020   6.676   7.092   9.430  0.2044 -0.2448 -0.1153
  675MOL0     C91021   6.798   7.032   9.465 -0.4828 -0.2429 -0.1896
  675MOL0     C91022   6.882   7.071   9.571  0.5589 -0.6223 -1.3206
  675MOL0     C91023   7.003   7.003   9.588  0.3890  0.0697  0.3431
  675MOL0     C91024   7.047   6.893   9.506  0.2153 -0.2098 -0.0228
  675MOL0     O91025   7.179   6.844   9.508  1.1919 -0.3136 -0.6834
  675MOL0     C91026   7.286   6.937   9.523  0.0489 -0.0717  0.0245
  675MOL0     C91027   7.334   6.927   9.666  0.0283  0.1528 -0.0239
  675MOL0     C91028   7.419   6.802   9.693 -0.0786 -0.2972 -0.1711
  675MOL0     C91029   7.563   6.812   9.626  0.0944 -0.0111  1.0424
  675MOL0     C91030   7.607   6.654   9.597 -0.9745 -0.1302  1.0484
  675MOL0     C91031   7.737   6.642   9.530  0.5344  0.4050  0.0466
  675MOL0     C91032   7.858   6.710   9.605  0.2889  1.3946  0.6584
  675MOL0     C91033   7.863   6.669   9.753  0.0984  0.1834 -0.4372
  675MOL0    Cl91034   8.022   6.636   9.809  0.6480 -0.4267  0.3307
  675MOL0     C91035   6.966   6.852   9.401  0.3272 -0.3148 -0.0441
  675MOL0     C91036   6.843   6.925   9.383  0.2104  0.0849 -0.4342
  675MOL0     O91037   6.694   7.289   9.551  0.0054  0.6009  0.1947
  675MOL0     C91038   6.428   7.210   9.320 -0.2018  0.2101 -0.1636
  675MOL0     C91039   6.296   7.246   9.295  0.6126  0.8821 -0.9609
  675MOL0     N91040   5.890   7.525   8.730  0.0546  0.4395 -0.1545
  675MOL0     N91041   5.768   7.520   8.673  0.2063 -0.4943  0.4828
  675MOL0     C91042   4.935   6.776   8.130  1.1982  0.4862 -0.6943
  675MOL0     C91043   4.806   6.731   8.100 -0.4339  0.7224 -0.2387
  675MOL0     C91044   4.353   6.816   8.032 -0.3127 -0.1723  0.6327
  675MOL0     C91045   4.282   6.813   7.908  0.1321 -0.1968 -0.5909
  675MOL0     C91046   4.144   6.842   7.896 -0.4906  0.0631 -1.0940
  675MOL0     C91047   4.069   6.867   8.013 -0.1934  0.5664 -0.1473
  675MOL0     O91048   3.925   6.879   8.018  0.7492  0.0304  0.0922
  675MOL0     C91049   3.853   6.872   7.894  0.0562  0.2090  0.2654
  675MOL0     C91050   3.711   6.816   7.940  0.6295  0.0370 -0.6359
  675MOL0     C91051   3.624   6.805   7.821  0.7467  0.4843  0.3593
  675MOL0     C91052   3.477   6.767   7.861  0.1611 -0.3605  0.2095
  675MOL0     C91053   3.385   6.784   7.742 -0.2774  0.2543 -1.5736
  675MOL0     C91054   3.329   6.792   7.639  0.1808  0.0954 -0.1253
  675MOL0     C91055   4.137   6.870   8.135  0.2601  0.5791  0.2181
  675MOL0     C91056   4.273   6.834   8.145  0.6824 -0.3181 -0.1011
  675MOL0     C91057   4.326   6.846   8.294 -0.5418 -0.0288 -1.0053
  675MOL0     H91058   4.655   6.976   8.273 -0.4702  0.4100 -0.5868
  675MOL0     H91059   4.878   7.055   8.329 -4.3030  1.3626 -1.4431
  675MOL0     H91060   5.190   7.068   8.205  1.3308 -3.6377 -2.7138
  675MOL0     H91061   5.094   7.061   8.361 -1.1584 -1.4788 -0.3920
  675MOL0     H91062   5.384   6.960   8.304  1.0281  0.3738  0.2709
  675MOL0     H91063   5.283   6.860   8.407  1.2085  0.5142  0.8744
  675MOL0     H91064   5.240   7.074   8.548 -2.0165  1.2976 -3.6249
  675MOL0     H91065   5.338   7.160   8.429  2.9715  0.5854  2.0251
  675MOL0     H91066   5.462   6.948   8.593  2.9168  1.1588  0.9286
  675MOL0     H91067   5.544   7.045   8.481  1.5683 -1.1600  1.7777
  675MOL0     H91068   5.380   7.145   8.722 -0.4895 -3.3431  0.7904
  675MOL0     H91069   5.550   7.105   8.731 -2.3204 -2.1249  0.5106
  675MOL0     H91070   5.616   7.293   8.614 -0.5799 -0.3969 -3.4416
  675MOL0     H91071   5.451   7.330   8.556  1.9425  0.1182 -0.9538
  675MOL0     H91072   5.514   7.335   8.840  1.7489 -0.1601 -0.2549
  675MOL0     H91073   5.365   7.383   8.767 -0.1685 -0.1029 -2.2804
  675MOL0     H91074   5.511   7.566   8.647  0.3147  1.9108  1.2060
  675MOL0     H91075   5.490   7.593   8.818  1.0344  2.1242 -0.5455
  675MOL0     H91076   5.682   7.562   8.976  1.1098 -1.5591  0.1025
  675MOL0     H91077   6.076   7.569   8.915  2.5742 -4.9366  1.6927
  675MOL0     H91078   5.947   7.629   9.034 -1.5680 -0.8988 -0.2988
  675MOL0     H91079   5.890   7.383   9.053 -0.5961  1.3436 -1.3798
  675MOL0     H91080   6.043   7.349   8.975  0.4467  1.3040 -0.2070
  675MOL0     H91081   6.024   7.510   9.246 -0.3808 -1.9055  1.9587
  675MOL0     H91082   6.153   7.447   9.158  0.0684 -3.0177  1.9201
  675MOL0     H91083   6.047   7.219   9.206  0.6964 -0.6259  1.1820
  675MOL0     H91084   5.910   7.301   9.279  0.4516  1.2057  2.4110
  675MOL0     H91085   6.214   7.378   9.594  0.0066 -0.9389 -0.6954
  675MOL0     H91086   6.454   7.377   9.617 -0.8669 -0.2775 -0.6855
  675MOL0     H91087   6.854   7.148   9.643 -0.5272 -0.0043 -2.3716
  675MOL0     H91088   7.080   7.055   9.645  0.4142  1.8668 -1.2122
  675MOL0     H91089   7.364   6.908   9.453  2.0166  2.1730  1.1540
  675MOL0     H91090   7.262   7.041   9.500 -0.3842 -0.4164 -1.1576
  675MOL0     H91091   7.378   7.025   9.688 -2.0068  0.6000  2.7183
  675MOL0     H91092   7.245   6.922   9.730  1.6435 -0.6526  2.3007
  675MOL0     H91093   7.431   6.789   9.801  0.4831 -0.6961 -0.2784
  675MOL0     H91094   7.364   6.711   9.667 -0.4580 -0.4678  1.1410
  675MOL0     H91095   7.633   6.873   9.684  0.3429  2.6609 -1.7804
  675MOL0     H91096   7.558   6.867   9.531 -1.7630  0.0777  1.1730
  675MOL0     H91097   7.526   6.634   9.525 -0.2013  1.8317 -0.4511
  675MOL0     H91098   7.609   6.594   9.689  2.9175  0.0485  1.2399
  675MOL0     H91099   7.778   6.542   9.513  1.0633  0.7574 -0.8822
  675MOL0     H91100   7.719   6.687   9.431 -2.0459 -3.0796 -1.2685
  675MOL0     H91101   7.869   6.816   9.580  0.9433  0.8089 -1.8350
  675MOL0     H91102   7.947   6.668   9.557  0.1686  0.9362  0.8317
  675MOL0     H91103   7.823   6.743   9.823 -0.6771 -0.3074 -0.3490
  675MOL0     H91104   7.813   6.574   9.770 -3.2164  1.9332  0.4724
  675MOL0     H91105   7.012   6.775   9.339  3.3402 -0.2591  1.9177
  675MOL0     H91106   6.788   6.889   9.297 -0.1161 -2.8854  0.9198
  675MOL0     H91107   6.478   7.137   9.257  0.9594  0.8755 -0.0433
  675MOL0     H91108   6.250   7.212   9.203  1.7623 -2.5136 -0.4071
  675MOL0     H91109   5.011   6.717   8.079  1.1952 -3.7235  3.4633
  675MOL0     H91110   4.804   6.646   8.033 -0.0214  0.6381 -0.1464
  675MOL0     H91111   4.345   6.801   7.820 -0.3139 -2.7301 -0.6312
  675MOL0     H91112   4.092   6.852   7.800  1.6354 -0.8069 -2.4097
  675MOL0     H91113   3.902   6.807   7.821 -0.5869  1.9931 -1.8552
  675MOL0     H91114   3.840   6.965   7.837 -2.3560  0.9931  1.9335
  675MOL0     H91115   3.667   6.887   8.010 -2.3819  0.3303 -2.6143
  675MOL0     H91116   3.720   6.715   7.983  0.1474  0.3515  0.2394
  675MOL0     H91117   3.657   6.722   7.758  0.1579  0.9707 -0.6155
  675MOL0     H91118   3.620   6.898   7.763  0.4556 -0.1110 -0.5893
  675MOL0     H91119   3.471   6.663   7.894  0.1200  0.0380  1.5345
  675MOL0     H91120   3.449   6.832   7.945  1.5567  0.2505  0.2273
  675MOL0     H91121   3.303   6.802   7.536 -2.1468 -2.5674  0.1003
  675MOL0     H91122   4.068   6.892   8.217  0.5414 -1.6908  1.1412
  675MOL0     H91123   4.373   6.944   8.302 -1.8453  0.5544 -0.0114
  675MOL0     H91124   4.239   6.844   8.360  1.4286  1.9871  1.8853
  675MOL0     H91125   4.389   6.762   8.325 -0.5708  0.5710  0.7874
  676MOL0     O91126   5.101   7.506   3.143 -0.0533  0.3714  0.2207
  676MOL0     C91127   5.130   7.461   3.253  0.0229 -1.0246 -0.8217
  676MOL0     O91128   5.244   7.494   3.323  0.6842 -0.7929  0.3228
  676MOL0     C91129   5.346   7.567   3.263 -0.2550 -0.3034  0.3793
  676MOL0     C91130   5.397   7.532   3.141  1.0223  0.0894  0.1833
  676MOL0     C91131   5.504   7.610   3.082 -0.4933 -0.0007  0.0827
  676MOL0     C91132   5.566   7.709   3.151 -0.5105 -0.7457 -1.1955
  676MOL0     O91133   5.658   7.800   3.104 -1.1965 -0.6311 -0.6686
  676MOL0     C91134   5.753   7.747   3.011  0.3292  0.2212  0.2456
  676MOL0     C91135   5.860   7.852   2.985  0.2355 -0.1750 -0.3373
  676MOL0     C91136   5.950   7.849   3.106  0.2601 -0.6776  0.2401
  676MOL0     C91137   6.055   7.955   3.095 -0.1770  0.2434  0.1281
  676MOL0     C91138   6.151   7.958   3.218 -1.4174  0.7073  0.0819
  676MOL0     C91139   6.278   8.038   3.203  0.9759  0.6241  0.0404
  676MOL0     C91140   6.347   8.058   3.337 -0.1075 -0.7091 -0.3595
  676MOL0     C91141   6.448   8.173   3.339  0.0116  0.3420 -0.3729
  676MOL0     N91142   6.589   8.145   3.299 -0.3599 -0.0035 -0.1348
  676MOL0     C91143   6.692   8.081   3.361 -0.7114 -0.0177 -0.5286
  676MOL0     C91144   6.797   8.105   3.278 -0.3213 -0.1737  0.4559
  676MOL0     C91145   6.925   8.035   3.294  0.5680  0.1475 -0.4200
  676MOL0     C91146   7.021   8.098   3.401  0.1839  0.0089 -0.8438
  676MOL0     C91147   7.161   8.037   3.415 -0.3667  0.0047  0.1956
  676MOL0     C91148   7.239   8.085   3.543  0.8754  0.1032  0.0791
  676MOL0     O91149   7.240   8.231   3.571  0.1320  0.0220  0.0104
  676MOL0     C91150   7.292   8.324   3.484  0.3679  1.2813 -0.8287
  676MOL0     C91151   7.234   8.451   3.506 -0.3931 -0.1006 -0.2029
  676MOL0     C91152   7.295   8.564   3.451 -0.6593  0.3383 -0.0881
  676MOL0     C91153   7.388   8.553   3.350 -0.0805 -0.7213  0.6019
  676MOL0     C91154   7.454   8.672   3.282  0.1291 -0.1595  0.8075
  676MOL0     O91155   7.572   8.663   3.226 -0.4474  0.0053  0.6050
  676MOL0     C91156   7.622   8.762   3.141  0.0822  0.5358  0.0056
  676MOL0     C91157   7.759   8.779   3.145 -0.7327  0.4433  1.1553
  676MOL0     C91158   7.820   8.885   3.074  0.0458  0.8293 -0.2187
  676MOL0     C91159   7.750   8.974   3.002 -0.6333 -0.1688 -0.0505
  676MOL0     O91160   7.824   9.072   2.947 -0.3133 -0.1545 -0.2910
  676MOL0     C91161   7.772   9.201   2.979 -0.6563 -0.5398 -0.8674
  676MOL0     C91162   7.884   9.306   2.980  0.4937  0.1513  0.6187
  676MOL0     C91163   7.840   9.447   3.032  0.1922 -0.6503 -0.1043
  676MOL0     C91164   7.956   9.536   3.086  0.7275 -0.2286 -0.1870
  676MOL0     C91165   8.023   9.619   2.979  0.3778 -0.6181 -0.2325
  676MOL0     C91166   7.927   9.708   2.902 -0.3403 -0.1631 -0.0386
  676MOL0     C91167   7.996   9.818   2.818 -0.0843 -0.2777  0.3976
  676MOL0     C91168   8.037   9.939   2.894  0.3487  0.1961  0.4664
  676MOL0    Cl91169   8.176   9.917   2.999  0.3156  0.3863 -0.3659
  676MOL0     C91170   7.611   8.954   2.989 -0.0717 -0.5225 -0.7329
  676MOL0     C91171   7.551   8.845   3.063  0.0356  0.0902  0.1935
  676MOL0     O91172   7.382   8.778   3.284  0.2685  0.4495  0.0705
  676MOL0     C91173   7.432   8.421   3.319  0.4164  0.1327 -0.3766
  676MOL0     C91174   7.383   8.305   3.383 -1.2477 -0.3754  0.3162
  676MOL0     N91175   6.764   8.191   3.176  0.5002 -0.0404 -0.4410
  676MOL0     N91176   6.638   8.209   3.189  0.1678  0.3191  0.1411
  676MOL0     C91177   5.521   7.730   3.284 -0.0558  0.2579  0.2576
  676MOL0     C91178   5.413   7.657   3.338  0.2948 -0.8438  0.0864
  676MOL0     C91179   5.020   7.402   3.329  0.8005  0.1938 -0.1874
  676MOL0     C91180   5.043   7.387   3.464  0.6148 -0.4557 -0.1492
  676MOL0     C91181   4.945   7.326   3.548  0.0950 -0.2900 -0.5340
  676MOL0     C91182   4.822   7.287   3.502 -0.5941 -0.7432  0.2832
  676MOL0     O91183   4.733   7.237   3.597 -0.6259 -0.3244  0.2530
  676MOL0     C91184   4.600   7.204   3.552  0.5911 -0.7256 -0.1406
  676MOL0     C91185   4.530   7.149   3.671 -0.7444 -0.0570  0.4106
  676MOL0     C91186   4.395   7.108   3.635  0.7282 -0.5670  0.1752
  676MOL0     C91187   4.323   7.032   3.748  0.5882  0.3784  0.5257
  676MOL0     C91188   4.181   6.986   3.712  1.0597 -0.4843  0.3445
  676MOL0     C91189   4.069   6.958   3.677  0.2605 -0.4709 -0.4321
  676MOL0     C91190   4.798   7.294   3.361 -0.3693  0.1216 -0.6264
  676MOL0     C91191   4.892   7.347   3.271 -0.7551 -0.1846 -0.3204
  676MOL0     C91192   4.856   7.359   3.131  0.1450 -0.2227 -0.3950
  676MOL0     H91193   5.347   7.464   3.073  1.2556  1.3198 -1.2707
  676MOL0     H91194   5.517   7.593   2.976  0.3241  1.1031 -0.0176
  676MOL0     H91195   5.800   7.653   3.038 -1.8204 -1.4176 -1.3195
  676MOL0     H91196   5.699   7.725   2.918  0.2047 -0.6410  0.5167
  676MOL0     H91197   5.816   7.951   2.970  2.7671  1.0671 -0.1275
  676MOL0     H91198   5.912   7.824   2.894  0.1317 -0.1138 -0.4155
  676MOL0     H91199   5.979   7.749   3.139 -2.3820 -2.5217 -2.4827
  676MOL0     H91200   5.890   7.896   3.185 -1.6113 -0.9111 -0.9852
  676MOL0     H91201   6.101   7.945   2.996 -0.9521  2.9247 -0.5664
  676MOL0     H91202   6.016   8.057   3.101  0.1432  0.3195  1.0150
  676MOL0     H91203   6.093   7.998   3.302 -1.7092 -1.8306  1.1732
  676MOL0     H91204   6.188   7.859   3.244  1.6629  2.5129  3.5585
  676MOL0     H91205   6.355   7.990   3.142 -0.5757  0.2588 -1.7630
  676MOL0     H91206   6.243   8.131   3.158  1.2293  0.3197 -0.8123
  676MOL0     H91207   6.403   7.966   3.357  2.1072  0.3650 -1.2397
  676MOL0     H91208   6.271   8.077   3.413 -0.4356 -0.6169 -0.7090
  676MOL0     H91209   6.412   8.259   3.282  1.5173  1.6616  0.5680
  676MOL0     H91210   6.438   8.216   3.439 -2.7680  0.2537 -0.5335
  676MOL0     H91211   6.684   8.013   3.445 -2.6959 -0.9497 -1.3868
  676MOL0     H91212   6.914   7.928   3.317  3.3463  0.2073  1.8899
  676MOL0     H91213   6.977   8.057   3.201 -0.5189  1.2142 -0.7902
  676MOL0     H91214   7.025   8.202   3.370  0.2026  0.7111  1.3411
  676MOL0     H91215   6.983   8.096   3.504 -2.3098  0.9855 -1.6719
  676MOL0     H91216   7.231   8.059   3.334  1.0662  0.0836  1.3923
  676MOL0     H91217   7.149   7.928   3.424 -1.5526  0.1615  0.6744
  676MOL0     H91218   7.342   8.050   3.538  1.2314  1.2737 -2.9039
  676MOL0     H91219   7.188   8.037   3.627 -0.0112 -1.5189 -1.3109
  676MOL0     H91220   7.154   8.465   3.578  0.5917 -1.9326  1.3302
  676MOL0     H91221   7.248   8.658   3.478  0.6986  0.5404  1.7617
  676MOL0     H91222   7.814   8.715   3.213 -1.4197  0.1639  1.4539
  676MOL0     H91223   7.928   8.881   3.086 -0.0120  1.0434  0.4229
  676MOL0     H91224   7.691   9.233   2.912 -0.0437  1.9429 -0.5029
  676MOL0     H91225   7.736   9.195   3.082  1.3833  1.1455  0.0007
  676MOL0     H91226   7.968   9.283   3.046  0.4860  0.6998  0.8308
  676MOL0     H91227   7.918   9.298   2.877 -2.7086 -2.6936 -0.3825
  676MOL0     H91228   7.782   9.489   2.949 -1.7089 -0.6435  1.1619
  676MOL0     H91229   7.760   9.445   3.107 -0.5417  1.2127 -0.7779
  676MOL0     H91230   8.036   9.466   3.111 -1.9132 -2.8778  1.4518
  676MOL0     H91231   7.925   9.600   3.169 -1.6014  1.2445 -2.0652
  676MOL0     H91232   8.072   9.551   2.908 -0.9689 -1.0792 -0.7656
  676MOL0     H91233   8.102   9.666   3.037  1.6280 -2.0795 -0.6707
  676MOL0     H91234   7.861   9.649   2.838 -1.6009  2.4724 -1.3040
  676MOL0     H91235   7.858   9.747   2.978 -2.4205 -2.1219 -0.7778
  676MOL0     H91236   7.921   9.848   2.744  1.3430  0.0354 -0.9888
  676MOL0     H91237   8.081   9.772   2.766 -0.0456  1.9433 -1.6825
  676MOL0     H91238   8.046  10.028   2.831  0.2037  0.8274  1.3191
  676MOL0     H91239   7.953   9.963   2.960 -1.4221  1.1932 -2.0045
  676MOL0     H91240   7.553   9.021   2.927 -2.2019  2.0833  3.6422
  676MOL0     H91241   7.444   8.834   3.055  0.1781 -0.4846 -1.3161
  676MOL0     H91242   7.506   8.392   3.245  0.5778 -1.8210  0.4675
  676MOL0     H91243   7.430   8.212   3.352 -1.7249  0.4914 -3.4369
  676MOL0     H91244   5.579   7.803   3.339 -0.5823 -0.8168  2.3486
  676MOL0     H91245   5.382   7.677   3.440 -1.4409 -1.3371 -0.3147
  676MOL0     H91246   5.139   7.421   3.502  1.5673 -0.7422 -2.1256
  676MOL0     H91247   4.979   7.309   3.649 -0.8399  4.2625  0.7862
  676MOL0     H91248   4.601   7.119   3.482 -2.4271 -0.8728 -0.1313
  676MOL0     H91249   4.555   7.290   3.502  1.0540 -0.1514  0.4223
  676MOL0     H91250   4.519   7.214   3.758  1.7747  2.1682 -0.8029
  676MOL0     H91251   4.593   7.064   3.699  0.7887  0.3901 -1.4675
  676MOL0     H91252   4.410   7.041   3.550  0.1020  1.5101 -1.6760
  676MOL0     H91253   4.335   7.195   3.609 -1.1415 -1.7302  0.4179
  676MOL0     H91254   4.383   6.943   3.770 -1.7508 -0.5894  3.8600
  676MOL0     H91255   4.315   7.099   3.834 -5.0551  0.6617  0.1480
  676MOL0     H91256   3.977   6.918   3.640  0.4510  0.9095 -2.6369
  676MOL0     H91257   4.696   7.276   3.330 -0.2708 -1.4510 -0.1142
  676MOL0     H91258   4.935   7.322   3.066 -1.1092  0.7110 -2.5570
  676MOL0     H91259   4.764   7.305   3.106 -1.2864  1.2002  1.4659
  676MOL0     H91260   4.851   7.463   3.096  5.3811  0.3721 -0.0646
  677MOL0     O91261   7.418   1.398   4.413  0.3193  0.0614 -0.2989
  677MOL0     C91262   7.313   1.446   4.376  0.1864 -1.4074  0.4058
  677MOL0     O91263   7.295   1.577   4.341 -0.9777 -1.1598 -0.2523
  677MOL0     C91264   7.397   1.659   4.374  0.9068 -0.3043  0.2248
  677MOL0     C91265   7.508   1.671   4.293  0.1129 -0.6158  0.5675
  677MOL0     C91266   7.634   1.727   4.330 -0.1670  0.7553 -0.8890
  677MOL0     C91267   7.650   1.773   4.460  1.0604 -0.1247  0.6974
  677MOL0     O91268   7.761   1.848   4.501  0.0590  0.0097 -0.5304
  677MOL0     C91269   7.892   1.795   4.469 -0.0588 -0.0921  0.0791
  677MOL0     C91270   8.005   1.867   4.551 -0.0202  0.1218 -0.3144
  677MOL0     C91271   8.043   2.009   4.497  0.6665 -0.3177 -0.1170
  677MOL0     C91272   8.127   1.987   4.372 -0.2355  0.4124 -0.4087
  677MOL0     C91273   8.194   2.116   4.314  0.5128  0.2837 -0.2231
  677MOL0     C91274   8.323   2.090   4.243 -0.5462 -0.1766  0.3994
  677MOL0     C91275   8.383   2.215   4.188  0.4627 -0.1591  0.4767
  677MOL0     C91276   8.492   2.204   4.084  0.4199 -0.6902 -0.0591
  677MOL0     N91277   8.443   2.136   3.957 -0.6823 -0.6031 -0.2096
  677MOL0     C91278   8.513   2.038   3.886 -0.1310  0.0145  0.0225
  677MOL0     C91279   8.430   1.992   3.799 -0.2198 -0.1300  0.6385
  677MOL0     C91280   8.451   1.898   3.682  0.1081 -0.5205 -0.7655
  677MOL0     C91281   8.554   1.964   3.592 -0.5817  0.5188 -0.5067
  677MOL0     C91282   8.530   1.894   3.462 -0.1774  0.2885  0.6101
  677MOL0     C91283   8.636   1.942   3.364 -0.9538  0.4611  0.7787
  677MOL0     O91284   8.607   2.075   3.332  0.2027 -0.2442 -0.2137
  677MOL0     C91285   8.667   2.109   3.210  1.2687 -0.6339  1.2228
  677MOL0     C91286   8.592   2.187   3.118  0.2886  0.4739  0.1641
  677MOL0     C91287   8.637   2.217   2.991 -0.3044  0.4701 -0.1555
  677MOL0     C91288   8.764   2.171   2.943 -0.3863  1.1328  0.7189
  677MOL0     C91289   8.796   2.183   2.802  0.2275 -0.6903 -0.7705
  677MOL0     O91290   8.721   2.276   2.731 -0.3572  0.4483  0.1289
  677MOL0     C91291   8.723   2.253   2.595 -1.3208 -0.0761  1.3368
  677MOL0     C91292   8.824   2.301   2.501  0.7369 -0.0696  1.3273
  677MOL0     C91293   8.813   2.261   2.365  0.2923 -0.6408 -0.1485
  677MOL0     C91294   8.709   2.188   2.320 -0.1892  0.2152  0.3217
  677MOL0     O91295   8.714   2.173   2.178  0.5299 -0.2717  0.3356
  677MOL0     C91296   8.588   2.145   2.112 -0.2906  0.0080 -0.5126
  677MOL0     C91297   8.610   2.137   1.959  0.0927  0.2568  0.5612
  677MOL0     C91298   8.645   1.989   1.932 -0.0283 -0.5542 -0.0627
  677MOL0     C91299   8.606   1.971   1.784  0.8094  0.2307 -0.1378
  677MOL0     C91300   8.660   1.845   1.712 -0.5787  0.1902  0.5051
  677MOL0     C91301   8.652   1.711   1.791  0.5800 -0.4515  0.1148
  677MOL0     C91302   8.693   1.585   1.712 -0.0770  0.5953  0.1388
  677MOL0     C91303   8.812   1.606   1.622 -0.8031 -1.0903 -0.3954
  677MOL0    Cl91304   8.903   1.454   1.578 -0.2615  0.2928 -0.5469
  677MOL0     C91305   8.599   2.148   2.405  0.3622  0.9008  0.8201
  677MOL0     C91306   8.604   2.185   2.536  0.7372 -0.8720 -0.7657
  677MOL0     O91307   8.893   2.126   2.761  0.1469 -0.3970  0.0193
  677MOL0     C91308   8.836   2.094   3.043  0.6056 -0.7154 -0.2357
  677MOL0     C91309   8.794   2.066   3.175  0.7749 -0.4302  0.2847
  677MOL0     N91310   8.318   2.060   3.808 -0.1392  0.3016  1.1559
  677MOL0     N91311   8.323   2.160   3.890 -0.0008 -0.1346 -0.3380
  677MOL0     C91312   7.538   1.770   4.536  0.5634  0.7092  0.2790
  677MOL0     C91313   7.414   1.715   4.499 -0.0110 -0.0129  0.1599
  677MOL0     C91314   7.179   1.372   4.381  0.4463  0.2441 -0.8211
  677MOL0     C91315   7.063   1.446   4.419 -0.3431  0.6313  0.3975
  677MOL0     C91316   6.937   1.382   4.432  0.1835 -0.1764  0.3915
  677MOL0     C91317   6.926   1.250   4.413  0.6289  0.4593 -0.2815
  677MOL0     O91318   6.814   1.190   4.461 -0.5212 -0.0993 -0.0882
  677MOL0     C91319   6.803   1.052   4.490 -0.0452 -0.6722 -0.3981
  677MOL0     C91320   6.700   1.025   4.601 -0.6160  0.3534  0.1866
  677MOL0     C91321   6.563   1.057   4.538 -0.1079  0.4020 -0.3290
  677MOL0     C91322   6.451   1.025   4.647  0.0589  0.0670  0.9036
  677MOL0     C91323   6.324   1.091   4.611  1.2436 -0.3471  0.1999
  677MOL0     C91324   6.234   1.165   4.575  0.5821 -0.1820 -0.6505
  677MOL0     C91325   7.035   1.175   4.369  0.6878 -1.7410  0.5823
  677MOL0     C91326   7.161   1.233   4.356 -0.5889 -0.2219  0.0044
  677MOL0     C91327   7.275   1.127   4.325 -0.5836 -0.2498  0.5645
  677MOL0     H91328   7.499   1.634   4.191 -0.1951  0.9710 -0.0053
  677MOL0     H91329   7.720   1.730   4.264  2.0733  0.3410  1.8505
  677MOL0     H91330   7.903   1.688   4.492 -1.5946  0.0688  1.8280
  677MOL0     H91331   7.905   1.812   4.362  0.8761 -0.9393  0.0427
  677MOL0     H91332   8.092   1.802   4.558  0.3779  0.3265 -2.6293
  677MOL0     H91333   7.964   1.878   4.652 -1.7250 -3.5986 -0.4253
  677MOL0     H91334   8.093   2.068   4.574 -0.6630 -0.3866  0.8461
  677MOL0     H91335   7.961   2.072   4.461  0.3557 -1.1466 -0.8794
  677MOL0     H91336   8.206   1.913   4.389  0.6860  0.9302 -2.1845
  677MOL0     H91337   8.063   1.941   4.296  1.2476 -3.1508  0.2808
  677MOL0     H91338   8.115   2.176   4.268  2.1439 -1.0721 -5.4408
  677MOL0     H91339   8.234   2.171   4.400 -0.7757  0.9826 -0.0406
  677MOL0     H91340   8.395   2.043   4.311  1.1075  2.5108  0.6360
  677MOL0     H91341   8.313   2.014   4.165 -0.2096 -0.7472  0.9007
  677MOL0     H91342   8.409   2.289   4.265  3.2876  0.1063 -0.6108
  677MOL0     H91343   8.305   2.266   4.131 -0.1214 -0.1488  1.2687
  677MOL0     H91344   8.536   2.301   4.058  1.1567 -0.5592  1.5725
  677MOL0     H91345   8.565   2.133   4.125 -0.2154 -2.0777 -1.2322
  677MOL0     H91346   8.620   2.024   3.897  0.2097  1.2321 -1.4170
  677MOL0     H91347   8.477   1.801   3.727  1.7079 -0.2887 -1.1122
  677MOL0     H91348   8.351   1.873   3.644 -0.0637 -3.4485  1.2373
  677MOL0     H91349   8.541   2.073   3.587 -0.6647  0.5505  0.1957
  677MOL0     H91350   8.661   1.964   3.616 -0.1929  5.2575 -1.1560
  677MOL0     H91351   8.431   1.916   3.422 -0.0000  2.2316  1.1106
  677MOL0     H91352   8.527   1.786   3.475  1.6145  0.3537  1.9222
  677MOL0     H91353   8.647   1.867   3.285  0.1143 -0.3323  1.6394
  677MOL0     H91354   8.728   1.942   3.423 -1.1671  2.9194  1.1876
  677MOL0     H91355   8.502   2.230   3.160  2.0855  2.4872  2.2842
  677MOL0     H91356   8.578   2.283   2.928 -2.0599 -0.3465  0.5816
  677MOL0     H91357   8.898   2.371   2.537  1.7158  3.2270 -5.4804
  677MOL0     H91358   8.890   2.293   2.295  2.6017 -1.2960  1.9350
  677MOL0     H91359   8.548   2.053   2.154  2.1767 -1.2522 -0.7383
  677MOL0     H91360   8.516   2.227   2.123 -1.5766 -0.7189 -2.8563
  677MOL0     H91361   8.523   2.170   1.901  0.5528 -0.5482 -0.6171
  677MOL0     H91362   8.689   2.207   1.929  2.1516 -2.0281  0.3314
  677MOL0     H91363   8.745   1.966   1.971 -0.3071 -1.6517  0.0372
  677MOL0     H91364   8.584   1.922   1.994  0.5318 -1.6799 -0.7141
  677MOL0     H91365   8.646   2.055   1.727 -1.1493  0.9739 -0.4969
  677MOL0     H91366   8.497   1.978   1.770  0.7212 -2.6885 -1.8040
  677MOL0     H91367   8.754   1.876   1.666 -1.7933  2.1366 -0.8170
  677MOL0     H91368   8.586   1.838   1.632  2.1285  1.3927 -2.2959
  677MOL0     H91369   8.733   1.712   1.864  1.9240  0.1695 -1.3197
  677MOL0     H91370   8.553   1.693   1.833  0.8270 -1.6684  0.1987
  677MOL0     H91371   8.619   1.541   1.644 -0.5411 -0.1684  1.1216
  677MOL0     H91372   8.721   1.507   1.782  0.3536  0.5471 -0.0861
  677MOL0     H91373   8.782   1.664   1.534 -0.9562 -2.1754 -1.0777
  677MOL0     H91374   8.879   1.671   1.678 -2.4200  0.6226 -0.3433
  677MOL0     H91375   8.518   2.089   2.364 -0.4429  0.8968  2.3467
  677MOL0     H91376   8.522   2.147   2.595  1.8024 -2.4801 -0.2316
  677MOL0     H91377   8.928   2.060   2.996 -0.0449 -0.4068 -1.8020
  677MOL0     H91378   8.858   2.006   3.239  2.8082 -0.1259 -1.3829
  677MOL0     H91379   7.536   1.802   4.640 -2.7619 -0.5550  0.7560
  677MOL0     H91380   7.337   1.717   4.575 -0.0870  0.5412  0.0688
  677MOL0     H91381   7.083   1.549   4.447  1.8197  0.1001  1.0810
  677MOL0     H91382   6.849   1.436   4.464 -0.3846 -1.0357  0.3145
  677MOL0     H91383   6.901   1.010   4.513 -0.5566 -2.3230 -1.1304
  677MOL0     H91384   6.765   1.010   4.397 -2.2642  0.9482 -0.3088
  677MOL0     H91385   6.710   1.098   4.683 -0.5859  1.0884 -0.4628
  677MOL0     H91386   6.707   0.921   4.634  1.1189  0.1890 -0.6490
  677MOL0     H91387   6.542   1.007   4.443  1.9837  0.5557 -0.9225
  677MOL0     H91388   6.560   1.165   4.524 -0.4624  0.2624 -1.4586
  677MOL0     H91389   6.428   0.919   4.643  0.0336  0.1008 -0.0436
  677MOL0     H91390   6.477   1.063   4.747  2.4935  0.1244  0.3037
  677MOL0     H91391   6.152   1.216   4.528  1.5082  2.2094  0.1851
  677MOL0     H91392   7.029   1.068   4.354 -2.0234 -1.3212 -2.5927
  677MOL0     H91393   7.261   1.040   4.389 -4.1654 -0.1398  0.1164
  677MOL0     H91394   7.278   1.095   4.220 -2.3351 -0.0412  0.4291
  677MOL0     H91395   7.377   1.167   4.333 -0.7190  0.6083 -1.2559
  678MOL0     O91396   3.641   5.958   1.890  0.9441  0.7589 -0.2591
  678MOL0     C91397   3.626   5.939   2.011  0.0126 -0.2307  0.1949
  678MOL0     O91398   3.719   5.911   2.103  0.0135 -0.3225  0.4100
  678MOL0     C91399   3.853   5.905   2.078  0.6600  0.5751  0.0092
  678MOL0     C91400   3.927   5.864   2.191  0.7079  0.1217 -0.1909
  678MOL0     C91401   4.059   5.831   2.180  0.2403 -1.1711  0.2074
  678MOL0     C91402   4.134   5.868   2.063 -0.1740  0.5305  0.1942
  678MOL0     O91403   4.269   5.851   2.044 -0.0524  0.0854  0.5042
  678MOL0     C91404   4.350   5.821   2.159  0.2418 -0.0025  0.7804
  678MOL0     C91405   4.490   5.791   2.114  0.2326  0.2768 -0.2641
  678MOL0     C91406   4.548   5.914   2.042  0.3882  0.5792 -0.3843
  678MOL0     C91407   4.686   5.880   2.005  1.1946 -0.5656 -0.1082
  678MOL0     C91408   4.741   5.989   1.915 -0.7565 -0.3434  0.5152
  678MOL0     C91409   4.780   6.115   1.996  0.4436 -0.1236 -0.6705
  678MOL0     C91410   4.872   6.194   1.904 -0.6251 -0.6472  0.7192
  678MOL0     C91411   5.013   6.141   1.907  0.2063 -0.2216 -0.0074
  678MOL0     N91412   5.107   6.209   2.001 -0.5075  0.1342 -0.2403
  678MOL0     C91413   5.244   6.216   1.974  0.5470  0.5349 -0.0782
  678MOL0     C91414   5.294   6.304   2.065  0.2797  0.4558  0.5885
  678MOL0     C91415   5.444   6.332   2.059  1.5185 -0.0087 -0.3347
  678MOL0     C91416   5.524   6.275   2.183 -0.6678  0.7563 -0.3060
  678MOL0     C91417   5.506   6.120   2.200  0.6858 -0.9329 -0.3324
  678MOL0     C91418   5.543   6.032   2.085 -0.1270 -0.2817 -0.7580
  678MOL0     O91419   5.684   6.037   2.055 -0.3526  0.6821  0.1909
  678MOL0     C91420   5.778   5.981   2.123  0.4372 -0.1936  0.0685
  678MOL0     C91421   5.758   5.893   2.236 -0.8129 -0.7518  0.5393
  678MOL0     C91422   5.876   5.829   2.285 -0.2722 -0.0915  0.2447
  678MOL0     C91423   6.003   5.858   2.227  0.5687 -0.2945 -0.1107
  678MOL0     C91424   6.116   5.775   2.265 -0.4398 -0.4644  0.5380
  678MOL0     O91425   6.235   5.840   2.260 -0.6178 -0.2949 -0.0382
  678MOL0     C91426   6.357   5.786   2.258 -1.0949  0.1022 -0.1806
  678MOL0     C91427   6.450   5.854   2.182  0.2062 -0.0182 -0.0363
  678MOL0     C91428   6.590   5.817   2.171 -0.3552  0.5615  0.0020
  678MOL0     C91429   6.632   5.698   2.231  0.5880  0.7607  0.3420
  678MOL0     O91430   6.761   5.665   2.204 -0.3897  0.1822 -0.4044
  678MOL0     C91431   6.830   5.559   2.262 -0.1834  0.3392  0.9194
  678MOL0     C91432   6.974   5.570   2.216 -0.7478  0.1075 -0.6663
  678MOL0     C91433   7.059   5.453   2.263  0.8602 -0.4117  0.2832
  678MOL0     C91434   7.199   5.431   2.200 -0.6345  0.8133 -0.7487
  678MOL0     C91435   7.303   5.358   2.288 -0.7140  0.7356  0.2458
  678MOL0     C91436   7.439   5.322   2.225 -0.1137  0.1939  0.6042
  678MOL0     C91437   7.423   5.232   2.098  0.0536 -0.9363  0.7415
  678MOL0     C91438   7.568   5.179   2.067  0.5551  0.2543  0.3852
  678MOL0    Cl91439   7.568   5.060   1.940  0.1214  0.3908  0.4461
  678MOL0     C91440   6.543   5.622   2.314  1.0979  0.0220 -0.3096
  678MOL0     C91441   6.407   5.670   2.324 -0.4949 -0.3151 -0.0656
  678MOL0     O91442   6.096   5.658   2.290  0.2847 -0.1299 -0.0238
  678MOL0     C91443   6.017   5.948   2.129  0.5279 -0.6991  0.8296
  678MOL0     C91444   5.902   6.003   2.074 -0.8326 -0.3659 -0.8659
  678MOL0     N91445   5.198   6.329   2.162  0.2739 -0.3163 -0.2231
  678MOL0     N91446   5.081   6.287   2.111 -0.3573 -1.1161  1.2828
  678MOL0     C91447   4.066   5.931   1.958  0.3239 -0.4618  0.0342
  678MOL0     C91448   3.920   5.949   1.971 -0.4177  0.1302  0.5845
  678MOL0     C91449   3.488   5.939   2.068  0.3871  0.2623  0.2816
  678MOL0     C91450   3.469   5.976   2.200 -0.5349  0.7142  1.1012
  678MOL0     C91451   3.339   5.983   2.245 -0.7573  0.5055  0.5764
  678MOL0     C91452   3.225   5.965   2.167 -1.5277  0.1659 -0.0307
  678MOL0     O91453   3.102   6.004   2.224 -0.3652 -0.7081 -0.6943
  678MOL0     C91454   2.986   6.013   2.139 -0.2394  0.9118 -0.1222
  678MOL0     C91455   2.874   6.055   2.228  0.7281  0.1697 -0.7349
  678MOL0     C91456   2.799   5.938   2.303  0.2776 -0.8484 -0.2046
  678MOL0     C91457   2.725   5.986   2.430  0.0205  0.1213 -0.2811
  678MOL0     C91458   2.822   5.999   2.536  0.4955 -0.5843  0.3320
  678MOL0     C91459   2.911   6.007   2.621  0.6837  0.0144 -0.0888
  678MOL0     C91460   3.246   5.932   2.033 -0.3156  0.6417 -0.5319
  678MOL0     C91461   3.375   5.909   1.988  0.4207 -0.5469 -0.4847
  678MOL0     C91462   3.388   5.847   1.851  0.0965 -0.1018 -1.0328
  678MOL0     H91463   3.876   5.831   2.281  1.9521 -0.1334  0.4568
  678MOL0     H91464   4.107   5.785   2.266 -1.2687  0.8216  2.2502
  678MOL0     H91465   4.364   5.901   2.232  1.3720 -1.5047  2.2911
  678MOL0     H91466   4.312   5.732   2.211 -2.4602 -0.3079 -1.4880
  678MOL0     H91467   4.483   5.710   2.041 -3.5849  0.4285 -0.2547
  678MOL0     H91468   4.557   5.763   2.196 -2.5212  0.6754  2.2893
  678MOL0     H91469   4.550   6.002   2.107 -0.3200  0.7072 -0.5264
  678MOL0     H91470   4.485   5.959   1.964 -0.3024  0.0452 -0.1391
  678MOL0     H91471   4.745   5.868   2.096  1.5842  0.2231 -0.2498
  678MOL0     H91472   4.684   5.779   1.961 -1.9324 -2.0653  3.0546
  678MOL0     H91473   4.834   5.960   1.864 -0.1693 -0.4040  1.5841
  678MOL0     H91474   4.664   6.017   1.843 -0.9041 -4.6682 -1.3389
  678MOL0     H91475   4.691   6.171   2.028 -2.1896 -5.1753  2.4005
  678MOL0     H91476   4.840   6.086   2.083  1.2602  0.1491 -1.1417
  678MOL0     H91477   4.870   6.294   1.948 -0.6974  0.4845 -1.6448
  678MOL0     H91478   4.834   6.198   1.801  0.5063  1.0858  0.3282
  678MOL0     H91479   5.016   6.032   1.912  1.5695 -0.1829  0.4953
  678MOL0     H91480   5.057   6.164   1.810 -0.2771  0.7188 -0.0140
  678MOL0     H91481   5.296   6.176   1.887 -1.9458 -0.5631 -1.1882
  678MOL0     H91482   5.481   6.292   1.963  1.2813  0.8515 -0.7965
  678MOL0     H91483   5.430   6.440   2.048  0.4143  0.3358  3.1984
  678MOL0     H91484   5.627   6.296   2.154  0.2015 -1.5008  0.9576
  678MOL0     H91485   5.492   6.332   2.271 -2.8244 -3.3957  1.9059
  678MOL0     H91486   5.400   6.099   2.222  0.0976  3.4635  2.0512
  678MOL0     H91487   5.565   6.088   2.286  1.4298 -2.2342 -1.2839
  678MOL0     H91488   5.484   6.064   1.999 -2.7165 -0.3817  0.8783
  678MOL0     H91489   5.512   5.928   2.099  1.7590 -0.7652  0.0876
  678MOL0     H91490   5.658   5.874   2.275 -1.6485  1.7981 -0.1518
  678MOL0     H91491   5.878   5.757   2.367  0.3233  0.3186  0.6026
  678MOL0     H91492   6.422   5.944   2.128 -2.9252 -0.5365  0.5565
  678MOL0     H91493   6.668   5.865   2.113  2.2906 -1.8990  1.2731
  678MOL0     H91494   6.830   5.562   2.371 -0.8732 -2.6559  1.0733
  678MOL0     H91495   6.783   5.463   2.237  0.1294 -0.2808  2.5624
  678MOL0     H91496   6.977   5.573   2.107 -0.2601 -3.2798 -0.8576
  678MOL0     H91497   7.004   5.664   2.263 -4.0784 -0.0889  2.3305
  678MOL0     H91498   7.070   5.463   2.371  0.2436  0.2397  0.2971
  678MOL0     H91499   7.004   5.361   2.246  1.4703 -0.7138 -0.0892
  678MOL0     H91500   7.235   5.528   2.165 -0.1199  0.1782 -2.0028
  678MOL0     H91501   7.187   5.373   2.108  0.6154  0.3230 -0.6156
  678MOL0     H91502   7.261   5.264   2.324 -0.1804  0.7442  0.9208
  678MOL0     H91503   7.328   5.433   2.364  3.2846  3.3616 -3.1888
  678MOL0     H91504   7.496   5.411   2.196  1.3962 -1.2468 -0.9879
  678MOL0     H91505   7.507   5.281   2.300  1.9475  2.6030  0.1996
  678MOL0     H91506   7.407   5.299   2.014 -0.0052 -1.1122  0.6118
  678MOL0     H91507   7.339   5.162   2.104 -0.7836 -0.1500 -1.0838
  678MOL0     H91508   7.641   5.252   2.033  0.6719  1.0449  2.1965
  678MOL0     H91509   7.618   5.131   2.152 -0.1413 -1.9496 -0.3602
  678MOL0     H91510   6.575   5.528   2.358  0.8401 -0.4561 -1.1244
  678MOL0     H91511   6.346   5.605   2.385  4.7754 -3.3490  2.6507
  678MOL0     H91512   6.117   5.970   2.091 -0.0537 -2.0450 -1.7425
  678MOL0     H91513   5.910   6.085   2.004  0.7827 -0.1785 -0.5175
  678MOL0     H91514   4.121   5.973   1.875 -2.1594  2.0321 -0.5051
  678MOL0     H91515   3.876   5.999   1.885  0.5232 -3.9092 -2.6024
  678MOL0     H91516   3.550   5.984   2.272  0.3279 -0.1444  0.2584
  678MOL0     H91517   3.336   6.009   2.350  2.0287 -0.0105  0.8460
  678MOL0     H91518   2.973   5.911   2.104  3.2710 -0.2006  1.3741
  678MOL0     H91519   3.009   6.083   2.059  2.3750  0.1384 -0.1421
  678MOL0     H91520   2.801   6.100   2.160  0.9022 -0.4504 -1.3493
  678MOL0     H91521   2.904   6.135   2.295 -2.4930  3.4537 -2.8277
  678MOL0     H91522   2.864   5.859   2.342  0.1357 -1.1925 -0.6471
  678MOL0     H91523   2.733   5.881   2.236 -0.3843 -0.5340  0.1727
  678MOL0     H91524   2.688   6.087   2.407 -0.6660 -0.0908 -0.1381
  678MOL0     H91525   2.639   5.922   2.455  0.1854 -0.1199 -0.3348
  678MOL0     H91526   2.976   6.004   2.706  0.5060 -3.9907  0.0637
  678MOL0     H91527   3.171   5.899   1.963 -2.0903  1.6002  0.8216
  678MOL0     H91528   3.421   5.915   1.772 -1.5003  0.5339 -1.1932
  678MOL0     H91529   3.461   5.766   1.857  2.2628  1.8325  0.1183
  678MOL0     H91530   3.293   5.807   1.815  0.0774  1.0891 -2.4020
  679MOL0     O91531   5.665   7.171   9.557  0.1617 -0.0936  0.1322
  679MOL0     C91532   5.632   7.058   9.592 -0.4185 -0.1609 -0.2153
  679MOL0     O91533   5.508   6.992   9.590 -0.4187 -0.1316 -0.6258
  679MOL0     C91534   5.393   7.059   9.565 -0.3206  0.8290 -0.2107
  679MOL0     C91535   5.284   6.976   9.534 -0.8408 -0.2104 -0.0538
  679MOL0     C91536   5.156   7.020   9.501 -0.7102  0.2464  0.6874
  679MOL0     C91537   5.125   7.157   9.495  0.2357 -0.4711  0.2570
  679MOL0     O91538   4.995   7.188   9.449 -0.1554  0.0520  0.3112
  679MOL0     C91539   4.961   7.321   9.452  0.5245  0.3780  0.1608
  679MOL0     C91540   4.846   7.334   9.350  0.1226  0.6050  0.0307
  679MOL0     C91541   4.726   7.238   9.403  0.2462 -0.3273 -0.1959
  679MOL0     C91542   4.596   7.294   9.345  0.0050 -0.2618 -0.1298
  679MOL0     C91543   4.463   7.223   9.382 -0.6035 -0.9466 -0.1512
  679MOL0     C91544   4.432   7.234   9.538 -0.0872 -0.0260  0.6130
  679MOL0     C91545   4.308   7.158   9.573 -0.4070 -0.2627  0.4820
  679MOL0     C91546   4.334   7.035   9.668  0.5688 -0.3282  0.9425
  679MOL0     N91547   4.400   6.923   9.604 -0.2706  0.9810 -0.4854
  679MOL0     C91548   4.377   6.867   9.479  0.1311  0.3704 -0.3884
  679MOL0     C91549   4.417   6.739   9.491 -0.5268  0.2672  0.1850
  679MOL0     C91550   4.402   6.638   9.378 -0.2107 -0.2786 -0.8487
  679MOL0     C91551   4.521   6.548   9.373  0.0195  0.4783 -0.2195
  679MOL0     C91552   4.481   6.414   9.305 -0.0681  0.4437  0.6257
  679MOL0     C91553   4.597   6.316   9.286 -0.5168 -0.8454 -0.6868
  679MOL0     O91554   4.655   6.271   9.410 -0.3866  0.4011 -0.2816
  679MOL0     C91555   4.785   6.220   9.403  0.2463  0.2902 -0.7166
  679MOL0     C91556   4.842   6.171   9.525 -0.6068 -0.4370 -0.3303
  679MOL0     C91557   4.971   6.109   9.515 -0.7123 -0.1470 -0.6301
  679MOL0     C91558   5.041   6.089   9.397 -1.1816 -0.4998 -0.3806
  679MOL0     C91559   5.186   6.042   9.406  0.1871 -0.7160 -0.1129
  679MOL0     O91560   5.253   6.061   9.513  0.0240  0.2456 -0.4028
  679MOL0     C91561   5.370   5.996   9.547 -0.1654 -1.2091 -0.3054
  679MOL0     C91562   5.470   5.969   9.454 -0.4667 -0.3772 -0.4392
  679MOL0     C91563   5.594   5.913   9.490  0.2105 -0.4455 -0.3867
  679MOL0     C91564   5.614   5.880   9.622  0.6119  0.4770 -0.5633
  679MOL0     O91565   5.738   5.842   9.666 -0.1519  0.1389  0.4108
  679MOL0     C91566   5.802   5.728   9.603  0.7063  1.3698 -0.7263
  679MOL0     C91567   5.947   5.703   9.652 -0.2082 -0.1642  0.2051
  679MOL0     C91568   6.051   5.820   9.624 -0.3009  0.5631 -0.0447
  679MOL0     C91569   6.027   5.960   9.674 -0.2959  1.1383  0.5370
  679MOL0     C91570   6.125   6.074   9.616  0.3220 -1.0950  0.4386
  679MOL0     C91571   6.277   6.048   9.631 -0.0810 -0.6100  0.3673
  679MOL0     C91572   6.372   6.146   9.558 -0.2156  0.5816 -0.9262
  679MOL0     C91573   6.368   6.296   9.601 -0.6015  0.2811 -0.2040
  679MOL0    Cl91574   6.366   6.301   9.774  0.1609 -0.5294  0.1812
  679MOL0     C91575   5.515   5.914   9.720  0.2098  0.3019  0.4497
  679MOL0     C91576   5.399   5.978   9.687  0.7143 -0.6527  0.2839
  679MOL0     O91577   5.222   5.976   9.310  0.2358  0.0758 -0.4204
  679MOL0     C91578   4.990   6.130   9.286 -0.6714  0.3774  0.6479
  679MOL0     C91579   4.858   6.189   9.282 -0.0954 -0.4888 -0.4594
  679MOL0     N91580   4.458   6.711   9.625  0.3221 -0.1796  0.3449
  679MOL0     N91581   4.443   6.820   9.683  0.1435 -0.2755 -0.4425
  679MOL0     C91582   5.233   7.245   9.532  0.7462 -0.5481 -0.2501
  679MOL0     C91583   5.362   7.198   9.559 -0.1488  0.0703 -0.4690
  679MOL0     C91584   5.750   6.966   9.625  0.1812  1.5152 -0.1681
  679MOL0     C91585   5.731   6.821   9.611  0.5980 -0.2760 -0.8359
  679MOL0     C91586   5.832   6.733   9.639 -0.2799  0.9259  0.5029
  679MOL0     C91587   5.950   6.785   9.697 -0.9235 -0.8579  0.4903
  679MOL0     O91588   6.051   6.718   9.760  0.4506  0.6624  0.6451
  679MOL0     C91589   6.015   6.585   9.789  0.1484 -0.5751 -0.0046
  679MOL0     C91590   6.123   6.509   9.861  0.0896 -0.2281 -0.2526
  679MOL0     C91591   6.116   6.532  10.016  0.7733 -0.0929 -0.4560
  679MOL0     C91592   6.226   6.458  10.089 -0.0882  0.1776 -0.6311
  679MOL0     C91593   6.189   6.447  10.229 -0.2612  0.4366 -0.5726
  679MOL0     C91594   6.161   6.421  10.346 -0.4951  0.0756 -0.0740
  679MOL0     C91595   5.968   6.925   9.718  1.1712 -0.2514 -0.6752
  679MOL0     C91596   5.868   7.012   9.686  0.3008  0.1188  0.3725
  679MOL0     C91597   5.901   7.161   9.723  0.4305 -0.1878 -0.1092
  679MOL0     H91598   5.298   6.869   9.531 -1.9910 -0.3596 -2.8380
  679MOL0     H91599   5.093   6.939   9.465  2.9672 -0.6579 -5.0245
  679MOL0     H91600   4.914   7.342   9.548 -0.7360  1.1474 -0.5869
  679MOL0     H91601   5.043   7.389   9.428 -0.0023  1.4168  1.2287
  679MOL0     H91602   4.879   7.298   9.252 -0.0887 -1.4509  0.6758
  679MOL0     H91603   4.802   7.434   9.345 -2.5725 -0.5707 -2.1394
  679MOL0     H91604   4.711   7.240   9.511 -1.8726 -1.6426 -0.4068
  679MOL0     H91605   4.735   7.133   9.374 -0.5588 -0.2059 -0.9614
  679MOL0     H91606   4.580   7.397   9.380 -2.5323 -0.6525  0.1087
  679MOL0     H91607   4.596   7.288   9.236 -3.6170 -3.2293 -0.1559
  679MOL0     H91608   4.380   7.271   9.330 -0.9867  1.3369  2.3378
  679MOL0     H91609   4.465   7.115   9.363 -2.6494 -0.9513 -0.5072
  679MOL0     H91610   4.521   7.196   9.590 -0.2749 -0.2142  0.8007
  679MOL0     H91611   4.433   7.340   9.562 -0.8605  0.5887 -1.8132
  679MOL0     H91612   4.261   7.129   9.478 -0.4104  0.6792  0.1817
  679MOL0     H91613   4.230   7.222   9.617 -0.9025  0.8763 -1.8743
  679MOL0     H91614   4.383   7.059   9.763  1.1378  3.8830 -0.2031
  679MOL0     H91615   4.233   7.013   9.704  0.3041  1.7383  1.6050
  679MOL0     H91616   4.343   6.928   9.396  2.4884  1.3427 -0.7191
  679MOL0     H91617   4.309   6.582   9.393 -0.9725  1.5048  1.7293
  679MOL0     H91618   4.391   6.693   9.284 -1.7057  0.0025 -0.5268
  679MOL0     H91619   4.598   6.593   9.309 -1.6143  1.9768 -1.2322
  679MOL0     H91620   4.553   6.534   9.476  1.9483  2.3718 -0.5026
  679MOL0     H91621   4.430   6.425   9.208 -1.2154  2.3714  1.3802
  679MOL0     H91622   4.417   6.368   9.381  3.2125  0.8372  3.8538
  679MOL0     H91623   4.676   6.369   9.231 -1.5652  2.6333  0.8344
  679MOL0     H91624   4.572   6.225   9.232 -1.2515 -0.6577 -0.6672
  679MOL0     H91625   4.797   6.176   9.624  2.0690 -0.3537  0.9913
  679MOL0     H91626   5.009   6.071   9.609 -0.8284  1.7698  0.2499
  679MOL0     H91627   5.459   5.998   9.350  0.2318  0.9981 -0.1609
  679MOL0     H91628   5.666   5.895   9.411  0.7960  1.8399 -0.4540
  679MOL0     H91629   5.751   5.634   9.627 -0.9351  1.8004 -2.2805
  679MOL0     H91630   5.792   5.734   9.495  0.3515  1.2457 -0.6997
  679MOL0     H91631   5.962   5.665   9.753  0.6386 -2.2779 -0.6442
  679MOL0     H91632   5.982   5.615   9.596  1.6196  0.7410 -0.1517
  679MOL0     H91633   6.148   5.778   9.653 -1.2482 -3.0020 -1.4681
  679MOL0     H91634   6.069   5.836   9.518  1.8121 -1.2757 -0.0312
  679MOL0     H91635   6.044   5.952   9.782  2.2965  0.7764  0.1731
  679MOL0     H91636   5.924   5.989   9.653  0.2203  3.7643  1.2358
  679MOL0     H91637   6.108   6.171   9.665  1.2999 -1.1260  0.8615
  679MOL0     H91638   6.101   6.077   9.510 -1.8484 -4.2099  0.7070
  679MOL0     H91639   6.296   6.059   9.738 -0.8955  2.7893  0.2913
  679MOL0     H91640   6.296   5.942   9.613 -0.3315 -0.2275 -2.9169
  679MOL0     H91641   6.359   6.146   9.450  3.1608 -0.1301 -1.4306
  679MOL0     H91642   6.478   6.124   9.573  0.0472  1.9773 -0.6022
  679MOL0     H91643   6.455   6.349   9.559 -1.4147 -0.7741 -3.5675
  679MOL0     H91644   6.277   6.337   9.558 -0.0952 -0.4339 -2.0712
  679MOL0     H91645   5.525   5.875   9.821 -2.1313 -1.3773  0.1093
  679MOL0     H91646   5.323   6.004   9.759  1.1736 -2.2637  1.4077
  679MOL0     H91647   5.050   6.122   9.196  2.5349 -3.4921  2.8031
  679MOL0     H91648   4.811   6.219   9.189 -5.5054 -3.3512  0.8770
  679MOL0     H91649   5.224   7.353   9.521 -0.6420 -0.7643 -1.6045
  679MOL0     H91650   5.435   7.271   9.593 -0.6025 -0.2515  1.3036
  679MOL0     H91651   5.641   6.789   9.560  0.9499  3.4340 -4.2568
  679MOL0     H91652   5.804   6.628   9.641 -0.2251  0.9145  0.6649
  679MOL0     H91653   6.008   6.537   9.691  2.6878  1.5463 -1.3641
  679MOL0     H91654   5.920   6.580   9.842 -0.0632  2.9249  0.2033
  679MOL0     H91655   6.225   6.531   9.827  0.1774 -3.6510 -2.7772
  679MOL0     H91656   6.102   6.402   9.848  1.4063 -0.5152 -0.1989
  679MOL0     H91657   6.018   6.499  10.049  0.0967  0.2611 -2.0163
  679MOL0     H91658   6.123   6.637  10.048 -1.5724 -0.3631  1.2084
  679MOL0     H91659   6.234   6.354  10.055  2.7367 -0.7721  2.3016
  679MOL0     H91660   6.316   6.515  10.068  0.5613 -0.8831 -0.8102
  679MOL0     H91661   6.141   6.402  10.449  2.6136  0.0236  0.6187
  679MOL0     H91662   6.058   6.968   9.762 -0.3688  2.8847 -0.3557
  679MOL0     H91663   5.970   7.166   9.808  0.3159  2.2903 -0.0786
  679MOL0     H91664   5.943   7.209   9.633 -2.1448  1.9523 -0.3114
  679MOL0     H91665   5.814   7.223   9.747 -1.7417 -3.2814  0.5044
  680MOL0     O91666   8.399   3.090   7.815  0.7084  0.1640  0.7045
  680MOL0     C91667   8.288   3.036   7.787  0.4956 -0.1177  0.4063
  680MOL0     O91668   8.268   2.909   7.736 -0.4113 -0.4652  0.1254
  680MOL0     C91669   8.363   2.814   7.737 -0.4368 -0.1557  0.9402
  680MOL0     C91670   8.334   2.692   7.679  0.3207  0.3121  0.3892
  680MOL0     C91671   8.413   2.583   7.691  0.5575  0.6824 -0.4126
  680MOL0     C91672   8.531   2.589   7.769 -0.8960 -0.1718  0.0009
  680MOL0     O91673   8.594   2.471   7.773 -0.1027 -0.0842  0.1983
  680MOL0     C91674   8.732   2.461   7.814 -0.0411  0.6348  0.6440
  680MOL0     C91675   8.799   2.322   7.810 -0.1528 -0.4066 -0.8287
  680MOL0     C91676   8.929   2.332   7.885  0.3290  0.1898 -0.7056
  680MOL0     C91677   9.001   2.194   7.909  0.3998  0.2549 -0.5344
  680MOL0     C91678   9.129   2.200   7.987  0.6573  0.1811  0.1982
  680MOL0     C91679   9.253   2.212   7.904 -0.3454 -0.1132 -0.0034
  680MOL0     C91680   9.386   2.196   7.981  0.2696 -0.7491 -0.2220
  680MOL0     C91681   9.434   2.060   8.032 -1.2638 -0.0310 -0.2818
  680MOL0     N91682   9.577   2.048   8.045  0.0846  0.0373  0.3145
  680MOL0     C91683   9.653   2.135   8.125  0.1846  0.1594 -0.3448
  680MOL0     C91684   9.780   2.095   8.127 -0.0039  1.2697  0.2019
  680MOL0     C91685   9.898   2.175   8.199  0.9606 -0.3235  0.4881
  680MOL0     C91686   9.952   2.080   8.306  0.5833 -0.3879  0.5809
  680MOL0     C91687  10.060   2.156   8.386 -0.4212  0.3458  0.3914
  680MOL0     C91688  10.164   2.054   8.436  0.3696 -0.3265 -0.5534
  680MOL0     O91689  10.283   2.127   8.480 -0.0634 -0.2848  0.6595
  680MOL0     C91690  10.384   2.171   8.391 -0.2674 -0.4958 -0.2308
  680MOL0     C91691  10.495   2.228   8.451  0.4235 -0.1892  0.5838
  680MOL0     C91692  10.616   2.249   8.373 -0.0863  0.2660  0.3139
  680MOL0     C91693  10.610   2.204   8.238 -0.2608  0.3867  0.9636
  680MOL0     C91694  10.732   2.196   8.151 -0.3093  0.6729  0.1843
  680MOL0     O91695  10.726   2.131   8.027 -0.8749  0.1861  1.0102
  680MOL0     C91696  10.838   2.128   7.939  0.4443 -0.0489 -1.5254
  680MOL0     C91697  10.967   2.109   7.970 -0.8866 -0.5477 -0.4287
  680MOL0     C91698  11.062   2.091   7.870  0.5869  0.1048 -0.5998
  680MOL0     C91699  11.028   2.090   7.735  0.5299  0.5403  0.2867
  680MOL0     O91700  11.108   2.066   7.627  0.3193  0.2949  0.6327
  680MOL0     C91701  11.240   2.010   7.648 -0.5934 -0.1242  0.7712
  680MOL0     C91702  11.305   1.971   7.518 -0.3845  0.7192  0.1272
  680MOL0     C91703  11.453   1.944   7.532 -0.4686  0.2778 -1.0173
  680MOL0     C91704  11.531   2.078   7.509  0.8001 -0.4505 -0.4444
  680MOL0     C91705  11.682   2.050   7.495 -0.6352 -0.9607 -0.3890
  680MOL0     C91706  11.746   2.130   7.377 -0.1766 -0.8373  0.8070
  680MOL0     C91707  11.745   2.280   7.380 -0.3602  0.2466  0.4577
  680MOL0     C91708  11.787   2.351   7.516  0.8725  0.9810 -0.1165
  680MOL0    Cl91709  11.949   2.304   7.578  0.0703  0.1098 -0.1574
  680MOL0     C91710  10.900   2.125   7.708  0.3166  0.4872 -0.1640
  680MOL0     C91711  10.806   2.144   7.809 -0.1488  0.2505  1.3121
  680MOL0     O91712  10.831   2.253   8.196  0.7976  0.2534 -0.1472
  680MOL0     C91713  10.489   2.167   8.180 -0.0413 -0.8805 -0.7497
  680MOL0     C91714  10.376   2.151   8.255 -0.1293 -0.6437 -0.0464
  680MOL0     N91715   9.787   1.984   8.036 -0.1136  0.2629 -0.7705
  680MOL0     N91716   9.663   1.959   7.996  0.6818 -0.7966 -0.2192
  680MOL0     C91717   8.569   2.704   7.823 -0.0627 -0.2827 -0.1005
  680MOL0     C91718   8.489   2.819   7.804  0.6079 -0.6881 -0.4035
  680MOL0     C91719   8.172   3.117   7.800 -0.7263  0.1294 -0.4436
  680MOL0     C91720   8.042   3.058   7.812 -0.6812  0.1039 -0.4149
  680MOL0     C91721   7.927   3.142   7.830  0.0524  0.2566  0.5287
  680MOL0     C91722   7.941   3.278   7.847 -0.9806  0.2832  0.3998
  680MOL0     O91723   7.835   3.351   7.892 -0.3333  0.6899 -0.2359
  680MOL0     C91724   7.836   3.489   7.937 -0.3078 -0.0188  0.1090
  680MOL0     C91725   7.899   3.486   8.074  0.0878  0.7437  0.4906
  680MOL0     C91726   7.822   3.379   8.176  0.0519  0.0118 -0.0745
  680MOL0     C91727   7.908   3.368   8.300 -0.3654  0.9141  0.2359
  680MOL0     C91728   7.874   3.484   8.385 -0.6979 -0.0812  0.4316
  680MOL0     C91729   7.857   3.584   8.450 -0.3163 -0.5898 -0.7758
  680MOL0     C91730   8.069   3.328   7.815  0.9224  0.6106 -1.1595
  680MOL0     C91731   8.178   3.258   7.805 -0.4697  0.7434 -0.4985
  680MOL0     C91732   8.305   3.340   7.792 -0.0245 -0.8532  0.1238
  680MOL0     H91733   8.239   2.677   7.629 -0.0351 -0.9229  1.3666
  680MOL0     H91734   8.381   2.492   7.641  2.2202 -1.4126  2.0620
  680MOL0     H91735   8.798   2.526   7.755  0.0521 -1.5480 -1.8601
  680MOL0     H91736   8.727   2.488   7.920 -0.2836 -2.0439  1.3742
  680MOL0     H91737   8.825   2.287   7.710 -0.9472  3.0598 -2.3865
  680MOL0     H91738   8.725   2.257   7.857 -0.4161  1.6180  1.7747
  680MOL0     H91739   8.919   2.380   7.983  2.7393 -0.3927 -0.1112
  680MOL0     H91740   8.996   2.404   7.838  0.5020  0.4794 -0.0307
  680MOL0     H91741   8.944   2.122   7.970  1.3367  0.6646  0.8728
  680MOL0     H91742   9.021   2.138   7.817 -1.2297 -0.5006 -0.4777
  680MOL0     H91743   9.126   2.284   8.056 -1.6575 -0.1474  0.5818
  680MOL0     H91744   9.137   2.109   8.047  1.8320 -0.6164 -1.0915
  680MOL0     H91745   9.247   2.129   7.833  2.3088 -0.9522  0.6623
  680MOL0     H91746   9.248   2.312   7.858 -1.8415 -1.5056 -3.2176
  680MOL0     H91747   9.375   2.253   8.074 -0.1189 -2.5529  0.8782
  680MOL0     H91748   9.461   2.246   7.920 -1.3633  1.0169 -0.8850
  680MOL0     H91749   9.399   2.037   8.133  0.2946  2.3804  0.8969
  680MOL0     H91750   9.398   1.983   7.963 -0.1321 -1.1091  0.2858
  680MOL0     H91751   9.614   2.225   8.171  1.1575 -0.1750  1.2328
  680MOL0     H91752   9.974   2.209   8.128  2.3462 -1.0629  1.5690
  680MOL0     H91753   9.844   2.267   8.222  1.7539 -0.1685  1.8331
  680MOL0     H91754   9.868   2.034   8.359 -1.0456 -1.5712 -2.7192
  680MOL0     H91755   9.984   1.990   8.253  0.0396 -0.1669 -0.1477
  680MOL0     H91756  10.023   2.221   8.465  0.8911  1.9970 -0.3013
  680MOL0     H91757  10.092   2.228   8.310 -2.2017 -0.0680 -0.8400
  680MOL0     H91758  10.189   1.976   8.364 -1.5926 -0.0698 -1.5898
  680MOL0     H91759  10.115   2.018   8.527 -1.1828  3.5915  0.4063
  680MOL0     H91760  10.504   2.248   8.557  0.3880 -2.0329  0.9587
  680MOL0     H91761  10.707   2.292   8.414 -0.5017  1.2979  0.1825
  680MOL0     H91762  10.995   2.102   8.075  1.4316  0.9265 -0.8582
  680MOL0     H91763  11.161   2.054   7.895  0.3024 -0.7332 -0.6575
  680MOL0     H91764  11.313   2.078   7.694  0.6918 -0.0326 -1.2942
  680MOL0     H91765  11.236   1.918   7.707 -0.1849 -1.5332 -1.3091
  680MOL0     H91766  11.262   1.881   7.474  1.1739  0.5471 -1.1422
  680MOL0     H91767  11.292   2.052   7.447  2.6530  1.4795  0.2912
  680MOL0     H91768  11.491   1.897   7.623 -0.0742  2.6750  0.1264
  680MOL0     H91769  11.481   1.878   7.449 -2.2097  1.0496 -2.2834
  680MOL0     H91770  11.508   2.147   7.591 -2.8708 -2.6855  0.6048
  680MOL0     H91771  11.492   2.125   7.418  2.5838 -2.4255 -2.3178
  680MOL0     H91772  11.715   1.946   7.499  1.4631 -0.2894  1.0970
  680MOL0     H91773  11.726   2.086   7.588 -3.8452  1.3507  0.4301
  680MOL0     H91774  11.845   2.085   7.363 -0.5463 -2.6755  3.4203
  680MOL0     H91775  11.688   2.108   7.287  1.6435  0.9768 -0.9356
  680MOL0     H91776  11.642   2.310   7.359 -0.0659 -0.1736 -1.8264
  680MOL0     H91777  11.803   2.315   7.294 -0.7998  1.9620  0.8374
  680MOL0     H91778  11.775   2.457   7.494  1.7617  0.9584 -0.7641
  680MOL0     H91779  11.714   2.332   7.595 -1.0767  2.8224 -1.3662
  680MOL0     H91780  10.870   2.136   7.604  0.7565 -1.1142 -0.4843
  680MOL0     H91781  10.709   2.175   7.770  1.7424  1.3621 -3.1396
  680MOL0     H91782  10.477   2.144   8.075  2.0094 -1.5921 -0.8863
  680MOL0     H91783  10.282   2.120   8.212  0.0956 -0.7057 -0.4965
  680MOL0     H91784   8.656   2.708   7.889 -1.0918  0.3659  1.2871
  680MOL0     H91785   8.526   2.910   7.850 -4.1293  0.6444  1.3189
  680MOL0     H91786   8.031   2.950   7.805 -1.4296  0.1118  0.4979
  680MOL0     H91787   7.830   3.097   7.844 -1.7208  3.3668 -0.7181
  680MOL0     H91788   7.730   3.510   7.954 -0.3948 -0.5218  0.2125
  680MOL0     H91789   7.877   3.564   7.869  3.2412 -0.8526  1.1242
  680MOL0     H91790   7.889   3.587   8.113  1.9398  0.3829  2.0535
  680MOL0     H91791   8.005   3.462   8.069 -0.1682 -0.6315  1.1030
  680MOL0     H91792   7.805   3.280   8.134  0.7384 -0.0118 -0.3009
  680MOL0     H91793   7.722   3.417   8.200  0.4221 -0.1838  2.0095
  680MOL0     H91794   7.892   3.274   8.354 -0.4354  0.6407 -0.2549
  680MOL0     H91795   8.015   3.369   8.277 -0.6714  2.3088 -1.2889
  680MOL0     H91796   7.824   3.657   8.522 -6.3447 -3.6267  0.1572
  680MOL0     H91797   8.070   3.437   7.821  0.2296  0.5648  2.9641
  680MOL0     H91798   8.279   3.442   7.763 -0.0540 -1.4032 -1.9932
  680MOL0     H91799   8.375   3.339   7.876 -1.5696 -3.6103  1.5296
  680MOL0     H91800   8.356   3.309   7.700 -0.8958  1.0696 -1.0547
  681MOL0     O91801  11.330   9.470   7.608  0.5733  0.4802  0.0329
  681MOL0     C91802  11.211   9.478   7.564 -0.1488  0.1829 -0.1663
  681MOL0     O91803  11.128   9.588   7.581 -0.5002  0.1667 -0.1363
  681MOL0     C91804  11.175   9.695   7.653  0.4544  0.2704 -0.5929
  681MOL0     C91805  11.151   9.822   7.612  0.6797  0.7870 -0.4729
  681MOL0     C91806  11.193   9.928   7.690  0.3734 -0.7607  0.0928
  681MOL0     C91807  11.255   9.903   7.812  0.9915 -0.6402  0.3562
  681MOL0     O91808  11.288  10.016   7.892  0.6183  0.3091  0.6304
  681MOL0     C91809  11.417  10.022   7.958  1.0337 -0.4995 -0.6056
  681MOL0     C91810  11.534  10.020   7.857 -0.0991  1.0588 -0.4383
  681MOL0     C91811  11.658   9.956   7.910 -0.4389 -0.3541  0.2845
  681MOL0     C91812  11.697  10.019   8.042  0.3837 -0.0859 -0.8290
  681MOL0     C91813  11.823   9.955   8.103  0.2434 -0.2948 -1.1921
  681MOL0     C91814  11.942   9.984   8.017 -0.0730  0.1691  1.2038
  681MOL0     C91815  12.073   9.964   8.076 -0.3320 -0.3970  0.4550
  681MOL0     C91816  12.109  10.075   8.175 -0.0419 -0.5486  0.3251
  681MOL0     N91817  12.241  10.064   8.244 -0.9097 -1.3039 -0.4050
  681MOL0     C91818  12.314   9.948   8.271 -0.2911  0.3750 -0.8167
  681MOL0     C91819  12.434   9.993   8.312 -0.7002 -0.9775  0.4349
  681MOL0     C91820  12.557   9.921   8.347 -0.5096 -0.5420 -0.3367
  681MOL0     C91821  12.531   9.807   8.434 -0.7724  0.1020  0.0087
  681MOL0     C91822  12.474   9.822   8.578 -0.2975 -0.7886 -0.5292
  681MOL0     C91823  12.331   9.877   8.597  0.3599 -1.1550 -0.2179
  681MOL0     O91824  12.253   9.793   8.516  0.3306  0.4158  0.3084
  681MOL0     C91825  12.125   9.832   8.492 -0.4369 -0.4013 -0.5524
  681MOL0     C91826  12.048   9.921   8.576 -0.3348  0.4552 -0.8284
  681MOL0     C91827  11.914   9.924   8.568  1.2174  0.0241  0.2913
  681MOL0     C91828  11.842   9.828   8.493  0.5229 -0.1196  0.4014
  681MOL0     C91829  11.694   9.842   8.486 -0.3001 -0.0806 -0.1351
  681MOL0     O91830  11.638   9.746   8.409 -0.3263  0.3697  0.5938
  681MOL0     C91831  11.515   9.767   8.346 -0.3863 -0.8394  0.1273
  681MOL0     C91832  11.446   9.898   8.344  0.6788 -0.7764 -0.7559
  681MOL0     C91833  11.308   9.899   8.309 -0.8380 -0.6334 -0.3625
  681MOL0     C91834  11.241   9.792   8.251 -0.7368  0.2606  0.2572
  681MOL0     O91835  11.116   9.790   8.204  0.4642  0.1177  0.1795
  681MOL0     C91836  11.030   9.900   8.236  0.8941  0.1637 -0.1407
  681MOL0     C91837  10.890   9.854   8.245 -0.2397  0.7359  0.3767
  681MOL0     C91838  10.791   9.955   8.315 -0.9762  0.4070  0.6374
  681MOL0     C91839  10.656   9.897   8.304 -0.6322  0.1360 -0.0291
  681MOL0     C91840  10.545   9.988   8.343  0.1581  0.1000 -0.1770
  681MOL0     C91841  10.419   9.901   8.322 -0.6781  0.3222  0.7654
  681MOL0     C91842  10.279   9.962   8.326  0.4278  0.3402  0.2895
  681MOL0     C91843  10.172   9.861   8.327  0.5498 -0.1868 -0.5656
  681MOL0    Cl91844  10.019   9.960   8.329  0.0262  0.1250 -0.1141
  681MOL0     C91845  11.318   9.678   8.236  1.1776  0.4508 -0.6708
  681MOL0     C91846  11.449   9.656   8.292  0.4555  0.7779  0.0769
  681MOL0     O91847  11.641   9.921   8.555  0.6165 -0.0499 -0.7276
  681MOL0     C91848  11.913   9.748   8.402 -0.1929 -0.8505 -0.0649
  681MOL0     C91849  12.053   9.752   8.403  0.5509 -0.5179 -0.1976
  681MOL0     N91850  12.434  10.137   8.294 -0.1838 -0.7472 -0.5773
  681MOL0     N91851  12.314  10.177   8.270  1.1630 -1.0325 -0.1791
  681MOL0     C91852  11.278   9.775   7.856 -0.2998  0.6160  0.7406
  681MOL0     C91853  11.229   9.673   7.777 -0.0442 -0.0245 -1.0164
  681MOL0     C91854  11.145   9.375   7.474  0.0756  0.3480 -0.4311
  681MOL0     C91855  10.999   9.375   7.459 -0.0068 -0.3293 -0.4016
  681MOL0     C91856  10.947   9.271   7.385  0.6407  0.4392 -0.0204
  681MOL0     C91857  11.023   9.175   7.321 -0.2898 -0.3291  0.2246
  681MOL0     O91858  10.981   9.073   7.251  0.3400  0.2070 -0.4747
  681MOL0     C91859  10.838   9.061   7.212  0.5627 -0.0043 -0.3265
  681MOL0     C91860  10.792   9.183   7.127  0.5203 -0.7629  0.9141
  681MOL0     C91861  10.643   9.214   7.133  0.2827  0.4793  0.6157
  681MOL0     C91862  10.604   9.366   7.143 -0.0698 -0.7238 -1.0747
  681MOL0     C91863  10.637   9.458   7.032 -0.9196  1.0099 -1.2310
  681MOL0     C91864  10.657   9.531   6.944 -1.0078 -0.3870 -0.0602
  681MOL0     C91865  11.159   9.180   7.340 -0.2170  0.4583 -0.5415
  681MOL0     C91866  11.226   9.272   7.417  1.2430 -0.5145  0.8232
  681MOL0     C91867  11.377   9.261   7.426 -0.3801 -0.3909  0.2851
  681MOL0     H91868  11.090   9.839   7.524  1.0424  0.0749 -0.8752
  681MOL0     H91869  11.181  10.028   7.650 -0.8017 -0.5847  0.8497
  681MOL0     H91870  11.417  10.119   8.010 -1.4801 -1.6039  1.7266
  681MOL0     H91871  11.433   9.935   8.022  2.7277  1.5007  1.9291
  681MOL0     H91872  11.550  10.125   7.829 -0.7938  0.7424 -2.1103
  681MOL0     H91873  11.507   9.969   7.764 -0.9739 -1.1063  0.9278
  681MOL0     H91874  11.738   9.972   7.836  0.8978 -1.5654  1.3955
  681MOL0     H91875  11.657   9.848   7.929 -1.0015  0.2854  5.1408
  681MOL0     H91876  11.704  10.127   8.025  1.7324 -0.4046 -2.5649
  681MOL0     H91877  11.621   9.998   8.118  1.8710 -0.1609  0.7052
  681MOL0     H91878  11.840   9.997   8.202 -0.7746  0.1461 -1.1966
  681MOL0     H91879  11.825   9.847   8.120  2.3664 -0.2827 -1.0190
  681MOL0     H91880  11.945   9.905   7.941 -2.0080  0.5917  0.6260
  681MOL0     H91881  11.938  10.075   7.956  0.8587  0.0621  0.9695
  681MOL0     H91882  12.148   9.965   7.997 -1.4182  0.3284 -0.6150
  681MOL0     H91883  12.081   9.865   8.120  3.2980  1.2221  4.1162
  681MOL0     H91884  12.101  10.169   8.121  1.9171 -1.1165 -1.0314
  681MOL0     H91885  12.029  10.082   8.250  0.5710  3.3465  0.8037
  681MOL0     H91886  12.288   9.843   8.264 -0.0469  0.4435 -3.3597
  681MOL0     H91887  12.605   9.877   8.259  1.7578 -3.0522  1.9913
  681MOL0     H91888  12.629   9.992   8.389 -1.0830 -0.2697  0.2015
  681MOL0     H91889  12.470   9.735   8.379 -0.4272 -0.2990  0.1501
  681MOL0     H91890  12.628   9.757   8.442 -0.5361  0.8114  2.0390
  681MOL0     H91891  12.531   9.882   8.649 -3.0694  2.3453 -0.6901
  681MOL0     H91892  12.462   9.720   8.614  0.8363 -0.4576  0.9140
  681MOL0     H91893  12.329   9.981   8.564  0.7967 -0.5103  1.6758
  681MOL0     H91894  12.317   9.861   8.704  0.3530  1.0754  0.1583
  681MOL0     H91895  12.086   9.980   8.659 -0.6393  0.6046 -0.7920
  681MOL0     H91896  11.863   9.995   8.633  2.9317  0.1357  1.5724
  681MOL0     H91897  11.494   9.984   8.390 -0.1456 -1.0657  0.6972
  681MOL0     H91898  11.259   9.996   8.310  0.9097  0.3305  1.9610
  681MOL0     H91899  11.045   9.949   8.333  1.2144  1.0070 -0.6026
  681MOL0     H91900  11.049   9.966   8.151  3.1436 -0.9537 -0.6019
  681MOL0     H91901  10.865   9.834   8.140  0.6499 -1.2597  0.5118
  681MOL0     H91902  10.896   9.760   8.301  0.3862  0.5261 -0.0289
  681MOL0     H91903  10.809   9.986   8.418  0.4999 -0.0220  0.5392
  681MOL0     H91904  10.781  10.049   8.261  0.5217  1.5379  2.2182
  681MOL0     H91905  10.651   9.806   8.365  0.0369  1.0292  1.4045
  681MOL0     H91906  10.638   9.863   8.202 -1.9134  0.9928 -0.1035
  681MOL0     H91907  10.531  10.066   8.266 -2.6215  0.4237  0.5682
  681MOL0     H91908  10.557  10.026   8.444  1.1555 -2.3765  0.7077
  681MOL0     H91909  10.427   9.833   8.237  4.6922 -0.3099  1.3836
  681MOL0     H91910  10.425   9.824   8.400 -2.4660 -2.4303 -1.6327
  681MOL0     H91911  10.267  10.024   8.237  2.1427 -0.8746 -0.8411
  681MOL0     H91912  10.275  10.024   8.416  0.5299 -1.3315  1.5040
  681MOL0     H91913  10.182   9.795   8.241  1.2658 -1.0945  0.1912
  681MOL0     H91914  10.186   9.801   8.418 -0.9653  0.0715 -0.1296
  681MOL0     H91915  11.260   9.597   8.192  1.3672 -0.0382 -0.0306
  681MOL0     H91916  11.504   9.563   8.307 -1.0810 -0.3485 -0.9159
  681MOL0     H91917  11.854   9.683   8.339 -2.6836  0.4574  0.7662
  681MOL0     H91918  12.112   9.697   8.331  3.0602  4.3802 -2.3896
  681MOL0     H91919  11.339   9.757   7.945  0.9559 -1.2507 -0.4216
  681MOL0     H91920  11.233   9.570   7.811 -3.8428 -0.2662 -0.9111
  681MOL0     H91921  10.933   9.450   7.499 -1.2489 -0.9659 -1.1802
  681MOL0     H91922  10.839   9.277   7.378  0.5783 -0.3490  0.1737
  681MOL0     H91923  10.780   9.060   7.304  0.4928  2.9009 -0.2489
  681MOL0     H91924  10.813   8.973   7.152 -3.1383  1.0673 -0.6520
  681MOL0     H91925  10.824   9.155   7.026 -1.8105  1.2578 -0.4744
  681MOL0     H91926  10.850   9.274   7.143  1.6549 -1.2763 -0.0993
  681MOL0     H91927  10.592   9.157   7.212 -0.7611 -0.1992 -0.5086
  681MOL0     H91928  10.610   9.191   7.031  0.2742 -0.1044  0.7458
  681MOL0     H91929  10.496   9.358   7.153 -0.0842  0.0390 -0.5075
  681MOL0     H91930  10.635   9.408   7.240 -3.9776 -0.7840  0.3750
  681MOL0     H91931  10.687   9.595   6.863  0.7471 -1.6513 -0.4651
  681MOL0     H91932  11.214   9.100   7.290 -1.1924 -0.3523 -0.3456
  681MOL0     H91933  11.413   9.284   7.527 -1.3835 -3.0790  1.3349
  681MOL0     H91934  11.420   9.173   7.377  0.5326 -0.1723  0.6582
  681MOL0     H91935  11.402   9.341   7.355  0.8048 -0.7793  0.2368
  682MOL0     O91936   9.193   6.301   3.595 -0.3275  0.7458 -0.1480
  682MOL0     C91937   9.164   6.267   3.712 -0.7660 -0.1020  0.5920
  682MOL0     O91938   9.245   6.187   3.798  0.0504 -0.0048  0.6641
  682MOL0     C91939   9.376   6.189   3.768  0.2754  0.1477 -0.7358
  682MOL0     C91940   9.435   6.088   3.691  0.4454  0.4348  0.5250
  682MOL0     C91941   9.569   6.084   3.655  0.4149  0.3293  0.2121
  682MOL0     C91942   9.649   6.183   3.710 -1.2722 -0.2548  0.0987
  682MOL0     O91943   9.783   6.192   3.678 -0.1652 -0.2847 -0.3864
  682MOL0     C91944   9.877   6.293   3.717 -0.2176 -0.1038 -0.4743
  682MOL0     C91945  10.019   6.241   3.708 -0.3270 -0.7877  0.5273
  682MOL0     C91946  10.123   6.333   3.773 -0.8199  0.2231 -0.6250
  682MOL0     C91947  10.260   6.281   3.741 -0.1652 -0.3572  0.3998
  682MOL0     C91948  10.373   6.361   3.803  0.2787  0.1096  0.1614
  682MOL0     C91949  10.503   6.302   3.733  0.3760 -0.3973  0.4559
  682MOL0     C91950  10.630   6.317   3.806 -0.0689 -0.2158 -0.8262
  682MOL0     C91951  10.750   6.232   3.754 -0.2425 -0.0225  0.3634
  682MOL0     N91952  10.818   6.269   3.633  0.3467 -0.3317  0.1628
  682MOL0     C91953  10.846   6.182   3.523  0.1756  0.7992  0.6192
  682MOL0     C91954  10.906   6.267   3.436 -0.1523  0.8401 -0.5025
  682MOL0     C91955  10.962   6.219   3.309 -0.6762 -0.5868  0.1499
  682MOL0     C91956  10.881   6.288   3.201  0.1167 -0.4783  0.3913
  682MOL0     C91957  10.732   6.233   3.179 -0.8019  0.1935 -0.5104
  682MOL0     C91958  10.657   6.295   3.065 -0.3169 -0.6695 -0.4027
  682MOL0     O91959  10.525   6.237   3.036 -1.0383 -0.3854  1.0871
  682MOL0     C91960  10.459   6.292   2.926 -0.5843  0.5647  0.3185
  682MOL0     C91961  10.512   6.397   2.846 -0.3777 -1.1281 -0.5678
  682MOL0     C91962  10.438   6.436   2.734 -0.4793  0.3093  0.1110
  682MOL0     C91963  10.310   6.390   2.698  0.0685 -0.0362 -0.5244
  682MOL0     C91964  10.230   6.443   2.581  0.1940 -0.3270  0.1482
  682MOL0     O91965  10.124   6.372   2.538 -0.0311  0.0153  0.9542
  682MOL0     C91966  10.051   6.419   2.429  0.1735 -0.2482  0.2235
  682MOL0     C91967  10.104   6.410   2.303 -0.3356  0.1897  0.1412
  682MOL0     C91968  10.029   6.450   2.193  0.3059  0.0157  0.9568
  682MOL0     C91969   9.895   6.482   2.210  0.8640 -0.7817 -0.2312
  682MOL0     O91970   9.832   6.524   2.091 -0.2016  0.5631 -1.0782
  682MOL0     C91971   9.695   6.572   2.094  0.1304  0.5056  0.0249
  682MOL0     C91972   9.654   6.595   1.948 -0.4047 -0.1621  0.2101
  682MOL0     C91973   9.520   6.679   1.941 -0.7081  0.4486  0.4238
  682MOL0     C91974   9.460   6.663   1.795  0.2001  0.0590  0.1936
  682MOL0     C91975   9.335   6.754   1.776 -0.5655 -0.0461  0.3494
  682MOL0     C91976   9.275   6.764   1.628 -0.5345 -0.7683 -0.0369
  682MOL0     C91977   9.155   6.853   1.620  0.8478  0.6601  0.4598
  682MOL0     C91978   9.196   6.999   1.620  0.0771 -0.5770  0.6444
  682MOL0    Cl91979   9.044   7.097   1.631  0.2051 -0.2462  0.4421
  682MOL0     C91980   9.832   6.486   2.337 -0.2602 -0.8689  0.4476
  682MOL0     C91981   9.918   6.461   2.443 -0.0211  0.1875  0.0647
  682MOL0     O91982  10.258   6.562   2.555 -0.1973 -0.4785 -0.5454
  682MOL0     C91983  10.262   6.280   2.775 -1.1875 -0.6912 -0.7597
  682MOL0     C91984  10.342   6.235   2.886 -1.0371 -0.1231 -0.5574
  682MOL0     N91985  10.895   6.396   3.483 -0.1518  0.1789 -0.1910
  682MOL0     N91986  10.843   6.394   3.609  0.0924  0.5819 -0.0558
  682MOL0     C91987   9.591   6.293   3.773 -0.2916 -0.8200 -0.0014
  682MOL0     C91988   9.462   6.301   3.809  0.0004  1.1460  0.5437
  682MOL0     C91989   9.027   6.291   3.767 -1.0753 -0.2717  0.8094
  682MOL0     C91990   8.972   6.195   3.854  0.5907  0.9627  0.2049
  682MOL0     C91991   8.841   6.210   3.907  0.0775 -0.2063  1.4279
  682MOL0     C91992   8.772   6.320   3.864  0.0560 -0.0772  0.1662
  682MOL0     O91993   8.651   6.344   3.916 -0.1629 -0.0583 -1.0928
  682MOL0     C91994   8.645   6.356   4.059 -0.2484  0.2426  0.0525
  682MOL0     C91995   8.518   6.432   4.103  0.4517 -0.3096  0.5797
  682MOL0     C91996   8.394   6.365   4.054 -0.0780  0.6315  0.8975
  682MOL0     C91997   8.269   6.457   4.055 -0.1958 -0.4596 -0.1828
  682MOL0     C91998   8.165   6.377   3.993 -0.2836 -0.0526  0.9129
  682MOL0     C91999   8.086   6.305   3.945  0.2860 -0.5833 -0.0091
  682MOL0     C92000   8.835   6.414   3.792 -0.0037 -0.2776 -0.4335
  682MOL0     C92001   8.958   6.405   3.741  0.2277 -0.4672 -0.3721
  682MOL0     C92002   9.021   6.517   3.657  0.0118  0.1653  0.5842
  682MOL0     H92003   9.372   6.013   3.644 -2.7346  4.5026 -2.4522
  682MOL0     H92004   9.594   5.997   3.594 -3.2854 -1.3780  0.8726
  682MOL0     H92005   9.864   6.374   3.644 -0.0651  0.3980  0.0499
  682MOL0     H92006   9.867   6.327   3.820  0.4141  1.3151 -0.8545
  682MOL0     H92007  10.046   6.219   3.604  1.9763  0.2779  0.8204
  682MOL0     H92008  10.020   6.148   3.766  0.7380 -0.0044  1.8286
  682MOL0     H92009  10.110   6.334   3.882 -0.7976  0.5385 -0.6262
  682MOL0     H92010  10.114   6.437   3.743  1.1558  1.2468  1.9487
  682MOL0     H92011  10.269   6.173   3.762  4.4578 -0.7921 -2.5355
  682MOL0     H92012  10.272   6.290   3.633  2.0515  2.7389  0.7677
  682MOL0     H92013  10.354   6.468   3.791 -3.7555 -0.3462  0.8432
  682MOL0     H92014  10.369   6.351   3.912 -0.9473 -2.3481 -0.0208
  682MOL0     H92015  10.493   6.194   3.720  3.5791 -0.6179 -1.0991
  682MOL0     H92016  10.526   6.341   3.634 -0.6516 -1.1451 -0.0960
  682MOL0     H92017  10.597   6.259   3.893  2.0842  1.6462  1.3799
  682MOL0     H92018  10.667   6.415   3.837 -0.5422 -0.6840  1.4062
  682MOL0     H92019  10.830   6.236   3.829  0.9800 -2.0804 -0.7373
  682MOL0     H92020  10.715   6.129   3.748  1.7803 -0.7728  0.5666
  682MOL0     H92021  10.836   6.074   3.513  2.8425  0.4590  0.8965
  682MOL0     H92022  11.065   6.254   3.306 -0.3162 -1.6001  0.3947
  682MOL0     H92023  10.959   6.111   3.293  0.8735 -0.3206 -2.7115
  682MOL0     H92024  10.870   6.393   3.230 -0.2797 -0.9358  2.0022
  682MOL0     H92025  10.938   6.285   3.108 -0.6398  0.4301 -0.1099
  682MOL0     H92026  10.674   6.267   3.265 -0.4121 -0.3054 -0.0468
  682MOL0     H92027  10.740   6.125   3.168  2.3944  0.2401  0.4947
  682MOL0     H92028  10.719   6.282   2.976 -0.9775 -0.9252 -0.8379
  682MOL0     H92029  10.648   6.399   3.097 -2.0294 -0.9989  0.2803
  682MOL0     H92030  10.609   6.443   2.860 -1.3670  0.2556  2.4799
  682MOL0     H92031  10.476   6.518   2.675 -0.6516  0.8570  0.7460
  682MOL0     H92032  10.208   6.381   2.298 -0.1339  0.9655 -0.3304
  682MOL0     H92033  10.077   6.456   2.096  1.6764 -1.5148  1.5049
  682MOL0     H92034   9.627   6.500   2.141  0.3074 -0.2552 -0.8456
  682MOL0     H92035   9.696   6.663   2.155 -2.3028  1.1255 -0.7552
  682MOL0     H92036   9.732   6.656   1.903  1.8635 -2.1595  1.2074
  682MOL0     H92037   9.655   6.502   1.891 -1.0995 -0.9084  1.3655
  682MOL0     H92038   9.454   6.641   2.019 -0.0683  1.9642  1.7552
  682MOL0     H92039   9.532   6.786   1.958  2.7117  0.2136  0.1433
  682MOL0     H92040   9.439   6.557   1.778 -0.0132 -0.2843  2.3221
  682MOL0     H92041   9.526   6.689   1.712  0.7455  1.6287  1.0736
  682MOL0     H92042   9.375   6.854   1.797  0.4575 -1.0363  3.8038
  682MOL0     H92043   9.260   6.732   1.852 -0.9322  0.6744  0.2017
  682MOL0     H92044   9.354   6.796   1.559 -0.5649  1.5123  0.8815
  682MOL0     H92045   9.229   6.668   1.604 -2.5905  0.2279 -0.3496
  682MOL0     H92046   9.082   6.821   1.695 -0.6910  0.2382 -1.1432
  682MOL0     H92047   9.118   6.832   1.519  1.0955  0.3688  0.4299
  682MOL0     H92048   9.257   7.022   1.708  1.8056  1.7515 -1.0507
  682MOL0     H92049   9.257   7.034   1.536 -3.9142  4.0679 -0.7892
  682MOL0     H92050   9.736   6.536   2.351 -0.4386 -0.9288 -0.4691
  682MOL0     H92051   9.880   6.452   2.544  1.4275  3.8331  1.0758
  682MOL0     H92052  10.165   6.235   2.757 -1.9123  1.2069 -1.9513
  682MOL0     H92053  10.299   6.152   2.942 -0.3286  0.5721  1.1041
  682MOL0     H92054   9.644   6.382   3.805  0.6678 -0.9769 -1.0848
  682MOL0     H92055   9.422   6.391   3.855 -0.0266  1.7218 -0.5950
  682MOL0     H92056   9.033   6.105   3.865 -1.7446 -0.7091  0.3265
  682MOL0     H92057   8.789   6.135   3.965 -3.0479  1.9589  1.7093
  682MOL0     H92058   8.730   6.413   4.097 -0.4273 -1.6776  3.7485
  682MOL0     H92059   8.650   6.265   4.118  2.0142  1.3297  1.7072
  682MOL0     H92060   8.531   6.534   4.067 -2.3397 -0.1034 -0.0292
  682MOL0     H92061   8.510   6.442   4.211  3.1217 -1.4607  0.9751
  682MOL0     H92062   8.361   6.273   4.102 -1.1020 -2.3147 -4.5566
  682MOL0     H92063   8.421   6.350   3.949 -0.0154 -0.8984  1.1166
  682MOL0     H92064   8.246   6.486   4.158  2.0318 -1.5870  0.6909
  682MOL0     H92065   8.288   6.551   4.001 -0.3607  1.1717  2.4222
  682MOL0     H92066   8.014   6.234   3.909  0.5172 -0.7631 -0.1190
  682MOL0     H92067   8.787   6.511   3.782 -1.8027 -0.7011  2.7292
  682MOL0     H92068   9.128   6.528   3.679  0.3665  2.6528 -1.8495
  682MOL0     H92069   9.016   6.501   3.549  1.2837 -0.7743  0.6489
  682MOL0     H92070   8.987   6.618   3.683 -0.9605  0.9139 -3.1136
  683MOL0     O92071  10.607   9.834   3.493  0.8782  0.1139  0.3846
  683MOL0     C92072  10.704   9.885   3.440  0.3138 -0.5897  0.4139
  683MOL0     O92073  10.822   9.910   3.514 -0.2533 -0.6448 -0.0795
  683MOL0     C92074  10.834   9.882   3.651  0.1595  0.6564  0.0860
  683MOL0     C92075  10.901   9.760   3.684 -0.4054 -0.9167 -0.7234
  683MOL0     C92076  10.918   9.731   3.821  0.3276  0.4185 -0.1150
  683MOL0     C92077  10.859   9.804   3.920 -0.3534  0.2746 -0.9395
  683MOL0     O92078  10.874   9.775   4.055  0.2881 -0.3855 -0.2038
  683MOL0     C92079  10.861   9.637   4.095  0.1620 -0.2207 -0.0591
  683MOL0     C92080  10.879   9.618   4.257  0.8195 -0.3456  1.0765
  683MOL0     C92081  10.893   9.471   4.285 -0.4068 -0.5859  0.0994
  683MOL0     C92082  10.916   9.453   4.435  0.6667  0.1270 -0.3210
  683MOL0     C92083  10.894   9.299   4.465  0.3684 -0.0384 -0.6007
  683MOL0     C92084  10.882   9.270   4.615 -0.0164 -1.1809  0.0493
  683MOL0     C92085  10.817   9.143   4.648  0.8288  0.0945 -0.1045
  683MOL0     C92086  10.827   9.125   4.799  0.5769 -0.3366  0.7395
  683MOL0     N92087  10.776   8.992   4.842 -0.1369  0.6938 -0.0935
  683MOL0     C92088  10.860   8.882   4.846 -0.5016  0.5568 -1.2335
  683MOL0     C92089  10.787   8.796   4.921  0.8618 -0.7102  0.2917
  683MOL0     C92090  10.827   8.659   4.963  0.3715 -0.1756 -0.5979
  683MOL0     C92091  10.705   8.576   5.001 -0.5730  0.3536 -0.5165
  683MOL0     C92092  10.668   8.577   5.151  0.2867  0.3946 -0.0380
  683MOL0     C92093  10.570   8.459   5.182 -0.2312 -1.1261  0.1129
  683MOL0     O92094  10.625   8.332   5.147 -0.2346  0.4349 -0.4729
  683MOL0     C92095  10.664   8.264   5.263  1.1503 -0.9175 -0.3762
  683MOL0     C92096  10.579   8.164   5.322 -0.3325  0.4615  0.8257
  683MOL0     C92097  10.611   8.097   5.441 -0.0772 -0.1398  0.3192
  683MOL0     C92098  10.728   8.122   5.501 -0.0569 -0.8713  0.2557
  683MOL0     C92099  10.785   8.037   5.607 -0.5762 -0.1811 -0.2476
  683MOL0     O92100  10.913   8.062   5.650 -0.1105 -0.0009 -0.2169
  683MOL0     C92101  10.988   7.984   5.739  1.2347  0.4391  0.2851
  683MOL0     C92102  10.932   7.878   5.819 -0.3517 -0.7529  0.8377
  683MOL0     C92103  11.008   7.819   5.924  0.5529  1.1615  0.2520
  683MOL0     C92104  11.146   7.846   5.936 -0.8017 -0.0083  0.5682
  683MOL0     O92105  11.239   7.771   6.005  0.3660  0.6341  0.3376
  683MOL0     C92106  11.200   7.641   6.047  0.5437 -0.2263  0.7899
  683MOL0     C92107  11.321   7.573   6.112  0.2537  0.4050 -0.3293
  683MOL0     C92108  11.441   7.566   6.017  0.5056 -0.0807 -1.1404
  683MOL0     C92109  11.441   7.501   5.872  0.1482 -0.5255 -0.3294
  683MOL0     C92110  11.566   7.537   5.790  0.5502 -0.4837 -0.1409
  683MOL0     C92111  11.589   7.688   5.782 -1.1410 -0.0953  0.4276
  683MOL0     C92112  11.660   7.735   5.656 -1.1208  0.5124  0.0568
  683MOL0     C92113  11.808   7.769   5.679 -0.2813 -0.5797 -0.6841
  683MOL0    Cl92114  11.904   7.623   5.709  0.0461  0.2975 -0.1561
  683MOL0     C92115  11.203   7.940   5.849 -0.8582 -0.6660  0.8913
  683MOL0     C92116  11.125   8.011   5.755  0.6723  0.5037 -0.0956
  683MOL0     O92117  10.709   7.947   5.636  0.4022  0.0274 -0.8345
  683MOL0     C92118  10.825   8.215   5.444 -0.5361  0.4467 -0.3422
  683MOL0     C92119  10.781   8.295   5.334 -1.1452  0.5324 -0.2268
  683MOL0     N92120  10.658   8.845   4.942  0.0926 -0.8512 -0.1218
  683MOL0     N92121  10.660   8.969   4.897 -0.2433  0.1765 -0.0931
  683MOL0     C92122  10.789   9.918   3.888  1.0345  0.6497  0.5835
  683MOL0     C92123  10.780   9.947   3.754 -0.5011 -0.1018 -0.7574
  683MOL0     C92124  10.707   9.927   3.300  0.0394  0.3231 -0.0605
  683MOL0     C92125  10.819   9.981   3.244  0.2797 -0.6432  0.6353
  683MOL0     C92126  10.813  10.027   3.110 -0.3200 -0.2875  0.3671
  683MOL0     C92127  10.704  10.037   3.032  0.0840  0.1030 -0.2917
  683MOL0     O92128  10.690  10.090   2.906  0.0746 -0.2584  0.0676
  683MOL0     C92129  10.798  10.108   2.807  0.3463  0.4008  0.7120
  683MOL0     C92130  10.873   9.979   2.760 -0.0354  0.5835  0.1139
  683MOL0     C92131  10.766   9.882   2.705 -0.3132 -0.0363  0.8360
  683MOL0     C92132  10.837   9.745   2.728  0.1033 -0.0940  0.2041
  683MOL0     C92133  10.755   9.643   2.676  0.0898 -0.1869  0.3395
  683MOL0     C92134  10.694   9.554   2.628  0.7471  1.1121 -0.2991
  683MOL0     C92135  10.601   9.966   3.083 -0.0603 -0.0175 -0.2422
  683MOL0     C92136  10.593   9.915   3.215 -0.8961 -0.2769 -0.9571
  683MOL0     C92137  10.465   9.859   3.256 -0.2621 -0.3169  0.5888
  683MOL0     H92138  10.961   9.707   3.610 -0.5767 -0.2540 -1.3425
  683MOL0     H92139  10.982   9.647   3.846  1.6741  0.1558 -3.7589
  683MOL0     H92140  10.764   9.604   4.058  0.8318 -1.0377 -1.1569
  683MOL0     H92141  10.940   9.576   4.049 -0.7372  0.1583 -2.2274
  683MOL0     H92142  10.793   9.667   4.305  2.7509  1.6395  2.7783
  683MOL0     H92143  10.978   9.651   4.291  2.0487 -2.2788 -0.4160
  683MOL0     H92144  10.969   9.420   4.224  0.1305 -1.4244  1.4423
  683MOL0     H92145  10.801   9.416   4.263 -2.3742  1.2402  3.0693
  683MOL0     H92146  11.018   9.482   4.460  0.6262  2.5114 -2.5165
  683MOL0     H92147  10.842   9.508   4.494  2.5924  3.8540 -1.1021
  683MOL0     H92148  10.798   9.271   4.420 -0.1247  0.2419  0.2472
  683MOL0     H92149  10.982   9.247   4.428  1.9583 -2.0305  4.9593
  683MOL0     H92150  10.980   9.291   4.661 -1.0485 -0.0029  1.8503
  683MOL0     H92151  10.817   9.352   4.648  0.4283 -1.5734  2.0777
  683MOL0     H92152  10.864   9.062   4.592 -1.7505 -2.4186  1.1212
  683MOL0     H92153  10.709   9.143   4.635  0.6769 -1.0475  0.9632
  683MOL0     H92154  10.934   9.131   4.821  0.4361 -1.1530  1.6994
  683MOL0     H92155  10.776   9.202   4.858  1.1183 -0.5341  1.4657
  683MOL0     H92156  10.951   8.872   4.789  0.9070  0.1648  0.9488
  683MOL0     H92157  10.870   8.617   4.871 -1.1340  0.0094 -1.4156
  683MOL0     H92158  10.902   8.660   5.043 -1.8253  1.6540  1.5902
  683MOL0     H92159  10.616   8.602   4.943 -0.6930  1.5958  0.1823
  683MOL0     H92160  10.733   8.479   4.959 -0.2320 -0.4424  1.4150
  683MOL0     H92161  10.620   8.671   5.180  0.0359 -0.2527  1.7515
  683MOL0     H92162  10.755   8.566   5.217  0.0966  1.9571  0.5133
  683MOL0     H92163  10.480   8.468   5.121 -0.2176  0.1443  0.2685
  683MOL0     H92164  10.537   8.461   5.286 -0.7167 -2.5087  0.0114
  683MOL0     H92165  10.483   8.140   5.278  0.3768 -0.7614 -0.1386
  683MOL0     H92166  10.532   8.030   5.475 -1.3260  1.8628  1.6064
  683MOL0     H92167  10.829   7.846   5.805 -1.1203  1.7028  0.3760
  683MOL0     H92168  10.978   7.730   5.978  1.7438 -0.0565 -1.0085
  683MOL0     H92169  11.111   7.642   6.111 -0.9268 -0.5508 -1.1342
  683MOL0     H92170  11.168   7.582   5.960 -0.8038  0.4686  0.7825
  683MOL0     H92171  11.338   7.618   6.210 -1.2435  1.3240 -0.4688
  683MOL0     H92172  11.306   7.465   6.123 -1.7680  0.6654 -0.1677
  683MOL0     H92173  11.473   7.671   6.023 -0.9131  0.3858 -1.2603
  683MOL0     H92174  11.515   7.504   6.068 -0.6821 -0.5529  0.0675
  683MOL0     H92175  11.348   7.534   5.824 -0.3052 -0.5037  0.5520
  683MOL0     H92176  11.433   7.392   5.874 -2.5422 -0.3949  1.8156
  683MOL0     H92177  11.555   7.491   5.692  2.6572  0.3114 -0.8123
  683MOL0     H92178  11.664   7.502   5.826  0.6581  0.6937  0.7471
  683MOL0     H92179  11.488   7.731   5.789 -0.2254  2.1597  0.7070
  683MOL0     H92180  11.651   7.716   5.868 -0.0038  1.7611 -0.9148
  683MOL0     H92181  11.610   7.824   5.616 -0.3600  1.2595  0.7031
  683MOL0     H92182  11.656   7.655   5.582 -2.5833  0.5079  0.1185
  683MOL0     H92183  11.853   7.813   5.590  0.0157 -2.4318 -1.4988
  683MOL0     H92184  11.827   7.841   5.759  1.9197 -1.8956  0.0718
  683MOL0     H92185  11.311   7.947   5.856 -0.3624 -1.6137 -3.0969
  683MOL0     H92186  11.153   8.094   5.691 -2.0802 -0.4937 -2.8726
  683MOL0     H92187  10.921   8.234   5.489 -0.8626 -0.4070  0.7650
  683MOL0     H92188  10.849   8.366   5.289  1.4096 -1.7838 -0.2833
  683MOL0     H92189  10.727   9.974   3.957 -0.3396  3.6501 -2.7240
  683MOL0     H92190  10.725  10.036   3.724 -1.8837 -1.2219 -1.6492
  683MOL0     H92191  10.912  10.009   3.292  0.9421 -1.5330 -0.0988
  683MOL0     H92192  10.897  10.085   3.073 -1.1403 -0.1143 -1.3296
  683MOL0     H92193  10.869  10.177   2.853 -1.0065  1.0931  1.8318
  683MOL0     H92194  10.758  10.163   2.721 -1.9190  1.0256  2.0607
  683MOL0     H92195  10.920   9.943   2.852  1.0029  2.5711  0.4109
  683MOL0     H92196  10.964  10.006   2.706  0.3862 -1.1523 -0.0890
  683MOL0     H92197  10.754   9.904   2.599 -3.4832  1.2314  1.3487
  683MOL0     H92198  10.674   9.883   2.764 -2.8394 -2.1950 -2.7078
  683MOL0     H92199  10.930   9.745   2.671 -0.6787  0.1236 -1.1135
  683MOL0     H92200  10.850   9.736   2.836 -0.3536  1.1225  0.3826
  683MOL0     H92201  10.652   9.460   2.598  2.6957  0.0051  0.2981
  683MOL0     H92202  10.512   9.966   3.020 -1.0226  0.3814  1.0759
  683MOL0     H92203  10.478   9.765   3.311 -0.9146  2.0681  5.2867
  683MOL0     H92204  10.415   9.930   3.322  1.9940  2.6659 -0.7016
  683MOL0     H92205  10.398   9.851   3.170  0.4903 -0.1932 -0.0242
  684MOL0     O92206  11.168   6.367   5.890 -0.0580 -0.6819 -0.7303
  684MOL0     C92207  11.115   6.302   5.802  0.7486  0.1405 -0.5146
  684MOL0     O92208  11.134   6.179   5.774 -0.7767  0.1706 -0.3579
  684MOL0     C92209  11.224   6.113   5.855  0.5486 -0.0439 -0.1873
  684MOL0     C92210  11.358   6.106   5.825  0.0011 -0.1544 -0.3264
  684MOL0     C92211  11.444   6.041   5.902  0.4987 -0.8721  0.3071
  684MOL0     C92212  11.403   5.977   6.015  0.1171  0.1360  0.1079
  684MOL0     O92213  11.497   5.919   6.104  0.3142 -0.1580 -0.7096
  684MOL0     C92214  11.451   5.843   6.212 -0.2821 -0.1562  0.6121
  684MOL0     C92215  11.578   5.811   6.293  0.8217  0.4809  0.2128
  684MOL0     C92216  11.641   5.948   6.333 -0.0589 -0.3740 -0.5440
  684MOL0     C92217  11.738   5.914   6.453 -0.6213  0.0516 -0.3348
  684MOL0     C92218  11.813   6.039   6.506  0.9461  0.1842 -0.7624
  684MOL0     C92219  11.718   6.118   6.592  0.3182 -0.2283 -0.6507
  684MOL0     C92220  11.766   6.246   6.657  1.0475 -0.2607 -0.7908
  684MOL0     C92221  11.823   6.332   6.555 -0.3694  0.1318  1.0250
  684MOL0     N92222  11.722   6.372   6.457 -0.0829  0.0980 -0.6819
  684MOL0     C92223  11.624   6.458   6.488 -0.4720  0.5370 -1.1846
  684MOL0     C92224  11.578   6.509   6.366  0.4734  0.3229 -0.0589
  684MOL0     C92225  11.480   6.621   6.344 -0.7116 -0.4834  0.2390
  684MOL0     C92226  11.345   6.571   6.388  0.6014  0.4036  0.4722
  684MOL0     C92227  11.238   6.665   6.336 -0.3581  0.1057 -0.4954
  684MOL0     C92228  11.127   6.689   6.444  0.1885 -0.2532 -0.1133
  684MOL0     O92229  11.040   6.574   6.464  0.4328 -0.1235 -0.2331
  684MOL0     C92230  10.925   6.569   6.387  0.3130  0.0109  0.0383
  684MOL0     C92231  10.812   6.641   6.436  0.4718  0.3173  0.1092
  684MOL0     C92232  10.691   6.622   6.362  0.8355  0.0982  0.4989
  684MOL0     C92233  10.695   6.556   6.237  0.1331 -0.4150  0.4022
  684MOL0     C92234  10.572   6.531   6.159 -0.0975 -0.8391  0.7042
  684MOL0     O92235  10.597   6.521   6.023 -0.0192 -0.9320 -0.6885
  684MOL0     C92236  10.487   6.556   5.942  0.1160 -0.4588  0.5346
  684MOL0     C92237  10.517   6.656   5.849 -0.0615  0.0621  0.4856
  684MOL0     C92238  10.417   6.688   5.754  0.1421 -0.1178  0.1023
  684MOL0     C92239  10.287   6.626   5.755 -0.4893  0.7486  0.3045
  684MOL0     O92240  10.195   6.649   5.659  0.5230  0.6213 -0.0794
  684MOL0     C92241  10.238   6.669   5.520 -0.2885  0.0620 -0.4407
  684MOL0     C92242  10.131   6.660   5.418 -0.1323  0.5871  0.5216
  684MOL0     C92243  10.036   6.540   5.439  0.1476  0.0439 -0.1266
  684MOL0     C92244   9.931   6.567   5.337  1.0172  0.3913 -0.2951
  684MOL0     C92245   9.810   6.476   5.365  0.3080  0.1432  0.1965
  684MOL0     C92246   9.688   6.505   5.275 -0.7677 -0.1881  1.1714
  684MOL0     C92247   9.713   6.471   5.130  0.4147 -0.3256 -0.3673
  684MOL0     C92248   9.595   6.497   5.036  0.2377 -0.0102 -0.9522
  684MOL0    Cl92249   9.673   6.492   4.871  0.1991  0.4161 -0.2143
  684MOL0     C92250  10.262   6.535   5.856  0.3972  0.4825  0.1327
  684MOL0     C92251  10.361   6.493   5.948 -1.1711 -0.3416 -0.0731
  684MOL0     O92252  10.461   6.537   6.209 -0.1686 -0.1044 -0.5813
  684MOL0     C92253  10.808   6.494   6.194 -0.1612  0.1556 -1.1327
  684MOL0     C92254  10.924   6.499   6.270  0.8251 -0.1740  1.4714
  684MOL0     N92255  11.634   6.434   6.267 -0.1072  0.1295 -0.4490
  684MOL0     N92256  11.724   6.356   6.323  0.1710  0.7735  0.5807
  684MOL0     C92257  11.261   5.972   6.040  0.4188  0.6005 -0.1429
  684MOL0     C92258  11.177   6.032   5.950 -0.3881  0.0978 -0.5066
  684MOL0     C92259  11.028   6.373   5.701 -0.4060 -0.1873 -0.1847
  684MOL0     C92260  10.996   6.509   5.734 -1.4563  0.1666  0.3937
  684MOL0     C92261  10.926   6.587   5.644  0.9995 -0.3220  0.6880
  684MOL0     C92262  10.874   6.531   5.517 -0.1485 -0.0546 -1.1766
  684MOL0     O92263  10.790   6.597   5.427 -0.7416  0.3264 -0.6056
  684MOL0     C92264  10.740   6.718   5.469  0.4182 -0.5524  0.3054
  684MOL0     C92265  10.667   6.777   5.343 -0.1876  0.0951  0.2337
  684MOL0     C92266  10.535   6.709   5.298  1.0384 -0.3346 -0.7458
  684MOL0     C92267  10.544   6.557   5.290 -0.1128  0.0344  0.0191
  684MOL0     C92268  10.415   6.502   5.246 -0.4205 -0.5027  0.0016
  684MOL0     C92269  10.299   6.475   5.216  0.3956 -0.3588 -0.4806
  684MOL0     C92270  10.900   6.400   5.489 -0.1444  0.1137  0.6029
  684MOL0     C92271  10.969   6.317   5.580  0.7688 -0.0633 -0.3625
  684MOL0     C92272  10.970   6.171   5.534 -0.5192  0.2469  0.3059
  684MOL0     H92273  11.384   6.160   5.735  1.4444 -0.6917 -0.2482
  684MOL0     H92274  11.549   6.043   5.875  0.8458 -0.5645  1.5812
  684MOL0     H92275  11.379   5.899   6.274 -1.0568  0.0426 -0.4352
  684MOL0     H92276  11.405   5.750   6.177  2.5692 -0.8547 -1.6479
  684MOL0     H92277  11.643   5.744   6.236 -1.5865 -2.0617  0.2403
  684MOL0     H92278  11.541   5.760   6.383  0.0829 -2.6474 -1.7244
  684MOL0     H92279  11.564   6.014   6.376  1.2523 -0.1350  1.5882
  684MOL0     H92280  11.699   5.998   6.255  1.0533  0.6147  0.8694
  684MOL0     H92281  11.680   5.864   6.532 -0.0590  1.2344  0.8818
  684MOL0     H92282  11.815   5.852   6.406 -1.0709 -3.4570  3.0454
  684MOL0     H92283  11.894   6.013   6.575  0.7261  1.8791  0.1946
  684MOL0     H92284  11.853   6.095   6.421  0.1705  1.2115 -0.4745
  684MOL0     H92285  11.627   6.137   6.534  1.3189  2.5292 -1.4601
  684MOL0     H92286  11.695   6.056   6.679  0.2260  1.0949  0.3027
  684MOL0     H92287  11.845   6.232   6.732 -0.8822  1.4094  1.7792
  684MOL0     H92288  11.687   6.299   6.712 -0.2229 -2.8224  0.0148
  684MOL0     H92289  11.856   6.427   6.598  3.8585 -1.9021  2.8851
  684MOL0     H92290  11.909   6.282   6.509 -1.6767 -1.0325 -0.2650
  684MOL0     H92291  11.613   6.497   6.589 -2.1019 -0.4382 -0.9491
  684MOL0     H92292  11.521   6.704   6.402  2.4337 -1.0965 -0.8810
  684MOL0     H92293  11.479   6.658   6.241  1.0505  2.0710  1.0447
  684MOL0     H92294  11.338   6.474   6.339  0.7618  1.6396 -2.1849
  684MOL0     H92295  11.349   6.541   6.493  0.5875 -1.2014  0.0400
  684MOL0     H92296  11.183   6.631   6.248 -2.9671  2.8459 -0.0978
  684MOL0     H92297  11.287   6.761   6.317  0.7420  0.3522  2.8206
  684MOL0     H92298  11.077   6.782   6.416  4.1296  2.0931 -0.1604
  684MOL0     H92299  11.187   6.713   6.533  3.5226  0.1666 -2.2894
  684MOL0     H92300  10.805   6.709   6.520 -0.9341  1.0890 -0.5977
  684MOL0     H92301  10.611   6.687   6.393 -0.9924 -1.3160 -1.0179
  684MOL0     H92302  10.611   6.709   5.854  2.0228 -3.3977  0.9668
  684MOL0     H92303  10.430   6.776   5.691  1.1149 -0.4452 -0.1689
  684MOL0     H92304  10.279   6.770   5.509  1.7139 -0.3419  2.2102
  684MOL0     H92305  10.319   6.599   5.496 -0.1762  0.5657 -1.5968
  684MOL0     H92306  10.068   6.750   5.422  1.1443  1.6327 -1.1938
  684MOL0     H92307  10.178   6.674   5.320  1.9519  0.3575  1.4505
  684MOL0     H92308  10.070   6.438   5.419 -2.0170 -0.8070  0.2083
  684MOL0     H92309  10.005   6.536   5.544 -1.3102 -1.2550 -0.5738
  684MOL0     H92310   9.972   6.549   5.237 -2.1897  0.7218 -1.7979
  684MOL0     H92311   9.901   6.672   5.341  2.4181  0.7760  2.0416
  684MOL0     H92312   9.778   6.496   5.468  1.2602 -0.8226  0.7061
  684MOL0     H92313   9.827   6.368   5.373  0.4696  0.1785  0.3347
  684MOL0     H92314   9.601   6.445   5.305 -0.0480 -1.1210  1.4270
  684MOL0     H92315   9.653   6.609   5.281 -2.1631 -0.5988  0.4598
  684MOL0     H92316   9.732   6.364   5.120  1.1710 -0.1828 -0.5077
  684MOL0     H92317   9.796   6.532   5.094 -0.8346  0.3235 -2.3149
  684MOL0     H92318   9.528   6.411   5.046  1.0417 -0.3728  3.7102
  684MOL0     H92319   9.553   6.597   5.047 -2.2367 -1.2306  2.0447
  684MOL0     H92320  10.163   6.489   5.859  0.2351  0.7910 -0.3729
  684MOL0     H92321  10.341   6.422   6.028 -0.4149  0.0335  0.4603
  684MOL0     H92322  10.814   6.431   6.106  2.0235 -2.8663  0.9780
  684MOL0     H92323  11.003   6.433   6.239  1.7753  2.1441 -1.6137
  684MOL0     H92324  11.215   5.926   6.127 -1.0334  1.4771 -0.4144
  684MOL0     H92325  11.070   6.020   5.944 -0.2791 -0.4748 -1.5998
  684MOL0     H92326  11.032   6.557   5.825  0.3083  2.2054 -1.2623
  684MOL0     H92327  10.907   6.692   5.661  2.9514  0.3960 -1.1995
  684MOL0     H92328  10.815   6.785   5.512 -1.7501  2.6445 -0.5051
  684MOL0     H92329  10.659   6.699   5.540 -0.1303  3.9926  1.2384
  684MOL0     H92330  10.738   6.769   5.259  0.7165 -2.7060  1.1630
  684MOL0     H92331  10.634   6.873   5.383 -1.6711 -0.0155 -0.6577
  684MOL0     H92332  10.498   6.741   5.200  2.2843 -1.0884 -1.4967
  684MOL0     H92333  10.457   6.739   5.368 -1.5614 -0.1622 -3.5347
  684MOL0     H92334  10.633   6.535   5.230  0.3465  0.9394  0.3420
  684MOL0     H92335  10.571   6.511   5.386  2.4463  0.0160 -0.6231
  684MOL0     H92336  10.198   6.458   5.185  0.6682 -1.5971 -0.7448
  684MOL0     H92337  10.862   6.358   5.396  2.6417 -0.9910 -0.1568
  684MOL0     H92338  11.040   6.171   5.450  0.4240  0.3175  1.0858
  684MOL0     H92339  11.006   6.095   5.604  0.3119 -0.1545 -0.5375
  684MOL0     H92340  10.872   6.134   5.502 -0.3598  1.7738 -2.2777
  685MOL0     O92341   5.996   4.605   4.229 -0.0559 -1.3953  1.0866
  685MOL0     C92342   6.088   4.629   4.310  0.4268 -1.6544 -0.7459
  685MOL0     O92343   6.116   4.559   4.426  0.3888  0.6920 -0.5325
  685MOL0     C92344   6.022   4.465   4.472 -0.0541 -0.6287  0.3576
  685MOL0     C92345   5.946   4.512   4.586 -1.2912 -0.0372  0.3794
  685MOL0     C92346   5.858   4.420   4.653  0.3192  0.5828 -0.4042
  685MOL0     C92347   5.837   4.290   4.590  0.1129  0.0780  0.1201
  685MOL0     O92348   5.754   4.205   4.665  0.0313  0.6035 -0.6901
  685MOL0     C92349   5.727   4.078   4.599 -0.6217  0.0642  0.3746
  685MOL0     C92350   5.638   3.991   4.688 -0.1857  1.3785 -0.1014
  685MOL0     C92351   5.601   3.873   4.603  0.0612 -0.8463  1.0450
  685MOL0     C92352   5.453   3.865   4.559  0.2811  0.6321 -0.6502
  685MOL0     C92353   5.348   3.816   4.669  0.4449  0.5516  0.5382
  685MOL0     C92354   5.381   3.664   4.710 -0.5062 -0.1435  0.0000
  685MOL0     C92355   5.258   3.584   4.751  0.5297 -0.2396  0.4811
  685MOL0     C92356   5.175   3.615   4.878 -0.2741 -0.2080 -0.4069
  685MOL0     N92357   5.264   3.632   4.998 -0.5893  0.0718 -0.6869
  685MOL0     C92358   5.322   3.745   5.055  0.3657  0.3186  0.3274
  685MOL0     C92359   5.424   3.697   5.122 -0.7419 -0.5735  0.0953
  685MOL0     C92360   5.523   3.781   5.201  0.3302  0.2061  0.0071
  685MOL0     C92361   5.635   3.832   5.109  0.7291  0.1334  0.2911
  685MOL0     C92362   5.747   3.725   5.089  0.4733 -0.0560 -1.0670
  685MOL0     C92363   5.868   3.784   5.014 -0.2623 -0.9419 -0.0206
  685MOL0     O92364   5.921   3.906   5.070 -0.0687  0.0298 -0.4767
  685MOL0     C92365   6.025   3.967   5.012 -0.6226  0.6001 -0.3347
  685MOL0     C92366   6.037   4.011   4.875  0.4870  0.4249 -0.7431
  685MOL0     C92367   6.159   4.077   4.835 -0.4822 -0.0196  0.0615
  685MOL0     C92368   6.265   4.109   4.924  0.9605 -0.0674  0.0805
  685MOL0     C92369   6.394   4.166   4.879  0.7583  0.0755  0.8050
  685MOL0     O92370   6.404   4.212   4.748 -0.1285 -0.4254  0.1393
  685MOL0     C92371   6.523   4.264   4.692 -0.6986  0.8996 -0.6886
  685MOL0     C92372   6.500   4.383   4.616  0.2716  0.1279  0.1507
  685MOL0     C92373   6.609   4.441   4.547 -0.0726  0.0087  0.0352
  685MOL0     C92374   6.741   4.391   4.565  0.7953 -0.0734 -0.6600
  685MOL0     O92375   6.854   4.447   4.514 -0.0791  0.9078 -0.4564
  685MOL0     C92376   6.870   4.589   4.543 -0.1108  0.0625 -0.4177
  685MOL0     C92377   6.933   4.661   4.426 -0.1175  0.3373  0.6656
  685MOL0     C92378   7.058   4.592   4.365 -0.3192  0.2812  0.1860
  685MOL0     C92379   7.189   4.602   4.437 -0.5090  0.3829 -1.1774
  685MOL0     C92380   7.231   4.733   4.504  0.4566  0.4474 -0.1482
  685MOL0     C92381   7.376   4.728   4.529 -0.2568  0.0361  0.2174
  685MOL0     C92382   7.413   4.848   4.623 -1.0364  0.3206  0.0709
  685MOL0     C92383   7.501   4.962   4.560 -0.5826 -0.5373 -0.0332
  685MOL0    Cl92384   7.651   4.905   4.491 -0.5655  0.1503  0.7040
  685MOL0     C92385   6.760   4.275   4.643  0.1529 -0.3056  0.6404
  685MOL0     C92386   6.652   4.209   4.712  0.8619  0.4570 -0.2621
  685MOL0     O92387   6.476   4.183   4.962  0.3718  0.0747  0.3755
  685MOL0     C92388   6.245   4.065   5.058  0.5321 -0.2467 -0.2223
  685MOL0     C92389   6.125   4.002   5.099 -0.8633  0.6492  0.0832
  685MOL0     N92390   5.435   3.565   5.110 -0.7224 -0.2673 -0.5475
  685MOL0     N92391   5.332   3.520   5.047  0.4004  0.5394  0.8425
  685MOL0     C92392   5.902   4.262   4.466 -0.0414 -0.5736 -0.3138
  685MOL0     C92393   5.995   4.349   4.411 -0.7066  0.9608  0.1319
  685MOL0     C92394   6.163   4.758   4.296  0.1591  0.1937 -0.2717
  685MOL0     C92395   6.109   4.850   4.197  0.4964 -0.3710  0.5050
  685MOL0     C92396   6.170   4.968   4.176 -0.2024 -0.1283  0.0338
  685MOL0     C92397   6.285   4.997   4.243  0.1131 -1.6670  0.3001
  685MOL0     O92398   6.361   5.112   4.211  0.1953 -1.1358  0.7357
  685MOL0     C92399   6.299   5.237   4.251 -0.3471  0.2878 -0.3336
  685MOL0     C92400   6.415   5.330   4.282  0.2403 -0.1890  0.0590
  685MOL0     C92401   6.539   5.341   4.194  0.2558 -0.2651  0.0908
  685MOL0     C92402   6.655   5.248   4.241  0.1089  0.1860 -0.1339
  685MOL0     C92403   6.764   5.258   4.143 -0.7635 -0.5213 -0.8363
  685MOL0     C92404   6.866   5.277   4.080  0.4686 -1.1750 -0.0466
  685MOL0     C92405   6.344   4.913   4.334 -0.0634  0.9836 -0.2658
  685MOL0     C92406   6.282   4.782   4.359  0.2104  0.4056 -0.0238
  685MOL0     C92407   6.365   4.689   4.434  0.0643 -0.4801  0.2541
  685MOL0     H92408   5.979   4.609   4.622  1.0698  0.8226 -3.5691
  685MOL0     H92409   5.825   4.439   4.754  0.0797  1.1660 -0.5889
  685MOL0     H92410   5.668   4.096   4.508 -2.4445  0.8866  1.6486
  685MOL0     H92411   5.823   4.034   4.571 -0.9833  0.3022 -1.3445
  685MOL0     H92412   5.545   4.029   4.733 -0.0127  2.7237 -0.8355
  685MOL0     H92413   5.700   3.964   4.774  2.4957 -0.0980 -2.3385
  685MOL0     H92414   5.628   3.777   4.647  1.9122  0.2832  2.5249
  685MOL0     H92415   5.648   3.871   4.505  0.4997  1.6362  1.1315
  685MOL0     H92416   5.433   3.972   4.542  2.4896  1.3428  0.7669
  685MOL0     H92417   5.444   3.800   4.472 -0.2677 -3.3820  2.1312
  685MOL0     H92418   5.346   3.887   4.752 -0.8191 -0.4270  1.3838
  685MOL0     H92419   5.247   3.824   4.627 -0.6329 -0.2002  2.8231
  685MOL0     H92420   5.420   3.604   4.627  0.4704 -4.8243  3.4381
  685MOL0     H92421   5.460   3.659   4.786  0.2569 -3.7190 -0.8673
  685MOL0     H92422   5.293   3.480   4.757 -0.7493 -0.7764 -0.8353
  685MOL0     H92423   5.189   3.574   4.667 -0.3760  0.5738  1.1098
  685MOL0     H92424   5.121   3.710   4.870 -0.2503 -0.0686  0.9255
  685MOL0     H92425   5.104   3.532   4.886 -2.4606  1.7410  1.8287
  685MOL0     H92426   5.278   3.844   5.062 -1.4706 -0.2078 -2.3517
  685MOL0     H92427   5.473   3.862   5.255 -0.4722  0.5939 -1.2621
  685MOL0     H92428   5.563   3.719   5.282 -1.9030 -0.5492  0.6161
  685MOL0     H92429   5.594   3.867   5.014  0.5320 -0.1573  0.2670
  685MOL0     H92430   5.692   3.911   5.158  0.6689 -0.4827  1.4051
  685MOL0     H92431   5.707   3.641   5.032 -3.5497  1.3021 -0.5652
  685MOL0     H92432   5.797   3.686   5.179  2.6941 -2.6059 -3.2264
  685MOL0     H92433   5.836   3.807   4.912 -1.6296 -1.1170  0.3478
  685MOL0     H92434   5.942   3.704   5.010 -1.9193 -2.5263 -0.7670
  685MOL0     H92435   5.960   3.997   4.801 -0.7736 -0.6108  0.7123
  685MOL0     H92436   6.169   4.110   4.733  0.9119  0.8198  0.4384
  685MOL0     H92437   6.404   4.424   4.587  0.6116  0.3427 -0.6755
  685MOL0     H92438   6.598   4.519   4.472  1.5208 -0.3760 -0.6501
  685MOL0     H92439   6.782   4.646   4.574 -1.7579 -2.9751  0.9814
  685MOL0     H92440   6.937   4.584   4.629  0.0735  3.4477 -0.2514
  685MOL0     H92441   6.858   4.690   4.352 -1.4443 -0.7954  1.4968
  685MOL0     H92442   6.960   4.760   4.464 -4.3943  3.1291 -2.7041
  685MOL0     H92443   7.031   4.488   4.343 -0.6148  0.3987 -0.0100
  685MOL0     H92444   7.074   4.633   4.265  2.4561 -1.4387 -0.2063
  685MOL0     H92445   7.268   4.575   4.366 -2.6436  2.4013 -4.6237
  685MOL0     H92446   7.185   4.522   4.511  2.1774  0.9087 -0.3510
  685MOL0     H92447   7.176   4.748   4.597  0.0928 -0.8967 -0.1304
  685MOL0     H92448   7.215   4.817   4.435 -1.2775  0.4504  0.2127
  685MOL0     H92449   7.403   4.634   4.579 -1.6484 -1.2383 -1.2736
  685MOL0     H92450   7.419   4.738   4.429 -2.2899 -1.4594 -0.9089
  685MOL0     H92451   7.460   4.806   4.712 -2.7532  0.1114  0.9205
  685MOL0     H92452   7.327   4.900   4.667 -0.3544  3.6751 -2.1414
  685MOL0     H92453   7.448   5.028   4.490  1.3599 -1.1259 -2.1837
  685MOL0     H92454   7.525   5.027   4.644  3.7934  0.2597 -1.6572
  685MOL0     H92455   6.861   4.236   4.647  0.1946 -0.3289 -0.3504
  685MOL0     H92456   6.671   4.121   4.773 -2.0620  0.2599  0.4795
  685MOL0     H92457   6.328   4.093   5.121  1.4171  2.5245 -2.3957
  685MOL0     H92458   6.093   3.970   5.198 -2.4441 -2.5295 -1.3228
  685MOL0     H92459   5.901   4.165   4.417  0.7814 -1.4579  1.3470
  685MOL0     H92460   6.050   4.323   4.321 -0.2251 -1.9087  1.1626
  685MOL0     H92461   6.022   4.834   4.134  1.2162 -1.3935 -0.2797
  685MOL0     H92462   6.130   5.039   4.105  0.3581  1.1846  0.9950
  685MOL0     H92463   6.227   5.240   4.333 -1.1549  1.6851 -1.0489
  685MOL0     H92464   6.243   5.276   4.165 -0.4665  2.1266  0.5172
  685MOL0     H92465   6.450   5.313   4.384  1.7835  0.5072 -0.3229
  685MOL0     H92466   6.364   5.427   4.281  0.3881 -0.1015 -1.0173
  685MOL0     H92467   6.585   5.440   4.187  1.2390 -0.7685 -0.9227
  685MOL0     H92468   6.498   5.328   4.093 -1.5363 -1.6396  0.9357
  685MOL0     H92469   6.691   5.276   4.340  0.3667 -3.6535  1.0212
  685MOL0     H92470   6.621   5.144   4.244  2.4748 -0.6285  0.6291
  685MOL0     H92471   6.953   5.300   4.021 -0.8901  0.1450 -1.6248
  685MOL0     H92472   6.435   4.932   4.389 -0.4729 -0.7266  1.0793
  685MOL0     H92473   6.311   4.633   4.511  2.6402 -1.0960  1.7240
  685MOL0     H92474   6.399   4.631   4.348 -4.0873 -0.1420 -1.8448
  685MOL0     H92475   6.453   4.734   4.482  1.3639  0.7260 -2.9500
  686MOL0     O92476   5.793   3.904   9.102  0.2405 -0.6407 -0.4739
  686MOL0     C92477   5.764   4.022   9.091  0.1026  0.2553 -0.5404
  686MOL0     O92478   5.755   4.108   9.197  0.5082  0.3196  0.2756
  686MOL0     C92479   5.771   4.059   9.324  0.1466  0.7587  0.5188
  686MOL0     C92480   5.669   3.984   9.387 -0.2177  0.5748  0.9606
  686MOL0     C92481   5.684   3.935   9.514  0.5875  0.7284 -0.6301
  686MOL0     C92482   5.798   3.966   9.589  0.2166 -0.1986 -0.2624
  686MOL0     O92483   5.830   3.914   9.719 -0.6037 -0.4228  0.3439
  686MOL0     C92484   5.813   3.775   9.740  0.2809  0.0414 -0.6086
  686MOL0     C92485   5.891   3.716   9.855  0.3966 -0.5587  0.2202
  686MOL0     C92486   5.850   3.567   9.864 -0.5334  0.3279  0.1704
  686MOL0     C92487   5.797   3.533  10.006 -0.2758  0.0557 -0.6364
  686MOL0     C92488   5.794   3.384  10.007 -0.6199 -0.7172 -0.0482
  686MOL0     C92489   5.778   3.343  10.160 -0.1173  0.2093 -0.2067
  686MOL0     C92490   5.694   3.218  10.187 -0.5281 -0.2194  0.3322
  686MOL0     C92491   5.766   3.098  10.116 -0.3384  0.7553  0.1115
  686MOL0     N92492   5.676   2.987  10.101 -0.1355  0.1656 -0.1841
  686MOL0     C92493   5.600   2.940   9.995 -0.1411  0.4183  0.3933
  686MOL0     C92494   5.549   2.820  10.033 -0.0314 -0.9300 -0.3024
  686MOL0     C92495   5.468   2.735   9.943  0.4867 -0.6119  0.1709
  686MOL0     C92496   5.356   2.801   9.868  0.7171  0.6977  0.2558
  686MOL0     C92497   5.232   2.830   9.951 -0.2474 -0.7307 -0.0421
  686MOL0     C92498   5.117   2.846   9.851  0.0531 -0.3523  0.0114
  686MOL0     O92499   5.147   2.964   9.775  0.0678  0.8660  0.3860
  686MOL0     C92500   5.078   2.973   9.654 -0.4152  0.5777  0.3604
  686MOL0     C92501   5.112   3.079   9.576  0.1555  0.6450 -0.2624
  686MOL0     C92502   5.061   3.108   9.454 -0.8802 -0.1837  0.5644
  686MOL0     C92503   4.973   3.017   9.393  1.6243 -0.4314 -0.3784
  686MOL0     C92504   4.928   3.037   9.249 -0.1775  0.1093 -0.8812
  686MOL0     O92505   4.971   3.144   9.189  0.4600 -0.6680 -0.2431
  686MOL0     C92506   4.913   3.206   9.082 -0.1016 -0.1943 -0.2156
  686MOL0     C92507   4.804   3.282   9.110  0.0510 -0.0501  0.2005
  686MOL0     C92508   4.746   3.362   9.010  0.2201  0.2547  0.1938
  686MOL0     C92509   4.792   3.337   8.877 -0.0575  0.7029 -0.0454
  686MOL0     O92510   4.721   3.403   8.780  0.4221 -0.1121  0.6725
  686MOL0     C92511   4.794   3.446   8.669 -0.5268 -0.1437  0.3188
  686MOL0     C92512   4.747   3.569   8.607  0.4089  0.0577  0.6835
  686MOL0     C92513   4.821   3.702   8.645  0.1402 -0.2170  1.1132
  686MOL0     C92514   4.736   3.824   8.624  0.2303 -0.3564 -0.2586
  686MOL0     C92515   4.808   3.951   8.676 -0.4464  0.9748 -0.0318
  686MOL0     C92516   4.798   3.987   8.821  0.7365 -0.9530  0.0699
  686MOL0     C92517   4.870   4.126   8.849 -0.8302  0.6512 -0.3674
  686MOL0     C92518   4.866   4.163   8.995  0.0339 -0.5074 -1.3420
  686MOL0    Cl92519   4.983   4.288   9.041 -0.5924 -0.4743 -0.5956
  686MOL0     C92520   4.896   3.248   8.849 -0.5061  0.0519  0.6647
  686MOL0     C92521   4.961   3.180   8.951  0.5777 -0.5919  0.2348
  686MOL0     O92522   4.840   2.965   9.199 -0.4308  0.3814  0.7541
  686MOL0     C92523   4.935   2.901   9.471 -0.2129  0.8352 -0.6354
  686MOL0     C92524   4.982   2.887   9.605 -0.3953  0.7038 -0.0152
  686MOL0     N92525   5.594   2.799  10.166  0.3897 -0.0748  0.6251
  686MOL0     N92526   5.680   2.889  10.201  0.0902  0.2688 -0.1685
  686MOL0     C92527   5.896   4.051   9.529 -0.1883  1.2181  0.3233
  686MOL0     C92528   5.883   4.090   9.396 -1.2797  0.3134  0.4039
  686MOL0     C92529   5.758   4.082   8.957 -0.2069  1.2934  1.5664
  686MOL0     C92530   5.764   3.992   8.840  0.1137  0.5101 -0.0706
  686MOL0     C92531   5.745   4.033   8.708 -1.0071  0.3383 -0.2557
  686MOL0     C92532   5.745   4.169   8.684  0.3458 -0.0914  0.8620
  686MOL0     O92533   5.750   4.226   8.559 -0.0717 -0.4839  0.2070
  686MOL0     C92534   5.842   4.174   8.460 -1.0775 -0.2499  0.7368
  686MOL0     C92535   5.985   4.155   8.518 -0.5890 -0.1863  1.6494
  686MOL0     C92536   6.087   4.132   8.402  0.3467 -0.4706 -0.1153
  686MOL0     C92537   6.233   4.132   8.429 -0.8078 -0.4826 -0.2461
  686MOL0     C92538   6.305   4.135   8.294  0.1963 -0.0424  0.7436
  686MOL0     C92539   6.370   4.130   8.194 -0.3655 -0.1129 -0.2476
  686MOL0     C92540   5.742   4.264   8.787 -0.3049  0.6042  0.4479
  686MOL0     C92541   5.751   4.225   8.922 -0.6275  0.3262 -0.3356
  686MOL0     C92542   5.732   4.331   9.023 -0.3119  0.7961  0.3285
  686MOL0     H92543   5.583   3.957   9.327  0.6037  2.5372 -1.2449
  686MOL0     H92544   5.612   3.867   9.557  1.9629  0.4269  1.3436
  686MOL0     H92545   5.705   3.758   9.739 -0.4364  3.6213  1.2166
  686MOL0     H92546   5.856   3.723   9.654  0.4998  0.7045 -0.9111
  686MOL0     H92547   5.870   3.771   9.947 -0.1708 -2.2475  1.1362
  686MOL0     H92548   6.001   3.721   9.850  0.3812 -0.6419 -0.2423
  686MOL0     H92549   5.942   3.510   9.849 -1.0545 -0.4249 -0.2618
  686MOL0     H92550   5.780   3.532   9.788  2.0839  0.1628 -2.3017
  686MOL0     H92551   5.864   3.574  10.082  0.2756  0.3132 -1.2615
  686MOL0     H92552   5.707   3.595  10.018  0.5535  1.5299 -1.7425
  686MOL0     H92553   5.711   3.342   9.949  0.9830  0.3422 -3.3484
  686MOL0     H92554   5.888   3.345   9.967  0.9485  1.1181  1.6412
  686MOL0     H92555   5.877   3.340  10.206 -1.4468  0.1198  2.8938
  686MOL0     H92556   5.711   3.414  10.208  1.2997  0.2767  1.7602
  686MOL0     H92557   5.595   3.218  10.141  0.6453 -1.0903 -2.3583
  686MOL0     H92558   5.687   3.195  10.294  0.1704 -1.8521  0.0589
  686MOL0     H92559   5.812   3.127  10.021  1.9001 -0.9392  0.6006
  686MOL0     H92560   5.846   3.065  10.184 -0.6309  2.3221  1.2852
  686MOL0     H92561   5.589   2.995   9.902 -0.1781  1.3276  0.9229
  686MOL0     H92562   5.529   2.675   9.875 -4.0351 -2.5049 -2.6657
  686MOL0     H92563   5.420   2.661  10.007 -2.6332  2.0085  1.1405
  686MOL0     H92564   5.388   2.888   9.811 -0.7002  0.6129 -0.7184
  686MOL0     H92565   5.316   2.727   9.798  0.6880  0.0201  0.9655
  686MOL0     H92566   5.243   2.917  10.016  2.7268 -0.8096 -0.2978
  686MOL0     H92567   5.215   2.749  10.022  1.1196  0.3652  1.6112
  686MOL0     H92568   5.028   2.849   9.916  0.3429 -2.2620  0.5564
  686MOL0     H92569   5.112   2.763   9.781  0.8653 -0.4024  0.0067
  686MOL0     H92570   5.178   3.148   9.627 -1.8548  2.0983  0.5157
  686MOL0     H92571   5.106   3.198   9.412 -0.9578 -0.6578 -0.5727
  686MOL0     H92572   4.763   3.291   9.210 -1.6223  3.7537 -0.6432
  686MOL0     H92573   4.666   3.424   9.048  0.8487  0.3690  1.3612
  686MOL0     H92574   4.903   3.454   8.674 -0.5638  0.1791  0.6537
  686MOL0     H92575   4.795   3.371   8.590 -0.8989  0.1554  0.0252
  686MOL0     H92576   4.774   3.551   8.502  1.9930 -1.0102  1.2384
  686MOL0     H92577   4.639   3.575   8.622  0.4017  0.4866  0.5028
  686MOL0     H92578   4.851   3.712   8.749  0.0502  1.4741  0.9968
  686MOL0     H92579   4.909   3.716   8.582  0.0890  3.7056  1.6937
  686MOL0     H92580   4.636   3.805   8.665 -0.3607 -0.3206 -1.6179
  686MOL0     H92581   4.724   3.847   8.518 -2.7101  1.3943  0.3344
  686MOL0     H92582   4.756   4.031   8.622 -2.3995 -0.6504 -0.6897
  686MOL0     H92583   4.910   3.943   8.637 -0.5287  2.1030 -0.5156
  686MOL0     H92584   4.698   3.981   8.863  1.6971 -1.8912  2.3708
  686MOL0     H92585   4.867   3.917   8.868  0.8459 -0.5783  0.4766
  686MOL0     H92586   4.823   4.204   8.788 -0.5784  0.8691 -0.2813
  686MOL0     H92587   4.973   4.122   8.813 -1.0673  0.6063 -1.0567
  686MOL0     H92588   4.767   4.196   9.025  1.0353  0.9061  0.7034
  686MOL0     H92589   4.899   4.074   9.050  3.1726  0.4719 -1.4178
  686MOL0     H92590   4.955   3.246   8.758  0.6674  1.5511  1.3472
  686MOL0     H92591   5.047   3.114   8.944  0.8452 -0.5732  2.5668
  686MOL0     H92592   4.865   2.827   9.433 -1.9410  0.9543  2.0355
  686MOL0     H92593   4.943   2.812   9.673 -1.7766  1.9732  0.6592
  686MOL0     H92594   5.983   4.085   9.584 -1.2296  0.6149  2.4334
  686MOL0     H92595   5.957   4.151   9.346 -0.9466 -0.1878  0.2778
  686MOL0     H92596   5.782   3.886   8.858 -0.3709  0.4594  0.1414
  686MOL0     H92597   5.734   3.957   8.631 -2.6434 -0.4238  0.6767
  686MOL0     H92598   5.855   4.250   8.382  0.0717  0.5166  1.6275
  686MOL0     H92599   5.789   4.084   8.429 -1.7396 -0.0468  1.2342
  686MOL0     H92600   5.983   4.061   8.574  0.2768 -0.5921  1.0260
  686MOL0     H92601   6.021   4.242   8.575  4.1691  0.3466 -1.5475
  686MOL0     H92602   6.075   4.215   8.330  4.0354  2.9060  2.6905
  686MOL0     H92603   6.075   4.038   8.347  2.9427 -0.6730 -0.4775
  686MOL0     H92604   6.262   4.219   8.489  2.5579 -2.6184  1.5967
  686MOL0     H92605   6.258   4.043   8.488  1.9630  1.5377  1.9005
  686MOL0     H92606   6.412   4.114   8.097 -0.0238 -1.5328  0.1016
  686MOL0     H92607   5.735   4.367   8.754 -0.8491  0.2294 -0.6585
  686MOL0     H92608   5.813   4.331   9.097 -0.9734 -1.4045  1.1036
  686MOL0     H92609   5.735   4.434   8.984 -0.7412  0.3529 -0.9056
  686MOL0     H92610   5.634   4.317   9.070 -1.0774 -0.5784 -1.5773
  687MOL0     O92611   1.814   3.305   6.637 -0.2125  0.4720  0.8298
  687MOL0     C92612   1.821   3.401   6.562 -0.4353  0.0480  0.2817
  687MOL0     O92613   1.740   3.428   6.458 -0.2807 -0.2542  0.3383
  687MOL0     C92614   1.645   3.341   6.418 -0.0020 -0.6388 -1.1375
  687MOL0     C92615   1.550   3.270   6.509 -0.1386 -0.2617 -0.2712
  687MOL0     C92616   1.465   3.169   6.468 -0.1087  0.2164 -0.0890
  687MOL0     C92617   1.465   3.132   6.333 -0.3076 -0.2026  0.0847
  687MOL0     O92618   1.395   3.031   6.274  0.4565  0.1356 -0.3509
  687MOL0     C92619   1.274   2.967   6.335  0.5798  0.4446 -0.1132
  687MOL0     C92620   1.237   2.848   6.239 -0.4647  0.0187  0.1997
  687MOL0     C92621   1.154   2.736   6.303  0.8696  0.3917 -0.5092
  687MOL0     C92622   1.005   2.770   6.319 -0.1615  0.5855 -0.0315
  687MOL0     C92623   0.916   2.641   6.345 -0.2717 -0.3452  0.4560
  687MOL0     C92624   0.961   2.558   6.463 -0.0729 -0.2043  0.4305
  687MOL0     C92625   0.849   2.448   6.488  0.2369 -0.6912  0.0112
  687MOL0     C92626   0.891   2.347   6.601  0.6634 -0.1900  0.1450
  687MOL0     N92627   0.799   2.230   6.619  0.5997 -0.0319 -0.2144
  687MOL0     C92628   0.670   2.227   6.581  0.1942  0.7313 -0.0669
  687MOL0     C92629   0.627   2.105   6.609  0.1077  0.1839 -0.0435
  687MOL0     C92630   0.492   2.056   6.564 -0.5896 -0.4497  0.0318
  687MOL0     C92631   0.467   2.085   6.421  0.1103 -0.1094  0.4210
  687MOL0     C92632   0.560   2.003   6.334  0.3713  0.2657 -0.1583
  687MOL0     C92633   0.514   2.016   6.187 -0.5579  0.1967 -1.0737
  687MOL0     O92634   0.514   2.153   6.164 -0.3018 -0.4767  0.1401
  687MOL0     C92635   0.612   2.225   6.107  0.5318  0.1274 -0.1857
  687MOL0     C92636   0.602   2.364   6.131  0.2307 -1.4879  0.3187
  687MOL0     C92637   0.707   2.446   6.079  0.4658  0.2465 -0.0362
  687MOL0     C92638   0.812   2.397   5.996 -1.4098  0.6673 -0.7647
  687MOL0     C92639   0.921   2.489   5.933  0.2835  0.1935 -0.2684
  687MOL0     O92640   1.016   2.434   5.857 -0.2023 -0.0190 -0.0820
  687MOL0     C92641   1.136   2.507   5.874 -0.0567  0.1019  0.6266
  687MOL0     C92642   1.212   2.519   5.990  0.5335  0.1365 -0.0351
  687MOL0     C92643   1.347   2.567   5.990 -0.3104 -0.3451 -0.1296
  687MOL0     C92644   1.394   2.640   5.879  0.8033  0.5191 -0.3841
  687MOL0     O92645   1.520   2.699   5.891 -0.1646  0.0652  0.7422
  687MOL0     C92646   1.564   2.781   5.775 -0.1667 -0.1739 -1.8379
  687MOL0     C92647   1.693   2.857   5.826  0.5546 -0.1045  0.6185
  687MOL0     C92648   1.752   2.940   5.713 -0.1309  0.0903  0.3781
  687MOL0     C92649   1.891   2.974   5.735 -0.6946  1.0683 -0.0552
  687MOL0     C92650   1.954   3.016   5.599 -0.0434 -0.4144  0.5435
  687MOL0     C92651   2.105   3.012   5.602  0.8085  0.3092 -0.4950
  687MOL0     C92652   2.161   3.088   5.488  0.6020  0.1127 -0.7009
  687MOL0     C92653   2.153   3.239   5.502 -0.5850  0.4518  0.7640
  687MOL0    Cl92654   2.206   3.305   5.347  0.1372  0.0885 -0.1208
  687MOL0     C92655   1.310   2.648   5.767 -0.0805  0.1559  0.6019
  687MOL0     C92656   1.183   2.578   5.766  0.0096  0.3721 -0.4001
  687MOL0     O92657   0.911   2.610   5.957 -0.3846 -0.1083  0.1817
  687MOL0     C92658   0.812   2.256   5.977 -0.7625  0.3483 -0.1529
  687MOL0     C92659   0.716   2.170   6.027 -0.5518 -0.0060 -0.2121
  687MOL0     N92660   0.728   2.031   6.669  0.1046  0.4444  0.1732
  687MOL0     N92661   0.840   2.105   6.666 -0.4916 -0.3414 -0.4108
  687MOL0     C92662   1.557   3.192   6.242  1.3102 -0.0272 -1.0579
  687MOL0     C92663   1.641   3.300   6.284  0.1983 -0.3440 -0.0452
  687MOL0     C92664   1.938   3.501   6.591 -0.2169  0.4679  0.7612
  687MOL0     C92665   1.964   3.600   6.491  0.3278 -0.9231 -0.2053
  687MOL0     C92666   2.064   3.690   6.500 -0.1906 -0.2892  0.2623
  687MOL0     C92667   2.161   3.684   6.595  0.2135  0.5116 -0.1500
  687MOL0     O92668   2.262   3.772   6.588  0.5257  0.0014  0.0094
  687MOL0     C92669   2.360   3.774   6.706  0.5879 -0.2365  0.9027
  687MOL0     C92670   2.467   3.872   6.687 -0.5182 -0.0940  0.0192
  687MOL0     C92671   2.601   3.829   6.633 -0.3094 -0.6210  0.5487
  687MOL0     C92672   2.708   3.950   6.633  0.2832 -1.0498  0.3702
  687MOL0     C92673   2.825   3.909   6.552 -0.5132 -0.9251 -0.5054
  687MOL0     C92674   2.919   3.863   6.490 -0.2049 -0.5842 -0.3718
  687MOL0     C92675   2.146   3.587   6.701  0.1550 -0.7525 -0.1273
  687MOL0     C92676   2.027   3.503   6.702 -0.5725 -0.3444  0.2406
  687MOL0     C92677   2.005   3.418   6.826 -0.0706  0.3861 -0.5521
  687MOL0     H92678   1.545   3.293   6.615 -2.8486  1.5873 -0.6684
  687MOL0     H92679   1.397   3.117   6.536 -1.5313 -4.1379 -4.2926
  687MOL0     H92680   1.293   2.939   6.439 -0.4959 -1.6049 -0.4085
  687MOL0     H92681   1.190   3.035   6.349 -0.6546 -1.3234  1.5973
  687MOL0     H92682   1.334   2.810   6.206 -1.0782  0.6123 -2.4600
  687MOL0     H92683   1.185   2.881   6.150  1.4961 -2.4063 -2.0097
  687MOL0     H92684   1.190   2.701   6.400 -0.2117 -1.7561 -0.8302
  687MOL0     H92685   1.155   2.648   6.238 -2.4109 -0.1971  0.0484
  687MOL0     H92686   0.991   2.847   6.396  0.3596  0.1178  0.5411
  687MOL0     H92687   0.969   2.803   6.221  2.0809 -2.0483 -1.9036
  687MOL0     H92688   0.810   2.665   6.352 -0.6709 -2.2047  1.6100
  687MOL0     H92689   0.923   2.580   6.254 -2.1582  3.4272 -2.4795
  687MOL0     H92690   1.056   2.506   6.446  0.3399 -0.0884  2.1704
  687MOL0     H92691   0.977   2.619   6.552  6.4678  1.1185 -1.1207
  687MOL0     H92692   0.846   2.383   6.400 -2.9540  1.3123 -1.5600
  687MOL0     H92693   0.751   2.495   6.501 -0.9249 -2.8867 -0.3204
  687MOL0     H92694   0.993   2.315   6.578  1.5794  2.2631  0.4984
  687MOL0     H92695   0.892   2.399   6.697  3.7658  3.1739 -1.4548
  687MOL0     H92696   0.615   2.304   6.529  0.9957  0.3157 -1.6161
  687MOL0     H92697   0.475   1.950   6.585  1.0502 -0.7115  0.2171
  687MOL0     H92698   0.408   2.103   6.617 -1.5781  0.4233 -2.2143
  687MOL0     H92699   0.366   2.070   6.381  1.0783  0.0947 -2.3146
  687MOL0     H92700   0.492   2.190   6.406  0.7945 -0.2592  0.4969
  687MOL0     H92701   0.553   1.898   6.362  0.0065  0.4329  0.3855
  687MOL0     H92702   0.658   2.050   6.346  0.7755 -0.2226 -1.3104
  687MOL0     H92703   0.411   1.984   6.171 -0.5328 -1.0828  1.0616
  687MOL0     H92704   0.585   1.955   6.130 -0.0420  4.0017 -5.1298
  687MOL0     H92705   0.529   2.409   6.198  1.0498  0.4183 -0.0048
  687MOL0     H92706   0.689   2.548   6.110 -3.2940 -1.2254  3.5752
  687MOL0     H92707   1.156   2.467   6.067 -3.3850  1.5383 -1.6635
  687MOL0     H92708   1.411   2.570   6.078 -3.9794  1.9420  2.8370
  687MOL0     H92709   1.577   2.714   5.690 -4.7316 -3.3975 -0.4218
  687MOL0     H92710   1.482   2.844   5.739  0.3694  1.1143 -0.8725
  687MOL0     H92711   1.671   2.928   5.906 -2.5797  2.8408 -2.4950
  687MOL0     H92712   1.764   2.778   5.851 -0.3340  0.0304  3.9345
  687MOL0     H92713   1.729   2.882   5.623 -0.2013 -1.4236  1.3352
  687MOL0     H92714   1.704   3.039   5.710  3.0120  1.7082 -1.0331
  687MOL0     H92715   1.942   2.885   5.773  0.6950  1.6525 -0.4492
  687MOL0     H92716   1.908   3.048   5.815  2.8630  2.3273 -1.7611
  687MOL0     H92717   1.924   3.121   5.591  2.0783  0.5074  3.0899
  687MOL0     H92718   1.914   2.957   5.516  0.6026 -1.7536  1.1656
  687MOL0     H92719   2.143   3.054   5.696  4.2771 -1.4812 -0.9356
  687MOL0     H92720   2.139   2.908   5.599  1.1384  0.1231  3.7097
  687MOL0     H92721   2.103   3.066   5.398 -2.1390  2.8946  0.1850
  687MOL0     H92722   2.258   3.043   5.466  0.3875 -0.1674 -1.0782
  687MOL0     H92723   2.050   3.276   5.508 -1.0611 -0.8871  1.1858
  687MOL0     H92724   2.218   3.274   5.582  0.1408  1.9733 -0.4393
  687MOL0     H92725   1.339   2.702   5.678  1.1439 -0.7931  0.3982
  687MOL0     H92726   1.129   2.574   5.671  0.1441 -0.5416 -0.4452
  687MOL0     H92727   0.899   2.214   5.928  0.5475 -0.5034  2.6517
  687MOL0     H92728   0.717   2.065   6.003 -0.4022  0.1430 -0.8807
  687MOL0     H92729   1.564   3.160   6.139  1.0015  1.1770 -1.4623
  687MOL0     H92730   1.704   3.346   6.208 -0.5773  1.2896  0.2772
  687MOL0     H92731   1.907   3.589   6.400  0.4787 -0.8773 -0.3051
  687MOL0     H92732   2.092   3.756   6.419  0.3827 -0.2581  0.4838
  687MOL0     H92733   2.389   3.670   6.728  1.8660  0.2577  1.6572
  687MOL0     H92734   2.309   3.800   6.799 -0.2507 -1.5553  0.8361
  687MOL0     H92735   2.490   3.908   6.787 -1.5332 -1.6678  0.8567
  687MOL0     H92736   2.437   3.957   6.625  1.6003  0.9280  0.2918
  687MOL0     H92737   2.580   3.779   6.538  0.9623  0.8899 -0.5650
  687MOL0     H92738   2.643   3.752   6.698  0.4010 -0.4419  0.3137
  687MOL0     H92739   2.675   4.048   6.600 -1.1741 -0.1931  3.9244
  687MOL0     H92740   2.736   3.983   6.734 -0.1336  1.6536 -0.3377
  687MOL0     H92741   3.005   3.832   6.434  3.0773 -1.0321  4.3122
  687MOL0     H92742   2.205   3.582   6.792  0.0309 -1.3165 -0.0748
  687MOL0     H92743   2.006   3.311   6.805 -0.6333 -0.0848  1.5561
  687MOL0     H92744   2.087   3.437   6.896 -0.9593  0.0416  0.6169
  687MOL0     H92745   1.911   3.440   6.878  0.7124  1.5651  0.4124
  688MOL0     O92746   3.622  10.372   2.840  0.0530 -0.0501  1.3447
  688MOL0     C92747   3.527  10.393   2.919 -0.9052 -0.0262  1.0242
  688MOL0     O92748   3.507  10.510   2.988 -0.1957 -0.5874  0.2792
  688MOL0     C92749   3.605  10.609   3.000  0.2946  0.9189 -0.1475
  688MOL0     C92750   3.743  10.584   2.994  0.6524 -0.1010  0.1412
  688MOL0     C92751   3.836  10.690   2.986  0.2582  0.2838 -0.2130
  688MOL0     C92752   3.793  10.823   3.006  0.4200  0.5441  0.2312
  688MOL0     O92753   3.894  10.906   3.036 -0.8208  0.8167  1.3636
  688MOL0     C92754   3.852  11.040   3.043  0.5197 -0.5173 -0.8119
  688MOL0     C92755   3.974  11.123   3.016 -0.6291  0.6437  0.3443
  688MOL0     C92756   4.055  11.093   2.889 -0.1597 -0.1835 -0.6185
  688MOL0     C92757   4.132  11.218   2.851  0.8745 -0.5169  0.4513
  688MOL0     C92758   4.229  11.197   2.732  0.2825 -0.0276 -0.1575
  688MOL0     C92759   4.157  11.200   2.593  0.5855  0.6092 -0.9381
  688MOL0     C92760   4.262  11.177   2.480 -0.6615 -0.6287  0.2267
  688MOL0     C92761   4.193  11.165   2.346 -0.9604  0.6797  0.1556
  688MOL0     N92762   4.283  11.104   2.246 -0.0394 -0.2328 -0.2999
  688MOL0     C92763   4.340  11.179   2.143  0.6512  0.0703 -0.2119
  688MOL0     C92764   4.414  11.090   2.086  0.5339  0.1314 -0.5441
  688MOL0     C92765   4.507  11.105   1.980  0.3016  1.1265 -0.7396
  688MOL0     C92766   4.437  11.133   1.841 -0.7670  0.6297 -0.5461
  688MOL0     C92767   4.311  11.224   1.829  0.4296 -0.1886 -0.2872
  688MOL0     C92768   4.255  11.211   1.694  0.2593  0.0367  0.5136
  688MOL0     O92769   4.241  11.348   1.649 -0.2567  0.8709 -0.1167
  688MOL0     C92770   4.267  11.377   1.523 -0.2485  0.4488 -0.2184
  688MOL0     C92771   4.277  11.296   1.407 -0.3627 -0.1542  0.1367
  688MOL0     C92772   4.274  11.353   1.279  0.7481  0.2364  0.3105
  688MOL0     C92773   4.273  11.490   1.266 -0.2547  0.4327 -0.3349
  688MOL0     C92774   4.251  11.561   1.130 -0.9356  0.3297  0.5056
  688MOL0     O92775   4.295  11.695   1.106  0.2340  0.4556 -0.3817
  688MOL0     C92776   4.216  11.779   1.034 -0.0829  0.0871  0.7893
  688MOL0     C92777   4.246  11.915   1.034  0.0291 -0.5805 -0.4821
  688MOL0     C92778   4.178  12.017   0.962  0.7354 -0.8199  0.3519
  688MOL0     C92779   4.072  11.988   0.883  0.7442 -0.1672 -0.4409
  688MOL0     O92780   4.009  12.074   0.796  0.2817  0.2888  0.1436
  688MOL0     C92781   4.006  12.215   0.831 -0.9413  0.5954 -0.8385
  688MOL0     C92782   3.999  12.315   0.712  0.1808  0.1699  1.0395
  688MOL0     C92783   3.867  12.293   0.629 -0.4416 -1.0474  0.8011
  688MOL0     C92784   3.828  12.389   0.517  0.0558  0.2086 -0.2626
  688MOL0     C92785   3.683  12.362   0.480 -0.5402  1.2174 -0.5630
  688MOL0     C92786   3.642  12.448   0.353 -0.4855  1.1524 -0.4515
  688MOL0     C92787   3.752  12.459   0.245 -0.5674 -0.0036 -0.0658
  688MOL0     C92788   3.725  12.545   0.127  0.1213  0.1798 -0.6577
  688MOL0    Cl92789   3.876  12.549   0.027  0.6231  0.0563  0.0892
  688MOL0     C92790   4.038  11.850   0.873  0.1885  0.4397  0.1445
  688MOL0     C92791   4.113  11.754   0.941  0.9329  1.3289 -0.0826
  688MOL0     O92792   4.199  11.489   1.042  0.1202  0.2875  0.4054
  688MOL0     C92793   4.269  11.568   1.376 -0.1608  0.5905 -0.7641
  688MOL0     C92794   4.266  11.513   1.508  0.2671  0.1275  0.5033
  688MOL0     N92795   4.414  10.971   2.159 -0.1859  0.8037 -0.1491
  688MOL0     N92796   4.338  10.982   2.258  0.0808 -0.5490  0.5199
  688MOL0     C92797   3.653  10.840   3.030  0.5776  0.1117 -0.2719
  688MOL0     C92798   3.558  10.738   3.024 -0.1063  0.5827 -0.2980
  688MOL0     C92799   3.432  10.286   2.954 -0.2707  0.4130 -0.0586
  688MOL0     C92800   3.300  10.297   2.913  0.2722  0.4091 -0.8849
  688MOL0     C92801   3.219  10.197   2.957 -0.0373  0.3120  0.3419
  688MOL0     C92802   3.266  10.087   3.027 -0.0808  0.1943  0.2047
  688MOL0     O92803   3.179   9.991   3.068 -0.0979 -0.2918 -0.3605
  688MOL0     C92804   3.173   9.864   2.995  0.2450 -0.5357 -0.6466
  688MOL0     C92805   3.039   9.832   2.908 -0.0885  0.0824  0.4108
  688MOL0     C92806   2.924   9.778   2.992  0.4273  0.4555  1.1174
  688MOL0     C92807   2.881   9.845   3.121 -0.4341 -0.4218  0.0642
  688MOL0     C92808   2.772   9.767   3.190  0.4187  0.3758  0.2111
  688MOL0     C92809   2.685   9.701   3.239 -0.8922  0.4044 -0.3469
  688MOL0     C92810   3.394  10.083   3.076 -0.2431 -0.2451 -0.3852
  688MOL0     C92811   3.485  10.174   3.031 -0.0018 -0.1215 -0.0902
  688MOL0     C92812   3.628  10.158   3.084 -0.2019  0.3410 -0.3929
  688MOL0     H92813   3.791  10.489   2.971  0.2906 -0.2186 -0.1490
  688MOL0     H92814   3.939  10.661   2.963 -0.4579  0.0530 -3.6685
  688MOL0     H92815   3.770  11.054   2.972 -0.0712  2.2732  0.2983
  688MOL0     H92816   3.817  11.062   3.144  0.7189 -0.0611 -0.8411
  688MOL0     H92817   4.043  11.115   3.101  1.4346  3.3782 -0.9324
  688MOL0     H92818   3.939  11.226   3.023 -1.1860  0.5057 -0.3299
  688MOL0     H92819   3.992  11.051   2.810  1.7177 -1.2747 -1.6018
  688MOL0     H92820   4.133  11.027   2.927  0.4500  0.4628 -0.7399
  688MOL0     H92821   4.065  11.302   2.826 -0.0311 -0.5409  2.6011
  688MOL0     H92822   4.194  11.250   2.935 -3.3484  0.1921  3.6575
  688MOL0     H92823   4.307  11.274   2.736 -0.8027  1.0707  2.4477
  688MOL0     H92824   4.287  11.105   2.744  0.3076 -0.0532 -0.4719
  688MOL0     H92825   4.076  11.126   2.599 -1.6090  2.7955 -2.0039
  688MOL0     H92826   4.103  11.291   2.566  0.9689  0.5598 -1.9145
  688MOL0     H92827   4.328  11.092   2.499 -1.0119 -0.9294  0.0974
  688MOL0     H92828   4.318  11.272   2.481 -0.5020 -0.5749  4.4891
  688MOL0     H92829   4.118  11.088   2.362 -1.3521  0.7374 -1.2721
  688MOL0     H92830   4.145  11.256   2.309 -0.6515  0.2824 -1.3146
  688MOL0     H92831   4.329  11.285   2.122  2.7863  0.0781 -1.7645
  688MOL0     H92832   4.564  11.195   2.004 -1.4420  1.9681  0.4208
  688MOL0     H92833   4.582  11.025   1.978 -0.1173  0.7358 -2.8770
  688MOL0     H92834   4.508  11.189   1.779 -0.9384  0.6171 -0.7572
  688MOL0     H92835   4.406  11.034   1.808  0.7526  0.1660 -0.6200
  688MOL0     H92836   4.344  11.327   1.845  2.7649 -0.8153 -0.6780
  688MOL0     H92837   4.235  11.199   1.904  2.3589 -4.1383  0.6270
  688MOL0     H92838   4.165  11.151   1.705  0.4349 -0.3148  0.0570
  688MOL0     H92839   4.322  11.154   1.629  0.2473 -1.5255  1.8123
  688MOL0     H92840   4.271  11.188   1.412 -2.0918 -0.0943  0.0615
  688MOL0     H92841   4.263  11.296   1.188 -3.2063 -0.4452  1.0050
  688MOL0     H92842   4.337  11.941   1.088  1.4772 -1.3144 -2.4433
  688MOL0     H92843   4.225  12.115   0.965  0.4646 -0.7109  2.6256
  688MOL0     H92844   3.922  12.231   0.899 -0.5423  1.2606 -0.4941
  688MOL0     H92845   4.091  12.256   0.888 -1.8715 -0.0013  1.0703
  688MOL0     H92846   3.993  12.413   0.761 -0.0235  0.7973 -0.2039
  688MOL0     H92847   4.081  12.328   0.640  1.2809 -0.6436  2.1106
  688MOL0     H92848   3.867  12.195   0.580 -1.1371 -1.9899  2.6051
  688MOL0     H92849   3.779  12.283   0.694 -1.2978 -1.0678 -0.3305
  688MOL0     H92850   3.892  12.366   0.431 -0.4403  0.7223 -0.7784
  688MOL0     H92851   3.850  12.493   0.541 -0.0330  1.1327 -3.6507
  688MOL0     H92852   3.611  12.372   0.562  0.7322 -1.3326  0.9674
  688MOL0     H92853   3.669  12.256   0.456  2.7208  0.5357  0.1344
  688MOL0     H92854   3.551  12.407   0.309 -0.6944  2.0473 -0.8713
  688MOL0     H92855   3.618  12.552   0.377  1.6403  1.7864 -0.8270
  688MOL0     H92856   3.780  12.357   0.216  0.6167 -0.1595  1.4912
  688MOL0     H92857   3.842  12.502   0.288  1.4638 -1.3119 -2.7195
  688MOL0     H92858   3.641  12.504   0.071 -1.0959 -1.9864  2.4952
  688MOL0     H92859   3.701  12.647   0.158  1.2346  0.5191 -0.8486
  688MOL0     H92860   3.961  11.813   0.805  0.6403  0.7803 -0.5606
  688MOL0     H92861   4.080  11.653   0.924  0.7403  1.5480 -1.0764
  688MOL0     H92862   4.279  11.676   1.383  3.9971  0.3857 -0.6241
  688MOL0     H92863   4.259  11.573   1.598  2.6535 -1.6274  1.9829
  688MOL0     H92864   3.626  10.936   3.075 -2.2096 -1.0666  0.7894
  688MOL0     H92865   3.457  10.740   3.061 -0.4842 -0.7798 -1.1888
  688MOL0     H92866   3.275  10.397   2.879 -0.3663  0.9421  0.9865
  688MOL0     H92867   3.112  10.217   2.944 -0.1751 -0.9781 -0.6461
  688MOL0     H92868   3.187   9.791   3.074  1.8259  0.0041 -0.4016
  688MOL0     H92869   3.260   9.853   2.929  0.6576  3.4056 -1.0033
  688MOL0     H92870   3.046   9.756   2.829 -4.5434  1.3273 -1.5132
  688MOL0     H92871   3.007   9.922   2.856 -4.1371 -0.4555  1.6264
  688MOL0     H92872   2.958   9.676   3.008 -0.9706 -0.4829 -1.3353
  688MOL0     H92873   2.836   9.774   2.928 -0.9606  1.7715  2.8313
  688MOL0     H92874   2.968   9.844   3.186  1.0210  1.6381 -1.7277
  688MOL0     H92875   2.838   9.945   3.114  1.5798  0.7260  2.7125
  688MOL0     H92876   2.602   9.655   3.289 -0.1291  0.0461  0.6229
  688MOL0     H92877   3.420   9.993   3.131  0.8171 -0.5744 -1.4057
  688MOL0     H92878   3.661  10.056   3.106  1.0120  1.0790  1.5291
  688MOL0     H92879   3.698  10.200   3.012  0.5300  0.0082  0.1124
  688MOL0     H92880   3.643  10.221   3.172  3.0235 -1.5598  0.5723
  689MOL0     O92881   2.466  11.048   7.521  0.4626  0.1461  0.5962
  689MOL0     C92882   2.587  11.050   7.515  0.2495 -0.0107  0.0897
  689MOL0     O92883   2.664  11.154   7.468 -0.4724  0.0148 -0.4358
  689MOL0     C92884   2.600  11.275   7.452 -0.4693 -0.5126 -0.8459
  689MOL0     C92885   2.620  11.332   7.328 -1.0279 -0.5263 -0.3816
  689MOL0     C92886   2.562  11.451   7.297  0.4255 -0.4236 -0.1793
  689MOL0     C92887   2.481  11.521   7.384  0.2526  0.0864  1.2064
  689MOL0     O92888   2.429  11.637   7.327 -0.0797 -0.5015 -0.3048
  689MOL0     C92889   2.315  11.694   7.397  0.6918  0.4184 -0.3648
  689MOL0     C92890   2.183  11.609   7.395  0.2874 -0.8422  0.1381
  689MOL0     C92891   2.059  11.700   7.403  1.4856 -0.7325  0.1786
  689MOL0     C92892   1.926  11.641   7.364 -0.3407 -0.0536  0.1209
  689MOL0     C92893   1.810  11.721   7.423  0.4109  0.3920  0.8398
  689MOL0     C92894   1.682  11.656   7.364 -1.0342  0.3578  0.0689
  689MOL0     C92895   1.561  11.726   7.416 -0.6095 -0.0559 -0.9826
  689MOL0     C92896   1.430  11.678   7.348  1.0147 -0.2810  0.4600
  689MOL0     N92897   1.298  11.709   7.409 -0.8906  0.2288  0.7605
  689MOL0     C92898   1.185  11.706   7.335 -0.1650 -0.8165 -0.1325
  689MOL0     C92899   1.085  11.716   7.433 -0.2047 -0.5371 -1.0689
  689MOL0     C92900   0.936  11.742   7.421  0.3349  0.3331 -0.1863
  689MOL0     C92901   0.885  11.678   7.288 -0.5789 -0.6843 -0.0993
  689MOL0     C92902   0.744  11.721   7.246 -0.5986  0.3622  0.3647
  689MOL0     C92903   0.700  11.625   7.136  0.1256 -1.1596  1.1315
  689MOL0     O92904   0.621  11.528   7.195 -0.0417  0.1629  0.1132
  689MOL0     C92905   0.582  11.428   7.109  0.9522  0.5329 -0.1544
  689MOL0     C92906   0.476  11.341   7.156 -0.6467 -0.5151 -0.1771
  689MOL0     C92907   0.428  11.230   7.085 -0.8431 -0.0178  0.6325
  689MOL0     C92908   0.470  11.204   6.956 -0.4316 -0.4002 -0.3928
  689MOL0     C92909   0.438  11.083   6.874 -0.7494 -0.2070  0.0687
  689MOL0     O92910   0.407  10.968   6.946  0.7450 -0.3664  0.1540
  689MOL0     C92911   0.396  10.845   6.891  0.3094 -0.3959  0.1292
  689MOL0     C92912   0.276  10.775   6.915  0.8273  0.5034 -1.2279
  689MOL0     C92913   0.246  10.642   6.868 -0.6124 -0.4712 -0.6836
  689MOL0     C92914   0.353  10.581   6.807 -0.1324 -0.0784  1.3567
  689MOL0     O92915   0.345  10.457   6.755  0.2705  0.0309  0.2633
  689MOL0     C92916   0.238  10.367   6.804  0.0786  1.0167 -0.1887
  689MOL0     C92917   0.303  10.227   6.804 -0.5943 -0.6405  1.5060
  689MOL0     C92918   0.233  10.130   6.886  0.1635  0.7081  0.0980
  689MOL0     C92919   0.292   9.992   6.891  0.1720 -0.3974  0.3155
  689MOL0     C92920   0.192   9.899   6.958 -1.2906 -0.0898  0.2587
  689MOL0     C92921   0.257   9.758   6.980  0.1115  0.4574 -0.9562
  689MOL0     C92922   0.371   9.777   7.086  0.1109 -0.2795 -0.2617
  689MOL0     C92923   0.413   9.633   7.146  0.1353 -0.1611 -0.2999
  689MOL0    Cl92924   0.473   9.536   7.017 -0.0784 -0.1486 -0.1089
  689MOL0     C92925   0.482  10.644   6.791  0.1494  0.2613  0.2417
  689MOL0     C92926   0.509  10.773   6.840  1.0508 -0.8552 -0.4751
  689MOL0     O92927   0.482  11.092   6.755  0.6375 -0.5617  0.7240
  689MOL0     C92928   0.574  11.292   6.905 -0.1379  0.1624  0.7272
  689MOL0     C92929   0.632  11.401   6.975  0.2213 -0.3566 -0.3683
  689MOL0     N92930   1.142  11.709   7.563  0.2242  0.3911  0.6398
  689MOL0     N92931   1.272  11.706   7.542  0.3174 -0.4685 -1.0591
  689MOL0     C92932   2.454  11.461   7.509 -0.5276 -0.6762  0.0616
  689MOL0     C92933   2.518  11.342   7.543 -0.2024  0.4532  0.2067
  689MOL0     C92934   2.648  10.928   7.569  0.5106 -0.2026 -0.2658
  689MOL0     C92935   2.782  10.936   7.616  0.1516  0.0587 -0.3611
  689MOL0     C92936   2.845  10.821   7.667  0.0958  0.1739  0.5701
  689MOL0     C92937   2.788  10.690   7.660 -0.0037 -0.0684  0.4431
  689MOL0     O92938   2.854  10.570   7.691  0.5696  0.2047  0.1366
  689MOL0     C92939   2.983  10.549   7.623  0.1878  1.2574 -0.3711
  689MOL0     C92940   3.029  10.402   7.655 -0.1962  0.0407  0.4162
  689MOL0     C92941   3.175  10.387   7.707 -0.8458 -0.1183 -0.6623
  689MOL0     C92942   3.194  10.246   7.767 -0.1667 -0.4213  0.1937
  689MOL0     C92943   3.325  10.245   7.844  0.6297  0.4356  0.3188
  689MOL0     C92944   3.435  10.217   7.887  0.5321 -0.5959  0.3034
  689MOL0     C92945   2.657  10.687   7.627 -0.0874 -0.1876  0.4654
  689MOL0     C92946   2.592  10.795   7.584 -0.1145  0.3869  1.3097
  689MOL0     C92947   2.450  10.764   7.534  0.5865 -0.2980  0.5666
  689MOL0     H92948   2.689  11.286   7.258  2.3379 -0.1417  2.4214
  689MOL0     H92949   2.578  11.480   7.194 -2.5135 -2.6547 -1.3915
  689MOL0     H92950   2.351  11.710   7.500 -0.7117  1.1978  0.0339
  689MOL0     H92951   2.291  11.794   7.358 -1.2788 -0.0764 -0.5032
  689MOL0     H92952   2.185  11.546   7.484 -1.7933  0.6172  1.3041
  689MOL0     H92953   2.164  11.533   7.319  1.5449 -2.1861  1.1122
  689MOL0     H92954   2.062  11.785   7.335  1.7054 -1.8678 -1.2822
  689MOL0     H92955   2.063  11.742   7.504 -0.7592  1.9653 -0.7351
  689MOL0     H92956   1.933  11.639   7.254 -4.1120 -3.5160 -0.2959
  689MOL0     H92957   1.918  11.532   7.375 -1.0699 -0.2276 -1.7573
  689MOL0     H92958   1.805  11.730   7.532 -1.2933 -2.3696  1.1083
  689MOL0     H92959   1.820  11.827   7.396 -2.9902  0.9474  1.2492
  689MOL0     H92960   1.693  11.667   7.255 -1.3300 -0.1453 -0.0145
  689MOL0     H92961   1.686  11.549   7.387  1.7534  0.0422 -1.3697
  689MOL0     H92962   1.585  11.832   7.410  2.7765 -0.7063 -0.8224
  689MOL0     H92963   1.552  11.709   7.524 -0.8822  2.2184 -0.5868
  689MOL0     H92964   1.424  11.734   7.254  1.9375 -1.3060 -0.2231
  689MOL0     H92965   1.437  11.571   7.328 -2.0207 -0.4602 -0.1720
  689MOL0     H92966   1.169  11.703   7.228  0.7730  0.4947 -0.3190
  689MOL0     H92967   0.876  11.682   7.490  0.6732 -2.0701 -1.8428
  689MOL0     H92968   0.906  11.847   7.435  0.9454  0.4999 -0.1026
  689MOL0     H92969   0.942  11.712   7.201 -3.3195  0.0350 -1.7648
  689MOL0     H92970   0.882  11.568   7.289 -0.3046 -0.6930  1.4100
  689MOL0     H92971   0.742  11.825   7.212  2.3619 -0.5687 -3.3062
  689MOL0     H92972   0.680  11.710   7.334  2.0602 -1.3572  2.2139
  689MOL0     H92973   0.783  11.581   7.079 -1.7245 -0.1074 -2.6967
  689MOL0     H92974   0.640  11.682   7.065 -1.5880  0.7151  3.9379
  689MOL0     H92975   0.442  11.350   7.259  0.2673 -0.7916  0.1596
  689MOL0     H92976   0.347  11.174   7.130 -1.9646  0.2552 -0.9528
  689MOL0     H92977   0.196  10.832   6.962 -2.1440 -1.2425 -3.7804
  689MOL0     H92978   0.148  10.602   6.891 -1.3710  1.8175  0.3480
  689MOL0     H92979   0.215  10.389   6.908 -0.1292  0.3729 -0.0973
  689MOL0     H92980   0.150  10.368   6.740 -0.4115  4.0108  0.4070
  689MOL0     H92981   0.315  10.196   6.700  0.8623  1.9441  0.8256
  689MOL0     H92982   0.405  10.243   6.839  0.8027 -0.1208 -2.3514
  689MOL0     H92983   0.234  10.165   6.990  1.2654  2.2969 -0.4086
  689MOL0     H92984   0.131  10.127   6.845  0.1585  0.4369  0.1302
  689MOL0     H92985   0.383   9.985   6.950 -0.2185 -0.3486  0.9327
  689MOL0     H92986   0.315   9.947   6.794  0.4229 -1.7003  0.9656
  689MOL0     H92987   0.115   9.889   6.881 -0.0011  1.0816 -1.2456
  689MOL0     H92988   0.164   9.946   7.053  1.5036 -1.6769  2.0247
  689MOL0     H92989   0.175   9.704   7.029  0.4952  1.2507  0.5910
  689MOL0     H92990   0.294   9.704   6.892  0.8974 -0.7000  0.0547
  689MOL0     H92991   0.342   9.844   7.167 -0.1115  0.7372 -1.1679
  689MOL0     H92992   0.468   9.808   7.046  1.4824 -2.7043  0.9635
  689MOL0     H92993   0.493   9.655   7.217  2.9226  4.4073 -4.1680
  689MOL0     H92994   0.334   9.586   7.204  0.7799  0.9565  1.5605
  689MOL0     H92995   0.557  10.588   6.735 -0.9928  1.7774 -3.0571
  689MOL0     H92996   0.605  10.823   6.827  1.1608 -1.2754 -1.3863
  689MOL0     H92997   0.611  11.281   6.803 -1.2446  2.3953  0.0168
  689MOL0     H92998   0.711  11.464   6.933 -1.1906  0.5648 -1.7367
  689MOL0     H92999   2.391  11.500   7.588 -0.0912 -2.7420  1.5292
  689MOL0     H93000   2.491  11.300   7.640 -2.1108  0.8794 -0.0933
  689MOL0     H93001   2.838  11.030   7.610  0.9848 -0.4319 -0.4652
  689MOL0     H93002   2.949  10.817   7.698 -0.4089  2.8587  3.0444
  689MOL0     H93003   3.062  10.614   7.662  0.1056 -0.3600  2.8118
  689MOL0     H93004   2.966  10.548   7.515 -0.7343  0.7875 -0.2332
  689MOL0     H93005   3.019  10.343   7.564  1.0181  0.6565 -0.1393
  689MOL0     H93006   2.961  10.367   7.733 -0.0410 -1.4572 -0.0999
  689MOL0     H93007   3.202  10.472   7.770 -0.0050 -0.9077  0.0755
  689MOL0     H93008   3.248  10.406   7.628 -0.3178  0.7430  0.0065
  689MOL0     H93009   3.113  10.228   7.838  0.7785 -2.0564  0.9126
  689MOL0     H93010   3.200  10.172   7.688 -2.2044 -0.0483 -0.3687
  689MOL0     H93011   3.537  10.203   7.916  0.6388 -0.5575 -0.0478
  689MOL0     H93012   2.600  10.596   7.616  1.0756 -0.6918 -2.4288
  689MOL0     H93013   2.438  10.664   7.491  0.7969 -0.9822  2.0497
  689MOL0     H93014   2.378  10.793   7.611 -1.3421  0.0569 -1.2641
  689MOL0     H93015   2.411  10.828   7.455  0.6198  1.4062  1.8918
  690MOL0     O93016   4.364   6.274   5.566  0.5211 -0.3217 -0.3040
  690MOL0     C93017   4.467   6.330   5.535  0.0305  0.4620  1.2009
  690MOL0     O93018   4.468   6.453   5.468 -0.0091 -0.0976 -1.0364
  690MOL0     C93019   4.345   6.511   5.444  0.0437 -0.1151 -0.2732
  690MOL0     C93020   4.307   6.645   5.473 -0.2722 -0.5195  0.1221
  690MOL0     C93021   4.181   6.700   5.440 -0.4196 -0.8986 -0.3377
  690MOL0     C93022   4.090   6.628   5.369 -1.5396  0.3133  0.3907
  690MOL0     O93023   3.964   6.665   5.336  0.5691 -0.8290  0.2542
  690MOL0     C93024   3.937   6.716   5.201  1.1451  0.0941  0.6757
  690MOL0     C93025   3.854   6.846   5.213 -0.2638 -1.0704  0.6659
  690MOL0     C93026   3.938   6.952   5.276  0.4387 -0.2222  1.1409
  690MOL0     C93027   3.915   7.088   5.208 -0.4300  0.1756  0.0239
  690MOL0     C93028   3.983   7.203   5.291  0.6593  0.3591 -0.0759
  690MOL0     C93029   4.134   7.232   5.300 -0.9625 -0.2623 -0.2469
  690MOL0     C93030   4.227   7.119   5.272 -0.1975  0.2969  0.9148
  690MOL0     C93031   4.375   7.146   5.298 -0.0409 -1.3017 -0.4864
  690MOL0     N93032   4.445   7.030   5.229  0.4450 -0.0591 -0.4834
  690MOL0     C93033   4.464   6.908   5.287 -0.6057  0.3518  0.2036
  690MOL0     C93034   4.547   6.845   5.196  0.0575 -1.0453 -0.1615
  690MOL0     C93035   4.586   6.701   5.215  0.1781 -0.9905  0.4460
  690MOL0     C93036   4.693   6.672   5.317  0.7293  0.3593  0.0359
  690MOL0     C93037   4.799   6.788   5.318 -0.0539  0.0017  0.1423
  690MOL0     C93038   4.925   6.730   5.383  0.0431  0.5042  0.4905
  690MOL0     O93039   4.979   6.631   5.290 -0.3975 -0.7792  0.4840
  690MOL0     C93040   5.090   6.674   5.232  0.4273  0.8254 -0.0074
  690MOL0     C93041   5.105   6.799   5.166  0.9013  0.6346 -0.8994
  690MOL0     C93042   5.232   6.835   5.122  0.5621  0.8775  0.3688
  690MOL0     C93043   5.345   6.748   5.128  0.5478  0.1392 -0.4731
  690MOL0     C93044   5.475   6.789   5.081 -0.5033 -0.1855  0.0788
  690MOL0     O93045   5.487   6.914   5.029 -0.5757  0.1608  0.5034
  690MOL0     C93046   5.576   6.942   4.930 -0.2652  0.8163 -0.0337
  690MOL0     C93047   5.529   7.012   4.815 -0.4702 -0.4040 -0.6884
  690MOL0     C93048   5.621   7.058   4.721  0.0868 -0.3850 -0.3131
  690MOL0     C93049   5.759   7.023   4.733  0.0687  0.7255  0.0165
  690MOL0     O93050   5.838   7.056   4.631  0.6556 -0.2541  0.2903
  690MOL0     C93051   5.974   7.085   4.658 -0.2623 -0.0767 -0.5274
  690MOL0     C93052   6.035   7.168   4.538  0.2763 -0.4481 -0.2074
  690MOL0     C93053   6.055   7.074   4.411  0.5366 -0.7274 -0.1304
  690MOL0     C93054   6.202   7.037   4.393  0.2042  0.9090 -0.0237
  690MOL0     C93055   6.217   6.933   4.279 -0.1241 -0.7064 -0.1707
  690MOL0     C93056   6.142   6.798   4.303 -0.5600 -0.3111  0.5696
  690MOL0     C93057   6.214   6.675   4.231  0.3060  0.2002  0.4067
  690MOL0     C93058   6.141   6.546   4.250 -0.3173 -0.5919  0.0435
  690MOL0    Cl93059   6.027   6.505   4.115  0.1168 -0.3931 -0.2136
  690MOL0     C93060   5.801   6.952   4.841  0.9902 -0.9191 -0.3355
  690MOL0     C93061   5.710   6.910   4.938 -1.2487 -0.6713  0.1291
  690MOL0     O93062   5.565   6.711   5.099 -0.1108  0.3184  0.0168
  690MOL0     C93063   5.315   6.613   5.181 -0.1568 -0.0027  0.9158
  690MOL0     C93064   5.188   6.582   5.229 -0.3740 -0.0974  0.2588
  690MOL0     N93065   4.557   6.919   5.074  0.6042 -0.5860 -0.5654
  690MOL0     N93066   4.486   7.026   5.097 -0.3069 -0.2616 -0.1958
  690MOL0     C93067   4.128   6.495   5.341 -0.2314  1.1870 -0.0300
  690MOL0     C93068   4.249   6.434   5.364 -0.8453 -0.1639  0.2456
  690MOL0     C93069   4.596   6.264   5.558  0.1071  0.2265  0.6966
  690MOL0     C93070   4.716   6.327   5.501 -0.2687 -0.2389 -0.5759
  690MOL0     C93071   4.832   6.248   5.481  0.3651  0.0032  0.1240
  690MOL0     C93072   4.842   6.127   5.537 -0.6092  0.8023  0.0198
  690MOL0     O93073   4.968   6.083   5.518  0.6264  0.5413 -0.8701
  690MOL0     C93074   5.038   6.017   5.635  0.8886 -0.7563  0.9798
  690MOL0     C93075   5.045   5.870   5.596  0.5595 -0.1016 -0.1768
  690MOL0     C93076   5.105   5.796   5.718  0.9775 -0.3705  0.0001
  690MOL0     C93077   5.155   5.655   5.680  0.4523  0.8155 -0.4019
  690MOL0     C93078   5.258   5.658   5.568 -0.5889  0.6891  0.0863
  690MOL0     C93079   5.333   5.665   5.469 -0.2377  0.2759 -1.2191
  690MOL0     C93080   4.737   6.064   5.596  0.5686  0.1560 -0.7259
  690MOL0     C93081   4.610   6.131   5.612  0.7212  0.2536  1.0921
  690MOL0     C93082   4.502   6.047   5.672 -0.1090 -0.3967  0.0739
  690MOL0     H93083   4.379   6.691   5.539 -1.2573  0.3711  0.6117
  690MOL0     H93084   4.151   6.800   5.468 -0.7493 -0.8145 -0.9659
  690MOL0     H93085   4.030   6.727   5.145  0.1835 -0.2643 -1.0507
  690MOL0     H93086   3.866   6.642   5.163  0.8914 -2.2871  5.0807
  690MOL0     H93087   3.763   6.848   5.274  1.1696  2.0083  2.9790
  690MOL0     H93088   3.832   6.867   5.108  0.0814 -1.0015  0.6046
  690MOL0     H93089   4.043   6.925   5.268 -0.1229 -2.1831 -0.4392
  690MOL0     H93090   3.913   6.968   5.382  0.5571  3.9392  0.6968
  690MOL0     H93091   3.958   7.087   5.107 -0.3356  2.0407  0.0068
  690MOL0     H93092   3.807   7.108   5.209 -0.2611  1.2087 -0.9298
  690MOL0     H93093   3.939   7.301   5.275 -2.3192 -1.0687 -1.3512
  690MOL0     H93094   3.959   7.181   5.395 -0.1178 -1.3270 -0.5706
  690MOL0     H93095   4.163   7.314   5.234  0.6448  0.0999  0.8494
  690MOL0     H93096   4.163   7.267   5.400  0.3890  2.3358 -1.4324
  690MOL0     H93097   4.225   7.076   5.171  4.0343 -0.2932  0.8717
  690MOL0     H93098   4.199   7.046   5.349 -1.6912  1.0752  1.1325
  690MOL0     H93099   4.413   7.239   5.254  0.0495 -0.6571  0.9103
  690MOL0     H93100   4.389   7.143   5.406 -1.5110 -6.2734 -0.2070
  690MOL0     H93101   4.439   6.868   5.385  0.9197 -0.1868  0.4000
  690MOL0     H93102   4.492   6.646   5.230 -1.3805  1.5596  0.6489
  690MOL0     H93103   4.626   6.668   5.119 -2.0678  0.4707 -1.0837
  690MOL0     H93104   4.646   6.654   5.414 -1.5840 -1.3027 -1.2763
  690MOL0     H93105   4.732   6.573   5.290 -0.4888 -0.1196 -0.0074
  690MOL0     H93106   4.758   6.873   5.373 -2.1757 -2.4216  2.6246
  690MOL0     H93107   4.835   6.818   5.219  1.7982  0.8795  1.0425
  690MOL0     H93108   4.900   6.683   5.479  1.5092  0.5530  0.9206
  690MOL0     H93109   5.001   6.801   5.417  1.6596 -1.2628  0.7305
  690MOL0     H93110   5.031   6.877   5.150  1.9344  1.1551 -3.7065
  690MOL0     H93111   5.251   6.930   5.074 -0.1365  0.7890 -0.0885
  690MOL0     H93112   5.433   7.062   4.811  0.1058  0.7501 -0.5741
  690MOL0     H93113   5.600   7.129   4.642  1.0088  1.0268  0.6499
  690MOL0     H93114   5.973   7.146   4.749 -3.1349  1.2700 -1.3361
  690MOL0     H93115   6.036   6.999   4.686 -1.6445 -2.4861 -4.2130
  690MOL0     H93116   5.957   7.241   4.515  0.1814  0.0292  1.5217
  690MOL0     H93117   6.128   7.221   4.561 -0.3057 -0.2616  1.8985
  690MOL0     H93118   5.989   6.988   4.426  0.3777 -0.8078 -1.2305
  690MOL0     H93119   6.023   7.115   4.315 -0.0519  0.4754  0.5504
  690MOL0     H93120   6.240   6.983   4.481 -4.7381 -0.2205  1.7027
  690MOL0     H93121   6.258   7.126   4.362 -2.6637  2.9537  0.2997
  690MOL0     H93122   6.324   6.910   4.286 -0.7256 -3.8014  0.3572
  690MOL0     H93123   6.184   6.979   4.186  1.0305  1.5903  0.4719
  690MOL0     H93124   6.138   6.769   4.408  0.4321  0.0535  0.7229
  690MOL0     H93125   6.043   6.803   4.258 -0.0495 -2.2811 -0.8844
  690MOL0     H93126   6.318   6.662   4.262  0.2087 -1.4173  0.1245
  690MOL0     H93127   6.224   6.698   4.124  1.3252  0.1610  0.4877
  690MOL0     H93128   6.224   6.475   4.250  0.5161  0.2546  2.4479
  690MOL0     H93129   6.097   6.545   4.350  2.2257  1.2183  1.3074
  690MOL0     H93130   5.905   6.921   4.849  0.9617 -0.7964  0.6822
  690MOL0     H93131   5.752   6.847   5.015 -3.9783 -1.3930  1.1332
  690MOL0     H93132   5.390   6.536   5.192 -0.2627 -0.2730 -0.1564
  690MOL0     H93133   5.157   6.489   5.275 -0.4445 -2.0617 -3.4414
  690MOL0     H93134   4.052   6.441   5.284  1.3048  1.1969 -2.2141
  690MOL0     H93135   4.273   6.337   5.322 -3.2639 -0.4477 -0.6301
  690MOL0     H93136   4.715   6.425   5.454  4.1416 -0.8267 -2.4125
  690MOL0     H93137   4.919   6.291   5.432 -0.9982  1.2155 -1.3528
  690MOL0     H93138   4.971   6.017   5.721  0.7285 -1.6668  0.8681
  690MOL0     H93139   5.137   6.060   5.649  1.0376  0.1847 -2.1321
  690MOL0     H93140   5.109   5.860   5.508  0.3827 -0.3234 -0.2800
  690MOL0     H93141   4.945   5.829   5.578 -0.6712  2.7441 -0.3603
  690MOL0     H93142   5.047   5.788   5.811  0.1556  1.0350 -0.3635
  690MOL0     H93143   5.195   5.855   5.740  0.1209  1.4134 -1.0704
  690MOL0     H93144   5.203   5.618   5.771 -1.0814 -0.1553  0.0474
  690MOL0     H93145   5.065   5.597   5.656  0.4208  1.4184 -1.8176
  690MOL0     H93146   5.395   5.666   5.382 -3.1183 -2.1839 -3.4981
  690MOL0     H93147   4.759   5.964   5.633 -2.1445 -0.6769 -1.1688
  690MOL0     H93148   4.422   6.025   5.601 -1.7305 -1.9756  2.2477
  690MOL0     H93149   4.556   5.954   5.692  2.4875  0.9586 -0.1733
  690MOL0     H93150   4.458   6.081   5.767  2.6375 -2.2561  2.1754
  691MOL0     O93151   4.532   6.036   7.918 -0.7235 -1.0287  0.4161
  691MOL0     C93152   4.496   5.978   7.818  0.2729  0.7318  0.2311
  691MOL0     O93153   4.578   5.917   7.725 -1.6420  0.0219 -0.2344
  691MOL0     C93154   4.710   5.876   7.739 -0.0190 -0.1642  0.2469
  691MOL0     C93155   4.774   5.845   7.624 -0.4335  1.2395 -0.0870
  691MOL0     C93156   4.916   5.835   7.620  0.1117 -0.0472 -0.3813
  691MOL0     C93157   4.987   5.834   7.741  1.1849 -0.5727 -0.7225
  691MOL0     O93158   5.125   5.823   7.755  0.5955 -0.6095  0.1493
  691MOL0     C93159   5.181   5.715   7.687 -0.5903  0.5396 -0.2552
  691MOL0     C93160   5.118   5.582   7.704 -0.6324  0.0417 -0.2737
  691MOL0     C93161   5.213   5.469   7.677  0.2940 -0.9968 -0.2601
  691MOL0     C93162   5.184   5.327   7.733 -0.9345 -0.4268 -0.0407
  691MOL0     C93163   5.308   5.242   7.715  0.3030  1.1580 -0.5563
  691MOL0     C93164   5.279   5.115   7.790 -0.6877  0.0727  0.1814
  691MOL0     C93165   5.399   5.017   7.785  0.1614 -0.2077  1.4621
  691MOL0     C93166   5.383   4.929   7.658  0.6114  0.0883  0.4661
  691MOL0     N93167   5.503   4.840   7.635  0.8041  0.0714  0.6066
  691MOL0     C93168   5.635   4.882   7.638 -0.0777  0.2964 -0.0489
  691MOL0     C93169   5.712   4.776   7.611  0.1206 -0.5143  0.8042
  691MOL0     C93170   5.853   4.775   7.567 -0.8140 -0.5923 -0.0640
  691MOL0     C93171   5.955   4.736   7.674  0.1916 -0.5366  0.7969
  691MOL0     C93172   6.085   4.698   7.608 -0.5996  0.1566 -0.1889
  691MOL0     C93173   6.074   4.566   7.531  0.4055  0.6676  0.1673
  691MOL0     O93174   6.214   4.511   7.525  0.2484  0.7021  0.2347
  691MOL0     C93175   6.284   4.504   7.411  0.3677  0.8368 -0.0689
  691MOL0     C93176   6.375   4.604   7.363 -0.6666  0.2212 -0.5841
  691MOL0     C93177   6.452   4.573   7.255  0.0584  0.2118  0.3035
  691MOL0     C93178   6.445   4.456   7.179  0.5659  0.8373 -0.3381
  691MOL0     C93179   6.508   4.440   7.049 -0.1065 -0.0449 -0.8980
  691MOL0     O93180   6.476   4.332   6.973 -0.6774  0.4978  0.3542
  691MOL0     C93181   6.507   4.303   6.842  0.0495 -0.4152 -0.6130
  691MOL0     C93182   6.455   4.178   6.796 -0.2968  0.1883  1.0268
  691MOL0     C93183   6.480   4.131   6.669 -0.9957  0.1786 -0.5923
  691MOL0     C93184   6.555   4.205   6.582 -1.1610  0.0098 -0.6350
  691MOL0     O93185   6.569   4.159   6.457  0.5169 -0.8815 -0.5764
  691MOL0     C93186   6.691   4.088   6.430  0.2760  0.5399 -1.1212
  691MOL0     C93187   6.694   4.024   6.289  0.0015 -0.7123  0.2044
  691MOL0     C93188   6.689   4.127   6.181  0.7011  0.1617  0.5043
  691MOL0     C93189   6.663   4.068   6.043  1.0063  0.3132 -0.5046
  691MOL0     C93190   6.670   4.182   5.928 -0.2952  0.4660 -0.3263
  691MOL0     C93191   6.816   4.220   5.882 -0.2038  0.4384 -0.0947
  691MOL0     C93192   6.825   4.346   5.809 -0.0246 -0.1159 -0.1037
  691MOL0     C93193   6.740   4.343   5.679 -0.0375  0.0972 -0.3568
  691MOL0    Cl93194   6.758   4.476   5.574 -0.1213  0.0683 -0.5394
  691MOL0     C93195   6.600   4.332   6.617  0.0050 -0.6947 -0.0520
  691MOL0     C93196   6.577   4.386   6.745 -0.1005  1.2720 -0.1868
  691MOL0     O93197   6.594   4.521   7.026 -0.9481  0.1731  0.0468
  691MOL0     C93198   6.351   4.359   7.221 -0.3359  0.2592 -0.7077
  691MOL0     C93199   6.271   4.390   7.336 -0.1179 -0.0349  0.0523
  691MOL0     N93200   5.631   4.664   7.593 -0.5195  0.4189  0.9246
  691MOL0     N93201   5.509   4.706   7.617  0.3616 -0.2353 -0.2316
  691MOL0     C93202   4.908   5.847   7.863 -0.5843  0.0812  0.1403
  691MOL0     C93203   4.775   5.873   7.853  1.2856 -0.1281 -0.6319
  691MOL0     C93204   4.359   6.013   7.767 -1.0083  0.2894 -0.7179
  691MOL0     C93205   4.337   6.016   7.629 -0.2159  0.2696  1.1403
  691MOL0     C93206   4.212   6.041   7.579 -0.7192  0.6352  0.9386
  691MOL0     C93207   4.103   6.067   7.664  0.2284 -0.5182  0.8587
  691MOL0     O93208   3.983   6.085   7.596 -0.1891  0.0463 -0.1131
  691MOL0     C93209   3.874   6.013   7.651  0.8499 -0.0550 -0.5905
  691MOL0     C93210   3.893   5.862   7.646  0.5447 -0.1799  1.1716
  691MOL0     C93211   3.759   5.791   7.695  0.6725 -0.1826  0.1668
  691MOL0     C93212   3.737   5.811   7.846 -0.2427 -0.2215 -0.5462
  691MOL0     C93213   3.625   5.734   7.899  1.1267 -1.0756 -0.4750
  691MOL0     C93214   3.524   5.672   7.939 -0.0487  0.2075  0.5454
  691MOL0     C93215   4.117   6.051   7.798 -0.2704  0.3416  0.5368
  691MOL0     C93216   4.246   6.030   7.850  0.2298 -0.1478  0.2177
  691MOL0     C93217   4.268   6.007   7.999  0.9817 -0.2890 -0.3772
  691MOL0     H93218   4.712   5.839   7.535  0.0934 -3.7708 -0.4437
  691MOL0     H93219   4.972   5.812   7.529 -1.5168 -0.4987 -1.3050
  691MOL0     H93220   5.171   5.738   7.580 -0.2934  0.0250 -0.3972
  691MOL0     H93221   5.288   5.717   7.712  0.1401  0.9095 -3.0506
  691MOL0     H93222   5.017   5.568   7.663 -1.2967 -1.5886  1.7054
  691MOL0     H93223   5.096   5.586   7.812 -1.8569  3.4565 -0.5223
  691MOL0     H93224   5.312   5.489   7.720 -0.7322  1.5574  1.1191
  691MOL0     H93225   5.215   5.468   7.568 -0.0478 -0.3899 -0.2797
  691MOL0     H93226   5.141   5.336   7.834 -0.9450 -0.3896 -0.0478
  691MOL0     H93227   5.109   5.266   7.682  0.0385 -3.2645  1.6792
  691MOL0     H93228   5.324   5.230   7.608 -3.1774  2.1517 -1.2937
  691MOL0     H93229   5.400   5.286   7.756  0.7819  3.5232 -3.7847
  691MOL0     H93230   5.254   5.137   7.894 -1.2252  0.0763  0.0565
  691MOL0     H93231   5.193   5.068   7.740 -0.1371  0.7122 -1.4376
  691MOL0     H93232   5.411   4.957   7.876 -0.6124 -1.2055  0.9330
  691MOL0     H93233   5.487   5.078   7.763  1.9669 -2.8198  0.9908
  691MOL0     H93234   5.290   4.872   7.658  0.1710  0.7859 -0.1933
  691MOL0     H93235   5.378   4.989   7.567  0.6052 -1.1757 -0.3757
  691MOL0     H93236   5.672   4.984   7.652 -0.7672  0.5890 -0.3283
  691MOL0     H93237   5.854   4.699   7.489  0.2699 -2.1317  1.3807
  691MOL0     H93238   5.888   4.873   7.530 -1.1557 -1.1960 -2.1428
  691MOL0     H93239   5.972   4.830   7.726 -3.3000  0.4929  0.3647
  691MOL0     H93240   5.909   4.665   7.744 -2.4270  2.3567  2.2539
  691MOL0     H93241   6.161   4.683   7.685 -0.0823 -3.6051 -1.2267
  691MOL0     H93242   6.120   4.773   7.537 -0.7507  0.9302  0.5351
  691MOL0     H93243   6.032   4.576   7.431 -0.2557  0.2525  0.3935
  691MOL0     H93244   6.016   4.489   7.582  2.7323 -1.1318  0.2403
  691MOL0     H93245   6.380   4.697   7.419 -1.5939 -1.5451  2.7060
  691MOL0     H93246   6.522   4.654   7.233 -0.7421  1.2938  1.5608
  691MOL0     H93247   6.387   4.126   6.862  1.3807 -0.8508  1.9748
  691MOL0     H93248   6.440   4.034   6.642  1.1109 -1.6525  2.2622
  691MOL0     H93249   6.774   4.157   6.445  0.5003 -0.0258  0.3932
  691MOL0     H93250   6.704   4.005   6.501 -4.6214 -0.5209 -1.1076
  691MOL0     H93251   6.783   3.962   6.278  1.4779  0.9305  1.9272
  691MOL0     H93252   6.605   3.964   6.274  0.3807 -1.1008 -0.5025
  691MOL0     H93253   6.616   4.205   6.204  1.2895  1.0302 -0.4854
  691MOL0     H93254   6.781   4.187   6.178  0.4090  0.5968  0.2006
  691MOL0     H93255   6.559   4.032   6.045 -0.1196  3.2191 -1.3267
  691MOL0     H93256   6.736   3.992   6.014 -2.0606 -3.1208  0.0463
  691MOL0     H93257   6.609   4.269   5.952 -3.1565 -2.0056  2.1405
  691MOL0     H93258   6.627   4.141   5.836  1.9392  0.4423 -1.4260
  691MOL0     H93259   6.872   4.223   5.976  1.0092  1.8565 -0.8360
  691MOL0     H93260   6.850   4.129   5.832 -1.3774 -0.6492  0.9998
  691MOL0     H93261   6.931   4.355   5.786  0.0146  0.1768  0.1931
  691MOL0     H93262   6.791   4.428   5.873 -0.0871 -1.1198  1.2023
  691MOL0     H93263   6.758   4.245   5.634 -0.0645 -0.9761  1.8313
  691MOL0     H93264   6.634   4.334   5.703 -0.0300 -0.4961 -0.5081
  691MOL0     H93265   6.644   4.403   6.547  0.8230 -0.1552  0.9881
  691MOL0     H93266   6.618   4.483   6.773  0.0312  1.1633  0.0026
  691MOL0     H93267   6.329   4.265   7.170 -0.3091 -1.0639  1.6120
  691MOL0     H93268   6.206   4.315   7.381  1.2412 -0.9289  0.5662
  691MOL0     H93269   4.972   5.858   7.950  0.2820  1.2105 -0.6065
  691MOL0     H93270   4.727   5.884   7.950  1.4511 -1.3241 -0.3995
  691MOL0     H93271   4.423   5.992   7.568  0.9015  2.4407  1.7569
  691MOL0     H93272   4.208   6.058   7.472  0.3337 -1.9958  0.4131
  691MOL0     H93273   3.791   6.029   7.581  0.3435 -6.0159 -1.8879
  691MOL0     H93274   3.850   6.044   7.754  1.3856 -1.7849  0.0977
  691MOL0     H93275   3.974   5.829   7.713  0.7078 -2.5294 -0.0670
  691MOL0     H93276   3.917   5.821   7.547 -1.1642  2.2203 -0.3510
  691MOL0     H93277   3.757   5.684   7.673  0.4442 -0.2445  0.4865
  691MOL0     H93278   3.672   5.841   7.650  0.1381 -0.2041  1.1607
  691MOL0     H93279   3.826   5.794   7.907  0.7537 -0.2256 -1.9602
  691MOL0     H93280   3.702   5.912   7.870 -1.8074 -1.0533  0.9409
  691MOL0     H93281   3.443   5.609   7.967  0.6997 -0.9747  0.1279
  691MOL0     H93282   4.031   6.071   7.862 -1.4718 -1.6942 -0.3322
  691MOL0     H93283   4.353   5.944   8.028  0.1119 -0.2437  2.6936
  691MOL0     H93284   4.292   6.105   8.042 -0.1133 -1.1219  2.3873
  691MOL0     H93285   4.177   5.973   8.048  1.1987  1.3400  1.2690
  692MOL0     O93286   8.799  10.347   7.786 -0.1295 -0.6285  0.1542
  692MOL0     C93287   8.735  10.449   7.748 -0.7610  0.2469  0.0642
  692MOL0     O93288   8.801  10.563   7.722  0.6548 -0.3517  1.0182
  692MOL0     C93289   8.929  10.547   7.682 -0.2331  0.0457  0.9160
  692MOL0     C93290   8.952  10.520   7.550 -0.4621  0.0803  1.1927
  692MOL0     C93291   9.074  10.528   7.487 -0.6441 -0.4683  0.4248
  692MOL0     C93292   9.188  10.569   7.570 -0.5927 -0.1571 -0.2385
  692MOL0     O93293   9.317  10.576   7.524 -0.3349  0.2348  0.2145
  692MOL0     C93294   9.339  10.478   7.435  0.1057  0.4306  0.3465
  692MOL0     C93295   9.489  10.460   7.406  0.0592  0.7430 -0.2456
  692MOL0     C93296   9.511  10.366   7.289  0.5644  1.8335 -0.3993
  692MOL0     C93297   9.546  10.224   7.333 -0.2731 -0.1962  0.6018
  692MOL0     C93298   9.611  10.127   7.226  1.0397 -0.2308  0.1772
  692MOL0     C93299   9.523  10.112   7.096  0.6955  0.2162 -0.4500
  692MOL0     C93300   9.390  10.044   7.126 -0.1907  0.3735  0.1154
  692MOL0     C93301   9.286  10.077   7.016 -1.0479 -0.9009 -0.6130
  692MOL0     N93302   9.314  10.001   6.893  0.6719  0.8390  0.3498
  692MOL0     C93303   9.366  10.049   6.772  0.3552 -0.2024  0.7054
  692MOL0     C93304   9.342   9.947   6.679 -0.6949  0.2049  0.3784
  692MOL0     C93305   9.376   9.958   6.537  0.4111 -0.2062 -0.4110
  692MOL0     C93306   9.526   9.958   6.519 -0.0002 -0.2690  0.1013
  692MOL0     C93307   9.577   9.808   6.538  0.7369  0.1232  0.4348
  692MOL0     C93308   9.730   9.786   6.518 -0.3031 -0.6890  0.1174
  692MOL0     O93309   9.802   9.862   6.625 -0.4532  0.3201  0.2414
  692MOL0     C93310   9.941   9.855   6.611  0.2985  0.0533  0.5647
  692MOL0     C93311  10.010   9.971   6.570  0.7413  0.5830 -0.1216
  692MOL0     C93312  10.148   9.966   6.574 -0.2532  0.4734  0.0487
  692MOL0     C93313  10.219   9.849   6.626 -0.4295 -0.3980  0.6649
  692MOL0     C93314  10.363   9.859   6.650  0.8440 -0.2626 -0.4552
  692MOL0     O93315  10.408   9.983   6.673 -0.7382 -0.2909  0.1931
  692MOL0     C93316  10.526  10.011   6.743  0.4886 -0.1194  0.4248
  692MOL0     C93317  10.638   9.924   6.756  0.0316 -0.5460  0.1294
  692MOL0     C93318  10.755   9.978   6.812 -0.0407 -0.3182 -0.1810
  692MOL0     C93319  10.769  10.108   6.860  0.0330 -0.5231 -0.4104
  692MOL0     O93320  10.895  10.160   6.881  0.6310  0.7535  0.9136
  692MOL0     C93321  10.896  10.289   6.941  0.4521  0.4512 -0.2685
  692MOL0     C93322  11.040  10.331   6.963  0.1286  0.2381  0.5206
  692MOL0     C93323  11.043  10.480   6.999  0.5663 -0.1877  0.6056
  692MOL0     C93324  11.165  10.524   7.076 -0.9065 -0.1728 -0.1988
  692MOL0     C93325  11.176  10.678   7.098  0.5873 -0.5401 -0.4631
  692MOL0     C93326  11.280  10.707   7.208  0.5404 -0.7682 -0.3290
  692MOL0     C93327  11.427  10.694   7.174  0.0371  0.0583  0.8322
  692MOL0     C93328  11.521  10.774   7.260  0.7338  0.0064 -0.1385
  692MOL0    Cl93329  11.680  10.697   7.251  0.6099 -0.2870  0.5340
  692MOL0     C93330  10.651  10.188   6.863 -0.4263 -0.0235  0.0276
  692MOL0     C93331  10.530  10.141   6.797 -0.5000  0.0043 -0.7547
  692MOL0     O93332  10.422   9.755   6.653 -0.2937 -0.1622  0.6608
  692MOL0     C93333  10.143   9.736   6.664 -0.0624  0.3709  0.6175
  692MOL0     C93334  10.010   9.739   6.657  0.1721 -0.6303 -0.6644
  692MOL0     N93335   9.295   9.838   6.740 -0.2896  0.1854  0.0444
  692MOL0     N93336   9.267   9.879   6.861  0.6077 -0.6818 -0.0098
  692MOL0     C93337   9.154  10.594   7.707  0.0684 -0.1294  0.6175
  692MOL0     C93338   9.033  10.591   7.761 -0.2995  1.2495  0.9659
  692MOL0     C93339   8.590  10.453   7.770  1.1780 -0.1060  0.4077
  692MOL0     C93340   8.543  10.457   7.901  0.7240 -0.1834  0.1391
  692MOL0     C93341   8.401  10.450   7.925  0.3498 -0.0844 -0.3317
  692MOL0     C93342   8.313  10.440   7.824 -0.4852  0.5425 -0.3511
  692MOL0     O93343   8.175  10.416   7.841  0.3759  0.2754  0.0540
  692MOL0     C93344   8.133  10.348   7.961  0.5136  0.4906  0.0463
  692MOL0     C93345   7.973  10.359   7.971 -0.4104  0.4355  0.5115
  692MOL0     C93346   7.929  10.309   8.101  0.7043  0.2659 -0.2198
  692MOL0     C93347   7.774  10.317   8.117 -1.2781 -0.8922 -0.1318
  692MOL0     C93348   7.729  10.298   8.256  0.3693 -1.2319  0.4390
  692MOL0     C93349   7.698  10.287   8.373 -0.9700  0.0775 -0.8098
  692MOL0     C93350   8.361  10.449   7.696 -0.0111  0.6982 -0.3093
  692MOL0     C93351   8.499  10.449   7.667  0.0189 -0.3715 -0.2704
  692MOL0     C93352   8.529  10.430   7.512 -0.7635  0.7333 -0.6360
  692MOL0     H93353   8.875  10.496   7.478 -2.4118  0.0745  3.1698
  692MOL0     H93354   9.083  10.507   7.381 -0.0600 -2.9745  0.8923
  692MOL0     H93355   9.300  10.385   7.477 -1.1652 -0.5074 -2.6780
  692MOL0     H93356   9.281  10.491   7.344 -1.1951  1.1922  1.2482
  692MOL0     H93357   9.550  10.429   7.492  3.3571 -0.8829 -2.9380
  692MOL0     H93358   9.517  10.564   7.389  1.7794  0.5806  1.2969
  692MOL0     H93359   9.583  10.403   7.215  1.0766 -3.6089 -3.0621
  692MOL0     H93360   9.422  10.367   7.225  1.0544  0.0862 -1.1523
  692MOL0     H93361   9.618  10.237   7.414 -1.5951  0.1933  1.7456
  692MOL0     H93362   9.460  10.176   7.380 -1.2844  0.7670 -0.2082
  692MOL0     H93363   9.704  10.176   7.196  1.8956 -0.9746  1.5631
  692MOL0     H93364   9.627  10.032   7.277  0.9272  0.4040  1.4391
  692MOL0     H93365   9.516  10.214   7.057  0.6098  0.4488  0.1594
  692MOL0     H93366   9.575  10.054   7.019  1.4646  2.9319 -2.1018
  692MOL0     H93367   9.362  10.079   7.226  1.1595 -1.5515  1.2454
  692MOL0     H93368   9.394   9.934   7.129 -1.9729  0.2185 -1.2553
  692MOL0     H93369   9.183  10.067   7.051 -0.7401 -0.4901  0.4466
  692MOL0     H93370   9.300  10.185   7.006 -0.9055 -0.9411 -0.8503
  692MOL0     H93371   9.407  10.147   6.749  1.2827 -0.1240  2.5293
  692MOL0     H93372   9.331   9.879   6.477 -0.0721 -1.2413  1.2537
  692MOL0     H93373   9.321  10.049   6.512  0.2367  0.4837  2.1805
  692MOL0     H93374   9.546   9.988   6.416  0.3923 -0.9693 -0.0402
  692MOL0     H93375   9.590  10.023   6.579  1.8089 -0.8687 -1.0838
  692MOL0     H93376   9.517   9.750   6.467 -4.6347  2.1414  2.7789
  692MOL0     H93377   9.543   9.768   6.634  0.4054  1.7908  1.0547
  692MOL0     H93378   9.746   9.832   6.420 -1.2410  0.3114  0.4034
  692MOL0     H93379   9.758   9.681   6.511 -0.7673 -0.7539 -0.9550
  692MOL0     H93380   9.952  10.059   6.543  2.3940  1.1467 -2.1583
  692MOL0     H93381  10.202  10.053   6.538  0.4451 -0.1859 -0.5291
  692MOL0     H93382  10.623   9.823   6.720 -0.0375 -0.2070 -0.8148
  692MOL0     H93383  10.837   9.908   6.819 -1.1307 -1.5535  0.8508
  692MOL0     H93384  10.856  10.370   6.880 -2.5443 -1.1262 -0.6161
  692MOL0     H93385  10.839  10.276   7.033  0.2877 -0.7852 -0.5181
  692MOL0     H93386  11.082  10.273   7.046 -0.3440 -0.8185  0.0354
  692MOL0     H93387  11.090  10.311   6.868 -0.7182  2.2163 -0.4012
  692MOL0     H93388  11.017  10.540   6.911 -0.2081 -1.9126 -0.3911
  692MOL0     H93389  10.961  10.514   7.062  0.4654  1.7841 -0.4946
  692MOL0     H93390  11.249  10.492   7.014 -0.2572  4.8927 -2.4725
  692MOL0     H93391  11.160  10.476   7.174  0.0231 -0.9529 -0.5255
  692MOL0     H93392  11.079  10.719   7.127 -0.8112 -0.6889 -4.3199
  692MOL0     H93393  11.210  10.737   7.013  2.4674  0.9239  1.2063
  692MOL0     H93394  11.260  10.805   7.254  0.0550 -1.5623  1.2265
  692MOL0     H93395  11.258  10.645   7.296 -0.1211  3.1432  2.5702
  692MOL0     H93396  11.453  10.729   7.073 -0.9280 -0.7365  0.2882
  692MOL0     H93397  11.448  10.587   7.190  2.9186  0.7193  2.1354
  692MOL0     H93398  11.531  10.872   7.212  2.1863 -0.1926 -0.3077
  692MOL0     H93399  11.492  10.784   7.365  2.7936  2.1018  0.3165
  692MOL0     H93400  10.649  10.293   6.888  0.9388 -0.2978  1.3787
  692MOL0     H93401  10.438  10.199   6.792  0.5944  1.9054  0.1042
  692MOL0     H93402  10.196   9.648   6.698  1.0330  0.1661 -1.4208
  692MOL0     H93403   9.949   9.656   6.692 -3.2880  2.8978  2.7061
  692MOL0     H93404   9.242  10.619   7.765 -0.5826  1.5183  0.9532
  692MOL0     H93405   9.015  10.615   7.865 -0.5278  1.1374  0.9535
  692MOL0     H93406   8.612  10.461   7.983  0.9469  0.4735 -0.0729
  692MOL0     H93407   8.370  10.458   8.028  2.0980  0.0327  0.2131
  692MOL0     H93408   8.171  10.395   8.051  3.2416  2.2313 -1.8572
  692MOL0     H93409   8.170  10.246   7.963  1.6111  0.8551 -0.7759
  692MOL0     H93410   7.933  10.307   7.883  1.0596 -1.6270  0.9751
  692MOL0     H93411   7.943  10.463   7.955  0.3940  0.4351 -1.2220
  692MOL0     H93412   7.972  10.360   8.188 -1.5531  0.9023  0.6049
  692MOL0     H93413   7.969  10.208   8.110 -2.2150 -1.1857 -1.9834
  692MOL0     H93414   7.748  10.422   8.097  0.1896 -0.5946 -0.5587
  692MOL0     H93415   7.717  10.258   8.045  1.5972 -3.5278 -0.4510
  692MOL0     H93416   7.696  10.273   8.479  0.8072 -0.6752 -0.8402
  692MOL0     H93417   8.286  10.442   7.618 -0.2840  1.0632 -0.0827
  692MOL0     H93418   8.500  10.524   7.465 -0.6730  1.7879  1.2848
  692MOL0     H93419   8.636  10.415   7.493 -1.0708  0.5382 -2.3071
  692MOL0     H93420   8.470  10.345   7.477  3.8652 -1.1801 -4.9482
  693MOL0     O93421   5.249   0.349   2.603 -0.3972  0.0276  0.4123
  693MOL0     C93422   5.199   0.234   2.619 -0.4411  1.0525  0.1295
  693MOL0     O93423   5.273   0.113   2.617  0.4455 -0.1751  0.1979
  693MOL0     C93424   5.408   0.118   2.584  0.0591  0.2600 -0.3599
  693MOL0     C93425   5.444   0.102   2.458 -0.4328 -1.5962  0.1113
  693MOL0     C93426   5.584   0.095   2.423 -0.2569  0.8471 -0.2394
  693MOL0     C93427   5.685   0.098   2.517  0.0061  0.6776  0.7505
  693MOL0     O93428   5.816   0.081   2.473  0.3230  0.8121 -0.1210
  693MOL0     C93429   5.925   0.121   2.556 -1.2943 -0.2002 -0.7046
  693MOL0     C93430   6.065   0.095   2.483  0.8325  0.4918  0.0262
  693MOL0     C93431   6.173   0.091   2.584  0.3103  0.1849 -0.3017
  693MOL0     C93432   6.252   0.219   2.602 -0.4100 -0.3024  1.0153
  693MOL0     C93433   6.386   0.204   2.677 -0.0921 -0.1356 -1.4514
  693MOL0     C93434   6.360   0.182   2.824 -0.8205 -0.1871 -0.6718
  693MOL0     C93435   6.477   0.193   2.916 -0.5672 -0.6003 -1.0189
  693MOL0     C93436   6.545   0.334   2.925 -0.2273 -0.3172  0.4361
  693MOL0     N93437   6.455   0.444   2.968 -0.1897  0.3543 -0.4363
  693MOL0     C93438   6.432   0.467   3.104 -0.8136 -0.2080  1.2999
  693MOL0     C93439   6.346   0.572   3.106  0.9849  0.7628  0.1161
  693MOL0     C93440   6.281   0.638   3.230  0.1903  0.8983  0.2090
  693MOL0     C93441   6.157   0.575   3.274  0.7338 -0.6516 -0.0310
  693MOL0     C93442   6.154   0.430   3.318 -0.6848  1.0453 -0.8645
  693MOL0     C93443   6.273   0.388   3.415  0.1116  0.0984  0.1919
  693MOL0     O93444   6.253   0.469   3.525 -0.1515  0.0581 -0.1094
  693MOL0     C93445   6.358   0.537   3.576 -0.2808 -0.0501  0.2631
  693MOL0     C93446   6.337   0.663   3.646  0.3809 -0.1910 -1.1643
  693MOL0     C93447   6.429   0.716   3.737  0.8180  0.1675  0.0976
  693MOL0     C93448   6.556   0.655   3.748  0.2711  0.7419 -0.3542
  693MOL0     C93449   6.666   0.705   3.825 -0.4047  0.6580 -0.0286
  693MOL0     O93450   6.778   0.619   3.850 -0.2878 -0.2326 -0.1302
  693MOL0     C93451   6.832   0.628   3.977  0.2376  0.0124 -0.1009
  693MOL0     C93452   6.958   0.686   4.001  0.7546 -0.7445 -0.3762
  693MOL0     C93453   7.010   0.687   4.129 -0.1204 -0.0471  0.0775
  693MOL0     C93454   6.943   0.651   4.237 -0.3232 -0.1129 -0.1914
  693MOL0     O93455   7.003   0.673   4.361 -0.8247  0.7224  0.8356
  693MOL0     C93456   6.947   0.621   4.478 -0.0137  0.9448  0.0722
  693MOL0     C93457   7.032   0.618   4.596 -0.4468 -0.1997  0.4043
  693MOL0     C93458   6.960   0.584   4.727  1.1171 -0.1582 -0.0409
  693MOL0     C93459   7.053   0.554   4.851  0.4164  0.0257  0.3428
  693MOL0     C93460   6.992   0.487   4.973 -0.8064 -0.2695  0.2066
  693MOL0     C93461   6.932   0.348   4.939  0.8546  0.1747 -0.4372
  693MOL0     C93462   6.853   0.300   5.050  0.1984  0.1342 -0.4469
  693MOL0     C93463   6.912   0.287   5.187  0.0016 -1.1504 -0.6831
  693MOL0    Cl93464   7.057   0.196   5.177  0.1709 -0.3304 -0.4508
  693MOL0     C93465   6.813   0.604   4.220  0.0704 -0.6144 -0.0662
  693MOL0     C93466   6.758   0.583   4.091  0.7009 -0.7521 -0.1905
  693MOL0     O93467   6.655   0.815   3.875 -0.0108 -1.0309  0.3383
  693MOL0     C93468   6.578   0.533   3.680  0.0944  0.8063  0.2468
  693MOL0     C93469   6.486   0.469   3.599  0.7792 -0.2710 -0.8239
  693MOL0     N93470   6.307   0.602   2.984  0.0023 -0.0458  0.5481
  693MOL0     N93471   6.375   0.531   2.895 -0.2676  0.0452  0.6368
  693MOL0     C93472   5.643   0.119   2.649 -0.5406 -0.0785 -0.7964
  693MOL0     C93473   5.509   0.135   2.686 -0.3043 -0.1314  0.3551
  693MOL0     C93474   5.057   0.235   2.661 -0.2825  0.5181  0.7508
  693MOL0     C93475   4.998   0.104   2.684  0.0865 -0.1731 -0.2679
  693MOL0     C93476   4.857   0.092   2.708  0.9028 -0.2354 -0.3478
  693MOL0     C93477   4.777   0.204   2.703 -0.7119  0.4567  0.0534
  693MOL0     O93478   4.640   0.201   2.704 -0.2448 -0.1488  0.1569
  693MOL0     C93479   4.572   0.286   2.792  0.2802 -0.9393 -0.7732
  693MOL0     C93480   4.439   0.243   2.853 -0.3842 -0.0100 -0.3509
  693MOL0     C93481   4.367   0.164   2.742 -0.3764  1.0946 -0.0619
  693MOL0     C93482   4.213   0.161   2.756  0.5853  0.6359  0.4204
  693MOL0     C93483   4.145   0.285   2.736  0.0879 -0.4830 -0.0055
  693MOL0     C93484   4.082   0.392   2.715  0.7200  0.2202 -0.1379
  693MOL0     C93485   4.839   0.327   2.676 -0.1368  0.2284 -0.3000
  693MOL0     C93486   4.971   0.345   2.655  0.2769  0.5250 -0.4817
  693MOL0     C93487   5.009   0.491   2.630 -0.2725 -0.1362  1.3508
  693MOL0     H93488   5.370   0.100   2.379  0.2371  2.5823 -0.8901
  693MOL0     H93489   5.619   0.091   2.321  2.6840  0.9702  0.6637
  693MOL0     H93490   5.933   0.227   2.579  0.9485 -0.7455  1.3259
  693MOL0     H93491   5.931   0.064   2.649  1.6581 -0.2712 -0.8381
  693MOL0     H93492   6.081   0.165   2.400 -3.7227  0.3373 -1.2692
  693MOL0     H93493   6.057   0.003   2.425 -2.0335  2.4559 -3.0652
  693MOL0     H93494   6.245   0.010   2.568  0.7066  1.0424 -3.4723
  693MOL0     H93495   6.132   0.067   2.683  0.0884 -0.2846 -0.5025
  693MOL0     H93496   6.291   0.247   2.504 -1.6750  2.7320  1.2651
  693MOL0     H93497   6.193   0.308   2.626  2.3870  1.8138  0.5338
  693MOL0     H93498   6.447   0.122   2.638 -0.2175 -1.0129  0.1039
  693MOL0     H93499   6.443   0.296   2.666  0.2250 -0.0217  0.7153
  693MOL0     H93500   6.279   0.250   2.853  0.7826  1.5523 -0.0498
  693MOL0     H93501   6.331   0.076   2.823  2.0838 -1.0540 -1.0579
  693MOL0     H93502   6.554   0.118   2.892  0.0067 -0.3396 -0.0576
  693MOL0     H93503   6.439   0.168   3.016  2.2300  0.8347  0.5492
  693MOL0     H93504   6.632   0.328   2.992  0.8632  3.0488 -0.4654
  693MOL0     H93505   6.582   0.368   2.828 -3.2466  2.0770 -0.0220
  693MOL0     H93506   6.479   0.424   3.191 -1.4834  0.6051  2.0886
  693MOL0     H93507   6.349   0.642   3.315 -0.0065  1.0355  0.3621
  693MOL0     H93508   6.260   0.743   3.208 -1.6551  0.9643  1.9060
  693MOL0     H93509   6.117   0.643   3.349  3.9428  4.2992 -2.2962
  693MOL0     H93510   6.085   0.583   3.192  2.1714 -1.6702 -1.4643
  693MOL0     H93511   6.168   0.364   3.232  0.7028 -0.8219  0.6943
  693MOL0     H93512   6.059   0.394   3.358  0.6408 -0.6776  0.9866
  693MOL0     H93513   6.368   0.407   3.364  0.0810 -1.1180 -0.3489
  693MOL0     H93514   6.261   0.282   3.439 -0.3364  0.3235  0.9921
  693MOL0     H93515   6.239   0.709   3.638 -1.8386 -3.9865  0.9166
  693MOL0     H93516   6.405   0.803   3.798 -2.0146 -0.9507  0.7085
  693MOL0     H93517   7.021   0.719   3.919  1.7659  0.6057  0.8907
  693MOL0     H93518   7.109   0.731   4.141  1.7312 -3.7209 -0.3358
  693MOL0     H93519   6.884   0.708   4.497 -0.6119  0.1190  2.0923
  693MOL0     H93520   6.887   0.530   4.470  1.4944 -0.5413  3.6762
  693MOL0     H93521   7.107   0.539   4.582 -0.2795 -0.4548  2.4581
  693MOL0     H93522   7.085   0.713   4.609  1.2202 -1.1713  1.1243
  693MOL0     H93523   6.894   0.667   4.754  2.3827  0.5633  0.9175
  693MOL0     H93524   6.891   0.500   4.710  0.2494  0.4155  0.5933
  693MOL0     H93525   7.097   0.653   4.868  0.3409  0.1133  0.0395
  693MOL0     H93526   7.132   0.485   4.819 -0.2056 -0.1992 -0.7398
  693MOL0     H93527   6.919   0.560   5.011  0.0126  2.2098 -2.5608
  693MOL0     H93528   7.071   0.472   5.047  0.5461 -4.2971 -1.7469
  693MOL0     H93529   6.866   0.344   4.851  1.8301  2.0831 -1.3085
  693MOL0     H93530   7.010   0.274   4.920  0.3566 -0.6000  0.4870
  693MOL0     H93531   6.823   0.196   5.029 -0.9735 -0.0028  1.5717
  693MOL0     H93532   6.758   0.354   5.054 -0.5951 -1.2479  0.3621
  693MOL0     H93533   6.939   0.381   5.236 -0.2687 -1.0880 -0.6563
  693MOL0     H93534   6.846   0.225   5.249 -2.9643  0.2721 -2.2139
  693MOL0     H93535   6.745   0.578   4.301 -0.7649  1.8175  0.1065
  693MOL0     H93536   6.652   0.562   4.083 -0.3183  2.8140  1.6503
  693MOL0     H93537   6.658   0.461   3.694 -1.7697 -1.5857 -0.6958
  693MOL0     H93538   6.508   0.385   3.534 -4.1244  0.0589 -3.3596
  693MOL0     H93539   5.718   0.124   2.727 -0.3751  0.2419 -0.9790
  693MOL0     H93540   5.489   0.164   2.788  2.6803 -0.3496  1.0974
  693MOL0     H93541   5.044   0.005   2.678 -0.9910 -0.8329  1.6409
  693MOL0     H93542   4.809  -0.005   2.713  0.0690  0.1917  0.2036
  693MOL0     H93543   4.557   0.376   2.731 -1.4425  0.7834  1.9421
  693MOL0     H93544   4.631   0.320   2.878 -1.3303 -0.0688  0.0454
  693MOL0     H93545   4.376   0.327   2.884 -0.4505 -0.9609  2.3879
  693MOL0     H93546   4.464   0.178   2.937 -0.6664  0.6101  0.2216
  693MOL0     H93547   4.414   0.066   2.741 -2.6774 -0.0893  0.5427
  693MOL0     H93548   4.392   0.212   2.647 -1.1186  1.2172 -0.2041
  693MOL0     H93549   4.175   0.094   2.679  0.3418  0.0024  1.0779
  693MOL0     H93550   4.183   0.115   2.851  0.3105  1.2234  0.6222
  693MOL0     H93551   4.021   0.474   2.683 -0.4384  0.3223  2.1213
  693MOL0     H93552   4.767   0.407   2.672  0.6169  0.8522 -1.7475
  693MOL0     H93553   5.100   0.522   2.684  0.4680  0.2410 -0.0704
  693MOL0     H93554   5.017   0.500   2.522 -0.1494 -2.7789  1.0759
  693MOL0     H93555   4.929   0.563   2.650 -0.4145  0.9965 -2.4637
  694MOL0     O93556   6.746   3.492   7.016 -0.0411  0.5160  0.9649
  694MOL0     C93557   6.654   3.490   6.930  0.0944 -0.6735  0.1501
  694MOL0     O93558   6.642   3.584   6.833  1.4762 -0.1859 -0.7110
  694MOL0     C93559   6.733   3.689   6.838 -0.5866  0.0057  0.6090
  694MOL0     C93560   6.674   3.815   6.830  0.3417 -0.8645 -0.1653
  694MOL0     C93561   6.757   3.932   6.815  0.1368  0.1915 -0.1596
  694MOL0     C93562   6.893   3.917   6.807 -0.5121  0.1260 -0.1080
  694MOL0     O93563   6.966   4.035   6.799 -0.0658 -0.4212  0.2883
  694MOL0     C93564   7.076   4.052   6.889 -0.7057 -0.9499  0.5350
  694MOL0     C93565   7.039   4.040   7.038 -0.1078  0.8247 -0.8321
  694MOL0     C93566   6.907   4.103   7.079  0.9334  0.0621  0.4628
  694MOL0     C93567   6.866   4.067   7.221  0.8552  0.4511  0.6514
  694MOL0     C93568   6.786   4.151   7.323 -0.3113  0.5271  0.3175
  694MOL0     C93569   6.637   4.173   7.275 -0.6445 -0.5421 -0.3143
  694MOL0     C93570   6.550   4.045   7.274 -0.3174 -0.2496 -0.0856
  694MOL0     C93571   6.534   4.005   7.119  0.3260 -0.8069  0.2084
  694MOL0     N93572   6.419   3.908   7.104 -1.2667  0.1814  0.5029
  694MOL0     C93573   6.417   3.772   7.129 -0.5348  0.1279  0.0101
  694MOL0     C93574   6.304   3.730   7.083  0.3520 -0.0658  0.6282
  694MOL0     C93575   6.268   3.591   7.078  0.0447 -0.1974  0.1857
  694MOL0     C93576   6.210   3.535   7.215  0.3656 -0.3827  1.0196
  694MOL0     C93577   6.307   3.444   7.288 -0.0043 -0.4159 -0.2872
  694MOL0     C93578   6.254   3.403   7.421 -0.1078  1.2431  0.2689
  694MOL0     O93579   6.123   3.333   7.412 -0.2568  0.4963 -0.3780
  694MOL0     C93580   6.058   3.289   7.522 -0.6868 -0.9858  0.6464
  694MOL0     C93581   5.938   3.226   7.493  0.1211 -0.1755  0.1761
  694MOL0     C93582   5.864   3.165   7.599  0.0939  0.8455  1.2645
  694MOL0     C93583   5.909   3.155   7.729  0.0720  1.1793 -0.2640
  694MOL0     C93584   5.820   3.085   7.835  0.8525 -0.1334 -0.0369
  694MOL0     O93585   5.813   3.135   7.959  0.4426 -0.0525  0.1865
  694MOL0     C93586   5.701   3.116   8.037  0.5775  0.0783  0.4337
  694MOL0     C93587   5.696   3.040   8.155  0.5711  0.7337 -0.5112
  694MOL0     C93588   5.577   3.031   8.243 -0.9607 -0.6196 -0.3163
  694MOL0     C93589   5.461   3.104   8.209 -0.5312  0.3098 -0.0929
  694MOL0     O93590   5.347   3.122   8.280 -0.3073 -0.5040 -0.5630
  694MOL0     C93591   5.336   3.032   8.388  0.2526 -0.4732 -0.5324
  694MOL0     C93592   5.203   3.045   8.457 -0.3276  0.5959  0.4771
  694MOL0     C93593   5.157   2.916   8.525  0.1265  0.2551 -0.4550
  694MOL0     C93594   5.036   2.925   8.610 -0.1266 -0.0355 -0.2815
  694MOL0     C93595   5.004   2.793   8.678  0.0219  0.4918 -0.2052
  694MOL0     C93596   4.975   2.673   8.586 -0.1684  0.8004  0.5110
  694MOL0     C93597   4.850   2.681   8.507  0.0780  0.5414 -0.4630
  694MOL0     C93598   4.832   2.601   8.376 -0.6959  1.4405  0.1644
  694MOL0    Cl93599   4.686   2.647   8.287  0.1320  0.6658  0.0495
  694MOL0     C93600   5.460   3.173   8.089  0.4931  0.7603 -0.1738
  694MOL0     C93601   5.574   3.179   8.007 -0.6869 -1.2130  0.1124
  694MOL0     O93602   5.757   2.986   7.787 -0.7916 -1.1336 -0.6605
  694MOL0     C93603   6.032   3.213   7.756  0.1907 -0.2856 -0.8091
  694MOL0     C93604   6.110   3.267   7.653 -0.5296  0.4660  0.6608
  694MOL0     N93605   6.229   3.839   7.032  0.0438  0.1546  0.2053
  694MOL0     N93606   6.303   3.941   7.040  0.0519  0.3360  0.6056
  694MOL0     C93607   6.954   3.788   6.815 -0.0215 -0.3421  0.0106
  694MOL0     C93608   6.872   3.675   6.833  0.6218  0.3169 -0.2326
  694MOL0     C93609   6.554   3.373   6.927  0.1802  1.1231  0.5630
  694MOL0     C93610   6.477   3.355   6.806 -0.1600  0.2876  0.0915
  694MOL0     C93611   6.410   3.235   6.794  0.4821 -0.8503  0.0821
  694MOL0     C93612   6.395   3.139   6.887  0.3937  0.5524  0.0449
  694MOL0     O93613   6.307   3.038   6.866  0.0461  0.0971  0.3803
  694MOL0     C93614   6.257   2.957   6.981  0.6358 -0.3395  0.1483
  694MOL0     C93615   6.176   3.044   7.077  0.6502  0.2717  0.0999
  694MOL0     C93616   6.069   3.112   6.990  0.5689 -0.2680  0.1742
  694MOL0     C93617   5.949   3.162   7.075 -0.1280  0.2723 -0.6157
  694MOL0     C93618   5.885   3.050   7.146 -0.2330 -0.0445  0.0463
  694MOL0     C93619   5.834   2.961   7.208  0.9177 -1.5085 -0.2294
  694MOL0     C93620   6.465   3.151   7.003 -0.1206  0.4106  0.0382
  694MOL0     C93621   6.548   3.267   7.024 -0.2007  0.1417 -0.1089
  694MOL0     C93622   6.626   3.274   7.155  0.1837 -0.9410  0.0878
  694MOL0     H93623   6.567   3.833   6.827  0.1218 -1.9200  0.6268
  694MOL0     H93624   6.717   4.031   6.799 -0.0768 -0.2112 -2.5691
  694MOL0     H93625   7.152   3.981   6.855  1.1574 -0.1649  2.8217
  694MOL0     H93626   7.105   4.157   6.883 -3.3527 -0.1580  0.1576
  694MOL0     H93627   7.123   4.084   7.093  2.7275 -0.6707 -3.6059
  694MOL0     H93628   7.025   3.935   7.068 -1.3186  1.4874  1.1054
  694MOL0     H93629   6.838   4.084   6.997  4.1843  2.1532 -3.0732
  694MOL0     H93630   6.902   4.211   7.060 -1.8483 -0.2573 -1.0962
  694MOL0     H93631   6.822   3.967   7.220  1.9261 -0.0602 -1.5712
  694MOL0     H93632   6.958   4.044   7.275 -0.2814 -3.7146  1.1561
  694MOL0     H93633   6.790   4.100   7.419 -0.5593  2.0266  1.1523
  694MOL0     H93634   6.826   4.253   7.331  1.4774 -0.1604  0.4932
  694MOL0     H93635   6.600   4.248   7.346  1.4876  0.1708  0.1053
  694MOL0     H93636   6.643   4.227   7.179 -1.4124 -1.9099 -1.1585
  694MOL0     H93637   6.456   4.075   7.321 -0.1044  1.1838 -0.5465
  694MOL0     H93638   6.581   3.954   7.326  4.1164  1.9352  1.6195
  694MOL0     H93639   6.534   4.094   7.056 -2.1394  0.3371  1.7102
  694MOL0     H93640   6.625   3.960   7.077  2.0235  1.6944  1.0240
  694MOL0     H93641   6.496   3.707   7.166 -0.1085 -0.1835 -1.3854
  694MOL0     H93642   6.179   3.591   7.015 -0.8676 -0.4967  1.4306
  694MOL0     H93643   6.349   3.527   7.041  1.3993 -0.0156  2.6124
  694MOL0     H93644   6.192   3.616   7.286  0.4305 -1.4755  2.3271
  694MOL0     H93645   6.125   3.470   7.193  0.4497 -0.4958  1.0224
  694MOL0     H93646   6.404   3.491   7.305  0.0502 -1.0771  1.4679
  694MOL0     H93647   6.330   3.365   7.216  0.9776  0.5087 -1.0092
  694MOL0     H93648   6.246   3.492   7.484 -0.0183  0.4428  1.4485
  694MOL0     H93649   6.319   3.328   7.468  0.8489  1.1985 -1.0547
  694MOL0     H93650   5.892   3.224   7.395  1.3164 -0.5280 -0.3979
  694MOL0     H93651   5.766   3.126   7.576  0.1875 -0.2911  2.6298
  694MOL0     H93652   5.789   2.995   8.188  0.6968  1.3417 -0.0041
  694MOL0     H93653   5.588   2.967   8.330  1.5365  1.0500  0.6715
  694MOL0     H93654   5.347   2.928   8.357  2.2587 -1.1160  1.9896
  694MOL0     H93655   5.414   3.043   8.464 -1.2066 -1.0317  1.1153
  694MOL0     H93656   5.202   3.133   8.522  0.0922  0.4518  0.6851
  694MOL0     H93657   5.138   3.066   8.371  2.5680 -3.0832 -3.0181
  694MOL0     H93658   5.136   2.838   8.450 -2.8087 -1.4661  1.9316
  694MOL0     H93659   5.235   2.876   8.590  0.1601 -0.1750 -0.7488
  694MOL0     H93660   4.953   2.952   8.544  0.2924 -0.6596 -1.0820
  694MOL0     H93661   5.053   3.006   8.681 -0.8804  0.7777 -0.9979
  694MOL0     H93662   4.916   2.810   8.740  0.4440  0.5861  0.3800
  694MOL0     H93663   5.080   2.787   8.756 -1.5573  2.7457  1.6500
  694MOL0     H93664   5.064   2.662   8.524 -0.0525  3.5793  0.0396
  694MOL0     H93665   4.957   2.582   8.643  2.2311  0.5580  0.9639
  694MOL0     H93666   4.839   2.787   8.483 -1.0125  0.5387 -0.0472
  694MOL0     H93667   4.762   2.654   8.565  0.8315  1.3320  1.0908
  694MOL0     H93668   4.918   2.614   8.309 -0.3767  0.4912  0.3652
  694MOL0     H93669   4.830   2.495   8.403 -2.1457  1.7013  1.1472
  694MOL0     H93670   5.381   3.243   8.064 -0.2617  0.2563  0.7790
  694MOL0     H93671   5.568   3.228   7.910 -1.3211  2.3611  1.8235
  694MOL0     H93672   6.073   3.216   7.857  0.6956  3.0770 -0.9867
  694MOL0     H93673   6.212   3.298   7.675 -0.6384  1.8235 -0.5928
  694MOL0     H93674   7.061   3.768   6.817 -0.5023 -3.2688  0.6476
  694MOL0     H93675   6.915   3.576   6.836 -3.4036 -1.5671  0.3853
  694MOL0     H93676   6.482   3.421   6.720  0.1389 -0.8588 -0.8031
  694MOL0     H93677   6.355   3.213   6.703 -0.6253  2.1088 -0.0748
  694MOL0     H93678   6.340   2.913   7.038  1.6815 -0.1485 -1.1797
  694MOL0     H93679   6.208   2.870   6.937  0.5758  0.8949 -2.3606
  694MOL0     H93680   6.239   3.124   7.119  2.8572  0.6492 -3.4523
  694MOL0     H93681   6.132   2.981   7.154  0.5312  0.9307  0.5859
  694MOL0     H93682   6.019   3.050   6.914 -2.0213  0.2826  1.3067
  694MOL0     H93683   6.111   3.198   6.936 -0.6830 -1.1754 -2.4362
  694MOL0     H93684   5.977   3.237   7.150  1.0026  1.1832 -1.9077
  694MOL0     H93685   5.869   3.203   7.012 -1.2958  1.2706  1.4074
  694MOL0     H93686   5.795   2.875   7.260  2.2355 -1.6814  0.5101
  694MOL0     H93687   6.466   3.070   7.075 -0.6092 -0.4634 -0.9146
  694MOL0     H93688   6.601   3.191   7.222 -2.1774  0.5227  1.1775
  694MOL0     H93689   6.734   3.269   7.142 -0.0202 -0.6049 -2.1022
  694MOL0     H93690   6.612   3.371   7.203 -1.7836 -1.6751  1.1405
  695MOL0     O93691   3.199   1.957   0.189 -0.0425 -0.1420  0.0525
  695MOL0     C93692   3.187   2.027   0.084  0.1716  0.6336 -0.1259
  695MOL0     O93693   3.285   2.117   0.045 -0.6314 -0.4375  0.1244
  695MOL0     C93694   3.411   2.118   0.111  0.4235 -0.2361  0.1400
  695MOL0     C93695   3.422   2.163   0.244 -0.0678 -1.1755  0.9194
  695MOL0     C93696   3.537   2.149   0.314  0.1844  0.2535 -0.3221
  695MOL0     C93697   3.657   2.114   0.249  0.6867 -0.3197  0.2147
  695MOL0     O93698   3.783   2.103   0.299 -0.8403  0.4823  0.7852
  695MOL0     C93699   3.794   2.084   0.442 -0.1975 -0.0278 -0.2533
  695MOL0     C93700   3.942   2.134   0.476  0.6891  0.4565  0.4110
  695MOL0     C93701   4.051   2.026   0.464  0.3021 -0.3691  0.4063
  695MOL0     C93702   4.041   1.907   0.552 -0.3539 -0.3853 -0.6180
  695MOL0     C93703   4.185   1.857   0.578 -1.1729 -0.7719 -0.1376
  695MOL0     C93704   4.249   1.934   0.697  0.9151  0.4003  1.1188
  695MOL0     C93705   4.377   1.867   0.742  0.5874  0.0648 -0.1816
  695MOL0     C93706   4.356   1.726   0.782 -0.3397 -0.0620  0.3384
  695MOL0     N93707   4.476   1.673   0.841 -0.0276  0.5274 -0.4319
  695MOL0     C93708   4.582   1.613   0.781 -0.4723 -0.1841 -0.1327
  695MOL0     C93709   4.628   1.526   0.877  0.5431 -0.7553  0.6581
  695MOL0     C93710   4.751   1.430   0.857  0.0413 -0.8859 -0.4272
  695MOL0     C93711   4.881   1.515   0.880 -0.0503 -0.3423  0.4896
  695MOL0     C93712   4.909   1.573   1.018  0.5259  1.4233 -0.0653
  695MOL0     C93713   5.021   1.684   1.032  0.0026  0.4512 -0.2849
  695MOL0     O93714   4.976   1.820   1.003  0.5885 -0.3271  0.0317
  695MOL0     C93715   4.931   1.850   0.874  0.0733 -0.5769 -1.1636
  695MOL0     C93716   4.998   1.818   0.756  0.6401  0.3427 -0.6035
  695MOL0     C93717   4.957   1.876   0.641  0.1623 -0.6393  0.2320
  695MOL0     C93718   4.850   1.961   0.637 -0.2524 -0.5479 -1.1851
  695MOL0     C93719   4.802   2.023   0.508  0.1430 -0.3858 -0.1549
  695MOL0     O93720   4.670   2.066   0.516  0.2433 -0.7644 -0.0665
  695MOL0     C93721   4.610   2.129   0.417  0.1836 -0.6710 -0.4781
  695MOL0     C93722   4.673   2.245   0.369  0.2173 -0.9056  0.3887
  695MOL0     C93723   4.599   2.315   0.274  0.4927  0.4315  0.5501
  695MOL0     C93724   4.478   2.263   0.211  0.3431 -0.3056  0.9043
  695MOL0     O93725   4.404   2.328   0.111  0.7800  0.6779  0.3313
  695MOL0     C93726   4.488   2.394   0.016 -0.1491 -0.0983  0.2030
  695MOL0     C93727   4.406   2.426  -0.110  0.2487  0.5750 -0.5377
  695MOL0     C93728   4.283   2.521  -0.091 -0.6376 -0.0244  0.3270
  695MOL0     C93729   4.313   2.627   0.018 -0.4154 -1.1646  0.0786
  695MOL0     C93730   4.214   2.734   0.002  0.4873 -0.9940 -0.2223
  695MOL0     C93731   4.230   2.863   0.092  0.2345 -0.0091 -0.7280
  695MOL0     C93732   4.212   2.842   0.249  0.1419  0.1000  0.7544
  695MOL0     C93733   4.072   2.790   0.286 -0.0844 -0.2392 -0.3719
  695MOL0    Cl93734   3.952   2.910   0.219  0.4582 -0.6175  0.1032
  695MOL0     C93735   4.433   2.140   0.258  0.7182  0.6432  0.6604
  695MOL0     C93736   4.494   2.080   0.364  0.0430  0.1115 -0.2833
  695MOL0     O93737   4.881   2.037   0.413  0.3827 -0.5889 -0.6354
  695MOL0     C93738   4.773   1.978   0.759  0.6346  1.0309  1.5779
  695MOL0     C93739   4.820   1.928   0.876  0.0451 -0.0411  0.1591
  695MOL0     N93740   4.555   1.546   0.989  0.7430  0.5403 -0.2853
  695MOL0     N93741   4.469   1.637   0.969  0.2421  0.7874  0.0257
  695MOL0     C93742   3.654   2.069   0.112  0.2252 -0.3708 -0.9216
  695MOL0     C93743   3.531   2.075   0.041 -0.0784  0.3249 -0.1898
  695MOL0     C93744   3.058   2.003  -0.000  0.0119 -0.1774  0.0254
  695MOL0     C93745   3.053   2.096  -0.110 -0.2383 -0.2106 -0.0520
  695MOL0     C93746   2.941   2.107  -0.189  0.2479  0.1260  0.4257
  695MOL0     C93747   2.817   2.037  -0.159 -0.2679  0.5163  1.3130
  695MOL0     O93748   2.699   2.062  -0.235  0.0364  0.2419  0.1826
  695MOL0     C93749   2.588   1.982  -0.198  0.9637  0.2421 -0.2422
  695MOL0     C93750   2.476   1.989  -0.298 -0.7171  0.2858 -0.6364
  695MOL0     C93751   2.442   2.132  -0.350  0.4936  0.0128  0.3548
  695MOL0     C93752   2.314   2.172  -0.419 -0.2921  0.7165  0.2871
  695MOL0     C93753   2.318   2.312  -0.463  0.7330  0.2393 -0.3284
  695MOL0     C93754   2.311   2.433  -0.474  0.3251 -0.1479 -0.1129
  695MOL0     C93755   2.832   1.952  -0.049  0.0536  0.7595  0.0714
  695MOL0     C93756   2.955   1.923   0.023 -0.5749 -0.4324  0.2007
  695MOL0     C93757   2.953   1.812   0.123  0.8584 -0.2242  0.3977
  695MOL0     H93758   3.332   2.196   0.296 -1.2647 -2.4189 -0.2802
  695MOL0     H93759   3.533   2.175   0.419 -1.4954 -1.0622 -0.0207
  695MOL0     H93760   3.725   2.152   0.492 -3.2506 -2.7484 -0.4558
  695MOL0     H93761   3.771   1.983   0.479  2.6531 -0.7832 -0.2863
  695MOL0     H93762   3.933   2.165   0.581  1.9565 -0.1175  0.7030
  695MOL0     H93763   3.980   2.215   0.413  2.0631 -0.5127 -0.0452
  695MOL0     H93764   4.142   2.086   0.468  0.2771  0.2451 -3.7673
  695MOL0     H93765   4.053   1.989   0.362  2.0278  0.6522  0.0256
  695MOL0     H93766   3.998   1.927   0.651  0.9849  2.5195 -0.5012
  695MOL0     H93767   3.977   1.830   0.509 -2.5452  1.2445 -0.4641
  695MOL0     H93768   4.170   1.752   0.603 -1.2086 -0.9980 -1.0623
  695MOL0     H93769   4.245   1.859   0.486  2.9605  1.1605  2.2876
  695MOL0     H93770   4.265   2.037   0.664  0.1602  0.6099  1.3753
  695MOL0     H93771   4.183   1.953   0.782 -2.4235  0.8893 -1.3572
  695MOL0     H93772   4.426   1.918   0.825 -1.3394  1.4794  0.1466
  695MOL0     H93773   4.451   1.873   0.661  0.8095 -0.8425 -0.0614
  695MOL0     H93774   4.261   1.729   0.837 -0.8117  1.5915 -0.4909
  695MOL0     H93775   4.345   1.664   0.692  0.1949  0.0375  0.2019
  695MOL0     H93776   4.622   1.605   0.681 -1.9119 -6.0189 -0.6190
  695MOL0     H93777   4.753   1.346   0.927 -0.0695 -2.7521 -2.5527
  695MOL0     H93778   4.743   1.390   0.756 -1.3390 -1.9166  0.0501
  695MOL0     H93779   4.965   1.450   0.850  1.9732  2.7273 -1.0862
  695MOL0     H93780   4.879   1.599   0.810 -1.0436 -0.2457  0.6177
  695MOL0     H93781   4.934   1.483   1.074 -3.2296 -0.5848 -1.2810
  695MOL0     H93782   4.818   1.613   1.064  0.5324  0.4277  0.8375
  695MOL0     H93783   5.109   1.656   0.974  0.9199 -2.2790  2.2417
  695MOL0     H93784   5.053   1.688   1.136  0.2214 -1.2915 -0.2615
  695MOL0     H93785   5.082   1.750   0.765  0.3988 -0.0113 -0.9650
  695MOL0     H93786   5.014   1.857   0.550  1.3511  2.1317  0.2928
  695MOL0     H93787   4.768   2.273   0.414  0.1181  2.3971 -1.1991
  695MOL0     H93788   4.624   2.418   0.252 -3.9371  1.1138 -2.4489
  695MOL0     H93789   4.546   2.477   0.055  3.6204 -2.2056 -0.4581
  695MOL0     H93790   4.565   2.323  -0.016  0.3874 -1.1585  3.5238
  695MOL0     H93791   4.467   2.481  -0.182 -1.2867 -1.2325 -3.4045
  695MOL0     H93792   4.376   2.336  -0.164 -2.5191  2.5054 -2.5338
  695MOL0     H93793   4.285   2.573  -0.187  0.0582 -3.1042 -1.4583
  695MOL0     H93794   4.194   2.464  -0.063 -0.0256 -0.6574  1.0324
  695MOL0     H93795   4.414   2.664   0.031 -0.3871 -0.3364 -2.0567
  695MOL0     H93796   4.297   2.582   0.116  0.3145 -2.7398 -0.4811
  695MOL0     H93797   4.118   2.689   0.030  1.6353 -3.7562 -0.5112
  695MOL0     H93798   4.212   2.771  -0.101  1.6021 -1.6282 -0.4821
  695MOL0     H93799   4.332   2.902   0.077  0.7651 -0.3877  1.5091
  695MOL0     H93800   4.156   2.935   0.057 -1.8486 -1.5286  0.3630
  695MOL0     H93801   4.210   2.941   0.297 -0.2106  1.6662 -2.2314
  695MOL0     H93802   4.292   2.786   0.299 -0.3785 -1.0195  0.3683
  695MOL0     H93803   4.054   2.693   0.238 -3.4279  0.2378 -0.3465
  695MOL0     H93804   4.051   2.785   0.393 -2.4450  0.3503 -0.7531
  695MOL0     H93805   4.341   2.094   0.222  0.5693  2.1642 -1.0372
  695MOL0     H93806   4.440   1.997   0.409 -0.4928  1.6070  1.9811
  695MOL0     H93807   4.676   2.027   0.759 -0.7122 -0.8275 -4.4157
  695MOL0     H93808   4.787   1.948   0.978 -0.5785 -1.5401  0.2844
  695MOL0     H93809   3.746   2.030   0.071 -0.1330 -2.2300 -0.0602
  695MOL0     H93810   3.516   2.025  -0.054  0.9156 -3.1141  1.2967
  695MOL0     H93811   3.138   2.158  -0.139  0.2871 -0.3540  1.1311
  695MOL0     H93812   2.944   2.179  -0.271  0.9935 -0.2202  0.1427
  695MOL0     H93813   2.555   2.015  -0.099  0.4110  2.6907 -1.1737
  695MOL0     H93814   2.611   1.876  -0.180  1.4611  0.5277  0.8917
  695MOL0     H93815   2.391   1.928  -0.267 -0.9471  1.6109  1.5137
  695MOL0     H93816   2.505   1.944  -0.393 -1.4966  1.0542 -1.2659
  695MOL0     H93817   2.532   2.152  -0.408 -1.1750  0.2575 -2.3380
  695MOL0     H93818   2.439   2.199  -0.264 -2.5504  0.1363  0.2743
  695MOL0     H93819   2.307   2.105  -0.505  0.7971 -1.0257  1.4741
  695MOL0     H93820   2.230   2.145  -0.353 -0.4945 -0.2645 -0.3546
  695MOL0     H93821   2.297   2.538  -0.489  2.2971  0.2820  0.6899
  695MOL0     H93822   2.752   1.883  -0.022 -0.2057  1.2217  0.4954
  695MOL0     H93823   2.950   1.844   0.227 -1.7758  1.5580 -0.1227
  695MOL0     H93824   2.859   1.759   0.106  1.5435 -1.7401  1.1431
  695MOL0     H93825   3.042   1.757   0.092  0.1258 -2.5275  2.1634
  696MOL0     O93826   4.302  11.298   9.087  0.0587  0.2863  0.2180
  696MOL0     C93827   4.232  11.373   9.020 -0.1136  0.4501 -0.5070
  696MOL0     O93828   4.260  11.503   9.000 -0.5600  0.2487  0.4816
  696MOL0     C93829   4.394  11.544   9.021  0.1320  0.1156 -0.5587
  696MOL0     C93830   4.472  11.557   8.908 -0.5279  0.0245 -0.2399
  696MOL0     C93831   4.596  11.618   8.923 -1.1242  0.1978 -0.4580
  696MOL0     C93832   4.644  11.663   9.050 -0.6962  0.2472 -0.5621
  696MOL0     O93833   4.768  11.727   9.064 -0.8056 -0.0491  0.2510
  696MOL0     C93834   4.847  11.756   8.955  0.4910  0.7582  0.4429
  696MOL0     C93835   4.789  11.874   8.882  0.2025  0.3196  0.6009
  696MOL0     C93836   4.864  11.898   8.745 -0.4513 -0.3057 -0.0150
  696MOL0     C93837   4.778  11.961   8.634  0.1150 -0.0864 -0.3765
  696MOL0     C93838   4.842  11.929   8.487  0.4449 -0.3315 -0.6690
  696MOL0     C93839   4.979  11.998   8.473  0.1229  0.7451 -0.8054
  696MOL0     C93840   5.007  11.989   8.316  0.5190  0.1763  0.8826
  696MOL0     C93841   5.148  12.035   8.271 -0.5410  0.1116 -0.0115
  696MOL0     N93842   5.190  12.161   8.331 -0.3256 -0.5558 -0.1417
  696MOL0     C93843   5.246  12.168   8.454  0.8324 -0.0353  0.4055
  696MOL0     C93844   5.285  12.292   8.472 -0.3660  0.9171 -0.9816
  696MOL0     C93845   5.353  12.351   8.591 -0.1222  0.3238  0.2212
  696MOL0     C93846   5.503  12.380   8.560  0.2555 -0.6678 -0.8754
  696MOL0     C93847   5.562  12.491   8.652  0.0985  0.3258  0.0062
  696MOL0     C93848   5.656  12.576   8.572  0.5435 -0.6947  0.6875
  696MOL0     O93849   5.735  12.669   8.646 -0.8023  0.1667  0.7302
  696MOL0     C93850   5.839  12.724   8.578 -0.8331 -0.5906 -0.1182
  696MOL0     C93851   5.860  12.725   8.440 -0.7428  0.2687  0.0274
  696MOL0     C93852   5.983  12.776   8.386 -0.4023 -0.5930 -0.9097
  696MOL0     C93853   6.086  12.830   8.467  0.3628 -0.1383  0.0600
  696MOL0     C93854   6.214  12.899   8.424 -0.5558 -0.3749  0.6202
  696MOL0     O93855   6.288  12.967   8.525 -0.0661 -0.1260  0.7857
  696MOL0     C93856   6.393  13.037   8.482  0.2988  0.0600  0.5107
  696MOL0     C93857   6.525  13.012   8.515 -0.6599 -0.2989  0.0712
  696MOL0     C93858   6.636  13.094   8.484  0.6242 -1.3756  0.0439
  696MOL0     C93859   6.604  13.220   8.426  0.7968 -0.1711  1.0539
  696MOL0     O93860   6.710  13.299   8.405  0.2079 -0.3296  0.2541
  696MOL0     C93861   6.693  13.435   8.357 -0.1948 -0.9680 -0.0648
  696MOL0     C93862   6.837  13.510   8.360 -0.1959 -0.1938  0.7067
  696MOL0     C93863   6.836  13.659   8.334  0.7156 -0.7639  0.4149
  696MOL0     C93864   6.963  13.703   8.277 -0.1488  0.2989  0.3633
  696MOL0     C93865   7.049  13.749   8.395 -0.3404 -0.1878  0.5735
  696MOL0     C93866   7.195  13.695   8.407 -0.3814 -0.4440  0.0835
  696MOL0     C93867   7.278  13.811   8.478  0.2759  0.5139 -0.1041
  696MOL0     C93868   7.248  13.838   8.630  0.3487  0.0735  1.0854
  696MOL0    Cl93869   7.386  13.804   8.728  0.0401 -0.4074  0.0921
  696MOL0     C93870   6.473  13.264   8.400 -0.9260  0.4039 -0.3369
  696MOL0     C93871   6.370  13.162   8.428 -0.4706 -0.8178 -0.1765
  696MOL0     O93872   6.248  12.886   8.304  0.1130 -0.0399  0.3650
  696MOL0     C93873   6.047  12.840   8.604  0.0401 -0.7121  0.1222
  696MOL0     C93874   5.929  12.786   8.656 -0.6301  0.0135  0.0076
  696MOL0     N93875   5.254  12.366   8.357 -0.7384 -0.4843 -0.7464
  696MOL0     N93876   5.199  12.283   8.278 -0.2028 -0.0574  0.0489
  696MOL0     C93877   4.561  11.658   9.162 -0.8518  0.2314 -0.3645
  696MOL0     C93878   4.441  11.595   9.141  0.1248  1.0348  0.8782
  696MOL0     C93879   4.101  11.308   8.969  0.0953 -0.0443 -0.7546
  696MOL0     C93880   4.037  11.221   9.061  0.0257 -0.0972 -0.1073
  696MOL0     C93881   3.912  11.174   9.028  0.5451  0.0350  0.6550
  696MOL0     C93882   3.847  11.208   8.906 -0.8440  0.1005  0.5574
  696MOL0     O93883   3.717  11.173   8.879 -0.6576  0.0880  0.0479
  696MOL0     C93884   3.701  11.038   8.842  0.3697 -0.5281  0.0470
  696MOL0     C93885   3.652  11.013   8.698 -0.3740 -1.0489 -0.1162
  696MOL0     C93886   3.552  10.907   8.702  0.4505 -0.0815  0.1755
  696MOL0     C93887   3.616  10.768   8.729  0.6565 -0.3567 -0.7610
  696MOL0     C93888   3.523  10.656   8.754 -0.5449 -0.2789  0.7012
  696MOL0     C93889   3.447  10.567   8.767  0.2571 -0.8675  0.1049
  696MOL0     C93890   3.912  11.301   8.818 -0.3916 -0.6063 -0.3994
  696MOL0     C93891   4.039  11.346   8.850  0.1415 -0.5807  0.1347
  696MOL0     C93892   4.097  11.454   8.762 -0.1768  0.5627  0.7129
  696MOL0     H93893   4.444  11.510   8.815  4.9746  1.8758 -3.3121
  696MOL0     H93894   4.648  11.618   8.827 -2.3818  1.8205 -1.1863
  696MOL0     H93895   4.942  11.780   9.005  0.3913 -1.6182  1.9249
  696MOL0     H93896   4.868  11.668   8.894 -0.9908  0.4242  0.3827
  696MOL0     H93897   4.807  11.962   8.945  0.4791  0.9393 -0.3244
  696MOL0     H93898   4.683  11.858   8.864  0.4489  1.1133 -1.8693
  696MOL0     H93899   4.897  11.798   8.716  3.1358  0.9822 -0.9017
  696MOL0     H93900   4.961  11.948   8.752  0.1961 -1.6347  0.7736
  696MOL0     H93901   4.676  11.924   8.652  0.0623 -0.2222 -0.9353
  696MOL0     H93902   4.767  12.068   8.653  2.5052  0.1524 -0.1417
  696MOL0     H93903   4.852  11.821   8.468  0.5613 -0.7726  1.6688
  696MOL0     H93904   4.775  11.978   8.416  0.3733  0.5505 -0.0108
  696MOL0     H93905   4.982  12.101   8.511  2.8798  0.0464  1.2583
  696MOL0     H93906   5.059  11.945   8.525 -0.2088  0.3414 -0.7087
  696MOL0     H93907   4.932  12.042   8.258  0.3597  0.7908  1.6350
  696MOL0     H93908   4.991  11.883   8.293 -1.5225  0.2944  1.6098
  696MOL0     H93909   5.212  11.950   8.297 -1.4050 -1.4942 -2.6965
  696MOL0     H93910   5.147  12.042   8.162 -0.5145  2.6192  0.1040
  696MOL0     H93911   5.266  12.087   8.523 -1.1725  1.3156  2.7570
  696MOL0     H93912   5.301  12.444   8.616  2.0616  1.6871 -0.0688
  696MOL0     H93913   5.338  12.288   8.679  1.1390 -0.1197  0.1435
  696MOL0     H93914   5.565  12.289   8.559  1.6385  0.2428 -0.9820
  696MOL0     H93915   5.509  12.424   8.461 -4.0985  1.0092 -0.6114
  696MOL0     H93916   5.629  12.440   8.722  2.0502  2.8693  0.1648
  696MOL0     H93917   5.484  12.547   8.704  0.1973 -2.2646  3.2712
  696MOL0     H93918   5.598  12.627   8.495  2.0296  0.7765  0.4830
  696MOL0     H93919   5.719  12.504   8.520 -2.6869 -0.3633 -4.4070
  696MOL0     H93920   5.790  12.684   8.368 -0.7779 -0.0044  0.2142
  696MOL0     H93921   6.008  12.775   8.280 -0.2405 -0.0311 -0.8829
  696MOL0     H93922   6.541  12.917   8.566  1.9895 -1.4285 -2.5530
  696MOL0     H93923   6.736  13.055   8.500  1.2451 -1.1293 -2.7637
  696MOL0     H93924   6.654  13.426   8.255  0.6260 -1.2885 -0.3638
  696MOL0     H93925   6.634  13.489   8.431  1.7060 -0.2306  0.9967
  696MOL0     H93926   6.898  13.500   8.450  2.4944  0.5297 -0.9231
  696MOL0     H93927   6.896  13.455   8.286  0.4933 -2.5526  2.8402
  696MOL0     H93928   6.765  13.686   8.256  1.7352  1.4659  0.1794
  696MOL0     H93929   6.804  13.704   8.429  1.2473 -2.3524  1.3964
  696MOL0     H93930   6.949  13.794   8.219 -1.8214 -0.6749 -0.8256
  696MOL0     H93931   7.015  13.632   8.212 -1.8159 -0.2950 -0.3654
  696MOL0     H93932   6.996  13.718   8.485  1.7866 -3.7672  0.7979
  696MOL0     H93933   7.059  13.858   8.390  1.8844 -0.4011 -1.0437
  696MOL0     H93934   7.174  13.611   8.474 -1.0484  1.4891  2.4660
  696MOL0     H93935   7.230  13.669   8.307 -0.8373 -0.8370  0.0212
  696MOL0     H93936   7.259  13.902   8.420  0.8164 -0.4694 -1.9106
  696MOL0     H93937   7.385  13.794   8.457  0.5912  1.5575  0.5915
  696MOL0     H93938   7.227  13.945   8.623 -0.2270  0.1347  3.1677
  696MOL0     H93939   7.157  13.787   8.661 -1.1034  2.5433  1.1345
  696MOL0     H93940   6.439  13.364   8.376 -1.6888  1.4107  4.0683
  696MOL0     H93941   6.268  13.194   8.409 -1.5258 -4.1909 -0.8352
  696MOL0     H93942   6.109  12.903   8.667 -1.6778 -0.7202  1.9433
  696MOL0     H93943   5.889  12.798   8.756 -2.2888 -1.6867 -0.3866
  696MOL0     H93944   4.595  11.712   9.250 -0.0704  2.6951 -2.0903
  696MOL0     H93945   4.381  11.597   9.231  2.5145  0.4309  2.5822
  696MOL0     H93946   4.080  11.191   9.156  1.4928  0.6925 -0.5076
  696MOL0     H93947   3.863  11.094   9.083 -0.0234 -1.7053 -2.1775
  696MOL0     H93948   3.621  11.000   8.907  0.8561  0.2011  1.0879
  696MOL0     H93949   3.784  10.981   8.884  1.0888  1.6038  1.6984
  696MOL0     H93950   3.732  10.997   8.626 -0.1581 -2.3236  0.3957
  696MOL0     H93951   3.598  11.100   8.657 -1.3250  0.1726  3.3906
  696MOL0     H93952   3.502  10.909   8.604  0.4251 -0.8228  0.1637
  696MOL0     H93953   3.477  10.932   8.777 -1.3097 -1.8937 -0.8642
  696MOL0     H93954   3.672  10.746   8.637  1.2529 -0.7801 -0.3049
  696MOL0     H93955   3.678  10.771   8.819 -0.1737 -0.3164 -0.1864
  696MOL0     H93956   3.376  10.491   8.793 -0.5921  0.0561  0.5666
  696MOL0     H93957   3.857  11.326   8.728  1.4191 -2.4562 -2.1510
  696MOL0     H93958   4.086  11.553   8.807 -0.1684  0.3752  1.1307
  696MOL0     H93959   4.205  11.442   8.748 -0.1343 -0.5300  1.8359
  696MOL0     H93960   4.048  11.474   8.666  0.1707 -0.9112  0.1954
  697MOL0     O93961   7.297   0.296   0.133 -1.3985  0.2805  0.1683
  697MOL0     C93962   7.187   0.261   0.180  0.2953 -0.1859 -0.0749
  697MOL0     O93963   7.069   0.277   0.131 -0.2621 -0.5263 -0.0054
  697MOL0     C93964   7.062   0.369   0.028  0.1248 -0.9425 -0.6208
  697MOL0     C93965   7.037   0.500   0.062 -0.9373  0.0522 -0.0867
  697MOL0     C93966   7.037   0.600  -0.035  1.0484 -0.4616  0.3763
  697MOL0     C93967   7.065   0.569  -0.172 -0.2519 -0.4295 -0.0893
  697MOL0     O93968   7.078   0.672  -0.256  0.5408  0.3347 -0.6784
  697MOL0     C93969   7.201   0.691  -0.324 -0.2502 -0.5501  0.1820
  697MOL0     C93970   7.301   0.768  -0.232  0.5541 -0.1335  0.8073
  697MOL0     C93971   7.233   0.886  -0.154 -0.4515 -0.1278  0.3014
  697MOL0     C93972   7.200   0.999  -0.244  0.5582 -0.1470 -0.2465
  697MOL0     C93973   7.165   1.129  -0.165  0.0113 -0.6745 -0.3837
  697MOL0     C93974   7.135   1.257  -0.255 -0.0160 -0.9286  0.6938
  697MOL0     C93975   7.256   1.282  -0.341  0.4836 -0.7194  0.4018
  697MOL0     C93976   7.249   1.416  -0.422  0.0016 -0.2309  0.1824
  697MOL0     N93977   7.356   1.422  -0.524  0.4106 -0.1906  0.1751
  697MOL0     C93978   7.361   1.377  -0.655  0.3152  0.7031 -0.8540
  697MOL0     C93979   7.484   1.418  -0.692  0.6679  0.4923 -0.4395
  697MOL0     C93980   7.542   1.418  -0.832 -0.6173  0.5197 -0.5856
  697MOL0     C93981   7.537   1.569  -0.879 -0.4849  0.1597  0.7307
  697MOL0     C93982   7.590   1.593  -1.021 -0.0011  0.2681  0.0875
  697MOL0     C93983   7.741   1.578  -1.015  0.0737 -1.0434  0.1731
  697MOL0     O93984   7.798   1.664  -1.110 -0.5370  0.0910 -0.2037
  697MOL0     C93985   7.913   1.627  -1.177 -0.2413 -0.3435  0.5720
  697MOL0     C93986   7.980   1.507  -1.161  0.3423  0.1799  0.7782
  697MOL0     C93987   8.115   1.492  -1.220 -0.2854 -0.2895 -0.0677
  697MOL0     C93988   8.163   1.585  -1.305 -0.3282 -0.6551 -0.0700
  697MOL0     C93989   8.297   1.574  -1.362 -0.2369 -0.7732 -1.0759
  697MOL0     O93990   8.386   1.481  -1.321  0.6515 -0.1996  0.2176
  697MOL0     C93991   8.500   1.457  -1.390  0.0157  0.4414 -0.2325
  697MOL0     C93992   8.523   1.474  -1.533  0.1988  0.8418  0.5445
  697MOL0     C93993   8.645   1.452  -1.588  0.1910  0.0004  0.7635
  697MOL0     C93994   8.757   1.415  -1.504  0.1693 -0.1687  0.7664
  697MOL0     O93995   8.883   1.425  -1.555  0.1622  0.2212 -0.0860
  697MOL0     C93996   8.918   1.311  -1.625 -0.3033  0.1826  0.4075
  697MOL0     C93997   9.073   1.299  -1.637  0.1361 -0.8385 -0.9367
  697MOL0     C93998   9.112   1.165  -1.569 -0.1606  0.2781  0.5225
  697MOL0     C93999   9.264   1.130  -1.577  0.4769  0.1351 -0.5303
  697MOL0     C94000   9.302   1.021  -1.473 -0.4405  0.4107  0.7618
  697MOL0     C94001   9.455   0.994  -1.481  0.5235 -0.5809 -0.2125
  697MOL0     C94002   9.513   0.881  -1.395 -0.3017  0.6155  0.1156
  697MOL0     C94003   9.639   0.828  -1.463 -0.7355 -0.0306 -0.7321
  697MOL0    Cl94004   9.696   0.688  -1.368 -0.0907 -0.2731 -0.2593
  697MOL0     C94005   8.741   1.403  -1.370  0.1227 -0.0712 -0.1095
  697MOL0     C94006   8.608   1.407  -1.318  0.3598 -0.1658 -0.0306
  697MOL0     O94007   8.323   1.664  -1.444 -0.5723 -0.7952 -0.6464
  697MOL0     C94008   8.084   1.700  -1.329 -0.2000 -0.3083  0.6205
  697MOL0     C94009   7.966   1.720  -1.263  0.5950 -0.3850  0.0202
  697MOL0     N94010   7.540   1.484  -0.586 -0.7923 -0.4734 -0.5107
  697MOL0     N94011   7.474   1.475  -0.481  0.2233  0.3150 -0.1513
  697MOL0     C94012   7.102   0.439  -0.201 -0.2177  0.1731  0.7288
  697MOL0     C94013   7.096   0.336  -0.105  1.2520 -0.6418 -0.7436
  697MOL0     C94014   7.205   0.185   0.310  0.2395  0.7054  0.1715
  697MOL0     C94015   7.087   0.128   0.361  0.6745  0.2194  0.8114
  697MOL0     C94016   7.081   0.038   0.473 -0.0425  0.7774  1.0150
  697MOL0     C94017   7.200  -0.009   0.527  0.6398  0.1293  0.1945
  697MOL0     O94018   7.191  -0.091   0.633 -0.5763  0.5921  1.1549
  697MOL0     C94019   7.111  -0.208   0.611  0.1284 -1.0313 -0.4913
  697MOL0     C94020   7.203  -0.336   0.608 -0.5102 -0.5288  0.2610
  697MOL0     C94021   7.301  -0.349   0.723  0.3516 -0.2355  0.3533
  697MOL0     C94022   7.448  -0.322   0.691  0.0966  0.6467  0.3883
  697MOL0     C94023   7.538  -0.367   0.801 -1.7930  0.0376  0.1968
  697MOL0     C94024   7.608  -0.390   0.899  0.1318  0.0129 -0.1741
  697MOL0     C94025   7.317   0.042   0.475 -1.0690 -1.5702  0.0683
  697MOL0     C94026   7.328   0.136   0.368  0.6146  0.0806  0.1015
  697MOL0     C94027   7.469   0.177   0.334 -0.1793  0.6969  0.3030
  697MOL0     H94028   7.024   0.519   0.168 -0.6393  0.5768 -0.1376
  697MOL0     H94029   7.020   0.698   0.008  0.1723 -1.2999  2.0677
  697MOL0     H94030   7.242   0.593  -0.346 -1.4888 -0.4155 -3.4200
  697MOL0     H94031   7.189   0.745  -0.419 -2.7932 -0.1599  0.6354
  697MOL0     H94032   7.375   0.804  -0.305 -0.2917 -1.7466 -0.9511
  697MOL0     H94033   7.344   0.695  -0.164 -1.1115 -2.2431 -0.2531
  697MOL0     H94034   7.307   0.916  -0.079  0.1217  0.9139 -0.6461
  697MOL0     H94035   7.146   0.857  -0.095 -1.2779 -0.6170 -1.1075
  697MOL0     H94036   7.287   1.024  -0.305  0.0709  3.0585  0.2327
  697MOL0     H94037   7.111   0.970  -0.301 -1.1218 -0.5559  2.3902
  697MOL0     H94038   7.073   1.119  -0.106  0.9503 -2.6354  0.8643
  697MOL0     H94039   7.246   1.155  -0.096 -1.0574  2.4515 -0.1500
  697MOL0     H94040   7.049   1.230  -0.317 -0.2170  0.4253  0.3384
  697MOL0     H94041   7.110   1.342  -0.190  1.4331 -1.1949  1.6477
  697MOL0     H94042   7.268   1.198  -0.410  0.6122 -0.2544 -0.1493
  697MOL0     H94043   7.344   1.275  -0.276 -0.9319 -0.7587  2.3735
  697MOL0     H94044   7.158   1.435  -0.480  0.9052  2.7727 -0.3952
  697MOL0     H94045   7.261   1.502  -0.356 -0.8429  1.3748 -1.6350
  697MOL0     H94046   7.284   1.332  -0.716  0.9162  1.1883 -1.9896
  697MOL0     H94047   7.644   1.381  -0.818 -0.5711  1.5532  2.9013
  697MOL0     H94048   7.485   1.373  -0.913 -1.1160  0.9885 -0.4945
  697MOL0     H94049   7.437   1.613  -0.873 -0.0299  1.3639 -0.1913
  697MOL0     H94050   7.602   1.634  -0.820  2.8342 -0.2229 -2.1941
  697MOL0     H94051   7.559   1.694  -1.046 -0.5450  0.5497  1.7920
  697MOL0     H94052   7.542   1.528  -1.095 -0.8316  0.4186  0.4824
  697MOL0     H94053   7.764   1.472  -1.034  2.8193 -0.6583  0.8226
  697MOL0     H94054   7.777   1.610  -0.917  1.2331 -0.6989 -0.3400
  697MOL0     H94055   7.958   1.426  -1.092  1.5514 -2.7279 -1.9396
  697MOL0     H94056   8.164   1.395  -1.216  0.4732  0.1270  0.9705
  697MOL0     H94057   8.437   1.503  -1.592 -0.9952 -1.5885  0.9992
  697MOL0     H94058   8.664   1.457  -1.694 -1.7945  0.5607  0.3921
  697MOL0     H94059   8.890   1.214  -1.581  0.0365 -0.3203 -0.4596
  697MOL0     H94060   8.889   1.315  -1.730  2.0863 -1.3625 -0.4033
  697MOL0     H94061   9.108   1.275  -1.738  1.4099 -1.7796 -0.2971
  697MOL0     H94062   9.124   1.382  -1.588 -1.7936 -1.4346  2.3293
  697MOL0     H94063   9.093   1.170  -1.461  0.1963 -0.7545  0.6374
  697MOL0     H94064   9.065   1.077  -1.612  0.7417  0.0032  0.0859
  697MOL0     H94065   9.331   1.215  -1.563  2.0481 -1.0515 -0.6147
  697MOL0     H94066   9.294   1.083  -1.671  3.6235 -2.1474  1.4221
  697MOL0     H94067   9.240   0.933  -1.490 -1.0984  1.4329 -2.8430
  697MOL0     H94068   9.287   1.063  -1.373  1.4759  2.8380  0.1152
  697MOL0     H94069   9.480   0.983  -1.587  1.6733  0.9591 -0.1268
  697MOL0     H94070   9.491   1.089  -1.441  0.3939 -1.1651  1.3661
  697MOL0     H94071   9.444   0.796  -1.390  0.2681  0.1213 -0.4358
  697MOL0     H94072   9.539   0.921  -1.296 -1.7987  0.7734  0.4780
  697MOL0     H94073   9.606   0.796  -1.563  0.3160 -0.2960 -1.0065
  697MOL0     H94074   9.722   0.898  -1.474 -1.4421  1.5305  2.6681
  697MOL0     H94075   8.825   1.385  -1.304  0.7042 -0.2368 -0.8869
  697MOL0     H94076   8.591   1.379  -1.214  0.7452 -0.6483 -0.0932
  697MOL0     H94077   8.118   1.781  -1.393 -0.5482  0.1302  0.9909
  697MOL0     H94078   7.910   1.813  -1.272  3.0510  1.1985  0.0735
  697MOL0     H94079   7.143   0.418  -0.299 -0.2011  1.6085  0.4013
  697MOL0     H94080   7.135   0.237  -0.127  3.9019 -0.1828  1.4669
  697MOL0     H94081   6.996   0.157   0.310  2.1860  2.7916 -0.6423
  697MOL0     H94082   6.981   0.004   0.499  0.1349  0.1154  0.8497
  697MOL0     H94083   7.055  -0.213   0.518  0.0779 -0.2194 -0.5116
  697MOL0     H94084   7.036  -0.221   0.689 -0.3036 -1.0353 -0.9071
  697MOL0     H94085   7.253  -0.333   0.511 -0.0530 -1.2162  0.4668
  697MOL0     H94086   7.136  -0.422   0.618 -2.8294  1.1922  0.5117
  697MOL0     H94087   7.303  -0.452   0.762 -1.6810 -2.2319 -4.0401
  697MOL0     H94088   7.263  -0.290   0.807  2.1948 -0.3577  1.3207
  697MOL0     H94089   7.468  -0.376   0.598  1.2044  1.4662  0.1302
  697MOL0     H94090   7.458  -0.219   0.656 -1.8609  0.8647  0.3851
  697MOL0     H94091   7.672  -0.422   0.979  0.5957 -0.4725 -0.7306
  697MOL0     H94092   7.412   0.006   0.515 -0.7382 -0.7867 -0.0042
  697MOL0     H94093   7.485   0.231   0.240  0.1036  3.2008  1.7081
  697MOL0     H94094   7.496   0.250   0.410  3.3076  1.5932 -1.6286
  697MOL0     H94095   7.532   0.088   0.342 -0.6385  0.5061  2.6413
  698MOL0     O94096   0.136  11.216   5.218  0.7072 -0.3519 -0.6774
  698MOL0     C94097   0.050  11.185   5.302  0.2707 -0.5228  0.6975
  698MOL0     O94098   0.075  11.175   5.429 -0.2375 -0.7465  0.9697
  698MOL0     C94099   0.208  11.200   5.469  0.4544  0.5152 -0.2567
  698MOL0     C94100   0.264  11.335   5.464  0.0127  0.6828  0.7596
  698MOL0     C94101   0.391  11.345   5.511 -0.6452 -0.2244 -0.4553
  698MOL0     C94102   0.469  11.241   5.557  0.9672 -0.2142  0.6931
  698MOL0     O94103   0.596  11.279   5.575 -0.0227  0.2424  0.1004
  698MOL0     C94104   0.695  11.177   5.612  0.2418  0.2344  0.3401
  698MOL0     C94105   0.836  11.211   5.587 -0.4757 -0.9291 -0.5702
  698MOL0     C94106   0.876  11.337   5.677  0.0550 -0.9080 -0.2955
  698MOL0     C94107   1.019  11.372   5.665  0.1958 -0.0028 -0.8547
  698MOL0     C94108   1.045  11.476   5.550  0.1730 -0.2920 -0.8146
  698MOL0     C94109   1.194  11.496   5.506 -0.5154 -0.5354  0.6348
  698MOL0     C94110   1.212  11.601   5.410 -0.0976 -0.7335 -1.3973
  698MOL0     C94111   1.149  11.735   5.437  0.4295  0.7107  0.2195
  698MOL0     N94112   1.153  11.795   5.568 -0.1369  0.5660  0.0767
  698MOL0     C94113   1.265  11.811   5.646  0.7711  0.0807  0.2099
  698MOL0     C94114   1.210  11.852   5.764  0.4125 -1.1908  0.5265
  698MOL0     C94115   1.273  11.881   5.892 -0.1160 -0.1850  0.1382
  698MOL0     C94116   1.184  11.804   6.004 -0.4894 -0.6074  0.1360
  698MOL0     C94117   1.265  11.806   6.130 -1.4540 -1.3968 -2.0180
  698MOL0     C94118   1.372  11.692   6.129  0.4387 -0.4572 -0.4094
  698MOL0     O94119   1.421  11.646   6.259  0.1185  0.4612  0.0187
  698MOL0     C94120   1.416  11.513   6.288  0.1472  0.0617  0.1810
  698MOL0     C94121   1.491  11.435   6.195  0.7553  0.3716  1.2459
  698MOL0     C94122   1.479  11.291   6.201 -0.0996 -1.0045  0.4854
  698MOL0     C94123   1.405  11.240   6.312 -0.0643 -0.6872 -1.2984
  698MOL0     C94124   1.410  11.091   6.335  0.1770  0.6807 -0.0457
  698MOL0     O94125   1.478  11.002   6.256 -0.7624  0.0027  0.2022
  698MOL0     C94126   1.454  10.867   6.265 -0.7688  0.0962  0.1262
  698MOL0     C94127   1.517  10.793   6.360 -0.8319  0.0855 -0.1198
  698MOL0     C94128   1.498  10.654   6.364 -0.2620  0.8520 -0.2946
  698MOL0     C94129   1.409  10.595   6.276  0.9126  0.3954 -0.6620
  698MOL0     O94130   1.388  10.456   6.303 -0.1071  0.4532  0.7451
  698MOL0     C94131   1.482  10.376   6.228  0.2406 -0.0353  0.9298
  698MOL0     C94132   1.420  10.231   6.219  0.7537 -0.4867  1.4940
  698MOL0     C94133   1.336  10.204   6.091 -0.0461 -0.0998 -0.2910
  698MOL0     C94134   1.246  10.323   6.061  0.1124  0.0142  0.4443
  698MOL0     C94135   1.169  10.284   5.934  0.3102 -0.4967 -0.8345
  698MOL0     C94136   1.104  10.405   5.874 -1.1617  0.1461  0.2973
  698MOL0     C94137   1.042  10.374   5.735 -1.0870 -0.2513 -0.1324
  698MOL0     C94138   0.977  10.496   5.683 -0.2274  0.3539  0.4033
  698MOL0    Cl94139   0.998  10.491   5.507 -0.5407  0.3003  0.0137
  698MOL0     C94140   1.332  10.668   6.181  0.5811  0.2076 -0.6167
  698MOL0     C94141   1.367  10.800   6.177  0.4894  0.0473  1.1310
  698MOL0     O94142   1.336  11.055   6.428  0.5597  0.5089  0.0035
  698MOL0     C94143   1.351  11.324   6.415 -0.3723 -0.2218 -0.0826
  698MOL0     C94144   1.334  11.461   6.383  0.1409  0.2868 -1.1174
  698MOL0     N94145   1.077  11.874   5.743  0.1690  0.8805  0.2184
  698MOL0     N94146   1.038  11.834   5.630  0.0352 -0.2498  0.0876
  698MOL0     C94147   0.409  11.110   5.573  0.3695  0.6096  0.2498
  698MOL0     C94148   0.278  11.094   5.530  0.6816 -0.0393 -0.0018
  698MOL0     C94149  -0.081  11.140   5.250  0.5876  0.0461 -0.3379
  698MOL0     C94150  -0.163  11.076   5.336  0.7583  0.3729  0.2597
  698MOL0     C94151  -0.291  11.026   5.292  0.2277  0.0756 -0.4758
  698MOL0     C94152  -0.338  11.049   5.163 -0.5314 -0.3390 -0.0859
  698MOL0     O94153  -0.456  11.008   5.111  0.3188 -0.2678 -0.0108
  698MOL0     C94154  -0.495  10.878   5.165 -0.6020 -0.3442  0.2849
  698MOL0     C94155  -0.523  10.809   5.028  0.3729  0.3436  0.1163
  698MOL0     C94156  -0.576  10.667   5.041 -0.5506  0.0646 -0.3153
  698MOL0     C94157  -0.626  10.607   4.919 -0.9080  0.1772  1.0509
  698MOL0     C94158  -0.539  10.609   4.798  0.3171  0.3350 -0.6802
  698MOL0     C94159  -0.464  10.626   4.711 -0.4713  0.5578  0.5561
  698MOL0     C94160  -0.255  11.117   5.073  0.2438  0.7709  0.0585
  698MOL0     C94161  -0.123  11.157   5.115  0.1736  0.4166 -0.5393
  698MOL0     C94162  -0.045  11.229   5.010  0.2122 -0.0996 -1.3873
  698MOL0     H94163   0.210  11.424   5.433  0.3682  0.7477  0.3196
  698MOL0     H94164   0.426  11.448   5.502  0.8406 -0.4823  1.6703
  698MOL0     H94165   0.676  11.159   5.718  0.7735  0.2608  0.4405
  698MOL0     H94166   0.677  11.085   5.555  0.7679  0.5041 -0.2760
  698MOL0     H94167   0.842  11.256   5.488 -1.9655 -0.1611 -0.3458
  698MOL0     H94168   0.899  11.122   5.591 -3.3936 -3.3616 -3.6309
  698MOL0     H94169   0.832  11.313   5.774 -0.7253 -0.2103 -0.4661
  698MOL0     H94170   0.819  11.427   5.654 -0.5786 -0.8693  1.3435
  698MOL0     H94171   1.044  11.422   5.759 -3.5940  2.1770 -0.7690
  698MOL0     H94172   1.071  11.279   5.643 -3.7852 -2.7290  0.0817
  698MOL0     H94173   0.991  11.443   5.461 -0.5773  3.4953 -1.9256
  698MOL0     H94174   0.992  11.570   5.571  2.6760  1.5594 -2.2248
  698MOL0     H94175   1.244  11.541   5.593  1.0554  0.6680 -0.8237
  698MOL0     H94176   1.250  11.407   5.478  5.0461  2.2832  1.3059
  698MOL0     H94177   1.185  11.571   5.309 -0.0112  0.8596 -1.9228
  698MOL0     H94178   1.321  11.606   5.419 -0.2092 -1.4106  1.5597
  698MOL0     H94179   1.194  11.806   5.366  0.1254 -0.9555 -1.7435
  698MOL0     H94180   1.041  11.729   5.418  0.2094  2.3192  0.7554
  698MOL0     H94181   1.369  11.781   5.641  1.5496  2.4650  0.8064
  698MOL0     H94182   1.377  11.849   5.880 -0.7018 -1.1890 -3.3435
  698MOL0     H94183   1.273  11.988   5.916 -2.2281  0.0340 -0.6602
  698MOL0     H94184   1.100  11.873   6.013  0.3284  1.3651 -4.3772
  698MOL0     H94185   1.159  11.707   5.960  0.7185 -0.2995 -1.3211
  698MOL0     H94186   1.193  11.790   6.211  1.4670 -0.8754  0.9035
  698MOL0     H94187   1.298  11.909   6.147 -2.8748 -1.2805  0.5713
  698MOL0     H94188   1.461  11.715   6.070  0.8673 -3.5659 -1.1446
  698MOL0     H94189   1.324  11.608   6.077 -0.4575 -0.2147  0.0022
  698MOL0     H94190   1.539  11.468   6.103 -1.7933 -0.2196 -0.3853
  698MOL0     H94191   1.534  11.222   6.138  0.7458 -1.9110  2.1472
  698MOL0     H94192   1.576  10.837   6.440 -0.7768  0.6366 -0.4556
  698MOL0     H94193   1.534  10.593   6.447 -0.9051  1.5139  0.4979
  698MOL0     H94194   1.510  10.410   6.128  1.3368  0.3236  1.3344
  698MOL0     H94195   1.572  10.372   6.291  1.0813  0.7950 -0.1717
  698MOL0     H94196   1.498  10.154   6.225 -2.2390 -3.9914 -0.0737
  698MOL0     H94197   1.349  10.215   6.300  2.1304 -3.4485  2.2652
  698MOL0     H94198   1.408  10.191   6.009  1.8206 -0.9417  1.3811
  698MOL0     H94199   1.279  10.111   6.095 -0.6375  0.1193 -2.3187
  698MOL0     H94200   1.315  10.406   6.042  2.1798 -1.4653  1.0946
  698MOL0     H94201   1.183  10.346   6.148 -0.1782  1.6628 -0.1546
  698MOL0     H94202   1.089  10.211   5.954 -2.2344  1.7566 -2.1914
  698MOL0     H94203   1.232  10.223   5.868 -1.3005 -0.5475 -2.3801
  698MOL0     H94204   1.027  10.430   5.947 -0.4613 -1.1254  1.5125
  698MOL0     H94205   1.175  10.488   5.865  0.5017 -0.7991  3.4715
  698MOL0     H94206   0.970  10.292   5.742 -1.2546 -0.0186  1.0925
  698MOL0     H94207   1.119  10.334   5.668  0.6940 -0.4879  1.9562
  698MOL0     H94208   0.869  10.499   5.702 -0.0127  1.9040  1.6018
  698MOL0     H94209   1.024  10.588   5.718 -1.5699  1.3033 -0.1925
  698MOL0     H94210   1.252  10.636   6.115  2.6294 -1.4113 -2.4666
  698MOL0     H94211   1.322  10.864   6.101  1.1687 -0.0179  0.6661
  698MOL0     H94212   1.321  11.273   6.506 -0.9468 -2.1278 -1.2832
  698MOL0     H94213   1.267  11.511   6.453 -1.5135 -4.2397  0.9459
  698MOL0     H94214   0.461  11.033   5.628 -1.7744 -0.7147  0.5251
  698MOL0     H94215   0.236  10.996   5.552  0.2678  0.2719  0.5907
  698MOL0     H94216  -0.134  11.062   5.440  0.8300  0.2766  0.2264
  698MOL0     H94217  -0.365  10.994   5.364 -1.2399 -1.3262 -2.4798
  698MOL0     H94218  -0.582  10.901   5.227  0.6639 -1.8286  2.7794
  698MOL0     H94219  -0.423  10.826   5.229  0.7041  1.8263  0.7063
  698MOL0     H94220  -0.436  10.804   4.962 -0.5367 -0.3955 -1.0684
  698MOL0     H94221  -0.596  10.878   4.985  0.6653  0.5409 -0.0619
  698MOL0     H94222  -0.650  10.656   5.121 -0.3657 -1.6805 -0.3374
  698MOL0     H94223  -0.492  10.601   5.066 -1.5058 -1.7141 -1.5522
  698MOL0     H94224  -0.646  10.503   4.947  0.2758 -0.0478  1.1132
  698MOL0     H94225  -0.722  10.658   4.903 -0.3931  0.9341  0.2878
  698MOL0     H94226  -0.403  10.636   4.624  0.6403 -1.9965  0.9825
  698MOL0     H94227  -0.283  11.113   4.969  2.3296 -0.1505 -0.5212
  698MOL0     H94228  -0.032  11.334   5.038 -1.5121 -0.3071  0.4322
  698MOL0     H94229   0.045  11.169   5.000  0.0052 -1.0738  1.7960
  698MOL0     H94230  -0.096  11.236   4.913  1.3394  1.2048 -1.9131
  699MOL0     O94231   7.368   1.240   0.226 -0.1624 -0.3408  0.3317
  699MOL0     C94232   7.395   1.120   0.259 -0.0852  0.0394  0.2337
  699MOL0     O94233   7.510   1.075   0.317  0.1426  0.2292 -0.8894
  699MOL0     C94234   7.627   1.145   0.315  0.4385 -0.4580  0.0263
  699MOL0     C94235   7.730   1.099   0.237 -0.0150  0.2906 -1.1681
  699MOL0     C94236   7.847   1.170   0.215 -0.0965 -1.2662  0.0429
  699MOL0     C94237   7.865   1.299   0.280  0.4588 -0.9872  0.5708
  699MOL0     O94238   7.974   1.370   0.256  0.4467 -0.0400 -0.2626
  699MOL0     C94239   7.962   1.511   0.249 -0.3352  0.0226  0.4834
  699MOL0     C94240   8.087   1.563   0.180 -0.2840 -1.3448  0.2308
  699MOL0     C94241   8.125   1.498   0.049 -0.3020  0.8284 -1.1927
  699MOL0     C94242   8.058   1.562  -0.073  0.2303 -0.2345 -0.6084
  699MOL0     C94243   8.021   1.468  -0.187  0.5209 -0.5834  0.7059
  699MOL0     C94244   7.969   1.546  -0.310  0.3017 -0.0294 -0.2099
  699MOL0     C94245   7.885   1.457  -0.408  0.7511  0.2434  0.5528
  699MOL0     C94246   7.852   1.539  -0.537 -1.1464  0.4442 -0.4891
  699MOL0     N94247   7.970   1.568  -0.617 -0.2141 -0.1273  0.3094
  699MOL0     C94248   8.034   1.683  -0.640  0.4783 -0.4531  0.1339
  699MOL0     C94249   8.115   1.667  -0.742 -0.1346 -0.3020  0.4786
  699MOL0     C94250   8.202   1.767  -0.804 -0.7420 -0.4565 -0.1944
  699MOL0     C94251   8.263   1.712  -0.926  0.7091 -0.2850  0.4253
  699MOL0     C94252   8.381   1.803  -0.976  0.0492  0.0200  0.6411
  699MOL0     C94253   8.428   1.782  -1.126 -0.1504  0.3051 -0.9404
  699MOL0     O94254   8.537   1.694  -1.130  0.6902 -0.3768  0.0925
  699MOL0     C94255   8.637   1.717  -1.223 -0.4602 -0.5311 -0.3665
  699MOL0     C94256   8.609   1.789  -1.344 -0.0235  0.5821 -0.5078
  699MOL0     C94257   8.712   1.822  -1.430 -0.9915 -0.6432  0.4677
  699MOL0     C94258   8.847   1.780  -1.405 -0.3375  0.5591  1.7677
  699MOL0     C94259   8.969   1.826  -1.479 -0.2615 -0.1482 -0.7586
  699MOL0     O94260   9.088   1.798  -1.425 -0.4681  0.9556 -0.5680
  699MOL0     C94261   9.194   1.855  -1.472 -0.3838 -0.5032  0.3555
  699MOL0     C94262   9.240   1.827  -1.602 -0.7342  0.2566 -0.0900
  699MOL0     C94263   9.356   1.878  -1.654  0.3563 -0.0949  0.2399
  699MOL0     C94264   9.429   1.971  -1.576 -0.3770  0.4007 -0.0236
  699MOL0     O94265   9.552   2.024  -1.621 -0.0873 -0.2173  0.1236
  699MOL0     C94266   9.598   2.006  -1.752  0.5251  0.9028 -0.0704
  699MOL0     C94267   9.732   2.063  -1.789 -0.3527 -0.3388  0.6899
  699MOL0     C94268   9.852   2.015  -1.697  0.5106 -0.8613  0.4447
  699MOL0     C94269   9.864   2.111  -1.569  0.5544 -0.4427  0.1715
  699MOL0     C94270   9.975   2.071  -1.472 -0.3220 -0.0034  0.4378
  699MOL0     C94271  10.116   2.131  -1.507  0.8782  0.2609 -0.0325
  699MOL0     C94272  10.209   2.076  -1.390  1.0644  0.5335  0.2407
  699MOL0     C94273  10.349   2.071  -1.443 -0.0137  0.9963 -0.0039
  699MOL0    Cl94274  10.455   2.040  -1.304  0.2098 -0.0029  0.2937
  699MOL0     C94275   9.379   2.009  -1.450 -0.7150  0.2373  0.2023
  699MOL0     C94276   9.278   1.945  -1.391 -0.2713  0.8983 -0.9025
  699MOL0     O94277   8.952   1.893  -1.586  1.3927  0.3839  0.2552
  699MOL0     C94278   8.870   1.711  -1.287 -0.2208 -0.7039 -0.2243
  699MOL0     C94279   8.774   1.699  -1.189  0.5684 -0.4658  0.6612
  699MOL0     N94280   8.099   1.536  -0.787  1.0150 -0.1476 -0.8910
  699MOL0     N94281   8.010   1.479  -0.712 -0.1280  0.2347 -1.1065
  699MOL0     C94282   7.760   1.345   0.360 -0.4461  0.2246 -0.6703
  699MOL0     C94283   7.644   1.271   0.380  0.6238  0.1454 -0.4797
  699MOL0     C94284   7.292   1.018   0.253 -0.0211 -0.2541 -0.2477
  699MOL0     C94285   7.160   1.063   0.258  0.1782 -0.0872  0.4116
  699MOL0     C94286   7.045   0.975   0.273  0.0475 -0.1764  1.7516
  699MOL0     C94287   7.061   0.833   0.267 -0.4499  0.1037 -0.0224
  699MOL0     O94288   6.960   0.740   0.298  0.1573 -0.3444  0.2117
  699MOL0     C94289   6.822   0.780   0.283 -0.7939 -0.0670 -0.0072
  699MOL0     C94290   6.743   0.650   0.300  0.3597  0.1457 -0.9182
  699MOL0     C94291   6.684   0.620   0.442  0.0874  1.0455 -0.4552
  699MOL0     C94292   6.536   0.548   0.420  0.0944  1.1055 -0.3062
  699MOL0     C94293   6.436   0.633   0.365 -0.7421 -0.4965  0.7897
  699MOL0     C94294   6.367   0.710   0.306  0.1451 -0.2530  0.4444
  699MOL0     C94295   7.197   0.790   0.251 -0.2464  0.2875 -0.5544
  699MOL0     C94296   7.305   0.880   0.244 -0.3344  0.2827  0.0575
  699MOL0     C94297   7.429   0.803   0.198 -0.1638 -0.7207 -0.6588
  699MOL0     H94298   7.716   0.999   0.196 -0.6018  0.4526 -1.3852
  699MOL0     H94299   7.930   1.133   0.156 -0.8464  1.8567 -3.3688
  699MOL0     H94300   7.875   1.541   0.190  0.4183  0.4909 -0.4143
  699MOL0     H94301   7.953   1.552   0.349 -0.6392 -4.0721  2.3524
  699MOL0     H94302   8.163   1.543   0.257 -1.2991  2.9130  2.6736
  699MOL0     H94303   8.087   1.671   0.168  0.4737 -1.4416 -0.7193
  699MOL0     H94304   8.103   1.392   0.060 -0.7853  0.9386 -1.0826
  699MOL0     H94305   8.233   1.513   0.037 -0.1646  2.5301  1.3783
  699MOL0     H94306   7.969   1.614  -0.036  0.2512 -0.8231  0.2979
  699MOL0     H94307   8.126   1.641  -0.105  1.1779  0.9099  3.6201
  699MOL0     H94308   8.112   1.412  -0.210  1.6827  0.7570  1.8254
  699MOL0     H94309   7.950   1.393  -0.152  0.5259  0.5168  3.2487
  699MOL0     H94310   7.912   1.633  -0.277  1.8845  0.9491  0.0313
  699MOL0     H94311   8.060   1.580  -0.359  1.0067 -0.9506  0.4279
  699MOL0     H94312   7.787   1.426  -0.372 -0.5065  1.4779 -1.6206
  699MOL0     H94313   7.932   1.365  -0.443 -0.8591 -0.1204 -0.7493
  699MOL0     H94314   7.785   1.486  -0.605  0.5865  0.2992 -2.1638
  699MOL0     H94315   7.801   1.630  -0.504 -1.3368  0.5957 -1.1867
  699MOL0     H94316   8.012   1.772  -0.580 -0.7446 -0.8144  0.2598
  699MOL0     H94317   8.147   1.860  -0.823  0.4441  0.3489  0.2034
  699MOL0     H94318   8.286   1.793  -0.739 -0.7432 -0.0366 -0.3577
  699MOL0     H94319   8.306   1.613  -0.907  0.2894 -0.6060 -0.2642
  699MOL0     H94320   8.191   1.700  -1.008  1.9946  0.0161 -0.7864
  699MOL0     H94321   8.469   1.782  -0.915  0.2423 -3.9987 -0.7110
  699MOL0     H94322   8.360   1.910  -0.964  3.4775  0.7123  1.7060
  699MOL0     H94323   8.451   1.883  -1.161  0.2197  1.2698  1.8468
  699MOL0     H94324   8.350   1.745  -1.193  2.6332 -2.4206 -2.9636
  699MOL0     H94325   8.505   1.804  -1.370 -0.5504 -1.3682  0.2781
  699MOL0     H94326   8.685   1.872  -1.523  0.9819 -2.3190 -1.1178
  699MOL0     H94327   9.182   1.758  -1.663  0.6176  0.9664 -2.3149
  699MOL0     H94328   9.376   1.850  -1.757 -1.1100  0.2662 -0.1762
  699MOL0     H94329   9.613   1.898  -1.762 -2.0038  0.5884 -1.2483
  699MOL0     H94330   9.520   2.049  -1.815  1.7805  2.6328 -0.5242
  699MOL0     H94331   9.751   2.031  -1.892 -0.6529  1.4675  0.0438
  699MOL0     H94332   9.724   2.171  -1.805  0.8113 -0.3884 -0.3670
  699MOL0     H94333   9.839   1.910  -1.669 -0.7306 -1.0582 -0.7254
  699MOL0     H94334   9.945   2.030  -1.752  0.9816 -3.1236  0.5191
  699MOL0     H94335   9.768   2.107  -1.516  1.2465 -2.0261  1.4079
  699MOL0     H94336   9.870   2.216  -1.598 -5.1716 -0.2585 -1.7077
  699MOL0     H94337   9.992   1.963  -1.472  1.0675  0.1878  0.8576
  699MOL0     H94338   9.938   2.115  -1.379 -0.1856  2.4539 -0.5901
  699MOL0     H94339  10.153   2.111  -1.607 -1.5176  0.9440 -1.1316
  699MOL0     H94340  10.107   2.240  -1.506 -0.0410  0.1973  0.0702
  699MOL0     H94341  10.164   1.977  -1.380 -0.2087  0.8584 -1.6948
  699MOL0     H94342  10.195   2.143  -1.304 -3.0935  0.6247 -0.2907
  699MOL0     H94343  10.352   1.993  -1.519 -1.4873  1.8449 -0.9934
  699MOL0     H94344  10.374   2.167  -1.489 -0.8134  0.2208 -2.2173
  699MOL0     H94345   9.423   2.082  -1.382 -0.8012 -2.4718  3.4186
  699MOL0     H94346   9.237   1.965  -1.293 -1.4239  0.4150 -1.2560
  699MOL0     H94347   8.971   1.676  -1.265 -0.4436 -2.7114 -1.9906
  699MOL0     H94348   8.802   1.658  -1.092  1.8370 -0.6362  0.2421
  699MOL0     H94349   7.777   1.439   0.411  1.5990 -0.4629  0.0120
  699MOL0     H94350   7.564   1.304   0.446  0.2801  0.7733 -1.1990
  699MOL0     H94351   7.145   1.170   0.261 -0.9373 -0.1508 -1.3503
  699MOL0     H94352   6.941   1.005   0.282 -0.2201  0.5249 -1.9174
  699MOL0     H94353   6.814   0.828   0.186  4.0944  0.5297 -0.3814
  699MOL0     H94354   6.790   0.847   0.364 -1.2838 -1.8325  1.3448
  699MOL0     H94355   6.828   0.581   0.290 -0.5908 -0.9642 -1.4882
  699MOL0     H94356   6.667   0.640   0.223  0.4718 -2.0458 -0.8209
  699MOL0     H94357   6.668   0.707   0.506 -1.2890  1.7152 -1.6468
  699MOL0     H94358   6.739   0.549   0.504  1.6869  2.2931 -0.3949
  699MOL0     H94359   6.553   0.469   0.345  0.1661  3.5008 -2.9798
  699MOL0     H94360   6.500   0.511   0.516  1.3885  1.5997  0.3850
  699MOL0     H94361   6.317   0.779   0.241  0.6176 -1.1044 -0.8622
  699MOL0     H94362   7.207   0.682   0.242 -0.0787 -0.0097  2.2985
  699MOL0     H94363   7.497   0.868   0.143 -0.4962 -1.0708 -1.4953
  699MOL0     H94364   7.483   0.767   0.286  1.1360 -0.8798 -1.5050
  699MOL0     H94365   7.386   0.719   0.143  2.0277 -2.4656  0.1631
  700MOL0     O94366   2.750   0.449   4.712  0.7783  0.1324  0.2741
  700MOL0     C94367   2.723   0.549   4.651 -0.6842 -0.8411 -0.4300
  700MOL0     O94368   2.799   0.660   4.646  0.2940  0.2345 -0.2261
  700MOL0     C94369   2.898   0.678   4.740  0.3300 -0.2282 -0.5330
  700MOL0     C94370   3.030   0.695   4.702  0.3281  1.0058  0.1339
  700MOL0     C94371   3.131   0.717   4.801  0.1307  1.5892  0.2880
  700MOL0     C94372   3.098   0.718   4.942 -0.8382  0.3536  0.7302
  700MOL0     O94373   3.202   0.738   5.036 -0.1037  0.3679  1.2055
  700MOL0     C94374   3.161   0.823   5.144  0.4131 -0.1258  0.3842
  700MOL0     C94375   3.253   0.930   5.176 -0.7139  0.1208  0.5554
  700MOL0     C94376   3.393   0.870   5.224  0.1657  0.8475 -0.3358
  700MOL0     C94377   3.495   0.977   5.262 -0.2261 -0.1327 -0.9247
  700MOL0     C94378   3.629   0.913   5.275 -0.7973 -0.4835 -0.3541
  700MOL0     C94379   3.742   1.015   5.278 -0.5862 -0.9939 -0.2413
  700MOL0     C94380   3.885   0.948   5.283 -0.2670 -0.2418 -0.7725
  700MOL0     C94381   3.986   1.061   5.251 -0.0247  0.7100  0.2800
  700MOL0     N94382   4.123   1.013   5.261  0.4524 -0.1317  1.1946
  700MOL0     C94383   4.175   0.924   5.171 -0.1332 -0.5393  0.1676
  700MOL0     C94384   4.300   0.899   5.220  0.0392  1.1016 -0.1275
  700MOL0     C94385   4.390   0.793   5.154  0.1263 -0.1573  0.0902
  700MOL0     C94386   4.531   0.779   5.222  0.2816  0.7443 -0.0458
  700MOL0     C94387   4.625   0.900   5.225 -0.3446  0.3052 -0.1230
  700MOL0     C94388   4.664   0.926   5.079 -0.3753  0.0735  0.1516
  700MOL0     O94389   4.768   1.027   5.091 -0.2742  0.6479  0.0358
  700MOL0     C94390   4.903   1.004   5.107 -0.0462  0.2320 -0.5215
  700MOL0     C94391   4.992   1.114   5.113 -0.2588 -0.2555 -0.1015
  700MOL0     C94392   5.133   1.096   5.101  0.1762 -0.3604  0.5750
  700MOL0     C94393   5.190   0.968   5.090  0.3599  0.2353  0.2221
  700MOL0     C94394   5.334   0.948   5.068 -0.6530  1.1246 -1.8022
  700MOL0     O94395   5.362   0.830   5.025 -0.3157  0.6350 -0.6312
  700MOL0     C94396   5.486   0.775   5.021  0.2670  0.7171  0.1543
  700MOL0     C94397   5.588   0.793   5.113  0.2927 -0.3219  0.1285
  700MOL0     C94398   5.704   0.723   5.116 -0.2166  0.5308  0.0613
  700MOL0     C94399   5.726   0.632   5.012 -0.4895 -0.5011  0.3703
  700MOL0     O94400   5.844   0.566   5.011 -0.0042  1.0240 -0.1944
  700MOL0     C94401   5.830   0.428   5.071 -0.1519  0.4632 -0.2629
  700MOL0     C94402   5.932   0.333   4.995  0.7723  0.3069 -0.5226
  700MOL0     C94403   6.078   0.380   5.003  0.0147 -0.1717 -0.3452
  700MOL0     C94404   6.174   0.302   4.910  0.0715 -0.3196 -1.4256
  700MOL0     C94405   6.240   0.182   4.976  0.1257 -0.2527  0.1564
  700MOL0     C94406   6.343   0.218   5.085  1.0712  0.0659 -0.2328
  700MOL0     C94407   6.495   0.193   5.032 -0.0984  0.4352 -0.5652
  700MOL0     C94408   6.551   0.252   4.898  0.1337 -1.4475  0.1530
  700MOL0    Cl94409   6.544   0.443   4.899  0.0527  0.1107 -0.6533
  700MOL0     C94410   5.637   0.615   4.907  0.1402  0.1213 -0.7005
  700MOL0     C94411   5.510   0.683   4.914  0.3512 -0.1262 -0.5899
  700MOL0     O94412   5.413   1.032   5.103  0.0938  0.3069 -0.3195
  700MOL0     C94413   5.101   0.856   5.094  0.0751  0.5341  0.5939
  700MOL0     C94414   4.961   0.871   5.102  0.3037 -0.0512  0.0217
  700MOL0     N94415   4.315   0.960   5.339 -0.5981 -0.1962 -0.2289
  700MOL0     N94416   4.213   1.026   5.366 -0.1279  0.5806  0.1134
  700MOL0     C94417   2.963   0.703   4.973  0.2172  0.0569  0.0026
  700MOL0     C94418   2.861   0.679   4.876 -0.8569 -0.4952 -0.5452
  700MOL0     C94419   2.600   0.569   4.570 -0.3852  0.3514  0.0628
  700MOL0     C94420   2.613   0.637   4.447  0.0397 -0.7506  0.0349
  700MOL0     C94421   2.502   0.656   4.370  0.6030 -0.4748 -0.4503
  700MOL0     C94422   2.372   0.624   4.411  0.6384  0.1416  0.7825
  700MOL0     O94423   2.260   0.646   4.333 -1.4620  0.3593 -0.4287
  700MOL0     C94424   2.271   0.709   4.198 -0.1187  0.4297  0.1868
  700MOL0     C94425   2.128   0.732   4.163  1.8673  0.8610  0.7947
  700MOL0     C94426   2.048   0.599   4.161  0.4102  0.2475 -0.1039
  700MOL0     C94427   1.902   0.614   4.111 -0.4120 -0.2966 -0.3479
  700MOL0     C94428   1.890   0.687   3.989  0.0490  0.2035  0.6414
  700MOL0     C94429   1.868   0.755   3.891  0.3970  0.1845  1.6734
  700MOL0     C94430   2.359   0.553   4.529  0.4492  0.9728 -0.2885
  700MOL0     C94431   2.475   0.517   4.610 -0.2106 -0.1995 -0.0539
  700MOL0     C94432   2.466   0.458   4.753  0.4513 -0.0562  0.1627
  700MOL0     H94433   3.052   0.706   4.596  0.4742 -1.1064 -0.0942
  700MOL0     H94434   3.238   0.722   4.783  0.3045 -0.5485  0.4786
  700MOL0     H94435   3.075   0.882   5.109 -0.1895 -1.1062  0.1861
  700MOL0     H94436   3.139   0.762   5.231  1.6608  0.3251  1.0382
  700MOL0     H94437   3.217   0.997   5.254  0.3964  0.0969  1.1049
  700MOL0     H94438   3.265   0.981   5.080 -1.4480 -1.6984 -0.5680
  700MOL0     H94439   3.433   0.798   5.153  2.6347 -0.2560  1.9855
  700MOL0     H94440   3.367   0.803   5.307 -0.5344 -0.0401 -1.2567
  700MOL0     H94441   3.493   1.069   5.203 -0.7194  1.2051  1.0747
  700MOL0     H94442   3.469   1.010   5.363  1.9167  1.0300 -0.7053
  700MOL0     H94443   3.632   0.850   5.364  0.4003  1.6453  1.1814
  700MOL0     H94444   3.640   0.850   5.186 -1.4277 -0.3496 -0.5325
  700MOL0     H94445   3.736   1.095   5.204 -1.0361 -0.0720  0.7640
  700MOL0     H94446   3.715   1.072   5.366  0.3717  3.0260 -2.3229
  700MOL0     H94447   3.896   0.872   5.205 -0.2796  1.9612 -3.0499
  700MOL0     H94448   3.910   0.913   5.383  0.6532 -1.9978 -1.5621
  700MOL0     H94449   3.957   1.099   5.153 -0.2143 -0.4737 -0.1491
  700MOL0     H94450   3.989   1.145   5.321  1.6097  2.6696 -2.0231
  700MOL0     H94451   4.125   0.868   5.093  0.3280 -1.3460  0.4286
  700MOL0     H94452   4.352   0.690   5.156  1.0752 -0.5167  0.2587
  700MOL0     H94453   4.400   0.806   5.046 -1.7242 -2.2846 -0.4352
  700MOL0     H94454   4.499   0.755   5.324 -1.0250  0.8269 -0.4207
  700MOL0     H94455   4.586   0.698   5.174 -0.4348  0.9545 -1.2582
  700MOL0     H94456   4.708   0.869   5.289  1.5774  0.8594 -2.2605
  700MOL0     H94457   4.585   0.989   5.275 -1.2645  0.0373 -0.3543
  700MOL0     H94458   4.570   0.951   5.029 -0.0954  0.0830 -0.3788
  700MOL0     H94459   4.716   0.849   5.021 -0.9784  1.7166 -2.7767
  700MOL0     H94460   4.951   1.215   5.104 -4.2055 -1.6071  0.8569
  700MOL0     H94461   5.195   1.184   5.086  0.9455 -0.7960  1.0943
  700MOL0     H94462   5.562   0.853   5.200 -2.3090 -0.1057 -0.7098
  700MOL0     H94463   5.775   0.739   5.197  0.3952  1.0636 -0.5765
  700MOL0     H94464   5.873   0.432   5.172 -0.9949 -1.4355  0.2331
  700MOL0     H94465   5.726   0.394   5.085 -0.0920  0.0026 -0.8714
  700MOL0     H94466   5.939   0.241   5.053 -1.1261  0.8777  0.7335
  700MOL0     H94467   5.890   0.309   4.897 -3.0243 -2.5519  1.5207
  700MOL0     H94468   6.089   0.487   4.984  1.7730 -0.6982 -2.8067
  700MOL0     H94469   6.112   0.359   5.105 -2.4497 -1.2603  0.3343
  700MOL0     H94470   6.259   0.356   4.866  2.4928 -0.5858  2.4827
  700MOL0     H94471   6.109   0.255   4.836 -1.5388 -2.5681  1.2081
  700MOL0     H94472   6.287   0.112   4.907 -0.3335 -0.0900 -0.3333
  700MOL0     H94473   6.162   0.118   5.016 -0.7727  0.9462  0.3796
  700MOL0     H94474   6.328   0.324   5.108 -2.7088 -0.7228  1.6486
  700MOL0     H94475   6.329   0.163   5.178 -1.2362 -2.1565 -1.7701
  700MOL0     H94476   6.501   0.084   5.026  0.1086  0.2913  1.5495
  700MOL0     H94477   6.561   0.226   5.113 -2.2575 -0.5499  1.7578
  700MOL0     H94478   6.658   0.230   4.902  0.4375 -0.4117 -1.3303
  700MOL0     H94479   6.501   0.208   4.811 -3.9466 -0.2491  1.6530
  700MOL0     H94480   5.660   0.541   4.831  2.0832 -0.0126 -0.0421
  700MOL0     H94481   5.444   0.669   4.829 -0.9296 -1.5780  0.5944
  700MOL0     H94482   5.135   0.755   5.073  1.1791  0.9204  0.4675
  700MOL0     H94483   4.905   0.779   5.094  0.6755 -0.2786  0.0220
  700MOL0     H94484   2.934   0.705   5.078  0.7504 -2.8255  0.3066
  700MOL0     H94485   2.754   0.675   4.895 -1.0315 -2.4903 -1.5942
  700MOL0     H94486   2.715   0.658   4.418  0.6114 -1.8263  1.1610
  700MOL0     H94487   2.509   0.703   4.272 -1.4070  1.9435  0.4508
  700MOL0     H94488   2.306   0.635   4.125  2.1277  0.1575  1.4531
  700MOL0     H94489   2.336   0.796   4.198  0.7662 -0.2085  1.6139
  700MOL0     H94490   2.118   0.787   4.069  1.1870  2.1457  1.5794
  700MOL0     H94491   2.076   0.798   4.234 -0.7487 -2.0802  1.8583
  700MOL0     H94492   2.036   0.544   4.254  1.2953  1.2505  0.6215
  700MOL0     H94493   2.092   0.530   4.089 -3.1849  0.3048 -2.6699
  700MOL0     H94494   1.865   0.512   4.095  0.5767 -0.5140 -1.3996
  700MOL0     H94495   1.839   0.647   4.193  0.7222 -1.8693  1.2300
  700MOL0     H94496   1.847   0.802   3.797 -1.8778 -2.4410  0.6964
  700MOL0     H94497   2.263   0.514   4.560  1.0601 -1.7819 -1.5384
  700MOL0     H94498   2.517   0.361   4.752  1.0296  0.2129 -2.7780
  700MOL0     H94499   2.525   0.523   4.818  1.2375  3.0950 -3.3878
  700MOL0     H94500   2.363   0.453   4.790  0.7230 -0.7538  0.8784
  701MOL0     O94501   3.614   5.907   1.115  0.1377 -0.0155  0.3498
  701MOL0     C94502   3.677   5.820   1.052  0.6275 -0.0300  0.3517
  701MOL0     O94503   3.818   5.823   1.035  0.3514  1.0009  1.0482
  701MOL0     C94504   3.883   5.904   1.122 -0.2082  0.2222  0.1158
  701MOL0     C94505   3.931   5.858   1.245 -0.1962 -1.0165 -0.3109
  701MOL0     C94506   4.020   5.930   1.333  0.6419  0.5408  0.0238
  701MOL0     C94507   4.051   6.070   1.299  0.5652 -0.2914  0.0987
  701MOL0     O94508   4.129   6.151   1.376  0.5642  0.2101 -0.2472
  701MOL0     C94509   4.178   6.101   1.506 -0.5100  0.3630 -0.3262
  701MOL0     C94510   4.259   6.221   1.568 -0.0302 -0.1449 -1.0856
  701MOL0     C94511   4.291   6.186   1.723 -0.0269 -0.7269 -0.4365
  701MOL0     C94512   4.372   6.299   1.782 -0.2712  1.1187  0.1601
  701MOL0     C94513   4.387   6.276   1.937 -0.3618  1.0337 -0.1702
  701MOL0     C94514   4.498   6.373   1.971 -0.7243 -0.0890 -0.5585
  701MOL0     C94515   4.526   6.374   2.118 -0.2965  0.1382  0.4792
  701MOL0     C94516   4.652   6.458   2.136  0.4154 -1.2476  0.6380
  701MOL0     N94517   4.691   6.439   2.268  0.1997 -0.1608 -0.6440
  701MOL0     C94518   4.771   6.344   2.332  0.6394 -0.4761 -0.5545
  701MOL0     C94519   4.760   6.370   2.467  0.3463 -0.3572 -0.2635
  701MOL0     C94520   4.849   6.303   2.560 -0.4085  0.2452 -0.4369
  701MOL0     C94521   4.862   6.382   2.688  0.1661 -0.1300  0.4664
  701MOL0     C94522   4.959   6.317   2.792  0.5062  0.9368 -0.6170
  701MOL0     C94523   4.894   6.188   2.857 -0.8751 -0.5092 -1.1542
  701MOL0     O94524   4.755   6.210   2.891  0.3176  0.7417  0.2893
  701MOL0     C94525   4.666   6.113   2.895  1.0727  0.0029 -0.0135
  701MOL0     C94526   4.541   6.135   2.840 -0.3871  0.6225  1.2461
  701MOL0     C94527   4.451   6.021   2.822  0.3446  0.0142  0.6083
  701MOL0     C94528   4.486   5.891   2.856  0.5724 -0.5879 -0.3595
  701MOL0     C94529   4.397   5.782   2.828  0.2604  0.1877 -0.2185
  701MOL0     O94530   4.454   5.661   2.833 -0.3542 -0.1247  0.0089
  701MOL0     C94531   4.387   5.549   2.804  0.1135  0.1223  0.8848
  701MOL0     C94532   4.249   5.524   2.821  0.8792  0.0475 -0.5734
  701MOL0     C94533   4.191   5.399   2.784  0.3245  0.2674 -0.6769
  701MOL0     C94534   4.269   5.308   2.705  0.7239 -0.7610 -0.8763
  701MOL0     O94535   4.233   5.180   2.681 -0.5709 -0.6395 -0.1080
  701MOL0     C94536   4.093   5.167   2.621  0.6516  0.6287 -0.5455
  701MOL0     C94537   4.091   5.231   2.479 -0.3369  0.4951 -0.5933
  701MOL0     C94538   3.973   5.174   2.395 -0.1174  0.4916  0.7029
  701MOL0     C94539   3.830   5.222   2.432 -0.4696  1.1961  1.1689
  701MOL0     C94540   3.717   5.135   2.379  1.0354 -0.8164  0.5979
  701MOL0     C94541   3.724   5.132   2.220 -0.5022 -0.2364 -0.8189
  701MOL0     C94542   3.610   5.057   2.155 -0.4721  0.0282 -1.1203
  701MOL0     C94543   3.637   4.907   2.126 -0.1501 -0.2214 -0.1131
  701MOL0    Cl94544   3.479   4.818   2.088  0.2014 -0.2813 -0.3157
  701MOL0     C94545   4.390   5.344   2.667  0.9891  0.3464 -0.0130
  701MOL0     C94546   4.457   5.453   2.728  0.7938  0.4274 -0.4604
  701MOL0     O94547   4.292   5.815   2.774 -0.7390  0.7811 -0.3196
  701MOL0     C94548   4.602   5.877   2.925 -0.2703  0.0506  0.7327
  701MOL0     C94549   4.696   5.978   2.929 -0.5899  0.5286 -0.4613
  701MOL0     N94550   4.681   6.489   2.483 -0.5874  0.2158 -0.0846
  701MOL0     N94551   4.637   6.519   2.368 -0.0332 -0.2622 -0.5880
  701MOL0     C94552   4.004   6.114   1.181  0.3120 -0.3068  0.2588
  701MOL0     C94553   3.925   6.034   1.091  0.1282  0.3408 -0.3329
  701MOL0     C94554   3.610   5.711   0.987  0.4609 -0.3022 -0.2753
  701MOL0     C94555   3.524   5.626   1.065 -0.0197 -0.3264  0.4695
  701MOL0     C94556   3.442   5.525   1.009 -0.5436 -0.4562 -0.4006
  701MOL0     C94557   3.459   5.495   0.873 -0.5302  0.5034 -0.2770
  701MOL0     O94558   3.376   5.397   0.814 -0.3364 -0.9380 -0.4963
  701MOL0     C94559   3.420   5.339   0.696 -0.4562  0.3238  0.1875
  701MOL0     C94560   3.343   5.210   0.659  0.0970 -0.1295 -0.4179
  701MOL0     C94561   3.353   5.104   0.772 -0.2981  0.8452  0.1811
  701MOL0     C94562   3.311   4.962   0.722 -0.0430  0.1632  0.2385
  701MOL0     C94563   3.434   4.888   0.667 -0.2956  0.3574 -0.9834
  701MOL0     C94564   3.542   4.840   0.637  0.9219  0.3845  0.6229
  701MOL0     C94565   3.554   5.573   0.802 -0.5415  0.6925  0.0789
  701MOL0     C94566   3.620   5.684   0.848 -0.5406 -0.3895 -0.6088
  701MOL0     C94567   3.704   5.768   0.756 -0.5925  0.0549  0.7398
  701MOL0     H94568   3.902   5.757   1.269  0.3184 -1.3560 -1.0722
  701MOL0     H94569   4.038   5.880   1.427 -1.5935 -0.5219 -0.0574
  701MOL0     H94570   4.103   6.072   1.580  0.9672 -1.0145  0.6657
  701MOL0     H94571   4.248   6.018   1.495 -2.1221 -1.6465  3.0037
  701MOL0     H94572   4.206   6.317   1.575 -4.3635 -2.3438  0.3963
  701MOL0     H94573   4.354   6.242   1.518  0.4773 -2.5220 -1.2198
  701MOL0     H94574   4.355   6.097   1.729 -0.3060 -1.3593 -4.4103
  701MOL0     H94575   4.195   6.180   1.774 -1.0016 -0.0924 -2.1183
  701MOL0     H94576   4.470   6.295   1.734 -0.8755  0.3426 -1.0796
  701MOL0     H94577   4.324   6.395   1.759  0.7512  0.9539 -3.2767
  701MOL0     H94578   4.299   6.291   2.000 -0.0595 -0.5001  0.6683
  701MOL0     H94579   4.415   6.174   1.966  1.2023  0.4434 -3.3052
  701MOL0     H94580   4.590   6.337   1.923 -0.8205 -1.6427  0.3287
  701MOL0     H94581   4.481   6.476   1.938 -1.6287  0.7231  2.2256
  701MOL0     H94582   4.540   6.269   2.147  0.9085  1.0742  3.6996
  701MOL0     H94583   4.443   6.412   2.178 -0.9604 -2.4604  1.3625
  701MOL0     H94584   4.732   6.417   2.072  2.0709 -1.6273  2.8379
  701MOL0     H94585   4.636   6.563   2.111 -1.5973 -1.6995 -0.1273
  701MOL0     H94586   4.832   6.268   2.285  2.4216 -1.3886  2.9062
  701MOL0     H94587   4.796   6.217   2.603  1.5768 -0.7260  0.2165
  701MOL0     H94588   4.941   6.279   2.506 -0.1567  2.0352 -0.8575
  701MOL0     H94589   4.910   6.469   2.642  1.9262 -0.7036  1.1118
  701MOL0     H94590   4.768   6.406   2.739 -0.6855 -2.3393  0.0583
  701MOL0     H94591   4.980   6.383   2.876 -0.3787 -1.0817  1.3208
  701MOL0     H94592   5.052   6.302   2.737  0.2800  0.9867 -1.0235
  701MOL0     H94593   4.954   6.160   2.944  0.3496  1.6863 -1.2227
  701MOL0     H94594   4.907   6.103   2.789  0.3831 -2.0135  0.8611
  701MOL0     H94595   4.510   6.231   2.800  2.1002  1.6476  1.6180
  701MOL0     H94596   4.373   6.043   2.750  2.1765  0.0452 -1.4703
  701MOL0     H94597   4.187   5.591   2.880  1.1352 -0.6012  0.4590
  701MOL0     H94598   4.096   5.366   2.825 -1.1696  1.9448 -2.6090
  701MOL0     H94599   4.076   5.060   2.610  0.1351  0.6291  0.2554
  701MOL0     H94600   4.010   5.210   2.677 -1.4926  0.2968 -3.2323
  701MOL0     H94601   4.089   5.340   2.488 -3.4086  0.3615  2.5989
  701MOL0     H94602   4.187   5.209   2.432  0.5612 -0.0713  1.4081
  701MOL0     H94603   3.994   5.200   2.291  0.5033  2.7156  1.3416
  701MOL0     H94604   3.985   5.065   2.401  1.3319  0.6055  0.1637
  701MOL0     H94605   3.812   5.323   2.391 -0.5990  0.1796 -1.5139
  701MOL0     H94606   3.810   5.224   2.539 -1.3340 -0.0517  1.0457
  701MOL0     H94607   3.620   5.182   2.393  0.3978 -0.5614 -3.4371
  701MOL0     H94608   3.719   5.032   2.415  0.5754 -0.7270  0.8812
  701MOL0     H94609   3.728   5.237   2.187  2.1417  0.6335  1.8118
  701MOL0     H94610   3.817   5.100   2.172  0.5388 -1.5840  1.8678
  701MOL0     H94611   3.590   5.111   2.062  2.6064  1.3574 -1.1151
  701MOL0     H94612   3.524   5.055   2.223  0.7174 -2.8068  0.4642
  701MOL0     H94613   3.716   4.884   2.055  1.7648  1.8466  1.2138
  701MOL0     H94614   3.665   4.855   2.218 -1.3624  0.6104  0.7605
  701MOL0     H94615   4.457   5.279   2.612  0.0348 -0.3061 -0.4377
  701MOL0     H94616   4.562   5.471   2.708  1.2701  0.0542  1.5290
  701MOL0     H94617   4.626   5.776   2.956  2.1556 -0.0024 -1.0587
  701MOL0     H94618   4.797   5.963   2.967 -1.1812  0.4322  1.1780
  701MOL0     H94619   4.034   6.211   1.141 -2.4300 -0.3353 -2.2313
  701MOL0     H94620   3.892   6.066   0.992 -3.3456  0.4054  0.7061
  701MOL0     H94621   3.510   5.641   1.172  0.4608  0.3952  0.4388
  701MOL0     H94622   3.367   5.475   1.070 -0.0618 -0.4523  0.2081
  701MOL0     H94623   3.525   5.310   0.697  0.2097  2.4376  2.4888
  701MOL0     H94624   3.395   5.405   0.613 -0.4523 -0.7157 -0.6602
  701MOL0     H94625   3.389   5.169   0.568 -0.7386 -0.3836 -0.7373
  701MOL0     H94626   3.235   5.226   0.648 -0.5146 -3.3319 -0.0248
  701MOL0     H94627   3.271   5.125   0.841 -2.6189 -2.2428 -1.3893
  701MOL0     H94628   3.456   5.103   0.810 -0.4346  1.4326  0.5707
  701MOL0     H94629   3.280   4.899   0.807 -2.8642 -0.0270 -0.8126
  701MOL0     H94630   3.233   4.981   0.648 -1.0885  0.3989  1.3713
  701MOL0     H94631   3.631   4.804   0.590 -0.6836 -2.1175 -0.6751
  701MOL0     H94632   3.576   5.553   0.698  3.7056  1.1164  0.6996
  701MOL0     H94633   3.699   5.869   0.798  0.9269  0.8300 -0.8073
  701MOL0     H94634   3.807   5.735   0.740 -0.8781  0.2569 -1.9374
  701MOL0     H94635   3.661   5.776   0.656  1.5003 -0.1595 -0.2490
  702MOL0     O94636   8.405   4.752   0.423 -0.8192 -0.3386 -0.2727
  702MOL0     C94637   8.503   4.714   0.479 -0.7149 -0.6279  0.7956
  702MOL0     O94638   8.511   4.647   0.601 -0.0673 -0.7558  0.2475
  702MOL0     C94639   8.406   4.567   0.636 -0.0691  0.0897 -0.1529
  702MOL0     C94640   8.338   4.587   0.755 -0.1947  0.0378 -0.0568
  702MOL0     C94641   8.247   4.496   0.799 -0.0121  0.4177  0.0740
  702MOL0     C94642   8.201   4.391   0.721 -0.4256 -0.0577  0.7098
  702MOL0     O94643   8.112   4.298   0.759 -0.6408  0.1633 -0.6791
  702MOL0     C94644   7.996   4.334   0.832  0.0664  0.0696 -0.2867
  702MOL0     C94645   7.872   4.300   0.741 -0.6862 -0.0612  0.0729
  702MOL0     C94646   7.731   4.306   0.802  0.3650 -0.7823  0.0133
  702MOL0     C94647   7.705   4.171   0.883 -0.1964 -0.4720 -0.0310
  702MOL0     C94648   7.568   4.166   0.937 -0.7310  0.6651 -1.0399
  702MOL0     C94649   7.559   4.060   1.044  0.0428  0.0684 -0.0951
  702MOL0     C94650   7.425   4.075   1.120  0.1018 -0.1902  0.3414
  702MOL0     C94651   7.395   3.952   1.215 -0.6747 -0.3618 -0.6764
  702MOL0     N94652   7.505   3.926   1.311  0.0734  0.6421  0.0642
  702MOL0     C94653   7.542   4.010   1.406  0.1776  0.5105 -0.3062
  702MOL0     C94654   7.629   3.936   1.487 -0.0930 -1.0712  1.4447
  702MOL0     C94655   7.706   3.984   1.598  0.2551 -0.0866  0.2475
  702MOL0     C94656   7.859   3.980   1.583 -0.1105 -0.7788  0.9492
  702MOL0     C94657   7.910   4.079   1.475 -0.8078  0.1040  0.1677
  702MOL0     C94658   8.056   4.059   1.428 -0.2410 -1.4813 -0.5652
  702MOL0     O94659   8.157   4.040   1.535  0.7420  0.0080  0.2339
  702MOL0     C94660   8.251   3.944   1.505 -0.1603  0.2926  0.0988
  702MOL0     C94661   8.345   3.982   1.407 -0.4177 -0.7153  0.1126
  702MOL0     C94662   8.446   3.895   1.370 -0.9752 -0.0081  0.1575
  702MOL0     C94663   8.453   3.774   1.434 -0.3030  0.0855 -0.7122
  702MOL0     C94664   8.568   3.678   1.401  0.5443 -0.8094 -0.8820
  702MOL0     O94665   8.602   3.589   1.499 -0.1945  0.3185 -0.5709
  702MOL0     C94666   8.695   3.494   1.456 -0.7373  0.3763 -0.1819
  702MOL0     C94667   8.655   3.357   1.451 -0.4933 -1.0011 -0.2743
  702MOL0     C94668   8.749   3.258   1.404 -0.3944 -0.6073 -0.3993
  702MOL0     C94669   8.886   3.288   1.369  0.3211  0.2942 -0.4460
  702MOL0     O94670   8.987   3.200   1.350 -0.0247  0.2488  0.0937
  702MOL0     C94671   8.956   3.107   1.249 -0.9694  0.0084  0.0153
  702MOL0     C94672   9.056   2.985   1.245 -0.2613  0.4016 -0.1507
  702MOL0     C94673   9.203   3.040   1.210  0.1891 -0.0477  0.3595
  702MOL0     C94674   9.302   2.926   1.206 -0.2762  0.5023 -0.0666
  702MOL0     C94675   9.429   2.959   1.127 -0.1578  0.3995  0.0736
  702MOL0     C94676   9.526   2.848   1.141  0.2837 -0.2002  0.3784
  702MOL0     C94677   9.633   2.857   1.034  0.6266 -0.1643 -0.9326
  702MOL0     C94678   9.722   2.742   1.055 -0.4764 -0.5869  0.6948
  702MOL0    Cl94679   9.884   2.785   1.012 -0.0992  0.1640  0.1213
  702MOL0     C94680   8.926   3.430   1.383 -0.3138  1.0929  0.2666
  702MOL0     C94681   8.829   3.527   1.424 -0.0876 -0.1102 -0.3720
  702MOL0     O94682   8.610   3.682   1.284  0.3232  1.0075 -0.1064
  702MOL0     C94683   8.356   3.732   1.528 -0.9639 -0.5814 -0.0161
  702MOL0     C94684   8.257   3.821   1.560  0.0116  0.0952  0.6161
  702MOL0     N94685   7.633   3.812   1.436  0.4217 -0.3689 -0.2507
  702MOL0     N94686   7.558   3.803   1.332  0.0398  0.6928  0.0817
  702MOL0     C94687   8.267   4.369   0.590  0.6639 -0.7352 -1.7385
  702MOL0     C94688   8.372   4.453   0.559  0.2208 -0.6252 -0.1621
  702MOL0     C94689   8.621   4.765   0.415 -0.0903 -0.5866 -0.4507
  702MOL0     C94690   8.727   4.679   0.441 -0.8614 -0.2096 -0.4573
  702MOL0     C94691   8.857   4.725   0.399  0.1024  0.3334 -1.2795
  702MOL0     C94692   8.865   4.854   0.335  0.1374 -0.1167  0.5743
  702MOL0     O94693   8.984   4.892   0.278  0.1150 -0.0183 -0.0162
  702MOL0     C94694   9.103   4.824   0.303 -0.8181 -0.2791 -0.4750
  702MOL0     C94695   9.229   4.915   0.280  0.9531  0.1720  0.5229
  702MOL0     C94696   9.222   4.983   0.142  0.0853 -0.5524  0.1912
  702MOL0     C94697   9.334   5.092   0.123  0.2420 -0.0603  0.1434
  702MOL0     C94698   9.453   5.004   0.089 -0.0282  0.0344 -0.2362
  702MOL0     C94699   9.556   4.956   0.052  0.8295  1.0378 -0.1370
  702MOL0     C94700   8.747   4.929   0.307 -0.3325  0.7045  0.2794
  702MOL0     C94701   8.630   4.891   0.343  0.5931 -0.0609  0.1236
  702MOL0     C94702   8.527   4.998   0.307  0.2033 -0.3217  0.8616
  702MOL0     H94703   8.372   4.672   0.812 -0.8030  0.1253  0.1835
  702MOL0     H94704   8.208   4.483   0.899  2.0116 -1.4683  0.7132
  702MOL0     H94705   8.002   4.268   0.920  1.1289  1.2445  0.5582
  702MOL0     H94706   7.988   4.438   0.864 -0.1751  0.1083 -0.4674
  702MOL0     H94707   7.888   4.200   0.701 -0.5278  0.8596 -2.3424
  702MOL0     H94708   7.884   4.373   0.660 -2.2281  2.0367  1.6352
  702MOL0     H94709   7.653   4.325   0.727  0.6516  1.3210  0.1913
  702MOL0     H94710   7.734   4.392   0.870 -1.1412  0.5949 -1.5266
  702MOL0     H94711   7.728   4.084   0.820 -1.0347 -0.0412 -0.9670
  702MOL0     H94712   7.771   4.166   0.970 -0.2919 -0.4778  0.0414
  702MOL0     H94713   7.550   4.259   0.992  1.1649  0.1323  0.6347
  702MOL0     H94714   7.491   4.146   0.862 -3.3692 -1.2502  1.9537
  702MOL0     H94715   7.574   3.959   1.003  2.4789 -0.4563  1.8503
  702MOL0     H94716   7.645   4.068   1.111  1.4226  3.1100 -1.9985
  702MOL0     H94717   7.353   4.099   1.041 -1.2177  4.1171  2.5307
  702MOL0     H94718   7.428   4.168   1.177 -1.8440 -0.1060  0.3802
  702MOL0     H94719   7.298   3.966   1.263  0.7686 -1.3531  2.9069
  702MOL0     H94720   7.376   3.854   1.169 -1.8294  0.9385 -3.1410
  702MOL0     H94721   7.523   4.117   1.412  3.4863  1.1187  2.1198
  702MOL0     H94722   7.662   4.080   1.627 -1.9545 -0.7371 -0.7148
  702MOL0     H94723   7.673   3.923   1.682  3.0209 -1.8941  0.1557
  702MOL0     H94724   7.904   4.000   1.681  1.7245 -1.5938  0.3136
  702MOL0     H94725   7.886   3.875   1.568 -4.8451 -2.1028 -0.0267
  702MOL0     H94726   7.901   4.175   1.527  1.0045  1.1528 -1.3225
  702MOL0     H94727   7.840   4.068   1.392 -1.7262 -2.4180  1.1814
  702MOL0     H94728   8.076   4.143   1.360 -1.4172 -0.4662  0.3025
  702MOL0     H94729   8.059   3.972   1.361  0.6912 -0.6786 -1.6134
  702MOL0     H94730   8.331   4.073   1.351 -0.1171 -0.4961  0.3953
  702MOL0     H94731   8.523   3.918   1.297  2.6113 -0.6860  3.3580
  702MOL0     H94732   8.550   3.331   1.457 -1.8906  2.9961 -3.1090
  702MOL0     H94733   8.733   3.151   1.415  1.1322 -0.7070  1.3006
  702MOL0     H94734   8.849   3.084   1.241 -0.5573 -1.3861 -2.2651
  702MOL0     H94735   8.977   3.149   1.150  3.2256 -1.0359  0.2934
  702MOL0     H94736   9.056   2.935   1.343 -1.2578 -2.1632 -1.3672
  702MOL0     H94737   9.011   2.912   1.178 -1.0961 -0.4441  1.2613
  702MOL0     H94738   9.199   3.092   1.114 -0.9903  1.1722  1.0374
  702MOL0     H94739   9.243   3.103   1.290 -0.1814 -1.0292  1.3401
  702MOL0     H94740   9.254   2.838   1.163 -1.5592  0.4972  1.2946
  702MOL0     H94741   9.333   2.897   1.307 -0.3620 -3.6451 -1.0788
  702MOL0     H94742   9.476   3.049   1.169 -1.6774  1.3730 -0.2210
  702MOL0     H94743   9.423   2.990   1.022  2.1854 -1.0345 -0.5501
  702MOL0     H94744   9.566   2.844   1.243 -1.2891 -0.7570  1.0022
  702MOL0     H94745   9.476   2.751   1.142 -0.7210  0.2977  0.1916
  702MOL0     H94746   9.682   2.954   1.048  1.1910 -0.3649 -1.5035
  702MOL0     H94747   9.593   2.853   0.932 -0.3018 -0.6565 -0.5583
  702MOL0     H94748   9.710   2.707   1.158  2.5553 -0.3375  1.2431
  702MOL0     H94749   9.698   2.663   0.983 -0.7926  0.1578 -0.0234
  702MOL0     H94750   9.026   3.460   1.354  2.3366 -5.3582  1.0697
  702MOL0     H94751   8.867   3.627   1.441 -0.0969 -0.2925  0.7650
  702MOL0     H94752   8.380   3.642   1.584 -1.8345 -0.9286 -0.1791
  702MOL0     H94753   8.198   3.789   1.645  2.7895 -0.8590  2.3263
  702MOL0     H94754   8.238   4.285   0.528 -0.6834 -1.4024 -0.2987
  702MOL0     H94755   8.433   4.433   0.471  0.7550  1.7727 -0.4006
  702MOL0     H94756   8.725   4.587   0.498 -1.9492 -1.6154 -2.6330
  702MOL0     H94757   8.945   4.665   0.419  0.3770  0.5185 -1.9289
  702MOL0     H94758   9.116   4.732   0.246 -3.0633 -0.7546 -0.3031
  702MOL0     H94759   9.095   4.805   0.411 -5.1800  1.9074 -0.2229
  702MOL0     H94760   9.319   4.853   0.285  0.5402 -0.3477  2.9424
  702MOL0     H94761   9.223   4.991   0.359 -1.6103 -0.4864  1.0428
  702MOL0     H94762   9.129   5.039   0.135 -0.6885 -2.0056 -2.4090
  702MOL0     H94763   9.227   4.914   0.058 -2.4130  0.6867 -1.0680
  702MOL0     H94764   9.313   5.166   0.046  2.9015  3.4318  2.4539
  702MOL0     H94765   9.344   5.159   0.209 -1.0771 -0.1001  0.3571
  702MOL0     H94766   9.644   4.917   0.006  0.3625 -0.1856 -0.0511
  702MOL0     H94767   8.744   5.008   0.234  0.9639 -0.5516 -1.2036
  702MOL0     H94768   8.568   5.100   0.312  1.3500 -0.8019  1.8309
  702MOL0     H94769   8.496   4.990   0.203  0.6838 -0.6571  0.7403
  702MOL0     H94770   8.440   4.983   0.372  0.8253 -1.6022  1.4298
  703MOL0     O94771  10.716   9.405   3.555 -0.3086 -0.0703  0.3961
  703MOL0     C94772  10.654   9.453   3.462  0.3366  0.0171  0.6372
  703MOL0     O94773  10.704   9.481   3.335 -0.2187  0.9628  0.8436
  703MOL0     C94774  10.836   9.444   3.300  0.4714 -0.0093 -0.3838
  703MOL0     C94775  10.904   9.535   3.214 -0.6870  0.0304  0.8673
  703MOL0     C94776  11.049   9.517   3.189  1.1319 -0.4447  0.9034
  703MOL0     C94777  11.096   9.392   3.210  0.6161  0.3990 -0.2017
  703MOL0     O94778  11.215   9.345   3.172  0.2287 -0.4813  0.4305
  703MOL0     C94779  11.290   9.399   3.059 -0.5649  0.1123  0.8732
  703MOL0     C94780  11.405   9.311   3.021 -0.5860  0.8338  0.0414
  703MOL0     C94781  11.359   9.158   3.011 -0.2467 -0.9304 -0.5496
  703MOL0     C94782  11.446   9.078   2.914 -0.3763  0.7316 -0.0668
  703MOL0     C94783  11.403   8.936   2.902  0.4433  1.3195  0.6166
  703MOL0     C94784  11.422   8.827   3.011 -0.5014 -0.0844  0.0705
  703MOL0     C94785  11.569   8.779   3.025 -0.0407 -0.1893  0.3130
  703MOL0     C94786  11.588   8.636   3.089  0.2818 -0.1902 -0.1503
  703MOL0     N94787  11.724   8.611   3.124  0.1103  0.2896  1.1741
  703MOL0     C94788  11.832   8.628   3.039  0.3566 -0.5875  0.0754
  703MOL0     C94789  11.942   8.637   3.125  0.5409  1.2445  0.1518
  703MOL0     C94790  12.085   8.643   3.094 -0.3058 -1.0029  0.2294
  703MOL0     C94791  12.172   8.544   3.170 -0.1107 -0.7333  0.9224
  703MOL0     C94792  12.310   8.600   3.159 -0.0410  0.2787 -0.3965
  703MOL0     C94793  12.412   8.508   3.237  0.4409 -0.2643  0.6162
  703MOL0     O94794  12.544   8.569   3.219  0.4584  0.0809 -1.2769
  703MOL0     C94795  12.642   8.514   3.301  0.2913 -0.1660 -0.2391
  703MOL0     C94796  12.622   8.404   3.384  0.1813 -0.0521 -0.5365
  703MOL0     C94797  12.740   8.352   3.450  0.5129  0.9335  0.7008
  703MOL0     C94798  12.865   8.410   3.438  1.0166  0.0781 -0.5042
  703MOL0     C94799  12.987   8.359   3.509  0.1620  0.3397 -0.2304
  703MOL0     O94800  13.086   8.445   3.539  0.5232 -0.2724  1.2741
  703MOL0     C94801  13.207   8.383   3.572 -0.8479  0.5462 -0.2295
  703MOL0     C94802  13.250   8.376   3.701 -1.2670  1.2841 -0.4845
  703MOL0     C94803  13.373   8.307   3.731 -0.1961 -0.2407 -0.2085
  703MOL0     C94804  13.456   8.251   3.636 -0.0578 -0.1648 -0.3516
  703MOL0     O94805  13.584   8.212   3.662  0.1525  0.1623 -0.0921
  703MOL0     C94806  13.676   8.203   3.555  0.1111  0.3891 -0.3745
  703MOL0     C94807  13.808   8.145   3.598  0.7591  1.2784 -0.5939
  703MOL0     C94808  13.875   8.259   3.675  0.8654  0.5835 -0.7160
  703MOL0     C94809  14.005   8.294   3.602  0.0141  0.2905 -0.1048
  703MOL0     C94810  14.088   8.410   3.660 -0.1900  0.3811 -0.2856
  703MOL0     C94811  14.006   8.544   3.677 -0.0887  0.2945  0.1437
  703MOL0     C94812  13.950   8.603   3.549 -0.2463 -0.6438 -0.9673
  703MOL0     C94813  13.880   8.740   3.554  0.0506 -0.1809  0.3774
  703MOL0    Cl94814  13.985   8.865   3.608 -0.0700 -0.1070  0.1446
  703MOL0     C94815  13.406   8.262   3.509  0.2737  0.6594 -1.1966
  703MOL0     C94816  13.288   8.325   3.471 -0.4432 -0.6528  0.4254
  703MOL0     O94817  12.984   8.238   3.534  1.0230 -0.4783 -0.1928
  703MOL0     C94818  12.884   8.507   3.344  0.5561 -1.0523 -0.9097
  703MOL0     C94819  12.774   8.560   3.272  0.9849  0.2840 -0.5447
  703MOL0     N94820  11.908   8.617   3.256 -0.0252  0.0043 -0.2787
  703MOL0     N94821  11.779   8.607   3.252  0.5094  0.1002 -0.5229
  703MOL0     C94822  11.028   9.298   3.285 -0.3815  0.5045  0.7351
  703MOL0     C94823  10.894   9.323   3.332 -0.6377  0.2473  0.6611
  703MOL0     C94824  10.505   9.475   3.477 -0.3515  0.8245  0.2001
  703MOL0     C94825  10.423   9.442   3.366 -0.1448 -0.9274  0.4524
  703MOL0     C94826  10.286   9.447   3.366 -0.8518  0.0328  0.2648
  703MOL0     C94827  10.221   9.495   3.478  0.5567 -0.0632 -0.0960
  703MOL0     O94828  10.085   9.509   3.453 -0.2586  0.2885  0.0252
  703MOL0     C94829   9.999   9.556   3.564 -0.4990 -0.1670  0.4592
  703MOL0     C94830   9.981   9.437   3.662 -0.5961 -0.6736 -0.0008
  703MOL0     C94831   9.956   9.290   3.609 -0.7547 -0.1287 -0.3426
  703MOL0     C94832   9.827   9.277   3.524 -0.8214 -0.7388 -0.0709
  703MOL0     C94833   9.815   9.134   3.476 -0.5786 -0.1026 -0.4499
  703MOL0     C94834   9.812   9.017   3.437  0.3578 -0.3267  0.0509
  703MOL0     C94835  10.294   9.518   3.593  0.0352 -0.0750 -0.7004
  703MOL0     C94836  10.435   9.504   3.593 -0.5229  0.8801 -0.1010
  703MOL0     C94837  10.514   9.549   3.712  0.0534  0.2766 -0.9857
  703MOL0     H94838  10.853   9.621   3.173 -2.6444 -2.7239 -3.0171
  703MOL0     H94839  11.104   9.586   3.126  1.9819 -2.8390 -1.1229
  703MOL0     H94840  11.221   9.397   2.974  0.5945 -3.0210 -0.1295
  703MOL0     H94841  11.336   9.495   3.081  1.2743 -0.5764  0.2498
  703MOL0     H94842  11.476   9.317   3.105  0.1335 -0.6028 -0.4290
  703MOL0     H94843  11.445   9.360   2.932  2.5289  2.8589  2.3386
  703MOL0     H94844  11.260   9.152   2.965 -0.7560 -2.3428  0.6661
  703MOL0     H94845  11.353   9.113   3.111  0.1616  0.0506 -0.0717
  703MOL0     H94846  11.443   9.138   2.823 -3.2829  0.4440 -0.2485
  703MOL0     H94847  11.545   9.062   2.958 -0.2142  1.2964 -0.2138
  703MOL0     H94848  11.297   8.932   2.875  0.5985 -1.4805  0.1177
  703MOL0     H94849  11.458   8.902   2.813 -1.2838  0.4770 -0.1758
  703MOL0     H94850  11.391   8.860   3.110  0.6718  0.8876  0.1351
  703MOL0     H94851  11.355   8.745   2.983  0.6538 -0.0695 -3.1686
  703MOL0     H94852  11.623   8.856   3.081  0.6421  1.0465 -1.8961
  703MOL0     H94853  11.620   8.768   2.929  1.1991  0.0495  0.9178
  703MOL0     H94854  11.522   8.617   3.174 -3.2468 -2.6782 -3.1870
  703MOL0     H94855  11.565   8.566   3.008  2.0956  0.4390 -1.2862
  703MOL0     H94856  11.822   8.617   2.931 -0.1668 -4.0442  0.3610
  703MOL0     H94857  12.112   8.629   2.989 -2.1628  0.8457 -0.5745
  703MOL0     H94858  12.115   8.744   3.123 -0.4170 -1.2562  1.2657
  703MOL0     H94859  12.154   8.550   3.278  2.5818 -0.0523  1.4131
  703MOL0     H94860  12.150   8.446   3.127  3.3073 -1.1127 -0.2460
  703MOL0     H94861  12.312   8.695   3.212  0.8426 -0.6687  1.3792
  703MOL0     H94862  12.338   8.605   3.054 -1.6384 -0.7128 -0.9075
  703MOL0     H94863  12.406   8.405   3.201  3.5731 -0.6353  0.8783
  703MOL0     H94864  12.382   8.505   3.342  1.3620 -1.5991  0.8652
  703MOL0     H94865  12.530   8.350   3.403 -0.2001  0.6725 -0.2847
  703MOL0     H94866  12.728   8.269   3.519  1.1359 -0.8034 -1.1874
  703MOL0     H94867  13.182   8.420   3.774 -2.0455 -0.3435 -0.1922
  703MOL0     H94868  13.413   8.304   3.832  0.3621  2.6997 -0.2588
  703MOL0     H94869  13.643   8.133   3.478  0.6320 -1.0652  0.6899
  703MOL0     H94870  13.683   8.305   3.515 -1.1793  1.5688  2.1692
  703MOL0     H94871  13.776   8.069   3.670 -0.6328  0.3946 -2.1053
  703MOL0     H94872  13.875   8.103   3.523  2.7717 -0.7355  2.1180
  703MOL0     H94873  13.815   8.347   3.700  1.3821  0.7580 -0.0265
  703MOL0     H94874  13.922   8.226   3.768 -0.4472  0.8449  0.0646
  703MOL0     H94875  13.971   8.328   3.503  0.7527  0.8920 -0.1573
  703MOL0     H94876  14.058   8.199   3.588  0.0369  0.3899 -0.7538
  703MOL0     H94877  14.180   8.430   3.604  0.3572 -0.4749  0.2801
  703MOL0     H94878  14.120   8.381   3.761  0.1195  0.2511 -0.4194
  703MOL0     H94879  13.932   8.514   3.753  1.2203 -2.4519  0.4319
  703MOL0     H94880  14.065   8.616   3.735  0.5479  1.1180 -1.4615
  703MOL0     H94881  13.883   8.527   3.508 -0.6657 -0.9764  0.3081
  703MOL0     H94882  14.043   8.615   3.492  0.3394  0.1050  0.1106
  703MOL0     H94883  13.845   8.756   3.451  1.7682  1.6718  0.0118
  703MOL0     H94884  13.790   8.744   3.616 -1.6627  2.3248 -2.0326
  703MOL0     H94885  13.449   8.218   3.420  0.9065 -0.4868 -0.3445
  703MOL0     H94886  13.241   8.336   3.374 -3.3011 -0.4944  1.7300
  703MOL0     H94887  12.984   8.546   3.327 -0.2755  0.5580 -2.3479
  703MOL0     H94888  12.785   8.634   3.194  2.7266 -1.2693 -1.8637
  703MOL0     H94889  11.071   9.198   3.285  2.2247  1.5524  1.0833
  703MOL0     H94890  10.838   9.241   3.374  0.6016 -0.8730  0.1890
  703MOL0     H94891  10.479   9.401   3.282  0.6433  0.5204  0.2342
  703MOL0     H94892  10.240   9.403   3.278  2.4422 -0.1925 -1.5101
  703MOL0     H94893   9.907   9.594   3.520 -0.3346 -1.4203 -1.0487
  703MOL0     H94894  10.037   9.645   3.616  0.4098  1.9075 -3.3364
  703MOL0     H94895   9.908   9.446   3.742  0.5160 -3.6521  1.4954
  703MOL0     H94896  10.067   9.433   3.729 -1.4942  1.4826  1.3950
  703MOL0     H94897   9.951   9.227   3.698  0.9354 -1.9271 -1.4288
  703MOL0     H94898  10.046   9.258   3.556 -1.2162 -2.9776  0.3817
  703MOL0     H94899   9.736   9.293   3.583 -0.5246  1.2422 -0.1022
  703MOL0     H94900   9.833   9.341   3.436  1.3559 -1.2223 -0.3340
  703MOL0     H94901   9.813   8.923   3.386 -0.1727  1.4728 -3.5319
  703MOL0     H94902  10.248   9.556   3.683  1.1436  2.8882 -1.2855
  703MOL0     H94903  10.550   9.466   3.773 -1.9675  0.1654  0.1339
  703MOL0     H94904  10.605   9.607   3.691  0.4144  0.1312  0.1443
  703MOL0     H94905  10.450   9.614   3.773  1.1736  1.7338 -1.3019
  704MOL0     O94906   6.306   0.827  10.436  0.9356 -0.1311  0.1009
  704MOL0     C94907   6.226   0.838  10.338  0.1928  0.1455 -0.1741
  704MOL0     O94908   6.232   0.753  10.232  0.4230  0.2654  0.2220
  704MOL0     C94909   6.314   0.633  10.244 -0.1645 -0.1287  0.1273
  704MOL0     C94910   6.244   0.511  10.261 -0.7010  1.3320 -1.3878
  704MOL0     C94911   6.309   0.388  10.257  0.2004  0.3861  0.4498
  704MOL0     C94912   6.449   0.387  10.221 -0.7972  0.1350 -0.0197
  704MOL0     O94913   6.520   0.275  10.196 -0.0183 -0.3462 -0.1677
  704MOL0     C94914   6.472   0.139  10.201  0.0293 -0.6187  0.6245
  704MOL0     C94915   6.517   0.070  10.073  0.4646 -0.4247 -0.8921
  704MOL0     C94916   6.668   0.075  10.054  0.9637  0.0282  0.1863
  704MOL0     C94917   6.720  -0.016   9.932  0.4187 -0.0544 -0.3257
  704MOL0     C94918   6.875  -0.007   9.910 -0.1188  1.1155 -0.4161
  704MOL0     C94919   6.968  -0.052  10.021  0.2824 -0.5257 -0.4789
  704MOL0     C94920   7.115  -0.048   9.993  0.0881 -0.7980 -0.0959
  704MOL0     C94921   7.175   0.090   9.954  0.1526 -0.0711 -0.5898
  704MOL0     N94922   7.317   0.098   9.986  0.0617 -0.1096  0.0320
  704MOL0     C94923   7.421   0.048   9.906  0.9409  0.0753 -0.4841
  704MOL0     C94924   7.533   0.083   9.975 -0.5381 -0.1418  0.0398
  704MOL0     C94925   7.673   0.066   9.924 -0.2110  0.7823  0.0102
  704MOL0     C94926   7.780   0.057  10.039 -0.0909  0.1367 -0.2296
  704MOL0     C94927   7.913   0.005   9.991 -0.2431  0.4558 -0.3706
  704MOL0     C94928   8.015   0.032  10.090 -0.1908  0.0173  0.0438
  704MOL0     O94929   8.148  -0.019  10.038 -0.4986 -0.0280 -0.5815
  704MOL0     C94930   8.245  -0.034  10.130 -0.0821  0.6785  0.6244
  704MOL0     C94931   8.341  -0.133  10.106 -0.1445 -0.1434 -0.1936
  704MOL0     C94932   8.444  -0.164  10.195 -0.3687  0.7085  0.9088
  704MOL0     C94933   8.469  -0.083  10.301  0.3823  0.4992 -0.5267
  704MOL0     C94934   8.580  -0.097  10.392 -0.5148 -0.1712  0.1837
  704MOL0     O94935   8.660  -0.208  10.371 -0.2788 -0.1892  0.1903
  704MOL0     C94936   8.759  -0.259  10.452  1.0861 -0.0790 -1.2553
  704MOL0     C94937   8.827  -0.371  10.398  0.3892  0.2288  0.1055
  704MOL0     C94938   8.935  -0.438  10.452 -0.6832 -0.5792  0.0175
  704MOL0     C94939   8.986  -0.386  10.580  0.2700 -1.0732 -0.2063
  704MOL0     O94940   9.103  -0.439  10.635 -0.1086  0.8068  0.1839
  704MOL0     C94941   9.157  -0.401  10.765  0.4856  0.8200  0.5759
  704MOL0     C94942   9.291  -0.457  10.802 -0.1505 -0.0074  0.0965
  704MOL0     C94943   9.404  -0.423  10.702  0.1471 -1.4222  0.0317
  704MOL0     C94944   9.438  -0.272  10.685  0.1088 -0.1378  0.4148
  704MOL0     C94945   9.454  -0.192  10.815  0.1080 -0.2298  0.3184
  704MOL0     C94946   9.579  -0.249  10.900  0.3843  0.0758 -0.3267
  704MOL0     C94947   9.585  -0.154  11.025 -0.1561 -0.3619  0.1869
  704MOL0     C94948   9.650  -0.221  11.148 -0.2655  0.2218 -0.5132
  704MOL0    Cl94949   9.831  -0.221  11.140 -0.3405  0.4819  0.7247
  704MOL0     C94950   8.909  -0.286  10.647  0.2427  0.6032  0.3069
  704MOL0     C94951   8.810  -0.207  10.575  0.5146 -0.0051 -0.6441
  704MOL0     O94952   8.592  -0.018  10.483  0.8298 -0.6616 -0.2664
  704MOL0     C94953   8.370   0.014  10.333  1.8796  0.1259 -0.6652
  704MOL0     C94954   8.255   0.032  10.250  0.3201 -0.1845  0.2132
  704MOL0     N94955   7.496   0.148  10.096  0.2478  0.2957 -0.1272
  704MOL0     N94956   7.359   0.153  10.105 -0.4269 -0.0714 -0.0355
  704MOL0     C94957   6.515   0.506  10.199  0.5691 -0.1133 -0.0838
  704MOL0     C94958   6.453   0.632  10.210  0.3252  0.3293 -0.8203
  704MOL0     C94959   6.146   0.961  10.324 -0.0309  0.1512 -0.2702
  704MOL0     C94960   6.086   0.988  10.195 -0.2227  0.5462  0.0067
  704MOL0     C94961   5.990   1.093  10.182  0.0111 -0.0063  0.1830
  704MOL0     C94962   5.947   1.161  10.301 -0.5754  0.7553  0.2221
  704MOL0     O94963   5.848   1.252  10.289 -0.1015 -0.2975 -0.4615
  704MOL0     C94964   5.745   1.256  10.395 -0.0400  0.3538  0.5518
  704MOL0     C94965   5.675   1.126  10.422 -0.0776  0.8805 -1.6736
  704MOL0     C94966   5.617   1.057  10.307 -0.2965  0.2239 -0.2993
  704MOL0     C94967   5.586   0.907  10.338  0.3357  0.7465 -0.5736
  704MOL0     C94968   5.710   0.824  10.344 -0.0536  0.0869  0.3713
  704MOL0     C94969   5.813   0.754  10.331  0.5925 -0.1929 -1.0076
  704MOL0     C94970   6.012   1.137  10.422  0.3926  0.8080 -0.2248
  704MOL0     C94971   6.114   1.035  10.436  0.2781 -0.1096 -0.1618
  704MOL0     C94972   6.157   1.000  10.578  0.2511  0.9553  0.2150
  704MOL0     H94973   6.137   0.502  10.279 -0.1421 -1.9474  1.2172
  704MOL0     H94974   6.243   0.302  10.263  1.0317 -0.4275 -1.3323
  704MOL0     H94975   6.512   0.101  10.296 -0.2572  0.8710  1.3686
  704MOL0     H94976   6.367   0.110  10.196  0.7497 -3.2661 -1.3317
  704MOL0     H94977   6.461   0.112   9.989 -0.9799 -1.4701 -0.4898
  704MOL0     H94978   6.481  -0.032  10.086 -1.6132  0.4711  1.0946
  704MOL0     H94979   6.717   0.034  10.143  2.3231 -1.0055 -0.9933
  704MOL0     H94980   6.692   0.179  10.030  0.5929  0.2921  0.9129
  704MOL0     H94981   6.695  -0.119   9.956  0.8453 -0.4939 -1.7141
  704MOL0     H94982   6.673   0.004   9.835 -0.5739 -2.2127 -0.3425
  704MOL0     H94983   6.900  -0.052   9.814 -1.0606  2.3392 -1.2586
  704MOL0     H94984   6.896   0.100   9.903 -0.1067  1.0070 -2.6981
  704MOL0     H94985   6.945   0.003  10.112  2.7499 -0.7207  0.3478
  704MOL0     H94986   6.942  -0.154  10.049  0.3203 -0.3569  0.1752
  704MOL0     H94987   7.138  -0.110   9.906  2.8798 -0.7202  0.4983
  704MOL0     H94988   7.169  -0.082  10.081 -0.4801 -1.7608 -0.1061
  704MOL0     H94989   7.155   0.131   9.854  2.2775  2.2518 -0.1745
  704MOL0     H94990   7.130   0.163  10.022  2.9794  2.4206 -1.1762
  704MOL0     H94991   7.419  -0.014   9.816  1.9205  0.6860 -0.9436
  704MOL0     H94992   7.692  -0.020   9.860  3.2157  1.9652 -0.7905
  704MOL0     H94993   7.699   0.155   9.866  2.4177 -0.7483 -1.3557
  704MOL0     H94994   7.796   0.160  10.074  0.1447 -0.4701  1.5536
  704MOL0     H94995   7.756  -0.003  10.127 -0.2222 -1.4708 -1.3143
  704MOL0     H94996   7.941   0.057   9.898  1.3957  0.5932  0.1739
  704MOL0     H94997   7.902  -0.101   9.965 -1.2134 -0.0972  2.0756
  704MOL0     H94998   7.974  -0.023  10.176  0.0699 -0.1272  0.0778
  704MOL0     H94999   8.011   0.137  10.120 -0.4639  0.9959 -3.1483
  704MOL0     H95000   8.339  -0.198  10.018  3.3703 -1.8893  0.8337
  704MOL0     H95001   8.509  -0.239  10.150 -1.9708 -1.2670  1.7574
  704MOL0     H95002   8.797  -0.397  10.297  0.5938  1.3037 -0.2454
  704MOL0     H95003   8.990  -0.506  10.388  1.1522  2.0775 -1.4680
  704MOL0     H95004   9.148  -0.292  10.769 -0.0289  0.9090 -1.6313
  704MOL0     H95005   9.086  -0.431  10.842  2.7137 -1.5328  1.8767
  704MOL0     H95006   9.318  -0.440  10.907 -0.2540 -2.2007  0.5218
  704MOL0     H95007   9.289  -0.566  10.796  0.5055  0.0430 -1.6654
  704MOL0     H95008   9.494  -0.477  10.736 -0.2039 -1.4615  0.9207
  704MOL0     H95009   9.379  -0.466  10.605 -1.8917 -3.9264  1.5324
  704MOL0     H95010   9.369  -0.214  10.624 -0.6754 -1.6881 -0.2074
  704MOL0     H95011   9.526  -0.264  10.620  0.0266 -1.4589  0.1024
  704MOL0     H95012   9.364  -0.187  10.877  0.0787  3.2481  0.1540
  704MOL0     H95013   9.473  -0.087  10.794 -0.8032 -0.2989 -0.9607
  704MOL0     H95014   9.578  -0.355  10.928  1.2708 -0.2057 -1.3028
  704MOL0     H95015   9.666  -0.237  10.835 -0.1288 -0.9901 -1.2581
  704MOL0     H95016   9.483  -0.132  11.059 -0.2745 -0.3133 -0.1868
  704MOL0     H95017   9.639  -0.062  11.002 -2.9656  1.1382 -0.8340
  704MOL0     H95018   9.620  -0.182  11.246 -0.9199 -4.0259  1.2030
  704MOL0     H95019   9.609  -0.322  11.153  0.2010  0.0717  0.6527
  704MOL0     H95020   8.950  -0.250  10.740 -3.6121 -0.2169  2.5768
  704MOL0     H95021   8.776  -0.112  10.613 -1.8404 -1.0185  0.0037
  704MOL0     H95022   8.381   0.056  10.433 -0.1537 -2.3518  0.7176
  704MOL0     H95023   8.180   0.104  10.280  1.1507  0.4241  0.8618
  704MOL0     H95024   6.616   0.505  10.160  0.6661 -1.8639  0.1503
  704MOL0     H95025   6.501   0.728  10.198  3.1008 -1.0010 -1.0332
  704MOL0     H95026   6.107   0.936  10.102  1.8575  0.9717  0.2036
  704MOL0     H95027   5.940   1.106  10.086 -0.5843  1.3697  0.6558
  704MOL0     H95028   5.678   1.341  10.381  1.2724  1.5746  1.4557
  704MOL0     H95029   5.799   1.279  10.487 -1.2017 -2.4899  2.0820
  704MOL0     H95030   5.599   1.125  10.501 -0.5738 -1.5518 -2.1045
  704MOL0     H95031   5.756   1.070  10.470 -1.4460 -0.1553 -0.5063
  704MOL0     H95032   5.687   1.073  10.224  2.8029 -2.0828  1.6487
  704MOL0     H95033   5.521   1.106  10.287 -0.0116  0.3658 -1.3764
  704MOL0     H95034   5.528   0.904  10.431 -1.2053 -0.4174 -1.5172
  704MOL0     H95035   5.536   0.849  10.261  3.8726 -4.5354  0.5261
  704MOL0     H95036   5.897   0.687  10.323  0.0515 -1.7365  3.3424
  704MOL0     H95037   5.988   1.190  10.514 -0.4798  0.1376 -0.0540
  704MOL0     H95038   6.122   0.903  10.613 -1.8111  0.3298 -3.1648
  704MOL0     H95039   6.265   1.017  10.588  0.6552  0.8688 -2.8863
  704MOL0     H95040   6.112   1.069  10.649 -2.0454  0.9051 -1.0886
  705MOL0     O95041   1.021   6.440  10.343 -0.3336  0.5603  0.7147
  705MOL0     C95042   1.039   6.356  10.257  0.2857 -1.0775  0.5336
  705MOL0     O95043   1.163   6.298  10.238  0.4311  0.0193 -0.3165
  705MOL0     C95044   1.273   6.375  10.262  0.6198  1.0913 -0.4156
  705MOL0     C95045   1.397   6.300  10.291  0.2101  0.2254  0.3904
  705MOL0     C95046   1.517   6.369  10.302  0.3676 -0.8146 -0.3712
  705MOL0     C95047   1.535   6.504  10.285  0.3552  0.2375 -0.5425
  705MOL0     O95048   1.654   6.558  10.314  0.0961 -0.0327  0.0113
  705MOL0     C95049   1.649   6.635  10.435  0.5673  0.3577 -0.1459
  705MOL0     C95050   1.694   6.776  10.407 -0.3582 -0.3310 -0.7375
  705MOL0     C95051   1.682   6.861  10.541 -0.6366 -0.2173 -0.9514
  705MOL0     C95052   1.733   7.004  10.509  0.1957 -0.6609 -0.0225
  705MOL0     C95053   1.887   7.007  10.524 -0.3484 -0.2144 -0.5973
  705MOL0     C95054   1.951   7.139  10.536  0.0093 -0.4445 -0.2190
  705MOL0     C95055   1.941   7.240  10.421  0.4223 -0.2232 -1.5619
  705MOL0     C95056   2.002   7.181  10.292  0.7789  0.2658 -0.1222
  705MOL0     N95057   1.991   7.273  10.179  0.8037 -0.0045  0.8172
  705MOL0     C95058   1.893   7.279  10.079 -0.1999 -0.0883  0.1642
  705MOL0     C95059   1.945   7.371   9.989 -1.0372 -0.0791  0.8031
  705MOL0     C95060   1.858   7.405   9.870  0.2765  0.2517  0.1196
  705MOL0     C95061   1.918   7.380   9.733 -1.0685  0.2294 -0.5363
  705MOL0     C95062   1.927   7.229   9.704 -0.0191 -0.2086  0.6110
  705MOL0     C95063   1.990   7.218   9.575 -0.1290  0.2466 -0.4995
  705MOL0     O95064   1.891   7.241   9.470  0.1274 -0.1549 -0.5949
  705MOL0     C95065   1.942   7.290   9.351 -1.0542  0.1882 -0.3332
  705MOL0     C95066   1.856   7.345   9.262  0.1154 -0.1768 -0.0758
  705MOL0     C95067   1.889   7.374   9.130 -0.1919  0.1505  0.6498
  705MOL0     C95068   2.026   7.368   9.086  0.2740 -0.2213 -1.5070
  705MOL0     C95069   2.059   7.400   8.952  0.1155  0.6714  0.8833
  705MOL0     O95070   2.191   7.379   8.908 -0.0604  0.8485  0.3315
  705MOL0     C95071   2.234   7.429   8.788  0.1892 -0.1694 -0.0186
  705MOL0     C95072   2.196   7.552   8.734 -0.1870 -0.4522 -0.8355
  705MOL0     C95073   2.250   7.599   8.608 -0.6660  0.2157  0.2163
  705MOL0     C95074   2.354   7.540   8.539  0.8016  0.8595 -0.3854
  705MOL0     O95075   2.414   7.607   8.443  0.7365  0.3683 -0.3190
  705MOL0     C95076   2.471   7.537   8.337  0.0527  0.9561  0.1017
  705MOL0     C95077   2.472   7.618   8.203  1.0470  0.1981 -0.1730
  705MOL0     C95078   2.531   7.547   8.083  0.2139  0.2423  0.1941
  705MOL0     C95079   2.526   7.633   7.962 -0.0091  0.9104  0.4368
  705MOL0     C95080   2.568   7.566   7.831  0.0214  0.1406  0.3251
  705MOL0     C95081   2.574   7.665   7.718 -0.6136  0.5341 -0.2655
  705MOL0     C95082   2.556   7.588   7.585 -0.8846 -0.1888 -0.2807
  705MOL0     C95083   2.686   7.520   7.538  0.3035 -0.1233 -0.6988
  705MOL0    Cl95084   2.816   7.634   7.515 -0.6574 -0.0288  0.2392
  705MOL0     C95085   2.401   7.420   8.601 -0.7281  0.3700  0.2211
  705MOL0     C95086   2.337   7.365   8.713  1.0074 -0.0027 -0.5624
  705MOL0     O95087   1.966   7.434   8.876 -1.3865  0.4368  0.2457
  705MOL0     C95088   2.119   7.323   9.179 -0.3512 -0.1541 -1.2631
  705MOL0     C95089   2.078   7.294   9.315  0.0651  0.0296 -0.1822
  705MOL0     N95090   2.057   7.433  10.043  0.2420  0.5160  0.4382
  705MOL0     N95091   2.068   7.375  10.155 -0.6040 -0.3345  0.0783
  705MOL0     C95092   1.414   6.572  10.258 -0.0927 -0.1211 -0.5036
  705MOL0     C95093   1.291   6.515  10.248  0.4328 -0.1428  0.4441
  705MOL0     C95094   0.916   6.307  10.196  0.6115  0.6909  0.9713
  705MOL0     C95095   0.920   6.171  10.156 -0.1805  0.5302  0.0631
  705MOL0     C95096   0.829   6.111  10.069  0.1803  0.2705 -0.0594
  705MOL0     C95097   0.715   6.180  10.037  0.5577 -0.0143 -0.0900
  705MOL0     O95098   0.629   6.121   9.949 -0.4163  0.1072 -0.1779
  705MOL0     C95099   0.500   6.181   9.922  0.1642 -0.7237  0.9375
  705MOL0     C95100   0.425   6.133   9.799 -0.5522  0.2413 -0.6504
  705MOL0     C95101   0.300   6.223   9.777 -0.5707 -0.0146  0.3800
  705MOL0     C95102   0.178   6.130   9.737 -0.2192 -0.0255 -0.5738
  705MOL0     C95103   0.153   6.036   9.839 -0.5698 -0.5038 -0.3735
  705MOL0     C95104   0.130   5.954   9.922  0.6907 -0.2637 -0.1844
  705MOL0     C95105   0.697   6.306  10.090  0.4073  0.8701  0.3938
  705MOL0     C95106   0.799   6.371  10.165  1.2079 -0.0626 -0.4694
  705MOL0     C95107   0.768   6.513  10.211 -1.1075  0.0100 -0.4134
  705MOL0     H95108   1.394   6.194  10.311  0.7548  0.0709 -0.2913
  705MOL0     H95109   1.610   6.320  10.329  1.8242  2.8529  1.9661
  705MOL0     H95110   1.553   6.636  10.488  1.0614 -0.1649  0.7870
  705MOL0     H95111   1.711   6.590  10.514  0.6519  0.5221 -0.1170
  705MOL0     H95112   1.634   6.834  10.336 -0.1688  0.6837 -0.0821
  705MOL0     H95113   1.800   6.762  10.387 -0.3212  1.6835 -2.2533
  705MOL0     H95114   1.729   6.811  10.627  0.6122  3.0667  0.4373
  705MOL0     H95115   1.577   6.879  10.567 -0.1897  1.8187 -0.4348
  705MOL0     H95116   1.702   7.017  10.405  1.5593  0.2431 -0.3325
  705MOL0     H95117   1.685   7.077  10.575  3.0763  0.3093  1.1640
  705MOL0     H95118   1.917   6.941  10.606 -1.7517 -4.1534 -2.9781
  705MOL0     H95119   1.930   6.951  10.440  0.7260  0.6436 -0.6527
  705MOL0     H95120   1.909   7.177  10.630 -1.7279 -1.4084 -0.5549
  705MOL0     H95121   2.056   7.117  10.556  0.1135  0.0350 -0.2391
  705MOL0     H95122   1.999   7.321  10.466  1.1617 -2.6163  2.2565
  705MOL0     H95123   1.841   7.280  10.401 -0.2022  1.4236  3.3629
  705MOL0     H95124   2.106   7.153  10.308  0.3890 -0.0732  2.2334
  705MOL0     H95125   1.952   7.088  10.266  0.2346  0.4070  0.3929
  705MOL0     H95126   1.802   7.220  10.080 -0.6845  0.6355  1.6112
  705MOL0     H95127   1.758   7.362   9.884 -0.5037  2.0486  0.4110
  705MOL0     H95128   1.839   7.513   9.870 -0.5461  0.1380  1.7110
  705MOL0     H95129   1.852   7.413   9.652 -0.3618 -2.7195 -2.4481
  705MOL0     H95130   2.019   7.420   9.724 -1.1850  0.5613 -0.3856
  705MOL0     H95131   1.825   7.190   9.709 -0.2089  0.2035  0.1599
  705MOL0     H95132   1.989   7.176   9.777 -1.9447  0.0133  2.5072
  705MOL0     H95133   2.029   7.117   9.561  2.5049  1.0011  0.8780
  705MOL0     H95134   2.072   7.290   9.573 -0.2755  0.3987 -1.0403
  705MOL0     H95135   1.754   7.358   9.295 -0.1021  1.2541 -1.1752
  705MOL0     H95136   1.812   7.408   9.062 -1.8423 -0.4961  2.1115
  705MOL0     H95137   2.120   7.604   8.792  1.5839  1.3113  0.0577
  705MOL0     H95138   2.203   7.690   8.573  1.9921  0.4223 -3.3748
  705MOL0     H95139   2.573   7.502   8.359 -0.4930 -1.9231 -1.4800
  705MOL0     H95140   2.421   7.442   8.316  2.6036 -0.9403  1.9011
  705MOL0     H95141   2.370   7.644   8.173  0.5049 -2.4514 -0.9208
  705MOL0     H95142   2.523   7.711   8.227  0.5139  0.4011  0.1815
  705MOL0     H95143   2.633   7.511   8.099 -0.0565  0.0884  1.7027
  705MOL0     H95144   2.467   7.465   8.049 -1.7065  2.2613 -1.3211
  705MOL0     H95145   2.575   7.727   7.990 -0.2809  0.6687  1.7963
  705MOL0     H95146   2.422   7.650   7.931  0.8042 -0.1555 -3.4033
  705MOL0     H95147   2.500   7.484   7.807 -0.6506 -0.6365  4.2104
  705MOL0     H95148   2.666   7.520   7.850  0.6769 -0.5563 -3.7965
  705MOL0     H95149   2.493   7.737   7.730 -0.6924  0.2714  0.8590
  705MOL0     H95150   2.667   7.723   7.726  0.8211 -1.7762  1.3352
  705MOL0     H95151   2.531   7.665   7.511  1.3401 -0.6298 -1.5891
  705MOL0     H95152   2.476   7.514   7.582  0.0449 -1.2222 -0.1520
  705MOL0     H95153   2.717   7.442   7.608  2.0252  0.5836 -0.6499
  705MOL0     H95154   2.662   7.484   7.437  1.9449 -0.6118 -0.9362
  705MOL0     H95155   2.498   7.383   8.571 -0.6789  1.3969 -0.9739
  705MOL0     H95156   2.383   7.273   8.746  0.1249 -1.3528 -2.8326
  705MOL0     H95157   2.225   7.321   9.155 -0.2837  2.1646 -1.3992
  705MOL0     H95158   2.160   7.267   9.380  2.5105  2.0127 -2.1759
  705MOL0     H95159   1.406   6.675  10.225 -0.9154 -0.2735 -0.8046
  705MOL0     H95160   1.207   6.579  10.224  1.2212  0.1315 -1.8112
  705MOL0     H95161   1.005   6.106  10.173 -0.1645  0.8997  1.5977
  705MOL0     H95162   0.849   6.012  10.028  0.3264 -0.2039  1.0969
  705MOL0     H95163   0.510   6.288   9.900  0.7219 -0.2941  3.1214
  705MOL0     H95164   0.430   6.165  10.004 -3.9758  2.4738 -1.5225
  705MOL0     H95165   0.402   6.026   9.805 -2.1580  0.6269  1.3302
  705MOL0     H95166   0.491   6.146   9.713  0.1845 -0.6749 -0.2352
  705MOL0     H95167   0.317   6.289   9.692 -1.3611 -0.3936 -0.0836
  705MOL0     H95168   0.275   6.285   9.864 -0.1407  1.1075 -0.2740
  705MOL0     H95169   0.082   6.177   9.716 -2.1193 -3.3747 -0.1803
  705MOL0     H95170   0.201   6.084   9.641  1.8993 -0.3190  0.0085
  705MOL0     H95171   0.111   5.872   9.989 -1.7393  1.4350  1.3719
  705MOL0     H95172   0.610   6.366  10.063 -0.6717  0.9593  3.6274
  705MOL0     H95173   0.757   6.512  10.320  2.0123 -2.3669  0.0285
  705MOL0     H95174   0.851   6.581  10.191 -0.7971  0.2227  1.4009
  705MOL0     H95175   0.676   6.553  10.167 -2.9954 -2.0163  1.3990
  706MOL0     O95176   5.359   1.976   6.031  1.6511 -0.8721  0.5887
  706MOL0     C95177   5.277   2.068   6.021 -0.7001  0.6775 -0.1007
  706MOL0     O95178   5.280   2.167   5.919  0.0194  0.2570 -1.0887
  706MOL0     C95179   5.386   2.188   5.837 -0.7738  0.3753 -0.0660
  706MOL0     C95180   5.362   2.276   5.736 -0.1120  0.8266  0.6618
  706MOL0     C95181   5.458   2.313   5.645 -0.1190  0.1064 -0.5530
  706MOL0     C95182   5.593   2.254   5.650  0.0385  0.1516  0.4042
  706MOL0     O95183   5.694   2.294   5.575 -0.2041  0.2090  0.0987
  706MOL0     C95184   5.671   2.375   5.459  0.5051 -0.2103 -0.0189
  706MOL0     C95185   5.802   2.442   5.413 -0.4120  0.0926 -0.3581
  706MOL0     C95186   5.805   2.594   5.460  1.1656  1.0174  0.3283
  706MOL0     C95187   5.938   2.653   5.432 -0.4062  0.5363 -0.4796
  706MOL0     C95188   5.943   2.808   5.418  0.8309  0.6678 -0.7309
  706MOL0     C95189   6.083   2.869   5.407  0.7328  0.3973  0.3031
  706MOL0     C95190   6.142   2.865   5.558  0.2471  0.3481  0.1503
  706MOL0     C95191   6.292   2.884   5.572 -1.0439 -0.0006 -0.3200
  706MOL0     N95192   6.333   3.030   5.557  0.7200 -1.1400  0.8001
  706MOL0     C95193   6.357   3.112   5.661  0.2076  0.1863  1.0428
  706MOL0     C95194   6.409   3.231   5.604  0.4282  0.2289 -0.3084
  706MOL0     C95195   6.446   3.353   5.668  0.3289  0.9221  0.3313
  706MOL0     C95196   6.592   3.388   5.647 -0.1894  0.2211 -0.0759
  706MOL0     C95197   6.609   3.534   5.688  0.7418  0.1222 -0.0668
  706MOL0     C95198   6.754   3.567   5.658 -0.1098 -1.3514 -0.5816
  706MOL0     O95199   6.773   3.707   5.694  0.5607 -0.3100  0.5370
  706MOL0     C95200   6.904   3.749   5.681 -0.7862 -0.0280 -0.3300
  706MOL0     C95201   6.922   3.878   5.728 -0.2054  0.7936  0.4403
  706MOL0     C95202   7.052   3.932   5.747  0.0312 -0.0847  0.1883
  706MOL0     C95203   7.168   3.866   5.699  0.3776  0.9988 -0.0382
  706MOL0     C95204   7.300   3.924   5.717  0.0968 -0.0398 -0.7105
  706MOL0     O95205   7.392   3.887   5.631  0.5592  0.1840  0.6126
  706MOL0     C95206   7.530   3.912   5.645  0.4707 -0.3743 -0.0807
  706MOL0     C95207   7.609   3.928   5.766  0.7729  0.4910 -0.9667
  706MOL0     C95208   7.744   3.956   5.764 -0.2739 -0.2978 -0.3996
  706MOL0     C95209   7.811   3.960   5.637 -0.5614  0.2256 -0.7612
  706MOL0     O95210   7.939   4.004   5.624  0.7852  0.1208  0.1599
  706MOL0     C95211   8.025   4.014   5.738 -0.4967  0.4387 -1.4218
  706MOL0     C95212   8.147   4.082   5.679 -0.3073  0.2030  0.5039
  706MOL0     C95213   8.244   4.118   5.783 -0.3593 -0.0847  0.7679
  706MOL0     C95214   8.372   4.193   5.730  1.1337  0.5488 -0.4049
  706MOL0     C95215   8.484   4.210   5.836  0.0550  0.3654  0.0378
  706MOL0     C95216   8.591   4.284   5.766  0.6216 -0.7375 -0.5044
  706MOL0     C95217   8.704   4.304   5.863  0.0100  0.4227 -0.0100
  706MOL0     C95218   8.817   4.380   5.791 -0.7372  0.2234 -0.5224
  706MOL0    Cl95219   8.918   4.289   5.675 -0.1513 -0.3347  0.3565
  706MOL0     C95220   7.736   3.939   5.522 -0.2836 -0.6454 -0.3645
  706MOL0     C95221   7.602   3.916   5.525  0.2696 -0.6355  0.9616
  706MOL0     O95222   7.321   4.000   5.812  1.2459 -0.0622 -0.1338
  706MOL0     C95223   7.148   3.736   5.649 -1.0889  0.0242 -0.0243
  706MOL0     C95224   7.018   3.676   5.641 -0.5926  0.9186 -0.3933
  706MOL0     N95225   6.413   3.211   5.465 -0.0350 -0.2910  0.4634
  706MOL0     N95226   6.366   3.096   5.443  0.4267  1.0729 -0.4921
  706MOL0     C95227   5.620   2.161   5.749  0.3564  0.0059  0.4740
  706MOL0     C95228   5.518   2.134   5.844 -0.7215  0.5097 -0.3572
  706MOL0     C95229   5.168   2.073   6.132  0.1376  0.8623 -0.3822
  706MOL0     C95230   5.162   1.957   6.222  0.3760 -0.3089 -1.2465
  706MOL0     C95231   5.077   1.949   6.328 -0.7217 -0.7156  0.3232
  706MOL0     C95232   4.996   2.061   6.372 -0.7972  0.6980  0.5572
  706MOL0     O95233   4.927   2.046   6.489  0.4999 -0.0458  0.2393
  706MOL0     C95234   4.803   2.121   6.508 -0.8142 -0.0483 -0.1026
  706MOL0     C95235   4.755   2.066   6.641  0.8065  0.8401 -0.1689
  706MOL0     C95236   4.622   2.133   6.684 -0.5384  0.5965 -0.6142
  706MOL0     C95237   4.584   2.121   6.832 -0.5188  0.1521 -0.1444
  706MOL0     C95238   4.689   2.175   6.917 -0.1284  0.6022  0.1703
  706MOL0     C95239   4.782   2.202   6.993 -0.0878  0.1665  0.3821
  706MOL0     C95240   4.998   2.172   6.277  1.2446  0.3660 -0.1209
  706MOL0     C95241   5.082   2.179   6.163 -0.0541  0.7863 -0.5152
  706MOL0     C95242   5.066   2.303   6.078  0.7354  0.3854  0.2199
  706MOL0     H95243   5.260   2.312   5.734 -0.5724 -0.1186  3.2006
  706MOL0     H95244   5.425   2.388   5.574  0.2397  0.1547 -0.6730
  706MOL0     H95245   5.629   2.331   5.369 -0.8657  1.9059 -0.4945
  706MOL0     H95246   5.597   2.451   5.485 -1.3614 -1.4548 -1.4116
  706MOL0     H95247   5.790   2.443   5.304 -1.0851  1.6443 -0.2888
  706MOL0     H95248   5.891   2.388   5.447  0.4892 -0.1766 -2.9067
  706MOL0     H95249   5.779   2.603   5.566  0.0044 -1.3696  0.3132
  706MOL0     H95250   5.738   2.645   5.390  2.8752 -1.7948 -3.7264
  706MOL0     H95251   6.008   2.619   5.509 -1.0085 -0.2899 -0.2830
  706MOL0     H95252   5.979   2.606   5.342 -1.9575  0.7150 -1.3163
  706MOL0     H95253   5.897   2.836   5.323  3.8173 -0.4056 -2.6622
  706MOL0     H95254   5.882   2.854   5.497 -2.4269 -0.2940 -2.5123
  706MOL0     H95255   6.156   2.816   5.345 -1.3671 -0.2662 -1.7625
  706MOL0     H95256   6.074   2.966   5.358  0.0376  0.4890  0.6085
  706MOL0     H95257   6.113   2.768   5.597 -2.0160  2.5531  4.6527
  706MOL0     H95258   6.080   2.930   5.620 -1.5143  0.6789 -1.8326
  706MOL0     H95259   6.332   2.868   5.673  0.7622  1.7920 -0.6847
  706MOL0     H95260   6.351   2.821   5.506  0.5178 -1.1939  2.0532
  706MOL0     H95261   6.341   3.090   5.766  2.8492  1.8792  1.8962
  706MOL0     H95262   6.379   3.428   5.626  2.7325  2.3495 -1.2371
  706MOL0     H95263   6.422   3.338   5.774  0.0420  2.7648  0.5552
  706MOL0     H95264   6.657   3.320   5.703 -1.9423 -0.8998  0.6602
  706MOL0     H95265   6.618   3.365   5.543 -0.7019 -1.4431  0.1338
  706MOL0     H95266   6.579   3.543   5.793 -0.1930  1.3137 -0.4160
  706MOL0     H95267   6.542   3.593   5.625  0.0571 -0.1112  0.4322
  706MOL0     H95268   6.791   3.560   5.555  3.6032  0.2467  0.4868
  706MOL0     H95269   6.821   3.499   5.711  2.0341  0.1406 -1.2808
  706MOL0     H95270   6.834   3.939   5.748 -1.3785 -0.3130 -1.0520
  706MOL0     H95271   7.064   4.032   5.790 -1.1729  0.0094  0.3505
  706MOL0     H95272   7.571   3.917   5.867  2.1764  0.5615 -0.4103
  706MOL0     H95273   7.794   3.975   5.859 -2.1069  1.4480  0.3001
  706MOL0     H95274   7.980   4.077   5.815 -2.9255 -2.0530 -0.6407
  706MOL0     H95275   8.043   3.916   5.784  1.0717  2.2954  2.3729
  706MOL0     H95276   8.182   4.010   5.605  0.3020  0.3780  0.6163
  706MOL0     H95277   8.115   4.171   5.624  1.1902  2.0755  2.4947
  706MOL0     H95278   8.201   4.180   5.862 -1.5553  0.9331 -0.6101
  706MOL0     H95279   8.283   4.029   5.831 -0.4213 -0.3355  0.3571
  706MOL0     H95280   8.333   4.288   5.693  2.4681  1.0169 -0.6690
  706MOL0     H95281   8.408   4.137   5.643  0.1603  1.5100 -1.4656
  706MOL0     H95282   8.522   4.113   5.869  2.1102  1.0412 -0.2298
  706MOL0     H95283   8.437   4.270   5.914  0.9156  1.0672  0.0350
  706MOL0     H95284   8.626   4.220   5.684 -2.4913 -2.8845 -0.3196
  706MOL0     H95285   8.552   4.380   5.730 -2.4687 -1.2711  1.0631
  706MOL0     H95286   8.743   4.207   5.897  1.2547  0.7488 -0.4345
  706MOL0     H95287   8.670   4.353   5.955 -3.3429 -1.4245 -0.1271
  706MOL0     H95288   8.770   4.458   5.731 -2.6785 -1.9331 -1.9613
  706MOL0     H95289   8.884   4.413   5.871  0.5843 -0.2404 -1.3893
  706MOL0     H95290   7.790   3.949   5.428  1.0283  0.7173  0.4934
  706MOL0     H95291   7.547   3.928   5.432  0.6865 -0.1374  0.7704
  706MOL0     H95292   7.223   3.668   5.608 -1.7150 -0.7759  0.1402
  706MOL0     H95293   7.029   3.576   5.599  2.3699  1.0091 -0.0488
  706MOL0     H95294   5.723   2.131   5.760 -0.1899 -2.0948  0.2277
  706MOL0     H95295   5.547   2.076   5.930 -2.7935  1.2949  0.9557
  706MOL0     H95296   5.223   1.875   6.186  2.2448  1.7019 -2.9712
  706MOL0     H95297   5.072   1.864   6.395  1.2442 -0.8067  0.4081
  706MOL0     H95298   4.730   2.109   6.427  0.0180 -3.2744 -0.5090
  706MOL0     H95299   4.834   2.225   6.521 -4.7553  1.1571  1.2336
  706MOL0     H95300   4.832   2.071   6.719  0.0772 -3.8029  1.1994
  706MOL0     H95301   4.726   1.964   6.615 -1.8625  2.0977 -2.6490
  706MOL0     H95302   4.536   2.098   6.627 -1.8493  3.5764 -0.6449
  706MOL0     H95303   4.635   2.240   6.669 -0.0167  0.8687  1.4854
  706MOL0     H95304   4.496   2.177   6.863  1.3659  3.1157  0.3084
  706MOL0     H95305   4.591   2.013   6.847 -1.0507 -0.1021 -1.5726
  706MOL0     H95306   4.865   2.211   7.061  0.5951 -3.1834  0.1774
  706MOL0     H95307   4.942   2.259   6.309  1.1460 -0.5097  2.3179
  706MOL0     H95308   5.024   2.386   6.137 -0.4226  0.3035 -0.4469
  706MOL0     H95309   5.157   2.347   6.037  1.5380 -1.2972  0.1138
  706MOL0     H95310   4.996   2.285   5.996  0.1936 -0.8548  0.9297
  707MOL0     O95311   2.885   1.924   4.537  0.0482 -0.0613 -0.8009
  707MOL0     C95312   2.867   1.807   4.499  1.1710  0.4387 -0.2947
  707MOL0     O95313   2.931   1.759   4.391 -0.3777  0.5867  0.2442
  707MOL0     C95314   2.978   1.844   4.297 -0.4195 -0.9745  0.3946
  707MOL0     C95315   3.099   1.913   4.310 -0.5545  0.5721  0.4510
  707MOL0     C95316   3.146   2.006   4.214  0.4747 -0.6352 -0.8735
  707MOL0     C95317   3.076   2.031   4.093  0.9082  0.1987  0.3474
  707MOL0     O95318   3.096   2.137   4.010 -0.1650  0.2615  0.1361
  707MOL0     C95319   3.227   2.192   3.994 -1.9853 -0.5919  0.2417
  707MOL0     C95320   3.209   2.337   3.966 -0.1422  0.0733 -0.1721
  707MOL0     C95321   3.344   2.400   3.952  1.0150 -0.9266 -0.1215
  707MOL0     C95322   3.331   2.550   3.965  0.0729  0.1895 -0.2445
  707MOL0     C95323   3.465   2.634   3.949 -0.7086  0.3228  0.2619
  707MOL0     C95324   3.456   2.782   3.966 -0.1728  0.0052  1.1221
  707MOL0     C95325   3.399   2.846   3.839  0.2420 -0.0438 -0.1892
  707MOL0     C95326   3.319   2.979   3.875  0.0256 -0.7078  0.1755
  707MOL0     N95327   3.410   3.071   3.941 -0.4834 -0.1941 -0.6705
  707MOL0     C95328   3.506   3.141   3.874 -0.8722  0.1432 -0.4797
  707MOL0     C95329   3.546   3.238   3.957  0.6426 -0.0422 -0.5359
  707MOL0     C95330   3.644   3.346   3.909  0.1836 -0.2382 -0.6294
  707MOL0     C95331   3.567   3.477   3.909 -0.4141  0.1433  0.9664
  707MOL0     C95332   3.662   3.586   3.848  0.2043 -1.0607  0.2892
  707MOL0     C95333   3.778   3.629   3.948  0.2439  0.4761  0.0330
  707MOL0     O95334   3.835   3.757   3.918  0.7234 -0.3675 -0.0819
  707MOL0     C95335   3.793   3.865   3.998 -0.4346  0.6224 -0.1684
  707MOL0     C95336   3.678   3.868   4.064  0.3892 -0.5182 -0.1304
  707MOL0     C95337   3.650   3.972   4.149 -0.6182  0.2099 -0.6186
  707MOL0     C95338   3.737   4.082   4.156 -0.2583 -0.0631 -0.0367
  707MOL0     C95339   3.696   4.192   4.242 -0.2180 -0.2698 -0.6034
  707MOL0     O95340   3.740   4.321   4.224  0.4426 -0.1497  0.3583
  707MOL0     C95341   3.697   4.406   4.319  0.4348  0.5216  0.6093
  707MOL0     C95342   3.598   4.502   4.269  0.2620 -0.1386  0.2214
  707MOL0     C95343   3.554   4.592   4.359  0.6263  0.1532 -0.4519
  707MOL0     C95344   3.595   4.588   4.497  0.0615 -0.0350 -0.1050
  707MOL0     O95345   3.550   4.675   4.588  0.4799 -0.5266 -0.3127
  707MOL0     C95346   3.639   4.777   4.626  0.7062  0.8831  0.1081
  707MOL0     C95347   3.661   4.797   4.768 -0.3240  0.7172 -0.2552
  707MOL0     C95348   3.767   4.915   4.774  0.6391  0.7493 -0.2423
  707MOL0     C95349   3.779   4.980   4.915  0.0104  0.2738  0.7251
  707MOL0     C95350   3.858   5.115   4.894 -0.5085  0.0591 -0.6561
  707MOL0     C95351   4.006   5.098   4.828 -0.0446  0.5533  0.8945
  707MOL0     C95352   4.079   5.233   4.830 -0.8751  0.4003  0.3237
  707MOL0     C95353   4.234   5.230   4.808 -0.3863 -0.1292  0.7048
  707MOL0    Cl95354   4.312   5.129   4.932  0.3292 -0.0890  0.1929
  707MOL0     C95355   3.678   4.488   4.540 -1.0331  0.1552 -0.3123
  707MOL0     C95356   3.730   4.396   4.448  0.3776 -0.2717 -0.2437
  707MOL0     O95357   3.634   4.159   4.345 -0.0929  0.3607  0.0835
  707MOL0     C95358   3.846   4.095   4.075  0.7018  0.5482 -0.0096
  707MOL0     C95359   3.878   3.981   3.996  0.8760  0.8479 -0.0286
  707MOL0     N95360   3.478   3.224   4.077  1.2203  0.1031 -0.1435
  707MOL0     N95361   3.409   3.115   4.069 -0.4698  0.4201  0.8027
  707MOL0     C95362   2.948   1.958   4.074 -0.6475  0.2728  0.3631
  707MOL0     C95363   2.908   1.861   4.171  0.6055 -0.2521  0.2236
  707MOL0     C95364   2.758   1.713   4.555  0.5683  0.6041  0.6935
  707MOL0     C95365   2.749   1.588   4.492  0.8394  1.1415  0.2923
  707MOL0     C95366   2.640   1.499   4.519 -0.0776 -0.1524  0.9284
  707MOL0     C95367   2.547   1.528   4.617  0.0816  0.4114  0.2228
  707MOL0     O95368   2.443   1.435   4.639 -0.2484  0.0833  1.0482
  707MOL0     C95369   2.320   1.483   4.700  0.7260 -0.9853 -0.1787
  707MOL0     C95370   2.205   1.394   4.667 -0.3206 -0.3748 -0.3987
  707MOL0     C95371   2.063   1.436   4.733 -0.2309 -0.2416  0.9444
  707MOL0     C95372   1.944   1.349   4.670 -0.0460 -0.6766  0.2309
  707MOL0     C95373   1.819   1.423   4.671  1.4353  0.5135 -0.1642
  707MOL0     C95374   1.729   1.506   4.659 -0.1042  0.5372  0.5353
  707MOL0     C95375   2.571   1.646   4.695 -0.4539  0.0089 -0.6790
  707MOL0     C95376   2.673   1.736   4.665  0.7183  0.4811  0.3382
  707MOL0     C95377   2.699   1.852   4.756  0.0862  0.2516 -0.9691
  707MOL0     H95378   3.147   1.924   4.407 -1.0546  1.0461  0.6516
  707MOL0     H95379   3.220   2.073   4.256 -0.7442  0.1952  0.0150
  707MOL0     H95380   3.309   2.172   4.063  1.9422  1.9703 -3.1719
  707MOL0     H95381   3.271   2.137   3.910  1.5295  0.7872  0.9935
  707MOL0     H95382   3.160   2.366   4.060  2.3308 -2.9357  2.2682
  707MOL0     H95383   3.152   2.351   3.874 -1.5194 -1.3139  0.4432
  707MOL0     H95384   3.382   2.375   3.853 -2.5589 -0.4500 -1.7465
  707MOL0     H95385   3.409   2.372   4.036 -0.2974  1.4918  1.8708
  707MOL0     H95386   3.260   2.587   3.891 -0.4531 -0.6474 -0.1753
  707MOL0     H95387   3.310   2.579   4.068  1.5239  1.8051 -0.3544
  707MOL0     H95388   3.542   2.604   4.020 -1.1273  1.4562  1.2366
  707MOL0     H95389   3.513   2.612   3.853 -0.5299 -2.2631  0.8899
  707MOL0     H95390   3.407   2.818   4.058 -0.9380  2.6735 -0.2382
  707MOL0     H95391   3.560   2.814   3.979  0.2133 -0.2910 -0.9553
  707MOL0     H95392   3.339   2.775   3.780  2.7484 -2.0983 -0.4551
  707MOL0     H95393   3.482   2.867   3.772  0.3507  1.3482  0.3622
  707MOL0     H95394   3.282   3.026   3.783 -2.8053 -0.0919  1.5443
  707MOL0     H95395   3.229   2.961   3.934 -0.9186  1.0736 -0.6395
  707MOL0     H95396   3.542   3.112   3.776  1.2390 -1.2856  0.6603
  707MOL0     H95397   3.725   3.355   3.983  0.7098 -1.9157 -0.9459
  707MOL0     H95398   3.693   3.327   3.813 -0.7069 -2.6349 -0.6865
  707MOL0     H95399   3.478   3.469   3.846  1.9941  0.3996 -2.7725
  707MOL0     H95400   3.532   3.501   4.010  1.9278  0.7883  1.6893
  707MOL0     H95401   3.600   3.670   3.815 -0.3445 -0.9837  1.5025
  707MOL0     H95402   3.717   3.556   3.758 -1.0185  1.1949 -1.3061
  707MOL0     H95403   3.853   3.549   3.954  1.9832  1.9282 -1.0791
  707MOL0     H95404   3.735   3.630   4.048  0.6669 -0.7067  0.2378
  707MOL0     H95405   3.599   3.794   4.056  0.7766 -1.1271  1.3650
  707MOL0     H95406   3.565   3.975   4.216 -2.0058 -1.8922 -2.1626
  707MOL0     H95407   3.569   4.513   4.165  0.0222  3.0348  0.5010
  707MOL0     H95408   3.490   4.675   4.333  0.0320 -0.3796 -0.7088
  707MOL0     H95409   3.740   4.752   4.593  0.0120 -1.5517 -0.3175
  707MOL0     H95410   3.612   4.871   4.576 -0.1454  0.2523 -0.6323
  707MOL0     H95411   3.568   4.822   4.818 -0.3752 -0.7680  0.4510
  707MOL0     H95412   3.694   4.705   4.818 -0.6368  1.1614  0.7802
  707MOL0     H95413   3.863   4.875   4.741  0.3786 -0.7266  0.6761
  707MOL0     H95414   3.738   4.988   4.698  1.7465  2.3667  0.8246
  707MOL0     H95415   3.823   4.902   4.978 -1.0463 -1.1691 -0.2416
  707MOL0     H95416   3.683   5.007   4.960  0.8555  0.7535  2.3034
  707MOL0     H95417   3.860   5.180   4.982 -0.1702 -0.6632 -0.1109
  707MOL0     H95418   3.797   5.180   4.831 -1.1216  0.1172 -0.0140
  707MOL0     H95419   4.056   5.025   4.892 -2.0162 -1.7912 -0.0639
  707MOL0     H95420   3.992   5.063   4.725  2.2799  0.2701  0.6230
  707MOL0     H95421   4.052   5.275   4.928 -2.7786  4.0630 -1.5743
  707MOL0     H95422   4.033   5.291   4.749 -0.1581 -1.6229 -1.6154
  707MOL0     H95423   4.265   5.196   4.708  1.9052 -1.8443  1.8884
  707MOL0     H95424   4.279   5.330   4.809  0.4310 -0.4892  1.0525
  707MOL0     H95425   3.710   4.468   4.642  1.4957 -1.0079 -1.2659
  707MOL0     H95426   3.791   4.318   4.492 -1.1029 -1.3369 -0.0241
  707MOL0     H95427   3.914   4.176   4.099  0.1137  0.1367  3.6700
  707MOL0     H95428   3.957   3.973   3.923 -1.0278  1.2721 -2.2425
  707MOL0     H95429   2.881   1.966   3.989 -0.5760 -0.5144  0.2208
  707MOL0     H95430   2.823   1.799   4.144  1.8949 -1.2063 -1.9407
  707MOL0     H95431   2.805   1.550   4.407 -2.9706 -2.0764 -1.0873
  707MOL0     H95432   2.636   1.407   4.463  3.2777  1.5921 -2.6923
  707MOL0     H95433   2.303   1.581   4.656 -1.0772 -1.4370 -0.5413
  707MOL0     H95434   2.331   1.494   4.808 -2.9026 -0.2251  0.2273
  707MOL0     H95435   2.231   1.298   4.711 -1.6297 -0.0665  1.1431
  707MOL0     H95436   2.190   1.389   4.559 -0.6239 -0.4333 -0.3567
  707MOL0     H95437   2.050   1.542   4.711  0.1149 -0.7220 -1.8429
  707MOL0     H95438   2.066   1.429   4.843 -1.2657 -0.2154  0.9895
  707MOL0     H95439   1.956   1.325   4.564 -3.9337 -0.2444 -0.4554
  707MOL0     H95440   1.931   1.255   4.725 -1.7456 -0.7979 -0.3167
  707MOL0     H95441   1.655   1.581   4.638 -0.2614  0.1189 -0.4461
  707MOL0     H95442   2.510   1.670   4.782  2.3518 -1.1660  1.7714
  707MOL0     H95443   2.625   1.840   4.836  2.4082 -2.6330  1.0276
  707MOL0     H95444   2.800   1.840   4.797 -1.0100 -0.5494  1.7210
  707MOL0     H95445   2.701   1.948   4.705 -1.4989  1.3443  0.8891
  708MOL0     O95446   6.704   2.223   0.911 -0.9636 -0.0687  0.2374
  708MOL0     C95447   6.724   2.337   0.857  0.4367  0.2653  0.4502
  708MOL0     O95448   6.619   2.429   0.837 -0.3956 -0.1100  0.5419
  708MOL0     C95449   6.492   2.382   0.853 -0.6905 -0.1191  0.1286
  708MOL0     C95450   6.440   2.290   0.763  0.2324 -0.9023  0.3613
  708MOL0     C95451   6.317   2.223   0.792  0.8654  0.6807 -0.4741
  708MOL0     C95452   6.228   2.268   0.890 -0.0474 -0.1537 -0.2610
  708MOL0     O95453   6.099   2.218   0.906 -0.1020 -0.3411 -0.0579
  708MOL0     C95454   6.024   2.168   0.803 -0.0552  0.2067  1.0341
  708MOL0     C95455   5.877   2.166   0.837  0.2240  0.0680  0.4989
  708MOL0     C95456   5.792   2.274   0.766  0.3040 -0.3095  0.3684
  708MOL0     C95457   5.742   2.255   0.614  0.7413 -0.3214  0.8533
  708MOL0     C95458   5.607   2.179   0.605 -0.7067  0.0372 -0.4109
  708MOL0     C95459   5.535   2.243   0.486 -0.3177 -0.2897  1.4172
  708MOL0     C95460   5.422   2.146   0.440 -0.9677  0.3773 -0.5512
  708MOL0     C95461   5.331   2.175   0.324 -0.0438 -0.1207  0.1816
  708MOL0     N95462   5.330   2.320   0.289 -0.2643  0.1923  0.6796
  708MOL0     C95463   5.401   2.384   0.188 -1.1467  0.6913 -0.0212
  708MOL0     C95464   5.343   2.502   0.175 -0.6599  0.1108 -0.5109
  708MOL0     C95465   5.373   2.611   0.068 -1.0674 -0.4015 -0.8934
  708MOL0     C95466   5.492   2.587  -0.022  0.0407 -0.5496 -1.0809
  708MOL0     C95467   5.620   2.624   0.062  0.4501 -0.4048  1.0462
  708MOL0     C95468   5.742   2.647  -0.025  0.4778 -0.2799 -0.2842
  708MOL0     O95469   5.778   2.521  -0.080 -0.1170 -0.4876 -0.1951
  708MOL0     C95470   5.878   2.528  -0.176  0.5733  0.0509  0.3001
  708MOL0     C95471   5.865   2.414  -0.258  0.6851 -0.5347  0.4933
  708MOL0     C95472   5.954   2.408  -0.368 -0.0971  0.3224 -0.2313
  708MOL0     C95473   6.063   2.510  -0.391  0.3945 -0.4672  0.2275
  708MOL0     C95474   6.143   2.510  -0.514 -0.4360  0.1747 -0.2710
  708MOL0     O95475   6.082   2.451  -0.625 -0.0532  0.1199  0.2679
  708MOL0     C95476   6.164   2.428  -0.731 -0.2094  0.0883 -0.3637
  708MOL0     C95477   6.263   2.328  -0.720  0.0622 -0.2003 -0.0273
  708MOL0     C95478   6.357   2.317  -0.825 -0.2171 -0.5464  0.6784
  708MOL0     C95479   6.346   2.393  -0.942  0.5961 -1.2943  1.1083
  708MOL0     O95480   6.436   2.370  -1.048  0.3316  0.2794  0.1806
  708MOL0     C95481   6.393   2.391  -1.180 -0.6105 -0.3002 -0.5799
  708MOL0     C95482   6.516   2.369  -1.274 -0.2520  0.1358 -0.0876
  708MOL0     C95483   6.580   2.229  -1.248 -0.3267  0.5683  0.0083
  708MOL0     C95484   6.667   2.205  -1.382  0.5355 -0.6248  0.4052
  708MOL0     C95485   6.747   2.081  -1.354  0.1230  0.4828  0.6186
  708MOL0     C95486   6.838   2.058  -1.476  0.2548 -0.5560 -0.5544
  708MOL0     C95487   6.894   1.912  -1.473 -0.5298  0.2209 -0.3739
  708MOL0     C95488   7.021   1.875  -1.547 -0.3616  0.3365 -0.2336
  708MOL0    Cl95489   7.051   1.697  -1.545 -0.6809  0.2506 -0.3173
  708MOL0     C95490   6.244   2.491  -0.950  0.0664  0.1246 -0.6863
  708MOL0     C95491   6.152   2.512  -0.840 -0.2890  0.6458 -0.3289
  708MOL0     O95492   6.251   2.569  -0.511 -0.1457  0.5670  0.0617
  708MOL0     C95493   6.071   2.619  -0.304 -0.4003  0.6011  0.2469
  708MOL0     C95494   5.980   2.627  -0.202 -0.3697 -0.5466  0.2570
  708MOL0     N95495   5.246   2.514   0.280  0.0489 -0.0644  0.9584
  708MOL0     N95496   5.233   2.402   0.336 -0.6240 -0.7930  0.2984
  708MOL0     C95497   6.287   2.365   0.976 -0.2373  0.7330  0.3592
  708MOL0     C95498   6.418   2.427   0.959 -0.5530  0.1712 -0.1322
  708MOL0     C95499   6.858   2.369   0.808  0.9188 -0.1676  0.0397
  708MOL0     C95500   6.968   2.312   0.873  0.5357  0.3119 -0.0875
  708MOL0     C95501   7.099   2.347   0.834 -0.2309 -0.2095 -1.4838
  708MOL0     C95502   7.121   2.435   0.729 -0.0092 -0.6071  0.3574
  708MOL0     O95503   7.248   2.484   0.700 -0.6001  0.9209  0.2710
  708MOL0     C95504   7.315   2.560   0.806 -1.0391 -0.9492 -0.3492
  708MOL0     C95505   7.442   2.492   0.849  0.6375 -0.4843 -0.7246
  708MOL0     C95506   7.513   2.560   0.967  0.6452 -0.1497 -1.0165
  708MOL0     C95507   7.611   2.673   0.939 -0.2219  0.2601  0.3068
  708MOL0     C95508   7.554   2.801   0.901  0.4764  0.8554 -0.3223
  708MOL0     C95509   7.510   2.905   0.863 -0.2703  0.2745  0.0705
  708MOL0     C95510   7.009   2.482   0.653 -0.5606  0.3334 -0.6212
  708MOL0     C95511   6.883   2.451   0.686  1.6556  1.6817 -0.1787
  708MOL0     C95512   6.777   2.505   0.592  0.5100  1.5745 -1.0008
  708MOL0     H95513   6.497   2.257   0.676 -0.8227  2.8450 -1.9570
  708MOL0     H95514   6.275   2.145   0.729 -3.0133  1.0287  1.3916
  708MOL0     H95515   6.035   2.215   0.704  0.1914  0.4196  1.1626
  708MOL0     H95516   6.057   2.067   0.779  3.1423  1.5308 -0.7751
  708MOL0     H95517   5.872   2.172   0.946  1.8461 -1.2666  0.6912
  708MOL0     H95518   5.834   2.074   0.799 -1.0556  0.8063  0.0988
  708MOL0     H95519   5.842   2.371   0.758 -2.0195  0.8056 -3.6012
  708MOL0     H95520   5.710   2.289   0.837  0.5025 -2.7676  1.2165
  708MOL0     H95521   5.716   2.352   0.570 -0.9903 -1.7956 -1.6812
  708MOL0     H95522   5.819   2.205   0.556  1.5211 -1.3191  2.6623
  708MOL0     H95523   5.629   2.072   0.600 -0.0113  0.0281  1.6168
  708MOL0     H95524   5.549   2.196   0.696  0.5231  4.3099 -0.2087
  708MOL0     H95525   5.505   2.348   0.496 -2.3250 -0.6300 -0.2650
  708MOL0     H95526   5.612   2.255   0.409 -1.1562 -0.2994  0.5561
  708MOL0     H95527   5.369   2.140   0.536 -0.9382 -2.1203 -0.6341
  708MOL0     H95528   5.467   2.048   0.428 -0.9266  0.6317 -2.7485
  708MOL0     H95529   5.354   2.112   0.238  1.6695  0.8698 -0.1207
  708MOL0     H95530   5.233   2.136   0.353  0.4851 -1.2712  0.4887
  708MOL0     H95531   5.455   2.342   0.104 -1.8881  0.8262 -0.5830
  708MOL0     H95532   5.280   2.625   0.012 -0.9843  1.9414 -0.5682
  708MOL0     H95533   5.380   2.706   0.123  0.4828 -0.7933 -0.3635
  708MOL0     H95534   5.502   2.490  -0.069 -0.9317  0.4286 -3.4476
  708MOL0     H95535   5.493   2.659  -0.104  1.7957 -0.7838 -1.3016
  708MOL0     H95536   5.636   2.547   0.138  2.1178  0.1466  1.3058
  708MOL0     H95537   5.603   2.719   0.115 -0.0134  0.6734 -0.9335
  708MOL0     H95538   5.824   2.691   0.032 -2.3938  2.3078  2.2059
  708MOL0     H95539   5.715   2.712  -0.108  2.0960 -2.5614 -2.7712
  708MOL0     H95540   5.786   2.340  -0.250  0.3168 -0.2942 -0.6948
  708MOL0     H95541   5.954   2.324  -0.437  1.7729 -1.2680  1.5756
  708MOL0     H95542   6.269   2.258  -0.638  1.2778  1.7404  1.6288
  708MOL0     H95543   6.432   2.240  -0.842  0.6119  0.8393 -2.6582
  708MOL0     H95544   6.316   2.319  -1.208 -0.3823 -0.2463 -1.3648
  708MOL0     H95545   6.362   2.494  -1.196 -1.1571 -0.4779 -0.6823
  708MOL0     H95546   6.470   2.362  -1.373 -1.4735 -0.3771  0.5016
  708MOL0     H95547   6.595   2.444  -1.275 -2.4346  2.5523 -1.4722
  708MOL0     H95548   6.645   2.226  -1.160 -1.3759 -2.0086  0.7967
  708MOL0     H95549   6.511   2.148  -1.223 -0.8306  1.0452  0.1832
  708MOL0     H95550   6.742   2.277  -1.415  2.1593 -1.6365  1.7087
  708MOL0     H95551   6.603   2.188  -1.469  3.0977  2.4247 -2.3461
  708MOL0     H95552   6.686   1.992  -1.336  0.5304  0.4195  1.7580
  708MOL0     H95553   6.804   2.088  -1.261  2.2459 -3.2972 -0.1823
  708MOL0     H95554   6.779   2.086  -1.564 -1.1547 -1.0065  0.2204
  708MOL0     H95555   6.925   2.123  -1.461  0.3565 -0.1824 -2.4978
  708MOL0     H95556   6.826   1.844  -1.525 -2.3238  0.2943  1.7429
  708MOL0     H95557   6.899   1.894  -1.365 -2.4177  0.8908 -0.1301
  708MOL0     H95558   7.018   1.911  -1.651 -2.1570  0.8988 -0.0147
  708MOL0     H95559   7.114   1.913  -1.505  1.0432 -1.4380 -1.5983
  708MOL0     H95560   6.233   2.557  -1.036 -1.7732 -1.3240 -1.6643
  708MOL0     H95561   6.089   2.600  -0.833 -0.7443  0.3153 -0.1851
  708MOL0     H95562   6.136   2.705  -0.319  1.9717 -0.7274  2.2243
  708MOL0     H95563   5.992   2.714  -0.138  1.6551  0.9838 -2.0109
  708MOL0     H95564   6.221   2.382   1.060  1.1231 -1.0916  1.9145
  708MOL0     H95565   6.458   2.500   1.028 -0.6550  2.3264 -2.2092
  708MOL0     H95566   6.964   2.251   0.963  0.6372  1.1630  0.5062
  708MOL0     H95567   7.180   2.314   0.898 -1.3439  0.5884  0.4316
  708MOL0     H95568   7.251   2.575   0.893  2.0515  0.4386  1.8789
  708MOL0     H95569   7.336   2.661   0.769 -0.9262 -0.9618 -0.3226
  708MOL0     H95570   7.527   2.467   0.784  2.4343 -1.3232  1.8011
  708MOL0     H95571   7.410   2.393   0.882 -1.6240  0.8232  1.2483
  708MOL0     H95572   7.571   2.483   1.018  1.7735  2.3233  1.7312
  708MOL0     H95573   7.448   2.609   1.040  2.2502  1.9691 -0.9174
  708MOL0     H95574   7.679   2.696   1.022  1.0609 -0.9698 -0.3490
  708MOL0     H95575   7.680   2.650   0.857  2.6400  2.1894  2.0164
  708MOL0     H95576   7.483   3.008   0.850  2.5783  1.2924  1.3807
  708MOL0     H95577   7.034   2.532   0.559  0.9770 -0.9696 -0.9370
  708MOL0     H95578   6.686   2.449   0.615  1.2171 -0.3595 -2.6819
  708MOL0     H95579   6.763   2.614   0.599 -1.7662  1.3682 -1.5376
  708MOL0     H95580   6.812   2.480   0.492  1.5737  2.2214 -0.8050
  709MOL0     O95581   3.017   9.082   3.279  0.5301  0.0268  0.4770
  709MOL0     C95582   3.066   9.011   3.192  0.2998 -0.3523 -0.5666
  709MOL0     O95583   3.189   8.967   3.195  0.4008 -0.6019  0.1821
  709MOL0     C95584   3.293   9.012   3.278  0.6028  0.7151 -1.1328
  709MOL0     C95585   3.419   8.974   3.241  0.3508  0.6748  0.4744
  709MOL0     C95586   3.530   9.008   3.315 -0.5587 -0.7797 -0.1966
  709MOL0     C95587   3.509   9.077   3.439 -0.2421 -1.0373 -1.0062
  709MOL0     O95588   3.602   9.097   3.544  0.1358  0.1579 -0.4350
  709MOL0     C95589   3.735   9.128   3.507 -0.0455  0.0761 -0.6106
  709MOL0     C95590   3.756   9.270   3.514  0.5496 -0.5943  0.4845
  709MOL0     C95591   3.904   9.313   3.522  0.7827  0.9014  0.9062
  709MOL0     C95592   3.906   9.455   3.456  0.2380  0.3648 -0.8779
  709MOL0     C95593   4.049   9.508   3.425  0.1340  0.4440 -0.3395
  709MOL0     C95594   4.122   9.458   3.296  1.0884  0.1307 -0.1164
  709MOL0     C95595   4.152   9.309   3.286 -0.7519  0.1429  0.2010
  709MOL0     C95596   4.235   9.260   3.413  1.3674 -0.3980  1.0184
  709MOL0     N95597   4.359   9.331   3.427  0.8359  0.1012  0.0591
  709MOL0     C95598   4.386   9.417   3.527  0.1481 -0.1207  0.0493
  709MOL0     C95599   4.503   9.481   3.495  0.7925 -0.2375  0.5443
  709MOL0     C95600   4.571   9.600   3.568 -0.0228 -0.0268 -1.0976
  709MOL0     C95601   4.531   9.732   3.514  0.0888  0.5323 -0.0249
  709MOL0     C95602   4.572   9.849   3.607  0.4908  0.3019  0.2862
  709MOL0     C95603   4.461   9.874   3.708  0.0323 -0.6505 -0.7553
  709MOL0     O95604   4.459   9.776   3.808  0.2026  0.6102  0.4902
  709MOL0     C95605   4.340   9.736   3.853  1.2011  0.4947  0.3259
  709MOL0     C95606   4.296   9.724   3.990 -0.2126  0.4690  0.1965
  709MOL0     C95607   4.167   9.670   4.029  0.2177  0.0337 -0.7575
  709MOL0     C95608   4.069   9.637   3.928 -0.8185  0.3066 -0.7400
  709MOL0     C95609   3.937   9.589   3.961  0.1254  0.5061  0.5834
  709MOL0     O95610   3.867   9.527   3.856 -0.9827  0.6316 -0.4536
  709MOL0     C95611   3.736   9.496   3.877  0.7925  0.3888 -1.2559
  709MOL0     C95612   3.651   9.610   3.860  0.2727 -0.1023  1.1305
  709MOL0     C95613   3.516   9.579   3.842  0.8158  0.5829  0.4018
  709MOL0     C95614   3.467   9.449   3.859  0.0435  0.4262  0.0964
  709MOL0     O95615   3.339   9.402   3.838 -0.1700  0.1210  0.8110
  709MOL0     C95616   3.239   9.489   3.776 -0.0179  0.1629 -0.3609
  709MOL0     C95617   3.109   9.410   3.767  0.3637  0.3915  0.1291
  709MOL0     C95618   3.110   9.259   3.718 -1.3659 -0.9217 -0.3048
  709MOL0     C95619   2.967   9.199   3.727  0.3179 -0.0484 -0.1767
  709MOL0     C95620   2.941   9.070   3.650 -0.1530 -0.4326  0.1225
  709MOL0     C95621   3.014   8.949   3.707  0.5382 -0.0873  0.2239
  709MOL0     C95622   3.018   8.838   3.590 -0.1472 -1.1741 -0.0748
  709MOL0     C95623   2.878   8.793   3.546 -0.0191 -0.5662 -0.0302
  709MOL0    Cl95624   2.900   8.685   3.400  0.1927  0.1481 -0.0848
  709MOL0     C95625   3.558   9.340   3.892  0.4015 -0.9915 -0.2550
  709MOL0     C95626   3.697   9.366   3.899  0.7992  0.4887 -0.1496
  709MOL0     O95627   3.888   9.599   4.070 -0.8009 -0.5309 -0.3725
  709MOL0     C95628   4.111   9.655   3.798 -0.4847  0.5467  0.5660
  709MOL0     C95629   4.241   9.695   3.764 -0.4321  0.1547  0.3457
  709MOL0     N95630   4.546   9.432   3.383 -0.7140  0.4724  0.7849
  709MOL0     N95631   4.461   9.337   3.338 -0.7795  0.4959 -0.6814
  709MOL0     C95632   3.379   9.110   3.481  0.1455  0.8510 -0.3343
  709MOL0     C95633   3.273   9.072   3.405  0.2986  0.2509  0.6104
  709MOL0     C95634   2.984   8.964   3.082  0.0840  0.3197 -0.2653
  709MOL0     C95635   3.047   8.908   2.966 -0.6489 -1.1477  0.3684
  709MOL0     C95636   2.970   8.875   2.856  0.7407 -0.5040 -0.1784
  709MOL0     C95637   2.830   8.894   2.847  0.0827 -0.4557  0.5841
  709MOL0     O95638   2.763   8.847   2.738  0.7231 -0.0227  0.5165
  709MOL0     C95639   2.724   8.710   2.752 -0.7511 -0.1093  0.1606
  709MOL0     C95640   2.585   8.694   2.710  0.6448 -0.1868  0.1417
  709MOL0     C95641   2.514   8.562   2.755 -0.3937  0.3344  0.0180
  709MOL0     C95642   2.371   8.601   2.776  0.3044 -0.2395  0.6346
  709MOL0     C95643   2.289   8.487   2.808  0.5346 -0.2761  0.9254
  709MOL0     C95644   2.220   8.384   2.817 -0.2857  0.2833  1.0891
  709MOL0     C95645   2.764   8.954   2.956 -0.1507 -0.3552  0.6851
  709MOL0     C95646   2.834   8.985   3.080  0.3895 -0.1183  0.5306
  709MOL0     C95647   2.753   9.045   3.192 -0.9451 -0.5517  0.0460
  709MOL0     H95648   3.435   8.907   3.157 -2.5475  0.0413  0.3463
  709MOL0     H95649   3.620   8.961   3.278  0.1030  1.0194 -1.0127
  709MOL0     H95650   3.805   9.088   3.581 -1.6250  1.1734  1.5880
  709MOL0     H95651   3.764   9.084   3.411  1.0336 -2.1035  0.6366
  709MOL0     H95652   3.700   9.315   3.597  1.5257  1.6510  0.0202
  709MOL0     H95653   3.713   9.318   3.425 -0.4423 -1.1937  0.6251
  709MOL0     H95654   3.956   9.235   3.465 -1.9626 -1.0893  0.8860
  709MOL0     H95655   3.939   9.305   3.625 -0.3706  1.6001  1.3660
  709MOL0     H95656   3.850   9.467   3.363 -1.2762  3.6900  0.2856
  709MOL0     H95657   3.851   9.508   3.534 -3.6671 -0.9878 -2.4726
  709MOL0     H95658   4.039   9.616   3.432 -1.3784  0.3544 -0.7681
  709MOL0     H95659   4.117   9.490   3.509 -0.4297  1.1094  0.2648
  709MOL0     H95660   4.073   9.488   3.203  3.7036  3.1914 -0.6850
  709MOL0     H95661   4.217   9.511   3.281  0.0444  1.8191 -1.0474
  709MOL0     H95662   4.222   9.281   3.206 -2.9661  0.1744 -1.8519
  709MOL0     H95663   4.070   9.238   3.274 -0.6306 -0.2056  1.3174
  709MOL0     H95664   4.183   9.254   3.509  3.4927  1.7608  2.3922
  709MOL0     H95665   4.260   9.157   3.384  2.3560  0.2868 -0.6744
  709MOL0     H95666   4.316   9.420   3.610  2.1142 -1.8798  1.9018
  709MOL0     H95667   4.543   9.599   3.674  1.1995  0.4079 -0.7578
  709MOL0     H95668   4.679   9.585   3.572  0.1220  1.2210  0.5448
  709MOL0     H95669   4.560   9.743   3.409  3.0910  0.5091  0.7036
  709MOL0     H95670   4.422   9.733   3.516  0.0453  1.1598 -1.6920
  709MOL0     H95671   4.583   9.936   3.542  2.0169 -0.1375 -0.0766
  709MOL0     H95672   4.660   9.826   3.667 -0.1549 -0.1600  1.0818
  709MOL0     H95673   4.370   9.883   3.647  0.2796  1.1811 -0.9144
  709MOL0     H95674   4.480   9.974   3.748  0.5325 -0.5825 -1.1588
  709MOL0     H95675   4.365   9.755   4.068  1.2431 -3.2519  0.6000
  709MOL0     H95676   4.144   9.660   4.135  2.0120 -1.1956 -0.4435
  709MOL0     H95677   3.691   9.707   3.834 -0.2616 -0.4972 -1.5123
  709MOL0     H95678   3.451   9.660   3.811 -2.8897 -2.7428 -1.4079
  709MOL0     H95679   3.223   9.587   3.823 -0.0055 -0.3527  0.7506
  709MOL0     H95680   3.270   9.514   3.674 -2.1982 -3.2565 -2.0359
  709MOL0     H95681   3.069   9.416   3.869 -0.5603  2.0778 -0.3009
  709MOL0     H95682   3.037   9.463   3.704 -0.1499  2.0830  2.0197
  709MOL0     H95683   3.148   9.268   3.616 -0.7576  1.4205  0.0802
  709MOL0     H95684   3.170   9.190   3.778 -0.1041 -1.5346 -2.1674
  709MOL0     H95685   2.897   9.277   3.696  0.9024 -0.2690 -2.1719
  709MOL0     H95686   2.946   9.189   3.834 -0.5478 -1.3408 -0.4526
  709MOL0     H95687   2.956   9.098   3.545 -0.3589  1.7376  0.6164
  709MOL0     H95688   2.833   9.052   3.657 -0.8891  3.2258  0.2534
  709MOL0     H95689   3.115   8.980   3.733  0.0948  0.3977  1.4178
  709MOL0     H95690   2.968   8.902   3.794 -0.8757  2.8265  1.1677
  709MOL0     H95691   3.077   8.750   3.618 -0.1717 -1.2183 -0.1589
  709MOL0     H95692   3.065   8.893   3.508 -2.6282  1.7443  0.2872
  709MOL0     H95693   2.829   8.735   3.625  1.4884 -2.0547 -0.1281
  709MOL0     H95694   2.805   8.872   3.528 -1.7079 -1.8318  0.9347
  709MOL0     H95695   3.513   9.245   3.917 -4.2343  1.9967  5.2305
  709MOL0     H95696   3.765   9.284   3.917  1.0529  0.0688 -2.6071
  709MOL0     H95697   4.047   9.632   3.714  0.6150 -0.5275 -0.0195
  709MOL0     H95698   4.248   9.670   3.659  0.9191  3.0755 -0.3320
  709MOL0     H95699   3.357   9.158   3.576  2.4550  0.9897  0.1823
  709MOL0     H95700   3.178   9.083   3.456 -0.6695 -0.4709 -0.9431
  709MOL0     H95701   3.155   8.899   2.962 -0.2067  0.9837  3.6481
  709MOL0     H95702   3.024   8.811   2.787 -1.1915 -1.5692 -0.7907
  709MOL0     H95703   2.745   8.679   2.854  1.4249  1.5928  0.2945
  709MOL0     H95704   2.791   8.650   2.689  0.4393  1.5026 -0.1752
  709MOL0     H95705   2.585   8.687   2.601  0.3732  0.5593  0.0907
  709MOL0     H95706   2.524   8.778   2.745  3.6771  2.4167 -0.4484
  709MOL0     H95707   2.560   8.520   2.845 -0.7406  0.1557  0.1144
  709MOL0     H95708   2.518   8.493   2.670  0.8564 -0.6256  0.8197
  709MOL0     H95709   2.370   8.672   2.859  5.5744  1.0046 -0.0088
  709MOL0     H95710   2.325   8.656   2.693  0.2671 -0.3727  0.5642
  709MOL0     H95711   2.172   8.289   2.811 -2.1348  1.1937  0.6748
  709MOL0     H95712   2.661   8.984   2.942  0.1532  0.4838  0.2122
  709MOL0     H95713   2.772   9.004   3.292 -0.2101  1.1884  0.6567
  709MOL0     H95714   2.765   9.154   3.198  2.1201 -0.8577  2.0473
  709MOL0     H95715   2.646   9.031   3.179 -0.8922  0.2841 -1.4972
  710MOL0     O95716   3.762   7.005   2.676  0.1894 -1.1124 -0.0496
  710MOL0     C95717   3.793   6.950   2.575  0.1230 -0.1276  1.0821
  710MOL0     O95718   3.914   6.962   2.511  1.0461  0.2430 -0.5100
  710MOL0     C95719   4.018   7.046   2.543  0.1438  0.0208 -0.4308
  710MOL0     C95720   3.997   7.173   2.618  0.5412  1.2520 -1.4806
  710MOL0     C95721   4.102   7.264   2.648 -0.1907  0.4542  0.4613
  710MOL0     C95722   4.231   7.215   2.618 -0.7054 -1.1472  0.6402
  710MOL0     O95723   4.333   7.306   2.654 -0.2182 -0.3110 -0.0344
  710MOL0     C95724   4.468   7.284   2.596  0.2888  0.2277 -0.3321
  710MOL0     C95725   4.559   7.378   2.668 -0.1968  0.8173 -1.2984
  710MOL0     C95726   4.517   7.526   2.672  0.4120 -0.6310  0.0628
  710MOL0     C95727   4.609   7.606   2.758  0.5091 -0.3038  0.1624
  710MOL0     C95728   4.600   7.759   2.724  0.8474 -0.4261 -0.8394
  710MOL0     C95729   4.454   7.806   2.744  1.0591 -1.1072 -0.0094
  710MOL0     C95730   4.451   7.962   2.748 -0.5769  0.8334  0.1173
  710MOL0     C95731   4.323   8.033   2.691 -0.4929 -0.8911  0.4299
  710MOL0     N95732   4.312   8.172   2.736 -0.6773  0.3306  0.2035
  710MOL0     C95733   4.297   8.198   2.866  0.1514 -0.0216 -0.2121
  710MOL0     C95734   4.326   8.334   2.878 -0.1374  0.2832  0.2041
  710MOL0     C95735   4.323   8.398   3.013  0.9166 -0.9342 -0.1220
  710MOL0     C95736   4.168   8.433   3.039  0.4087  0.5401 -0.2317
  710MOL0     C95737   4.102   8.496   2.922  0.0184  0.1835  0.4558
  710MOL0     C95738   3.963   8.565   2.959  0.1421  0.0448  0.5659
  710MOL0     O95739   3.926   8.634   2.836 -0.5663 -0.1623 -0.1824
  710MOL0     C95740   3.796   8.682   2.822  0.5951  0.0735  0.3959
  710MOL0     C95741   3.692   8.668   2.912  0.2819  0.4313 -0.1457
  710MOL0     C95742   3.573   8.724   2.874  0.8876  1.2341  0.3201
  710MOL0     C95743   3.541   8.772   2.745  0.0291 -0.7466  0.0981
  710MOL0     C95744   3.415   8.839   2.701 -0.3303 -0.6030 -0.2554
  710MOL0     O95745   3.407   8.891   2.569 -0.1049  0.1064 -0.8721
  710MOL0     C95746   3.299   8.962   2.547  0.3665  0.6267 -0.5389
  710MOL0     C95747   3.297   9.093   2.504 -0.4128  0.5118  0.4253
  710MOL0     C95748   3.181   9.169   2.489 -0.1779  1.1979 -0.0200
  710MOL0     C95749   3.054   9.116   2.509 -0.1006 -0.8229  0.2615
  710MOL0     O95750   2.941   9.207   2.496 -0.0284 -0.4248 -0.2322
  710MOL0     C95751   2.821   9.148   2.455 -0.3907  0.0776 -0.2396
  710MOL0     C95752   2.716   9.250   2.428  0.9283 -0.3717  0.3826
  710MOL0     C95753   2.723   9.307   2.288  0.8087 -0.6267 -0.0199
  710MOL0     C95754   2.700   9.200   2.180  0.5979 -0.7258 -1.0763
  710MOL0     C95755   2.645   9.272   2.061  0.8295  0.9008 -0.3077
  710MOL0     C95756   2.642   9.178   1.935 -0.5589  0.1092 -0.3034
  710MOL0     C95757   2.607   9.249   1.807  0.1115 -0.0837  0.0840
  710MOL0     C95758   2.453   9.275   1.783 -0.3496 -0.7296 -0.5360
  710MOL0    Cl95759   2.372   9.109   1.821 -0.3667 -0.3454  0.1413
  710MOL0     C95760   3.043   8.976   2.544 -0.1904 -0.2550  0.4396
  710MOL0     C95761   3.165   8.905   2.567  0.4600  0.7507  0.0515
  710MOL0     O95762   3.334   8.855   2.791 -0.1457 -0.2208 -0.1859
  710MOL0     C95763   3.644   8.754   2.649  0.0671 -0.5434 -0.1646
  710MOL0     C95764   3.769   8.730   2.692 -0.2782 -0.6725 -0.1113
  710MOL0     N95765   4.363   8.385   2.751 -0.6310  0.2429 -0.6382
  710MOL0     N95766   4.347   8.287   2.668 -0.7605 -0.2681 -0.0437
  710MOL0     C95767   4.251   7.091   2.555 -0.5916  0.0434  0.7316
  710MOL0     C95768   4.150   7.016   2.502 -0.0284  0.1398 -0.0923
  710MOL0     C95769   3.698   6.861   2.511  0.1097 -0.5920 -1.5997
  710MOL0     C95770   3.744   6.764   2.421 -0.5871 -0.2945  0.8569
  710MOL0     C95771   3.659   6.691   2.349 -0.0093  0.5273 -0.2175
  710MOL0     C95772   3.524   6.673   2.389 -1.2942 -0.7330  0.1906
  710MOL0     O95773   3.449   6.573   2.336  0.3368 -0.3744  0.3243
  710MOL0     C95774   3.322   6.534   2.398 -0.9819 -0.1309 -0.2526
  710MOL0     C95775   3.287   6.391   2.353  0.7490 -0.2189 -0.7920
  710MOL0     C95776   3.149   6.324   2.400 -0.3079  0.0026 -0.0733
  710MOL0     C95777   3.131   6.339   2.558  0.0231  0.1207 -0.6297
  710MOL0     C95778   3.114   6.480   2.591  0.7715  0.2025 -0.2603
  710MOL0     C95779   3.098   6.594   2.618  0.6228 -0.2734  0.6390
  710MOL0     C95780   3.479   6.768   2.482 -0.1182  0.6993  0.1548
  710MOL0     C95781   3.555   6.861   2.544 -1.0575 -0.5429 -0.0700
  710MOL0     C95782   3.486   6.948   2.636  0.5128 -0.3122 -1.0143
  710MOL0     H95783   3.896   7.207   2.641 -0.3158 -1.1048 -1.5075
  710MOL0     H95784   4.084   7.357   2.700  0.4831 -0.1986  1.9216
  710MOL0     H95785   4.503   7.181   2.608  1.6389  0.2966 -3.0081
  710MOL0     H95786   4.483   7.305   2.490  0.9041  3.7201  0.3440
  710MOL0     H95787   4.662   7.374   2.630 -1.0151  0.5469 -3.6791
  710MOL0     H95788   4.571   7.342   2.770 -0.5509  0.4779 -1.3727
  710MOL0     H95789   4.411   7.524   2.701  0.5302 -1.0104  0.4858
  710MOL0     H95790   4.525   7.563   2.569  1.4218 -2.9774 -0.7547
  710MOL0     H95791   4.597   7.590   2.865  1.2260  2.3719  0.7265
  710MOL0     H95792   4.710   7.581   2.722  0.2028  0.0287 -0.9531
  710MOL0     H95793   4.672   7.813   2.787 -0.5811 -1.5618  1.9362
  710MOL0     H95794   4.623   7.770   2.618  2.4220 -0.6772 -0.5468
  710MOL0     H95795   4.378   7.758   2.681 -2.5010  1.1703  2.1543
  710MOL0     H95796   4.423   7.765   2.841 -2.1990  2.5342  0.7505
  710MOL0     H95797   4.537   8.002   2.694  0.4012  0.5172  1.4052
  710MOL0     H95798   4.457   7.986   2.854  1.8237 -1.5002  0.6045
  710MOL0     H95799   4.336   8.042   2.583 -0.4416  0.0305  0.5024
  710MOL0     H95800   4.226   7.987   2.714 -0.4612 -0.7659  0.8197
  710MOL0     H95801   4.260   8.139   2.949 -2.7837  2.9674  0.8354
  710MOL0     H95802   4.369   8.341   3.094  0.7176  0.5362  1.0652
  710MOL0     H95803   4.384   8.489   3.012  0.8417 -0.8824 -0.5678
  710MOL0     H95804   4.125   8.342   3.083 -0.0077  0.9359  0.2042
  710MOL0     H95805   4.176   8.506   3.120  2.0266  0.6997 -0.4999
  710MOL0     H95806   4.080   8.420   2.846  0.6488  0.6979 -0.2570
  710MOL0     H95807   4.169   8.573   2.884 -0.6908  0.7408  0.2978
  710MOL0     H95808   3.977   8.622   3.051  4.4273 -1.4075  1.0477
  710MOL0     H95809   3.898   8.480   2.976  0.7561 -0.4887  0.2968
  710MOL0     H95810   3.699   8.629   3.013 -1.8234  2.2124  0.7687
  710MOL0     H95811   3.488   8.711   2.940  0.1649 -1.9937 -1.0658
  710MOL0     H95812   3.395   9.130   2.477 -0.3238 -0.7654 -1.1846
  710MOL0     H95813   3.200   9.273   2.462  4.6324  0.4612 -0.4339
  710MOL0     H95814   2.850   9.100   2.361 -0.9829 -0.0831 -0.3446
  710MOL0     H95815   2.780   9.077   2.528 -5.7049  2.0313 -0.8490
  710MOL0     H95816   2.620   9.200   2.437  2.0032 -2.5199  0.3818
  710MOL0     H95817   2.727   9.331   2.501  1.4152 -0.0381 -0.0498
  710MOL0     H95818   2.643   9.382   2.282 -0.3445 -1.8739 -0.8928
  710MOL0     H95819   2.823   9.347   2.273  0.7151  0.1053  1.1902
  710MOL0     H95820   2.622   9.130   2.214 -1.1491  0.5225 -2.3430
  710MOL0     H95821   2.794   9.159   2.144  2.3198  2.4078 -0.5212
  710MOL0     H95822   2.706   9.359   2.037  0.1259  2.2712  2.4378
  710MOL0     H95823   2.540   9.295   2.080  1.1427  2.6506 -0.5193
  710MOL0     H95824   2.748   9.157   1.918 -0.9622 -1.4402 -0.9845
  710MOL0     H95825   2.583   9.087   1.941 -0.1813 -0.4719 -3.6895
  710MOL0     H95826   2.615   9.172   1.730 -4.3562 -4.4582  3.3544
  710MOL0     H95827   2.675   9.331   1.780 -0.0104  0.5200  1.5442
  710MOL0     H95828   2.427   9.354   1.854 -1.3859 -0.3980 -1.2717
  710MOL0     H95829   2.435   9.301   1.679 -0.9568 -0.2353 -0.3153
  710MOL0     H95830   2.953   8.916   2.555 -1.3071  1.6700  2.8704
  710MOL0     H95831   3.154   8.800   2.589  2.5920  0.5821  0.5277
  710MOL0     H95832   3.630   8.776   2.543  0.6581 -0.1764 -0.1692
  710MOL0     H95833   3.852   8.733   2.621  0.2022  3.6990  0.3193
  710MOL0     H95834   4.353   7.057   2.539 -0.6746  0.0676  0.1434
  710MOL0     H95835   4.180   6.927   2.447 -2.1341 -1.9476  1.9259
  710MOL0     H95836   3.850   6.758   2.398 -1.0657  0.3993 -1.9036
  710MOL0     H95837   3.698   6.634   2.265  0.2866  0.0519  0.2340
  710MOL0     H95838   3.246   6.609   2.374 -0.0321  2.1113  2.9413
  710MOL0     H95839   3.326   6.535   2.508 -0.4367 -2.7930 -0.1894
  710MOL0     H95840   3.372   6.331   2.389 -1.4474 -3.9396 -1.2852
  710MOL0     H95841   3.296   6.398   2.244  0.2784  2.6631 -0.7268
  710MOL0     H95842   3.150   6.220   2.364  1.3238  0.3232 -1.0596
  710MOL0     H95843   3.066   6.359   2.338  0.3363  2.6958  0.4613
  710MOL0     H95844   3.044   6.286   2.600  0.7226 -0.9026 -0.4463
  710MOL0     H95845   3.224   6.310   2.607  0.0292 -2.2344 -1.8749
  710MOL0     H95846   3.080   6.693   2.655  3.2703 -1.2152  5.2150
  710MOL0     H95847   3.376   6.766   2.516  0.4255 -3.0113  2.0930
  710MOL0     H95848   3.518   7.047   2.603  0.8650  0.3279  1.0625
  710MOL0     H95849   3.376   6.943   2.637  0.2900  2.8306 -0.6831
  710MOL0     H95850   3.511   6.953   2.743 -1.8303 -0.8820 -0.3816
  711MOL0     O95851   6.211   6.029   8.020 -0.0310  0.0349 -0.6150
  711MOL0     C95852   6.123   5.944   8.042  0.9836 -0.0761 -0.1831
  711MOL0     O95853   6.024   5.915   7.950  0.5711  0.6507 -0.3620
  711MOL0     C95854   6.051   5.955   7.823 -0.3044  1.6594 -0.0189
  711MOL0     C95855   5.994   6.072   7.788  0.4146  0.5790  1.1006
  711MOL0     C95856   5.999   6.119   7.654 -0.5747 -0.2749 -0.4482
  711MOL0     C95857   6.062   6.037   7.556  0.7048  0.1857  1.4006
  711MOL0     O95858   6.066   6.065   7.419  0.2907  0.0417  0.5324
  711MOL0     C95859   6.077   6.206   7.385  0.6728 -0.3154 -0.9381
  711MOL0     C95860   6.142   6.192   7.243  0.5617 -0.0029  0.5503
  711MOL0     C95861   6.165   6.334   7.186  0.4843 -0.0090 -0.7375
  711MOL0     C95862   6.220   6.326   7.053 -0.0361  0.2619  0.3869
  711MOL0     C95863   6.228   6.459   6.979  0.1404 -0.6622  0.0866
  711MOL0     C95864   6.326   6.481   6.860  0.3265  0.2951  0.3191
  711MOL0     C95865   6.276   6.403   6.732 -0.6807 -0.1888  0.7486
  711MOL0     C95866   6.335   6.255   6.734 -0.8991 -0.0957 -0.2684
  711MOL0     N95867   6.470   6.236   6.678  0.2570 -0.0528  0.4023
  711MOL0     C95868   6.491   6.214   6.549  0.4402  1.0994 -0.0524
  711MOL0     C95869   6.622   6.181   6.525  0.8409  0.2788 -0.3718
  711MOL0     C95870   6.706   6.131   6.413  0.6861 -0.5446  0.0341
  711MOL0     C95871   6.862   6.118   6.448  0.0819  0.2827  1.1394
  711MOL0     C95872   6.937   6.113   6.317 -0.3081  0.5454 -0.4405
  711MOL0     C95873   7.094   6.089   6.326  0.3045 -0.6042  0.1971
  711MOL0     O95874   7.142   6.120   6.195  0.3485 -0.0616  0.3655
  711MOL0     C95875   7.279   6.126   6.182 -0.5675 -0.8958 -0.4822
  711MOL0     C95876   7.334   6.190   6.073 -0.3020 -0.6476  0.7331
  711MOL0     C95877   7.471   6.222   6.058 -0.1345  0.3831 -0.8158
  711MOL0     C95878   7.562   6.159   6.146  0.0261 -0.5550 -0.0463
  711MOL0     C95879   7.712   6.186   6.143  1.0043  0.5288 -0.2871
  711MOL0     O95880   7.762   6.297   6.083 -0.3299  0.0428 -0.7536
  711MOL0     C95881   7.899   6.317   6.102  0.5590 -0.3117 -0.8500
  711MOL0     C95882   7.939   6.407   6.196 -0.7976  0.2185  0.0645
  711MOL0     C95883   8.074   6.425   6.209 -0.8043  0.2742 -0.0527
  711MOL0     C95884   8.176   6.361   6.134  0.2342 -0.1491  1.0079
  711MOL0     O95885   8.304   6.396   6.173 -0.2544  0.1090 -0.2595
  711MOL0     C95886   8.409   6.308   6.131  0.3910 -0.7016  1.1595
  711MOL0     C95887   8.536   6.321   6.217 -0.9731 -0.5260  0.1497
  711MOL0     C95888   8.642   6.208   6.213 -0.1165  0.2885 -0.6790
  711MOL0     C95889   8.734   6.221   6.088 -0.5404  0.5348  0.8495
  711MOL0     C95890   8.810   6.096   6.045  0.5408  0.0668  0.3582
  711MOL0     C95891   8.878   6.114   5.910  0.0672 -0.1039  0.8146
  711MOL0     C95892   8.936   5.975   5.855  0.5608 -0.4573 -0.8144
  711MOL0     C95893   9.009   5.988   5.723  0.4534 -0.5315  0.2509
  711MOL0    Cl95894   9.161   6.074   5.754  0.1886  0.2836 -0.0755
  711MOL0     C95895   8.136   6.263   6.046 -0.5862  0.2632 -0.4415
  711MOL0     C95896   7.996   6.238   6.026 -0.1417 -0.6012  0.0396
  711MOL0     O95897   7.783   6.103   6.202 -0.5993 -0.0671  0.2729
  711MOL0     C95898   7.509   6.079   6.253  0.0275 -0.3710 -1.1801
  711MOL0     C95899   7.372   6.064   6.268 -1.2069  0.0872 -0.6712
  711MOL0     N95900   6.676   6.191   6.650 -0.0231  0.2795 -0.2094
  711MOL0     N95901   6.579   6.211   6.740  0.3560  0.9713 -0.8414
  711MOL0     C95902   6.110   5.910   7.594 -0.9312 -0.0461 -0.1978
  711MOL0     C95903   6.106   5.864   7.728  0.4329 -0.4659  0.2905
  711MOL0     C95904   6.132   5.859   8.160  0.4215 -0.5798 -0.5140
  711MOL0     C95905   6.006   5.818   8.214  0.2584  0.3542  0.0400
  711MOL0     C95906   5.993   5.762   8.339 -0.7058  0.5790  0.6418
  711MOL0     C95907   6.110   5.708   8.388  0.4315  0.6799 -0.8033
  711MOL0     O95908   6.089   5.620   8.493 -0.6407 -0.4514 -0.1362
  711MOL0     C95909   6.198   5.568   8.567 -0.1405 -0.0560 -0.0466
  711MOL0     C95910   6.242   5.665   8.673 -0.4169  1.0790 -0.5660
  711MOL0     C95911   6.378   5.624   8.743  0.3306 -0.5297  1.1013
  711MOL0     C95912   6.461   5.753   8.770  0.2625  0.4973 -0.6971
  711MOL0     C95913   6.390   5.850   8.857 -0.3153 -0.8236  1.0649
  711MOL0     C95914   6.326   5.923   8.927  0.5033 -0.0820  0.7600
  711MOL0     C95915   6.231   5.740   8.334  0.1034  0.0781  0.3168
  711MOL0     C95916   6.251   5.809   8.222  0.3397 -0.4256  0.6341
  711MOL0     C95917   6.394   5.839   8.168 -0.8291 -0.5196 -0.4313
  711MOL0     H95918   5.944   6.133   7.863 -0.3472  0.3963  0.7508
  711MOL0     H95919   5.946   6.207   7.618  2.5461  1.3644 -1.4387
  711MOL0     H95920   5.980   6.257   7.379  0.7729 -0.0905 -0.6902
  711MOL0     H95921   6.137   6.274   7.447 -3.3322  0.4627  2.5820
  711MOL0     H95922   6.092   6.129   7.169  2.6867  0.8958 -1.8136
  711MOL0     H95923   6.240   6.147   7.258  0.5856  0.1937  0.9864
  711MOL0     H95924   6.236   6.380   7.255  2.9782 -2.9764 -1.1426
  711MOL0     H95925   6.073   6.394   7.183 -0.8090 -1.9507 -2.8662
  711MOL0     H95926   6.325   6.300   7.068  0.2001  1.2639  0.5009
  711MOL0     H95927   6.154   6.258   6.998 -1.3930 -0.0905  2.3762
  711MOL0     H95928   6.126   6.488   6.953  0.4080  0.2265  0.0108
  711MOL0     H95929   6.265   6.539   7.043  0.5124  3.4142 -4.6248
  711MOL0     H95930   6.343   6.588   6.847  1.2241  0.3805  1.8709
  711MOL0     H95931   6.427   6.447   6.883  0.2265 -0.9100 -0.8762
  711MOL0     H95932   6.298   6.455   6.638  1.5744 -1.2639  0.6060
  711MOL0     H95933   6.168   6.387   6.739 -0.6980 -0.8365 -0.5920
  711MOL0     H95934   6.329   6.205   6.832  0.0318  1.9345  0.8823
  711MOL0     H95935   6.274   6.198   6.664 -0.9168 -1.0251  0.4734
  711MOL0     H95936   6.412   6.200   6.476 -1.0573 -3.9292  2.1161
  711MOL0     H95937   6.666   6.032   6.390  1.1284 -1.1341  1.6598
  711MOL0     H95938   6.688   6.197   6.328 -0.8293  1.0466  1.5191
  711MOL0     H95939   6.904   6.201   6.505  1.3455 -0.3243  1.1264
  711MOL0     H95940   6.874   6.024   6.502 -2.1604 -1.3531 -1.0057
  711MOL0     H95941   6.915   6.212   6.276 -1.4670  0.8561  0.8410
  711MOL0     H95942   6.905   6.026   6.259 -3.0141 -0.3516  2.1257
  711MOL0     H95943   7.126   5.995   6.374  1.9455  0.4981  1.3743
  711MOL0     H95944   7.139   6.157   6.399  0.3804 -1.0792  0.6098
  711MOL0     H95945   7.261   6.238   6.009  0.4451  1.9223  1.6783
  711MOL0     H95946   7.504   6.271   5.967  2.2105 -0.3629 -0.4373
  711MOL0     H95947   7.865   6.458   6.256 -0.0459 -1.1473  2.2645
  711MOL0     H95948   8.118   6.502   6.272  0.1104 -1.5204  1.5986
  711MOL0     H95949   8.377   6.206   6.153  1.5976 -1.4618 -0.4322
  711MOL0     H95950   8.429   6.316   6.024 -2.5793 -2.5374  0.3584
  711MOL0     H95951   8.577   6.420   6.200 -0.6144 -0.6934  0.0303
  711MOL0     H95952   8.507   6.328   6.322 -2.1300  3.0504 -0.2751
  711MOL0     H95953   8.707   6.203   6.301  0.5926 -1.4854 -1.2558
  711MOL0     H95954   8.586   6.114   6.216  2.8149 -1.5729 -0.2488
  711MOL0     H95955   8.799   6.306   6.111 -0.8986  2.0556 -2.9820
  711MOL0     H95956   8.669   6.243   6.002  1.3725  1.5328 -0.4048
  711MOL0     H95957   8.729   6.028   6.018 -0.6725  0.7769  2.0848
  711MOL0     H95958   8.883   6.062   6.120  0.5326  0.2539  0.4516
  711MOL0     H95959   8.805   6.152   5.838 -0.5750 -2.8788 -0.0985
  711MOL0     H95960   8.968   6.175   5.923  0.7817 -0.6187 -1.3060
  711MOL0     H95961   8.843   5.921   5.837  0.4149 -0.4175 -0.2252
  711MOL0     H95962   9.006   5.929   5.926  0.5176  0.0225 -0.4541
  711MOL0     H95963   9.021   5.885   5.688 -2.5790 -1.5523  1.8756
  711MOL0     H95964   8.950   6.037   5.644 -1.2767 -4.6542 -1.2687
  711MOL0     H95965   8.207   6.201   5.991 -1.7934 -1.4134 -0.2085
  711MOL0     H95966   7.954   6.183   5.942 -0.1310  2.0250 -1.8244
  711MOL0     H95967   7.576   6.035   6.325 -1.3308 -0.6820 -0.0577
  711MOL0     H95968   7.337   6.019   6.361 -0.0129  0.9657  0.2365
  711MOL0     H95969   6.152   5.846   7.518  0.2593 -2.0650  1.9972
  711MOL0     H95970   6.147   5.770   7.762  1.4472 -0.0219  0.3363
  711MOL0     H95971   5.918   5.851   8.159  0.9995  2.1593 -0.1199
  711MOL0     H95972   5.897   5.740   8.385 -1.7997  0.5732 -1.5305
  711MOL0     H95973   6.285   5.549   8.505  0.0820 -0.4448  0.3787
  711MOL0     H95974   6.165   5.469   8.601 -0.1762 -0.1220 -0.2723
  711MOL0     H95975   6.170   5.676   8.754  1.0158  1.9761  0.6388
  711MOL0     H95976   6.248   5.765   8.630 -0.2002 -0.4238 -4.4105
  711MOL0     H95977   6.433   5.551   8.682  1.7208  0.6018  0.9441
  711MOL0     H95978   6.364   5.588   8.845 -0.2944  0.2002  1.2819
  711MOL0     H95979   6.556   5.731   8.819 -0.1654 -0.6688 -0.3509
  711MOL0     H95980   6.485   5.791   8.670 -1.7060 -1.1606 -1.8721
  711MOL0     H95981   6.275   5.976   9.005  0.6776 -0.1700  0.9331
  711MOL0     H95982   6.321   5.720   8.391  0.6005  1.8752  0.2119
  711MOL0     H95983   6.429   5.940   8.189 -2.5308 -0.2644  1.5180
  711MOL0     H95984   6.471   5.772   8.205  1.0261  1.4307 -0.5946
  711MOL0     H95985   6.384   5.835   8.059  0.5689  3.0228 -0.8006
  712MOL0     O95986  11.101   3.684   9.698 -0.3455  0.4037  0.4941
  712MOL0     C95987  11.025   3.743   9.774  0.2759  0.2406 -0.5321
  712MOL0     O95988  11.066   3.836   9.872  0.2816 -0.4583  0.0317
  712MOL0     C95989  11.197   3.883   9.860 -0.9830  0.1205 -0.7575
  712MOL0     C95990  11.286   3.826   9.955 -0.2124 -0.0684 -0.1318
  712MOL0     C95991  11.418   3.874   9.966 -0.2757  0.6637  0.3815
  712MOL0     C95992  11.459   3.986   9.889  0.0976 -0.7727  0.5251
  712MOL0     O95993  11.572   4.060   9.917  0.1842  0.3744 -0.1147
  712MOL0     C95994  11.685   3.999   9.957 -0.5149  0.5800 -0.9720
  712MOL0     C95995  11.796   3.994   9.857  0.6617 -0.1007  0.7979
  712MOL0     C95996  11.762   3.901   9.731 -0.3192  0.5475  0.7429
  712MOL0     C95997  11.838   3.939   9.599  0.4698  0.4333 -0.3109
  712MOL0     C95998  11.984   3.943   9.630 -0.7903  0.1694  0.1574
  712MOL0     C95999  12.062   3.976   9.504  0.9629 -0.1552 -0.1222
  712MOL0     C96000  12.206   3.989   9.524  0.7316  0.2040  0.4470
  712MOL0     C96001  12.268   4.084   9.417 -0.4442 -0.2424  0.4803
  712MOL0     N96002  12.236   4.226   9.432  0.3693  0.6308  0.0964
  712MOL0     C96003  12.134   4.291   9.386  0.5535  0.9190 -0.3908
  712MOL0     C96004  12.120   4.403   9.467 -0.5464 -0.1555  0.1669
  712MOL0     C96005  12.014   4.508   9.456  0.6256 -0.8244  0.4646
  712MOL0     C96006  11.874   4.455   9.423  0.7322  0.5582  0.6108
  712MOL0     C96007  11.819   4.369   9.533 -0.2490 -0.4264  0.2395
  712MOL0     C96008  11.678   4.333   9.522 -0.9322 -0.2339  0.4149
  712MOL0     O96009  11.595   4.441   9.564  0.1759 -0.2790 -0.0967
  712MOL0     C96010  11.458   4.422   9.569  0.5104 -0.3422 -0.6636
  712MOL0     C96011  11.380   4.334   9.495  0.2063 -0.6474 -0.4088
  712MOL0     C96012  11.240   4.325   9.514 -0.4510 -0.0623 -1.0226
  712MOL0     C96013  11.182   4.398   9.615 -0.1888 -0.3968  0.4536
  712MOL0     C96014  11.033   4.378   9.648 -0.4811 -0.0440  0.4620
  712MOL0     O96015  10.983   4.438   9.761  0.5221 -0.0592  0.1382
  712MOL0     C96016  10.848   4.412   9.797  0.2449  0.3606 -0.1818
  712MOL0     C96017  10.738   4.495   9.750  0.1674  0.5560  0.4511
  712MOL0     C96018  10.609   4.467   9.795 -0.1852 -1.2831 -0.6175
  712MOL0     C96019  10.574   4.358   9.888 -0.3802 -0.8526 -1.2048
  712MOL0     O96020  10.448   4.333   9.908 -0.5008 -0.0369 -0.7102
  712MOL0     C96021  10.416   4.228  10.005 -0.5285 -0.2268 -0.1823
  712MOL0     C96022  10.417   4.081   9.956 -0.6792  0.9674 -0.4263
  712MOL0     C96023  10.356   3.996  10.068 -0.1063 -0.1527 -0.0011
  712MOL0     C96024  10.370   3.854  10.032 -0.1581 -0.6279 -0.2544
  712MOL0     C96025  10.290   3.763  10.131 -0.2584 -0.6558 -0.2060
  712MOL0     C96026  10.221   3.638  10.077 -1.3821 -0.4395  0.6137
  712MOL0     C96027  10.154   3.556  10.184  1.2273  0.3333 -0.0279
  712MOL0     C96028  10.118   3.415  10.130 -0.4099  0.2584  0.0887
  712MOL0    Cl96029   9.992   3.439  10.019  0.6540 -0.0053 -0.1692
  712MOL0     C96030  10.683   4.272   9.926 -0.1728 -0.0892 -0.0789
  712MOL0     C96031  10.816   4.308   9.887 -0.5096 -0.0874  0.3145
  712MOL0     O96032  10.961   4.329   9.563 -0.0199 -0.7177  0.0367
  712MOL0     C96033  11.256   4.495   9.686  0.0134  0.1887 -0.2795
  712MOL0     C96034  11.393   4.492   9.669 -0.1947  0.3782 -0.0513
  712MOL0     N96035  12.216   4.407   9.567 -0.5536  0.4030  0.3571
  712MOL0     N96036  12.283   4.295   9.545 -0.1863  0.8925 -0.3379
  712MOL0     C96037  11.366   4.049   9.806 -0.1689 -0.1491 -0.5262
  712MOL0     C96038  11.237   3.992   9.782 -0.2115 -0.1349  0.7313
  712MOL0     C96039  10.880   3.709   9.768 -0.0931  0.1637 -0.4704
  712MOL0     C96040  10.856   3.567   9.763  0.1508 -0.1653  0.4201
  712MOL0     C96041  10.722   3.520   9.747  0.3770 -0.9703  1.0302
  712MOL0     C96042  10.618   3.612   9.737 -1.5565 -0.6652  0.3775
  712MOL0     O96043  10.486   3.594   9.724 -0.6163 -0.0011  0.1224
  712MOL0     C96044  10.442   3.462   9.714  1.0098 -0.2716  0.2634
  712MOL0     C96045  10.282   3.459   9.714  0.3164 -0.3632 -0.3178
  712MOL0     C96046  10.218   3.562   9.619  0.2482 -0.0699  0.0949
  712MOL0     C96047  10.067   3.538   9.615  0.3870 -0.0832  0.5134
  712MOL0     C96048  10.014   3.660   9.562  0.9993 -0.3843  0.4897
  712MOL0     C96049   9.954   3.765   9.522 -0.3546 -0.0895  0.3759
  712MOL0     C96050  10.641   3.751   9.767 -0.4074  0.1457  0.0552
  712MOL0     C96051  10.771   3.803   9.768  0.4960 -0.6640 -0.7721
  712MOL0     C96052  10.781   3.946   9.800  0.4012  0.7962 -0.4597
  712MOL0     H96053  11.249   3.737  10.005  1.3375 -0.6586  0.0482
  712MOL0     H96054  11.484   3.830  10.039 -1.9657  0.2901  1.7344
  712MOL0     H96055  11.727   4.050  10.044  0.9694 -0.1048 -1.2621
  712MOL0     H96056  11.670   3.894   9.983 -2.0146  1.0008  0.0231
  712MOL0     H96057  11.891   3.973   9.907  0.8221 -0.0030  0.5390
  712MOL0     H96058  11.812   4.097   9.826  0.5302  0.3630  2.1934
  712MOL0     H96059  11.655   3.898   9.706 -0.6760  0.0286  2.2121
  712MOL0     H96060  11.778   3.798   9.764 -1.1082  0.3824  0.6474
  712MOL0     H96061  11.818   3.871   9.516 -2.5777  2.8493 -1.7680
  712MOL0     H96062  11.812   4.042   9.572  0.7543  0.0447 -2.2423
  712MOL0     H96063  12.017   4.013   9.708 -2.0328 -1.9793  2.7480
  712MOL0     H96064  12.014   3.845   9.667  0.8886  1.3263  2.0674
  712MOL0     H96065  12.046   3.896   9.432 -1.7870  1.2146 -1.2059
  712MOL0     H96066  12.021   4.062   9.451 -2.1792 -2.4517 -1.7443
  712MOL0     H96067  12.265   3.897   9.517  0.3230 -0.1023  1.0308
  712MOL0     H96068  12.222   4.038   9.620 -1.0724 -1.2116  1.5223
  712MOL0     H96069  12.374   4.089   9.441 -1.0242  0.3892  3.1751
  712MOL0     H96070  12.248   4.052   9.314 -1.5934 -3.0839  1.4818
  712MOL0     H96071  12.068   4.258   9.307  0.3026  2.7643 -1.0051
  712MOL0     H96072  12.011   4.565   9.549 -0.6953 -0.6794  0.3477
  712MOL0     H96073  12.035   4.592   9.389 -2.0113  1.4557  2.2742
  712MOL0     H96074  11.813   4.540   9.393  1.1395 -0.1122 -2.3769
  712MOL0     H96075  11.874   4.386   9.338  0.4755  0.8166  0.4009
  712MOL0     H96076  11.832   4.419   9.629 -0.9561 -0.6983  0.4816
  712MOL0     H96077  11.887   4.284   9.545  1.4688  0.8876  0.2455
  712MOL0     H96078  11.656   4.250   9.590 -1.8637 -1.7388 -1.6078
  712MOL0     H96079  11.652   4.305   9.419  1.5540  1.6834 -0.8477
  712MOL0     H96080  11.430   4.275   9.418  3.5229  4.5271 -2.8209
  712MOL0     H96081  11.188   4.245   9.462  0.1908 -0.4989 -1.0083
  712MOL0     H96082  10.750   4.574   9.676 -0.3788 -0.8802 -1.2323
  712MOL0     H96083  10.524   4.519   9.751  0.1383  0.6382  0.8798
  712MOL0     H96084  10.478   4.228  10.095 -1.3483  0.9921  0.4124
  712MOL0     H96085  10.312   4.238  10.039 -1.2282 -2.2000 -1.5885
  712MOL0     H96086  10.352   4.066   9.869 -0.3217 -2.2304 -0.2339
  712MOL0     H96087  10.512   4.034   9.928  0.9661  2.9432  1.4785
  712MOL0     H96088  10.408   4.008  10.163  0.5811  1.0713 -0.5030
  712MOL0     H96089  10.248   4.015  10.071 -0.1501 -0.4247  0.1875
  712MOL0     H96090  10.479   3.844  10.039 -0.0819  1.2005  3.1333
  712MOL0     H96091  10.332   3.834   9.931 -2.3388 -1.0338  0.5958
  712MOL0     H96092  10.206   3.822  10.169 -0.4391  0.5718 -2.3527
  712MOL0     H96093  10.355   3.737  10.216  1.9920  2.7318 -0.7083
  712MOL0     H96094  10.156   3.669   9.994  1.0531 -0.9889 -1.6359
  712MOL0     H96095  10.297   3.579  10.025 -1.9411 -0.7469  0.1308
  712MOL0     H96096  10.063   3.592  10.232 -0.1605 -2.3889 -0.3809
  712MOL0     H96097  10.225   3.544  10.267  1.2562 -0.6600 -0.1818
  712MOL0     H96098  10.206   3.366  10.087  0.5099  0.6826  1.4252
  712MOL0     H96099  10.084   3.342  10.205  2.8873 -1.3650  0.1578
  712MOL0     H96100  10.675   4.182   9.986  2.2519 -1.4706 -1.6715
  712MOL0     H96101  10.891   4.256   9.945 -0.1290  2.1871  2.0339
  712MOL0     H96102  11.216   4.563   9.761  4.5506  0.4510  2.2506
  712MOL0     H96103  11.455   4.562   9.725 -0.4951  1.3870 -0.9502
  712MOL0     H96104  11.393   4.140   9.752 -0.1106  0.5487  0.6370
  712MOL0     H96105  11.173   4.037   9.707 -1.0182 -1.5247  0.5571
  712MOL0     H96106  10.932   3.492   9.781  1.3501  0.2568 -2.3709
  712MOL0     H96107  10.706   3.413   9.750 -1.2158 -0.8506 -1.0732
  712MOL0     H96108  10.467   3.393   9.795  2.0598 -0.3401 -0.1124
  712MOL0     H96109  10.476   3.422   9.618 -3.4228 -0.2974 -1.5743
  712MOL0     H96110  10.231   3.464   9.811 -1.8444  0.7090 -1.4255
  712MOL0     H96111  10.254   3.358   9.683 -0.8445 -1.4091  3.5372
  712MOL0     H96112  10.264   3.551   9.520 -1.2984  1.0054 -0.7722
  712MOL0     H96113  10.235   3.658   9.669 -0.8440  0.4095 -0.4272
  712MOL0     H96114  10.039   3.450   9.556  3.3759  0.4471 -1.9451
  712MOL0     H96115  10.031   3.533   9.718 -1.0706 -3.1653 -0.0428
  712MOL0     H96116   9.897   3.852   9.493  2.1437  1.1421 -1.1744
  712MOL0     H96117  10.554   3.815   9.780 -1.3917 -1.5491  2.6445
  712MOL0     H96118  10.857   4.003   9.746  1.8190  1.4760  2.0661
  712MOL0     H96119  10.683   3.994   9.790  0.2044  0.1900 -1.4913
  712MOL0     H96120  10.807   3.941   9.906 -3.0547 -1.4085  0.4514
  713MOL0     O96121   2.569   9.914   1.265  0.3036 -0.1092  0.4099
  713MOL0     C96122   2.586   9.995   1.353 -0.6080  0.1548 -0.0211
  713MOL0     O96123   2.710  10.037   1.386  0.2736  0.1409  0.1702
  713MOL0     C96124   2.811   9.956   1.347 -0.2529  0.4173  0.5596
  713MOL0     C96125   2.843   9.954   1.210 -0.2219  0.7713 -0.2287
  713MOL0     C96126   2.955   9.883   1.164 -0.1012  0.2474  0.7323
  713MOL0     C96127   3.033   9.812   1.254 -0.7816 -0.4706  0.0062
  713MOL0     O96128   3.129   9.719   1.218 -0.1075  0.1117  0.2245
  713MOL0     C96129   3.260   9.761   1.232 -0.4032 -0.5989  0.0917
  713MOL0     C96130   3.359   9.644   1.209  0.7100 -0.1852  0.1757
  713MOL0     C96131   3.506   9.695   1.231  0.2156  0.2959 -0.7241
  713MOL0     C96132   3.591   9.598   1.324 -0.7895 -0.6771 -0.2073
  713MOL0     C96133   3.724   9.662   1.321  0.1534  0.3326 -0.1165
  713MOL0     C96134   3.826   9.560   1.375 -0.1598  0.0968  0.7237
  713MOL0     C96135   3.962   9.625   1.390 -0.2087 -0.3792 -0.6211
  713MOL0     C96136   3.964   9.735   1.504 -0.7717  0.4024  0.0996
  713MOL0     N96137   4.089   9.804   1.525 -0.3400  0.0882 -0.5154
  713MOL0     C96138   4.214   9.744   1.504  0.6708  0.2506 -0.2557
  713MOL0     C96139   4.302   9.820   1.568 -0.2707 -0.3509 -0.3269
  713MOL0     C96140   4.445   9.796   1.566 -1.1576  0.5821 -0.7866
  713MOL0     C96141   4.484   9.718   1.693  0.0445  0.4564  0.0244
  713MOL0     C96142   4.627   9.683   1.696  0.1966  0.1444  0.0784
  713MOL0     C96143   4.680   9.656   1.840  0.0270  0.2444 -0.6527
  713MOL0     O96144   4.801   9.584   1.853 -0.2303  0.3085 -0.2534
  713MOL0     C96145   4.928   9.649   1.856 -0.5880  0.2677 -0.2240
  713MOL0     C96146   4.953   9.781   1.820  0.7351 -0.3043  0.7256
  713MOL0     C96147   5.082   9.829   1.823  0.5850  0.5666 -0.2808
  713MOL0     C96148   5.189   9.744   1.881 -1.3009  0.7904  0.7094
  713MOL0     C96149   5.330   9.798   1.874 -0.0886  1.0946  0.3848
  713MOL0     O96150   5.423   9.740   1.956 -0.3514 -0.1166  0.4846
  713MOL0     C96151   5.547   9.795   1.953  0.4444 -0.1956  0.1717
  713MOL0     C96152   5.565   9.914   2.024 -0.8528 -0.3555  0.3743
  713MOL0     C96153   5.690   9.985   2.000 -1.0821 -0.7647  0.3441
  713MOL0     C96154   5.794   9.947   1.918 -0.4951  0.2196 -0.0739
  713MOL0     O96155   5.915  10.010   1.927 -0.2870 -0.7234 -0.6732
  713MOL0     C96156   5.947  10.044   1.789  0.3943  0.7345 -0.0319
  713MOL0     C96157   6.061  10.141   1.777 -0.0841 -0.5318  0.2881
  713MOL0     C96158   6.100  10.179   1.635  0.2992 -0.3182 -0.2408
  713MOL0     C96159   6.053  10.322   1.585  0.0856  0.3181  0.5098
  713MOL0     C96160   5.896  10.324   1.587 -0.1906  0.6862 -0.0131
  713MOL0     C96161   5.844  10.429   1.504  0.0460 -0.1589  0.5084
  713MOL0     C96162   5.701  10.469   1.522  0.1323 -0.4017  0.1288
  713MOL0     C96163   5.656  10.582   1.429  0.0668 -0.5057 -0.8020
  713MOL0    Cl96164   5.691  10.549   1.254  0.2683  0.3531  0.0121
  713MOL0     C96165   5.762   9.833   1.844  0.5668  0.2111  0.4325
  713MOL0     C96166   5.641   9.762   1.855  0.2898  0.9153 -0.5336
  713MOL0     O96167   5.356   9.885   1.790 -0.6001 -0.1953  0.9049
  713MOL0     C96168   5.164   9.613   1.915  0.1177  0.2755 -0.0352
  713MOL0     C96169   5.033   9.570   1.910  0.2227  0.8578  0.1905
  713MOL0     N96170   4.240   9.929   1.633 -0.1005  0.1602 -0.3945
  713MOL0     N96171   4.117   9.918   1.599  0.6532  0.1878  0.5125
  713MOL0     C96172   3.006   9.821   1.395  0.1042 -0.7708  0.3479
  713MOL0     C96173   2.892   9.891   1.434 -0.6993 -0.1243 -1.0520
  713MOL0     C96174   2.463  10.073   1.394 -0.2163  0.4781  0.0150
  713MOL0     C96175   2.342  10.014   1.369  0.5769 -0.1505  0.6023
  713MOL0     C96176   2.212  10.066   1.401 -0.2034 -0.4330  0.6651
  713MOL0     C96177   2.220  10.197   1.455 -0.6086  0.2678 -0.1914
  713MOL0     O96178   2.114  10.280   1.484  0.3954 -0.2822  0.5292
  713MOL0     C96179   1.976  10.245   1.449 -0.2577  0.0490  0.4527
  713MOL0     C96180   1.899  10.193   1.570  0.1195  0.1987  0.3014
  713MOL0     C96181   1.773  10.113   1.515  0.4530 -0.7046 -0.0793
  713MOL0     C96182   1.789   9.967   1.488  0.2591 -0.1136 -0.1830
  713MOL0     C96183   1.816   9.904   1.618  0.6087  0.4181 -0.2763
  713MOL0     C96184   1.845   9.859   1.720  0.6708  0.2923 -0.3782
  713MOL0     C96185   2.345  10.248   1.481 -0.3167 -0.5157 -0.1705
  713MOL0     C96186   2.465  10.197   1.453  0.1587  0.1516 -0.3902
  713MOL0     C96187   2.591  10.290   1.475  0.3051  0.9560  0.4576
  713MOL0     H96188   2.778  10.001   1.136 -1.0044 -0.8417 -0.5944
  713MOL0     H96189   2.974   9.856   1.061 -1.7513 -0.9445  0.6966
  713MOL0     H96190   3.273   9.840   1.158  0.2553 -1.0209 -0.2575
  713MOL0     H96191   3.271   9.813   1.327 -5.8120  2.3110 -0.4656
  713MOL0     H96192   3.340   9.611   1.107 -0.5406  5.8963 -2.0043
  713MOL0     H96193   3.352   9.559   1.277  1.6553 -2.9801 -2.9519
  713MOL0     H96194   3.515   9.797   1.269  0.8809  0.3562 -1.0190
  713MOL0     H96195   3.555   9.688   1.134  0.0704 -4.6190 -0.7032
  713MOL0     H96196   3.561   9.595   1.429 -0.0912 -3.0240 -0.0099
  713MOL0     H96197   3.599   9.492   1.299  0.9174 -1.4559  3.1197
  713MOL0     H96198   3.757   9.690   1.220  2.4835 -0.9486  0.2186
  713MOL0     H96199   3.705   9.745   1.390 -2.6900 -0.1656 -0.1781
  713MOL0     H96200   3.796   9.528   1.475 -0.4476 -1.4346  0.1619
  713MOL0     H96201   3.828   9.471   1.312  1.0341  0.0063  0.8651
  713MOL0     H96202   3.996   9.666   1.294 -0.1613  3.4709  0.8456
  713MOL0     H96203   4.033   9.546   1.415 -0.4421 -1.0026 -1.8800
  713MOL0     H96204   3.883   9.808   1.494 -0.3990  0.5928 -2.0759
  713MOL0     H96205   3.928   9.684   1.594 -0.3104 -0.0774  0.0155
  713MOL0     H96206   4.244   9.658   1.445  0.4142 -0.7599  1.0361
  713MOL0     H96207   4.488   9.756   1.474 -0.3052 -0.6019  0.0864
  713MOL0     H96208   4.497   9.892   1.570  4.2113 -1.9475  2.2172
  713MOL0     H96209   4.452   9.777   1.779  0.9811 -0.5433  1.0816
  713MOL0     H96210   4.423   9.628   1.689 -0.2910  0.7076 -1.3746
  713MOL0     H96211   4.688   9.767   1.661  0.3315  0.0643  0.1167
  713MOL0     H96212   4.645   9.601   1.626 -0.2132  0.2864 -0.1941
  713MOL0     H96213   4.601   9.600   1.891  1.2445  0.2028  1.2921
  713MOL0     H96214   4.688   9.750   1.896 -0.3507 -0.7503  1.1216
  713MOL0     H96215   4.864   9.826   1.777  1.2381 -0.5441 -0.6170
  713MOL0     H96216   5.096   9.930   1.786 -0.8350  0.7131 -0.4946
  713MOL0     H96217   5.494   9.965   2.088 -0.9430 -2.3024  1.9212
  713MOL0     H96218   5.718  10.074   2.056  0.5765 -0.2344 -1.2328
  713MOL0     H96219   5.978   9.952   1.737 -0.7862  1.0301 -1.3048
  713MOL0     H96220   5.856  10.079   1.740 -2.3670 -2.2559  2.5452
  713MOL0     H96221   6.022  10.229   1.828  3.4556  0.4586  1.5722
  713MOL0     H96222   6.151  10.122   1.836  0.7120  1.3665 -0.2406
  713MOL0     H96223   6.209  10.185   1.630  0.2811  2.3208  0.7747
  713MOL0     H96224   6.081  10.094   1.569 -1.5231 -1.0378  1.1104
  713MOL0     H96225   6.086  10.320   1.481 -0.2939 -0.2391  0.3966
  713MOL0     H96226   6.098  10.405   1.641  1.0264  0.2814 -0.1715
  713MOL0     H96227   5.849  10.341   1.684  1.5724 -0.8631  1.2053
  713MOL0     H96228   5.861  10.225   1.555  2.1905 -0.6251  1.0726
  713MOL0     H96229   5.905  10.512   1.539 -0.3157  0.1148  0.4967
  713MOL0     H96230   5.862  10.418   1.397 -1.0439  1.2358  0.1631
  713MOL0     H96231   5.677  10.488   1.627 -1.9342 -4.2983  0.5407
  713MOL0     H96232   5.636  10.386   1.493 -1.1739  0.5679  0.1640
  713MOL0     H96233   5.548  10.596   1.441  0.4354  0.9163  1.5387
  713MOL0     H96234   5.708  10.673   1.459  0.9803 -0.4125 -2.5823
  713MOL0     H96235   5.833   9.796   1.771 -1.6813  3.1179 -3.6212
  713MOL0     H96236   5.616   9.675   1.795 -1.5039  0.3255  0.9704
  713MOL0     H96237   5.236   9.542   1.954 -1.4184  0.6478  4.0106
  713MOL0     H96238   5.008   9.468   1.940 -1.5931  1.1890 -0.0981
  713MOL0     H96239   3.074   9.763   1.456 -1.5599 -0.9758  2.0839
  713MOL0     H96240   2.858   9.895   1.537  0.5263  0.1163 -0.6388
  713MOL0     H96241   2.332   9.912   1.332 -3.9031  1.1419 -2.6835
  713MOL0     H96242   2.127  10.000   1.388 -1.8433  1.8334 -0.9538
  713MOL0     H96243   1.974  10.173   1.366  1.5342  1.7084 -1.1297
  713MOL0     H96244   1.940  10.334   1.396  5.0805  1.2681 -1.7721
  713MOL0     H96245   1.852  10.269   1.634 -1.9989 -2.8555  2.6793
  713MOL0     H96246   1.947  10.124   1.640  0.9729  0.9499  0.4669
  713MOL0     H96247   1.731  10.154   1.423 -0.3016 -1.0273  0.1124
  713MOL0     H96248   1.694  10.132   1.588 -1.1001 -1.0197 -1.6015
  713MOL0     H96249   1.700   9.917   1.450  0.8768 -0.1941 -1.5753
  713MOL0     H96250   1.875   9.948   1.422  0.0823 -1.7359  0.0126
  713MOL0     H96251   1.869   9.810   1.812  0.6756 -0.0680 -0.5694
  713MOL0     H96252   2.336  10.350   1.516  1.5433  0.0201 -1.1123
  713MOL0     H96253   2.557  10.392   1.498 -0.1135  1.3246 -1.6276
  713MOL0     H96254   2.666  10.253   1.546 -0.9049 -0.7497  0.9258
  713MOL0     H96255   2.631  10.301   1.374 -1.7095 -1.5459 -0.7233
  714MOL0     O96256   7.953   9.386   5.198 -0.4798  0.0613 -0.1251
  714MOL0     C96257   8.018   9.293   5.163  0.1726  0.8900  1.5669
  714MOL0     O96258   7.962   9.166   5.146 -0.1859  0.1864 -0.0717
  714MOL0     C96259   7.842   9.149   5.199 -0.4274 -0.5711 -0.2129
  714MOL0     C96260   7.830   9.095   5.325  0.5880 -0.1372 -0.0933
  714MOL0     C96261   7.700   9.095   5.383  0.2458  0.5531  0.4356
  714MOL0     C96262   7.591   9.150   5.314  0.7939  0.2911 -0.7074
  714MOL0     O96263   7.462   9.136   5.378  0.3979 -0.0077  0.8402
  714MOL0     C96264   7.345   9.140   5.296  0.2905 -0.4518  1.6544
  714MOL0     C96265   7.234   9.094   5.372  0.1064 -0.7738  0.9915
  714MOL0     C96266   7.247   8.960   5.431 -0.3438 -0.2155  0.2661
  714MOL0     C96267   7.110   8.900   5.469  0.5358 -0.2035  0.3068
  714MOL0     C96268   7.120   8.759   5.538 -0.8094  0.2263 -0.0435
  714MOL0     C96269   6.975   8.736   5.581 -0.3828  1.0926  0.0115
  714MOL0     C96270   6.950   8.598   5.653 -0.1942  0.2606  1.0782
  714MOL0     C96271   6.809   8.545   5.655  0.6672 -0.6422 -0.6966
  714MOL0     N96272   6.718   8.650   5.711 -0.4027  0.3275  0.3673
  714MOL0     C96273   6.714   8.678   5.847  0.8373 -0.4335 -1.1844
  714MOL0     C96274   6.638   8.797   5.855 -1.9732  0.6111  1.0709
  714MOL0     C96275   6.619   8.875   5.980  1.3715  0.1120  0.0197
  714MOL0     C96276   6.741   8.963   6.011  0.2908  0.0970 -0.1356
  714MOL0     C96277   6.721   9.024   6.153 -0.2640  0.3894  0.1081
  714MOL0     C96278   6.850   9.082   6.204  0.2570 -0.6612  0.5516
  714MOL0     O96279   6.962   8.994   6.210 -0.3351 -0.1449  0.6103
  714MOL0     C96280   7.073   9.044   6.265 -0.1435 -0.0021  0.7391
  714MOL0     C96281   7.102   9.183   6.282 -1.0298 -0.1432  0.6535
  714MOL0     C96282   7.226   9.222   6.327 -0.2258 -0.3327  0.4041
  714MOL0     C96283   7.325   9.125   6.360 -0.2662 -0.8770 -0.3294
  714MOL0     C96284   7.452   9.181   6.419  0.4269 -0.1901 -0.1621
  714MOL0     O96285   7.548   9.093   6.454  0.2025 -0.3679 -0.0816
  714MOL0     C96286   7.673   9.132   6.500  0.5684 -0.8896 -0.7496
  714MOL0     C96287   7.785   9.051   6.466  0.6981 -0.2988 -0.6317
  714MOL0     C96288   7.911   9.091   6.511  1.0226 -0.1751  0.0209
  714MOL0     C96289   7.931   9.202   6.579  0.2811  0.4652  0.2141
  714MOL0     O96290   8.061   9.234   6.604  0.0790 -0.3224  0.0513
  714MOL0     C96291   8.090   9.297   6.732  0.2666 -0.3566 -0.1767
  714MOL0     C96292   8.242   9.292   6.749  0.6845  0.5255 -0.4038
  714MOL0     C96293   8.303   9.148   6.754  0.4554 -0.1642  0.1165
  714MOL0     C96294   8.453   9.157   6.767 -0.1460  0.4432 -0.2304
  714MOL0     C96295   8.506   9.010   6.802  0.1652  0.6534 -0.0182
  714MOL0     C96296   8.524   8.928   6.675  0.6380  0.1292 -0.5110
  714MOL0     C96297   8.577   8.789   6.704 -0.7539  0.2479  0.6668
  714MOL0     C96298   8.587   8.710   6.570 -0.2767 -1.0346 -0.5870
  714MOL0    Cl96299   8.717   8.587   6.583  0.0946 -0.3253 -0.5050
  714MOL0     C96300   7.823   9.288   6.614 -0.5674  0.2775  0.1892
  714MOL0     C96301   7.691   9.248   6.578 -0.5116  0.9270 -0.4326
  714MOL0     O96302   7.468   9.304   6.425 -0.3466  0.0446  0.7821
  714MOL0     C96303   7.299   8.991   6.343  0.4141 -0.6724 -0.5803
  714MOL0     C96304   7.169   8.946   6.301  0.1887  0.4232  0.6089
  714MOL0     N96305   6.602   8.829   5.726  0.6973 -0.3437  0.0622
  714MOL0     N96306   6.639   8.732   5.642 -1.3425  0.0567 -1.3217
  714MOL0     C96307   7.604   9.203   5.186  0.6932  0.7996 -0.3962
  714MOL0     C96308   7.731   9.204   5.126  0.1695  0.7942 -0.2094
  714MOL0     C96309   8.155   9.302   5.116 -0.5842  0.1466  0.1652
  714MOL0     C96310   8.195   9.240   5.002 -0.2998  0.2007 -0.2750
  714MOL0     C96311   8.323   9.253   4.956 -0.6225 -0.3081  0.0322
  714MOL0     C96312   8.417   9.328   5.021 -0.1669  0.1374 -0.0996
  714MOL0     O96313   8.536   9.333   4.948 -0.1777  0.7086 -0.3935
  714MOL0     C96314   8.646   9.376   5.022  0.6451  0.5315 -1.0563
  714MOL0     C96315   8.770   9.345   4.941 -0.2155  1.0836  0.1656
  714MOL0     C96316   8.895   9.431   4.964  0.1060 -0.2353 -0.1219
  714MOL0     C96317   9.000   9.413   4.851 -0.2819  0.3061  0.2810
  714MOL0     C96318   9.134   9.453   4.893  0.5446  0.0882  0.3201
  714MOL0     C96319   9.236   9.488   4.949 -0.3694  1.1742  1.1613
  714MOL0     C96320   8.381   9.392   5.141  0.9383 -0.7779  0.3998
  714MOL0     C96321   8.254   9.380   5.186  0.3317 -0.0868 -0.8869
  714MOL0     C96322   8.229   9.450   5.321 -0.1044 -1.5911  0.6864
  714MOL0     H96323   7.916   9.048   5.370  2.2430  2.3158 -0.4767
  714MOL0     H96324   7.696   9.053   5.483 -0.9398 -0.4521 -0.0101
  714MOL0     H96325   7.318   9.237   5.255 -0.5084 -0.2607  2.6110
  714MOL0     H96326   7.369   9.078   5.209  2.2236 -0.0295  1.8338
  714MOL0     H96327   7.147   9.093   5.305  1.0318  1.4923 -0.3550
  714MOL0     H96328   7.215   9.166   5.452 -0.8692 -1.2571  1.2060
  714MOL0     H96329   7.306   8.970   5.523 -1.6099 -0.1107  1.0909
  714MOL0     H96330   7.301   8.885   5.374  2.6649 -0.9296  3.7043
  714MOL0     H96331   7.054   8.961   5.541 -0.2440 -0.7666  0.1779
  714MOL0     H96332   7.056   8.889   5.375 -1.2044 -0.1140  1.2502
  714MOL0     H96333   7.157   8.692   5.460  1.9831  0.4682  0.9647
  714MOL0     H96334   7.184   8.767   5.626 -1.1102  0.5520  0.1475
  714MOL0     H96335   6.940   8.815   5.648 -0.2311  0.5785  0.7076
  714MOL0     H96336   6.927   8.748   5.483  1.0969  2.2525 -0.6241
  714MOL0     H96337   7.008   8.601   5.746 -1.1726  1.3420  1.6766
  714MOL0     H96338   6.998   8.521   5.591 -1.8464  2.8230 -3.9215
  714MOL0     H96339   6.772   8.527   5.554  0.2543  1.0781 -0.8820
  714MOL0     H96340   6.806   8.455   5.718 -0.5849 -0.1228  0.0230
  714MOL0     H96341   6.760   8.623   5.928 -0.4559  1.0684  0.6417
  714MOL0     H96342   6.536   8.944   5.959  1.2851  0.2576  0.8280
  714MOL0     H96343   6.586   8.813   6.063 -0.2374  2.1745  1.0110
  714MOL0     H96344   6.833   8.904   6.001 -1.0695 -1.8561 -2.2011
  714MOL0     H96345   6.747   9.047   5.940  0.2425  0.7214  0.5905
  714MOL0     H96346   6.676   8.958   6.227 -0.4229  0.6644  0.2577
  714MOL0     H96347   6.645   9.103   6.149  1.4623  2.0669 -0.5786
  714MOL0     H96348   6.841   9.139   6.297 -0.9084  1.0532 -0.5441
  714MOL0     H96349   6.866   9.164   6.133  0.6696 -1.0363  0.2012
  714MOL0     H96350   7.021   9.251   6.257  0.6687  1.2358 -1.3585
  714MOL0     H96351   7.226   9.319   6.375 -3.1689 -0.8363  1.6696
  714MOL0     H96352   7.762   8.961   6.409  1.6330 -0.9537 -0.0050
  714MOL0     H96353   7.985   9.025   6.465  2.1032  1.2583 -0.3601
  714MOL0     H96354   8.045   9.397   6.738  0.4604 -0.2964  0.4108
  714MOL0     H96355   8.040   9.238   6.809 -2.1254 -2.3469 -3.0465
  714MOL0     H96356   8.279   9.330   6.653 -3.0086  1.7380 -1.5423
  714MOL0     H96357   8.276   9.356   6.831  2.9081 -0.0267 -0.8360
  714MOL0     H96358   8.263   9.089   6.836 -4.2524  0.5246 -1.3881
  714MOL0     H96359   8.282   9.083   6.669  0.3800 -1.5667  1.1830
  714MOL0     H96360   8.481   9.215   6.856  4.1860 -3.4699  1.3780
  714MOL0     H96361   8.497   9.201   6.677 -0.3570  2.1426  0.4482
  714MOL0     H96362   8.427   8.965   6.863  0.5021 -0.9017 -0.6876
  714MOL0     H96363   8.592   9.019   6.869 -0.1029 -0.6989  0.5420
  714MOL0     H96364   8.427   8.927   6.624 -0.4491  0.8988  1.4271
  714MOL0     H96365   8.589   8.991   6.614 -0.2004 -0.3908 -2.0056
  714MOL0     H96366   8.520   8.734   6.779 -2.4024 -0.9060 -1.3053
  714MOL0     H96367   8.679   8.797   6.742  0.2165  1.0326 -1.8401
  714MOL0     H96368   8.491   8.659   6.563 -2.0095  0.6722  5.0073
  714MOL0     H96369   8.599   8.782   6.488 -1.0386  0.3217  0.4315
  714MOL0     H96370   7.841   9.375   6.677  0.3135  0.5694 -0.4439
  714MOL0     H96371   7.605   9.310   6.603 -1.7714 -1.3782  1.3246
  714MOL0     H96372   7.377   8.917   6.357  1.9580  1.1708  1.1712
  714MOL0     H96373   7.149   8.840   6.289  3.4352 -0.2856  0.5577
  714MOL0     H96374   7.517   9.233   5.128 -0.6717 -1.3289  0.4141
  714MOL0     H96375   7.750   9.264   5.038 -2.5882 -1.9322 -2.9055
  714MOL0     H96376   8.123   9.183   4.944 -0.3977  1.5959 -1.5956
  714MOL0     H96377   8.354   9.210   4.862 -1.0558 -0.2889 -0.1172
  714MOL0     H96378   8.669   9.325   5.116  0.9048 -0.9995 -1.9122
  714MOL0     H96379   8.641   9.484   5.038  1.0203  0.5320 -0.9099
  714MOL0     H96380   8.743   9.360   4.836  1.9605 -0.1520 -0.6444
  714MOL0     H96381   8.799   9.240   4.950 -1.9850  0.6293  0.9059
  714MOL0     H96382   8.937   9.408   5.062 -0.4927  3.3031  1.0900
  714MOL0     H96383   8.880   9.539   4.970 -2.9578 -0.4217 -2.0508
  714MOL0     H96384   8.994   9.314   4.805 -1.8817  2.4702 -4.8531
  714MOL0     H96385   8.979   9.481   4.768  0.7118 -0.7219 -0.8447
  714MOL0     H96386   9.329   9.498   5.001 -0.2037  0.3846  1.0234
  714MOL0     H96387   8.455   9.449   5.196  2.9414 -1.9210 -0.9734
  714MOL0     H96388   8.135   9.505   5.310  0.2715 -0.9362  0.6610
  714MOL0     H96389   8.223   9.385   5.408  1.0247 -0.3504  1.7194
  714MOL0     H96390   8.304   9.527   5.341 -1.3110 -0.2279  0.1679
  715MOL0     O96391   8.141   1.417   2.260  0.7849  0.0158 -0.1783
  715MOL0     C96392   8.235   1.443   2.337  0.0567  0.2924  0.2925
  715MOL0     O96393   8.367   1.420   2.305 -0.0018  0.4360 -0.2192
  715MOL0     C96394   8.423   1.361   2.193  0.8440  0.1776  0.2557
  715MOL0     C96395   8.554   1.382   2.149  0.5176  0.1025 -0.8984
  715MOL0     C96396   8.609   1.325   2.031  0.1485  0.1736 -0.8863
  715MOL0     C96397   8.525   1.256   1.944 -0.0111  0.5288  0.6549
  715MOL0     O96398   8.583   1.201   1.830  0.1306 -0.3467  0.9482
  715MOL0     C96399   8.496   1.172   1.722 -0.3645 -0.7414  0.2973
  715MOL0     C96400   8.428   1.298   1.662  0.4854 -0.2230 -0.3416
  715MOL0     C96401   8.303   1.268   1.560 -0.3103  0.4578  0.5346
  715MOL0     C96402   8.211   1.391   1.521 -1.0065  1.4065  0.3513
  715MOL0     C96403   8.083   1.343   1.442 -0.4216 -0.2724  0.0747
  715MOL0     C96404   8.127   1.296   1.303 -0.0521 -0.0618 -0.2502
  715MOL0     C96405   8.011   1.277   1.207  0.3470  0.2253 -0.0250
  715MOL0     C96406   7.907   1.181   1.254 -0.1163  1.0131 -0.3340
  715MOL0     N96407   7.942   1.047   1.212 -0.2096 -0.9408  0.0172
  715MOL0     C96408   7.998   0.946   1.297  0.9866 -0.3117 -0.4859
  715MOL0     C96409   8.016   0.846   1.212 -0.3295  0.6711 -0.3955
  715MOL0     C96410   8.043   0.708   1.253  0.7661  0.5847  0.6215
  715MOL0     C96411   7.912   0.616   1.253 -0.6110  0.4524 -0.2573
  715MOL0     C96412   7.837   0.594   1.123 -0.1021 -0.4748  0.3417
  715MOL0     C96413   7.932   0.560   1.018  0.2890  0.4879 -0.7819
  715MOL0     O96414   7.992   0.433   1.057  0.0691 -0.2356  0.4471
  715MOL0     C96415   8.106   0.394   0.990 -0.7711 -0.3940 -0.1244
  715MOL0     C96416   8.209   0.311   1.048  0.2034  0.3387  0.7700
  715MOL0     C96417   8.315   0.266   0.967 -0.4977 -0.0999 -0.1169
  715MOL0     C96418   8.331   0.316   0.839  0.1347 -0.6220 -0.3763
  715MOL0     C96419   8.445   0.266   0.753  0.4140  0.0798 -1.1254
  715MOL0     O96420   8.552   0.215   0.816 -0.7632  0.2066 -0.1204
  715MOL0     C96421   8.650   0.152   0.738 -0.7236 -0.4328 -0.0442
  715MOL0     C96422   8.631   0.022   0.690 -0.4058 -0.6425  0.2123
  715MOL0     C96423   8.721  -0.035   0.598 -0.6163  0.3222  1.0196
  715MOL0     C96424   8.842   0.034   0.559  0.0135  0.0717  0.7693
  715MOL0     O96425   8.921  -0.025   0.462  0.4744  0.6195  0.8599
  715MOL0     C96426   9.060   0.007   0.463 -0.0775  0.0489  0.1232
  715MOL0     C96427   9.148  -0.049   0.341 -0.2568 -0.3074 -1.3367
  715MOL0     C96428   9.082  -0.022   0.206  0.5692 -0.7307 -0.5892
  715MOL0     C96429   9.185  -0.013   0.093  0.2262  0.7924 -0.8125
  715MOL0     C96430   9.208  -0.147   0.007  0.4483  0.3311  0.4559
  715MOL0     C96431   9.097  -0.198  -0.075  0.1781 -0.3163 -0.6687
  715MOL0     C96432   9.009  -0.089  -0.132 -0.5794  0.4764  0.3013
  715MOL0     C96433   8.932  -0.148  -0.254  0.7045 -0.2078 -0.4157
  715MOL0    Cl96434   9.031  -0.227  -0.376  0.2922 -0.2395  0.0824
  715MOL0     C96435   8.868   0.152   0.622  0.5727  0.1399  0.0943
  715MOL0     C96436   8.776   0.214   0.700  0.3584 -0.5446  0.2074
  715MOL0     O96437   8.431   0.269   0.633  0.4959 -0.9310 -0.0178
  715MOL0     C96438   8.243   0.406   0.786 -0.0483 -0.6198 -0.4141
  715MOL0     C96439   8.125   0.440   0.861 -0.7535 -1.0120  0.6658
  715MOL0     N96440   7.981   0.878   1.084 -0.6609  0.2937 -0.2716
  715MOL0     N96441   7.936   1.004   1.079 -0.1290 -0.3979  0.3079
  715MOL0     C96442   8.399   1.231   1.994  1.0539 -0.0870  0.4361
  715MOL0     C96443   8.349   1.279   2.111  0.4681  0.3529 -0.2225
  715MOL0     C96444   8.195   1.491   2.470  0.5068  0.2274 -0.0803
  715MOL0     C96445   8.289   1.483   2.568 -0.4473  0.3510  0.1539
  715MOL0     C96446   8.270   1.534   2.700  0.4007 -0.5685 -0.1451
  715MOL0     C96447   8.145   1.589   2.734 -0.7477  0.3276 -0.2641
  715MOL0     O96448   8.134   1.637   2.855 -0.5649  0.2745  0.7667
  715MOL0     C96449   8.028   1.723   2.878 -0.2771 -0.5315  0.0333
  715MOL0     C96450   8.054   1.856   2.817  0.4010  0.0129  0.2222
  715MOL0     C96451   7.952   1.974   2.862 -0.1345  0.1934  0.0446
  715MOL0     C96452   7.987   2.036   2.993  0.7205 -0.1656 -0.5982
  715MOL0     C96453   7.885   2.144   3.018 -0.4843 -0.0163 -1.0259
  715MOL0     C96454   7.811   2.241   3.027  0.0174 -0.1259  0.7156
  715MOL0     C96455   8.045   1.604   2.632  0.2960  0.6430  0.9162
  715MOL0     C96456   8.066   1.541   2.508 -0.7673 -0.7957 -0.0337
  715MOL0     C96457   7.962   1.562   2.409  1.2350 -0.8341  0.7658
  715MOL0     H96458   8.625   1.432   2.213 -0.0933 -0.1417  0.0031
  715MOL0     H96459   8.713   1.323   1.999  1.0457 -2.2886  1.7979
  715MOL0     H96460   8.553   1.129   1.639 -0.3520  0.8617 -0.5691
  715MOL0     H96461   8.418   1.103   1.753 -0.5096 -1.2129 -1.0398
  715MOL0     H96462   8.508   1.351   1.608  0.2884  1.9216  1.3053
  715MOL0     H96463   8.382   1.362   1.738 -1.0139 -0.2930 -1.1638
  715MOL0     H96464   8.243   1.191   1.610  1.5642 -3.3323 -2.4868
  715MOL0     H96465   8.349   1.235   1.466  1.3596  0.9746  1.1352
  715MOL0     H96466   8.186   1.439   1.616  1.6701  2.7002  0.4972
  715MOL0     H96467   8.258   1.471   1.463  0.2729  0.9273  0.6827
  715MOL0     H96468   8.032   1.257   1.486  0.3394 -0.8484 -0.1454
  715MOL0     H96469   8.012   1.424   1.422  0.0776 -0.3576 -2.3722
  715MOL0     H96470   8.184   1.376   1.255  2.9083 -0.3027  2.5688
  715MOL0     H96471   8.186   1.206   1.320  2.1401  1.1581 -1.0320
  715MOL0     H96472   8.033   1.249   1.104 -3.4835  1.1978 -1.3042
  715MOL0     H96473   7.963   1.375   1.192 -1.3092 -0.9659 -3.5399
  715MOL0     H96474   7.903   1.178   1.363  3.9721 -2.8351  0.0262
  715MOL0     H96475   7.810   1.190   1.205 -1.2013 -3.4968  0.4838
  715MOL0     H96476   7.997   0.947   1.406 -1.6150  0.6075 -0.4479
  715MOL0     H96477   8.127   0.665   1.197  0.7687 -0.5904  1.4936
  715MOL0     H96478   8.067   0.718   1.359 -2.2625 -0.5862  1.5059
  715MOL0     H96479   7.956   0.520   1.282  1.6934  0.8816 -2.0171
  715MOL0     H96480   7.836   0.651   1.324 -0.2033  0.2763  0.2784
  715MOL0     H96481   7.779   0.680   1.088  0.6198 -1.3070 -3.2221
  715MOL0     H96482   7.766   0.512   1.132  0.2767 -1.2306 -2.5295
  715MOL0     H96483   8.007   0.637   0.997  5.2570 -3.7792 -0.4071
  715MOL0     H96484   7.865   0.544   0.933  1.8874 -4.5563 -1.4005
  715MOL0     H96485   8.197   0.279   1.151 -1.8185 -0.5621  0.2986
  715MOL0     H96486   8.384   0.191   1.004 -0.5967 -1.1973 -2.0318
  715MOL0     H96487   8.534  -0.014   0.721 -0.4070  0.7686  2.0772
  715MOL0     H96488   8.708  -0.136   0.559  3.1929 -0.2342  0.7981
  715MOL0     H96489   9.076   0.115   0.452  2.6515 -0.4939 -2.6133
  715MOL0     H96490   9.107  -0.021   0.557  2.9372  0.9470 -1.0007
  715MOL0     H96491   9.248  -0.007   0.349 -0.8419  1.1592 -1.4892
  715MOL0     H96492   9.164  -0.154   0.367 -0.7866  0.3777  2.2344
  715MOL0     H96493   8.990  -0.078   0.187 -1.2034  1.1406  1.8041
  715MOL0     H96494   9.059   0.085   0.217 -0.3173 -0.8770 -0.9432
  715MOL0     H96495   9.275   0.020   0.146  0.4675 -1.3206  0.2132
  715MOL0     H96496   9.167   0.072   0.026 -0.9472  1.7957  0.7076
  715MOL0     H96497   9.244  -0.222   0.077 -1.6862  2.0678  3.6520
  715MOL0     H96498   9.287  -0.121  -0.064 -0.6267 -2.0328 -1.7678
  715MOL0     H96499   9.149  -0.243  -0.160  1.3205  0.5447 -0.4485
  715MOL0     H96500   9.032  -0.270  -0.025 -1.2098  0.0265 -1.9033
  715MOL0     H96501   9.076  -0.016  -0.178  0.4810  0.2931  1.5074
  715MOL0     H96502   8.939  -0.047  -0.060 -2.5530 -3.1451  0.7215
  715MOL0     H96503   8.847  -0.202  -0.209 -1.3298  1.8315 -1.5986
  715MOL0     H96504   8.900  -0.055  -0.301  1.7325  1.9320  2.7905
  715MOL0     H96505   8.957   0.210   0.600 -0.1663  0.1726 -3.2878
  715MOL0     H96506   8.799   0.317   0.727  1.3274 -0.2566 -1.5634
  715MOL0     H96507   8.259   0.444   0.686  1.1437  0.8103  0.2767
  715MOL0     H96508   8.065   0.505   0.800  1.1419  0.5994  0.4043
  715MOL0     H96509   8.342   1.166   1.928  0.8933 -0.3593  0.8360
  715MOL0     H96510   8.248   1.261   2.148  1.2808  0.8299  2.3883
  715MOL0     H96511   8.385   1.441   2.541 -1.0355 -0.9568  0.0142
  715MOL0     H96512   8.352   1.532   2.772  0.5393 -3.4942 -0.2707
  715MOL0     H96513   8.025   1.744   2.985 -2.6002  2.2341 -0.4502
  715MOL0     H96514   7.932   1.679   2.847  0.6633 -1.4740 -1.6907
  715MOL0     H96515   8.042   1.842   2.709 -2.4837 -1.9480  0.6960
  715MOL0     H96516   8.158   1.882   2.836  0.1596  0.8230  0.5260
  715MOL0     H96517   7.845   1.955   2.862 -0.8389  3.5413 -0.1496
  715MOL0     H96518   7.972   2.044   2.780  1.3309 -0.9214 -0.6070
  715MOL0     H96519   7.971   1.959   3.069 -0.3886 -0.1798 -0.8277
  715MOL0     H96520   8.091   2.071   3.001  0.9882 -0.5927 -2.0211
  715MOL0     H96521   7.733   2.314   3.021  0.7370  0.5606 -1.2347
  715MOL0     H96522   7.948   1.650   2.644 -2.0923 -2.9418 -2.1033
  715MOL0     H96523   7.914   1.467   2.384 -0.6173  0.3170 -0.2457
  715MOL0     H96524   7.890   1.639   2.438  2.4620  2.3245 -3.5346
  715MOL0     H96525   8.009   1.605   2.320  0.6838 -0.9671  0.4088
  716MOL0     O96526   5.854   2.774   2.073  0.7282 -0.1608 -0.1316
  716MOL0     C96527   5.855   2.829   2.187 -1.0276 -0.6912  0.1322
  716MOL0     O96528   5.899   2.777   2.294  0.2519  0.6099 -0.2485
  716MOL0     C96529   5.943   2.645   2.289 -0.4389  0.4482 -0.0303
  716MOL0     C96530   6.043   2.599   2.200 -0.7827  0.1778 -0.3940
  716MOL0     C96531   6.095   2.465   2.214 -0.7569 -1.0179 -0.9813
  716MOL0     C96532   6.051   2.377   2.312  0.0612 -0.4864  0.0509
  716MOL0     O96533   6.081   2.247   2.313  0.7179  0.8250  0.6180
  716MOL0     C96534   6.009   2.166   2.410 -0.3286 -0.3508 -0.3829
  716MOL0     C96535   6.051   2.009   2.408  0.2800  0.7181  0.3599
  716MOL0     C96536   5.946   1.925   2.491 -0.0971  0.0231 -1.0888
  716MOL0     C96537   5.945   1.946   2.640 -0.0171  0.5686 -0.1308
  716MOL0     C96538   5.868   1.821   2.708  0.5796  0.5790  1.0934
  716MOL0     C96539   5.961   1.714   2.742  0.5091  0.1087 -0.3162
  716MOL0     C96540   5.899   1.594   2.803  1.1018  0.3838 -1.1033
  716MOL0     C96541   5.988   1.466   2.799  0.7313 -0.6182 -0.3764
  716MOL0     N96542   5.998   1.408   2.663  0.3364  0.2111  0.7843
  716MOL0     C96543   6.080   1.303   2.613  0.9871 -0.0204 -0.0560
  716MOL0     C96544   6.015   1.262   2.501  0.4721 -0.8460  0.6215
  716MOL0     C96545   6.061   1.150   2.418 -0.7685  0.1763  0.5170
  716MOL0     C96546   6.143   1.199   2.285  0.2949 -0.1619 -0.4221
  716MOL0     C96547   6.053   1.271   2.188  0.8512 -0.8257  0.7883
  716MOL0     C96548   6.130   1.366   2.095  0.0949  0.2475  0.4572
  716MOL0     O96549   6.218   1.287   2.010  0.6230  0.4989  0.8635
  716MOL0     C96550   6.165   1.216   1.899  0.4965  0.4408  0.4969
  716MOL0     C96551   6.250   1.153   1.805 -1.2373  0.4446  0.0302
  716MOL0     C96552   6.215   1.062   1.701 -0.5765  0.8327 -1.1992
  716MOL0     C96553   6.077   1.040   1.683 -0.5582  0.5657  0.4949
  716MOL0     C96554   6.029   0.947   1.578 -0.2826  0.3126 -0.2701
  716MOL0     O96555   6.118   0.873   1.515  0.3077  0.4248 -0.5585
  716MOL0     C96556   6.100   0.756   1.449  0.7776  0.2647 -0.8672
  716MOL0     C96557   5.978   0.705   1.415  0.0212 -0.5788 -0.0797
  716MOL0     C96558   5.958   0.593   1.333 -0.3381 -0.1297 -0.1736
  716MOL0     C96559   6.072   0.522   1.289  0.5919 -0.9685  0.0957
  716MOL0     O96560   6.078   0.416   1.199 -0.3194  0.0226 -0.1256
  716MOL0     C96561   5.958   0.348   1.156 -0.1945  0.4010  0.0240
  716MOL0     C96562   5.888   0.419   1.039  0.0585  0.2818 -0.2465
  716MOL0     C96563   5.786   0.329   1.003  0.5231  0.1323  0.1724
  716MOL0     C96564   5.700   0.402   0.902  1.4831  0.2544 -0.2287
  716MOL0     C96565   5.754   0.426   0.764  0.3472  0.2342 -0.1915
  716MOL0     C96566   5.817   0.303   0.707  0.0499  0.8458 -0.5281
  716MOL0     C96567   5.817   0.298   0.548  0.3176  0.9284  1.2140
  716MOL0     C96568   5.946   0.355   0.488 -0.2161 -0.5649 -0.6988
  716MOL0    Cl96569   5.965   0.539   0.509  0.3971 -0.1912 -0.1088
  716MOL0     C96570   6.197   0.566   1.327  0.8442 -0.8557 -0.1679
  716MOL0     C96571   6.215   0.688   1.398  0.5763 -0.2438  0.8920
  716MOL0     O96572   5.908   0.925   1.579  1.0101 -0.4068  0.8213
  716MOL0     C96573   5.987   1.107   1.765  0.1217 -0.1217  0.4887
  716MOL0     C96574   6.030   1.187   1.873 -0.9526 -0.7341 -0.3150
  716MOL0     N96575   5.897   1.333   2.484  0.9155 -0.5088 -0.9170
  716MOL0     N96576   5.883   1.418   2.587  0.3810 -0.2565 -0.6967
  716MOL0     C96577   5.952   2.437   2.406 -0.3469  0.1209 -0.0835
  716MOL0     C96578   5.902   2.563   2.391  0.0308  0.1743 -0.0987
  716MOL0     C96579   5.756   2.943   2.199 -1.3903 -0.0719  0.8351
  716MOL0     C96580   5.678   2.951   2.311 -0.3193  0.6904  1.2729
  716MOL0     C96581   5.575   3.047   2.307 -0.4853 -0.0316 -0.2687
  716MOL0     C96582   5.552   3.133   2.199 -0.5879 -0.1487  0.4740
  716MOL0     O96583   5.448   3.222   2.190 -0.3057  0.2513  0.2800
  716MOL0     C96584   5.363   3.238   2.308 -0.0543  0.9636 -0.1760
  716MOL0     C96585   5.441   3.322   2.399 -0.6195  0.2614  0.1057
  716MOL0     C96586   5.446   3.467   2.347  0.0943  0.3538  0.2561
  716MOL0     C96587   5.473   3.554   2.465 -0.0658 -0.8093 -0.6497
  716MOL0     C96588   5.526   3.683   2.414 -0.4800  0.7331 -0.4802
  716MOL0     C96589   5.586   3.785   2.389  0.8195 -0.3825 -0.2275
  716MOL0     C96590   5.639   3.121   2.093  0.5217 -1.2167  0.5362
  716MOL0     C96591   5.748   3.039   2.090 -0.4385  0.2386 -0.8239
  716MOL0     C96592   5.836   3.046   1.966  0.5869  0.0139 -0.1822
  716MOL0     H96593   6.092   2.665   2.130  0.3089  1.1507  1.2031
  716MOL0     H96594   6.170   2.423   2.149 -1.8798  0.1563 -3.1535
  716MOL0     H96595   6.030   2.205   2.510  1.5096 -0.7174 -0.5789
  716MOL0     H96596   5.900   2.171   2.405 -0.2929  0.3185 -0.5852
  716MOL0     H96597   6.143   1.997   2.465 -0.8742 -0.7756  2.0102
  716MOL0     H96598   6.060   1.971   2.306 -1.0368  1.2693  0.0137
  716MOL0     H96599   5.955   1.818   2.468 -0.6203 -0.1009 -0.7258
  716MOL0     H96600   5.850   1.959   2.453 -0.4843  1.1243  0.7695
  716MOL0     H96601   6.048   1.948   2.678 -0.3008 -2.2031  1.0419
  716MOL0     H96602   5.869   2.023   2.656 -0.3339  0.2649 -0.1727
  716MOL0     H96603   5.834   1.868   2.801  1.4064 -1.5255  2.5284
  716MOL0     H96604   5.778   1.793   2.654  0.3600  1.0013  1.2313
  716MOL0     H96605   5.999   1.677   2.645 -3.3183  1.8297 -2.6930
  716MOL0     H96606   6.036   1.757   2.809 -1.4267  2.4546  0.4373
  716MOL0     H96607   5.804   1.570   2.754  1.2813  0.5111 -1.5231
  716MOL0     H96608   5.882   1.626   2.906  1.6623 -0.9978 -0.5593
  716MOL0     H96609   6.093   1.489   2.819  0.3369  0.7978  0.1970
  716MOL0     H96610   5.949   1.396   2.873 -1.2301  1.7468  0.9743
  716MOL0     H96611   6.175   1.274   2.656  0.7856 -2.7746 -1.2891
  716MOL0     H96612   6.137   1.099   2.478 -0.5734  0.7123  0.7375
  716MOL0     H96613   5.972   1.093   2.392  1.0114 -4.6853  3.7422
  716MOL0     H96614   6.224   1.265   2.317 -1.1374  0.9705  1.0565
  716MOL0     H96615   6.188   1.110   2.240  1.5846  1.1452 -1.8440
  716MOL0     H96616   5.987   1.333   2.249  1.3917  0.2330  0.3101
  716MOL0     H96617   5.992   1.200   2.131 -0.2038 -1.8425  3.0515
  716MOL0     H96618   6.194   1.440   2.145  2.6314 -0.3301 -1.6747
  716MOL0     H96619   6.067   1.430   2.032  1.0726  0.4187 -0.3876
  716MOL0     H96620   6.351   1.168   1.842 -1.9579  1.8112  1.5498
  716MOL0     H96621   6.297   1.014   1.649  1.8733  2.1399  1.1845
  716MOL0     H96622   5.887   0.752   1.452  0.0391  1.2398 -2.1165
  716MOL0     H96623   5.861   0.564   1.296  0.0802 -2.8117  0.6367
  716MOL0     H96624   5.985   0.247   1.125  1.0470  1.4086 -2.4707
  716MOL0     H96625   5.899   0.343   1.248 -1.0284 -0.4576 -0.5411
  716MOL0     H96626   5.836   0.508   1.077 -1.0659  0.5414 -2.2979
  716MOL0     H96627   5.957   0.441   0.958  1.0613 -2.7196 -0.3218
  716MOL0     H96628   5.823   0.233   0.966 -0.8226 -1.1392  1.9491
  716MOL0     H96629   5.722   0.314   1.090  1.4878  3.0487  1.5238
  716MOL0     H96630   5.663   0.498   0.940 -0.2130 -1.2199  2.0972
  716MOL0     H96631   5.621   0.329   0.886  1.5784  0.4730 -1.9275
  716MOL0     H96632   5.830   0.503   0.780 -0.7612  1.6017 -1.2530
  716MOL0     H96633   5.677   0.475   0.704 -2.9820 -2.3847  1.6011
  716MOL0     H96634   5.919   0.287   0.745  0.8425  0.4909 -2.6469
  716MOL0     H96635   5.778   0.212   0.754  1.1233  0.9760  0.6850
  716MOL0     H96636   5.741   0.354   0.494  1.4342  6.0869  4.3121
  716MOL0     H96637   5.795   0.197   0.514 -0.2090  1.3802  0.1707
  716MOL0     H96638   6.031   0.304   0.533  1.1431  1.4983 -0.7597
  716MOL0     H96639   5.951   0.326   0.383  0.8644  0.4969 -0.9675
  716MOL0     H96640   6.289   0.519   1.294  2.6006  1.5730  0.9944
  716MOL0     H96641   6.312   0.729   1.423  0.5183  1.1082 -0.8797
  716MOL0     H96642   5.879   1.094   1.773  0.1390 -0.3204  7.9303
  716MOL0     H96643   5.956   1.232   1.939  0.4350  2.1792 -0.6101
  716MOL0     H96644   5.921   2.377   2.491 -0.7596  0.8972  0.3230
  716MOL0     H96645   5.844   2.607   2.471 -0.2914 -0.1987 -0.1241
  716MOL0     H96646   5.689   2.871   2.382 -2.8209 -0.9895 -0.0674
  716MOL0     H96647   5.518   3.048   2.400 -2.6631 -2.0958 -1.4598
  716MOL0     H96648   5.333   3.144   2.356  2.2842  0.2222 -0.0088
  716MOL0     H96649   5.266   3.280   2.284 -0.2025  1.9552  1.9143
  716MOL0     H96650   5.534   3.270   2.426 -0.0136  2.0346  1.7138
  716MOL0     H96651   5.395   3.323   2.498 -1.6079 -0.7647 -0.3264
  716MOL0     H96652   5.350   3.496   2.302 -0.5754 -0.8459  0.8569
  716MOL0     H96653   5.522   3.474   2.269 -1.3167 -1.3215 -1.3470
  716MOL0     H96654   5.387   3.568   2.531  1.5109 -2.3469  1.9464
  716MOL0     H96655   5.554   3.523   2.532 -0.1358 -0.8955 -0.6044
  716MOL0     H96656   5.654   3.867   2.381  1.2913 -0.5376  1.7079
  716MOL0     H96657   5.629   3.189   2.009  2.0658  2.1375  2.8939
  716MOL0     H96658   5.833   3.147   1.926 -2.2603  0.1852  0.2676
  716MOL0     H96659   5.938   3.015   1.992 -0.1603 -1.6214  0.9507
  716MOL0     H96660   5.791   2.986   1.886 -2.5798  1.8686  0.0487
  717MOL0     O96661   0.284   6.938   2.757  0.2348  0.6560 -0.2896
  717MOL0     C96662   0.331   7.049   2.750  0.5596 -0.0940  0.4605
  717MOL0     O96663   0.306   7.152   2.837 -0.0561 -0.1606 -0.1588
  717MOL0     C96664   0.230   7.128   2.949  0.4407  0.4991  0.4278
  717MOL0     C96665   0.160   7.234   2.994  0.3243  1.4072 -1.1828
  717MOL0     C96666   0.097   7.240   3.125  0.3621 -0.7310 -0.1332
  717MOL0     C96667   0.115   7.132   3.215 -0.2973  0.8258  0.7763
  717MOL0     O96668   0.062   7.104   3.344 -0.7185  0.5019  0.7615
  717MOL0     C96669   0.004   7.218   3.416 -0.1591 -0.2103  0.3069
  717MOL0     C96670  -0.028   7.183   3.558  0.1712  0.4090  1.6728
  717MOL0     C96671  -0.123   7.057   3.554 -0.3297 -0.8648 -0.1650
  717MOL0     C96672  -0.190   7.050   3.694 -0.4715  0.2855 -0.5148
  717MOL0     C96673  -0.332   6.973   3.698 -0.2473 -0.7332 -1.1028
  717MOL0     C96674  -0.324   6.815   3.659  0.1677  0.1240 -0.8843
  717MOL0     C96675  -0.457   6.746   3.657 -0.2202 -0.3504  1.3468
  717MOL0     C96676  -0.552   6.805   3.552  0.5015  0.8037 -0.0475
  717MOL0     N96677  -0.508   6.799   3.408  1.6578 -0.4486 -0.5986
  717MOL0     C96678  -0.518   6.686   3.324 -1.1658  0.2113 -1.1266
  717MOL0     C96679  -0.444   6.722   3.227  0.5364 -0.6079  0.7066
  717MOL0     C96680  -0.387   6.656   3.108  0.4033  0.2966  1.0385
  717MOL0     C96681  -0.396   6.726   2.973 -0.3661 -0.8522  0.3440
  717MOL0     C96682  -0.549   6.780   2.968 -0.3857 -0.3156 -0.1954
  717MOL0     C96683  -0.593   6.809   2.817  0.7285 -0.2242  0.2494
  717MOL0     O96684  -0.729   6.836   2.826  0.0897 -0.5079  0.2536
  717MOL0     C96685  -0.804   6.865   2.716 -0.4916 -0.1019 -0.9181
  717MOL0     C96686  -0.766   6.850   2.585  0.6203 -0.0959  0.0318
  717MOL0     C96687  -0.865   6.869   2.484 -0.9858  0.5311 -1.0544
  717MOL0     C96688  -0.997   6.917   2.507  0.0527  0.4242 -0.1010
  717MOL0     C96689  -1.092   6.950   2.390 -0.0601 -0.2403 -1.1495
  717MOL0     O96690  -1.224   6.940   2.421  0.0953 -0.2849 -0.1580
  717MOL0     C96691  -1.295   6.948   2.307 -0.1933  0.2023 -0.8994
  717MOL0     C96692  -1.337   6.828   2.257 -0.1036  0.0568 -0.4526
  717MOL0     C96693  -1.400   6.817   2.136 -0.3070 -1.5766  0.7750
  717MOL0     C96694  -1.441   6.938   2.066 -1.0585 -0.2189 -0.4075
  717MOL0     O96695  -1.517   6.916   1.960  0.2563 -0.5427  0.1198
  717MOL0     C96696  -1.513   7.019   1.859  0.0965  0.0588  0.3506
  717MOL0     C96697  -1.606   6.974   1.742 -0.8336  0.0996 -0.3762
  717MOL0     C96698  -1.749   7.023   1.760  0.4416  0.2091  0.2118
  717MOL0     C96699  -1.741   7.179   1.758  0.3239 -0.4748 -0.8367
  717MOL0     C96700  -1.875   7.245   1.750 -0.9638  1.2013 -0.1955
  717MOL0     C96701  -1.962   7.216   1.873  0.8692  0.4134 -0.4720
  717MOL0     C96702  -2.080   7.303   1.854  0.1512  0.6197  0.2417
  717MOL0     C96703  -2.181   7.307   1.962 -0.0960  0.0006  0.3258
  717MOL0    Cl96704  -2.265   7.144   1.979 -0.6415 -0.1664  0.2600
  717MOL0     C96705  -1.400   7.068   2.128  0.6865  0.1163  0.2501
  717MOL0     C96706  -1.325   7.066   2.247 -1.0108 -0.6217  0.1245
  717MOL0     O96707  -1.045   6.995   2.285 -0.2222 -0.4911 -0.0958
  717MOL0     C96708  -1.037   6.929   2.644 -0.5040 -0.1151  0.0028
  717MOL0     C96709  -0.933   6.897   2.742 -0.1256  0.3945  0.4878
  717MOL0     N96710  -0.375   6.837   3.254 -0.1727  0.7047  0.4588
  717MOL0     N96711  -0.415   6.880   3.359  0.2919 -0.2219  0.0654
  717MOL0     C96712   0.191   7.025   3.165  0.1607 -0.2379 -0.8577
  717MOL0     C96713   0.254   7.028   3.037  0.1883  0.6881  0.2191
  717MOL0     C96714   0.400   7.084   2.623 -0.5336  0.3190 -0.6971
  717MOL0     C96715   0.390   6.987   2.522  0.6040  0.7455  0.1409
  717MOL0     C96716   0.455   7.021   2.398 -0.5907  0.6937 -0.2935
  717MOL0     C96717   0.523   7.137   2.376  1.4565 -0.1796  0.1131
  717MOL0     O96718   0.575   7.151   2.256  0.0126  0.0544  0.1819
  717MOL0     C96719   0.568   7.291   2.217 -0.7013  0.4519  0.0507
  717MOL0     C96720   0.549   7.305   2.063  1.0793 -0.2765 -0.0102
  717MOL0     C96721   0.672   7.279   1.978  0.0358  0.5896  0.4343
  717MOL0     C96722   0.770   7.396   1.979  0.0772  0.2220  0.0048
  717MOL0     C96723   0.707   7.516   1.921  0.2090 -0.4484 -0.0546
  717MOL0     C96724   0.665   7.622   1.884  0.1910  0.5843 -0.2507
  717MOL0     C96725   0.537   7.228   2.486 -0.9028 -0.2228 -0.6641
  717MOL0     C96726   0.484   7.196   2.607 -0.0098 -0.6010 -1.1589
  717MOL0     C96727   0.525   7.279   2.731  0.5191 -0.9087  0.3240
  717MOL0     H96728   0.149   7.323   2.933 -1.2469  1.8005 -0.3839
  717MOL0     H96729   0.071   7.336   3.169  1.2506 -0.4990 -0.0811
  717MOL0     H96730   0.074   7.302   3.417  0.0769 -0.4029  0.2924
  717MOL0     H96731  -0.078   7.264   3.361  0.2196 -1.9229 -1.8151
  717MOL0     H96732  -0.074   7.268   3.608 -1.4903  0.5285  0.0687
  717MOL0     H96733   0.059   7.159   3.619  0.0717 -1.8414  1.0340
  717MOL0     H96734  -0.069   6.968   3.519  3.0867  0.9078  0.1792
  717MOL0     H96735  -0.208   7.079   3.489  0.8951  0.7235 -1.3309
  717MOL0     H96736  -0.117   7.019   3.770 -0.0911 -0.8335 -1.3087
  717MOL0     H96737  -0.210   7.151   3.730 -1.1626 -0.2419  0.6478
  717MOL0     H96738  -0.380   6.969   3.796 -1.6931 -1.8512 -1.8133
  717MOL0     H96739  -0.403   7.023   3.631 -0.6026 -0.3694 -0.4584
  717MOL0     H96740  -0.271   6.806   3.563 -0.5679  3.4885 -1.7605
  717MOL0     H96741  -0.257   6.762   3.728 -0.2373 -0.2301 -0.7573
  717MOL0     H96742  -0.496   6.774   3.755 -1.7728 -1.4241  1.0803
  717MOL0     H96743  -0.454   6.637   3.642 -1.6651 -0.6576  2.9881
  717MOL0     H96744  -0.650   6.757   3.551  1.8043 -2.2375 -3.1828
  717MOL0     H96745  -0.577   6.905   3.586 -2.5733 -0.2253  1.0461
  717MOL0     H96746  -0.582   6.599   3.333 -0.8114  0.0008 -0.6164
  717MOL0     H96747  -0.282   6.629   3.120  1.4670  2.1552 -2.5396
  717MOL0     H96748  -0.440   6.563   3.085 -1.5320  2.0503 -2.4134
  717MOL0     H96749  -0.331   6.813   2.963 -0.6941 -0.8072 -1.6497
  717MOL0     H96750  -0.373   6.647   2.900  2.1599 -3.1837  3.3593
  717MOL0     H96751  -0.555   6.876   3.020 -0.4772  0.3964 -1.4621
  717MOL0     H96752  -0.623   6.716   3.016 -1.8329  0.9245 -0.6663
  717MOL0     H96753  -0.565   6.720   2.759 -2.0906 -1.1243  0.0970
  717MOL0     H96754  -0.545   6.894   2.767  3.8551 -0.2210  2.9481
  717MOL0     H96755  -0.671   6.817   2.543  1.0660  1.6448 -0.4030
  717MOL0     H96756  -0.832   6.842   2.384 -2.0218 -0.2152 -1.2180
  717MOL0     H96757  -1.330   6.753   2.335  2.2374  0.9733  0.3235
  717MOL0     H96758  -1.423   6.721   2.091  0.5454 -1.4370  0.0081
  717MOL0     H96759  -1.536   7.122   1.891 -1.9641 -1.3417  4.0346
  717MOL0     H96760  -1.411   7.032   1.822 -0.2720  3.7237  0.2118
  717MOL0     H96761  -1.563   7.017   1.651 -1.3584  1.2825 -0.0935
  717MOL0     H96762  -1.591   6.866   1.730 -1.7646  0.0786 -1.4830
  717MOL0     H96763  -1.819   6.989   1.683  2.4366  1.0526 -2.1084
  717MOL0     H96764  -1.781   6.977   1.853  2.3801 -1.0813  0.3076
  717MOL0     H96765  -1.691   7.213   1.668  1.6799 -0.7825 -0.2236
  717MOL0     H96766  -1.690   7.211   1.850 -2.1570 -1.7923  1.1612
  717MOL0     H96767  -1.924   7.225   1.655 -0.6709  0.1956 -0.1478
  717MOL0     H96768  -1.849   7.351   1.741  0.8905  0.6968 -1.2421
  717MOL0     H96769  -2.003   7.115   1.878 -1.4512  1.3002 -0.4962
  717MOL0     H96770  -1.906   7.248   1.962  0.8456  0.6461 -0.5405
  717MOL0     H96771  -2.123   7.252   1.767  1.5332 -2.1958  1.0789
  717MOL0     H96772  -2.041   7.403   1.835 -0.9231  0.8507 -0.8836
  717MOL0     H96773  -2.128   7.340   2.052  2.5141 -0.1786 -1.0635
  717MOL0     H96774  -2.248   7.388   1.930 -0.7690 -0.9776 -0.7851
  717MOL0     H96775  -1.439   7.158   2.082  0.6992 -0.2860 -0.5709
  717MOL0     H96776  -1.292   7.154   2.300 -1.9011 -0.3292  0.2039
  717MOL0     H96777  -1.136   6.960   2.676 -0.0197  1.0831  0.3721
  717MOL0     H96778  -0.972   6.891   2.843 -2.1041  1.0328 -0.1949
  717MOL0     H96779   0.191   6.937   3.229 -2.5974 -0.7420 -1.4135
  717MOL0     H96780   0.308   6.938   3.008  0.3741  0.6962  0.5313
  717MOL0     H96781   0.342   6.890   2.527  0.4679  0.8139  0.1609
  717MOL0     H96782   0.451   6.945   2.320  1.8881 -1.4107  1.4619
  717MOL0     H96783   0.660   7.337   2.254  0.7606 -0.6065 -2.0627
  717MOL0     H96784   0.479   7.327   2.270  0.1674  1.0357  1.1400
  717MOL0     H96785   0.518   7.410   2.056 -0.7705 -0.8886 -2.0538
  717MOL0     H96786   0.464   7.244   2.033 -0.7805  1.2678  1.8580
  717MOL0     H96787   0.652   7.259   1.873  2.9621  0.2390 -0.1348
  717MOL0     H96788   0.715   7.181   2.001  3.0571  1.2420 -1.8439
  717MOL0     H96789   0.803   7.418   2.081 -1.0376  1.8345  0.0488
  717MOL0     H96790   0.848   7.369   1.907  0.2706  1.3687 -0.2346
  717MOL0     H96791   0.624   7.713   1.846  2.4685  2.7661  2.1214
  717MOL0     H96792   0.603   7.312   2.469 -1.4881  0.0725 -1.5926
  717MOL0     H96793   0.600   7.357   2.719  0.3515 -0.4211  2.1153
  717MOL0     H96794   0.437   7.331   2.770 -0.5150 -2.6448  0.4558
  717MOL0     H96795   0.574   7.224   2.812  2.9711  2.2078  1.1367
  718MOL0     O96796   3.234   9.391   0.859 -0.6192 -0.9455  0.6567
  718MOL0     C96797   3.174   9.361   0.756 -0.0611  0.6400  0.5245
  718MOL0     O96798   3.218   9.272   0.670 -0.0372  0.7260 -0.1569
  718MOL0     C96799   3.307   9.168   0.713  0.6346 -0.4124  0.0577
  718MOL0     C96800   3.276   9.099   0.830  0.2378 -0.5257  0.2801
  718MOL0     C96801   3.362   9.002   0.869  0.1600  0.0852  0.7449
  718MOL0     C96802   3.469   8.969   0.794  0.7415  1.3448 -0.1250
  718MOL0     O96803   3.551   8.874   0.846  0.0420 -0.1892 -1.0521
  718MOL0     C96804   3.686   8.863   0.804 -0.0836 -0.5242  0.0473
  718MOL0     C96805   3.730   8.764   0.906  0.8724  0.0681 -0.5573
  718MOL0     C96806   3.878   8.721   0.874  0.2182 -0.2667 -0.3672
  718MOL0     C96807   3.993   8.786   0.950 -0.3089 -0.5051 -0.1223
  718MOL0     C96808   4.132   8.728   0.910  0.5881 -0.1105 -0.4269
  718MOL0     C96809   4.245   8.794   0.985 -0.5347 -0.0399  0.7904
  718MOL0     C96810   4.387   8.727   0.953  0.6899 -0.0618 -0.6130
  718MOL0     C96811   4.481   8.776   1.061 -0.8554  0.3339 -0.0978
  718MOL0     N96812   4.591   8.858   1.007  0.5644 -0.6968  0.5766
  718MOL0     C96813   4.714   8.808   0.975 -0.0372 -0.3971  0.3529
  718MOL0     C96814   4.787   8.923   0.949  0.8261 -0.2348 -0.3379
  718MOL0     C96815   4.931   8.917   0.903  0.8880  0.4032  0.1721
  718MOL0     C96816   5.017   8.823   0.997 -1.3265  0.6755 -0.2464
  718MOL0     C96817   5.160   8.869   1.017  0.2016  0.3572  0.8325
  718MOL0     C96818   5.251   8.781   1.109  0.6234 -0.0468  0.2380
  718MOL0     O96819   5.367   8.848   1.143 -0.0466  0.3887  0.3115
  718MOL0     C96820   5.481   8.815   1.071 -1.0477  0.2696  0.0795
  718MOL0     C96821   5.475   8.777   0.939 -0.5891  0.3830  0.1656
  718MOL0     C96822   5.592   8.769   0.867  0.2697 -0.2013  0.3343
  718MOL0     C96823   5.717   8.808   0.918 -1.0032 -0.3019  0.4266
  718MOL0     C96824   5.838   8.797   0.829  0.4652 -0.5630 -0.9859
  718MOL0     O96825   5.811   8.759   0.704 -0.3592  0.6194 -0.3392
  718MOL0     C96826   5.901   8.788   0.598  0.0816 -0.3617  0.1959
  718MOL0     C96827   5.883   8.705   0.486  0.7676  0.0306  0.1281
  718MOL0     C96828   5.976   8.697   0.380  0.3416 -0.0208 -0.0317
  718MOL0     C96829   6.079   8.782   0.385 -0.0679 -0.2422  0.1550
  718MOL0     O96830   6.179   8.780   0.292 -0.5441 -1.2585 -0.1739
  718MOL0     C96831   6.255   8.902   0.278  0.5216  1.0589  0.3372
  718MOL0     C96832   6.326   8.897   0.147  0.7821  0.2500 -0.1087
  718MOL0     C96833   6.444   8.987   0.155  0.4718 -0.4969  0.6330
  718MOL0     C96834   6.530   8.992   0.027 -0.1075 -0.2766  0.2689
  718MOL0     C96835   6.685   9.000   0.046 -0.0615  0.1412  0.6034
  718MOL0     C96836   6.767   8.979  -0.082  0.1880  0.0068 -1.0004
  718MOL0     C96837   6.763   9.090  -0.175  0.4726 -0.3980 -0.5777
  718MOL0     C96838   6.785   9.037  -0.310 -0.0697 -0.1348 -1.0533
  718MOL0    Cl96839   6.823   9.189  -0.409 -0.0094  0.5213  0.2068
  718MOL0     C96840   6.088   8.872   0.496  0.4591  0.0660  0.4375
  718MOL0     C96841   6.002   8.875   0.600 -0.3038  0.0789  0.0209
  718MOL0     O96842   5.949   8.827   0.879  0.2565  0.0510 -0.6969
  718MOL0     C96843   5.724   8.825   1.054 -0.0818 -1.1302 -0.3667
  718MOL0     C96844   5.605   8.826   1.137 -0.0970 -0.3014  0.5840
  718MOL0     N96845   4.709   9.033   0.964 -0.2937  0.1283  0.2757
  718MOL0     N96846   4.596   8.992   0.996 -0.0017 -1.3096  0.4408
  718MOL0     C96847   3.499   9.038   0.676  0.8300  0.6500  0.7306
  718MOL0     C96848   3.408   9.130   0.627 -0.1014  0.7906  1.0197
  718MOL0     C96849   3.051   9.441   0.722  0.9638  0.5056  0.0099
  718MOL0     C96850   2.956   9.382   0.642  0.0946  1.1999 -0.6533
  718MOL0     C96851   2.831   9.429   0.624 -0.2608 -0.0956 -0.4467
  718MOL0     C96852   2.792   9.556   0.677 -0.3074  0.7153 -0.5021
  718MOL0     O96853   2.661   9.586   0.676  0.1349  1.1752  0.3139
  718MOL0     C96854   2.611   9.661   0.565  0.3156  0.3344 -0.1275
  718MOL0     C96855   2.540   9.794   0.608  0.0083  0.2850  0.1098
  718MOL0     C96856   2.438   9.778   0.718 -0.4041  0.8302  0.0535
  718MOL0     C96857   2.313   9.694   0.673  0.1233 -0.2701 -0.3126
  718MOL0     C96858   2.262   9.627   0.794  0.3592  0.8060 -0.3030
  718MOL0     C96859   2.204   9.574   0.893  0.7933  0.3383  0.3171
  718MOL0     C96860   2.892   9.627   0.753 -0.1762  0.2348  0.4485
  718MOL0     C96861   3.023   9.571   0.767 -0.5945  0.4692 -0.8216
  718MOL0     C96862   3.112   9.665   0.838 -0.5713 -0.7137 -0.2531
  718MOL0     H96863   3.201   9.134   0.901  1.1701 -0.5405  1.3057
  718MOL0     H96864   3.341   8.941   0.956  1.9957 -0.1803  1.0368
  718MOL0     H96865   3.690   8.822   0.703 -0.1183 -0.7942  0.1521
  718MOL0     H96866   3.740   8.956   0.822 -0.2154 -0.5200  0.4406
  718MOL0     H96867   3.657   8.683   0.907 -0.0637  0.8947  0.2282
  718MOL0     H96868   3.723   8.810   1.005 -1.7662 -3.5049  1.1264
  718MOL0     H96869   3.879   8.740   0.766 -2.0555 -5.0769 -1.4793
  718MOL0     H96870   3.882   8.614   0.895 -0.3074 -0.7125 -2.3802
  718MOL0     H96871   3.992   8.895   0.941  2.8834 -0.4216 -0.7779
  718MOL0     H96872   3.978   8.768   1.056 -0.7930  2.7465  0.4678
  718MOL0     H96873   4.131   8.620   0.927  0.1838 -0.4043 -2.1205
  718MOL0     H96874   4.139   8.745   0.802 -2.6383 -2.2024 -1.1114
  718MOL0     H96875   4.239   8.902   0.972 -0.0689 -0.0586  0.3861
  718MOL0     H96876   4.233   8.782   1.093  0.9331  0.5407  1.0404
  718MOL0     H96877   4.413   8.744   0.849 -0.9391  3.3728 -0.5904
  718MOL0     H96878   4.365   8.620   0.956  1.9498 -0.3658 -1.4756
  718MOL0     H96879   4.425   8.834   1.134  0.0944  1.0262  0.0955
  718MOL0     H96880   4.528   8.690   1.110 -3.9076 -1.3549  0.0978
  718MOL0     H96881   4.735   8.705   1.002 -0.7962 -1.1425 -1.7305
  718MOL0     H96882   4.933   8.867   0.806  0.6639 -0.3371  0.5419
  718MOL0     H96883   4.966   9.020   0.896 -0.6782  0.8642 -2.4999
  718MOL0     H96884   4.978   8.826   1.099  0.3174 -0.4745  0.4666
  718MOL0     H96885   5.014   8.719   0.965  1.3828  0.8678 -1.4987
  718MOL0     H96886   5.173   8.975   1.041  2.6744  0.4069 -0.4536
  718MOL0     H96887   5.206   8.869   0.918  3.9231 -2.7840  2.2823
  718MOL0     H96888   5.272   8.682   1.067 -1.3702 -1.7485  2.9153
  718MOL0     H96889   5.201   8.759   1.203 -2.1128 -0.3550 -1.1953
  718MOL0     H96890   5.376   8.758   0.899 -0.4361 -1.8881  0.7163
  718MOL0     H96891   5.586   8.738   0.763  0.8463  0.4252  0.1099
  718MOL0     H96892   5.795   8.642   0.499  2.3805 -2.3311  0.2217
  718MOL0     H96893   5.966   8.623   0.301 -1.3245 -2.5921  2.4029
  718MOL0     H96894   6.187   8.984   0.254  1.8331  1.5636 -1.9800
  718MOL0     H96895   6.326   8.925   0.358 -1.2316 -0.2522  2.3979
  718MOL0     H96896   6.363   8.795   0.133  2.3728  0.7707  0.0712
  718MOL0     H96897   6.258   8.931   0.068  0.1120  0.0403  0.3623
  718MOL0     H96898   6.396   9.084   0.174 -0.4697 -1.4217  3.5286
  718MOL0     H96899   6.500   8.953   0.242 -1.5981  2.3562  3.3106
  718MOL0     H96900   6.498   9.082  -0.027 -0.5640 -0.7006 -0.1786
  718MOL0     H96901   6.508   8.905  -0.035  0.1984 -0.3334  0.2391
  718MOL0     H96902   6.703   8.911   0.106  2.9668 -0.8206 -1.4719
  718MOL0     H96903   6.703   9.098   0.092 -0.0398 -0.2845  1.5219
  718MOL0     H96904   6.874   8.962  -0.061  0.5090 -2.4999 -3.9585
  718MOL0     H96905   6.732   8.888  -0.132 -1.9207  1.9474 -3.2782
  718MOL0     H96906   6.842   9.164  -0.159  1.0657 -1.5727  2.5062
  718MOL0     H96907   6.666   9.141  -0.173  2.2477  3.3502  2.8703
  718MOL0     H96908   6.863   8.961  -0.317 -0.1339 -0.1882 -1.2094
  718MOL0     H96909   6.689   8.995  -0.340 -0.4159 -0.4629  0.4311
  718MOL0     H96910   6.172   8.940   0.505  1.3998 -0.8556 -0.9793
  718MOL0     H96911   6.031   8.941   0.681  0.0535 -1.1948  0.9680
  718MOL0     H96912   5.817   8.853   1.102 -1.9186  1.8965  1.8720
  718MOL0     H96913   5.612   8.851   1.242  1.5254  5.3992 -0.4723
  718MOL0     H96914   3.590   9.035   0.618  1.9914  0.3388  2.5017
  718MOL0     H96915   3.440   9.181   0.537 -1.3501  0.7541  0.5451
  718MOL0     H96916   2.978   9.285   0.598 -1.3662  0.7026 -0.3484
  718MOL0     H96917   2.761   9.376   0.560 -0.7971  0.8322 -0.6507
  718MOL0     H96918   2.529   9.601   0.525  0.9763  1.1404 -2.9108
  718MOL0     H96919   2.682   9.664   0.482  1.2493  0.1990  0.6473
  718MOL0     H96920   2.502   9.839   0.516 -1.8787  1.4388  1.3820
  718MOL0     H96921   2.620   9.853   0.655  2.5445 -3.0396  0.3701
  718MOL0     H96922   2.410   9.870   0.770  2.2428  0.8576  1.6399
  718MOL0     H96923   2.486   9.713   0.792 -2.6690  3.2235  4.0100
  718MOL0     H96924   2.239   9.753   0.619 -0.1812 -0.5976 -0.2573
  718MOL0     H96925   2.347   9.607   0.616  1.9121 -2.0634  3.1430
  718MOL0     H96926   2.161   9.509   0.966 -0.5109  1.2488  0.4057
  718MOL0     H96927   2.872   9.724   0.800  2.0867  0.6492  0.6324
  718MOL0     H96928   3.194   9.688   0.769  0.9936  0.0702  1.7714
  718MOL0     H96929   3.075   9.760   0.878  0.3006 -0.0708 -0.9250
  718MOL0     H96930   3.160   9.624   0.928  0.6462  1.7682  0.3048
  719MOL0     O96931   1.361   3.192  11.002 -0.3839  0.1424 -0.2680
  719MOL0     C96932   1.309   3.154  10.898 -0.5288 -0.2677  0.5688
  719MOL0     O96933   1.342   3.208  10.771 -0.5637 -0.7634 -0.1690
  719MOL0     C96934   1.457   3.287  10.753  0.4700 -0.1307 -0.8174
  719MOL0     C96935   1.579   3.239  10.713 -1.1597 -0.6605  0.0709
  719MOL0     C96936   1.697   3.317  10.710 -0.0443  0.4204  0.2210
  719MOL0     C96937   1.682   3.454  10.746 -0.2424  0.7985  0.4973
  719MOL0     O96938   1.784   3.543  10.749  0.1841  0.0116  0.6531
  719MOL0     C96939   1.923   3.495  10.747  0.5720 -0.3136 -0.2359
  719MOL0     C96940   2.014   3.607  10.792  0.1996 -0.7836 -0.2902
  719MOL0     C96941   2.168   3.584  10.767 -0.0946 -0.4029 -0.2878
  719MOL0     C96942   2.241   3.688  10.840 -0.7183 -0.7905 -0.3037
  719MOL0     C96943   2.391   3.681  10.812 -0.5770 -0.7783 -0.3678
  719MOL0     C96944   2.465   3.794  10.889  0.2053  1.4223 -0.3302
  719MOL0     C96945   2.614   3.766  10.870  0.1416 -0.3213 -0.5431
  719MOL0     C96946   2.693   3.858  10.953 -0.8675 -0.2749  0.7819
  719MOL0     N96947   2.837   3.826  10.939  0.2826 -0.1777 -0.1204
  719MOL0     C96948   2.943   3.909  10.973  0.6317  0.1884 -0.5267
  719MOL0     C96949   3.057   3.836  10.947  0.2353 -0.3441  0.4625
  719MOL0     C96950   3.195   3.892  10.988  0.4863 -0.6033 -0.6959
  719MOL0     C96951   3.271   3.957  10.875  0.1903  0.6239  0.9852
  719MOL0     C96952   3.428   3.949  10.899 -0.2457 -0.3302 -0.2397
  719MOL0     C96953   3.502   3.959  10.768  0.1023 -0.2494  0.1017
  719MOL0     O96954   3.472   4.088  10.709 -0.4082  0.2552 -0.5333
  719MOL0     C96955   3.540   4.201  10.747  0.5115  0.7691 -0.2905
  719MOL0     C96956   3.646   4.195  10.833 -0.6027  0.2821 -0.8168
  719MOL0     C96957   3.709   4.311  10.880  0.8696 -0.0524 -0.9817
  719MOL0     C96958   3.660   4.434  10.825  0.5784  0.3059  0.7672
  719MOL0     C96959   3.720   4.552  10.883 -0.4506 -0.1299  0.1448
  719MOL0     O96960   3.854   4.556  10.912 -0.7082 -0.3314 -0.8431
  719MOL0     C96961   3.918   4.678  10.935  0.3447 -0.0529  0.0425
  719MOL0     C96962   3.922   4.774  10.828  1.1809  0.8505  0.3981
  719MOL0     C96963   3.998   4.893  10.849 -0.7059  0.4850  0.2669
  719MOL0     C96964   4.058   4.912  10.975 -0.2290  0.4471 -0.3157
  719MOL0     O96965   4.105   5.037  11.000  0.0015 -0.2491 -0.4513
  719MOL0     C96966   4.055   5.145  10.932  0.1761 -0.0576 -0.8289
  719MOL0     C96967   4.099   5.277  10.991 -0.4649  0.4588 -0.9408
  719MOL0     C96968   4.239   5.301  10.931  0.4658 -0.1914 -0.5779
  719MOL0     C96969   4.302   5.418  11.002  0.0157 -0.1300 -0.6609
  719MOL0     C96970   4.347   5.532  10.908  0.1213 -0.4963  0.9903
  719MOL0     C96971   4.468   5.611  10.974  0.5179 -0.1426  0.3208
  719MOL0     C96972   4.475   5.757  10.911 -0.7094 -0.3505  0.1046
  719MOL0     C96973   4.608   5.833  10.931  0.1978 -0.0836 -0.6666
  719MOL0    Cl96974   4.575   6.006  10.896  0.2425 -0.3960 -0.0381
  719MOL0     C96975   4.060   4.814  11.082  0.7903 -0.2211  0.1651
  719MOL0     C96976   3.993   4.695  11.048 -0.0477 -0.4520  0.7954
  719MOL0     O96977   3.637   4.647  10.891 -0.9938 -0.1098 -0.0679
  719MOL0     C96978   3.543   4.437  10.747 -1.0510  0.3315 -0.1143
  719MOL0     C96979   3.489   4.317  10.698  0.2120 -0.9035 -0.5436
  719MOL0     N96980   3.022   3.717  10.887 -0.7353  0.5441 -0.1923
  719MOL0     N96981   2.889   3.714  10.889 -0.4845 -0.1897  0.0123
  719MOL0     C96982   1.563   3.502  10.795 -0.4068 -0.6723  0.3827
  719MOL0     C96983   1.453   3.419  10.796  0.3248  0.1966 -0.0347
  719MOL0     C96984   1.206   3.032  10.910  0.4973 -0.1437  0.4893
  719MOL0     C96985   1.187   2.983  11.033  0.1379 -0.5351 -0.1276
  719MOL0     C96986   1.072   2.906  11.060 -0.5034 -0.3801 -0.2463
  719MOL0     C96987   0.986   2.863  10.959  0.8129 -0.7346  0.5536
  719MOL0     O96988   0.874   2.779  10.985  0.6527  0.2294 -0.0042
  719MOL0     C96989   0.827   2.696  10.880  0.4945  0.8297  0.7372
  719MOL0     C96990   0.713   2.615  10.936 -0.2488  0.4750  0.5426
  719MOL0     C96991   0.597   2.703  10.961 -0.5343  0.0919  0.3181
  719MOL0     C96992   0.474   2.611  10.970  0.1465  0.3152 -0.1056
  719MOL0     C96993   0.353   2.690  10.994 -0.8549 -0.6414  0.1826
  719MOL0     C96994   0.246   2.750  11.016 -0.3981  0.1554 -0.1804
  719MOL0     C96995   1.012   2.909  10.831  0.1993 -0.8612  0.3233
  719MOL0     C96996   1.111   2.995  10.813 -0.2370  0.2562 -0.7233
  719MOL0     C96997   1.119   3.048  10.666  0.0211  0.3922 -0.0246
  719MOL0     H96998   1.587   3.138  10.674  2.5972 -0.4749 -0.0300
  719MOL0     H96999   1.788   3.271  10.672 -2.0436 -1.1651 -3.1233
  719MOL0     H97000   1.941   3.407  10.809  3.2682 -0.7277 -1.5218
  719MOL0     H97001   1.945   3.466  10.645 -1.2627  1.2311 -1.1385
  719MOL0     H97002   1.988   3.635  10.895 -2.4317 -2.1968 -0.4753
  719MOL0     H97003   1.979   3.700  10.746  1.6051  0.1901  0.5399
  719MOL0     H97004   2.193   3.600  10.661  2.6200 -1.8352  0.0520
  719MOL0     H97005   2.200   3.482  10.788  0.8900 -0.5633 -2.2451
  719MOL0     H97006   2.201   3.780  10.796 -0.7164 -0.9622 -0.6628
  719MOL0     H97007   2.224   3.691  10.948  0.3451  2.0159 -0.1173
  719MOL0     H97008   2.416   3.576  10.831 -1.0184 -0.4722  2.2749
  719MOL0     H97009   2.406   3.695  10.704  1.4573  0.3613  0.0131
  719MOL0     H97010   2.450   3.892  10.842 -1.3110  3.3455  3.6806
  719MOL0     H97011   2.427   3.789  10.992  0.0293 -2.7121 -0.4603
  719MOL0     H97012   2.652   3.786  10.770 -1.2023  5.8932 -0.2041
  719MOL0     H97013   2.607   3.660  10.899 -1.5348  0.6625  3.2756
  719MOL0     H97014   2.676   3.957  10.910 -2.6903 -2.1993 -3.5723
  719MOL0     H97015   2.666   3.866  11.059  0.4793  1.7341  1.0305
  719MOL0     H97016   2.929   4.002  11.027 -0.7761  1.0794 -2.3299
  719MOL0     H97017   3.184   3.952  11.078 -3.3860 -1.9490 -0.0582
  719MOL0     H97018   3.245   3.800  11.021 -0.7400 -0.5974  1.3161
  719MOL0     H97019   3.253   3.891  10.789  0.6441  1.4376  0.2479
  719MOL0     H97020   3.252   4.063  10.855 -1.4695  0.3069  0.7269
  719MOL0     H97021   3.456   3.858  10.954 -1.5008 -1.6207 -1.6411
  719MOL0     H97022   3.458   4.036  10.957  1.3543 -0.6958 -0.4761
  719MOL0     H97023   3.460   3.881  10.704 -0.5324 -0.5137  0.8271
  719MOL0     H97024   3.609   3.942  10.781 -0.0376 -1.1553  0.1536
  719MOL0     H97025   3.699   4.106  10.866  2.1771 -0.5213 -6.2503
  719MOL0     H97026   3.794   4.309  10.947 -0.5519 -1.0649  0.8711
  719MOL0     H97027   3.859   4.748  10.743  2.6674 -2.8144  0.2355
  719MOL0     H97028   4.021   4.968  10.775  1.3182  2.8321  3.0458
  719MOL0     H97029   4.089   5.148  10.828  1.2967  1.5402 -0.4581
  719MOL0     H97030   3.948   5.128  10.946  0.7536 -4.7738 -0.3464
  719MOL0     H97031   4.019   5.345  10.960 -2.3799 -1.1949  0.0552
  719MOL0     H97032   4.109   5.284  11.100 -0.8269  0.5972 -0.9134
  719MOL0     H97033   4.308   5.215  10.934 -0.0457 -0.5699  1.1369
  719MOL0     H97034   4.213   5.321  10.826 -0.2956  0.2548 -0.3094
  719MOL0     H97035   4.388   5.381  11.058  0.3697  0.8372 -0.5526
  719MOL0     H97036   4.229   5.468  11.066  1.5405  1.3462 -0.0054
  719MOL0     H97037   4.263   5.600  10.889 -0.1607 -0.6014  1.8022
  719MOL0     H97038   4.371   5.495  10.808  0.2490  1.3801  0.3030
  719MOL0     H97039   4.457   5.619  11.082  1.5455  0.0461  0.4217
  719MOL0     H97040   4.564   5.562  10.954  0.0341 -1.4715  1.0831
  719MOL0     H97041   4.393   5.818  10.949 -1.2115  0.0471 -1.5020
  719MOL0     H97042   4.470   5.751  10.801  0.4739  0.2766  0.0036
  719MOL0     H97043   4.652   5.820  11.031  2.1258 -0.9856 -1.5623
  719MOL0     H97044   4.684   5.794  10.863  2.2381  2.9496 -0.3169
  719MOL0     H97045   4.107   4.834  11.178  2.5987  1.4349 -0.9610
  719MOL0     H97046   3.980   4.614  11.119  0.0041 -1.0042  0.1822
  719MOL0     H97047   3.496   4.533  10.726  2.0786  2.0813  0.3389
  719MOL0     H97048   3.398   4.331  10.641 -0.3737  0.2775  0.6221
  719MOL0     H97049   1.548   3.600  10.839  0.2130 -0.3668 -0.0746
  719MOL0     H97050   1.362   3.460  10.838 -0.0998  1.0448 -1.6861
  719MOL0     H97051   1.258   3.003  11.113 -1.0079  3.8710  0.0984
  719MOL0     H97052   1.066   2.873  11.163 -0.9186  1.4818  0.3698
  719MOL0     H97053   0.902   2.631  10.834  0.0593  0.8929 -0.0791
  719MOL0     H97054   0.785   2.760  10.802  2.6840  4.5220  2.3347
  719MOL0     H97055   0.739   2.554  11.023 -1.3790 -1.1163 -0.1868
  719MOL0     H97056   0.681   2.539  10.864 -0.1761  0.5064  0.4762
  719MOL0     H97057   0.575   2.764  10.873 -1.7146  0.4390  0.8394
  719MOL0     H97058   0.605   2.760  11.054 -1.5611 -0.2207  0.6131
  719MOL0     H97059   0.444   2.555  10.880  0.3651  0.2472 -0.1365
  719MOL0     H97060   0.481   2.543  11.056  0.6395  0.2016 -0.2327
  719MOL0     H97061   0.155   2.802  11.041 -0.8135 -1.3848  1.7456
  719MOL0     H97062   0.951   2.880  10.747 -0.2521 -1.2509  0.7813
  719MOL0     H97063   1.209   3.015  10.614 -2.2323 -0.5774 -3.5966
  719MOL0     H97064   1.038   3.008  10.605 -1.5949  1.0704  1.5857
  719MOL0     H97065   1.118   3.158  10.666  2.0278  0.4541 -0.6160
  720MOL0     O97066   7.140   0.756   7.934 -0.4721  0.7694  0.4258
  720MOL0     C97067   7.252   0.702   7.924  0.1646 -0.5028 -0.5730
  720MOL0     O97068   7.343   0.735   7.829  0.0172  0.1508  0.3061
  720MOL0     C97069   7.297   0.804   7.715 -1.0075 -0.1812 -0.6917
  720MOL0     C97070   7.354   0.929   7.684  0.3222 -0.4530  0.9672
  720MOL0     C97071   7.319   1.009   7.571 -0.1413 -0.5696 -0.8732
  720MOL0     C97072   7.221   0.964   7.483 -0.4689 -0.4874 -0.2703
  720MOL0     O97073   7.187   1.036   7.372  0.5786 -0.4493 -0.8513
  720MOL0     C97074   7.043   1.060   7.377 -0.5413 -1.1567 -0.7737
  720MOL0     C97075   6.997   1.020   7.231  0.3166 -0.3419 -0.3604
  720MOL0     C97076   6.979   1.147   7.138  0.0051 -0.5516  0.5970
  720MOL0     C97077   6.907   1.113   7.007 -1.1006 -0.4516 -0.1304
  720MOL0     C97078   6.925   1.224   6.899  0.0029 -0.3958  0.3692
  720MOL0     C97079   6.858   1.357   6.932  0.5613 -0.1110  0.9053
  720MOL0     C97080   6.879   1.451   6.813 -0.4876 -0.7871  0.7902
  720MOL0     C97081   7.019   1.502   6.801 -0.6008 -0.4521  0.2279
  720MOL0     N97082   7.049   1.568   6.678  0.3017 -0.4059 -0.3118
  720MOL0     C97083   7.066   1.508   6.562 -0.2547 -0.4890 -0.6599
  720MOL0     C97084   7.074   1.606   6.467  0.5895 -0.1444  0.1989
  720MOL0     C97085   7.074   1.588   6.320  0.3645 -0.2818 -0.1207
  720MOL0     C97086   6.950   1.664   6.259 -0.5416 -0.5261 -0.1031
  720MOL0     C97087   6.956   1.648   6.105 -1.1242  0.1624  0.0903
  720MOL0     C97088   7.075   1.719   6.035  0.6610  0.8452  0.7705
  720MOL0     O97089   7.205   1.668   6.057 -0.4251  0.9374  0.1552
  720MOL0     C97090   7.306   1.713   5.973 -1.1784  0.7046 -1.3202
  720MOL0     C97091   7.433   1.663   6.008  0.5213 -0.2569  0.2477
  720MOL0     C97092   7.545   1.714   5.945  0.6459  0.2033  0.8243
  720MOL0     C97093   7.524   1.814   5.842 -0.2030  0.3323 -1.0364
  720MOL0     C97094   7.650   1.865   5.782  0.1095 -0.7261 -0.5011
  720MOL0     O97095   7.757   1.869   5.862  0.7229  0.0053 -0.9552
  720MOL0     C97096   7.871   1.906   5.802 -0.1942  0.5948  0.7663
  720MOL0     C97097   7.894   2.034   5.748  0.5894  0.1108 -0.2407
  720MOL0     C97098   8.021   2.059   5.694 -0.5296 -0.5254  0.2138
  720MOL0     C97099   8.121   1.962   5.699 -0.7592 -0.2208  0.7639
  720MOL0     O97100   8.253   1.971   5.655 -0.7310 -0.5354  0.4564
  720MOL0     C97101   8.279   2.063   5.552 -0.2158 -0.6684  0.1003
  720MOL0     C97102   8.401   2.043   5.465  0.1786  0.6739 -0.5993
  720MOL0     C97103   8.388   1.912   5.386 -0.2138  0.5496  0.6443
  720MOL0     C97104   8.515   1.856   5.319 -0.2647 -0.8950 -0.3894
  720MOL0     C97105   8.583   1.968   5.235 -0.0831  0.6662 -0.3647
  720MOL0     C97106   8.495   2.035   5.120  0.3303  0.7146 -0.5471
  720MOL0     C97107   8.585   2.098   5.014  0.2829  0.4507 -0.4248
  720MOL0     C97108   8.713   2.175   5.064  0.5693 -0.1317 -0.1697
  720MOL0    Cl97109   8.656   2.324   5.156 -0.1312  0.1509 -0.5127
  720MOL0     C97110   8.098   1.842   5.760 -0.1888  0.2157 -0.4574
  720MOL0     C97111   7.973   1.808   5.805 -0.6467 -0.9429  0.3956
  720MOL0     O97112   7.644   1.899   5.665 -0.3702 -0.2522 -0.4032
  720MOL0     C97113   7.399   1.856   5.794 -0.5970  0.2676  0.5129
  720MOL0     C97114   7.291   1.802   5.863 -0.8348  0.1970 -0.6249
  720MOL0     N97115   7.083   1.731   6.544  0.5574  0.4430  0.6258
  720MOL0     N97116   7.047   1.705   6.663  0.4854  0.5448  0.2523
  720MOL0     C97117   7.169   0.833   7.512  0.5324 -0.5172 -0.6460
  720MOL0     C97118   7.209   0.756   7.627  0.3965  0.7468 -0.5691
  720MOL0     C97119   7.307   0.622   8.031 -0.8718  0.3087  0.0277
  720MOL0     C97120   7.452   0.605   8.042  0.4416  0.5499 -0.5674
  720MOL0     C97121   7.515   0.540   8.146 -0.6790 -0.0585  0.0735
  720MOL0     C97122   7.430   0.495   8.248 -0.4449  0.0720 -0.0853
  720MOL0     O97123   7.493   0.416   8.346  0.6642  0.2694  0.6405
  720MOL0     C97124   7.544   0.504   8.444  0.0905 -0.1250 -0.3843
  720MOL0     C97125   7.623   0.439   8.555  1.5160 -0.0652  0.4860
  720MOL0     C97126   7.552   0.320   8.623  0.0943  0.1139  0.2160
  720MOL0     C97127   7.654   0.213   8.674  0.2096 -0.3530  1.2059
  720MOL0     C97128   7.759   0.271   8.758  0.4336  0.5081  0.0013
  720MOL0     C97129   7.849   0.321   8.825 -0.5478 -0.4559 -0.7639
  720MOL0     C97130   7.296   0.495   8.234 -0.3513 -0.0642  0.1950
  720MOL0     C97131   7.233   0.566   8.133  0.1202  0.2928 -0.2690
  720MOL0     C97132   7.084   0.550   8.133  1.3688 -0.3042 -0.0906
  720MOL0     H97133   7.440   0.972   7.735 -0.1270  2.5052 -0.5560
  720MOL0     H97134   7.382   1.093   7.545 -2.3321  1.1437 -0.8761
  720MOL0     H97135   6.984   1.000   7.446 -3.0269  0.2307 -1.5351
  720MOL0     H97136   7.035   1.166   7.404 -1.7649 -1.4930  0.2438
  720MOL0     H97137   6.914   0.949   7.233  2.6336 -3.2059  0.7390
  720MOL0     H97138   7.077   0.959   7.188  3.9979  3.5684  0.3084
  720MOL0     H97139   7.073   1.201   7.127 -0.0417 -0.7488 -0.9960
  720MOL0     H97140   6.917   1.221   7.189  1.3717 -0.0523  1.5890
  720MOL0     H97141   6.948   1.014   6.984  0.7188  0.5238 -1.2830
  720MOL0     H97142   6.801   1.099   7.033 -1.3587  0.6460 -0.5219
  720MOL0     H97143   7.034   1.228   6.892 -0.0659  1.4115 -0.1572
  720MOL0     H97144   6.890   1.191   6.800 -2.9086 -0.2432  1.2432
  720MOL0     H97145   6.749   1.347   6.934  0.7459 -4.9786 -0.1578
  720MOL0     H97146   6.897   1.398   7.025  0.8303  0.0279  0.7294
  720MOL0     H97147   6.812   1.537   6.820 -1.0610 -1.0482 -1.0370
  720MOL0     H97148   6.845   1.395   6.725 -1.0459  1.3130 -0.3938
  720MOL0     H97149   7.040   1.573   6.882  1.2475 -0.6965  0.0238
  720MOL0     H97150   7.101   1.430   6.807  0.6554  0.9948  1.5466
  720MOL0     H97151   7.071   1.400   6.553  1.6200 -0.4694 -0.1106
  720MOL0     H97152   7.163   1.645   6.293 -0.0063 -0.4979 -1.9125
  720MOL0     H97153   7.082   1.483   6.291  4.0874  0.0997 -0.9527
  720MOL0     H97154   6.857   1.621   6.296  0.6902 -3.0626  0.2623
  720MOL0     H97155   6.956   1.765   6.303 -2.2463 -0.0827 -0.8004
  720MOL0     H97156   6.870   1.702   6.064  0.9837  1.5332 -2.8755
  720MOL0     H97157   6.961   1.541   6.080 -1.6827 -0.8193  3.6137
  720MOL0     H97158   7.071   1.824   6.066  1.2830  1.2494 -0.4574
  720MOL0     H97159   7.048   1.718   5.929 -0.4058 -0.1322  1.0268
  720MOL0     H97160   7.453   1.591   6.087  0.8595  1.2003  1.5434
  720MOL0     H97161   7.643   1.679   5.976  0.4470  0.3698  1.6590
  720MOL0     H97162   7.813   2.106   5.742 -1.3543 -1.9567 -0.2416
  720MOL0     H97163   8.043   2.160   5.661 -1.8682 -0.4867 -0.6139
  720MOL0     H97164   8.203   2.075   5.474  1.9490  1.6834 -1.8421
  720MOL0     H97165   8.286   2.159   5.604  0.7816 -1.9987  2.5402
  720MOL0     H97166   8.411   2.121   5.390  1.3933 -0.1321 -1.3256
  720MOL0     H97167   8.494   2.028   5.522  0.8659 -2.2362 -2.2785
  720MOL0     H97168   8.344   1.829   5.442 -0.3519 -1.3349 -2.0607
  720MOL0     H97169   8.315   1.924   5.306 -0.6302 -0.0311  0.9318
  720MOL0     H97170   8.499   1.776   5.247  1.5741  0.0823 -1.9638
  720MOL0     H97171   8.582   1.817   5.396  0.5708  2.3944  0.7321
  720MOL0     H97172   8.665   1.920   5.181  0.2749  2.6212 -1.6542
  720MOL0     H97173   8.618   2.048   5.300 -1.3829  0.2428  0.9109
  720MOL0     H97174   8.436   1.953   5.077 -0.4218  0.9349  0.0410
  720MOL0     H97175   8.437   2.109   5.177 -2.1529 -1.7645  0.3655
  720MOL0     H97176   8.523   2.174   4.964 -0.7057  0.8629  1.3423
  720MOL0     H97177   8.608   2.013   4.949 -4.4463 -0.0000 -1.9177
  720MOL0     H97178   8.771   2.113   5.133  0.3215 -0.0220  0.1396
  720MOL0     H97179   8.784   2.190   4.982 -0.9422  0.6942 -1.3925
  720MOL0     H97180   8.171   1.762   5.771 -1.5854 -1.3834 -2.2627
  720MOL0     H97181   7.954   1.713   5.852  1.0542  0.0602  3.3495
  720MOL0     H97182   7.399   1.922   5.708  1.1866 -4.3016 -3.4542
  720MOL0     H97183   7.191   1.834   5.839 -0.2724  0.0602 -3.4908
  720MOL0     H97184   7.100   0.790   7.441 -2.0807  0.6345  1.0622
  720MOL0     H97185   7.193   0.650   7.648  0.6500  0.6890 -0.6623
  720MOL0     H97186   7.513   0.651   7.965 -3.9448  1.5749 -3.8101
  720MOL0     H97187   7.621   0.529   8.166 -1.2649 -0.9556  3.1648
  720MOL0     H97188   7.459   0.553   8.493  1.9883  3.8943 -0.7379
  720MOL0     H97189   7.599   0.586   8.398  1.7861 -0.5694  0.7355
  720MOL0     H97190   7.645   0.520   8.626  1.0918  0.7391 -0.2741
  720MOL0     H97191   7.711   0.409   8.497  0.1829 -0.7425 -1.2809
  720MOL0     H97192   7.479   0.276   8.554  1.7046  2.5351 -3.3212
  720MOL0     H97193   7.504   0.365   8.710  0.1222  1.1035 -0.2709
  720MOL0     H97194   7.601   0.137   8.732 -0.3033 -0.7072  0.2946
  720MOL0     H97195   7.700   0.150   8.596  0.3435  0.1201  0.8956
  720MOL0     H97196   7.933   0.356   8.880 -2.7777 -0.1203  2.6774
  720MOL0     H97197   7.241   0.441   8.311 -0.5477 -0.5381 -0.2732
  720MOL0     H97198   7.055   0.539   8.028 -1.4541 -0.9448  0.6775
  720MOL0     H97199   7.043   0.460   8.181  2.4715  0.0301  1.5781
  720MOL0     H97200   7.027   0.630   8.182 -0.4334 -2.3982  1.4106
  721MOL0     O97201   2.877   0.915   9.528  0.5458 -0.5332 -0.5734
  721MOL0     C97202   2.837   0.902   9.414 -0.0534 -1.5578 -0.5837
  721MOL0     O97203   2.904   0.932   9.302 -0.0775  0.1251  0.9236
  721MOL0     C97204   3.037   0.952   9.317  0.8862  0.5176  0.4496
  721MOL0     C97205   3.094   1.074   9.284  0.3284 -0.2593  0.5114
  721MOL0     C97206   3.238   1.096   9.293 -0.7187  0.9750 -0.5378
  721MOL0     C97207   3.328   0.991   9.328  0.4033 -0.2805  0.5188
  721MOL0     O97208   3.462   0.994   9.343 -0.7963  0.0904 -0.3752
  721MOL0     C97209   3.516   1.128   9.359 -0.4304 -0.2036  0.1450
  721MOL0     C97210   3.660   1.126   9.347 -0.7349 -0.1808  0.6026
  721MOL0     C97211   3.726   1.016   9.436 -0.3182 -0.4681  0.2199
  721MOL0     C97212   3.870   1.007   9.426  0.7696 -0.1138 -0.1335
  721MOL0     C97213   3.936   0.887   9.513  0.2010  0.1229  0.9760
  721MOL0     C97214   4.077   0.854   9.466  0.8516  0.2485  0.2620
  721MOL0     C97215   4.164   0.914   9.578 -0.5263  1.0406 -0.0925
  721MOL0     C97216   4.310   0.880   9.550 -1.4768  0.4478 -0.8669
  721MOL0     N97217   4.398   0.942   9.642 -0.3670  0.0965  0.0366
  721MOL0     C97218   4.537   0.948   9.636  0.5478  0.1806 -0.7506
  721MOL0     C97219   4.572   1.051   9.710 -0.1742 -0.8330  0.1572
  721MOL0     C97220   4.707   1.114   9.721  0.4045 -0.5968  0.7130
  721MOL0     C97221   4.739   1.180   9.585  0.7036 -0.4585 -0.2742
  721MOL0     C97222   4.852   1.292   9.601 -0.4584  1.9322 -0.3059
  721MOL0     C97223   4.998   1.241   9.633 -0.6003 -0.2591  0.1506
  721MOL0     O97224   5.069   1.366   9.640 -0.1119 -0.3862 -0.8996
  721MOL0     C97225   5.146   1.409   9.535 -1.0745  0.0434  0.3915
  721MOL0     C97226   5.218   1.514   9.571  0.0685 -0.7375  0.0974
  721MOL0     C97227   5.314   1.573   9.481 -0.4532 -0.1122 -0.9942
  721MOL0     C97228   5.330   1.516   9.356 -1.0940 -1.3896 -1.1899
  721MOL0     C97229   5.411   1.595   9.254 -0.3511 -0.3455  0.5980
  721MOL0     O97230   5.414   1.551   9.128  0.1218 -0.0952  0.7097
  721MOL0     C97231   5.535   1.561   9.066 -0.3031 -0.0866  0.2855
  721MOL0     C97232   5.551   1.627   8.944 -0.2068 -0.5343  0.0055
  721MOL0     C97233   5.676   1.636   8.877  0.0248  0.0265 -1.4440
  721MOL0     C97234   5.784   1.580   8.941  0.8270  0.4232  0.0911
  721MOL0     O97235   5.904   1.591   8.876  0.0242  0.2077 -0.2855
  721MOL0     C97236   5.972   1.717   8.897  0.1937  0.8322  0.7457
  721MOL0     C97237   6.119   1.704   8.834  0.1577  0.4957  0.2249
  721MOL0     C97238   6.206   1.812   8.887  0.5996  0.6635 -0.5140
  721MOL0     C97239   6.346   1.792   8.832 -0.0124 -0.8443  0.0858
  721MOL0     C97240   6.441   1.811   8.953 -0.1883  0.9789  0.2494
  721MOL0     C97241   6.590   1.781   8.901  0.5707  0.0036 -0.1899
  721MOL0     C97242   6.673   1.755   9.027  0.8774 -0.1453  0.1583
  721MOL0     C97243   6.816   1.769   9.006 -0.3293 -1.1630  0.0379
  721MOL0    Cl97244   6.893   1.713   9.157  0.2065  0.1719  0.0965
  721MOL0     C97245   5.774   1.506   9.052 -0.0487 -0.5991 -0.7040
  721MOL0     C97246   5.653   1.514   9.124 -0.0695  0.0872  0.4340
  721MOL0     O97247   5.481   1.687   9.297  0.9577 -1.2943 -0.1307
  721MOL0     C97248   5.247   1.414   9.317 -0.5731  0.1327  0.1358
  721MOL0     C97249   5.159   1.355   9.405  0.1177  0.6725 -0.0498
  721MOL0     N97250   4.464   1.108   9.768 -0.2715  1.0474 -0.1533
  721MOL0     N97251   4.365   1.042   9.725  0.0118 -0.5731 -0.5989
  721MOL0     C97252   3.267   0.866   9.365 -0.1956 -0.7024 -0.2892
  721MOL0     C97253   3.129   0.852   9.360  0.2573 -0.3946 -0.9621
  721MOL0     C97254   2.696   0.852   9.405 -0.4617  1.1351  1.1253
  721MOL0     C97255   2.668   0.779   9.286  0.9970  0.2085  0.8272
  721MOL0     C97256   2.536   0.729   9.261 -0.1504  0.4508  0.3259
  721MOL0     C97257   2.430   0.758   9.349  0.0041  0.3123  0.0691
  721MOL0     O97258   2.312   0.713   9.308 -0.0558 -0.1294 -0.4267
  721MOL0     C97259   2.201   0.732   9.401  0.1830  1.2584 -0.5414
  721MOL0     C97260   2.069   0.703   9.327 -0.3059 -0.0539  0.1294
  721MOL0     C97261   2.048   0.800   9.219 -0.7490 -0.3580  0.5311
  721MOL0     C97262   1.902   0.837   9.188  0.1638 -0.0200  0.2417
  721MOL0     C97263   1.822   0.723   9.128 -0.5437  0.1224  0.7209
  721MOL0     C97264   1.748   0.635   9.100  0.3762 -0.6401 -0.2280
  721MOL0     C97265   2.458   0.834   9.458  0.3273 -0.5214 -0.0975
  721MOL0     C97266   2.588   0.878   9.499 -0.6558  0.6956  1.2267
  721MOL0     C97267   2.586   0.964   9.626  0.0928  0.8700  0.3834
  721MOL0     H97268   3.032   1.157   9.252  1.4585  1.3996  2.4416
  721MOL0     H97269   3.262   1.200   9.271  1.9856  0.0654 -2.4226
  721MOL0     H97270   3.472   1.204   9.294 -1.8457 -0.6000  0.5877
  721MOL0     H97271   3.502   1.155   9.464 -0.6140  1.6314 -0.3153
  721MOL0     H97272   3.700   1.222   9.380 -0.8131  0.2533 -0.5110
  721MOL0     H97273   3.690   1.109   9.243  1.1525 -4.3437  1.6285
  721MOL0     H97274   3.686   0.915   9.423  1.0507 -1.2199  1.5483
  721MOL0     H97275   3.707   1.049   9.538  1.3371 -3.0067  1.4418
  721MOL0     H97276   3.888   0.991   9.319 -4.1190 -1.7147 -0.9983
  721MOL0     H97277   3.910   1.104   9.456  2.8195 -1.0468  0.3659
  721MOL0     H97278   3.922   0.897   9.621  2.3907  0.8182  1.2378
  721MOL0     H97279   3.881   0.796   9.488 -0.6930  0.8965 -0.0234
  721MOL0     H97280   4.075   0.745   9.474 -3.1414 -0.0308 -1.6843
  721MOL0     H97281   4.112   0.880   9.366 -3.7175  2.4601 -1.0323
  721MOL0     H97282   4.146   0.870   9.677  0.0817  0.3109 -0.2999
  721MOL0     H97283   4.158   1.023   9.569  2.3658  1.1153 -2.4178
  721MOL0     H97284   4.321   0.772   9.547 -0.8159  0.4686  0.5353
  721MOL0     H97285   4.332   0.921   9.450  1.5902  2.3251  0.4328
  721MOL0     H97286   4.594   0.881   9.572 -1.0162 -0.8501 -1.1083
  721MOL0     H97287   4.720   1.180   9.807  0.9132 -1.3215  1.2089
  721MOL0     H97288   4.773   1.027   9.730 -1.9012 -3.0231 -3.0273
  721MOL0     H97289   4.783   1.101   9.524  3.8431 -1.2676  2.7378
  721MOL0     H97290   4.645   1.221   9.545 -0.2929  0.8419  3.0552
  721MOL0     H97291   4.814   1.357   9.680 -0.8518  2.3756 -0.8477
  721MOL0     H97292   4.855   1.341   9.502  3.5535 -1.0372 -1.9295
  721MOL0     H97293   5.038   1.178   9.554  0.8580  2.1874 -1.1903
  721MOL0     H97294   5.008   1.183   9.726  1.6196 -0.3528 -0.0962
  721MOL0     H97295   5.212   1.561   9.669 -0.3386  0.7860 -0.6197
  721MOL0     H97296   5.378   1.655   9.512  0.9397 -2.2013  2.1922
  721MOL0     H97297   5.458   1.667   8.904 -0.8101 -1.6208  0.2891
  721MOL0     H97298   5.689   1.707   8.795 -1.8332  1.2714 -0.7261
  721MOL0     H97299   5.913   1.800   8.856 -3.5727 -2.0983 -0.3059
  721MOL0     H97300   5.978   1.741   9.004 -0.7094 -0.2561  1.0548
  721MOL0     H97301   6.157   1.603   8.848 -1.1482 -0.0815 -0.2022
  721MOL0     H97302   6.121   1.726   8.727  1.0365  3.9658  0.8265
  721MOL0     H97303   6.166   1.905   8.845 -0.8040  0.1543 -0.3696
  721MOL0     H97304   6.192   1.821   8.995 -0.5681 -1.3830 -0.4352
  721MOL0     H97305   6.371   1.860   8.751  3.4344 -0.9669  0.8968
  721MOL0     H97306   6.364   1.695   8.785  0.8697  0.2476 -1.9232
  721MOL0     H97307   6.410   1.730   9.020  1.6375 -1.7015 -1.8959
  721MOL0     H97308   6.441   1.910   8.998  0.4901  0.8237  0.6034
  721MOL0     H97309   6.597   1.690   8.840 -0.6497 -2.1618  2.6991
  721MOL0     H97310   6.631   1.868   8.847 -0.4019  1.0512  0.7147
  721MOL0     H97311   6.645   1.655   9.063  0.0211 -0.0238 -0.1558
  721MOL0     H97312   6.645   1.825   9.106  1.1031  0.4511 -0.2840
  721MOL0     H97313   6.852   1.724   8.913  0.6791  1.9505 -1.2063
  721MOL0     H97314   6.834   1.877   9.001 -0.7005 -1.1570 -2.0439
  721MOL0     H97315   5.873   1.473   9.079  1.4093  0.0281 -4.6491
  721MOL0     H97316   5.650   1.456   9.215 -1.9883  2.9546  2.3772
  721MOL0     H97317   5.260   1.379   9.215  3.5298 -1.8971  1.1202
  721MOL0     H97318   5.106   1.272   9.359  1.5014 -1.4880  2.0148
  721MOL0     H97319   3.334   0.785   9.390 -0.6817 -0.6004  1.5080
  721MOL0     H97320   3.099   0.753   9.394  2.1267 -0.0833  1.9388
  721MOL0     H97321   2.752   0.751   9.223  1.6511 -0.2359  1.8716
  721MOL0     H97322   2.509   0.660   9.182  0.5546 -0.6325  1.0109
  721MOL0     H97323   2.185   0.836   9.432 -3.7007 -0.6896  5.7537
  721MOL0     H97324   2.222   0.665   9.485  1.3999 -0.1914 -1.9285
  721MOL0     H97325   1.991   0.720   9.402 -1.5666  0.7139 -1.2819
  721MOL0     H97326   2.055   0.600   9.293  1.9635  0.0542 -1.3864
  721MOL0     H97327   2.101   0.763   9.131  0.7905  1.6276  0.5449
  721MOL0     H97328   2.112   0.886   9.241 -1.2999 -0.1717  1.4915
  721MOL0     H97329   1.861   0.861   9.287  1.9106 -0.0647  1.0119
  721MOL0     H97330   1.900   0.926   9.125  1.0691  0.3233  0.6829
  721MOL0     H97331   1.682   0.558   9.066 -1.3871  1.6858 -2.5231
  721MOL0     H97332   2.379   0.882   9.515  0.4348  0.5663 -0.8224
  721MOL0     H97333   2.677   1.023   9.634  0.4783  0.4786 -0.8810
  721MOL0     H97334   2.495   1.023   9.642 -0.1767  0.0480  2.1644
  721MOL0     H97335   2.586   0.892   9.709 -0.1029 -0.5234 -0.7962
  722MOL0     O97336   2.042   5.477   6.004  1.0331  1.1050  0.8112
  722MOL0     C97337   1.938   5.550   6.003  0.9042 -0.3138 -0.4136
  722MOL0     O97338   1.919   5.676   6.073 -0.9029 -0.0481  0.2392
  722MOL0     C97339   1.992   5.687   6.183  0.1535  0.3258 -0.5863
  722MOL0     C97340   1.932   5.671   6.307  0.8025  0.1236 -1.0575
  722MOL0     C97341   2.002   5.691   6.428 -0.5788  0.6604  0.0573
  722MOL0     C97342   2.143   5.712   6.428  1.1819  0.6579  0.0613
  722MOL0     O97343   2.208   5.739   6.546 -0.4717 -0.1809  0.0914
  722MOL0     C97344   2.301   5.640   6.586  0.7259 -0.1431 -0.8850
  722MOL0     C97345   2.416   5.706   6.677 -0.6674  0.0631  0.1518
  722MOL0     C97346   2.544   5.624   6.704  0.5068 -0.9022  0.6060
  722MOL0     C97347   2.629   5.615   6.572 -0.0207  0.6813 -0.6005
  722MOL0     C97348   2.769   5.540   6.585 -0.0192 -0.6351  0.8340
  722MOL0     C97349   2.762   5.387   6.594 -0.3881 -0.2134  0.3585
  722MOL0     C97350   2.900   5.321   6.596 -0.5129  0.2554 -0.3569
  722MOL0     C97351   2.913   5.189   6.658  0.2894  0.4164  0.1553
  722MOL0     N97352   2.893   5.198   6.804  0.8212  0.0004 -1.1767
  722MOL0     C97353   2.993   5.238   6.891 -0.4728  0.3038 -0.0181
  722MOL0     C97354   2.942   5.208   7.016  0.0215  0.2374  0.4567
  722MOL0     C97355   3.022   5.236   7.139 -0.1888 -0.2434 -0.8811
  722MOL0     C97356   3.129   5.125   7.178  0.6543 -0.4825 -0.0251
  722MOL0     C97357   3.239   5.133   7.063  0.7782 -0.8582  0.3836
  722MOL0     C97358   3.360   5.035   7.076 -0.0111 -0.3797  0.2218
  722MOL0     O97359   3.300   4.908   7.080  0.4410 -0.8148 -0.3294
  722MOL0     C97360   3.372   4.800   7.119 -0.6048 -0.9466  0.2577
  722MOL0     C97361   3.516   4.793   7.113 -0.1181 -0.1678  0.1411
  722MOL0     C97362   3.582   4.684   7.171  0.0491  0.7382 -0.1220
  722MOL0     C97363   3.515   4.570   7.230 -0.9647  0.0160 -0.2567
  722MOL0     C97364   3.586   4.463   7.292  0.4155 -0.7357  0.0269
  722MOL0     O97365   3.722   4.457   7.276 -0.0585 -0.8074  0.4092
  722MOL0     C97366   3.790   4.348   7.322 -0.5498 -1.0719  0.0078
  722MOL0     C97367   3.885   4.293   7.236  0.5136  0.5158 -0.5816
  722MOL0     C97368   3.970   4.186   7.281 -0.7990  0.0427  0.7011
  722MOL0     C97369   3.955   4.142   7.414 -0.8059 -0.2027  0.3088
  722MOL0     O97370   4.041   4.047   7.464  1.0137  0.6620 -0.1927
  722MOL0     C97371   4.055   4.022   7.601 -1.2333 -0.3267 -0.6222
  722MOL0     C97372   4.191   3.952   7.624  0.6101  0.1050 -0.0618
  722MOL0     C97373   4.309   4.019   7.544  0.3659 -0.2733  0.4560
  722MOL0     C97374   4.327   3.972   7.400  0.9094 -0.4021 -0.1592
  722MOL0     C97375   4.407   3.842   7.388  0.6043 -1.2184  0.1164
  722MOL0     C97376   4.461   3.811   7.241 -0.2930  0.0530  0.2176
  722MOL0     C97377   4.537   3.674   7.238  0.2203  0.3360  0.3937
  722MOL0     C97378   4.675   3.680   7.305  0.3963 -1.2003 -0.1438
  722MOL0    Cl97379   4.758   3.516   7.294 -0.0158  0.2696 -0.2170
  722MOL0     C97380   3.853   4.200   7.498 -0.9469 -0.2261 -0.1216
  722MOL0     C97381   3.782   4.311   7.448 -0.0475  0.0278 -0.7866
  722MOL0     O97382   3.519   4.366   7.320 -0.5606 -0.5831  0.1528
  722MOL0     C97383   3.371   4.584   7.245 -0.0063  0.0532 -0.2549
  722MOL0     C97384   3.304   4.694   7.177  0.2615  0.8371  0.0191
  722MOL0     N97385   2.817   5.153   7.001 -0.0071 -0.1946 -0.9343
  722MOL0     N97386   2.787   5.146   6.879 -0.1489  0.4061 -0.1654
  722MOL0     C97387   2.203   5.719   6.303 -0.4545 -0.6305  0.3183
  722MOL0     C97388   2.125   5.715   6.185 -0.3758 -0.2429 -0.0217
  722MOL0     C97389   1.856   5.515   5.892  0.6447 -0.3396 -1.2265
  722MOL0     C97390   1.758   5.612   5.863  0.4218  0.5228 -0.3427
  722MOL0     C97391   1.664   5.593   5.767 -0.0038 -0.8980  0.5185
  722MOL0     C97392   1.665   5.476   5.684  0.4042  0.0457 -0.9051
  722MOL0     O97393   1.560   5.439   5.601  0.2548 -0.2570  0.0402
  722MOL0     C97394   1.462   5.540   5.566 -0.9150 -0.6270 -0.6129
  722MOL0     C97395   1.352   5.545   5.672  0.0393  0.4255  0.4394
  722MOL0     C97396   1.244   5.645   5.644  0.8202  0.4185 -0.1613
  722MOL0     C97397   1.301   5.766   5.568  0.0413 -0.0386  0.3133
  722MOL0     C97398   1.199   5.861   5.551  0.9334 -0.0188  1.4252
  722MOL0     C97399   1.120   5.953   5.543 -0.6858  0.1898 -0.1296
  722MOL0     C97400   1.761   5.385   5.706 -0.7877 -0.2059  0.2478
  722MOL0     C97401   1.850   5.396   5.812 -0.1000  0.3920 -0.0064
  722MOL0     C97402   1.943   5.270   5.820 -0.0265 -1.2075 -0.1395
  722MOL0     H97403   1.824   5.665   6.308  0.8833 -2.5840  0.8327
  722MOL0     H97404   1.935   5.682   6.512 -4.6763  0.6326 -2.9150
  722MOL0     H97405   2.255   5.562   6.647  4.2873 -0.7343  1.3635
  722MOL0     H97406   2.345   5.599   6.495  0.0023  1.0154 -1.7812
  722MOL0     H97407   2.379   5.740   6.774  1.5366 -1.6857  1.6986
  722MOL0     H97408   2.453   5.795   6.624  0.9845 -0.7553 -0.1170
  722MOL0     H97409   2.525   5.520   6.733  0.2687 -0.6977  1.2154
  722MOL0     H97410   2.598   5.670   6.787  0.9546 -0.2288 -0.0505
  722MOL0     H97411   2.572   5.562   6.496  0.2614 -2.6038  1.3020
  722MOL0     H97412   2.659   5.719   6.552  2.7762  0.0234 -0.1484
  722MOL0     H97413   2.822   5.566   6.493 -3.4851  1.6350 -0.7690
  722MOL0     H97414   2.820   5.580   6.674 -2.5557 -0.5946  2.3756
  722MOL0     H97415   2.701   5.356   6.679 -3.0561 -5.2647 -2.8907
  722MOL0     H97416   2.707   5.341   6.512  1.3407 -1.2063 -0.3026
  722MOL0     H97417   2.970   5.393   6.640 -0.6283  0.7480 -0.9740
  722MOL0     H97418   2.938   5.304   6.495 -0.3760 -0.0852 -0.2520
  722MOL0     H97419   2.836   5.130   6.608  1.1510  2.1504 -3.5836
  722MOL0     H97420   3.009   5.143   6.630  0.0033 -0.3312  0.3542
  722MOL0     H97421   3.089   5.272   6.852  0.3623 -0.1596  1.5424
  722MOL0     H97422   3.083   5.322   7.108 -0.8667 -0.5495 -3.2572
  722MOL0     H97423   2.953   5.258   7.221 -0.9932 -0.4154 -1.4988
  722MOL0     H97424   3.170   5.147   7.277 -1.7402  2.9642  0.3645
  722MOL0     H97425   3.074   5.031   7.181 -1.6523  0.8062  0.5290
  722MOL0     H97426   3.271   5.237   7.063 -2.2249  0.2130 -2.2100
  722MOL0     H97427   3.209   5.114   6.959  1.7366  1.6345 -0.4190
  722MOL0     H97428   3.413   5.054   7.171 -0.3264  3.7769 -0.2599
  722MOL0     H97429   3.426   5.056   6.991 -0.1393 -0.3616  0.1281
  722MOL0     H97430   3.572   4.875   7.069  1.4388 -1.9309 -1.3669
  722MOL0     H97431   3.690   4.679   7.156 -0.1729 -0.2824 -1.6058
  722MOL0     H97432   3.910   4.331   7.138  0.1032 -0.0205 -0.9046
  722MOL0     H97433   4.051   4.148   7.219  1.1992  2.0788  1.8723
  722MOL0     H97434   4.052   4.116   7.656  3.9313  1.4620 -2.7487
  722MOL0     H97435   3.977   3.954   7.637 -1.0905 -1.3631 -2.1610
  722MOL0     H97436   4.214   3.954   7.731 -0.7359  1.1150  0.2367
  722MOL0     H97437   4.182   3.847   7.594  1.5061 -0.8834  2.7879
  722MOL0     H97438   4.288   4.126   7.546  2.7036  0.2276  2.0700
  722MOL0     H97439   4.404   4.007   7.596  1.9323  0.3927 -2.0951
  722MOL0     H97440   4.381   4.049   7.344 -0.2259  1.4197  1.0978
  722MOL0     H97441   4.231   3.966   7.348  1.5671 -2.5901 -1.1980
  722MOL0     H97442   4.343   3.760   7.419 -2.2574  0.6769 -0.3972
  722MOL0     H97443   4.492   3.854   7.456  1.5498  0.5589 -1.2689
  722MOL0     H97444   4.379   3.814   7.169 -1.0513  0.8464  1.0786
  722MOL0     H97445   4.534   3.889   7.215  0.7600 -1.2655 -1.0097
  722MOL0     H97446   4.566   3.645   7.137 -0.3386 -1.1779  0.6370
  722MOL0     H97447   4.481   3.591   7.282 -0.1618  1.5756  2.3696
  722MOL0     H97448   4.737   3.750   7.247  0.5829 -1.3581 -0.1373
  722MOL0     H97449   4.665   3.720   7.406  1.0159  1.9727 -1.2090
  722MOL0     H97450   3.847   4.174   7.603  4.0449  0.3514  0.5730
  722MOL0     H97451   3.722   4.379   7.509  1.6077  1.1381 -0.3074
  722MOL0     H97452   3.315   4.507   7.297  1.5133 -1.2678 -0.4908
  722MOL0     H97453   3.196   4.692   7.163  0.4252 -0.3553 -1.2552
  722MOL0     H97454   2.308   5.740   6.287  0.1041 -2.0200  1.8702
  722MOL0     H97455   2.170   5.726   6.087  0.2858  0.6248  0.3732
  722MOL0     H97456   1.745   5.708   5.913 -0.1472  1.3029 -1.9424
  722MOL0     H97457   1.588   5.670   5.758  0.2822 -0.8954 -4.2190
  722MOL0     H97458   1.420   5.530   5.466 -0.1602 -0.8035 -0.9139
  722MOL0     H97459   1.520   5.632   5.557  3.9433 -3.4351 -1.7861
  722MOL0     H97460   1.389   5.564   5.773 -0.4236  0.4959  0.6012
  722MOL0     H97461   1.311   5.443   5.672  1.4547 -0.1718 -0.6235
  722MOL0     H97462   1.206   5.677   5.741  0.0772 -0.4042 -0.1732
  722MOL0     H97463   1.156   5.609   5.589  0.7182  2.0081 -1.1261
  722MOL0     H97464   1.386   5.808   5.623  0.9333 -3.0395  1.4445
  722MOL0     H97465   1.339   5.739   5.469  1.5887  2.6182  0.0914
  722MOL0     H97466   1.055   6.038   5.550 -0.5601  0.3782 -1.0224
  722MOL0     H97467   1.756   5.295   5.645  1.5580  0.8843 -1.7117
  722MOL0     H97468   1.963   5.249   5.925  0.3883  0.5508  0.1773
  722MOL0     H97469   1.907   5.177   5.777  0.4116 -1.5174  0.1580
  722MOL0     H97470   2.042   5.291   5.778 -0.1640 -2.1711 -0.9920
  723MOL0     O97471   2.491  10.448   5.986 -0.6082 -0.1993  0.3431
  723MOL0     C97472   2.426  10.343   5.977 -1.0722 -0.5174  0.2536
  723MOL0     O97473   2.478  10.214   5.979 -1.0290 -0.8043 -0.0539
  723MOL0     C97474   2.607  10.202   6.012  0.5826  0.1523 -0.0282
  723MOL0     C97475   2.703  10.168   5.933 -0.0187  0.2703  1.3824
  723MOL0     C97476   2.834  10.144   5.990  0.3877  0.9327 -0.1275
  723MOL0     C97477   2.864  10.176   6.117  0.7563 -0.7010  0.5696
  723MOL0     O97478   2.999  10.155   6.153  0.0906 -0.2823 -0.3801
  723MOL0     C97479   3.048  10.239   6.254 -0.2708 -0.0225 -0.3897
  723MOL0     C97480   3.195  10.270   6.227  0.3799 -0.2818  0.0497
  723MOL0     C97481   3.270  10.137   6.225  0.5139  1.1285  0.1777
  723MOL0     C97482   3.416  10.150   6.242 -0.2721 -0.0427 -0.5028
  723MOL0     C97483   3.484  10.029   6.205  0.8177  0.7191 -0.5698
  723MOL0     C97484   3.633  10.045   6.252  0.1960 -0.0627  0.8026
  723MOL0     C97485   3.711   9.925   6.211 -0.3281 -0.3819  0.0990
  723MOL0     C97486   3.844   9.949   6.274 -0.5272 -0.4086  0.4830
  723MOL0     N97487   3.833   9.907   6.416 -0.2995 -0.7559 -0.2110
  723MOL0     C97488   3.846   9.785   6.463 -0.7507 -0.1615 -0.3709
  723MOL0     C97489   3.809   9.798   6.596  0.0466  0.4725 -1.3032
  723MOL0     C97490   3.812   9.684   6.699  0.4195  0.2236  0.0950
  723MOL0     C97491   3.824   9.537   6.642  0.1633 -0.2065 -0.7427
  723MOL0     C97492   3.810   9.443   6.771  0.4161 -0.1372  1.3274
  723MOL0     C97493   3.947   9.392   6.814  0.0870 -0.1066 -0.0869
  723MOL0     O97494   4.017   9.515   6.862  0.2683  0.4184  0.1279
  723MOL0     C97495   4.128   9.498   6.942  0.2056  0.3289 -0.7049
  723MOL0     C97496   4.202   9.383   6.956 -0.5170  0.2076  0.8112
  723MOL0     C97497   4.319   9.388   7.040  0.0204  0.7883  0.7867
  723MOL0     C97498   4.356   9.510   7.103 -0.8764  0.2629 -0.2272
  723MOL0     C97499   4.494   9.533   7.168 -1.0701  0.5287 -0.5222
  723MOL0     O97500   4.566   9.419   7.177  0.2325 -0.2892 -0.1939
  723MOL0     C97501   4.680   9.414   7.246 -0.2933 -0.1000  0.2121
  723MOL0     C97502   4.798   9.460   7.186  0.2236 -0.8899  0.1032
  723MOL0     C97503   4.914   9.451   7.247  0.6004  0.0191 -0.0160
  723MOL0     C97504   4.920   9.400   7.375 -0.4005  0.6580 -0.6216
  723MOL0     O97505   5.042   9.386   7.449 -0.0433  0.0314  0.9349
  723MOL0     C97506   5.169   9.419   7.385  1.0399 -0.1785 -0.1327
  723MOL0     C97507   5.277   9.438   7.490 -0.0923  0.7783 -0.7643
  723MOL0     C97508   5.278   9.332   7.596  0.0372  0.7183  0.7218
  723MOL0     C97509   5.381   9.348   7.707  0.2243 -0.7180  0.0650
  723MOL0     C97510   5.361   9.240   7.808  0.3407  0.4691  0.0056
  723MOL0     C97511   5.484   9.212   7.904  0.6301 -0.7781  0.3251
  723MOL0     C97512   5.547   9.341   7.973  0.6327  1.2690 -0.2392
  723MOL0     C97513   5.670   9.302   8.052 -0.7461  0.0266 -0.1551
  723MOL0    Cl97514   5.821   9.248   7.952  0.3130  0.3697  0.0669
  723MOL0     C97515   4.796   9.367   7.445  0.1878  0.0048 -0.6828
  723MOL0     C97516   4.681   9.374   7.376 -1.0250  0.4247  0.2419
  723MOL0     O97517   4.528   9.644   7.221 -0.0025 -0.5298  0.4176
  723MOL0     C97518   4.266   9.618   7.098 -0.2081  0.0523 -0.5264
  723MOL0     C97519   4.152   9.614   7.021 -0.8422 -0.5546  0.2830
  723MOL0     N97520   3.779   9.923   6.626 -1.0602 -0.2965  0.1858
  723MOL0     N97521   3.807   9.992   6.521 -0.0675  0.4949 -0.0608
  723MOL0     C97522   2.760  10.228   6.198  0.0064 -0.6444  1.1197
  723MOL0     C97523   2.632  10.249   6.141  0.5243  0.0834  0.0812
  723MOL0     C97524   2.280  10.351   5.970 -0.2072  0.0607 -0.4671
  723MOL0     C97525   2.219  10.265   5.876  0.0108 -0.4296  0.1425
  723MOL0     C97526   2.075  10.271   5.855  0.0649  0.6628  0.1219
  723MOL0     C97527   1.993  10.356   5.929 -0.2023 -0.1840 -1.3371
  723MOL0     O97528   1.853  10.357   5.921 -0.8474 -0.3117 -0.2752
  723MOL0     C97529   1.778  10.267   5.849 -0.6783  0.5137  0.0071
  723MOL0     C97530   1.789  10.126   5.912 -0.3861  0.2218  0.0405
  723MOL0     C97531   1.708  10.017   5.844  0.4638  0.1054 -0.3405
  723MOL0     C97532   1.795   9.908   5.771 -0.7491 -0.6996  0.3458
  723MOL0     C97533   1.873   9.965   5.662  0.0306 -0.0660  0.0103
  723MOL0     C97534   1.945   9.999   5.578 -1.4164 -0.1229  0.3411
  723MOL0     C97535   2.062  10.453   6.017  0.1796  0.9183  0.1164
  723MOL0     C97536   2.199  10.450   6.038 -0.2698  0.0405  0.2984
  723MOL0     C97537   2.260  10.568   6.120  0.0340  0.6375 -0.4661
  723MOL0     H97538   2.684  10.140   5.830  0.7732  0.1272  1.2711
  723MOL0     H97539   2.913  10.096   5.933 -0.8125 -1.9853  0.4960
  723MOL0     H97540   3.006  10.338   6.272  1.8925  0.7318  0.8942
  723MOL0     H97541   3.041  10.184   6.348  2.6768  0.6807  0.3167
  723MOL0     H97542   3.246  10.338   6.297  2.3382  0.2117 -1.7497
  723MOL0     H97543   3.209  10.315   6.128 -1.5859 -1.1185 -0.6570
  723MOL0     H97544   3.235  10.072   6.145 -1.6515  1.5931  0.6876
  723MOL0     H97545   3.245  10.080   6.315 -2.3024 -0.7096 -1.6264
  723MOL0     H97546   3.462  10.222   6.174  0.1871 -3.4500 -4.1495
  723MOL0     H97547   3.433  10.178   6.347 -2.2946  3.1526 -0.8945
  723MOL0     H97548   3.434   9.942   6.248  0.4972  0.0011 -2.3123
  723MOL0     H97549   3.472  10.010   6.098  0.6836 -3.1675 -0.0383
  723MOL0     H97550   3.677  10.136   6.211 -1.1102  0.9300  1.5176
  723MOL0     H97551   3.636  10.055   6.361 -1.3280  1.8350  0.7322
  723MOL0     H97552   3.715   9.919   6.102 -2.0712  6.1426 -0.7549
  723MOL0     H97553   3.671   9.834   6.257 -1.0450 -1.5642 -2.6793
  723MOL0     H97554   3.907   9.886   6.211  0.9251  0.3335  1.1512
  723MOL0     H97555   3.872  10.055   6.266  1.4392 -0.9884 -1.3348
  723MOL0     H97556   3.880   9.693   6.416 -0.2478 -0.7932  1.1600
  723MOL0     H97557   3.879   9.694   6.785  1.5936 -3.8215 -0.1342
  723MOL0     H97558   3.709   9.682   6.735 -0.6022  5.3014 -1.6863
  723MOL0     H97559   3.747   9.515   6.567 -0.6631 -0.6384  0.2001
  723MOL0     H97560   3.916   9.526   6.584 -0.0348  0.3611 -1.1751
  723MOL0     H97561   3.754   9.355   6.739  0.9563  0.3251 -1.0798
  723MOL0     H97562   3.764   9.498   6.854  1.1014 -0.8892  2.2313
  723MOL0     H97563   4.003   9.343   6.734 -0.6874 -1.7923  0.3509
  723MOL0     H97564   3.929   9.321   6.895  0.1032  1.7527  1.6330
  723MOL0     H97565   4.176   9.288   6.910 -1.1820  1.5395 -1.7637
  723MOL0     H97566   4.382   9.300   7.033 -2.2470 -0.7773 -2.0859
  723MOL0     H97567   4.787   9.512   7.091 -1.6331  2.3638  1.9012
  723MOL0     H97568   4.998   9.485   7.187  0.7175 -1.6728 -0.8659
  723MOL0     H97569   5.188   9.330   7.324  2.7968  0.1466 -0.1092
  723MOL0     H97570   5.163   9.503   7.315 -0.1882  0.6327  0.8716
  723MOL0     H97571   5.374   9.439   7.439  0.3247  2.1547  0.0002
  723MOL0     H97572   5.258   9.531   7.545 -0.7727 -0.7906  1.8262
  723MOL0     H97573   5.177   9.310   7.631  0.3595 -0.6631  0.8211
  723MOL0     H97574   5.318   9.249   7.537  0.8048  2.9433 -2.1625
  723MOL0     H97575   5.356   9.448   7.745  1.0937  1.3724 -4.3063
  723MOL0     H97576   5.480   9.340   7.663  1.0020  2.6610  0.9272
  723MOL0     H97577   5.337   9.147   7.756  2.7320 -0.5218  0.5555
  723MOL0     H97578   5.271   9.257   7.869  0.2720  0.5993 -0.1331
  723MOL0     H97579   5.458   9.143   7.984  1.5693 -0.0252  1.3131
  723MOL0     H97580   5.564   9.162   7.850  0.1608 -0.1318 -1.0228
  723MOL0     H97581   5.480   9.378   8.052  2.1158  0.6331  1.3851
  723MOL0     H97582   5.562   9.420   7.898 -0.7025  1.0579 -0.7578
  723MOL0     H97583   5.704   9.380   8.120 -1.6087  0.4219 -0.1670
  723MOL0     H97584   5.635   9.233   8.129 -2.2229  3.0687  2.1128
  723MOL0     H97585   4.790   9.342   7.550 -0.9679 -0.9574 -0.9557
  723MOL0     H97586   4.581   9.349   7.413 -0.5139  1.1364  2.2413
  723MOL0     H97587   4.285   9.714   7.143 -0.6452  0.1729 -0.5939
  723MOL0     H97588   4.083   9.697   7.010  2.2104  3.0304  4.4497
  723MOL0     H97589   2.777  10.252   6.302  1.6108  1.1380  0.4903
  723MOL0     H97590   2.554  10.295   6.202 -1.6494 -2.3843 -0.6810
  723MOL0     H97591   2.277  10.186   5.829  2.8491  0.5649  1.6897
  723MOL0     H97592   2.043  10.210   5.771 -1.0218 -1.6534  2.0938
  723MOL0     H97593   1.822  10.256   5.750 -1.5279 -2.8386 -0.1123
  723MOL0     H97594   1.674  10.300   5.843 -0.9964 -0.2101  1.1171
  723MOL0     H97595   1.747  10.142   6.011  0.8313 -1.7985  0.9503
  723MOL0     H97596   1.893  10.098   5.935 -0.3017  1.6812  1.6528
  723MOL0     H97597   1.637  10.064   5.775  1.5154  0.8141 -0.9822
  723MOL0     H97598   1.652   9.948   5.906 -0.4983  0.0600 -1.2307
  723MOL0     H97599   1.855   9.853   5.843 -2.1736  0.2939  2.4119
  723MOL0     H97600   1.726   9.837   5.724  0.1183 -0.3293 -1.5778
  723MOL0     H97601   2.010  10.020   5.496 -2.2659  1.2851 -0.0099
  723MOL0     H97602   2.009  10.539   6.054 -0.2279  1.7304 -2.2269
  723MOL0     H97603   2.175  10.618   6.167  0.7009  2.1159 -0.7848
  723MOL0     H97604   2.321  10.523   6.199 -1.2140 -1.8892 -0.8523
  723MOL0     H97605   2.319  10.635   6.056  2.6446 -1.7293 -0.7454
  724MOL0     O97606   8.360   9.334   4.080 -1.0507  0.0581  0.3475
  724MOL0     C97607   8.297   9.426   4.116  0.3387 -0.0778 -0.4992
  724MOL0     O97608   8.340   9.555   4.135 -0.0008  0.3812  0.0822
  724MOL0     C97609   8.476   9.555   4.157  0.3471 -0.6109 -0.9421
  724MOL0     C97610   8.519   9.627   4.270  0.6155  1.0072  0.1231
  724MOL0     C97611   8.646   9.655   4.292 -0.4709 -0.8027  0.4462
  724MOL0     C97612   8.742   9.628   4.196  0.0717 -0.4214  0.1927
  724MOL0     O97613   8.866   9.677   4.229  0.6780  0.6724 -0.0394
  724MOL0     C97614   8.972   9.637   4.138  0.3880  0.0235  0.0165
  724MOL0     C97615   9.106   9.691   4.190 -0.1424  0.1940 -0.7250
  724MOL0     C97616   9.140   9.829   4.141  0.0610  0.2252 -0.2147
  724MOL0     C97617   9.203   9.829   4.006 -0.3946  0.4767 -1.0993
  724MOL0     C97618   9.231   9.957   3.932 -0.2524 -0.2512  0.7368
  724MOL0     C97619   9.103  10.044   3.909  0.4942  0.0151  1.0291
  724MOL0     C97620   9.001   9.989   3.807 -0.0062 -0.1690  0.0778
  724MOL0     C97621   8.861  10.056   3.812  0.1448  0.1667  0.7455
  724MOL0     N97622   8.872  10.203   3.823  0.5777  0.3294  0.1016
  724MOL0     C97623   8.925  10.296   3.737  0.6533  0.7097 -0.1371
  724MOL0     C97624   8.917  10.419   3.800 -0.6621 -0.3183  0.1126
  724MOL0     C97625   8.963  10.553   3.742 -0.0457 -0.0079  0.0482
  724MOL0     C97626   9.067  10.623   3.825  0.3768  0.8972 -0.4497
  724MOL0     C97627   9.192  10.541   3.857 -0.5569  0.4557 -0.4714
  724MOL0     C97628   9.290  10.531   3.739 -0.4695  0.2536  0.2766
  724MOL0     O97629   9.329  10.667   3.706 -0.2134  1.1201 -0.0999
  724MOL0     C97630   9.456  10.694   3.723 -0.1639  0.5126  0.8584
  724MOL0     C97631   9.542  10.658   3.831  0.7622 -0.8192 -0.5885
  724MOL0     C97632   9.674  10.707   3.838  0.7821  0.2046 -0.9433
  724MOL0     C97633   9.726  10.797   3.743 -0.1593 -0.2977 -0.1934
  724MOL0     C97634   9.863  10.861   3.761  0.5328 -0.1166 -0.6779
  724MOL0     O97635   9.918  10.831   3.889  0.2591  0.1150  0.5392
  724MOL0     C97636  10.020  10.901   3.938 -0.4712  0.1512  0.3426
  724MOL0     C97637  10.003  10.944   4.076 -0.2778  0.4756  1.1524
  724MOL0     C97638  10.102  11.006   4.149 -1.2552  0.2929 -0.4739
  724MOL0     C97639  10.229  11.023   4.097  0.3403  0.1854 -0.0491
  724MOL0     O97640  10.326  11.067   4.186  0.6213  0.3042 -0.2764
  724MOL0     C97641  10.438  11.133   4.130  0.3802  0.1152  0.0439
  724MOL0     C97642  10.532  11.188   4.238  0.3740  1.0904  0.4179
  724MOL0     C97643  10.485  11.319   4.293  0.7689  0.1147 -0.1857
  724MOL0     C97644  10.603  11.387   4.356 -0.5782 -0.4894 -0.2912
  724MOL0     C97645  10.586  11.533   4.401  0.6638  0.3860 -0.2817
  724MOL0     C97646  10.488  11.541   4.518  0.4433 -0.6273 -0.6467
  724MOL0     C97647  10.455  11.693   4.555  0.0435 -0.3235 -0.8074
  724MOL0     C97648  10.370  11.717   4.682 -0.6434 -0.2440  0.1018
  724MOL0    Cl97649  10.234  11.591   4.697 -0.3081 -0.1273  0.4300
  724MOL0     C97650  10.241  10.983   3.964 -0.9643  0.9984  0.3256
  724MOL0     C97651  10.141  10.932   3.880  0.1555  0.7681 -0.4168
  724MOL0     O97652   9.921  10.912   3.672  0.3616  0.4272  0.6345
  724MOL0     C97653   9.655  10.813   3.621 -0.1761  0.6594 -1.0558
  724MOL0     C97654   9.520  10.764   3.616 -0.4333  0.4881 -0.8825
  724MOL0     N97655   8.861  10.403   3.924 -0.2411 -0.0687 -0.0369
  724MOL0     N97656   8.831  10.271   3.932 -0.5494 -0.4511 -0.5072
  724MOL0     C97657   8.701   9.568   4.077 -0.2175 -0.0786  0.1250
  724MOL0     C97658   8.571   9.523   4.052 -0.6122  0.4357 -0.6915
  724MOL0     C97659   8.147   9.421   4.147  0.0724  0.2243  0.2771
  724MOL0     C97660   8.064   9.534   4.181  0.0674 -0.6504  0.2583
  724MOL0     C97661   7.926   9.528   4.211  1.2398  1.4613 -0.2939
  724MOL0     C97662   7.858   9.407   4.196 -0.0435  1.2601  0.5048
  724MOL0     O97663   7.723   9.380   4.234 -1.0035  0.6106 -0.0279
  724MOL0     C97664   7.622   9.483   4.245 -0.3544 -1.0034  0.0318
  724MOL0     C97665   7.499   9.429   4.312  0.3009  0.3320  0.5069
  724MOL0     C97666   7.449   9.286   4.256 -0.1506 -0.3748 -0.0232
  724MOL0     C97667   7.386   9.317   4.119  0.3611 -0.3209 -0.1235
  724MOL0     C97668   7.350   9.188   4.043  0.6022 -1.6904 -0.1641
  724MOL0     C97669   7.323   9.087   3.982 -0.2915 -0.6340  0.0184
  724MOL0     C97670   7.930   9.290   4.168 -0.3684 -0.2854  0.1691
  724MOL0     C97671   8.069   9.299   4.136  0.3762 -0.4543  0.5136
  724MOL0     C97672   8.133   9.169   4.102  0.7894 -0.9395 -0.5332
  724MOL0     H97673   8.433   9.643   4.333 -0.8968 -3.8523 -0.3222
  724MOL0     H97674   8.680   9.703   4.383  1.3854 -1.4452  0.1481
  724MOL0     H97675   8.970   9.528   4.126 -3.3103 -0.0961  0.7690
  724MOL0     H97676   8.939   9.683   4.044 -1.5279 -0.4574  0.4183
  724MOL0     H97677   9.183   9.623   4.152 -1.1459  0.4169 -3.4118
  724MOL0     H97678   9.105   9.677   4.298  3.1300 -1.8071 -0.8421
  724MOL0     H97679   9.218   9.866   4.209 -0.5088 -0.6381  0.9491
  724MOL0     H97680   9.052   9.892   4.155  1.4165  1.8133  1.7326
  724MOL0     H97681   9.293   9.767   4.015 -1.2775 -0.5938  1.3570
  724MOL0     H97682   9.131   9.768   3.951  0.7230 -1.4646 -0.5239
  724MOL0     H97683   9.310  10.019   3.975 -1.1551  0.4709  1.3869
  724MOL0     H97684   9.266   9.934   3.831  0.4244  3.9571 -0.1697
  724MOL0     H97685   9.054  10.073   4.003  1.1536  0.4546  1.2393
  724MOL0     H97686   9.145  10.139   3.876  1.7621 -0.1594  2.0501
  724MOL0     H97687   9.004   9.881   3.821  1.9395 -0.0941  0.4263
  724MOL0     H97688   9.040  10.017   3.708 -1.8614  1.2759 -0.3135
  724MOL0     H97689   8.797  10.031   3.727  1.7180  0.4734 -0.5763
  724MOL0     H97690   8.816  10.019   3.905 -0.0778  2.8708  1.8176
  724MOL0     H97691   8.974  10.269   3.644 -3.7482 -2.5143 -1.8645
  724MOL0     H97692   8.988  10.539   3.637 -0.5825 -2.1045  0.1419
  724MOL0     H97693   8.877  10.619   3.728  0.2330 -0.2903 -4.3971
  724MOL0     H97694   9.105  10.723   3.800  1.3533  1.0351  1.4069
  724MOL0     H97695   9.013  10.631   3.920 -1.9233 -0.0203 -1.6155
  724MOL0     H97696   9.160  10.439   3.881  0.4939 -0.8610 -3.9783
  724MOL0     H97697   9.237  10.584   3.947  1.7332 -1.0184 -0.8234
  724MOL0     H97698   9.234  10.487   3.656  0.5231 -0.3481 -0.0883
  724MOL0     H97699   9.370  10.461   3.762 -2.3097 -1.0399  3.4446
  724MOL0     H97700   9.505  10.600   3.915 -0.3657 -2.2213 -1.9770
  724MOL0     H97701   9.736  10.684   3.924 -0.3886  1.5452  0.3096
  724MOL0     H97702   9.917  10.908   4.131  1.2805 -4.3206  0.9692
  724MOL0     H97703  10.093  11.048   4.249  2.2588 -0.4649  0.3195
  724MOL0     H97704  10.498  11.062   4.071  1.0597  1.6237 -1.1749
  724MOL0     H97705  10.405  11.211   4.061 -1.1702  2.1282  2.8652
  724MOL0     H97706  10.547  11.118   4.321  0.5996 -1.6568 -1.7646
  724MOL0     H97707  10.629  11.195   4.187 -0.2736 -1.4157 -1.3830
  724MOL0     H97708  10.440  11.382   4.216 -1.3410 -3.2676 -1.9695
  724MOL0     H97709  10.411  11.300   4.371  1.1891 -1.8559 -0.2134
  724MOL0     H97710  10.692  11.381   4.292 -1.5341  0.6255 -1.7903
  724MOL0     H97711  10.629  11.329   4.445  0.0211 -0.8379 -0.6787
  724MOL0     H97712  10.548  11.596   4.321  0.0503 -1.7938 -1.7988
  724MOL0     H97713  10.685  11.557   4.442  0.2847  0.0556  0.8858
  724MOL0     H97714  10.396  11.490   4.492 -1.9588  1.8873  2.1015
  724MOL0     H97715  10.536  11.493   4.604  0.6134 -2.3931 -1.6747
  724MOL0     H97716  10.393  11.738   4.476  0.4910  3.4672  0.8015
  724MOL0     H97717  10.552  11.742   4.568  0.6700 -1.7121  0.0782
  724MOL0     H97718  10.437  11.718   4.769  0.2100 -0.8329 -0.5339
  724MOL0     H97719  10.318  11.813   4.681 -2.5520 -1.2006  1.4132
  724MOL0     H97720  10.336  10.988   3.911  0.1510  0.8531  2.2101
  724MOL0     H97721  10.163  10.886   3.784  1.9837 -1.2495  0.8906
  724MOL0     H97722   9.692  10.852   3.527  0.4680 -1.5902 -1.8065
  724MOL0     H97723   9.460  10.783   3.527  0.0334 -0.1871 -1.3462
  724MOL0     H97724   8.771   9.552   3.995 -0.8265 -0.1278 -0.3877
  724MOL0     H97725   8.541   9.485   3.955  1.5071 -1.0265 -0.8463
  724MOL0     H97726   8.109   9.633   4.184 -0.9452 -0.1373 -0.6205
  724MOL0     H97727   7.864   9.613   4.235 -2.4741 -0.8577 -0.8772
  724MOL0     H97728   7.602   9.521   4.145 -0.3008  0.1035  0.4274
  724MOL0     H97729   7.657   9.575   4.293 -0.5138 -2.2798  2.8450
  724MOL0     H97730   7.412   9.495   4.311 -1.3127 -1.7070 -1.5014
  724MOL0     H97731   7.513   9.420   4.420 -2.0859  2.6071  1.1123
  724MOL0     H97732   7.375   9.238   4.321 -0.5737  0.1773 -0.0914
  724MOL0     H97733   7.535   9.220   4.245 -0.4108 -0.4871 -1.6573
  724MOL0     H97734   7.298   9.379   4.135  0.7030  0.0749  0.2693
  724MOL0     H97735   7.447   9.380   4.053 -1.7726  3.4020  1.1899
  724MOL0     H97736   7.324   8.995   3.927 -2.9517 -2.2680  2.4103
  724MOL0     H97737   7.878   9.196   4.155 -0.5301 -0.3878  1.4255
  724MOL0     H97738   8.199   9.141   4.184  1.0777  1.5551  0.1758
  724MOL0     H97739   8.064   9.085   4.090  0.3513 -0.6899  0.1882
  724MOL0     H97740   8.190   9.178   4.009 -1.3925  0.6764 -1.8160
  725MOL0     O97741   5.657   3.031   8.574  0.1133  0.7102 -0.4710
  725MOL0     C97742   5.702   3.107   8.663  0.4081  0.6655  0.1214
  725MOL0     O97743   5.655   3.120   8.787 -0.2598  0.0279  0.5698
  725MOL0     C97744   5.540   3.072   8.836 -0.5573  0.6057  0.2522
  725MOL0     C97745   5.501   3.129   8.960  0.6243  0.6552  1.3594
  725MOL0     C97746   5.400   3.068   9.029 -0.1271  1.5317 -0.8711
  725MOL0     C97747   5.324   2.961   8.985 -0.1845 -0.1501  0.2931
  725MOL0     O97748   5.225   2.922   9.064  0.5889 -0.3071  0.4648
  725MOL0     C97749   5.192   2.787   9.054  0.1613  0.0032 -0.3857
  725MOL0     C97750   5.140   2.747   9.194 -0.2637  0.3739  0.2863
  725MOL0     C97751   5.169   2.592   9.199 -0.0367  0.0075  0.4081
  725MOL0     C97752   5.120   2.512   9.319 -0.0390  0.8694  0.0171
  725MOL0     C97753   5.166   2.359   9.310  0.6952 -0.2526 -0.7603
  725MOL0     C97754   5.125   2.278   9.434 -0.9580  0.1107  0.6766
  725MOL0     C97755   5.118   2.356   9.570 -0.0858  0.7115  0.0618
  725MOL0     C97756   5.055   2.269   9.680  0.4401  0.0678  0.0542
  725MOL0     N97757   5.053   2.353   9.803  0.7891  0.6190 -0.6746
  725MOL0     C97758   5.161   2.372   9.885  0.3177  0.6722  0.4343
  725MOL0     C97759   5.104   2.437   9.988 -0.3381 -0.2175  0.7979
  725MOL0     C97760   5.172   2.471  10.123  0.3982  0.8446  1.1534
  725MOL0     C97761   5.148   2.349  10.226  0.5049  0.0070  0.6457
  725MOL0     C97762   5.254   2.349  10.343  0.0224 -0.7745 -0.9237
  725MOL0     C97763   5.404   2.309  10.309  0.7174 -0.2582 -0.6724
  725MOL0     O97764   5.395   2.213  10.204  0.4387 -0.2384 -0.0902
  725MOL0     C97765   5.516   2.164  10.170  0.0319 -0.3838 -0.0730
  725MOL0     C97766   5.613   2.107  10.257  1.2321 -0.9605  1.1816
  725MOL0     C97767   5.733   2.063  10.204 -0.3713 -0.2508  0.2548
  725MOL0     C97768   5.765   2.060  10.071 -0.5694  0.2444 -0.4363
  725MOL0     C97769   5.899   2.030  10.023 -0.0160  0.1704  0.6786
  725MOL0     O97770   5.938   2.057   9.899  0.3226  0.4654 -0.3336
  725MOL0     C97771   6.071   2.033   9.856  0.1610  0.1345  0.4555
  725MOL0     C97772   6.178   2.110   9.901  0.2391 -0.3014  0.1737
  725MOL0     C97773   6.313   2.096   9.848  0.9126  0.4695 -0.2906
  725MOL0     C97774   6.327   2.001   9.744  0.7584 -0.4297  0.8241
  725MOL0     O97775   6.455   2.001   9.700  0.1830  0.3025 -0.0767
  725MOL0     C97776   6.497   1.913   9.595 -0.0693 -1.1284 -0.0860
  725MOL0     C97777   6.652   1.923   9.607  0.7407 -0.2195 -0.7011
  725MOL0     C97778   6.700   2.068   9.564 -0.2631  0.6535 -0.2203
  725MOL0     C97779   6.852   2.068   9.558  0.8925 -0.3091  0.0478
  725MOL0     C97780   6.920   2.204   9.531 -0.3479 -0.4416 -0.2563
  725MOL0     C97781   6.949   2.295   9.648 -0.0907 -1.0583 -0.0492
  725MOL0     C97782   7.013   2.434   9.615 -0.1528  0.0023  0.7289
  725MOL0     C97783   7.150   2.425   9.555  0.3581 -0.3136  0.4028
  725MOL0    Cl97784   7.263   2.322   9.641 -0.4362  0.2069 -0.0989
  725MOL0     C97785   6.212   1.938   9.680  0.5072  0.0214  0.1400
  725MOL0     C97786   6.085   1.953   9.736 -0.1663  0.2510 -1.0874
  725MOL0     O97787   5.977   1.981  10.103 -0.0407 -0.4737  0.0043
  725MOL0     C97788   5.661   2.097   9.985 -0.2538  0.9446  0.0090
  725MOL0     C97789   5.538   2.146  10.034  1.3479  0.7821 -0.1248
  725MOL0     N97790   4.968   2.454   9.975 -0.7529 -0.1256  0.1698
  725MOL0     N97791   4.945   2.396   9.863 -0.0238  0.0784  0.5818
  725MOL0     C97792   5.357   2.914   8.855 -0.4691  0.1093  1.0127
  725MOL0     C97793   5.475   2.958   8.795 -0.3322  0.3618  0.6823
  725MOL0     C97794   5.820   3.187   8.629 -0.3252 -0.4098 -0.2913
  725MOL0     C97795   5.825   3.225   8.492  0.4192 -0.7412 -0.5614
  725MOL0     C97796   5.929   3.313   8.439 -0.5691  0.0887 -0.9207
  725MOL0     C97797   6.031   3.349   8.528  0.6146  0.6083  0.1860
  725MOL0     O97798   6.139   3.408   8.473 -0.5350 -1.0870 -0.2540
  725MOL0     C97799   6.185   3.524   8.538  0.8145 -0.4421  0.3017
  725MOL0     C97800   6.338   3.515   8.551  0.3299  1.2177  0.3359
  725MOL0     C97801   6.417   3.533   8.425  0.9897  0.0546  0.0735
  725MOL0     C97802   6.569   3.504   8.437 -0.0632 -0.7357  0.9301
  725MOL0     C97803   6.623   3.470   8.301  0.3340 -0.8274 -0.5540
  725MOL0     C97804   6.651   3.422   8.193  0.5911 -0.4819 -0.8646
  725MOL0     C97805   6.024   3.312   8.660  0.3131  0.3681 -0.0488
  725MOL0     C97806   5.924   3.227   8.716  0.7555 -0.8536 -1.4078
  725MOL0     C97807   5.940   3.190   8.862  0.4691  0.1969  0.1581
  725MOL0     H97808   5.553   3.214   9.002 -1.6844  0.9056  3.9811
  725MOL0     H97809   5.380   3.119   9.122 -2.4054  2.5787 -1.8573
  725MOL0     H97810   5.110   2.773   8.984 -0.4480  3.9337 -0.6847
  725MOL0     H97811   5.277   2.728   9.019 -1.6071 -1.9844 -1.5687
  725MOL0     H97812   5.035   2.776   9.198 -0.6953 -1.1826  1.8668
  725MOL0     H97813   5.188   2.801   9.276 -0.8750 -0.5945  1.3273
  725MOL0     H97814   5.276   2.583   9.182 -0.0278  1.1350 -0.2184
  725MOL0     H97815   5.114   2.551   9.114  1.1099 -0.4977 -0.1108
  725MOL0     H97816   5.166   2.562   9.405 -1.0857  0.7172  0.6797
  725MOL0     H97817   5.011   2.512   9.317 -0.1409 -0.3947  2.2835
  725MOL0     H97818   5.127   2.316   9.217 -2.2030  2.5387 -1.0018
  725MOL0     H97819   5.275   2.352   9.303  0.7648 -1.8290  1.0130
  725MOL0     H97820   5.029   2.232   9.411 -0.5302 -1.3747  1.7445
  725MOL0     H97821   5.187   2.188   9.438  0.2725  0.6965 -2.2743
  725MOL0     H97822   5.053   2.442   9.550 -0.8107 -0.0088 -0.7219
  725MOL0     H97823   5.214   2.398   9.602 -0.0478  0.1258  0.7438
  725MOL0     H97824   4.952   2.246   9.650  0.1545  1.4433 -0.1215
  725MOL0     H97825   5.113   2.177   9.688 -0.7972 -1.3122 -4.0166
  725MOL0     H97826   5.263   2.337   9.873  0.1920  0.5832 -0.4166
  725MOL0     H97827   5.279   2.484  10.106  0.3906  1.1748  1.3581
  725MOL0     H97828   5.128   2.564  10.160  1.7193  2.5587 -1.3404
  725MOL0     H97829   5.042   2.362  10.253 -0.2376 -3.1853 -0.3435
  725MOL0     H97830   5.140   2.255  10.171 -5.1731  0.1969  0.4957
  725MOL0     H97831   5.216   2.286  10.424 -0.0841 -3.8528 -3.1968
  725MOL0     H97832   5.265   2.453  10.376 -2.1872 -1.0631  0.9385
  725MOL0     H97833   5.451   2.269  10.400  2.2558  2.9132  0.0753
  725MOL0     H97834   5.468   2.392  10.279  0.5241 -0.7723 -2.6233
  725MOL0     H97835   5.598   2.100  10.365 -0.6473  4.0510  1.5416
  725MOL0     H97836   5.812   2.042  10.275 -0.4887  0.5410  0.6382
  725MOL0     H97837   6.178   2.181   9.984  2.6525  0.8521 -0.7349
  725MOL0     H97838   6.404   2.140   9.887  2.9108  0.5130 -4.4125
  725MOL0     H97839   6.466   1.808   9.600 -0.5585 -0.9730  0.1757
  725MOL0     H97840   6.465   1.934   9.493  4.6324 -2.6459 -2.1632
  725MOL0     H97841   6.684   1.899   9.709  0.2859  0.8732 -0.2747
  725MOL0     H97842   6.697   1.851   9.539 -0.7057 -0.6373 -1.2537
  725MOL0     H97843   6.654   2.089   9.467  1.1815 -3.5545 -2.0760
  725MOL0     H97844   6.666   2.144   9.635  1.4273  0.6602  0.6143
  725MOL0     H97845   6.891   2.003   9.479 -4.0563 -1.3148 -1.9274
  725MOL0     H97846   6.877   2.025   9.656 -1.6420 -2.5298 -0.1578
  725MOL0     H97847   6.864   2.266   9.460 -1.7682  0.2185  1.3874
  725MOL0     H97848   7.016   2.171   9.489 -0.6197 -1.8932  0.2139
  725MOL0     H97849   6.855   2.304   9.703  0.7401 -1.4436  1.5010
  725MOL0     H97850   7.016   2.240   9.714  0.5169 -2.0842 -1.4681
  725MOL0     H97851   7.015   2.497   9.704 -0.2535  0.2807  0.5357
  725MOL0     H97852   6.962   2.487   9.534  1.2360  1.9646  1.0512
  725MOL0     H97853   7.150   2.390   9.451  2.0242  1.8207 -0.3857
  725MOL0     H97854   7.188   2.527   9.556  0.0900 -0.2054 -0.3762
  725MOL0     H97855   6.219   1.874   9.593 -0.4491  1.7206 -1.2445
  725MOL0     H97856   5.996   1.907   9.694 -0.2812  1.3188 -2.0975
  725MOL0     H97857   5.687   2.095   9.879  1.8408  2.2658  0.4526
  725MOL0     H97858   5.465   2.192   9.969 -0.4646 -0.0674  1.2148
  725MOL0     H97859   5.299   2.841   8.800 -1.5076  0.3194  1.7872
  725MOL0     H97860   5.502   2.899   8.708  1.5532 -3.2248  3.4387
  725MOL0     H97861   5.752   3.186   8.423  2.0670 -1.3820 -2.0217
  725MOL0     H97862   5.942   3.324   8.332 -2.0112  1.6441 -0.9803
  725MOL0     H97863   6.141   3.535   8.638  2.2053 -1.5348  1.0720
  725MOL0     H97864   6.141   3.606   8.481 -0.6737  2.4953  5.0730
  725MOL0     H97865   6.353   3.422   8.605 -0.8722  0.7378 -0.1358
  725MOL0     H97866   6.374   3.592   8.620  0.6127  0.8615  0.5908
  725MOL0     H97867   6.407   3.638   8.395 -2.3598 -0.7922 -2.4762
  725MOL0     H97868   6.371   3.481   8.340  3.0602  0.0042 -1.0713
  725MOL0     H97869   6.631   3.584   8.478  1.0383 -0.2641 -1.4854
  725MOL0     H97870   6.593   3.427   8.510  0.6901  0.1580  1.6417
  725MOL0     H97871   6.670   3.367   8.103 -2.0070 -2.8733 -0.1120
  725MOL0     H97872   6.101   3.349   8.727  1.5786 -3.8262  1.1092
  725MOL0     H97873   5.877   3.104   8.888  0.9729 -1.7710 -4.3537
  725MOL0     H97874   6.043   3.158   8.876 -0.0355 -0.6554  2.3522
  725MOL0     H97875   5.909   3.275   8.924 -3.8382  0.9690 -2.5795
  726MOL0     O97876   2.179   4.043   5.060 -0.1832 -0.5729 -0.6189
  726MOL0     C97877   2.225   4.062   5.172  0.6484  1.1570  0.4006
  726MOL0     O97878   2.360   4.088   5.192 -0.2070  0.6066  0.0884
  726MOL0     C97879   2.433   4.087   5.080  0.2981 -0.3613  0.1427
  726MOL0     C97880   2.426   4.191   4.990  0.1680  0.0118  0.2128
  726MOL0     C97881   2.495   4.177   4.867 -0.1819 -0.3520 -0.3926
  726MOL0     C97882   2.589   4.071   4.844 -0.2793  0.3734  0.1239
  726MOL0     O97883   2.664   4.068   4.725 -0.7893 -0.6780  0.3643
  726MOL0     C97884   2.750   4.177   4.698 -0.3495 -1.2455  0.4788
  726MOL0     C97885   2.846   4.119   4.592  0.4949  0.7587  0.0976
  726MOL0     C97886   2.953   4.222   4.564  1.4172 -0.2072  0.4636
  726MOL0     C97887   2.904   4.357   4.500 -0.6726  0.0766 -0.3428
  726MOL0     C97888   3.020   4.410   4.412  0.5732 -0.1480 -0.2197
  726MOL0     C97889   2.971   4.537   4.341  0.4641 -0.1908  0.0234
  726MOL0     C97890   3.050   4.585   4.222 -0.6283  0.3390  0.0463
  726MOL0     C97891   3.175   4.669   4.259  0.1715  0.0475 -0.3218
  726MOL0     N97892   3.245   4.727   4.147  0.3581  0.2390  0.1184
  726MOL0     C97893   3.252   4.858   4.109 -0.0309 -0.4570 -0.3981
  726MOL0     C97894   3.349   4.857   4.019 -0.8034 -0.4764  0.5709
  726MOL0     C97895   3.432   4.971   3.969 -0.0957  0.6435  0.5110
  726MOL0     C97896   3.546   5.000   4.069  0.2290 -0.1918 -0.3203
  726MOL0     C97897   3.659   4.899   4.083  0.2616  0.5366  0.5654
  726MOL0     C97898   3.740   4.892   3.956 -0.6408  0.0217 -0.7914
  726MOL0     O97899   3.848   4.798   3.963  0.4430  0.3367 -0.2684
  726MOL0     C97900   3.963   4.828   4.030  0.2483 -0.4028 -0.6082
  726MOL0     C97901   4.062   4.742   3.999 -0.0169 -0.2378  0.4506
  726MOL0     C97902   4.191   4.770   4.056  0.4470  0.5445 -0.4685
  726MOL0     C97903   4.215   4.881   4.142  0.0957  0.0581  0.3884
  726MOL0     C97904   4.346   4.902   4.215  0.4269  0.9619 -0.3656
  726MOL0     O97905   4.358   5.014   4.295  0.0821  0.3061  0.2232
  726MOL0     C97906   4.476   5.042   4.365 -0.7172 -0.0114 -0.2655
  726MOL0     C97907   4.459   5.045   4.494  0.0161  0.1760  0.5007
  726MOL0     C97908   4.575   5.064   4.573 -0.7410  0.8920  0.1412
  726MOL0     C97909   4.706   5.087   4.509  0.0562 -0.2437 -0.7755
  726MOL0     O97910   4.811   5.101   4.587 -0.5482 -0.3249 -0.1288
  726MOL0     C97911   4.891   5.217   4.569  0.3699  0.0491 -0.0292
  726MOL0     C97912   4.915   5.300   4.696  0.1027 -1.3460 -0.7379
  726MOL0     C97913   4.799   5.310   4.785  0.6412 -1.5404 -0.8231
  726MOL0     C97914   4.844   5.362   4.922  0.2021 -0.3204  1.2364
  726MOL0     C97915   4.750   5.337   5.031  0.4732 -0.1420  0.2583
  726MOL0     C97916   4.609   5.391   4.996  0.6967 -0.0173 -0.2672
  726MOL0     C97917   4.528   5.402   5.128  0.1937  0.4915  0.3895
  726MOL0     C97918   4.379   5.439   5.106  0.4754 -0.5544  0.4750
  726MOL0    Cl97919   4.378   5.576   4.982  0.4913  0.3285 -0.2141
  726MOL0     C97920   4.719   5.082   4.370 -0.6396 -0.7639 -0.5053
  726MOL0     C97921   4.603   5.058   4.301  0.0014 -0.1642  0.0556
  726MOL0     O97922   4.424   4.802   4.199  0.5823 -0.1800 -0.1747
  726MOL0     C97923   4.116   4.967   4.162  0.7238 -0.8247 -0.8774
  726MOL0     C97924   3.991   4.942   4.111  0.0948  1.0903  0.5296
  726MOL0     N97925   3.380   4.728   3.990 -1.3133  0.2210  0.0119
  726MOL0     N97926   3.325   4.647   4.073 -0.0837  0.2756 -0.1700
  726MOL0     C97927   2.607   3.974   4.948 -0.1273  0.5593 -0.2366
  726MOL0     C97928   2.515   3.969   5.053  0.1874 -0.8902 -0.4889
  726MOL0     C97929   2.111   4.053   5.275  0.1214 -1.0540  0.2138
  726MOL0     C97930   1.976   4.067   5.231 -0.3974 -0.2814  0.1157
  726MOL0     C97931   1.874   4.046   5.311  0.7566  0.0893 -1.0012
  726MOL0     C97932   1.904   4.003   5.446 -1.2432  0.3063  0.7970
  726MOL0     O97933   1.810   3.980   5.538  0.4816  0.3417 -0.3480
  726MOL0     C97934   1.679   3.936   5.490  0.3983  0.0411  0.8880
  726MOL0     C97935   1.558   4.031   5.506 -0.5576 -0.8513  0.0515
  726MOL0     C97936   1.556   4.123   5.629 -0.2831 -0.2456  0.5761
  726MOL0     C97937   1.563   4.035   5.759 -0.1049  0.5211  0.3401
  726MOL0     C97938   1.547   4.125   5.874  0.1299 -0.6844 -0.0221
  726MOL0     C97939   1.537   4.197   5.975 -0.4405 -0.0452  0.7753
  726MOL0     C97940   2.034   4.006   5.493  1.4149  0.5302 -0.1535
  726MOL0     C97941   2.142   4.028   5.408 -0.3277 -0.4556  0.0420
  726MOL0     C97942   2.282   4.030   5.471 -0.4345 -0.3665  0.5773
  726MOL0     H97943   2.356   4.271   5.011  1.0302  0.3634  1.8364
  726MOL0     H97944   2.481   4.260   4.798  1.7640  1.6738  1.4863
  726MOL0     H97945   2.688   4.259   4.659  0.2857 -1.7005 -1.6187
  726MOL0     H97946   2.804   4.215   4.785  0.4697  2.0448 -1.2877
  726MOL0     H97947   2.790   4.099   4.500  3.0116 -1.9677 -1.0054
  726MOL0     H97948   2.887   4.019   4.610 -1.2448 -0.0574 -0.1491
  726MOL0     H97949   3.027   4.169   4.504  0.7083 -1.1685  0.4110
  726MOL0     H97950   3.015   4.242   4.652  2.0323 -1.6920  0.4061
  726MOL0     H97951   2.820   4.334   4.434  0.6440 -3.7321 -0.9619
  726MOL0     H97952   2.873   4.423   4.581 -1.6387  0.0421 -0.6671
  726MOL0     H97953   3.103   4.445   4.474 -1.4681  3.2023  0.8705
  726MOL0     H97954   3.038   4.340   4.330  0.9265 -0.6083  0.2471
  726MOL0     H97955   2.869   4.528   4.304  1.2016 -1.0156 -1.9480
  726MOL0     H97956   2.963   4.614   4.418  2.9731 -1.5347  1.7808
  726MOL0     H97957   2.981   4.653   4.172  2.0491  1.9950 -1.6180
  726MOL0     H97958   3.072   4.509   4.146 -2.2898  1.5620 -1.7637
  726MOL0     H97959   3.153   4.752   4.327 -2.3924 -1.0845  0.3584
  726MOL0     H97960   3.251   4.606   4.306  1.7325  2.6054  0.8685
  726MOL0     H97961   3.207   4.949   4.146  3.5770  1.0458  0.7490
  726MOL0     H97962   3.475   4.949   3.870 -2.3951 -1.0544 -0.2021
  726MOL0     H97963   3.369   5.060   3.969  0.9467  1.4169  1.2683
  726MOL0     H97964   3.593   5.096   4.048 -0.1297  0.4223  1.5228
  726MOL0     H97965   3.491   5.011   4.163 -1.3149  0.2025 -1.2307
  726MOL0     H97966   3.622   4.798   4.099  0.5143  0.2608 -0.5032
  726MOL0     H97967   3.719   4.916   4.173  2.2299  3.5696 -1.1356
  726MOL0     H97968   3.783   4.991   3.942  2.0602 -0.2213  3.6775
  726MOL0     H97969   3.678   4.881   3.867 -4.3232 -2.8239  1.8043
  726MOL0     H97970   4.034   4.661   3.933 -1.8935 -0.3731  1.3328
  726MOL0     H97971   4.272   4.699   4.040  0.1516  0.5911 -2.4662
  726MOL0     H97972   4.362   5.040   4.542  0.0468  1.0672  0.6705
  726MOL0     H97973   4.590   5.058   4.681  2.0156 -2.2105 -0.2681
  726MOL0     H97974   4.992   5.194   4.535 -0.1583 -0.3748 -1.3527
  726MOL0     H97975   4.854   5.280   4.488 -0.7511 -0.2422  0.2328
  726MOL0     H97976   4.998   5.262   4.757  1.2518  4.2740  1.9698
  726MOL0     H97977   4.952   5.397   4.661  0.5512 -0.8909  0.9011
  726MOL0     H97978   4.720   5.371   4.740  1.0796  0.5266  1.0437
  726MOL0     H97979   4.749   5.215   4.801 -2.7221  0.3503  1.0257
  726MOL0     H97980   4.844   5.471   4.909 -3.6240 -0.5214 -2.7084
  726MOL0     H97981   4.948   5.333   4.940  1.1513  2.3761  0.6232
  726MOL0     H97982   4.783   5.400   5.114  2.0554  0.7961 -1.0103
  726MOL0     H97983   4.744   5.234   5.067  1.1177 -0.4423 -0.4728
  726MOL0     H97984   4.618   5.486   4.942 -0.0636 -0.9535 -2.1366
  726MOL0     H97985   4.557   5.313   4.940  1.1070 -0.0873 -0.5532
  726MOL0     H97986   4.576   5.476   5.192 -0.9336  1.7371 -0.1549
  726MOL0     H97987   4.536   5.303   5.175 -0.9180  0.5545  0.7419
  726MOL0     H97988   4.322   5.359   5.059 -0.6834  0.9187 -0.7288
  726MOL0     H97989   4.333   5.470   5.200  1.0894 -0.2075  0.6643
  726MOL0     H97990   4.822   5.086   4.334 -0.0658  2.0205  1.1554
  726MOL0     H97991   4.615   5.056   4.193  1.8188  0.8561  0.2037
  726MOL0     H97992   4.135   5.055   4.223  1.1482 -1.8778  0.5541
  726MOL0     H97993   3.915   5.018   4.124  0.8022  2.4324 -2.4585
  726MOL0     H97994   2.686   3.899   4.939 -2.0077 -1.8510  1.8375
  726MOL0     H97995   2.526   3.888   5.124  1.1758  0.7461  1.3616
  726MOL0     H97996   1.951   4.118   5.138  1.4159 -0.0554 -0.2927
  726MOL0     H97997   1.783   4.075   5.261  0.4302 -0.8944 -0.9854
  726MOL0     H97998   1.651   3.839   5.533 -0.3331 -1.0747 -1.8663
  726MOL0     H97999   1.681   3.926   5.381 -1.3684  1.0443  0.7253
  726MOL0     H98000   1.457   3.990   5.498 -2.3584  3.1116  0.2977
  726MOL0     H98001   1.565   4.097   5.418 -1.8572 -1.4861 -0.5502
  726MOL0     H98002   1.466   4.185   5.636  1.1834  1.9064  1.4910
  726MOL0     H98003   1.641   4.192   5.623 -1.0306  0.9679  2.5700
  726MOL0     H98004   1.488   3.955   5.758  2.3024 -1.8708 -0.5852
  726MOL0     H98005   1.662   3.989   5.766  1.2610  3.1565 -0.3112
  726MOL0     H98006   1.531   4.268   6.054  2.5275 -0.3211  1.3970
  726MOL0     H98007   2.035   3.987   5.600 -0.8005  1.0643  0.0017
  726MOL0     H98008   2.344   3.947   5.434  2.2663  1.0915  1.5232
  726MOL0     H98009   2.325   4.129   5.452 -0.8583 -0.3198 -0.1559
  726MOL0     H98010   2.280   4.009   5.578 -0.5604 -2.6578  0.1825
  727MOL0     O98011  10.529   7.007   4.396 -0.4017  0.0339  0.5546
  727MOL0     C98012  10.488   6.981   4.508  0.1795  0.4325 -0.0863
  727MOL0     O98013  10.543   6.882   4.590  0.1589 -0.0545 -1.3887
  727MOL0     C98014  10.644   6.790   4.544  0.8753  0.0530 -0.2384
  727MOL0     C98015  10.732   6.802   4.433 -0.2206 -0.6470  0.4223
  727MOL0     C98016  10.826   6.705   4.411  0.0088 -0.3010 -0.4694
  727MOL0     C98017  10.824   6.583   4.485  0.1096 -0.4089 -0.4812
  727MOL0     O98018  10.921   6.495   4.440 -0.1943  0.7181  0.1513
  727MOL0     C98019  10.921   6.366   4.500 -0.9376  0.1518  0.0334
  727MOL0     C98020  11.030   6.300   4.412  0.5745 -0.3495 -0.5616
  727MOL0     C98021  11.056   6.156   4.447  0.2518  0.5554 -0.8135
  727MOL0     C98022  11.169   6.099   4.358  0.5829 -0.5298 -1.2073
  727MOL0     C98023  11.261   5.999   4.439 -0.6947 -0.4634 -0.7571
  727MOL0     C98024  11.314   5.898   4.330  0.1859  0.1351  0.3359
  727MOL0     C98025  11.399   5.780   4.392  0.2083  0.6984  0.2682
  727MOL0     C98026  11.350   5.718   4.525  0.4993 -0.3262 -0.1169
  727MOL0     N98027  11.399   5.584   4.543 -0.6290  0.2913  0.3644
  727MOL0     C98028  11.528   5.549   4.536 -0.2614 -0.0357 -0.5995
  727MOL0     C98029  11.531   5.410   4.545 -0.0153 -0.1107  0.1039
  727MOL0     C98030  11.656   5.327   4.523 -0.2176 -0.3619  0.1124
  727MOL0     C98031  11.666   5.254   4.388 -0.2897 -0.2417 -0.2262
  727MOL0     C98032  11.547   5.162   4.355  0.3720 -0.7188  1.0485
  727MOL0     C98033  11.496   5.067   4.468  0.3685 -0.6881  0.6949
  727MOL0     O98034  11.588   4.963   4.485 -0.4057 -0.6973 -0.2566
  727MOL0     C98035  11.627   4.955   4.616  0.6607  0.3866  0.4361
  727MOL0     C98036  11.538   4.911   4.714  0.1761 -0.1005 -0.2012
  727MOL0     C98037  11.571   4.916   4.851  0.2397 -0.3526  0.1113
  727MOL0     C98038  11.703   4.960   4.894 -0.0736 -0.4283 -0.3126
  727MOL0     C98039  11.753   4.964   5.033  0.8215 -0.4610 -0.7823
  727MOL0     O98040  11.704   4.871   5.119  0.9108 -0.3547 -0.6154
  727MOL0     C98041  11.756   4.880   5.249  0.9411 -0.5767 -0.1304
  727MOL0     C98042  11.681   4.946   5.348  0.3183  0.9910  0.0779
  727MOL0     C98043  11.732   4.952   5.480 -0.3691  0.0611  0.0135
  727MOL0     C98044  11.861   4.894   5.505 -0.4571 -0.3597 -0.9424
  727MOL0     O98045  11.897   4.922   5.630  0.6489  0.2654 -0.1444
  727MOL0     C98046  12.032   4.913   5.672  0.2465 -0.2628  0.0567
  727MOL0     C98047  12.034   4.981   5.809 -0.4723 -0.0569  0.0491
  727MOL0     C98048  12.002   5.125   5.792  1.2231  0.2706 -0.0160
  727MOL0     C98049  12.120   5.220   5.787 -0.1720  0.2760 -0.1478
  727MOL0     C98050  12.076   5.361   5.787  0.9312  0.4115  0.0840
  727MOL0     C98051  12.208   5.441   5.788 -0.3179  0.9034  0.1449
  727MOL0     C98052  12.190   5.593   5.805  0.2998  0.0886 -0.2797
  727MOL0     C98053  12.319   5.663   5.845  0.1061  0.0800 -0.0733
  727MOL0    Cl98054  12.389   5.600   5.998 -0.0204 -0.0899  0.0059
  727MOL0     C98055  11.942   4.832   5.405 -0.0784  0.0587  0.5216
  727MOL0     C98056  11.886   4.838   5.275  0.5240  0.0836 -0.4697
  727MOL0     O98057  11.840   5.052   5.055  0.0936  0.6006 -0.9724
  727MOL0     C98058  11.788   5.005   4.793 -0.3384  0.4302  0.0906
  727MOL0     C98059  11.749   5.011   4.662  0.7030 -0.1372  0.0101
  727MOL0     N98060  11.399   5.371   4.549 -0.2247  0.4022  0.3440
  727MOL0     N98061  11.319   5.471   4.552 -0.7480 -0.1921  0.0009
  727MOL0     C98062  10.732   6.565   4.586 -0.3685 -0.3147  0.2930
  727MOL0     C98063  10.649   6.674   4.623 -0.2357 -0.1293 -0.2616
  727MOL0     C98064  10.389   7.066   4.567 -0.4708 -0.2752 -0.2234
  727MOL0     C98065  10.347   7.029   4.692  0.3369 -0.5175  0.2239
  727MOL0     C98066  10.248   7.098   4.762 -0.7240  0.0875  0.4425
  727MOL0     C98067  10.190   7.217   4.701 -0.9671 -0.3222  0.0396
  727MOL0     O98068  10.078   7.276   4.742 -0.1681 -0.8864 -0.1123
  727MOL0     C98069  10.070   7.306   4.883  0.0345  0.5006  0.4300
  727MOL0     C98070   9.926   7.296   4.925 -0.0649  0.0734 -0.2684
  727MOL0     C98071   9.912   7.382   5.060  0.2446 -0.6481 -0.3275
  727MOL0     C98072   9.794   7.331   5.147  0.1695 -0.6385  0.8479
  727MOL0     C98073   9.656   7.350   5.091 -0.5480  1.0585  0.1378
  727MOL0     C98074   9.549   7.338   5.042  0.0454 -0.2518  1.1166
  727MOL0     C98075  10.236   7.256   4.579 -0.2380 -0.0575  0.5572
  727MOL0     C98076  10.336   7.177   4.500 -0.3301 -0.0367 -0.4469
  727MOL0     C98077  10.377   7.233   4.362  0.2646  0.2470 -0.2310
  727MOL0     H98078  10.743   6.883   4.362 -0.3925 -1.3715 -0.4548
  727MOL0     H98079  10.900   6.717   4.333 -1.1959  1.9202 -1.3487
  727MOL0     H98080  10.941   6.367   4.607  1.1244  0.3992 -0.3076
  727MOL0     H98081  10.826   6.313   4.492  0.2077 -1.8531 -1.5023
  727MOL0     H98082  11.122   6.358   4.406  0.4736 -0.1849 -0.4939
  727MOL0     H98083  10.998   6.298   4.307  1.0587 -3.6008 -0.7480
  727MOL0     H98084  10.963   6.103   4.424 -0.0856  0.4375  0.6983
  727MOL0     H98085  11.075   6.134   4.553  0.3704 -0.6875 -1.0778
  727MOL0     H98086  11.121   6.048   4.273  0.8255 -0.3412 -1.4612
  727MOL0     H98087  11.228   6.179   4.312 -0.5245  2.2021  1.7692
  727MOL0     H98088  11.346   6.052   4.481  0.8824 -1.6440 -2.3275
  727MOL0     H98089  11.200   5.953   4.518  0.3488 -2.4720 -1.0397
  727MOL0     H98090  11.232   5.857   4.270 -0.0213  0.2653  0.5272
  727MOL0     H98091  11.366   5.959   4.256 -0.1375 -1.6273 -1.4391
  727MOL0     H98092  11.497   5.826   4.405 -0.3849  1.9463  0.4287
  727MOL0     H98093  11.405   5.708   4.309  0.2440  0.6980  0.2709
  727MOL0     H98094  11.398   5.769   4.609 -0.8550  0.2641  0.3168
  727MOL0     H98095  11.242   5.713   4.538  0.6395 -0.2657  1.1906
  727MOL0     H98096  11.616   5.608   4.514  0.3189 -0.5381  0.2857
  727MOL0     H98097  11.743   5.389   4.544  0.2375 -0.7876 -0.4851
  727MOL0     H98098  11.664   5.252   4.602  4.4487 -2.2149 -1.7623
  727MOL0     H98099  11.686   5.319   4.302 -0.0708  0.2599  0.2050
  727MOL0     H98100  11.750   5.186   4.405 -0.2416  0.3836  2.3277
  727MOL0     H98101  11.565   5.092   4.273 -3.2828 -1.4745  0.7646
  727MOL0     H98102  11.465   5.228   4.326  1.5465  0.4576  0.2927
  727MOL0     H98103  11.397   5.025   4.448  0.1318  0.2434 -0.2413
  727MOL0     H98104  11.489   5.124   4.561  3.9772 -0.7679  1.1518
  727MOL0     H98105  11.446   4.872   4.672  0.7663 -0.3914 -1.2900
  727MOL0     H98106  11.508   4.878   4.931  2.9315 -2.2945  1.4793
  727MOL0     H98107  11.575   4.960   5.331  0.2651  0.0437 -0.4289
  727MOL0     H98108  11.683   5.008   5.559  0.8150  2.3141 -0.7851
  727MOL0     H98109  12.065   4.809   5.675 -1.7582 -1.0266 -1.6337
  727MOL0     H98110  12.095   4.964   5.599 -1.3271 -1.3684 -2.2360
  727MOL0     H98111  11.965   4.928   5.874  0.8130  0.5304  1.9861
  727MOL0     H98112  12.131   4.969   5.857  1.0853 -1.2413 -3.0811
  727MOL0     H98113  11.929   5.144   5.712 -1.4333  3.0865  2.8141
  727MOL0     H98114  11.940   5.136   5.881 -0.3012  0.8093 -1.1154
  727MOL0     H98115  12.182   5.194   5.701 -2.1962 -0.6675 -1.3965
  727MOL0     H98116  12.183   5.210   5.876  1.7044  3.4759 -0.9523
  727MOL0     H98117  12.019   5.375   5.879 -3.6949 -1.9909 -2.0282
  727MOL0     H98118  11.999   5.383   5.712 -0.8267 -1.6415  1.1645
  727MOL0     H98119  12.274   5.402   5.866  0.1364 -1.7241 -1.4230
  727MOL0     H98120  12.260   5.438   5.692  3.0768  2.0387  1.7944
  727MOL0     H98121  12.121   5.621   5.885  2.3469 -1.1878  2.0709
  727MOL0     H98122  12.151   5.635   5.712 -3.7787 -2.4518  0.0684
  727MOL0     H98123  12.386   5.658   5.758 -3.4204 -1.3211 -2.9819
  727MOL0     H98124  12.301   5.768   5.866 -0.4999 -0.1395  0.5552
  727MOL0     H98125  12.034   4.776   5.418 -0.6183 -1.9359 -2.9827
  727MOL0     H98126  11.955   4.814   5.196  0.6912  1.8255 -0.8975
  727MOL0     H98127  11.884   5.045   4.824  1.3680 -0.5534 -3.4326
  727MOL0     H98128  11.832   5.043   4.599  1.8605  0.8707  1.9721
  727MOL0     H98129  10.743   6.480   4.653  1.4268 -0.0465  0.3872
  727MOL0     H98130  10.586   6.675   4.711 -1.6692  2.6397 -1.1783
  727MOL0     H98131  10.373   6.940   4.749  1.5306  0.9326  2.0946
  727MOL0     H98132  10.209   7.065   4.858  1.4358 -1.1784  0.9480
  727MOL0     H98133  10.107   7.408   4.897 -0.6024  0.5177  2.3190
  727MOL0     H98134  10.135   7.242   4.944 -0.2969  1.5813  1.9841
  727MOL0     H98135   9.903   7.192   4.952 -0.3449 -0.0130 -0.8202
  727MOL0     H98136   9.848   7.333   4.858  0.3467  1.0440 -0.2199
  727MOL0     H98137   9.902   7.488   5.038  1.2527  0.1263  2.5586
  727MOL0     H98138  10.000   7.370   5.123  0.3994 -1.7070 -0.7197
  727MOL0     H98139   9.808   7.226   5.172 -0.7856 -0.9494  0.1336
  727MOL0     H98140   9.792   7.390   5.239  2.5651  0.7236  0.1115
  727MOL0     H98141   9.456   7.329   4.990  0.0757 -0.5714  1.1154
  727MOL0     H98142  10.191   7.340   4.528  2.1563  0.2323 -1.2716
  727MOL0     H98143  10.356   7.162   4.281 -2.2088  0.9266 -0.2848
  727MOL0     H98144  10.321   7.324   4.338  1.7137  0.9293 -1.1514
  727MOL0     H98145  10.480   7.268   4.356 -0.7354  4.0566  1.8607
  728MOL0     O98146   1.384   6.211   4.664  0.4086  0.0497  0.6417
  728MOL0     C98147   1.386   6.333   4.673 -1.0669  0.7525  0.5047
  728MOL0     O98148   1.285   6.420   4.631  1.2468  0.4260  0.1690
  728MOL0     C98149   1.285   6.549   4.687 -0.2820  0.2489 -0.2003
  728MOL0     C98150   1.277   6.662   4.600  1.0384 -0.3000  0.1059
  728MOL0     C98151   1.292   6.793   4.652 -0.0724 -0.7978 -0.4300
  728MOL0     C98152   1.295   6.811   4.788 -0.2730  0.8264 -0.0759
  728MOL0     O98153   1.301   6.936   4.838  0.1757  0.5435 -1.0727
  728MOL0     C98154   1.211   6.974   4.946  0.1817  0.6632 -0.8122
  728MOL0     C98155   1.225   7.129   4.959 -0.1340  0.6915  0.2132
  728MOL0     C98156   1.162   7.201   4.841 -0.3480 -0.6226 -0.1275
  728MOL0     C98157   1.150   7.355   4.859  0.1233 -0.0898 -0.9749
  728MOL0     C98158   1.288   7.400   4.836 -0.7285 -0.0021  0.4063
  728MOL0     C98159   1.298   7.554   4.858  0.2234  0.6110  0.6119
  728MOL0     C98160   1.448   7.594   4.860  0.2335 -0.9704 -0.3654
  728MOL0     C98161   1.452   7.746   4.825  0.0806  0.2339  1.0076
  728MOL0     N98162   1.582   7.797   4.859 -0.6307  0.2073  0.6203
  728MOL0     C98163   1.612   7.895   4.958 -0.1368 -0.1055 -0.4425
  728MOL0     C98164   1.738   7.928   4.936  0.2978 -0.1461 -0.3105
  728MOL0     C98165   1.825   8.024   5.013  0.3098  0.3790  0.2486
  728MOL0     C98166   1.954   8.057   4.928  0.1362  0.2022 -0.3549
  728MOL0     C98167   2.067   7.949   4.932  0.3668 -0.0666 -1.0202
  728MOL0     C98168   2.196   8.005   4.886 -0.0529 -0.3497  0.0554
  728MOL0     O98169   2.305   7.916   4.893  0.1629  0.1772 -0.0035
  728MOL0     C98170   2.431   7.955   4.859  0.1922  0.3783  0.4289
  728MOL0     C98171   2.522   7.866   4.902 -0.2466 -0.2988  0.5752
  728MOL0     C98172   2.661   7.893   4.893 -0.5132  0.7312 -0.5142
  728MOL0     C98173   2.707   8.016   4.827  0.1168 -0.2049  0.3353
  728MOL0     C98174   2.850   8.036   4.790 -0.2450  0.4810 -0.2416
  728MOL0     O98175   2.919   7.928   4.805  0.4463  0.0567 -0.4264
  728MOL0     C98176   3.059   7.931   4.792  0.4720  0.0527 -0.5626
  728MOL0     C98177   3.145   7.954   4.898 -0.3098 -0.4889 -0.4320
  728MOL0     C98178   3.280   7.961   4.877 -0.2013  0.1261 -1.0032
  728MOL0     C98179   3.337   7.933   4.752 -0.1843  0.5182  0.0508
  728MOL0     O98180   3.468   7.944   4.727 -0.0578  0.2333  0.3243
  728MOL0     C98181   3.497   8.050   4.632 -0.2389 -0.6498 -0.4774
  728MOL0     C98182   3.652   8.042   4.619  0.1262 -0.0752  0.2063
  728MOL0     C98183   3.706   7.987   4.481  0.3272 -0.2043  0.2119
  728MOL0     C98184   3.842   7.912   4.501  0.5266  0.2755 -0.3532
  728MOL0     C98185   3.901   7.862   4.367  0.0663 -0.0960 -0.1064
  728MOL0     C98186   4.047   7.822   4.379  0.0371  0.0220  0.5389
  728MOL0     C98187   4.081   7.711   4.482 -0.1806 -0.3917  0.1658
  728MOL0     C98188   4.211   7.634   4.463 -0.3558 -0.0227  0.6175
  728MOL0    Cl98189   4.235   7.509   4.586  0.1823 -0.1821  0.1087
  728MOL0     C98190   3.247   7.891   4.652 -0.4304 -0.3704 -0.2178
  728MOL0     C98191   3.112   7.893   4.670  0.7161 -0.7926  0.3662
  728MOL0     O98192   2.884   8.143   4.749 -0.3107 -1.0892  0.1306
  728MOL0     C98193   2.610   8.100   4.770  0.5849  0.4795 -0.1856
  728MOL0     C98194   2.471   8.066   4.790  0.0888  0.7478  0.4204
  728MOL0     N98195   1.769   7.869   4.818  0.1015  0.6276  0.8417
  728MOL0     N98196   1.677   7.791   4.774 -0.2098  0.3076  0.7537
  728MOL0     C98197   1.282   6.698   4.881 -0.7080  0.5128 -0.5316
  728MOL0     C98198   1.287   6.562   4.829  0.1494 -0.4567  0.4681
  728MOL0     C98199   1.522   6.379   4.687 -0.2896 -0.0404  0.1153
  728MOL0     C98200   1.568   6.426   4.809  0.4472  0.8252 -0.1812
  728MOL0     C98201   1.701   6.470   4.821 -0.5671  0.2025  0.5209
  728MOL0     C98202   1.788   6.468   4.704  0.3442  0.7906 -0.7266
  728MOL0     O98203   1.919   6.490   4.722 -0.0886 -0.3582  0.0264
  728MOL0     C98204   1.976   6.591   4.639  0.1324  0.0260 -0.2370
  728MOL0     C98205   1.958   6.717   4.717 -0.0751  0.4759 -0.3931
  728MOL0     C98206   1.992   6.830   4.638  0.1130  0.0853  0.2959
  728MOL0     C98207   1.874   6.863   4.536 -0.5284  0.0602 -0.4374
  728MOL0     C98208   1.730   6.850   4.585 -0.3623  0.6678  0.8872
  728MOL0     C98209   1.624   6.826   4.646 -1.2447  0.6622  0.4332
  728MOL0     C98210   1.731   6.426   4.587  0.1158 -0.0252 -0.8136
  728MOL0     C98211   1.599   6.393   4.569 -0.8540 -0.6592 -0.7761
  728MOL0     C98212   1.547   6.372   4.438 -0.5396 -0.3200  0.2650
  728MOL0     H98213   1.277   6.643   4.493  1.4893 -3.3390  0.5719
  728MOL0     H98214   1.286   6.872   4.577 -0.7814 -0.8411 -0.4309
  728MOL0     H98215   1.108   6.942   4.928  1.3646 -1.6250 -4.7866
  728MOL0     H98216   1.238   6.934   5.045 -0.0784  2.0489 -0.1606
  728MOL0     H98217   1.329   7.162   4.963  0.1068 -0.0063 -0.0227
  728MOL0     H98218   1.170   7.158   5.049 -3.1790 -1.0558 -0.9240
  728MOL0     H98219   1.066   7.159   4.810 -0.8097  1.2698 -1.4209
  728MOL0     H98220   1.228   7.192   4.754  2.2466  3.5958  1.0734
  728MOL0     H98221   1.081   7.405   4.789  0.0156  0.2610 -0.6215
  728MOL0     H98222   1.108   7.390   4.953  0.9707 -1.7744  0.0661
  728MOL0     H98223   1.365   7.351   4.897  0.9390  1.6400 -0.2483
  728MOL0     H98224   1.314   7.385   4.731 -3.0176  1.8107 -0.5205
  728MOL0     H98225   1.249   7.602   4.772  1.8897 -0.3669 -0.9611
  728MOL0     H98226   1.247   7.586   4.949 -0.2758  1.4288  0.0649
  728MOL0     H98227   1.494   7.541   4.775 -2.8920 -4.1003 -0.3560
  728MOL0     H98228   1.496   7.569   4.955  0.0883 -0.6863 -0.2207
  728MOL0     H98229   1.428   7.766   4.720  1.4427  0.8722  0.8020
  728MOL0     H98230   1.377   7.801   4.881  0.7454  0.2616  1.8852
  728MOL0     H98231   1.565   7.931   5.049  1.4361  1.3308 -0.1334
  728MOL0     H98232   1.772   8.114   5.046 -1.2758 -0.4230 -0.0438
  728MOL0     H98233   1.860   7.970   5.101 -0.9296 -2.0066 -0.6490
  728MOL0     H98234   1.919   8.092   4.830 -0.8472  2.2870  0.6712
  728MOL0     H98235   1.989   8.152   4.970 -1.2193  1.2762 -1.5285
  728MOL0     H98236   2.047   7.855   4.880  0.4237 -0.7917  0.2197
  728MOL0     H98237   2.077   7.934   5.040  0.3609  1.9451 -0.6995
  728MOL0     H98238   2.226   8.087   4.952  0.1845 -1.1527  0.9688
  728MOL0     H98239   2.195   8.034   4.781  0.2308 -0.0097  0.1458
  728MOL0     H98240   2.506   7.767   4.943  4.4588 -1.3565  0.4910
  728MOL0     H98241   2.719   7.806   4.925 -4.3376 -1.5114  0.9761
  728MOL0     H98242   3.114   7.963   5.002 -1.3654 -1.7919 -0.6033
  728MOL0     H98243   3.353   7.990   4.953  0.1019  0.1607 -1.3067
  728MOL0     H98244   3.440   8.041   4.539 -1.3725 -3.2313  0.3590
  728MOL0     H98245   3.465   8.145   4.676 -5.2181 -1.6818 -1.3097
  728MOL0     H98246   3.700   8.140   4.625  0.3424 -0.1126 -0.8055
  728MOL0     H98247   3.687   7.972   4.696  2.5409 -0.4599 -1.1497
  728MOL0     H98248   3.638   7.919   4.429  1.0691  0.6494 -2.0073
  728MOL0     H98249   3.721   8.078   4.421  2.6848 -2.0655 -2.2816
  728MOL0     H98250   3.830   7.834   4.576  0.1032  0.7729  0.0961
  728MOL0     H98251   3.912   7.989   4.536  0.3467 -0.0551  0.7575
  728MOL0     H98252   3.891   7.935   4.285 -1.3866 -0.0760  0.0573
  728MOL0     H98253   3.855   7.768   4.335  0.4583  0.2390 -1.7630
  728MOL0     H98254   4.079   7.783   4.282 -0.7171 -0.8903  0.6463
  728MOL0     H98255   4.110   7.909   4.399  3.0725 -2.3093  2.1243
  728MOL0     H98256   3.998   7.639   4.479 -0.7405  0.2586  0.0558
  728MOL0     H98257   4.090   7.753   4.583  0.7313  0.8004 -0.3930
  728MOL0     H98258   4.211   7.593   4.362  0.3830  0.9324  0.2125
  728MOL0     H98259   4.305   7.690   4.459  0.2925 -1.1594 -2.5331
  728MOL0     H98260   3.277   7.842   4.560  1.4072  2.1386 -1.0508
  728MOL0     H98261   3.040   7.852   4.599 -2.8148  2.0728  2.0069
  728MOL0     H98262   2.631   8.186   4.706  1.5452  0.2951 -0.1375
  728MOL0     H98263   2.404   8.137   4.742 -0.2510  0.3906  0.3521
  728MOL0     H98264   1.298   6.708   4.988 -0.0159 -0.8834 -0.4736
  728MOL0     H98265   1.291   6.480   4.901  0.7263 -1.2170 -0.4010
  728MOL0     H98266   1.499   6.410   4.891 -1.1876 -0.1401 -1.6410
  728MOL0     H98267   1.750   6.494   4.915 -1.8118  0.6055  1.0883
  728MOL0     H98268   1.913   6.596   4.550 -1.8450  3.5417  1.1596
  728MOL0     H98269   2.083   6.572   4.624  0.3831  0.4285  0.9500
  728MOL0     H98270   2.024   6.719   4.804 -0.1761  1.4274 -0.3296
  728MOL0     H98271   1.857   6.720   4.758 -0.1919  2.7095 -0.7141
  728MOL0     H98272   2.092   6.843   4.596  1.3239 -1.7738  2.4126
  728MOL0     H98273   1.975   6.903   4.718 -0.3900 -1.7053  1.8860
  728MOL0     H98274   1.898   6.958   4.487  1.5338 -1.8077 -3.4409
  728MOL0     H98275   1.875   6.786   4.458  4.1795  0.9158 -1.5305
  728MOL0     H98276   1.536   6.780   4.685 -2.0133  1.1442 -0.6655
  728MOL0     H98277   1.800   6.421   4.503  1.2386 -1.3514  0.1440
  728MOL0     H98278   1.499   6.273   4.436 -2.6346  0.4204  3.7206
  728MOL0     H98279   1.472   6.449   4.416  1.6621  2.3878  1.6305
  728MOL0     H98280   1.632   6.379   4.371  1.3375 -0.4760  2.5009
  729MOL0     O98281   0.719   7.704   7.299  0.0057 -0.0354  0.2787
  729MOL0     C98282   0.629   7.711   7.208 -0.9068  0.1489  0.4661
  729MOL0     O98283   0.643   7.791   7.095  1.2412  0.0446  0.0638
  729MOL0     C98284   0.774   7.839   7.080 -0.4610 -0.5851 -1.1582
  729MOL0     C98285   0.885   7.774   7.030 -1.0209 -0.4772  0.3820
  729MOL0     C98286   1.014   7.831   7.022 -0.4954  0.0128  0.7141
  729MOL0     C98287   1.032   7.964   7.059  1.0662  0.5405  0.1371
  729MOL0     O98288   1.153   8.031   7.073  0.1937 -0.3878 -0.1434
  729MOL0     C98289   1.260   7.954   7.133  0.7892  0.1269  1.1427
  729MOL0     C98290   1.376   8.046   7.138  0.1165 -1.0864 -0.5388
  729MOL0     C98291   1.500   7.984   7.198  0.6436  0.4463 -0.0226
  729MOL0     C98292   1.585   8.097   7.237  0.1571 -0.1119  0.9829
  729MOL0     C98293   1.710   8.045   7.309 -0.5726 -0.2547 -0.1908
  729MOL0     C98294   1.761   8.179   7.374  0.3453  0.4751  0.3151
  729MOL0     C98295   1.890   8.151   7.453 -0.0156  0.0501  0.1804
  729MOL0     C98296   2.016   8.131   7.372  0.2178  1.0041  0.1953
  729MOL0     N98297   2.056   8.241   7.284  0.2023 -0.4326 -0.1130
  729MOL0     C98298   2.120   8.218   7.166 -0.1983  0.4299  0.5018
  729MOL0     C98299   2.187   8.335   7.139  0.2014 -0.4623 -1.2483
  729MOL0     C98300   2.272   8.366   7.019  0.2633 -0.2784  0.1934
  729MOL0     C98301   2.388   8.266   7.014 -0.4738 -1.1895  0.2962
  729MOL0     C98302   2.490   8.308   6.905 -0.2986  0.1053 -0.5331
  729MOL0     C98303   2.627   8.247   6.929 -0.8441  0.2858  0.9556
  729MOL0     O98304   2.715   8.295   6.824  0.4498  0.7346 -0.0961
  729MOL0     C98305   2.840   8.232   6.816  0.1275  0.8334  0.3438
  729MOL0     C98306   2.910   8.256   6.704 -0.0143 -0.7933  0.3128
  729MOL0     C98307   3.042   8.209   6.676  0.5543  0.6625 -0.5871
  729MOL0     C98308   3.095   8.104   6.753  1.1809  0.3805 -0.0968
  729MOL0     C98309   3.217   8.047   6.713  0.1019  0.0993 -0.2888
  729MOL0     O98310   3.310   8.126   6.648  0.9643  0.3925  0.1486
  729MOL0     C98311   3.433   8.083   6.611  0.8538  0.6327 -0.6697
  729MOL0     C98312   3.526   8.184   6.589 -0.1903  0.1752  0.3170
  729MOL0     C98313   3.649   8.161   6.524 -0.2847  0.4430 -0.0983
  729MOL0     C98314   3.681   8.035   6.500  0.2926  0.3123 -0.2326
  729MOL0     O98315   3.797   8.004   6.428  0.4126 -0.4433  0.2434
  729MOL0     C98316   3.878   7.920   6.512 -0.0193 -0.8010  0.3429
  729MOL0     C98317   4.004   7.875   6.437 -1.3795  0.2329 -1.1307
  729MOL0     C98318   4.081   7.994   6.378  0.1278  0.0168 -0.5882
  729MOL0     C98319   4.216   7.951   6.321  0.3275 -0.2328  1.2640
  729MOL0     C98320   4.296   8.061   6.256  0.6751 -0.4166 -0.0957
  729MOL0     C98321   4.410   8.006   6.175 -0.3606 -0.7507 -0.4315
  729MOL0     C98322   4.534   8.086   6.133 -0.1892 -0.2108 -0.1973
  729MOL0     C98323   4.485   8.211   6.068 -0.3509 -0.3521  0.4453
  729MOL0    Cl98324   4.614   8.298   5.970  0.2492 -0.0093 -0.4572
  729MOL0     C98325   3.585   7.932   6.523  0.4918 -0.9764 -1.0860
  729MOL0     C98326   3.463   7.956   6.580  0.7079 -0.8672 -0.2356
  729MOL0     O98327   3.244   7.941   6.762 -0.7042 -0.5786  0.6441
  729MOL0     C98328   3.021   8.067   6.867  0.2635 -0.3089 -0.4179
  729MOL0     C98329   2.900   8.138   6.906  0.5484  0.1945  0.3491
  729MOL0     N98330   2.147   8.424   7.232  0.3714 -0.7569 -0.0761
  729MOL0     N98331   2.073   8.372   7.316  0.9078  0.2209 -1.0136
  729MOL0     C98332   0.914   8.034   7.101 -0.7889 -0.9238 -0.0725
  729MOL0     C98333   0.795   7.972   7.115  0.3668 -0.0087  0.0049
  729MOL0     C98334   0.505   7.628   7.226 -0.7789  0.4207  0.1759
  729MOL0     C98335   0.506   7.517   7.322  0.8089 -0.1977  0.1834
  729MOL0     C98336   0.397   7.430   7.333  0.1145  0.1569  0.5985
  729MOL0     C98337   0.275   7.455   7.259 -0.4855 -0.5765 -0.3532
  729MOL0     O98338   0.166   7.389   7.299  0.0532  0.6463 -0.2361
  729MOL0     C98339   0.040   7.462   7.309  0.0805 -0.4435 -0.4267
  729MOL0     C98340  -0.067   7.392   7.393  0.7643 -0.3946  0.6549
  729MOL0     C98341  -0.060   7.238   7.390  0.1393  1.1060 -0.0972
  729MOL0     C98342  -0.136   7.160   7.494  0.3029  0.3825 -0.3493
  729MOL0     C98343  -0.078   7.149   7.628 -0.9436  1.1462 -0.1112
  729MOL0     C98344  -0.015   7.129   7.727 -0.0824  0.8441 -0.1213
  729MOL0     C98345   0.275   7.564   7.174 -0.6561  0.2775 -0.0780
  729MOL0     C98346   0.390   7.642   7.148  0.0874  0.4988 -0.1060
  729MOL0     C98347   0.388   7.747   7.046 -0.7871  0.3693 -0.0336
  729MOL0     H98348   0.877   7.669   7.003  2.2879 -0.3827 -1.5821
  729MOL0     H98349   1.114   7.799   6.994  0.8983  3.3353  1.4733
  729MOL0     H98350   1.237   7.928   7.237  0.8201 -0.3886  1.0268
  729MOL0     H98351   1.281   7.854   7.094 -2.8638 -0.3540  0.1046
  729MOL0     H98352   1.339   8.127   7.202  2.6743 -0.1870 -0.1017
  729MOL0     H98353   1.401   8.075   7.036  0.0718  1.5939  0.1543
  729MOL0     H98354   1.559   7.917   7.134  0.9067  0.0909  0.5838
  729MOL0     H98355   1.466   7.934   7.289 -0.4800  2.0261  0.4750
  729MOL0     H98356   1.607   8.176   7.165  0.9892 -1.1238  0.0769
  729MOL0     H98357   1.530   8.161   7.306  0.2103  2.8695 -1.5322
  729MOL0     H98358   1.691   7.965   7.382  0.0002 -1.4265 -1.2935
  729MOL0     H98359   1.790   8.010   7.243 -0.3216 -0.2215  0.0915
  729MOL0     H98360   1.795   8.262   7.311  1.7499 -0.6727 -0.4852
  729MOL0     H98361   1.693   8.201   7.457  3.8746 -0.9667  3.9291
  729MOL0     H98362   1.863   8.059   7.504  0.1655 -1.0081 -1.5645
  729MOL0     H98363   1.897   8.230   7.529 -0.3512  0.4834 -0.2273
  729MOL0     H98364   2.098   8.113   7.442 -1.1680 -0.2202  1.5723
  729MOL0     H98365   2.011   8.040   7.311  4.5076  1.9733 -2.0191
  729MOL0     H98366   2.126   8.130   7.102 -0.8240  0.2330  0.7009
  729MOL0     H98367   2.205   8.345   6.936  2.1095 -1.5938 -1.0419
  729MOL0     H98368   2.310   8.468   7.029  1.5392 -0.7886  0.8029
  729MOL0     H98369   2.438   8.257   7.111 -1.9609  1.6133  1.4453
  729MOL0     H98370   2.351   8.166   6.991  0.6471 -1.6083  0.2453
  729MOL0     H98371   2.511   8.415   6.898  2.9716 -0.2940  1.2018
  729MOL0     H98372   2.448   8.264   6.815 -4.9642  2.1164  0.3287
  729MOL0     H98373   2.623   8.139   6.915 -1.0730  0.3253  0.7163
  729MOL0     H98374   2.667   8.264   7.030  0.3304  0.1156  0.5310
  729MOL0     H98375   2.866   8.324   6.632  0.5465  0.3449  1.0057
  729MOL0     H98376   3.089   8.243   6.584  0.6216  0.5317 -0.6014
  729MOL0     H98377   3.496   8.286   6.611 -0.5682 -0.0058  0.6566
  729MOL0     H98378   3.714   8.244   6.499  2.7168 -1.4701  0.8741
  729MOL0     H98379   3.904   7.978   6.601  0.9522 -0.0606 -0.4016
  729MOL0     H98380   3.818   7.835   6.546  0.2135  0.0263  3.0284
  729MOL0     H98381   4.073   7.827   6.506  0.6154  1.6904 -2.0214
  729MOL0     H98382   3.972   7.802   6.362 -0.8457  0.6703 -1.7962
  729MOL0     H98383   4.032   8.036   6.290  0.9493 -1.9126 -2.0501
  729MOL0     H98384   4.096   8.074   6.450 -2.0480  0.4125 -0.5163
  729MOL0     H98385   4.191   7.882   6.240 -0.3938 -0.8071  1.9652
  729MOL0     H98386   4.274   7.894   6.394 -0.1375  2.5520  4.0348
  729MOL0     H98387   4.339   8.127   6.332  1.9960  0.1075 -1.2571
  729MOL0     H98388   4.234   8.117   6.186 -0.5149 -2.6527 -0.9190
  729MOL0     H98389   4.455   7.931   6.241 -0.3002  1.7523  2.6364
  729MOL0     H98390   4.364   7.982   6.080 -0.3521  0.6715 -0.8112
  729MOL0     H98391   4.601   8.031   6.067 -0.0370  0.2439 -0.4286
  729MOL0     H98392   4.598   8.100   6.221 -0.8145  1.6998 -0.0020
  729MOL0     H98393   4.401   8.187   6.002  0.5328  1.7015 -1.5314
  729MOL0     H98394   4.457   8.283   6.146  1.0652  0.5547  0.1536
  729MOL0     H98395   3.607   7.832   6.488  1.4784 -1.1973  0.0889
  729MOL0     H98396   3.388   7.878   6.586 -1.9964  1.6907  2.5183
  729MOL0     H98397   3.067   7.987   6.924 -1.1127  0.4878  1.9931
  729MOL0     H98398   2.835   8.118   6.990  0.8360 -0.9842  0.3103
  729MOL0     H98399   0.933   8.137   7.129  0.4472 -1.0345 -0.4848
  729MOL0     H98400   0.709   8.030   7.147  1.6234  1.4803  0.8021
  729MOL0     H98401   0.592   7.492   7.382  0.7305  1.5071  1.0586
  729MOL0     H98402   0.395   7.354   7.410 -0.1607 -0.2827  0.1610
  729MOL0     H98403   0.001   7.474   7.207 -0.6282  1.7359  0.0533
  729MOL0     H98404   0.062   7.564   7.342 -3.5232  1.0806 -2.2408
  729MOL0     H98405  -0.158   7.416   7.336  1.9965  2.1236 -0.3849
  729MOL0     H98406  -0.062   7.433   7.494 -3.0356  0.7270  0.5447
  729MOL0     H98407   0.045   7.209   7.401 -0.8291 -2.1311  1.6389
  729MOL0     H98408  -0.096   7.201   7.294 -1.4657  0.3147  0.7753
  729MOL0     H98409  -0.233   7.209   7.506  0.1569  0.4950 -1.8617
  729MOL0     H98410  -0.158   7.060   7.456 -1.4079 -0.4876  2.6193
  729MOL0     H98411   0.042   7.120   7.818  1.3964  1.0184 -0.9956
  729MOL0     H98412   0.187   7.581   7.113 -0.4941 -1.6740 -0.9296
  729MOL0     H98413   0.284   7.750   7.011 -1.1745 -0.5561  0.9549
  729MOL0     H98414   0.406   7.846   7.089 -0.1220 -0.6281  2.1175
  729MOL0     H98415   0.448   7.717   6.960 -1.7602  1.1942 -1.0357
  730MOL0     O98416  10.380   6.460   9.341 -0.4366  0.4719  1.1274
  730MOL0     C98417  10.345   6.470   9.459  0.0295 -0.4660 -0.0213
  730MOL0     O98418  10.221   6.510   9.497  1.0605 -0.7335  0.8103
  730MOL0     C98419  10.132   6.560   9.404  1.1149  1.5955  0.6284
  730MOL0     C98420  10.022   6.479   9.359  0.4303  0.1178  0.2066
  730MOL0     C98421   9.924   6.516   9.266 -0.1649 -0.4908 -0.5132
  730MOL0     C98422   9.939   6.641   9.202  0.7391  0.3743  0.5177
  730MOL0     O98423   9.859   6.670   9.103 -0.2475 -0.3734  0.0074
  730MOL0     C98424   9.880   6.789   9.029 -0.2588  0.6544  0.0378
  730MOL0     C98425   9.743   6.807   8.954 -1.3185  0.3135 -0.5028
  730MOL0     C98426   9.739   6.941   8.883 -0.5451 -1.6502 -0.3821
  730MOL0     C98427   9.620   6.935   8.789 -0.2541  0.0440  0.4921
  730MOL0     C98428   9.589   7.071   8.709  0.1527  0.0262 -0.7334
  730MOL0     C98429   9.449   7.097   8.651  0.7861 -0.5240  0.0540
  730MOL0     C98430   9.437   7.216   8.545 -0.3215  0.1051  0.0035
  730MOL0     C98431   9.292   7.259   8.541  0.0523  0.9815  0.0950
  730MOL0     N98432   9.266   7.367   8.457 -0.0747  0.0450 -0.3257
  730MOL0     C98433   9.290   7.495   8.484  0.2818 -0.5779 -0.9782
  730MOL0     C98434   9.228   7.568   8.388  0.0501 -0.6167  0.2324
  730MOL0     C98435   9.233   7.711   8.397 -0.2619 -0.7969 -0.0681
  730MOL0     C98436   9.094   7.762   8.448 -0.3692 -0.0234 -0.4823
  730MOL0     C98437   9.102   7.906   8.500  0.1477 -0.4600  0.1082
  730MOL0     C98438   8.965   7.984   8.502 -0.4500  0.6742  1.5299
  730MOL0     O98439   8.921   7.979   8.371  0.1030  0.3077 -0.0353
  730MOL0     C98440   8.787   7.989   8.343  0.3074  0.0558 -0.7897
  730MOL0     C98441   8.687   8.003   8.442 -0.3745 -0.3985  0.8514
  730MOL0     C98442   8.547   8.017   8.410  1.2175 -1.2556  0.5785
  730MOL0     C98443   8.504   7.997   8.277 -0.6035  0.1585  0.1862
  730MOL0     C98444   8.368   8.013   8.241  1.0135 -1.3563 -0.8363
  730MOL0     O98445   8.340   8.017   8.105 -0.0496  0.8988 -0.1004
  730MOL0     C98446   8.213   8.042   8.066 -1.4362  0.1433 -0.2747
  730MOL0     C98447   8.121   8.137   8.125 -0.5008  0.4111 -0.5875
  730MOL0     C98448   7.993   8.151   8.065  0.5645 -0.5577 -0.3898
  730MOL0     C98449   7.954   8.060   7.963 -0.2650 -0.1644 -1.2797
  730MOL0     O98450   7.830   8.061   7.908 -0.3060  0.0737  0.6442
  730MOL0     C98451   7.753   8.181   7.924 -0.4328 -0.1360 -0.3909
  730MOL0     C98452   7.653   8.170   7.815 -0.2927 -0.4452 -0.3678
  730MOL0     C98453   7.538   8.094   7.877 -0.2071  0.7036  0.6039
  730MOL0     C98454   7.420   8.089   7.772 -0.9582 -0.4190  0.0165
  730MOL0     C98455   7.298   8.013   7.826 -0.0173  1.2181 -0.3692
  730MOL0     C98456   7.313   7.863   7.877  0.0935  0.6530  0.0341
  730MOL0     C98457   7.391   7.791   7.772  0.0963 -0.5704  0.1081
  730MOL0     C98458   7.303   7.770   7.643 -1.1476 -0.0223 -0.4146
  730MOL0    Cl98459   7.432   7.719   7.520  0.2428  0.4599  0.0520
  730MOL0     C98460   8.037   7.961   7.919  0.6724 -0.1992 -0.9830
  730MOL0     C98461   8.165   7.950   7.969 -0.0379 -0.1958 -0.6015
  730MOL0     O98462   8.282   8.034   8.332 -0.0027  0.0782 -0.5026
  730MOL0     C98463   8.606   7.979   8.178  0.3644 -0.4781 -0.6149
  730MOL0     C98464   8.743   7.981   8.210  0.2837  0.6229 -0.6301
  730MOL0     N98465   9.175   7.481   8.296 -0.3065 -0.8705  0.1146
  730MOL0     N98466   9.202   7.362   8.335  0.2197 -0.2156  0.1619
  730MOL0     C98467  10.057   6.718   9.239  0.3697 -0.1780  0.5412
  730MOL0     C98468  10.149   6.676   9.334 -0.4906  0.7475 -0.0127
  730MOL0     C98469  10.446   6.439   9.564 -0.1711  0.3476 -0.9837
  730MOL0     C98470  10.389   6.444   9.692  0.4722 -0.1402 -0.0791
  730MOL0     C98471  10.459   6.398   9.797  0.2533 -0.4439 -0.6475
  730MOL0     C98472  10.585   6.355   9.784  0.0895  0.3363 -0.6849
  730MOL0     O98473  10.651   6.313   9.895 -0.4341 -0.0643  0.6346
  730MOL0     C98474  10.666   6.176   9.921  0.1496  0.5506 -0.0252
  730MOL0     C98475  10.730   6.155  10.058 -0.1925 -0.9472 -0.8585
  730MOL0     C98476  10.659   6.234  10.167  0.3921 -0.3218 -0.0756
  730MOL0     C98477  10.516   6.194  10.192  0.1114 -0.1790  1.2325
  730MOL0     C98478  10.502   6.058  10.241  0.8523  0.1469 -0.3809
  730MOL0     C98479  10.507   5.940  10.297  0.6355  0.1560  0.2952
  730MOL0     C98480  10.648   6.366   9.665 -0.2371  0.1840 -0.1609
  730MOL0     C98481  10.579   6.396   9.549 -0.7721 -0.1438  1.4348
  730MOL0     C98482  10.652   6.415   9.423  0.2514 -0.2890  0.0420
  730MOL0     H98483  10.004   6.380   9.400 -2.2271  0.1196 -0.8092
  730MOL0     H98484   9.843   6.447   9.244 -0.8915  0.0792  0.3027
  730MOL0     H98485   9.898   6.873   9.097  0.2297  0.6517 -0.0782
  730MOL0     H98486   9.965   6.778   8.960 -0.2550 -1.8808  0.3447
  730MOL0     H98487   9.659   6.792   9.023  0.6001  0.5483  2.0008
  730MOL0     H98488   9.752   6.729   8.878  1.9112  1.9992 -2.0360
  730MOL0     H98489   9.818   6.977   8.817 -1.3952  2.6301  0.6554
  730MOL0     H98490   9.732   7.026   8.951  0.5494 -2.3854  0.6941
  730MOL0     H98491   9.636   6.860   8.710  1.7959  1.8262 -0.9069
  730MOL0     H98492   9.535   6.905   8.851 -1.0878  0.0867 -0.6038
  730MOL0     H98493   9.601   7.150   8.784 -0.2707  1.2377 -1.8904
  730MOL0     H98494   9.663   7.093   8.632 -0.7370  4.2580 -0.6352
  730MOL0     H98495   9.424   7.008   8.593  0.5597 -0.3195 -0.1637
  730MOL0     H98496   9.382   7.109   8.736  0.6179 -0.8664 -0.0282
  730MOL0     H98497   9.479   7.193   8.447  1.8298  3.0072  0.1184
  730MOL0     H98498   9.491   7.305   8.579  0.7053 -0.3290 -0.4484
  730MOL0     H98499   9.233   7.173   8.509 -0.0113  1.1246 -0.1800
  730MOL0     H98500   9.262   7.290   8.641  1.4649 -0.7046  1.1007
  730MOL0     H98501   9.351   7.522   8.569 -0.7900  3.2175 -1.2328
  730MOL0     H98502   9.313   7.736   8.468 -1.5548  1.3570  0.7225
  730MOL0     H98503   9.260   7.753   8.300  3.0656  1.8180  1.7518
  730MOL0     H98504   9.009   7.759   8.379 -1.5762  1.9562  0.8154
  730MOL0     H98505   9.073   7.700   8.536 -1.0558 -1.7457 -1.7977
  730MOL0     H98506   9.176   7.957   8.438  0.9194  0.7704  1.9487
  730MOL0     H98507   9.144   7.909   8.601  1.2525  0.9082 -0.3628
  730MOL0     H98508   8.982   8.089   8.528  0.7649  0.5429  1.3341
  730MOL0     H98509   8.892   7.941   8.571 -2.2828 -0.4060 -0.9170
  730MOL0     H98510   8.727   8.023   8.541 -0.5561  3.6271  0.2783
  730MOL0     H98511   8.478   8.039   8.491 -0.6066  1.2505 -1.4670
  730MOL0     H98512   8.151   8.204   8.205  1.4563 -3.0095  1.8373
  730MOL0     H98513   7.933   8.225   8.115  1.5757 -0.6900  1.0761
  730MOL0     H98514   7.709   8.193   8.023 -1.0608 -0.1459 -0.6689
  730MOL0     H98515   7.821   8.266   7.910  2.5609 -2.4275 -0.9027
  730MOL0     H98516   7.615   8.272   7.800  0.7108  0.4449  2.5368
  730MOL0     H98517   7.696   8.137   7.720  1.4038  0.4972  0.0507
  730MOL0     H98518   7.564   7.990   7.896 -2.1068  0.0927  0.0687
  730MOL0     H98519   7.505   8.134   7.974 -0.5057 -2.3074  1.8407
  730MOL0     H98520   7.461   8.042   7.682 -1.8687  0.9642 -1.1774
  730MOL0     H98521   7.395   8.194   7.751  3.5362  1.3953  2.3202
  730MOL0     H98522   7.219   8.024   7.751  0.1347  1.3913 -0.5053
  730MOL0     H98523   7.248   8.062   7.910  0.9292 -0.2608  1.1127
  730MOL0     H98524   7.360   7.860   7.975 -0.4847  1.9617  0.3774
  730MOL0     H98525   7.216   7.819   7.904 -0.4701  2.2528  0.7306
  730MOL0     H98526   7.430   7.691   7.794  0.4205 -1.3130 -3.2539
  730MOL0     H98527   7.473   7.859   7.748 -3.1136  3.8754  0.4614
  730MOL0     H98528   7.238   7.683   7.660  1.5720 -1.9204  1.2981
  730MOL0     H98529   7.244   7.858   7.618 -1.1370 -0.3484 -1.6255
  730MOL0     H98530   8.001   7.888   7.846  0.3435 -2.1254  1.0090
  730MOL0     H98531   8.240   7.882   7.929 -0.2578 -2.1037  1.9691
  730MOL0     H98532   8.574   7.976   8.074 -0.0640  1.6046 -0.5767
  730MOL0     H98533   8.823   7.971   8.138  0.0820 -2.8374 -0.5250
  730MOL0     H98534  10.064   6.821   9.207 -0.0751  0.4851  2.4748
  730MOL0     H98535  10.238   6.731   9.361  1.7327 -1.2378 -2.7012
  730MOL0     H98536  10.288   6.473   9.719 -0.1693 -0.8573 -1.5869
  730MOL0     H98537  10.414   6.399   9.896  0.1501  1.0412 -0.6909
  730MOL0     H98538  10.738   6.126   9.854 -1.1970 -3.5190  1.3117
  730MOL0     H98539  10.574   6.119   9.915  0.4039  0.1631 -0.2926
  730MOL0     H98540  10.835   6.184  10.068 -0.5376 -0.2170  1.1444
  730MOL0     H98541  10.728   6.048  10.080 -0.1939 -0.1570  4.5184
  730MOL0     H98542  10.670   6.341  10.148 -1.2339  0.7089  3.8286
  730MOL0     H98543  10.721   6.220  10.256  1.8130  0.3963 -0.9022
  730MOL0     H98544  10.465   6.261  10.262 -1.0821 -1.2525  1.4249
  730MOL0     H98545  10.453   6.208  10.103  2.9056  0.3851 -0.7789
  730MOL0     H98546  10.513   5.848  10.351  0.2014 -0.7866 -1.1882
  730MOL0     H98547  10.756   6.356   9.663  0.1615  0.9180  5.1995
  730MOL0     H98548  10.635   6.517   9.388 -3.5714  0.4102  3.1700
  730MOL0     H98549  10.756   6.384   9.434  0.7241  0.5484 -1.6684
  730MOL0     H98550  10.607   6.350   9.348 -3.1819  0.9092  0.8761
  731MOL0     O98551   8.452   1.263   3.008  0.3763 -0.0353  0.1703
  731MOL0     C98552   8.444   1.198   2.902 -0.1585  0.3415 -0.0511
  731MOL0     O98553   8.377   1.077   2.895  0.0601  0.6069 -0.0747
  731MOL0     C98554   8.274   1.048   2.982  0.0829 -1.0244 -0.4717
  731MOL0     C98555   8.220   1.123   3.093 -0.6153  0.0172 -0.9500
  731MOL0     C98556   8.097   1.091   3.157 -0.2152  0.7818  0.3674
  731MOL0     C98557   8.026   0.983   3.114 -0.4957  0.5167  0.3208
  731MOL0     O98558   7.904   0.942   3.166  0.9380 -0.0338 -0.1812
  731MOL0     C98559   7.804   1.043   3.142  1.1952 -0.5670  0.3458
  731MOL0     C98560   7.668   0.986   3.114  0.4722 -0.4270 -0.0391
  731MOL0     C98561   7.582   0.957   3.250  0.1510  1.1004 -0.4698
  731MOL0     C98562   7.430   0.950   3.232  0.1298  0.7445 -0.1380
  731MOL0     C98563   7.350   0.882   3.347 -0.2313 -0.0187 -0.2917
  731MOL0     C98564   7.201   0.890   3.324  0.9859 -0.1539  0.2154
  731MOL0     C98565   7.145   1.030   3.366  0.3642  0.5332 -0.2023
  731MOL0     C98566   6.993   1.028   3.364 -0.5574  0.1930  0.7652
  731MOL0     N98567   6.933   1.163   3.349 -0.2339  0.0681 -1.2410
  731MOL0     C98568   6.831   1.219   3.427 -0.1285  0.4928  0.6968
  731MOL0     C98569   6.796   1.336   3.376  0.5421  0.5237  0.3864
  731MOL0     C98570   6.682   1.418   3.423 -0.2771 -0.8467 -0.8488
  731MOL0     C98571   6.570   1.428   3.310  1.0498  0.0927 -0.1899
  731MOL0     C98572   6.499   1.298   3.284 -0.0943  0.5726  0.2047
  731MOL0     C98573   6.414   1.253   3.406  0.3287  0.7269 -0.1551
  731MOL0     O98574   6.357   1.123   3.402 -0.7799  0.4375 -0.2214
  731MOL0     C98575   6.457   1.026   3.383 -0.0488  0.1813 -0.6726
  731MOL0     C98576   6.470   0.932   3.275 -0.1870  0.2718  0.2852
  731MOL0     C98577   6.565   0.829   3.266 -0.0140 -0.0698  0.3629
  731MOL0     C98578   6.657   0.817   3.375  0.3504  0.5991 -0.0303
  731MOL0     C98579   6.753   0.702   3.375  0.3707  0.1559 -0.2437
  731MOL0     O98580   6.848   0.689   3.484  0.2321 -0.0059  0.5284
  731MOL0     C98581   6.970   0.616   3.478  0.1648  0.1546 -0.3421
  731MOL0     C98582   7.037   0.579   3.358 -0.1248 -0.6421  0.3208
  731MOL0     C98583   7.172   0.518   3.350  1.1535  0.2201  0.0088
  731MOL0     C98584   7.229   0.477   3.471  0.3369 -0.6009 -0.3713
  731MOL0     O98585   7.357   0.427   3.474  0.5610 -0.1850 -0.1352
  731MOL0     C98586   7.441   0.467   3.576 -0.7242 -0.5122 -1.2800
  731MOL0     C98587   7.568   0.532   3.519  0.0637  0.0587 -0.4602
  731MOL0     C98588   7.646   0.628   3.601  0.6405  0.5843 -1.1719
  731MOL0     C98589   7.647   0.604   3.746  0.1524  0.5573 -0.3486
  731MOL0     C98590   7.717   0.718   3.821  0.1296  0.1240 -0.7373
  731MOL0     C98591   7.728   0.694   3.962 -0.2575 -0.3960 -1.1904
  731MOL0     C98592   7.835   0.777   4.026 -0.0573 -0.4707 -1.0287
  731MOL0     C98593   7.791   0.921   4.034 -0.5276 -0.3845 -0.0430
  731MOL0    Cl98594   7.660   0.960   4.143 -0.1568 -0.4755  0.3116
  731MOL0     C98595   7.155   0.505   3.592  0.2745  0.5266  0.5227
  731MOL0     C98596   7.033   0.567   3.587  0.1905  0.1362  1.2399
  731MOL0     O98597   6.733   0.617   3.287  0.2699  0.4700  0.0205
  731MOL0     C98598   6.635   0.900   3.487  0.1046 -0.2384 -0.7188
  731MOL0     C98599   6.542   1.001   3.493 -0.2003 -0.5384 -1.1296
  731MOL0     N98600   6.881   1.358   3.275  0.6021  0.1919  0.2569
  731MOL0     N98601   6.965   1.260   3.265 -1.0386  0.3554 -0.0575
  731MOL0     C98602   8.080   0.908   3.011  0.1592 -0.3177  0.2890
  731MOL0     C98603   8.203   0.940   2.950 -0.3890 -0.0848 -1.3526
  731MOL0     C98604   8.524   1.229   2.776  0.7207  0.5395 -1.1050
  731MOL0     C98605   8.642   1.307   2.788 -0.4140  0.3952 -0.9821
  731MOL0     C98606   8.711   1.364   2.684 -0.7851  0.0169  0.1380
  731MOL0     C98607   8.676   1.334   2.554  0.4411 -1.1928 -0.6742
  731MOL0     O98608   8.729   1.377   2.438 -0.2231 -0.5417 -0.3220
  731MOL0     C98609   8.825   1.484   2.447  0.5966  0.4802 -0.5756
  731MOL0     C98610   8.834   1.557   2.319 -0.1977 -0.9696  1.2160
  731MOL0     C98611   8.923   1.684   2.336  0.1447  0.5148  0.6501
  731MOL0     C98612   8.871   1.801   2.254 -0.5373 -0.8252 -0.2075
  731MOL0     C98613   8.944   1.917   2.298  0.7379 -0.3208  0.1218
  731MOL0     C98614   9.022   1.991   2.359  0.0676 -0.5377  0.0362
  731MOL0     C98615   8.569   1.249   2.536  0.1677 -0.2082 -0.7720
  731MOL0     C98616   8.496   1.194   2.643  0.0845  1.1355 -0.6912
  731MOL0     C98617   8.383   1.099   2.610 -0.2080 -0.0774 -1.0505
  731MOL0     H98618   8.259   1.217   3.130 -2.8811  0.1687  1.3569
  731MOL0     H98619   8.054   1.152   3.236 -0.0272  1.4557 -0.0446
  731MOL0     H98620   7.796   1.111   3.227 -1.3098  1.5906 -1.4643
  731MOL0     H98621   7.838   1.107   3.060  3.2573 -1.9226  0.0550
  731MOL0     H98622   7.675   0.896   3.051  2.1347 -1.1908  1.1544
  731MOL0     H98623   7.622   1.060   3.048 -0.1133  0.0925  0.9267
  731MOL0     H98624   7.585   1.038   3.325  1.7419 -0.3212  1.1212
  731MOL0     H98625   7.623   0.865   3.293 -0.4136  0.9507 -0.2429
  731MOL0     H98626   7.382   1.048   3.217 -0.4914  1.0438  3.0914
  731MOL0     H98627   7.407   0.884   3.148 -0.6728 -1.3193  1.6146
  731MOL0     H98628   7.378   0.776   3.348 -2.2520 -0.6150 -0.7845
  731MOL0     H98629   7.375   0.914   3.448  0.8039 -1.4545 -0.0641
  731MOL0     H98630   7.166   0.871   3.223  0.5557 -1.0525  0.5254
  731MOL0     H98631   7.164   0.813   3.393  5.3563 -1.6312  1.2748
  731MOL0     H98632   7.184   1.110   3.302 -1.0995 -0.0575 -1.9179
  731MOL0     H98633   7.158   1.044   3.474 -2.1515 -2.4982  0.6441
  731MOL0     H98634   6.961   0.971   3.276  0.5106  3.1466 -1.7302
  731MOL0     H98635   6.951   0.973   3.449 -2.3840 -1.3712 -1.0497
  731MOL0     H98636   6.792   1.178   3.519 -0.0927 -0.5689  0.2527
  731MOL0     H98637   6.646   1.377   3.518 -0.5481  4.2127  1.5341
  731MOL0     H98638   6.718   1.518   3.448 -0.2541 -0.5531 -1.9965
  731MOL0     H98639   6.497   1.508   3.328 -0.3268 -0.9852 -0.7687
  731MOL0     H98640   6.626   1.457   3.222  2.1902 -2.2759 -0.3249
  731MOL0     H98641   6.562   1.215   3.251 -0.8219  0.8727 -2.0614
  731MOL0     H98642   6.437   1.316   3.196  0.6524  0.9222 -0.2609
  731MOL0     H98643   6.332   1.326   3.412 -0.5434 -0.3549  2.1536
  731MOL0     H98644   6.471   1.270   3.498 -0.7123  3.5828  0.0573
  731MOL0     H98645   6.401   0.940   3.192  0.4546  1.1312 -0.1795
  731MOL0     H98646   6.579   0.765   3.180  1.2296 -0.4207  0.8050
  731MOL0     H98647   7.003   0.615   3.261  1.9387  0.4726 -0.0406
  731MOL0     H98648   7.220   0.512   3.252  0.4454  1.2970 -0.4282
  731MOL0     H98649   7.399   0.530   3.655 -0.1672 -1.0479 -0.5436
  731MOL0     H98650   7.467   0.375   3.628  0.6695  1.3763  1.6724
  731MOL0     H98651   7.641   0.453   3.496  0.9875  0.3171  1.4305
  731MOL0     H98652   7.542   0.577   3.423  2.3053  1.0741 -0.6546
  731MOL0     H98653   7.752   0.617   3.574  0.7836 -1.1195 -0.0216
  731MOL0     H98654   7.617   0.732   3.585  4.2663  2.1990  1.3047
  731MOL0     H98655   7.705   0.512   3.763 -1.9497 -0.4147  2.1184
  731MOL0     H98656   7.552   0.597   3.799  1.1076 -2.4011  1.2295
  731MOL0     H98657   7.657   0.807   3.798  1.1612  1.1553  0.4034
  731MOL0     H98658   7.812   0.734   3.768 -0.6289  2.6626 -1.5007
  731MOL0     H98659   7.636   0.721   4.015 -0.1799 -0.1404 -1.1856
  731MOL0     H98660   7.756   0.590   3.977 -0.1052 -0.0304  1.6968
  731MOL0     H98661   7.924   0.766   3.964  0.0357 -5.7829 -0.4337
  731MOL0     H98662   7.858   0.741   4.127 -2.1908 -0.6274 -0.5355
  731MOL0     H98663   7.885   0.966   4.066  0.4528 -2.9374  0.8818
  731MOL0     H98664   7.760   0.969   3.941  1.3249 -0.9118 -0.9641
  731MOL0     H98665   7.187   0.473   3.691 -1.3522 -0.0912  0.8850
  731MOL0     H98666   6.964   0.583   3.670 -2.2757  2.9086 -1.0917
  731MOL0     H98667   6.695   0.868   3.571  0.0677 -1.9289 -1.3051
  731MOL0     H98668   6.524   1.060   3.582 -0.1369 -0.4347 -1.1850
  731MOL0     H98669   8.034   0.821   2.967  1.3902 -0.7913 -0.0919
  731MOL0     H98670   8.231   0.871   2.871 -0.1438 -1.9399  0.2877
  731MOL0     H98671   8.682   1.321   2.888 -1.0591 -0.9999 -0.5093
  731MOL0     H98672   8.797   1.426   2.707 -0.4883  0.1970 -1.3806
  731MOL0     H98673   8.920   1.442   2.481  0.9510  2.7017  1.4486
  731MOL0     H98674   8.805   1.560   2.524  1.2583 -0.2923  0.3877
  731MOL0     H98675   8.733   1.591   2.292 -0.8041 -3.8360 -0.6577
  731MOL0     H98676   8.854   1.494   2.231 -1.7757  2.1236 -1.5962
  731MOL0     H98677   9.026   1.659   2.309 -0.4230  0.0284 -1.2631
  731MOL0     H98678   8.919   1.711   2.442 -2.0661 -0.6265  0.9296
  731MOL0     H98679   8.876   1.798   2.144  0.5755 -2.0735 -0.1603
  731MOL0     H98680   8.771   1.835   2.279 -1.5068 -3.8240  0.4902
  731MOL0     H98681   9.090   2.046   2.422 -2.0484  0.9220  1.1956
  731MOL0     H98682   8.542   1.230   2.432  1.3859  0.7223 -1.2744
  731MOL0     H98683   8.391   0.996   2.645 -3.3513  0.2586  1.0476
  731MOL0     H98684   8.286   1.126   2.654 -1.9220 -2.4732 -3.0320
  731MOL0     H98685   8.355   1.091   2.504 -2.4572  0.5976 -0.5644
  732MOL0     O98686  11.013   2.706   2.964  0.0298  0.8577  0.2377
  732MOL0     C98687  11.027   2.587   2.991 -0.2387 -0.0711 -0.6102
  732MOL0     O98688  11.144   2.521   3.006 -0.0547  0.3423  0.4042
  732MOL0     C98689  11.254   2.588   3.051 -0.7914 -0.0751  1.2807
  732MOL0     C98690  11.324   2.670   2.961  0.0559 -0.8892  0.3375
  732MOL0     C98691  11.439   2.731   3.007  0.4748  0.0777 -0.0064
  732MOL0     C98692  11.491   2.705   3.135 -0.9189  0.0240 -0.4073
  732MOL0     O98693  11.612   2.759   3.172 -0.2257  0.4031  0.2615
  732MOL0     C98694  11.714   2.656   3.171  0.1691  0.0808  1.1754
  732MOL0     C98695  11.836   2.699   3.081 -0.1395  0.0537 -0.5776
  732MOL0     C98696  11.908   2.820   3.148 -0.1119  0.3776  0.9921
  732MOL0     C98697  12.040   2.859   3.074 -1.2421  0.3631  0.8673
  732MOL0     C98698  12.149   2.752   3.088 -0.1696 -0.7767 -0.1095
  732MOL0     C98699  12.297   2.795   3.062 -0.4896  0.6136 -0.2571
  732MOL0     C98700  12.328   2.807   2.918  0.4133  0.0061  0.2058
  732MOL0     C98701  12.456   2.876   2.892  0.1572  0.3201 -0.4651
  732MOL0     N98702  12.568   2.788   2.918 -0.5211  0.2210 -0.0501
  732MOL0     C98703  12.627   2.778   3.040 -0.2033 -0.0070 -0.1676
  732MOL0     C98704  12.713   2.671   3.021  0.2514 -0.3989  0.3489
  732MOL0     C98705  12.820   2.613   3.105  0.0102  0.0283 -0.2598
  732MOL0     C98706  12.947   2.690   3.116  0.0903 -0.2484  0.6558
  732MOL0     C98707  13.067   2.609   3.174 -0.1610  0.4568 -0.5892
  732MOL0     C98708  13.040   2.552   3.312 -0.0170  0.0332  0.1437
  732MOL0     O98709  13.140   2.465   3.373 -0.2530 -0.8666 -0.2384
  732MOL0     C98710  13.245   2.524   3.431  0.0375  0.1012  0.0099
  732MOL0     C98711  13.236   2.618   3.526  0.4101  0.4591 -0.6467
  732MOL0     C98712  13.350   2.663   3.596 -0.4742  0.1419 -0.3662
  732MOL0     C98713  13.477   2.610   3.569 -0.6890 -0.0438  0.0925
  732MOL0     C98714  13.595   2.655   3.643  0.4484  0.1354  0.8048
  732MOL0     O98715  13.585   2.749   3.738 -0.4425  0.2160  0.9045
  732MOL0     C98716  13.700   2.805   3.785 -0.8459  0.1909  0.5722
  732MOL0     C98717  13.709   2.947   3.794  0.7017 -0.1954 -0.2969
  732MOL0     C98718  13.815   2.998   3.859  0.0723 -0.2094  1.3339
  732MOL0     C98719  13.916   2.917   3.912 -1.0938  0.0283 -0.6770
  732MOL0     O98720  14.015   2.984   3.982 -0.6110  0.6851  0.5154
  732MOL0     C98721  14.030   2.948   4.124 -0.2436  0.3111 -0.1142
  732MOL0     C98722  14.005   3.077   4.207  0.4413 -0.3055  0.6512
  732MOL0     C98723  14.107   3.189   4.176 -0.3074 -0.5323  0.0312
  732MOL0     C98724  14.093   3.311   4.266  0.1269 -0.5436 -0.3435
  732MOL0     C98725  14.045   3.288   4.408  0.2084  0.2167 -0.7318
  732MOL0     C98726  14.142   3.231   4.511  0.9537  0.3151  0.0786
  732MOL0     C98727  14.075   3.197   4.644  0.0606 -0.4706 -0.3063
  732MOL0     C98728  14.154   3.111   4.747 -0.2512  0.9792 -0.6905
  732MOL0    Cl98729  14.319   3.184   4.773  0.1106 -0.0007 -0.3545
  732MOL0     C98730  13.915   2.776   3.901  0.7631  0.1439  0.6980
  732MOL0     C98731  13.801   2.720   3.844  0.0909  0.5220 -0.2936
  732MOL0     O98732  13.701   2.615   3.589 -0.2153 -0.2177 -0.0692
  732MOL0     C98733  13.486   2.521   3.461  0.4063  0.3243 -0.0316
  732MOL0     C98734  13.371   2.479   3.398 -0.0220  0.4768 -1.1046
  732MOL0     N98735  12.705   2.619   2.894  0.7091 -0.1972 -0.2547
  732MOL0     N98736  12.613   2.690   2.829 -0.9448 -0.6579 -0.7201
  732MOL0     C98737  11.414   2.626   3.224 -1.6961  0.4299 -0.4212
  732MOL0     C98738  11.301   2.570   3.181  0.8871  0.2263 -0.2963
  732MOL0     C98739  10.910   2.493   2.985  0.1593 -0.1134  0.2871
  732MOL0     C98740  10.930   2.370   3.053 -0.6713  0.6020  0.9445
  732MOL0     C98741  10.825   2.277   3.069  0.4829 -0.1337  0.2283
  732MOL0     C98742  10.705   2.303   3.004 -0.0751 -0.7540 -0.3217
  732MOL0     O98743  10.592   2.228   3.008  0.3075 -0.1224  0.0052
  732MOL0     C98744  10.584   2.124   3.096 -1.0572  0.3587 -0.1750
  732MOL0     C98745  10.438   2.117   3.148  0.0059  0.6859  0.4038
  732MOL0     C98746  10.420   2.028   3.275  0.5673 -0.0529 -0.2901
  732MOL0     C98747  10.269   1.975   3.293  0.2462 -0.0716  0.3596
  732MOL0     C98748  10.207   2.058   3.393  0.1963  0.5914  0.0219
  732MOL0     C98749  10.145   2.116   3.483  0.0168 -0.4510 -0.0965
  732MOL0     C98750  10.693   2.413   2.920 -1.4080  0.0541  0.3936
  732MOL0     C98751  10.790   2.514   2.918  0.3955 -0.0193 -0.8177
  732MOL0     C98752  10.755   2.624   2.817 -0.3070  0.3544 -0.0203
  732MOL0     H98753  11.294   2.679   2.857  1.3837  0.3164  0.0166
  732MOL0     H98754  11.495   2.795   2.940  1.0165 -0.7223 -0.3361
  732MOL0     H98755  11.757   2.631   3.268 -1.0527 -2.1098  1.2333
  732MOL0     H98756  11.667   2.560   3.147 -1.7403  1.2932 -0.2599
  732MOL0     H98757  11.802   2.710   2.978  1.3799 -2.4834 -1.4412
  732MOL0     H98758  11.908   2.617   3.076 -2.6304 -2.2459 -1.5829
  732MOL0     H98759  11.937   2.800   3.251  1.2116  0.3579  0.6282
  732MOL0     H98760  11.838   2.904   3.141 -3.1428 -1.8950  1.9027
  732MOL0     H98761  12.033   2.892   2.970  0.4369  0.9267  0.8947
  732MOL0     H98762  12.082   2.942   3.133  0.3318 -0.6328  1.2238
  732MOL0     H98763  12.148   2.704   3.186  0.7277 -1.2529 -0.3190
  732MOL0     H98764  12.126   2.668   3.022  2.7442 -1.0777 -0.8804
  732MOL0     H98765  12.326   2.874   3.131 -3.6284 -0.8476  3.0790
  732MOL0     H98766  12.351   2.708   3.103 -2.5766 -0.5279  0.2002
  732MOL0     H98767  12.250   2.860   2.863  0.9311 -0.9755 -1.5283
  732MOL0     H98768  12.332   2.709   2.870  1.7511 -0.1283  0.5597
  732MOL0     H98769  12.461   2.882   2.783  1.1384 -2.5904 -0.6608
  732MOL0     H98770  12.475   2.978   2.929  2.9809  0.7231 -2.6858
  732MOL0     H98771  12.620   2.844   3.125  0.8396  1.4647 -1.1665
  732MOL0     H98772  12.789   2.601   3.209 -0.8582 -0.3745 -0.5538
  732MOL0     H98773  12.843   2.515   3.063  0.8025  0.6779 -1.3892
  732MOL0     H98774  12.975   2.740   3.023 -1.4905 -1.2732 -0.4161
  732MOL0     H98775  12.929   2.776   3.182  0.9450 -0.8030  1.6512
  732MOL0     H98776  13.155   2.670   3.196  0.6280 -1.2120  1.2334
  732MOL0     H98777  13.103   2.543   3.094 -0.9221  1.2211 -1.5806
  732MOL0     H98778  12.951   2.489   3.306 -0.0567  0.1318 -0.3294
  732MOL0     H98779  13.007   2.642   3.365 -2.8630 -0.8479  0.0395
  732MOL0     H98780  13.143   2.664   3.559 -0.1313 -0.6909 -0.5189
  732MOL0     H98781  13.330   2.731   3.678 -4.9779  1.6894 -2.3660
  732MOL0     H98782  13.618   2.996   3.761  0.3699 -0.0424  0.8209
  732MOL0     H98783  13.812   3.107   3.862  1.7492  0.0923 -2.1967
  732MOL0     H98784  13.951   2.875   4.142 -1.4028  1.6415  0.4381
  732MOL0     H98785  14.126   2.904   4.150 -0.4226 -0.1407 -0.2091
  732MOL0     H98786  13.906   3.121   4.190  0.0189 -0.3435  2.7399
  732MOL0     H98787  14.017   3.044   4.310  2.7413 -2.1707 -0.1141
  732MOL0     H98788  14.211   3.154   4.181  0.3196  1.0249 -1.1315
  732MOL0     H98789  14.100   3.222   4.071  1.6827 -1.8510 -0.5867
  732MOL0     H98790  14.024   3.380   4.217  4.2227  2.3595 -2.7247
  732MOL0     H98791  14.191   3.361   4.271  0.0358 -0.4524  0.6973
  732MOL0     H98792  13.955   3.226   4.403 -0.3002  0.9013 -0.2417
  732MOL0     H98793  14.020   3.389   4.441  2.7342  0.5955  0.2483
  732MOL0     H98794  14.204   3.152   4.469  0.8585  0.2399  0.0787
  732MOL0     H98795  14.217   3.308   4.528  2.3547 -1.1270  0.6432
  732MOL0     H98796  13.975   3.153   4.630  0.6808 -2.1124  0.1945
  732MOL0     H98797  14.049   3.290   4.694 -3.4694 -1.5989  0.2401
  732MOL0     H98798  14.102   3.100   4.843  0.5860  2.0565 -0.0984
  732MOL0     H98799  14.173   3.010   4.710 -0.4924  0.0790  1.4617
  732MOL0     H98800  13.985   2.736   3.974 -0.2430  0.7840  2.0547
  732MOL0     H98801  13.785   2.614   3.832 -0.0037  0.7027 -1.9946
  732MOL0     H98802  13.584   2.483   3.435  0.4654  0.3709  0.1211
  732MOL0     H98803  13.375   2.410   3.314 -4.4173  0.1443 -1.2605
  732MOL0     H98804  11.440   2.618   3.329  0.1580 -5.2162 -0.9452
  732MOL0     H98805  11.248   2.507   3.252  0.9797 -1.6420 -1.7919
  732MOL0     H98806  11.024   2.340   3.098 -0.1034 -0.9282 -1.1619
  732MOL0     H98807  10.841   2.193   3.136 -0.2026  1.6216  2.7399
  732MOL0     H98808  10.644   2.121   3.187 -0.2919  0.9227 -0.6500
  732MOL0     H98809  10.604   2.032   3.040 -3.2448 -1.4929  1.8660
  732MOL0     H98810  10.383   2.056   3.076  0.6095 -1.5743  1.7603
  732MOL0     H98811  10.388   2.214   3.158 -0.5777  0.9475 -3.5487
  732MOL0     H98812  10.436   2.097   3.359 -0.5445  2.2369 -1.8681
  732MOL0     H98813  10.494   1.947   3.275  1.0960  0.2605  3.2199
  732MOL0     H98814  10.218   1.991   3.198  0.6033 -3.2126 -0.4568
  732MOL0     H98815  10.275   1.868   3.313  0.0393 -0.4931 -1.6612
  732MOL0     H98816  10.082   2.179   3.542 -2.1867 -1.4501 -1.2356
  732MOL0     H98817  10.601   2.423   2.863 -2.8558 -4.0163  1.6172
  732MOL0     H98818  10.717   2.720   2.853  0.6845  0.9662 -0.5595
  732MOL0     H98819  10.845   2.646   2.759 -1.6735  1.2439 -1.8837
  732MOL0     H98820  10.686   2.582   2.743 -2.2926 -1.0194  2.4574
  733MOL0     O98821  10.345   7.028   5.595 -0.3705 -0.8152 -0.6569
  733MOL0     C98822  10.301   7.106   5.684 -0.6733  0.7222  0.1515
  733MOL0     O98823  10.350   7.113   5.810 -0.6079 -0.4929 -0.1185
  733MOL0     C98824  10.477   7.072   5.847 -0.4939 -0.4144 -0.5382
  733MOL0     C98825  10.589   7.045   5.766 -0.0379  0.5029 -1.7331
  733MOL0     C98826  10.708   6.985   5.825  0.4065  0.5762 -0.4148
  733MOL0     C98827  10.720   6.967   5.960 -0.4460  0.0795 -0.8304
  733MOL0     O98828  10.823   6.910   6.031 -0.3187  0.2167 -0.0843
  733MOL0     C98829  10.917   6.820   5.966 -0.0149 -0.4919 -1.0351
  733MOL0     C98830  11.058   6.892   5.949 -0.0491 -0.3507  0.8667
  733MOL0     C98831  11.118   6.985   6.054  0.1320  0.2717  0.3865
  733MOL0     C98832  11.250   7.026   5.996 -0.6088  1.1091  0.6011
  733MOL0     C98833  11.309   7.115   6.101 -0.2564 -0.1581 -0.7755
  733MOL0     C98834  11.460   7.145   6.060  0.5610 -0.6301 -0.5406
  733MOL0     C98835  11.553   7.024   6.094 -0.9505  0.2497  0.0796
  733MOL0     C98836  11.705   7.038   6.051 -0.8092 -0.8603  0.0066
  733MOL0     N98837  11.810   6.945   6.105  0.3402  0.2498  0.7684
  733MOL0     C98838  11.805   6.804   6.099  0.3599  0.3760 -0.0718
  733MOL0     C98839  11.930   6.765   6.134 -0.4010 -0.3283  0.8045
  733MOL0     C98840  11.988   6.646   6.187  0.1747  0.7240  0.3416
  733MOL0     C98841  12.127   6.607   6.127 -1.0740  0.7713  0.4200
  733MOL0     C98842  12.174   6.468   6.177 -0.1146 -0.1286  0.2987
  733MOL0     C98843  12.153   6.456   6.324 -0.9183  0.7457  0.4033
  733MOL0     O98844  12.232   6.558   6.391  0.2888  0.7674  0.0028
  733MOL0     C98845  12.370   6.560   6.390 -0.5511 -0.3893  0.6093
  733MOL0     C98846  12.460   6.463   6.346 -0.0441 -0.0992  0.5338
  733MOL0     C98847  12.600   6.475   6.341  0.2628  0.7152  0.7780
  733MOL0     C98848  12.651   6.600   6.376 -0.3202 -0.0309  0.4396
  733MOL0     C98849  12.796   6.619   6.388  0.0702  0.4978  0.5746
  733MOL0     O98850  12.879   6.529   6.325  0.7392 -0.2716 -0.8537
  733MOL0     C98851  13.009   6.530   6.365 -0.6128  1.0157  0.4133
  733MOL0     C98852  13.110   6.508   6.264 -0.1747 -0.6481  0.7934
  733MOL0     C98853  13.248   6.498   6.299 -0.3410  0.4112 -0.8461
  733MOL0     C98854  13.283   6.491   6.435  1.1088 -0.3714 -0.0800
  733MOL0     O98855  13.413   6.474   6.468  0.3094  0.2658  0.3599
  733MOL0     C98856  13.460   6.502   6.597 -0.9217  0.1334  0.2624
  733MOL0     C98857  13.617   6.503   6.600  0.5864  0.0037  0.1597
  733MOL0     C98858  13.688   6.456   6.725 -0.0761  0.2764 -0.0425
  733MOL0     C98859  13.664   6.553   6.841  0.4333 -0.4056 -0.9027
  733MOL0     C98860  13.695   6.500   6.991 -0.1401  0.5442  1.6583
  733MOL0     C98861  13.845   6.470   7.005  0.1499 -0.6152  0.4778
  733MOL0     C98862  13.888   6.443   7.147 -0.3689  0.0752  0.0868
  733MOL0     C98863  13.825   6.310   7.211 -0.1077 -0.1222 -0.2526
  733MOL0    Cl98864  13.953   6.231   7.284 -0.3047 -0.1847 -0.2030
  733MOL0     C98865  13.187   6.524   6.530 -0.0092  0.4775 -0.8531
  733MOL0     C98866  13.055   6.537   6.497  0.2520  0.0688 -0.0092
  733MOL0     O98867  12.830   6.715   6.461  0.3036  0.5800  0.7621
  733MOL0     C98868  12.564   6.706   6.409  0.0602 -0.2477  0.2647
  733MOL0     C98869  12.423   6.694   6.418 -0.7063  0.4799 -0.2489
  733MOL0     N98870  12.011   6.877   6.132 -0.2463  0.2400  0.5048
  733MOL0     N98871  11.939   6.987   6.120 -0.0785  0.2861 -0.0673
  733MOL0     C98872  10.610   7.012   6.041 -0.6025  1.1853  0.0274
  733MOL0     C98873  10.497   7.072   5.987 -0.6035  0.0411  0.4158
  733MOL0     C98874  10.196   7.203   5.628 -0.2782 -0.4256 -1.1179
  733MOL0     C98875  10.144   7.176   5.499  0.0258  0.2162 -0.4668
  733MOL0     C98876  10.054   7.255   5.429 -0.1926 -0.1692  0.5059
  733MOL0     C98877  10.000   7.369   5.493 -0.3814  0.1108  1.0920
  733MOL0     O98878   9.908   7.443   5.414 -0.2053 -0.3196 -0.3093
  733MOL0     C98879   9.879   7.572   5.463 -0.0645  0.1712 -0.9721
  733MOL0     C98880  10.000   7.666   5.461  0.2195 -0.3252 -0.3525
  733MOL0     C98881  10.030   7.728   5.323 -0.4032  0.4095 -0.7007
  733MOL0     C98882  10.172   7.796   5.311  0.1969  0.3493  0.5535
  733MOL0     C98883  10.209   7.878   5.429 -0.3509  0.6537  0.6797
  733MOL0     C98884  10.210   7.941   5.530  0.2222 -0.1662  0.3470
  733MOL0     C98885  10.036   7.391   5.636  0.5061 -0.9217  0.2302
  733MOL0     C98886  10.127   7.308   5.705  0.5938  0.2261  0.2073
  733MOL0     C98887  10.160   7.344   5.847  0.4992  0.5986 -0.8963
  733MOL0     H98888  10.583   7.069   5.660  0.1813  3.0049 -1.2547
  733MOL0     H98889  10.792   6.954   5.763  2.2155  0.1270  2.0816
  733MOL0     H98890  10.940   6.739   6.036  1.1433 -0.0527 -0.8875
  733MOL0     H98891  10.874   6.781   5.873  0.7425 -1.2122 -1.0948
  733MOL0     H98892  11.060   6.941   5.852 -0.4223 -1.8540  0.0717
  733MOL0     H98893  11.128   6.807   5.945 -0.4457 -0.6928  1.0810
  733MOL0     H98894  11.136   6.937   6.151  2.6414 -1.2190 -0.7120
  733MOL0     H98895  11.045   7.065   6.074  0.6523  0.7581  0.3799
  733MOL0     H98896  11.311   6.935   5.994 -1.2988  0.6248  1.2987
  733MOL0     H98897  11.231   7.074   5.899 -1.0455  1.0286  0.6460
  733MOL0     H98898  11.255   7.210   6.105  0.7671  0.4465 -0.9606
  733MOL0     H98899  11.308   7.070   6.201  0.9542  1.7028  0.1149
  733MOL0     H98900  11.465   7.157   5.952 -2.0881 -1.4739 -0.8118
  733MOL0     H98901  11.496   7.231   6.117  0.6127 -0.8118 -0.2943
  733MOL0     H98902  11.516   6.938   6.038 -3.9414  1.7317 -0.3938
  733MOL0     H98903  11.550   7.004   6.201 -1.3400  0.6175  0.1383
  733MOL0     H98904  11.703   7.031   5.941  1.6374 -1.6719 -0.0455
  733MOL0     H98905  11.732   7.141   6.074 -2.3624  0.3008 -2.8691
  733MOL0     H98906  11.719   6.740   6.080  1.4152 -0.3195 -2.8689
  733MOL0     H98907  11.999   6.671   6.292  1.8598  1.6597 -0.0220
  733MOL0     H98908  11.922   6.559   6.180  2.4998 -1.3389  2.1827
  733MOL0     H98909  12.118   6.596   6.018 -3.6231 -0.6812  0.6882
  733MOL0     H98910  12.209   6.667   6.167  2.6086 -3.0767 -0.4809
  733MOL0     H98911  12.278   6.442   6.152 -0.5120 -1.5100 -0.0452
  733MOL0     H98912  12.113   6.397   6.120 -1.8141  0.9260  0.7488
  733MOL0     H98913  12.178   6.354   6.357 -0.9431 -0.1032 -1.9614
  733MOL0     H98914  12.047   6.470   6.348 -0.4298  0.7208  2.8122
  733MOL0     H98915  12.424   6.364   6.320  0.2033 -0.4591  1.4942
  733MOL0     H98916  12.666   6.390   6.331 -1.7481 -1.0713  1.7742
  733MOL0     H98917  13.095   6.502   6.157  1.7710 -1.4011  0.5291
  733MOL0     H98918  13.333   6.482   6.233 -1.1416  1.7441 -2.2658
  733MOL0     H98919  13.416   6.592   6.643  2.3205  2.0663 -0.0954
  733MOL0     H98920  13.442   6.417   6.664 -0.3504  0.9641  1.5122
  733MOL0     H98921  13.645   6.426   6.528  2.5338  1.7327 -1.0359
  733MOL0     H98922  13.653   6.604   6.578  2.0696  0.3583  3.5620
  733MOL0     H98923  13.663   6.355   6.757  1.0924  0.0644  0.2533
  733MOL0     H98924  13.794   6.453   6.699 -1.0593 -2.1486 -4.9795
  733MOL0     H98925  13.559   6.584   6.844  0.1034 -1.5056  0.9275
  733MOL0     H98926  13.723   6.645   6.834  0.3652 -0.4109 -1.6487
  733MOL0     H98927  13.646   6.405   7.011  2.2594 -1.6064 -1.6295
  733MOL0     H98928  13.674   6.574   7.068 -0.6508  0.0989  1.9485
  733MOL0     H98929  13.885   6.392   6.939 -1.4753 -0.3562 -0.8849
  733MOL0     H98930  13.895   6.563   6.980 -4.7709  2.8902  2.0747
  733MOL0     H98931  13.865   6.534   7.203 -0.0839 -0.2793  0.7951
  733MOL0     H98932  13.997   6.434   7.145 -0.1406  2.0100  1.3991
  733MOL0     H98933  13.746   6.329   7.284 -0.0797  0.6650 -0.4083
  733MOL0     H98934  13.776   6.244   7.139 -2.0943 -2.3415  2.8764
  733MOL0     H98935  13.206   6.528   6.637 -1.0706  0.0018 -0.6398
  733MOL0     H98936  12.978   6.544   6.573  0.6184  0.2498  0.3488
  733MOL0     H98937  12.615   6.797   6.439 -0.1524 -0.1297  0.2650
  733MOL0     H98938  12.354   6.771   6.451 -0.7745  0.8714 -1.2676
  733MOL0     H98939  10.625   7.001   6.148  1.0049 -1.4890 -0.3939
  733MOL0     H98940  10.419   7.124   6.042  0.1073 -1.6133  3.1921
  733MOL0     H98941  10.186   7.104   5.430 -3.7191  0.9919 -3.8860
  733MOL0     H98942  10.025   7.223   5.330  1.0012 -2.0922  0.7190
  733MOL0     H98943   9.840   7.569   5.565 -0.5478 -0.7213 -1.1696
  733MOL0     H98944   9.805   7.617   5.396  1.1122  0.6160 -2.0028
  733MOL0     H98945  10.089   7.621   5.506 -0.2176 -1.4844 -0.6015
  733MOL0     H98946   9.973   7.745   5.532  0.9373 -2.0757  2.0248
  733MOL0     H98947   9.953   7.803   5.307 -1.3808 -0.2046  0.8922
  733MOL0     H98948  10.024   7.661   5.237 -0.1029  0.4239 -0.7361
  733MOL0     H98949  10.246   7.718   5.290 -1.6346 -1.2403 -0.4158
  733MOL0     H98950  10.165   7.868   5.229 -1.8325  2.1028  2.1411
  733MOL0     H98951  10.209   8.012   5.610  2.3356  1.4990 -1.0042
  733MOL0     H98952   9.994   7.469   5.699 -2.1384 -2.8359  1.0137
  733MOL0     H98953  10.268   7.352   5.865  0.4341 -1.9441  1.0873
  733MOL0     H98954  10.118   7.437   5.885  0.4168  0.7406 -1.3245
  733MOL0     H98955  10.125   7.271   5.919  4.2724 -0.8320 -0.2433
  734MOL0     O98956  10.139   9.147   4.739  0.1546 -0.4513  0.0672
  734MOL0     C98957  10.045   9.154   4.661  0.7960  0.3846 -0.2449
  734MOL0     O98958  10.054   9.158   4.525 -0.3001 -0.5849 -0.4052
  734MOL0     C98959  10.174   9.162   4.468 -0.3743 -0.4980 -0.0758
  734MOL0     C98960  10.265   9.057   4.473  0.2363  0.8048 -1.0160
  734MOL0     C98961  10.377   9.081   4.401  0.0618 -0.5557  0.5280
  734MOL0     C98962  10.418   9.201   4.342  0.0252  0.2491  0.1892
  734MOL0     O98963  10.534   9.214   4.276  0.1931  0.0425  0.6250
  734MOL0     C98964  10.617   9.095   4.263 -0.7247  0.6754  0.2674
  734MOL0     C98965  10.719   9.106   4.152 -0.1772 -0.1579 -0.4956
  734MOL0     C98966  10.680   9.153   4.018  0.3015  0.3914 -0.2125
  734MOL0     C98967  10.807   9.137   3.922 -0.2595 -0.4409 -0.2261
  734MOL0     C98968  10.894   9.266   3.907 -0.0826 -0.1857  0.1829
  734MOL0     C98969  10.985   9.262   3.782 -0.6883 -0.9361  0.8317
  734MOL0     C98970  11.059   9.400   3.751 -0.8281 -0.4181  0.1888
  734MOL0     C98971  11.185   9.379   3.655  0.9122  0.6951 -0.3072
  734MOL0     N98972  11.254   9.510   3.614 -0.6096  0.1193  0.2926
  734MOL0     C98973  11.214   9.599   3.514 -0.3123  0.0614 -0.4360
  734MOL0     C98974  11.310   9.685   3.513  0.6706 -0.5877 -0.2567
  734MOL0     C98975  11.316   9.815   3.440  0.6055  0.1885  0.5344
  734MOL0     C98976  11.236   9.929   3.513  0.6962 -0.0222  0.2612
  734MOL0     C98977  11.272   9.970   3.657  0.7331  0.2626  0.4952
  734MOL0     C98978  11.413  10.033   3.653 -0.2074  0.3759 -0.2876
  734MOL0     O98979  11.402  10.110   3.773  0.6814  0.0195 -0.2255
  734MOL0     C98980  11.504  10.191   3.819  0.0776  0.5427 -0.0463
  734MOL0     C98981  11.643  10.185   3.785  0.3476 -0.2793 -0.7207
  734MOL0     C98982  11.740  10.276   3.831  1.2157 -0.1406 -0.6871
  734MOL0     C98983  11.700  10.377   3.924  0.8632  1.4830  0.3259
  734MOL0     C98984  11.796  10.467   3.973  0.2073  0.7142 -1.0387
  734MOL0     O98985  11.920  10.422   4.004  1.3467  1.6624  0.2434
  734MOL0     C98986  12.012  10.501   4.063 -0.2925 -0.0247  0.2994
  734MOL0     C98987  12.071  10.455   4.179 -0.2972  0.0506 -0.6686
  734MOL0     C98988  12.176  10.531   4.235  0.2995  0.1295 -0.1467
  734MOL0     C98989  12.212  10.667   4.190 -0.4874  0.1599 -0.1108
  734MOL0     O98990  12.298  10.747   4.264  0.1572  0.3147 -0.1116
  734MOL0     C98991  12.368  10.682   4.373 -0.0635  0.1426  0.0082
  734MOL0     C98992  12.491  10.770   4.412 -0.1964  0.6799 -0.8888
  734MOL0     C98993  12.602  10.775   4.302 -0.3343  0.1056  0.9605
  734MOL0     C98994  12.692  10.894   4.320 -1.2033 -0.3514  0.6986
  734MOL0     C98995  12.784  10.892   4.198  0.2430  0.5066 -0.7006
  734MOL0     C98996  12.919  10.962   4.220  0.9894 -0.6571 -0.4091
  734MOL0     C98997  13.020  10.927   4.105 -0.9796 -0.0082  0.1886
  734MOL0     C98998  13.158  11.004   4.110 -0.2983 -0.5478 -0.5838
  734MOL0    Cl98999  13.134  11.176   4.130 -0.4632 -0.3257 -0.2905
  734MOL0     C99000  12.137  10.716   4.089 -0.5608 -0.4435 -0.1280
  734MOL0     C99001  12.040  10.632   4.023  0.1344 -0.7800 -0.2547
  734MOL0     O99002  11.758  10.578   4.010  0.6031 -0.2248  0.3525
  734MOL0     C99003  11.558  10.380   3.952  0.7195  0.7541  0.5625
  734MOL0     C99004  11.468  10.290   3.904 -0.5563 -0.3586 -0.5219
  734MOL0     N99005  11.414   9.647   3.600  0.1484  0.2746 -0.0609
  734MOL0     N99006  11.383   9.532   3.652  0.5642  0.4678 -0.0556
  734MOL0     C99007  10.328   9.307   4.344  0.8730  0.2786 -0.0429
  734MOL0     C99008  10.200   9.286   4.406  0.2210  0.1675 -0.0884
  734MOL0     C99009   9.904   9.149   4.716  0.3074 -0.4643  0.1164
  734MOL0     C99010   9.848   9.020   4.705 -0.4606 -0.5480 -0.1676
  734MOL0     C99011   9.729   8.990   4.766 -0.3096  0.3403  0.7990
  734MOL0     C99012   9.662   9.086   4.837 -0.1148  1.2257 -0.1970
  734MOL0     O99013   9.528   9.047   4.867 -0.4483 -0.5244  1.1043
  734MOL0     C99014   9.438   9.141   4.925  0.2100  0.1237  0.4884
  734MOL0     C99015   9.297   9.096   4.950 -0.0128  0.5257  0.2576
  734MOL0     C99016   9.225   9.066   4.812 -0.2890 -1.0281  0.3144
  734MOL0     C99017   9.241   8.925   4.762  0.1703 -0.4899 -0.4632
  734MOL0     C99018   9.176   8.830   4.858  0.7190 -0.0499 -0.2381
  734MOL0     C99019   9.126   8.752   4.937 -0.0995  1.3076  0.0459
  734MOL0     C99020   9.710   9.218   4.856 -0.7611  1.0322  0.4080
  734MOL0     C99021   9.834   9.247   4.794  0.1082  0.0941 -0.6784
  734MOL0     C99022   9.892   9.379   4.822 -0.0813 -0.4220  0.3803
  734MOL0     H99023  10.243   8.968   4.532  0.3672  2.6359  1.9831
  734MOL0     H99024  10.436   8.990   4.387  1.4994  0.4689 -0.3519
  734MOL0     H99025  10.656   9.066   4.361 -1.6209 -1.1811  0.1210
  734MOL0     H99026  10.559   9.011   4.223  0.9572 -0.6704  0.5482
  734MOL0     H99027  10.761   9.005   4.148 -0.5854 -0.3704  0.3871
  734MOL0     H99028  10.795   9.173   4.195 -0.8900  0.5094 -0.2581
  734MOL0     H99029  10.640   9.254   4.026 -3.2518 -0.9011 -0.2385
  734MOL0     H99030  10.604   9.078   3.996  1.1405 -2.2049  4.2752
  734MOL0     H99031  10.877   9.062   3.962  1.3890  0.4630 -1.2949
  734MOL0     H99032  10.773   9.106   3.822  3.2089 -0.5992 -1.4846
  734MOL0     H99033  10.836   9.358   3.898  1.5417  0.8075 -0.4981
  734MOL0     H99034  10.956   9.283   3.996  0.0187  3.1959 -0.4184
  734MOL0     H99035  11.066   9.191   3.801 -1.5349 -2.0858  0.3028
  734MOL0     H99036  10.918   9.242   3.698 -0.0648 -0.3894  0.1943
  734MOL0     H99037  11.098   9.434   3.848 -0.0284  2.1020 -0.9526
  734MOL0     H99038  10.988   9.470   3.708  0.1518  1.1928  1.0735
  734MOL0     H99039  11.260   9.316   3.705  0.2707 -0.0338 -0.2449
  734MOL0     H99040  11.152   9.337   3.560  0.5388  0.2575  0.0107
  734MOL0     H99041  11.128   9.612   3.450  1.2396  3.5660 -2.1177
  734MOL0     H99042  11.422   9.843   3.436  0.9289 -0.8804  1.1333
  734MOL0     H99043  11.269   9.809   3.341 -2.8639 -0.4545  2.0942
  734MOL0     H99044  11.228  10.013   3.445 -2.4261 -1.4125 -1.2830
  734MOL0     H99045  11.136   9.887   3.522  0.8056 -0.6485 -1.1324
  734MOL0     H99046  11.276   9.881   3.720  1.1826  0.6079  0.9646
  734MOL0     H99047  11.199  10.041   3.697  1.4229  1.5544 -0.4395
  734MOL0     H99048  11.421  10.087   3.558 -0.3985 -1.1029 -1.1747
  734MOL0     H99049  11.482   9.948   3.659  0.7562  0.9218 -2.5241
  734MOL0     H99050  11.683  10.103   3.725  0.0724 -1.4038  0.5877
  734MOL0     H99051  11.843  10.252   3.806  1.0460 -0.7956 -0.7745
  734MOL0     H99052  12.035  10.372   4.240  0.3620  1.6716  2.1216
  734MOL0     H99053  12.216  10.474   4.319  1.4288  0.3071 -0.5475
  734MOL0     H99054  12.300  10.680   4.460  1.6063  0.8533  1.3990
  734MOL0     H99055  12.400  10.581   4.349  1.2331  0.8483 -1.3906
  734MOL0     H99056  12.456  10.870   4.439 -0.3564  0.3510  0.1434
  734MOL0     H99057  12.548  10.736   4.499  0.2910 -0.7174 -1.7141
  734MOL0     H99058  12.648  10.676   4.303 -2.0007 -0.7387  0.0413
  734MOL0     H99059  12.549  10.781   4.206  2.9259 -1.0414 -1.0906
  734MOL0     H99060  12.750  10.871   4.410 -0.5224  1.5913  0.8022
  734MOL0     H99061  12.626  10.979   4.334  0.5372  0.7788  2.5563
  734MOL0     H99062  12.735  10.938   4.112 -2.1889 -2.5229 -1.1071
  734MOL0     H99063  12.803  10.788   4.169 -0.1108  0.1328  0.3340
  734MOL0     H99064  12.896  11.069   4.218  0.7634 -0.7125 -1.0665
  734MOL0     H99065  12.970  10.937   4.314  3.7275 -2.1872 -2.1531
  734MOL0     H99066  12.979  10.953   4.007  2.5730  1.2300 -1.1329
  734MOL0     H99067  13.046  10.822   4.091 -2.7889 -0.5049  0.2958
  734MOL0     H99068  13.214  10.966   4.196  0.3927 -1.5135 -1.4260
  734MOL0     H99069  13.216  10.989   4.018  0.9859 -1.3341  0.3256
  734MOL0     H99070  12.153  10.819   4.058  1.2640 -0.9415 -1.0257
  734MOL0     H99071  11.996  10.689   3.942  3.3076  0.5758 -1.1912
  734MOL0     H99072  11.524  10.465   4.011 -1.6068 -0.8060  1.6435
  734MOL0     H99073  11.369  10.288   3.948 -0.6461  2.5547 -0.4105
  734MOL0     H99074  10.362   9.397   4.295  0.7003  0.1063 -0.4839
  734MOL0     H99075  10.114   9.353   4.407  2.2822  3.0005 -1.2457
  734MOL0     H99076   9.893   8.935   4.656 -2.7018 -1.7246 -0.3139
  734MOL0     H99077   9.680   8.897   4.741  4.1805 -1.3520 -3.0445
  734MOL0     H99078   9.432   9.237   4.871  4.1018  1.5819  2.3038
  734MOL0     H99079   9.476   9.160   5.025  0.6021 -0.4915  0.4571
  734MOL0     H99080   9.250   9.180   5.001  0.3022  1.3183 -0.7398
  734MOL0     H99081   9.296   9.007   5.014  3.1725 -0.1163 -0.3992
  734MOL0     H99082   9.279   9.112   4.729 -2.2514  0.5440 -0.1688
  734MOL0     H99083   9.125   9.106   4.829  0.7853  1.1217  2.0961
  734MOL0     H99084   9.198   8.921   4.661  2.3061  0.3003 -1.4758
  734MOL0     H99085   9.346   8.906   4.740  0.2052  2.2507 -3.3311
  734MOL0     H99086   9.087   8.678   5.005  0.5892  1.2085  0.3464
  734MOL0     H99087   9.659   9.296   4.911  0.1568  1.9297  0.0259
  734MOL0     H99088   9.913   9.426   4.726  0.9056 -0.5279  0.5366
  734MOL0     H99089   9.821   9.438   4.881 -1.9473 -0.2563 -1.8757
  734MOL0     H99090   9.993   9.380   4.864 -1.2014 -0.7180  3.3699
  735MOL0     O99091   8.439   4.991   7.269  0.0695 -0.3431 -0.0205
  735MOL0     C99092   8.457   5.114   7.257  0.3588 -0.9819  0.9330
  735MOL0     O99093   8.583   5.175   7.264 -0.2986 -0.2722 -0.0169
  735MOL0     C99094   8.686   5.098   7.326  0.0858  0.2955 -0.6927
  735MOL0     C99095   8.816   5.109   7.276  1.4397  0.6670  0.4165
  735MOL0     C99096   8.922   5.045   7.342  0.9192  0.5053 -1.4556
  735MOL0     C99097   8.910   4.964   7.459 -0.1654 -0.0170  0.7595
  735MOL0     O99098   9.010   4.904   7.521 -0.6191  0.3345  0.1972
  735MOL0     C99099   9.147   4.915   7.466  0.1933 -0.5882  0.5135
  735MOL0     C99100   9.226   5.042   7.501 -0.2061  0.0527  0.1414
  735MOL0     C99101   9.318   5.024   7.617  0.3812  0.3267  0.3086
  735MOL0     C99102   9.449   4.939   7.602 -0.2611 -0.1733  0.0502
  735MOL0     C99103   9.558   4.968   7.701 -0.3345  0.5446 -0.2963
  735MOL0     C99104   9.664   4.859   7.728 -0.0766  1.1100  0.2024
  735MOL0     C99105   9.783   4.910   7.806  1.1436  0.0974  0.5234
  735MOL0     C99106   9.736   4.936   7.946  0.0190  0.7760 -0.6500
  735MOL0     N99107   9.851   4.987   8.024  0.2489 -0.5105  0.0177
  735MOL0     C99108   9.873   5.123   8.040  0.1653 -0.7693  0.5166
  735MOL0     C99109   9.975   5.130   8.129 -0.1504 -0.3571  0.7799
  735MOL0     C99110  10.066   5.253   8.159  0.6862  0.0904 -0.0294
  735MOL0     C99111   9.991   5.324   8.277  0.4884  0.1661  0.3624
  735MOL0     C99112  10.057   5.456   8.316  0.1765 -1.0467  1.2316
  735MOL0     C99113   9.976   5.515   8.435 -0.3676  0.2518  0.4883
  735MOL0     O99114   9.908   5.629   8.389 -0.2139 -0.1272  1.0005
  735MOL0     C99115   9.827   5.697   8.477 -0.1225  0.0520 -0.4156
  735MOL0     C99116   9.760   5.807   8.430  0.2105  1.2901  0.2554
  735MOL0     C99117   9.694   5.902   8.501  0.2372 -0.5650  0.3221
  735MOL0     C99118   9.697   5.898   8.646 -0.2325 -0.1947  0.0153
  735MOL0     C99119   9.637   6.000   8.732 -0.0549  0.2563 -0.0097
  735MOL0     O99120   9.636   5.962   8.868  0.2074  0.1464  0.4156
  735MOL0     C99121   9.613   6.060   8.961 -0.0162 -0.4279  0.5100
  735MOL0     C99122   9.542   6.028   9.071 -0.1757  0.2003 -0.2402
  735MOL0     C99123   9.517   6.125   9.173  0.7329  0.0984  0.5406
  735MOL0     C99124   9.573   6.251   9.163  0.2331  0.0313 -0.7860
  735MOL0     O99125   9.567   6.331   9.278 -0.0876 -0.2628 -0.6168
  735MOL0     C99126   9.457   6.428   9.275 -0.0165  0.0999  0.4203
  735MOL0     C99127   9.497   6.551   9.351 -0.7338  0.7346  1.2129
  735MOL0     C99128   9.430   6.678   9.292 -0.0591 -0.9310 -0.9024
  735MOL0     C99129   9.524   6.793   9.324  0.0746  0.2187  0.4559
  735MOL0     C99130   9.460   6.913   9.267 -0.0035 -0.1199  0.5182
  735MOL0     C99131   9.542   7.035   9.229  0.0993  0.5282 -0.5260
  735MOL0     C99132   9.626   7.077   9.344 -0.2061  0.0891 -0.4062
  735MOL0     C99133   9.777   7.046   9.338  0.7314  0.3598 -0.2241
  735MOL0    Cl99134   9.875   7.169   9.242 -0.3269  0.0095 -0.3318
  735MOL0     C99135   9.647   6.277   9.058 -0.0671  0.0422 -0.3504
  735MOL0     C99136   9.671   6.187   8.961 -1.4247 -0.0189 -0.2181
  735MOL0     O99137   9.576   6.095   8.682 -0.4178 -0.0145  0.1779
  735MOL0     C99138   9.758   5.782   8.694 -0.9605 -0.3536  0.0751
  735MOL0     C99139   9.830   5.692   8.614 -0.5360  0.3126 -0.0896
  735MOL0     N99140   9.998   5.000   8.173  0.1568  0.1424  0.2229
  735MOL0     N99141   9.938   4.910   8.105 -0.0977 -0.8409 -0.1388
  735MOL0     C99142   8.780   4.950   7.503 -0.8793  0.8427  0.8043
  735MOL0     C99143   8.666   5.019   7.443  0.2241 -0.0913  0.2104
  735MOL0     C99144   8.345   5.192   7.220  0.7243  0.0387  0.1922
  735MOL0     C99145   8.240   5.124   7.160  0.3120 -0.1387  0.1422
  735MOL0     C99146   8.123   5.191   7.117 -1.1915  0.3785  0.6056
  735MOL0     C99147   8.114   5.325   7.117 -0.3896 -1.7043 -0.3232
  735MOL0     O99148   7.993   5.380   7.098  0.1043  0.1334  0.0087
  735MOL0     C99149   7.985   5.492   7.003 -0.5367  0.8942  0.6777
  735MOL0     C99150   7.893   5.596   7.069  0.4647  0.3926  0.4421
  735MOL0     C99151   7.942   5.639   7.202 -0.6099  0.2145  0.9902
  735MOL0     C99152   8.064   5.734   7.185  0.2217 -0.3748 -0.7474
  735MOL0     C99153   8.139   5.773   7.305  0.3163 -0.1197  0.0637
  735MOL0     C99154   8.201   5.802   7.408  0.1520  0.4403 -0.2592
  735MOL0     C99155   8.225   5.395   7.174  0.3666  0.1204 -1.0810
  735MOL0     C99156   8.336   5.333   7.240  0.4460 -0.7408  0.3562
  735MOL0     C99157   8.439   5.410   7.320 -0.0383 -0.1971 -0.4981
  735MOL0     H99158   8.817   5.164   7.182 -3.5660 -0.3612 -0.4895
  735MOL0     H99159   9.020   5.071   7.302  1.9118  1.3039  1.2925
  735MOL0     H99160   9.196   4.825   7.503  3.9418 -0.7505 -4.0220
  735MOL0     H99161   9.156   4.891   7.360  0.0797  1.3509  0.0148
  735MOL0     H99162   9.149   5.116   7.522 -0.6820 -0.0447 -1.1659
  735MOL0     H99163   9.277   5.076   7.411  0.6260 -0.5177  0.3867
  735MOL0     H99164   9.268   4.959   7.690 -0.2432  0.9289  0.4353
  735MOL0     H99165   9.333   5.116   7.674 -1.6001 -1.3544  3.9110
  735MOL0     H99166   9.421   4.834   7.612  0.0627 -0.0883  2.2471
  735MOL0     H99167   9.484   4.959   7.500 -0.3946 -0.1609  0.0064
  735MOL0     H99168   9.611   5.059   7.671 -0.7289  1.1923  0.9006
  735MOL0     H99169   9.514   4.998   7.797  3.1515  1.1667  1.2751
  735MOL0     H99170   9.624   4.772   7.781  1.2570 -1.1750 -2.2633
  735MOL0     H99171   9.706   4.831   7.631 -2.7724  0.3954 -0.8381
  735MOL0     H99172   9.833   4.999   7.765  2.0016 -0.1363  1.0333
  735MOL0     H99173   9.854   4.828   7.811  2.9795  1.6448  1.2826
  735MOL0     H99174   9.650   5.002   7.955 -2.0078 -1.6919 -0.7310
  735MOL0     H99175   9.706   4.840   7.990  1.5504  1.3431  1.8732
  735MOL0     H99176   9.830   5.211   7.992  2.0798  0.9257  1.7198
  735MOL0     H99177  10.168   5.239   8.194  0.5049  2.8605  1.9875
  735MOL0     H99178  10.075   5.307   8.065  0.3675 -1.4893 -1.0006
  735MOL0     H99179   9.886   5.345   8.253  0.0850 -0.1208  1.7693
  735MOL0     H99180   9.986   5.252   8.359 -0.5404 -1.9944 -1.4881
  735MOL0     H99181  10.044   5.525   8.233  0.5057 -0.6764  1.4838
  735MOL0     H99182  10.165   5.445   8.330  0.2653 -0.6051  0.8913
  735MOL0     H99183  10.047   5.533   8.516  0.2727 -0.0719  0.0168
  735MOL0     H99184   9.914   5.431   8.467  1.5532 -0.9691  1.2086
  735MOL0     H99185   9.748   5.827   8.324 -0.4624  1.1996  0.3081
  735MOL0     H99186   9.642   5.984   8.453 -0.7708 -1.8928 -0.9308
  735MOL0     H99187   9.516   5.924   9.091  0.3420  0.5776  2.9276
  735MOL0     H99188   9.461   6.095   9.261  1.7431  1.5965  1.7459
  735MOL0     H99189   9.439   6.445   9.168  1.7556 -1.3837 -0.1721
  735MOL0     H99190   9.362   6.393   9.319 -0.0627 -1.7628 -0.9950
  735MOL0     H99191   9.499   6.544   9.461  0.5859 -0.7814  1.1196
  735MOL0     H99192   9.599   6.571   9.318 -1.1586  1.4582  0.3115
  735MOL0     H99193   9.410   6.665   9.186 -1.5339  2.0730 -1.0970
  735MOL0     H99194   9.330   6.689   9.335  0.1658 -1.1750 -0.2971
  735MOL0     H99195   9.620   6.778   9.273 -0.7552 -3.4871 -0.3095
  735MOL0     H99196   9.547   6.798   9.430 -1.4916 -0.8077  0.8687
  735MOL0     H99197   9.374   6.944   9.327 -0.9671 -2.3983  0.4339
  735MOL0     H99198   9.417   6.883   9.172 -2.1722 -0.3921  1.5256
  735MOL0     H99199   9.609   7.004   9.148  2.8447  1.0487  1.3830
  735MOL0     H99200   9.484   7.121   9.193 -0.4762  1.2278  1.9263
  735MOL0     H99201   9.593   7.029   9.437  0.6409  0.1909 -0.0378
  735MOL0     H99202   9.616   7.184   9.362 -1.0045 -0.2886  1.6268
  735MOL0     H99203   9.827   7.056   9.435  1.3610  1.8752 -0.6790
  735MOL0     H99204   9.793   6.952   9.285 -2.0836  0.4555 -1.3723
  735MOL0     H99205   9.702   6.369   9.067  0.7022 -0.5494  1.3263
  735MOL0     H99206   9.743   6.231   8.893  0.4792  0.2521  1.8566
  735MOL0     H99207   9.782   5.767   8.799 -0.1021 -0.9967 -0.2025
  735MOL0     H99208   9.901   5.621   8.653  1.2877  3.0025  1.8092
  735MOL0     H99209   8.757   4.890   7.590 -3.6704 -2.9030 -2.1284
  735MOL0     H99210   8.570   5.027   7.493  0.2743  1.9710  0.0560
  735MOL0     H99211   8.235   5.016   7.149 -1.5102 -0.2613  1.4828
  735MOL0     H99212   8.031   5.134   7.105  0.5731 -2.6026  0.2632
  735MOL0     H99213   7.937   5.474   6.907  1.7487 -0.4790 -0.2870
  735MOL0     H99214   8.085   5.526   6.978  0.3554 -1.8645  0.2317
  735MOL0     H99215   7.787   5.570   7.065  0.2968  0.5792  2.5280
  735MOL0     H99216   7.898   5.683   7.002  1.9038 -0.4261 -0.5612
  735MOL0     H99217   7.962   5.553   7.266 -1.8769  0.4899  1.7931
  735MOL0     H99218   7.859   5.698   7.243 -0.1608  0.3359  1.7411
  735MOL0     H99219   8.143   5.702   7.118  0.7257  1.3805 -1.0319
  735MOL0     H99220   8.022   5.823   7.137 -0.9045 -0.0181  0.8016
  735MOL0     H99221   8.262   5.818   7.495 -0.1110  1.1854 -0.2032
  735MOL0     H99222   8.205   5.501   7.181 -1.8841 -0.2281 -1.2353
  735MOL0     H99223   8.529   5.433   7.263  1.3560  1.4540  2.1416
  735MOL0     H99224   8.418   5.512   7.354  4.1376  0.8264 -0.3697
  735MOL0     H99225   8.474   5.351   7.405  3.1832  0.7028 -1.0579
  736MOL0     O99226   9.165  11.408   1.331  0.3588  0.1124  0.4910
  736MOL0     C99227   9.053  11.453   1.341 -0.5645  0.8585 -1.3997
  736MOL0     O99228   9.018  11.577   1.395 -0.4671 -0.2901 -0.1635
  736MOL0     C99229   9.118  11.660   1.442 -0.8457  0.9796 -0.3090
  736MOL0     C99230   9.171  11.640   1.567 -0.5740  0.6516  0.0498
  736MOL0     C99231   9.275  11.726   1.613  0.5415  0.1174 -0.2137
  736MOL0     C99232   9.317  11.830   1.531 -0.2365 -0.7198  0.1470
  736MOL0     O99233   9.430  11.892   1.565  0.0147  0.4423 -0.3856
  736MOL0     C99234   9.470  12.016   1.512 -0.2601 -0.7077 -0.3720
  736MOL0     C99235   9.604  12.072   1.575 -0.5059 -0.6061  0.4162
  736MOL0     C99236   9.618  12.224   1.604 -0.5008  0.2133  0.6148
  736MOL0     C99237   9.631  12.300   1.470  0.0940 -0.1595  0.9170
  736MOL0     C99238   9.669  12.442   1.490  0.0639  0.1088 -0.6592
  736MOL0     C99239   9.723  12.494   1.362 -0.4627  0.4466 -0.3897
  736MOL0     C99240   9.697  12.644   1.355 -0.6918 -0.3072 -0.2303
  736MOL0     C99241   9.735  12.705   1.216  0.0578 -0.4455  0.6045
  736MOL0     N99242   9.654  12.823   1.184  0.8926 -0.5354 -0.1537
  736MOL0     C99243   9.669  12.946   1.241 -0.3524 -0.1704  0.1297
  736MOL0     C99244   9.545  13.005   1.217 -0.3098 -0.1991 -0.9272
  736MOL0     C99245   9.506  13.140   1.260 -0.1197 -0.5405 -0.1650
  736MOL0     C99246   9.362  13.150   1.322 -0.3013  0.5817 -0.4396
  736MOL0     C99247   9.340  13.069   1.452 -0.7102 -0.9770 -0.5406
  736MOL0     C99248   9.244  13.151   1.544  0.7011  0.4100 -0.0344
  736MOL0     O99249   9.303  13.274   1.597  0.0785 -0.8737  0.0342
  736MOL0     C99250   9.247  13.389   1.559  0.4608 -0.3156  0.0857
  736MOL0     C99251   9.107  13.412   1.570 -0.4569  0.0110 -0.5268
  736MOL0     C99252   9.043  13.533   1.556 -0.4162  0.5088  1.1816
  736MOL0     C99253   9.119  13.642   1.523  0.2030 -0.3368 -0.3789
  736MOL0     C99254   9.060  13.776   1.541 -1.3501  0.5700  0.8599
  736MOL0     O99255   9.132  13.863   1.621 -0.5390  1.4827 -0.2665
  736MOL0     C99256   9.068  13.971   1.666  0.0954 -0.4447  0.3510
  736MOL0     C99257   9.138  14.098   1.651  0.7281 -0.2174 -0.2917
  736MOL0     C99258   9.096  14.218   1.711  0.0309  0.6908  0.4456
  736MOL0     C99259   8.973  14.223   1.777 -0.3739 -0.2783  0.5897
  736MOL0     O99260   8.914  14.339   1.812 -0.8748 -0.6747 -0.3401
  736MOL0     C99261   8.985  14.464   1.798 -0.1316  0.0148 -0.1383
  736MOL0     C99262   8.891  14.585   1.816 -0.0655 -0.0759 -0.4109
  736MOL0     C99263   8.972  14.716   1.764  0.4552 -1.1972 -0.2316
  736MOL0     C99264   8.906  14.846   1.811  0.5853 -0.5419 -1.0001
  736MOL0     C99265   8.988  14.960   1.780 -0.1209  1.3405  0.1760
  736MOL0     C99266   8.924  15.098   1.805  0.1590 -0.3122 -0.8519
  736MOL0     C99267   8.775  15.118   1.776 -0.1039 -0.0069  1.0522
  736MOL0     C99268   8.718  15.217   1.878  0.3208 -0.5559  0.1841
  736MOL0    Cl99269   8.570  15.255   1.802 -0.3245  0.2471 -0.0612
  736MOL0     C99270   8.897  14.104   1.780 -0.0849 -1.6377 -0.0907
  736MOL0     C99271   8.941  13.980   1.735 -0.2869  0.2185  0.5391
  736MOL0     O99272   8.966  13.801   1.465 -0.3874  0.2452 -0.2649
  736MOL0     C99273   9.265  13.631   1.521 -0.0146  0.4284 -0.2216
  736MOL0     C99274   9.334  13.502   1.529  0.6076  0.6376 -0.7113
  736MOL0     N99275   9.458  12.924   1.150 -0.7160 -0.2052 -0.8981
  736MOL0     N99276   9.526  12.817   1.138  0.7790 -0.2277 -0.5581
  736MOL0     C99277   9.266  11.835   1.399  0.2769  0.0105 -0.3885
  736MOL0     C99278   9.160  11.764   1.359  0.4003  0.7123  0.5354
  736MOL0     C99279   8.950  11.359   1.294  0.1452 -0.4371 -0.2714
  736MOL0     C99280   8.957  11.223   1.322 -0.5109  0.4984 -0.1661
  736MOL0     C99281   8.854  11.138   1.289  0.4514  0.6274 -0.6248
  736MOL0     C99282   8.742  11.179   1.219  0.0129  0.0158  0.0675
  736MOL0     O99283   8.641  11.105   1.176  0.0422 -0.1185 -0.0567
  736MOL0     C99284   8.654  10.963   1.133  0.1586  0.0671 -0.4928
  736MOL0     C99285   8.765  10.958   1.026  1.5735  0.3196 -0.5904
  736MOL0     C99286   8.732  10.836   0.943 -0.3442  0.2543  0.4806
  736MOL0     C99287   8.848  10.775   0.860  0.3373 -1.3594 -0.8399
  736MOL0     C99288   8.876  10.897   0.771 -0.8471  0.5325 -1.1929
  736MOL0     C99289   8.893  10.989   0.693  0.2826  0.2800  0.0090
  736MOL0     C99290   8.736  11.314   1.177  0.5166 -1.0047  0.1970
  736MOL0     C99291   8.840  11.407   1.214 -0.4385  0.4396  0.3661
  736MOL0     C99292   8.827  11.537   1.162 -0.0554 -0.7804  0.3411
  736MOL0     H99293   9.119  11.564   1.625 -0.3880  0.5172  0.0425
  736MOL0     H99294   9.308  11.710   1.715 -0.1620  0.6455  0.1005
  736MOL0     H99295   9.491  12.004   1.405  2.9277 -1.9314  0.2813
  736MOL0     H99296   9.392  12.091   1.527 -0.2471 -0.4496 -1.4900
  736MOL0     H99297   9.687  12.038   1.512  0.8276 -2.1935  2.8723
  736MOL0     H99298   9.634  12.017   1.665  1.9963  3.5485  2.4064
  736MOL0     H99299   9.713  12.225   1.658 -1.1947  1.6901  1.8659
  736MOL0     H99300   9.536  12.256   1.669 -0.2297 -0.3549  1.2511
  736MOL0     H99301   9.713  12.257   1.412  0.1145 -0.1337  0.9269
  736MOL0     H99302   9.541  12.302   1.408  1.4403 -1.7836 -1.2390
  736MOL0     H99303   9.582  12.502   1.517 -0.0511  0.6617 -2.1475
  736MOL0     H99304   9.743  12.454   1.570 -0.2289  0.1961 -0.3981
  736MOL0     H99305   9.828  12.463   1.363 -0.7877 -0.8247  2.0428
  736MOL0     H99306   9.674  12.448   1.275 -1.5899  0.7218  0.0832
  736MOL0     H99307   9.745  12.686   1.444  0.5850  0.4094 -1.2274
  736MOL0     H99308   9.593  12.668   1.379 -0.6775 -2.0462  1.8882
  736MOL0     H99309   9.840  12.734   1.205  0.5982 -2.6612 -0.7232
  736MOL0     H99310   9.701  12.635   1.139 -0.2205  1.2395 -0.8668
  736MOL0     H99311   9.758  12.981   1.292 -1.0251 -0.7541  1.7735
  736MOL0     H99312   9.581  13.170   1.333  0.3768  0.0689 -0.9093
  736MOL0     H99313   9.514  13.199   1.168 -1.4223  1.4847  0.9205
  736MOL0     H99314   9.345  13.256   1.342 -1.4712  0.1818  0.7939
  736MOL0     H99315   9.286  13.125   1.247 -0.4204  1.4657 -0.6241
  736MOL0     H99316   9.438  13.059   1.499  0.6675  2.3604 -2.3992
  736MOL0     H99317   9.309  12.964   1.443 -2.1098 -0.6165 -0.1930
  736MOL0     H99318   9.222  13.080   1.625  1.0373  0.3745  0.0283
  736MOL0     H99319   9.152  13.179   1.492 -1.9846 -3.0397  2.4117
  736MOL0     H99320   9.043  13.335   1.612  1.1293 -0.2437  1.5936
  736MOL0     H99321   8.936  13.552   1.554 -0.2969  1.1533 -0.2995
  736MOL0     H99322   9.230  14.101   1.594  0.6430  1.7363 -0.3637
  736MOL0     H99323   9.157  14.304   1.686  0.3178  0.7255  1.2229
  736MOL0     H99324   9.066  14.466   1.872 -3.2945 -0.5544  3.6250
  736MOL0     H99325   9.019  14.477   1.694  2.3336  0.8833  0.6933
  736MOL0     H99326   8.804  14.556   1.756 -1.6870  0.3520  1.5788
  736MOL0     H99327   8.862  14.599   1.921 -1.4920  1.4315 -0.9541
  736MOL0     H99328   9.081  14.718   1.775  0.5657 -0.9826 -1.2939
  736MOL0     H99329   8.948  14.733   1.659 -0.1886 -4.2663 -0.6625
  736MOL0     H99330   8.903  14.851   1.920  2.5893 -1.3999 -0.8743
  736MOL0     H99331   8.800  14.848   1.783 -0.1228 -2.7756  1.1852
  736MOL0     H99332   9.017  14.955   1.674 -1.7019  0.6811 -0.2445
  736MOL0     H99333   9.083  14.943   1.832  1.2603 -2.0753 -2.9126
  736MOL0     H99334   8.939  15.103   1.913 -2.0106 -1.3321 -0.4646
  736MOL0     H99335   8.986  15.173   1.755 -0.7941  1.9891  1.2429
  736MOL0     H99336   8.719  15.025   1.789  1.3902 -0.9842  0.7034
  736MOL0     H99337   8.763  15.151   1.672  0.3941  1.3899  1.4100
  736MOL0     H99338   8.703  15.164   1.972 -1.9313 -0.1849  0.0784
  736MOL0     H99339   8.781  15.307   1.885 -1.3778  0.7152 -0.2278
  736MOL0     H99340   8.800  14.117   1.827  0.9751 -2.2993  2.4334
  736MOL0     H99341   8.877  13.894   1.752 -1.4190  1.1775  1.3362
  736MOL0     H99342   9.344  13.704   1.504  1.3818 -0.8187  0.7532
  736MOL0     H99343   9.442  13.494   1.520  0.7141  0.5992  0.4364
  736MOL0     H99344   9.317  11.894   1.324  0.0752  0.3550 -0.2564
  736MOL0     H99345   9.119  11.777   1.259 -2.1715  0.2248  1.4467
  736MOL0     H99346   9.038  11.192   1.386 -0.2179 -0.2159 -0.8664
  736MOL0     H99347   8.870  11.033   1.312  0.3764  0.8708  0.6207
  736MOL0     H99348   8.554  10.925   1.108  0.4674 -0.8307 -0.4027
  736MOL0     H99349   8.687  10.902   1.218  0.8912  0.2719 -0.6204
  736MOL0     H99350   8.851  10.939   1.090 -0.1754  1.8490  2.4446
  736MOL0     H99351   8.766  11.053   0.972 -2.4720  0.1617 -1.3109
  736MOL0     H99352   8.649  10.857   0.873  1.1902  1.8274 -0.9674
  736MOL0     H99353   8.711  10.753   1.011  0.6896 -1.1608 -0.8458
  736MOL0     H99354   8.940  10.757   0.915  1.6241 -1.5482 -2.9330
  736MOL0     H99355   8.825  10.686   0.800  1.6242 -1.9674 -0.4585
  736MOL0     H99356   8.914  11.070   0.626  1.0047  0.8176  0.8620
  736MOL0     H99357   8.652  11.350   1.119  0.5275 -1.7509 -0.2941
  736MOL0     H99358   8.786  11.601   1.241 -0.1946 -0.9360  0.3973
  736MOL0     H99359   8.929  11.569   1.141 -0.5289  1.2564  0.9290
  736MOL0     H99360   8.775  11.555   1.067  2.3807  4.2901 -0.3646
  737MOL0     O99361   0.911   4.609   6.534 -0.2383  0.6121 -0.0421
  737MOL0     C99362   0.946   4.496   6.508 -1.0370  0.5110 -0.3546
  737MOL0     O99363   1.074   4.446   6.514  0.4581 -0.2250 -0.2703
  737MOL0     C99364   1.177   4.533   6.529  0.3555 -0.2473  0.6358
  737MOL0     C99365   1.210   4.600   6.646  0.1371 -0.2674 -0.7383
  737MOL0     C99366   1.322   4.688   6.647 -1.3413  0.4041  0.2526
  737MOL0     C99367   1.387   4.724   6.523 -0.7459 -0.7348 -0.2007
  737MOL0     O99368   1.480   4.825   6.531  0.6711 -0.0299 -0.0982
  737MOL0     C99369   1.538   4.889   6.414  0.6740 -1.0377 -1.2216
  737MOL0     C99370   1.642   4.799   6.363 -0.2452 -0.5466 -0.1533
  737MOL0     C99371   1.750   4.867   6.282  0.2086 -0.5448  0.2798
  737MOL0     C99372   1.838   4.944   6.379 -0.8340  0.2622 -0.1243
  737MOL0     C99373   1.941   5.032   6.303  0.3756  0.1239  0.1252
  737MOL0     C99374   2.042   5.097   6.396  0.8492 -0.3737  0.5858
  737MOL0     C99375   1.979   5.210   6.474  0.8950  0.0270 -0.5468
  737MOL0     C99376   2.076   5.322   6.524 -0.1384  0.5426 -0.2127
  737MOL0     N99377   2.187   5.256   6.594 -0.3457  0.0134 -1.0612
  737MOL0     C99378   2.171   5.192   6.718  0.3897 -0.2367  0.6320
  737MOL0     C99379   2.293   5.152   6.759 -0.2790 -0.9547 -0.6369
  737MOL0     C99380   2.326   5.088   6.887  0.3892  0.5833 -0.5923
  737MOL0     C99381   2.443   4.991   6.854 -1.0129 -0.5051 -0.3470
  737MOL0     C99382   2.462   4.909   6.987  0.8480  0.5091 -0.4076
  737MOL0     C99383   2.588   4.817   6.984 -0.2154  0.0934 -0.5464
  737MOL0     O99384   2.599   4.742   7.108  0.0291  0.8492 -0.0738
  737MOL0     C99385   2.715   4.666   7.123 -0.5754 -0.3815 -0.8339
  737MOL0     C99386   2.705   4.573   7.228 -0.0039  0.6743  0.4262
  737MOL0     C99387   2.806   4.481   7.250 -0.1036 -0.4257  0.0237
  737MOL0     C99388   2.918   4.482   7.160 -0.2148 -0.0269 -0.0464
  737MOL0     C99389   3.034   4.389   7.191 -0.1428 -0.7968  0.0506
  737MOL0     O99390   3.011   4.287   7.281  0.3925 -0.3311 -0.2673
  737MOL0     C99391   3.119   4.203   7.280 -0.3485  0.2006 -0.6748
  737MOL0     C99392   3.227   4.224   7.368  0.3591 -0.0845  0.5538
  737MOL0     C99393   3.339   4.148   7.372 -0.0867  0.6267 -0.6911
  737MOL0     C99394   3.338   4.032   7.294  0.4529  0.5922 -0.7529
  737MOL0     O99395   3.431   3.938   7.293 -0.0093 -0.4181 -0.5257
  737MOL0     C99396   3.564   3.998   7.304  0.0137  0.4201  0.0001
  737MOL0     C99397   3.668   3.888   7.358  0.4023  0.2707 -1.5474
  737MOL0     C99398   3.616   3.744   7.338 -0.4989 -0.7609  0.1061
  737MOL0     C99399   3.727   3.645   7.343  0.6362 -0.8888 -0.1030
  737MOL0     C99400   3.824   3.664   7.466  0.9070  0.7381  0.0240
  737MOL0     C99401   3.915   3.550   7.488 -0.5658  0.2896 -0.1450
  737MOL0     C99402   4.022   3.572   7.591 -0.5746 -0.2104 -0.0446
  737MOL0     C99403   4.123   3.458   7.602 -0.0152  0.1093 -0.4912
  737MOL0    Cl99404   4.235   3.453   7.457  0.1728 -0.0945 -0.2492
  737MOL0     C99405   3.237   4.003   7.204 -0.1732  0.3300  0.3339
  737MOL0     C99406   3.128   4.095   7.193 -0.6371  0.8055  0.4248
  737MOL0     O99407   3.133   4.400   7.122  0.0518  0.4064  0.0430
  737MOL0     C99408   2.934   4.585   7.068  0.3449  0.3669  0.5416
  737MOL0     C99409   2.837   4.676   7.053 -0.1640 -0.7188  0.2977
  737MOL0     N99410   2.385   5.197   6.663 -0.3158  0.1373  0.2493
  737MOL0     N99411   2.323   5.268   6.567 -0.5230  0.3174  0.6547
  737MOL0     C99412   1.346   4.660   6.404 -0.3916 -0.4041 -0.6429
  737MOL0     C99413   1.240   4.560   6.413  0.1484  0.0543 -0.1528
  737MOL0     C99414   0.837   4.399   6.481  0.2047 -0.0333  0.6070
  737MOL0     C99415   0.876   4.273   6.435  0.1953 -0.3568  0.2300
  737MOL0     C99416   0.789   4.168   6.415  0.2326 -0.4859  0.3617
  737MOL0     C99417   0.656   4.181   6.441  0.7321 -1.2098 -0.7265
  737MOL0     O99418   0.573   4.077   6.422  0.3934 -0.5070 -0.4629
  737MOL0     C99419   0.452   4.048   6.510 -0.8292 -0.1748 -0.2085
  737MOL0     C99420   0.406   3.903   6.498  0.1674 -0.0885  0.2776
  737MOL0     C99421   0.464   3.824   6.616  0.2101 -1.2514 -0.2922
  737MOL0     C99422   0.473   3.676   6.580  0.0855  0.0025 -0.0068
  737MOL0     C99423   0.593   3.671   6.496  0.0047 -0.0249  0.1486
  737MOL0     C99424   0.689   3.663   6.422  0.1581 -0.4539 -0.0186
  737MOL0     C99425   0.613   4.310   6.485 -0.6055  0.1152  0.0332
  737MOL0     C99426   0.700   4.417   6.497 -0.0953 -0.6977  0.1156
  737MOL0     C99427   0.642   4.546   6.561  0.0457 -0.1591  0.5369
  737MOL0     H99428   1.158   4.587   6.740 -0.9143 -1.6300 -1.4658
  737MOL0     H99429   1.347   4.736   6.741  1.2495 -0.6912  0.2018
  737MOL0     H99430   1.458   4.903   6.340 -0.7557 -0.5861  0.3511
  737MOL0     H99431   1.560   4.987   6.459 -1.0484 -2.3213  2.8269
  737MOL0     H99432   1.596   4.725   6.297 -1.4590 -2.0005  2.1630
  737MOL0     H99433   1.690   4.743   6.445  2.8576  2.7579  0.5676
  737MOL0     H99434   1.712   4.933   6.204 -1.3639 -2.0255 -0.2658
  737MOL0     H99435   1.810   4.789   6.234 -0.1069 -0.6516  0.0553
  737MOL0     H99436   1.783   5.008   6.448 -1.5230 -0.2148 -0.2276
  737MOL0     H99437   1.897   4.870   6.432  2.9343  3.1764  0.2037
  737MOL0     H99438   1.999   4.985   6.223 -0.5800  1.0684 -1.1640
  737MOL0     H99439   1.877   5.098   6.242 -2.5200 -2.0247  0.6195
  737MOL0     H99440   2.091   5.025   6.461  1.8934 -0.0155  0.2074
  737MOL0     H99441   2.117   5.149   6.337 -0.1995  0.3044 -0.1959
  737MOL0     H99442   1.934   5.163   6.563  1.7572  0.5602  0.1876
  737MOL0     H99443   1.907   5.260   6.409  0.2598 -0.7780 -0.4814
  737MOL0     H99444   2.099   5.382   6.436  2.2443  1.7392  1.1094
  737MOL0     H99445   2.016   5.384   6.591 -1.3150 -1.4524  0.6718
  737MOL0     H99446   2.087   5.164   6.781 -0.8501  1.7321 -0.0534
  737MOL0     H99447   2.353   5.171   6.953 -1.7510  0.9428 -0.1166
  737MOL0     H99448   2.236   5.036   6.921 -1.1167  3.4886  0.0911
  737MOL0     H99449   2.424   4.924   6.770  2.0311  1.0238 -2.4400
  737MOL0     H99450   2.528   5.049   6.818 -0.1827 -0.6668  1.2349
  737MOL0     H99451   2.370   4.851   7.003 -0.2062  1.4182 -2.7962
  737MOL0     H99452   2.479   4.971   7.075  2.4384 -0.6135  0.1182
  737MOL0     H99453   2.671   4.884   6.963  1.7578 -2.0345  0.0843
  737MOL0     H99454   2.585   4.746   6.901  0.9594 -1.9624  1.0658
  737MOL0     H99455   2.614   4.566   7.286 -2.6605 -1.0833 -3.4834
  737MOL0     H99456   2.803   4.409   7.332  0.4255  1.3799  1.7200
  737MOL0     H99457   3.236   4.324   7.411 -0.4209 -0.4681  1.6416
  737MOL0     H99458   3.405   4.167   7.457 -1.3265  2.2899 -0.0568
  737MOL0     H99459   3.597   4.019   7.202 -3.0788  3.0912 -0.5972
  737MOL0     H99460   3.570   4.087   7.367 -2.8588  0.7459 -0.0744
  737MOL0     H99461   3.769   3.896   7.316  2.8888 -1.2370  3.3287
  737MOL0     H99462   3.686   3.904   7.465  0.7521  0.6053 -1.6556
  737MOL0     H99463   3.542   3.718   7.415 -1.4310 -1.2406 -0.9235
  737MOL0     H99464   3.575   3.736   7.237  0.7787  0.0040 -0.5022
  737MOL0     H99465   3.782   3.662   7.250 -1.6647 -0.1507 -1.4012
  737MOL0     H99466   3.686   3.544   7.337  0.4500 -0.8304  0.1781
  737MOL0     H99467   3.760   3.672   7.555  3.4779  2.9058  1.8489
  737MOL0     H99468   3.876   3.760   7.463 -0.3173  1.5940  3.0599
  737MOL0     H99469   3.862   3.457   7.512  1.2376 -0.5367  0.8095
  737MOL0     H99470   3.965   3.542   7.391  0.5335  2.0591  0.2300
  737MOL0     H99471   3.966   3.581   7.685  0.1719 -1.3134  0.5318
  737MOL0     H99472   4.070   3.667   7.568 -2.6804  0.8487 -0.2921
  737MOL0     H99473   4.181   3.470   7.695 -0.2654  4.3344 -0.6939
  737MOL0     H99474   4.071   3.362   7.603 -0.0740  0.0724  2.2490
  737MOL0     H99475   3.256   3.916   7.141 -2.4804  0.2035 -0.2740
  737MOL0     H99476   3.062   4.085   7.107  0.7098  1.5358 -0.7366
  737MOL0     H99477   3.023   4.601   7.009  0.4017 -0.9353  0.2476
  737MOL0     H99478   2.858   4.758   6.986 -0.1363 -0.4567  0.6209
  737MOL0     H99479   1.404   4.677   6.314  3.5760 -0.0616  1.7351
  737MOL0     H99480   1.201   4.509   6.326  2.7216 -0.7199 -0.9599
  737MOL0     H99481   0.976   4.266   6.394  1.1301 -1.3537  2.5433
  737MOL0     H99482   0.825   4.078   6.366 -1.3787 -0.4464 -0.9910
  737MOL0     H99483   0.376   4.124   6.488 -1.7459 -1.2931 -1.0302
  737MOL0     H99484   0.457   4.069   6.617 -2.7721 -2.1800  0.3467
  737MOL0     H99485   0.457   3.876   6.405 -0.2294 -0.1194  0.0690
  737MOL0     H99486   0.299   3.885   6.492  0.1669 -0.0350  0.1285
  737MOL0     H99487   0.397   3.830   6.702  0.9849 -1.1660  0.3212
  737MOL0     H99488   0.564   3.855   6.646  0.7926 -2.1989 -1.1608
  737MOL0     H99489   0.485   3.611   6.668  0.5077 -1.7824 -1.3190
  737MOL0     H99490   0.389   3.644   6.518 -0.4794 -0.8280  1.1478
  737MOL0     H99491   0.769   3.646   6.354  0.6189 -2.9446  1.0186
  737MOL0     H99492   0.511   4.333   6.515 -0.3633 -0.8177  1.6774
  737MOL0     H99493   0.537   4.524   6.583  0.1410  1.7797  3.4642
  737MOL0     H99494   0.690   4.571   6.656  2.7346 -2.7853  0.0273
  737MOL0     H99495   0.641   4.631   6.492  0.4149  0.8096  1.6902
  738MOL0     O99496   6.844   3.277   0.958 -0.3674  0.3426  0.2492
  738MOL0     C99497   6.826   3.393   0.990  0.2497 -0.6552 -0.3677
  738MOL0     O99498   6.872   3.508   0.922 -0.3677  0.3224 -0.4260
  738MOL0     C99499   6.905   3.477   0.792 -0.2886 -0.7112 -0.6627
  738MOL0     C99500   7.039   3.469   0.750  0.1332  0.2368  0.0314
  738MOL0     C99501   7.060   3.448   0.617  0.9172 -0.8189  0.0646
  738MOL0     C99502   6.952   3.416   0.530 -0.6516  0.8933  0.9901
  738MOL0     O99503   6.956   3.367   0.401 -0.0705  0.8898  0.2737
  738MOL0     C99504   7.080   3.308   0.345  0.0911 -0.5480 -0.4294
  738MOL0     C99505   7.038   3.195   0.260 -0.0821  0.5599 -0.8924
  738MOL0     C99506   7.149   3.156   0.166 -0.1871 -0.2288 -0.2732
  738MOL0     C99507   7.119   3.027   0.090  1.0465 -0.6852 -0.2566
  738MOL0     C99508   7.013   3.038  -0.022  0.2387  0.0050 -1.4937
  738MOL0     C99509   7.048   3.132  -0.134  0.2109 -0.7060 -1.3549
  738MOL0     C99510   6.941   3.142  -0.239 -0.6449  0.0212  0.6618
  738MOL0     C99511   6.962   3.259  -0.334  0.0722 -1.1871  0.2443
  738MOL0     N99512   7.085   3.240  -0.410  0.4199 -0.2436 -0.1514
  738MOL0     C99513   7.099   3.157  -0.522  0.3907  0.3531 -0.3813
  738MOL0     C99514   7.231   3.174  -0.544 -0.7575  0.8383  0.6663
  738MOL0     C99515   7.300   3.103  -0.658  0.0474  0.0571 -0.1306
  738MOL0     C99516   7.242   3.110  -0.797 -0.7101  0.1696  0.4563
  738MOL0     C99517   7.340   3.040  -0.904  0.4952 -0.2185 -0.5265
  738MOL0     C99518   7.350   2.888  -0.904 -0.3388  0.0600 -0.2144
  738MOL0     O99519   7.378   2.844  -1.035  0.0765  0.0425  0.6098
  738MOL0     C99520   7.509   2.844  -1.071  0.1144 -0.1793 -0.1608
  738MOL0     C99521   7.613   2.909  -1.006 -0.2553 -0.2257 -0.9326
  738MOL0     C99522   7.747   2.894  -1.044  0.4729  0.4166  0.1918
  738MOL0     C99523   7.774   2.828  -1.165 -0.3678  0.3140 -0.7964
  738MOL0     C99524   7.923   2.823  -1.210  0.0824 -0.2888 -0.0392
  738MOL0     O99525   7.966   2.706  -1.237  1.4662 -0.4049 -0.0509
  738MOL0     C99526   8.079   2.683  -1.313 -0.2476 -1.1700 -0.0467
  738MOL0     C99527   8.162   2.780  -1.373  0.4757 -0.4541 -0.9899
  738MOL0     C99528   8.265   2.752  -1.467 -0.6433 -0.1204 -0.2272
  738MOL0     C99529   8.291   2.612  -1.493 -1.0273 -0.8414  0.2655
  738MOL0     O99530   8.397   2.559  -1.561  0.4692  0.2599 -0.6029
  738MOL0     C99531   8.483   2.647  -1.628 -0.1968 -0.0188  0.2962
  738MOL0     C99532   8.591   2.557  -1.688  0.3701  0.0665  0.1983
  738MOL0     C99533   8.693   2.647  -1.759 -0.4208  0.0062 -0.5991
  738MOL0     C99534   8.837   2.594  -1.777  0.3286 -0.1284  0.2087
  738MOL0     C99535   8.928   2.681  -1.874  0.4313  0.1641 -0.2298
  738MOL0     C99536   9.050   2.727  -1.788  0.0498  0.8990 -0.5970
  738MOL0     C99537   9.152   2.795  -1.868 -0.0103 -0.0925  0.9458
  738MOL0     C99538   9.285   2.812  -1.797 -1.2366 -0.2749 -0.3863
  738MOL0    Cl99539   9.402   2.884  -1.907 -0.4958  0.2738  0.9723
  738MOL0     C99540   8.206   2.522  -1.429  0.4257 -0.7339  0.4592
  738MOL0     C99541   8.103   2.559  -1.350  0.7129 -0.1587 -0.4111
  738MOL0     O99542   7.991   2.932  -1.198 -0.8953  0.1619 -0.1330
  738MOL0     C99543   7.670   2.766  -1.234  0.2381  0.0554 -0.3748
  738MOL0     C99544   7.538   2.781  -1.188 -0.9317  0.8544  0.3562
  738MOL0     N99545   7.292   3.262  -0.450 -0.6088  0.3376  0.2599
  738MOL0     N99546   7.195   3.303  -0.373  0.4234  0.4411  0.1612
  738MOL0     C99547   6.826   3.438   0.577  0.3843 -0.4273 -1.0250
  738MOL0     C99548   6.796   3.463   0.711 -0.1760  0.7432  0.0750
  738MOL0     C99549   6.750   3.418   1.110 -0.9524 -0.1806  0.1183
  738MOL0     C99550   6.733   3.548   1.153 -0.2737 -0.0417 -0.4945
  738MOL0     C99551   6.660   3.585   1.267 -0.1756  0.7180  0.8603
  738MOL0     C99552   6.592   3.488   1.342 -0.0446  0.4314  0.0814
  738MOL0     O99553   6.523   3.511   1.467 -0.2186 -0.2383  0.1905
  738MOL0     C99554   6.519   3.645   1.531 -0.6193  0.2487  0.4326
  738MOL0     C99555   6.652   3.674   1.594  1.3855  0.1176 -0.8114
  738MOL0     C99556   6.664   3.599   1.727  0.0999  0.3171 -0.0876
  738MOL0     C99557   6.807   3.590   1.766 -0.5736 -0.4738 -0.9199
  738MOL0     C99558   6.893   3.484   1.704 -0.2995  0.3989  0.2434
  738MOL0     C99559   6.980   3.419   1.645  0.1143 -0.1675  0.2422
  738MOL0     C99560   6.598   3.353   1.302  0.7249 -0.0227  0.9613
  738MOL0     C99561   6.678   3.315   1.191  0.5277  0.4819  0.4806
  738MOL0     C99562   6.683   3.172   1.161 -0.3778  0.4123 -0.0508
  738MOL0     H99563   7.125   3.491   0.813  0.7640  0.7124 -0.9584
  738MOL0     H99564   7.164   3.439   0.591  0.9611 -0.1053 -0.0274
  738MOL0     H99565   7.141   3.380   0.290  1.0839  0.4661  1.8645
  738MOL0     H99566   7.146   3.275   0.425 -0.3998 -0.2181  0.1181
  738MOL0     H99567   6.958   3.237   0.199 -0.7689 -1.0110 -1.0970
  738MOL0     H99568   7.010   3.103   0.312  1.6818 -0.2308 -1.2560
  738MOL0     H99569   7.234   3.138   0.232  1.0155 -0.9372 -1.9310
  738MOL0     H99570   7.173   3.243   0.104  2.0214 -0.8868 -0.4327
  738MOL0     H99571   7.207   2.983   0.044  0.3372 -0.5915 -1.7770
  738MOL0     H99572   7.072   2.958   0.162 -0.9104  1.6291  0.8417
  738MOL0     H99573   6.997   2.936  -0.058 -0.8340  0.4745 -2.4257
  738MOL0     H99574   6.917   3.070   0.019  0.9504  0.0193  0.2289
  738MOL0     H99575   7.061   3.229  -0.084  3.4672  0.1796 -3.5837
  738MOL0     H99576   7.141   3.098  -0.179  0.9323  0.6396 -0.9338
  738MOL0     H99577   6.840   3.150  -0.200 -0.2812  0.1890  1.5765
  738MOL0     H99578   6.956   3.059  -0.310  2.5465  0.9320  0.0993
  738MOL0     H99579   6.892   3.264  -0.418  3.4423  0.0487 -2.7506
  738MOL0     H99580   6.947   3.350  -0.276  0.0813 -1.1937  0.2588
  738MOL0     H99581   7.039   3.091  -0.585  2.1257  0.8336 -2.6944
  738MOL0     H99582   7.398   3.153  -0.660 -0.0561  0.3866  1.6812
  738MOL0     H99583   7.316   2.999  -0.628 -0.1242  0.3660  1.0895
  738MOL0     H99584   7.149   3.052  -0.800  0.2203 -1.4847  2.0961
  738MOL0     H99585   7.224   3.215  -0.823 -0.9913  1.3332  4.6249
  738MOL0     H99586   7.440   3.084  -0.892  0.3837 -0.6442  3.6851
  738MOL0     H99587   7.302   3.072  -1.001  2.2479 -1.5992 -1.7239
  738MOL0     H99588   7.253   2.849  -0.871 -1.2826  0.7365 -2.0678
  738MOL0     H99589   7.424   2.864  -0.827  1.0404 -0.7569 -1.7318
  738MOL0     H99590   7.600   2.974  -0.919 -1.8607  0.1414 -1.4057
  738MOL0     H99591   7.831   2.919  -0.979  2.4297 -1.3852 -1.5011
  738MOL0     H99592   8.158   2.888  -1.363  3.3353 -0.3997  0.8190
  738MOL0     H99593   8.336   2.826  -1.502 -2.6795  1.5251 -1.0377
  738MOL0     H99594   8.434   2.724  -1.689 -1.0517  0.4837  1.5822
  738MOL0     H99595   8.537   2.696  -1.547 -1.8681 -3.5548  3.8756
  738MOL0     H99596   8.634   2.501  -1.605  0.4724  0.2377  0.2628
  738MOL0     H99597   8.557   2.485  -1.763  1.4042 -1.6779  1.3687
  738MOL0     H99598   8.656   2.668  -1.859  0.5322  0.1060 -0.9396
  738MOL0     H99599   8.697   2.736  -1.695 -2.5031 -0.6880  0.6021
  738MOL0     H99600   8.826   2.495  -1.823 -5.3324  0.9774 -1.6938
  738MOL0     H99601   8.873   2.577  -1.676 -1.2294 -0.0778  0.7992
  738MOL0     H99602   8.881   2.766  -1.924 -0.8179 -2.2776 -3.5625
  738MOL0     H99603   8.959   2.618  -1.957  0.4060 -1.1172  0.6923
  738MOL0     H99604   9.022   2.785  -1.700  1.1361 -0.6276  0.8144
  738MOL0     H99605   9.084   2.630  -1.749 -2.3818 -0.0824 -0.7180
  738MOL0     H99606   9.120   2.893  -1.905  0.7857  0.5718  1.9651
  738MOL0     H99607   9.177   2.737  -1.957 -2.2680  1.2495 -0.6644
  738MOL0     H99608   9.276   2.884  -1.715 -1.0304  0.2167 -0.7928
  738MOL0     H99609   9.329   2.729  -1.741  3.0173  1.1759 -1.1711
  738MOL0     H99610   8.227   2.417  -1.446 -1.5787 -1.3126  1.3349
  738MOL0     H99611   8.033   2.482  -1.321  0.1067 -0.1965 -1.8754
  738MOL0     H99612   7.697   2.711  -1.323  1.7070  0.7699 -0.3854
  738MOL0     H99613   7.440   2.749  -1.224 -1.7401  3.2510  0.2473
  738MOL0     H99614   6.741   3.425   0.511 -1.7208  2.2753  0.8697
  738MOL0     H99615   6.695   3.469   0.751 -2.0420 -1.6399 -3.7436
  738MOL0     H99616   6.786   3.632   1.109  1.2869  1.2013  3.3027
  738MOL0     H99617   6.650   3.684   1.310 -1.6700  1.2075 -0.5288
  738MOL0     H99618   6.441   3.651   1.608  1.3502 -0.9093  2.6512
  738MOL0     H99619   6.493   3.712   1.449 -1.4564 -1.6227 -0.8974
  738MOL0     H99620   6.665   3.781   1.612 -0.7490  0.0493  1.6672
  738MOL0     H99621   6.733   3.635   1.530  1.4930  1.8898 -1.8169
  738MOL0     H99622   6.619   3.500   1.724  0.7007 -0.0333  1.2932
  738MOL0     H99623   6.605   3.654   1.802 -1.8716 -1.7995  0.0018
  738MOL0     H99624   6.857   3.687   1.758  0.9766 -0.9291  2.0644
  738MOL0     H99625   6.799   3.591   1.875  0.2318  2.1246 -0.8165
  738MOL0     H99626   7.057   3.363   1.596 -0.4561  3.0056 -5.1302
  738MOL0     H99627   6.548   3.281   1.366  0.0089  0.3327  0.8057
  738MOL0     H99628   6.624   3.116   1.235  0.1635 -1.5112 -0.9987
  738MOL0     H99629   6.638   3.170   1.061  0.5406 -0.5599 -0.4698
  738MOL0     H99630   6.781   3.124   1.164 -0.6246 -0.1078  2.8686
  739MOL0     O99631   9.385   1.478   9.965  0.2379 -0.2475  0.2182
  739MOL0     C99632   9.437   1.451  10.067 -0.5312 -0.6789 -0.3466
  739MOL0     O99633   9.570   1.453  10.086 -0.5102 -0.6171 -0.4634
  739MOL0     C99634   9.652   1.498   9.989 -0.3534 -0.1024 -0.1367
  739MOL0     C99635   9.645   1.628   9.932  0.6629  0.6723 -0.0930
  739MOL0     C99636   9.747   1.665   9.837 -1.0076  0.3965 -0.6869
  739MOL0     C99637   9.852   1.582   9.811 -0.0069  0.0866  0.0474
  739MOL0     O99638   9.941   1.613   9.705  0.2058 -0.9548 -0.0201
  739MOL0     C99639  10.085   1.619   9.730  0.1659  0.5065 -0.9102
  739MOL0     C99640  10.148   1.745   9.693  0.2191  0.4734  0.8972
  739MOL0     C99641  10.292   1.750   9.759  1.0095  0.2618 -0.2753
  739MOL0     C99642  10.396   1.656   9.698  0.2585  0.1098  0.4946
  739MOL0     C99643  10.534   1.716   9.699  0.1918  1.2043 -0.5771
  739MOL0     C99644  10.649   1.616   9.707 -0.9992 -0.1788  0.1793
  739MOL0     C99645  10.672   1.509   9.602 -0.3068  0.5634 -0.9001
  739MOL0     C99646  10.713   1.573   9.472  0.3223 -0.2402 -0.2739
  739MOL0     N99647  10.730   1.463   9.375 -0.3356  1.0485 -0.3270
  739MOL0     C99648  10.850   1.402   9.352  0.1364  0.1463 -0.4008
  739MOL0     C99649  10.829   1.328   9.241  0.4810 -0.7422  0.5739
  739MOL0     C99650  10.936   1.237   9.182 -0.6884 -0.0450 -1.0215
  739MOL0     C99651  10.886   1.085   9.172  0.0572  0.8426 -0.7351
  739MOL0     C99652  10.942   0.984   9.067 -0.3362 -1.3085  0.1238
  739MOL0     C99653  11.093   0.976   9.062 -0.0182 -0.3996 -0.6550
  739MOL0     O99654  11.151   0.936   9.184  0.3221  0.1362 -0.6020
  739MOL0     C99655  11.281   0.925   9.202 -0.1756 -0.3319  0.5409
  739MOL0     C99656  11.339   0.889   9.327 -0.2169  0.3826  0.0073
  739MOL0     C99657  11.476   0.875   9.345 -0.1099  0.3046 -0.1165
  739MOL0     C99658  11.570   0.911   9.238  0.2366  0.8823 -0.6829
  739MOL0     C99659  11.718   0.896   9.251 -0.3109  0.0490 -0.2845
  739MOL0     O99660  11.757   0.815   9.358  0.7747 -0.1979 -0.5725
  739MOL0     C99661  11.875   0.815   9.416 -0.2336 -0.2654  0.3134
  739MOL0     C99662  11.953   0.929   9.425  0.5117  0.4504 -0.8822
  739MOL0     C99663  12.081   0.914   9.478 -0.2354  0.2194 -0.0027
  739MOL0     C99664  12.138   0.795   9.520 -0.1626 -0.3161 -0.0998
  739MOL0     O99665  12.268   0.790   9.552  0.7619  0.1799  0.3061
  739MOL0     C99666  12.335   0.666   9.521  0.4091  0.4148 -0.1683
  739MOL0     C99667  12.487   0.701   9.524  0.1477 -0.5607 -0.1779
  739MOL0     C99668  12.574   0.604   9.606 -0.0499 -0.4054 -0.1942
  739MOL0     C99669  12.716   0.652   9.621 -1.3318  0.7776 -0.4876
  739MOL0     C99670  12.806   0.559   9.705  0.1499  0.0102  0.1422
  739MOL0     C99671  12.784   0.573   9.855  0.5838  0.2030 -0.5878
  739MOL0     C99672  12.891   0.509   9.936  0.0876  0.6390  0.0078
  739MOL0     C99673  12.862   0.534  10.085  0.3540 -0.8473 -0.6049
  739MOL0    Cl99674  12.981   0.449  10.181  0.0084  0.3704 -0.2976
  739MOL0     C99675  12.063   0.678   9.506 -0.2024  0.1418  0.4276
  739MOL0     C99676  11.936   0.693   9.450  0.3223 -0.1623  0.4574
  739MOL0     O99677  11.790   0.939   9.158  0.3694  0.4613  0.3008
  739MOL0     C99678  11.515   0.950   9.118  0.1451 -0.3226  0.2457
  739MOL0     C99679  11.375   0.962   9.105  0.3425  0.0169 -0.3071
  739MOL0     N99680  10.693   1.338   9.203 -0.0459  0.6214 -0.3489
  739MOL0     N99681  10.638   1.426   9.284  0.3610  0.8217  0.2314
  739MOL0     C99682   9.856   1.450   9.871 -0.2117 -0.2623  0.1974
  739MOL0     C99683   9.759   1.409   9.960  0.5986 -0.0436 -1.0782
  739MOL0     C99684   9.338   1.422  10.181 -0.4707 -0.0281  1.0379
  739MOL0     C99685   9.205   1.400  10.147 -0.6727 -0.8889 -0.0488
  739MOL0     C99686   9.113   1.392  10.247 -0.2707  0.4634 -0.1820
  739MOL0     C99687   9.138   1.408  10.381 -0.5010  0.2381 -0.3852
  739MOL0     O99688   9.048   1.388  10.486  0.4299  0.5564 -0.4150
  739MOL0     C99689   8.929   1.324  10.451 -0.1684  0.4333 -0.2831
  739MOL0     C99690   8.842   1.293  10.579 -0.1106  0.3185 -1.1735
  739MOL0     C99691   8.932   1.210  10.676  0.7318  1.2215  0.8069
  739MOL0     C99692   8.863   1.128  10.794  0.6037  0.2105  0.1312
  739MOL0     C99693   8.748   1.047  10.748  0.3146 -0.6848  0.0338
  739MOL0     C99694   8.660   0.990  10.686 -1.2350 -0.8325 -0.1467
  739MOL0     C99695   9.272   1.432  10.416 -0.1993  0.6652 -0.1872
  739MOL0     C99696   9.375   1.449  10.316  0.2894  0.8731  0.0153
  739MOL0     C99697   9.513   1.499  10.357 -1.3241  0.5257  0.4418
  739MOL0     H99698   9.569   1.701   9.960 -0.0600  0.4960 -1.5079
  739MOL0     H99699   9.734   1.750   9.770 -3.2938 -1.0650 -2.2354
  739MOL0     H99700  10.096   1.596   9.836  1.6914 -0.0814 -1.1762
  739MOL0     H99701  10.137   1.536   9.683 -1.1312 -0.7400 -0.2335
  739MOL0     H99702  10.084   1.818   9.742 -3.6446 -2.2174  0.2883
  739MOL0     H99703  10.160   1.759   9.585  0.7151 -1.4063  0.6820
  739MOL0     H99704  10.278   1.740   9.867 -3.0902 -0.5936 -0.7389
  739MOL0     H99705  10.333   1.850   9.738  0.0927  0.7993  0.4219
  739MOL0     H99706  10.395   1.561   9.752 -3.3697 -0.7315 -0.7759
  739MOL0     H99707  10.372   1.646   9.591 -1.2825 -0.0608  0.8425
  739MOL0     H99708  10.540   1.776   9.608 -0.5551  1.2331 -0.6168
  739MOL0     H99709  10.535   1.777   9.790  0.8758  0.4781 -0.0759
  739MOL0     H99710  10.740   1.677   9.705 -2.0702  1.4825 -0.5418
  739MOL0     H99711  10.638   1.560   9.800 -0.3859  0.4296  0.6306
  739MOL0     H99712  10.585   1.445   9.581  0.3458 -0.6041 -0.1826
  739MOL0     H99713  10.746   1.444   9.649  0.4009  1.7945 -0.2863
  739MOL0     H99714  10.638   1.636   9.424  1.0035 -0.9855 -2.4462
  739MOL0     H99715  10.808   1.625   9.493  0.7729 -1.5200  1.0322
  739MOL0     H99716  10.949   1.412   9.394  0.6780 -1.4002 -1.2430
  739MOL0     H99717  10.968   1.279   9.086  0.1406  1.2357 -0.2206
  739MOL0     H99718  11.022   1.238   9.250 -1.2368 -4.2979  0.0244
  739MOL0     H99719  10.896   1.045   9.273 -2.1957 -0.3204 -0.9135
  739MOL0     H99720  10.779   1.076   9.152 -0.0341 -0.5805  0.2821
  739MOL0     H99721  10.905   1.019   8.971 -0.1901  0.3627  0.6431
  739MOL0     H99722  10.898   0.885   9.082  1.5392 -2.1946  0.0258
  739MOL0     H99723  11.134   1.068   9.021 -2.1017  0.6708 -0.4714
  739MOL0     H99724  11.116   0.898   8.989 -0.8890 -0.3738 -0.9650
  739MOL0     H99725  11.269   0.868   9.408 -0.3144 -0.4916 -0.2984
  739MOL0     H99726  11.510   0.835   9.440 -2.6606  0.4580  0.9379
  739MOL0     H99727  11.904   1.021   9.395 -3.9272 -1.7056 -0.9995
  739MOL0     H99728  12.141   1.004   9.469  1.5863 -0.9854 -0.6174
  739MOL0     H99729  12.297   0.601   9.599 -0.6089  0.6801 -0.4242
  739MOL0     H99730  12.319   0.623   9.421 -0.1518 -6.3826  2.3431
  739MOL0     H99731  12.522   0.718   9.422  3.0669  0.3032  0.8590
  739MOL0     H99732  12.493   0.799   9.572  1.2382 -0.4267 -0.5619
  739MOL0     H99733  12.526   0.593   9.704  2.3447 -3.8176  0.7857
  739MOL0     H99734  12.571   0.508   9.554 -0.8366 -0.8896  0.7086
  739MOL0     H99735  12.709   0.753   9.663  1.9084  0.5872  0.7853
  739MOL0     H99736  12.749   0.668   9.518 -2.9611  0.4183 -1.0970
  739MOL0     H99737  12.907   0.598   9.693  0.3341  0.1721  1.9769
  739MOL0     H99738  12.805   0.456   9.667 -0.8384  1.0053 -2.8182
  739MOL0     H99739  12.786   0.673   9.900  1.1823 -0.6052  1.2696
  739MOL0     H99740  12.689   0.523   9.878  1.6588 -1.7637 -0.1944
  739MOL0     H99741  12.992   0.544   9.917 -0.5724  3.5422  1.3552
  739MOL0     H99742  12.889   0.401   9.920 -0.8721  0.6446  0.0008
  739MOL0     H99743  12.856   0.640  10.110 -3.5089 -1.4748  2.1997
  739MOL0     H99744  12.767   0.489  10.117 -0.1972  0.2990 -0.5777
  739MOL0     H99745  12.091   0.576   9.528  3.1620  1.1066  1.2177
  739MOL0     H99746  11.876   0.602   9.440  1.1840 -0.8775  1.5071
  739MOL0     H99747  11.571   0.984   9.032  0.5531 -1.1126  0.1947
  739MOL0     H99748  11.349   0.981   9.001  3.6293  3.5891 -0.7040
  739MOL0     H99749   9.941   1.389   9.842 -1.1088 -2.0519  1.2098
  739MOL0     H99750   9.754   1.308  10.000 -0.8264  0.3541 -0.1951
  739MOL0     H99751   9.170   1.389  10.045  2.9313 -0.9037 -1.4408
  739MOL0     H99752   9.015   1.362  10.209 -0.2014  0.6056 -0.4714
  739MOL0     H99753   8.957   1.232  10.399  1.1375  0.3865  0.4727
  739MOL0     H99754   8.882   1.384  10.373 -2.0728 -1.1011 -0.3836
  739MOL0     H99755   8.755   1.234  10.547  0.7168 -2.6656  1.5780
  739MOL0     H99756   8.799   1.384  10.620 -0.9254 -0.7823  0.5632
  739MOL0     H99757   8.999   1.276  10.732  1.0250  0.9082  0.8261
  739MOL0     H99758   8.998   1.137  10.626  0.3970  0.6399  1.2060
  739MOL0     H99759   8.929   1.050  10.833 -0.8204 -1.7037 -1.1485
  739MOL0     H99760   8.837   1.193  10.879 -1.6412  0.1628 -0.4672
  739MOL0     H99761   8.586   0.947  10.621 -3.5274  2.8977 -0.3591
  739MOL0     H99762   9.293   1.442  10.522 -1.5679  0.6479  0.1072
  739MOL0     H99763   9.588   1.422  10.339  0.4053  1.8333  1.6539
  739MOL0     H99764   9.535   1.588  10.297  2.7614 -3.1591 -4.3806
  739MOL0     H99765   9.522   1.531  10.461  1.7156  2.1729 -0.2310
  740MOL0     O99766   7.330   5.501   5.298 -0.0202 -0.2433  0.7577
  740MOL0     C99767   7.329   5.627   5.288  0.8613  0.6701  0.7292
  740MOL0     O99768   7.241   5.705   5.346  0.1075 -0.4726  0.2259
  740MOL0     C99769   7.152   5.655   5.431 -0.1075 -0.1431 -0.7189
  740MOL0     C99770   7.200   5.597   5.554  0.3253 -0.6325  0.1651
  740MOL0     C99771   7.104   5.536   5.645  0.0035  0.0018  0.5704
  740MOL0     C99772   6.965   5.550   5.619 -0.0719 -0.7935  0.6718
  740MOL0     O99773   6.881   5.490   5.711  0.6352 -0.3740  0.2179
  740MOL0     C99774   6.742   5.474   5.676 -0.2596  0.1580  0.3712
  740MOL0     C99775   6.656   5.389   5.774 -0.1223 -0.4496 -0.3017
  740MOL0     C99776   6.734   5.276   5.844 -0.4722  1.0397 -0.3859
  740MOL0     C99777   6.668   5.205   5.964 -1.1717 -0.1047  1.4019
  740MOL0     C99778   6.768   5.102   6.030 -0.5329 -0.9624 -0.0857
  740MOL0     C99779   6.749   5.064   6.180  0.0949  0.7316  0.7121
  740MOL0     C99780   6.610   4.998   6.211  0.0602 -0.0455  0.5367
  740MOL0     C99781   6.576   4.971   6.358 -0.1260  0.1045  0.5837
  740MOL0     N99782   6.670   4.890   6.433 -0.3654  0.4380 -0.3578
  740MOL0     C99783   6.791   4.933   6.486 -0.1253 -0.6516  0.1818
  740MOL0     C99784   6.855   4.817   6.541  0.2598 -0.2532  0.8176
  740MOL0     C99785   6.992   4.809   6.604  0.1857 -0.1758  0.1789
  740MOL0     C99786   6.994   4.762   6.747  0.6062  0.5329  0.9168
  740MOL0     C99787   6.911   4.842   6.845 -0.2783  0.0594  0.4109
  740MOL0     C99788   6.934   4.991   6.843 -0.8610 -0.1204  0.1845
  740MOL0     O99789   7.076   5.024   6.866 -0.6475 -0.1755  0.5283
  740MOL0     C99790   7.118   5.155   6.867  0.1676  0.2913 -0.1853
  740MOL0     C99791   7.248   5.164   6.922 -0.0079  0.0536 -0.3823
  740MOL0     C99792   7.321   5.279   6.944 -0.4661 -0.7529 -0.4984
  740MOL0     C99793   7.257   5.400   6.916  0.7133  0.5187 -0.4371
  740MOL0     C99794   7.327   5.527   6.944  0.1088  0.2628 -0.3546
  740MOL0     O99795   7.465   5.519   6.955 -0.0991 -0.4097  0.0774
  740MOL0     C99796   7.525   5.638   6.971  0.0639  0.4385 -0.0530
  740MOL0     C99797   7.524   5.696   7.100 -0.5194  0.3083  0.0005
  740MOL0     C99798   7.604   5.803   7.127 -0.1022  0.3112  0.1008
  740MOL0     C99799   7.687   5.853   7.023 -0.8632  0.1290  0.2354
  740MOL0     O99800   7.767   5.966   7.038  0.6166 -0.2567 -0.2274
  740MOL0     C99801   7.781   6.020   7.166 -0.5759  0.1491  0.0852
  740MOL0     C99802   7.868   6.151   7.155 -0.7598  0.0859 -0.5132
  740MOL0     C99803   8.017   6.128   7.138 -0.1113  0.2387 -0.1190
  740MOL0     C99804   8.084   6.263   7.105 -0.2119  0.5857 -0.8381
  740MOL0     C99805   8.058   6.291   6.949 -0.5695  1.1729 -0.5986
  740MOL0     C99806   8.152   6.400   6.904 -1.0258  0.3614  1.3070
  740MOL0     C99807   8.173   6.396   6.763 -0.0805 -1.1836  0.0113
  740MOL0     C99808   8.243   6.519   6.707 -0.1525  0.2778  0.0617
  740MOL0    Cl99809   8.411   6.474   6.676 -0.1508  0.3138 -0.4541
  740MOL0     C99810   7.690   5.798   6.896 -0.1926 -0.2018 -0.4087
  740MOL0     C99811   7.610   5.685   6.873  0.6927 -0.0034 -0.0401
  740MOL0     O99812   7.263   5.631   6.962 -0.9172 -0.0609  0.0213
  740MOL0     C99813   7.123   5.393   6.861  0.2355 -0.1567  0.0308
  740MOL0     C99814   7.058   5.274   6.827 -1.1713 -0.0013  0.4705
  740MOL0     N99815   6.769   4.707   6.520 -0.6178  0.0145 -0.0415
  740MOL0     N99816   6.665   4.753   6.454  0.4474 -0.2879 -0.6993
  740MOL0     C99817   6.929   5.629   5.502 -0.2117  0.2727  0.0353
  740MOL0     C99818   7.018   5.673   5.410 -1.1467  0.2844  0.1215
  740MOL0     C99819   7.431   5.698   5.207  0.3732 -0.4365  0.8634
  740MOL0     C99820   7.442   5.845   5.225  1.2509  0.5637  0.5623
  740MOL0     C99821   7.537   5.918   5.157 -1.1630  0.3041  0.0603
  740MOL0     C99822   7.633   5.855   5.074  0.4092 -0.1826  0.6826
  740MOL0     O99823   7.721   5.940   5.005  0.3119  0.0199  0.4071
  740MOL0     C99824   7.761   5.887   4.876 -1.2722 -0.5808 -0.3165
  740MOL0     C99825   7.866   5.977   4.814  0.1985 -0.3555 -0.6786
  740MOL0     C99826   7.913   5.928   4.676 -0.4568  0.1579  1.0319
  740MOL0     C99827   8.020   6.031   4.622  1.4921  0.1466 -1.0555
  740MOL0     C99828   7.963   6.166   4.607 -1.1696 -0.5121 -0.6059
  740MOL0     C99829   7.925   6.281   4.610  0.0955  0.5631 -0.6682
  740MOL0     C99830   7.612   5.724   5.053 -0.8387 -0.1952 -0.4982
  740MOL0     C99831   7.518   5.650   5.113 -0.0831  0.1307  0.5686
  740MOL0     C99832   7.518   5.503   5.075  0.4499  0.8682 -0.9098
  740MOL0     H99833   7.307   5.596   5.572  0.3618 -0.0896  0.0014
  740MOL0     H99834   7.133   5.499   5.743 -2.3374  3.9142  3.0362
  740MOL0     H99835   6.687   5.566   5.655  0.4951  0.3096 -1.1139
  740MOL0     H99836   6.744   5.410   5.587  1.7509 -0.8250  1.0435
  740MOL0     H99837   6.571   5.340   5.726 -0.6290  0.7697 -0.6890
  740MOL0     H99838   6.610   5.448   5.855  0.1430 -2.3485  1.3146
  740MOL0     H99839   6.833   5.315   5.872 -1.2048  2.3052  0.5296
  740MOL0     H99840   6.764   5.210   5.762  1.4505  0.5043  0.6820
  740MOL0     H99841   6.640   5.276   6.043  1.2819  2.4381  0.1491
  740MOL0     H99842   6.576   5.159   5.925 -0.9400  1.9564 -1.9635
  740MOL0     H99843   6.771   5.012   5.968 -1.8397 -0.5837 -0.7402
  740MOL0     H99844   6.869   5.143   6.018 -0.8444 -0.7744 -2.8275
  740MOL0     H99845   6.831   5.001   6.214 -0.0528  1.7392  3.1832
  740MOL0     H99846   6.760   5.160   6.232 -0.6799  1.5246 -0.5044
  740MOL0     H99847   6.592   4.911   6.147 -1.7729  1.6969 -1.4566
  740MOL0     H99848   6.533   5.071   6.185  0.4995 -0.0939 -0.9712
  740MOL0     H99849   6.568   5.064   6.416  2.4468  0.7284  0.0590
  740MOL0     H99850   6.484   4.913   6.363  0.3695 -0.7505 -0.0268
  740MOL0     H99851   6.822   5.037   6.492 -0.2529 -0.5957 -0.1052
  740MOL0     H99852   7.055   4.741   6.546  0.8400  3.0898 -3.3566
  740MOL0     H99853   7.033   4.910   6.594  1.7201 -0.7361  0.6305
  740MOL0     H99854   6.951   4.661   6.742  1.8680 -0.0736  1.7755
  740MOL0     H99855   7.098   4.765   6.782  0.4478 -0.3291  1.4952
  740MOL0     H99856   6.954   4.810   6.941 -3.0693 -1.5427  1.2333
  740MOL0     H99857   6.804   4.825   6.854 -0.1232 -0.2909  1.8345
  740MOL0     H99858   6.880   5.031   6.929 -1.1567  1.6704 -0.7746
  740MOL0     H99859   6.890   5.038   6.754  2.0074 -2.1045 -2.5053
  740MOL0     H99860   7.285   5.069   6.961 -2.0714 -0.8472 -0.4848
  740MOL0     H99861   7.413   5.275   7.002  0.0135 -0.2310 -1.1961
  740MOL0     H99862   7.462   5.651   7.177 -0.3480  0.3378  0.1543
  740MOL0     H99863   7.590   5.859   7.220 -0.6796 -2.4871  1.8122
  740MOL0     H99864   7.687   6.051   7.214  1.4855  1.3704  3.7337
  740MOL0     H99865   7.833   5.947   7.228  0.4275  0.2684 -0.6019
  740MOL0     H99866   7.838   6.210   7.068 -0.2299  0.8669 -0.1726
  740MOL0     H99867   7.857   6.212   7.245  1.5523  0.4157 -0.4048
  740MOL0     H99868   8.055   6.082   7.230  3.3673  2.4522 -0.2484
  740MOL0     H99869   8.027   6.058   7.055 -2.5059 -0.7432  0.3305
  740MOL0     H99870   8.192   6.247   7.114 -0.4432 -0.4251  0.2452
  740MOL0     H99871   8.056   6.342   7.175  1.4281  0.1522  0.3759
  740MOL0     H99872   7.953   6.314   6.929 -2.0951 -3.2456  1.1432
  740MOL0     H99873   8.091   6.202   6.896  0.6108  0.0952  1.8062
  740MOL0     H99874   8.120   6.494   6.951 -0.4724  0.6421  1.1355
  740MOL0     H99875   8.251   6.373   6.944  0.1451 -0.1217 -1.6893
  740MOL0     H99876   8.074   6.401   6.717 -0.3141 -0.9400  0.5306
  740MOL0     H99877   8.230   6.309   6.727  1.1330  0.5693 -2.6149
  740MOL0     H99878   8.199   6.563   6.617 -0.3463 -1.4789 -0.7438
  740MOL0     H99879   8.234   6.594   6.786  1.3496  0.4841  0.0694
  740MOL0     H99880   7.771   5.815   6.826  2.8835 -1.0770  2.6570
  740MOL0     H99881   7.621   5.635   6.777  0.6699 -0.6071  0.2730
  740MOL0     H99882   7.067   5.480   6.827  2.5829  1.6899  0.6177
  740MOL0     H99883   6.958   5.268   6.784 -0.6202  2.1387 -1.2586
  740MOL0     H99884   6.823   5.647   5.486 -0.4332 -1.1418 -0.2043
  740MOL0     H99885   6.993   5.734   5.324  0.3296  0.8484  0.0776
  740MOL0     H99886   7.385   5.903   5.298 -1.2279  2.1488 -2.3875
  740MOL0     H99887   7.550   6.025   5.170  1.7542 -0.1727  1.8962
  740MOL0     H99888   7.680   5.864   4.807 -0.0073  1.7435 -2.7929
  740MOL0     H99889   7.808   5.789   4.886  6.4776  2.3899 -0.3869
  740MOL0     H99890   7.956   5.986   4.876 -0.2258  1.0549 -0.2394
  740MOL0     H99891   7.822   6.077   4.823 -0.2371 -0.5567 -0.5449
  740MOL0     H99892   7.833   5.918   4.602  2.7033 -1.8252 -2.5076
  740MOL0     H99893   7.957   5.828   4.682 -0.1342  0.3602  2.2933
  740MOL0     H99894   8.101   6.029   4.696  0.8243  0.6689 -0.2961
  740MOL0     H99895   8.057   5.998   4.525 -1.1651 -0.1751 -2.0243
  740MOL0     H99896   7.883   6.379   4.612 -1.5526 -0.1365  0.3145
  740MOL0     H99897   7.689   5.664   5.005  0.9090 -0.3192  2.2779
  740MOL0     H99898   7.420   5.457   5.065  0.4140  0.2075  1.7141
  740MOL0     H99899   7.571   5.495   4.979  1.0894 -1.3167 -0.4128
  740MOL0     H99900   7.587   5.463   5.149 -0.0762  1.1244 -0.2738
  741MOL0     O99901   4.071   3.567   8.168 -0.0441  0.2060  0.3009
  741MOL0     C99902   4.082   3.588   8.289 -0.0552  0.0731 -0.6627
  741MOL0     O99903   4.186   3.577   8.359 -0.3099 -0.3339 -0.4775
  741MOL0     C99904   4.315   3.565   8.309  0.1653  0.4165  0.8542
  741MOL0     C99905   4.341   3.458   8.221 -0.4904 -0.2606 -1.1240
  741MOL0     C99906   4.477   3.429   8.193  0.2552  0.3368 -0.0351
  741MOL0     C99907   4.584   3.506   8.253  0.4277 -0.3484 -0.5125
  741MOL0     O99908   4.716   3.467   8.232  0.0673  0.3179  0.1485
  741MOL0     C99909   4.744   3.459   8.093 -0.6513  0.6233  1.0370
  741MOL0     C99910   4.891   3.416   8.082 -0.4034 -0.5384  0.1405
  741MOL0     C99911   4.940   3.372   7.935 -0.0226  0.0176  0.6564
  741MOL0     C99912   5.097   3.389   7.926 -0.7935  0.0100  0.2939
  741MOL0     C99913   5.141   3.350   7.787 -0.0674  0.7801  0.2866
  741MOL0     C99914   5.278   3.397   7.763 -0.2481  0.7723  0.4354
  741MOL0     C99915   5.327   3.340   7.627 -0.3294 -0.2752 -0.6122
  741MOL0     C99916   5.480   3.350   7.612  0.0707 -0.0875  0.9375
  741MOL0     N99917   5.507   3.279   7.484 -0.0718  1.3166 -0.1377
  741MOL0     C99918   5.492   3.326   7.355 -0.8228  0.2552 -0.3725
  741MOL0     C99919   5.530   3.221   7.273  1.2510  0.3042  1.0553
  741MOL0     C99920   5.542   3.207   7.123 -0.5607  0.1179 -0.0637
  741MOL0     C99921   5.411   3.241   7.058  0.7626 -0.3469  0.4437
  741MOL0     C99922   5.403   3.399   7.034  0.2277  1.2177  0.8347
  741MOL0     C99923   5.495   3.447   6.923 -0.2356  0.9158  0.1842
  741MOL0     O99924   5.472   3.388   6.788 -0.8108  0.1835 -0.2469
  741MOL0     C99925   5.560   3.439   6.691 -1.4574  1.0393 -0.2986
  741MOL0     C99926   5.670   3.530   6.713 -0.3790  0.2112 -0.2634
  741MOL0     C99927   5.738   3.576   6.596  0.0225  0.2963 -0.1258
  741MOL0     C99928   5.714   3.517   6.465 -0.2485 -0.8562  0.1590
  741MOL0     C99929   5.803   3.567   6.355  0.5106 -0.8998 -0.2257
  741MOL0     O99930   5.888   3.670   6.387 -0.1591  0.0943  0.5902
  741MOL0     C99931   5.952   3.745   6.286  0.6237  0.0521 -0.1344
  741MOL0     C99932   5.902   3.778   6.161  0.5918 -0.0949  0.2292
  741MOL0     C99933   5.978   3.864   6.073  0.2719  0.7194  0.5707
  741MOL0     C99934   6.099   3.913   6.114 -0.2323  0.3781  0.9537
  741MOL0     O99935   6.168   3.982   6.017  1.0420  0.2277 -0.2752
  741MOL0     C99936   6.221   4.109   6.060 -0.5348 -0.9001 -0.1575
  741MOL0     C99937   6.134   4.230   6.025 -0.3613  0.6439  0.2680
  741MOL0     C99938   6.135   4.265   5.871 -0.4134 -0.3370 -0.2507
  741MOL0     C99939   6.223   4.396   5.850  0.3348  0.5054 -0.2825
  741MOL0     C99940   6.218   4.416   5.700  0.0206  0.1364  0.3775
  741MOL0     C99941   6.305   4.526   5.647  0.1316  0.6580 -0.7545
  741MOL0     C99942   6.299   4.531   5.491 -0.3227 -0.1866  0.6221
  741MOL0     C99943   6.426   4.548   5.424  1.0932  0.7187 -0.1004
  741MOL0    Cl99944   6.416   4.549   5.240  0.4962  0.3232  0.2455
  741MOL0     C99945   6.141   3.894   6.242  0.0923  0.2736 -0.6946
  741MOL0     C99946   6.080   3.802   6.327  0.0829  0.6300 -0.4966
  741MOL0     O99947   5.799   3.507   6.249  0.2014 -0.1602  0.0591
  741MOL0     C99948   5.614   3.426   6.451  0.7473  0.2893 -1.0417
  741MOL0     C99949   5.543   3.387   6.562 -0.3251  0.0167 -0.8552
  741MOL0     N99950   5.555   3.115   7.348 -0.3542  1.0383 -0.3427
  741MOL0     N99951   5.547   3.145   7.469  0.1039 -0.0939  0.1854
  741MOL0     C99952   4.557   3.618   8.336  0.2477 -0.2810  0.4041
  741MOL0     C99953   4.420   3.646   8.356  0.5910  0.4205 -0.3234
  741MOL0     C99954   3.954   3.631   8.363 -0.5506  0.3895 -0.1299
  741MOL0     C99955   3.840   3.554   8.345 -0.3959  0.5578 -0.2492
  741MOL0     C99956   3.732   3.568   8.429 -0.5374  0.5991 -0.2168
  741MOL0     C99957   3.714   3.666   8.527 -0.3006  0.4690 -0.2180
  741MOL0     O99958   3.598   3.680   8.603 -0.8469 -0.3796  0.3688
  741MOL0     C99959   3.589   3.790   8.693 -0.1066 -0.9140 -0.0364
  741MOL0     C99960   3.442   3.781   8.735  0.5694 -0.5836 -0.6660
  741MOL0     C99961   3.433   3.689   8.859  0.9017 -0.0494 -0.2872
  741MOL0     C99962   3.463   3.757   8.993  0.2160 -0.3013  0.1228
  741MOL0     C99963   3.437   3.669   9.109  0.4703 -0.4650 -0.5963
  741MOL0     C99964   3.444   3.598   9.210 -0.5773  0.7332 -0.1738
  741MOL0     C99965   3.833   3.748   8.543  0.3433 -0.1875  0.5352
  741MOL0     C99966   3.949   3.732   8.463 -0.3397  0.6600  0.2246
  741MOL0     C99967   4.068   3.816   8.492 -0.2204  0.4257 -0.8907
  741MOL0     H99968   4.258   3.396   8.190 -1.3600  1.1574 -1.7207
  741MOL0     H99969   4.502   3.350   8.123  1.5939  1.3503 -0.7419
  741MOL0     H99970   4.691   3.397   8.020  1.8422 -0.2499 -0.1627
  741MOL0     H99971   4.736   3.561   8.055 -0.3592  0.1059 -0.4923
  741MOL0     H99972   4.904   3.331   8.149  0.9941  1.1974  2.1809
  741MOL0     H99973   4.954   3.495   8.123 -2.9482  0.7527  1.8516
  741MOL0     H99974   4.885   3.433   7.863  1.3280  0.3535 -0.1226
  741MOL0     H99975   4.923   3.266   7.913  1.5233 -0.4633  1.6114
  741MOL0     H99976   5.116   3.495   7.946  2.7396 -0.1545 -1.3739
  741MOL0     H99977   5.154   3.337   8.004  2.0853  1.0647 -0.9677
  741MOL0     H99978   5.133   3.242   7.771  3.0804  0.0826  2.4762
  741MOL0     H99979   5.074   3.393   7.711 -0.7956  0.6881  0.8708
  741MOL0     H99980   5.298   3.504   7.778 -1.9001  1.0042  1.1389
  741MOL0     H99981   5.344   3.346   7.834  1.2981  3.3427  0.9854
  741MOL0     H99982   5.276   3.401   7.551  0.0567  0.8606  0.0249
  741MOL0     H99983   5.287   3.239   7.622 -1.9923  0.2812  0.5211
  741MOL0     H99984   5.526   3.449   7.605  0.0492 -0.1822 -0.7946
  741MOL0     H99985   5.523   3.294   7.696  1.0464 -2.9207 -1.3062
  741MOL0     H99986   5.464   3.427   7.329  0.5430  0.3004 -1.8649
  741MOL0     H99987   5.624   3.267   7.083 -1.2927  2.1162  1.2867
  741MOL0     H99988   5.558   3.099   7.109 -0.0338  0.3296 -1.2695
  741MOL0     H99989   5.414   3.193   6.960 -2.9464  0.1920 -0.0917
  741MOL0     H99990   5.329   3.198   7.116 -1.6189 -3.3466 -4.5078
  741MOL0     H99991   5.433   3.450   7.126 -0.8309  0.2786  1.7295
  741MOL0     H99992   5.298   3.417   7.009 -0.5207 -3.7272 -0.8035
  741MOL0     H99993   5.598   3.433   6.958 -1.0982  0.6995  2.8799
  741MOL0     H99994   5.469   3.552   6.908 -3.7649  0.0543 -0.5634
  741MOL0     H99995   5.685   3.571   6.812  4.7165 -0.8176 -0.3779
  741MOL0     H99996   5.814   3.653   6.605  1.7630 -1.2392 -0.9003
  741MOL0     H99997   5.816   3.723   6.125  0.8715 -0.2376 -0.2336
  741MOL0     H99998   5.950   3.870   5.969  2.6130  0.6348 -0.1118
  741MOL0     H99999   6.248   4.115   6.165  1.7426 -2.1064 -0.6107
  741MOL0     H    0   6.311   4.103   5.998 -1.4035 -2.2275 -1.3639
  741MOL0     H    1   6.031   4.201   6.047 -1.2621  0.3240 -3.5724
  741MOL0     H    2   6.176   4.318   6.075  1.5273 -0.4682  0.7286
  741MOL0     H    3   6.166   4.175   5.818 -2.3417 -0.5086 -1.1561
  741MOL0     H    4   6.038   4.299   5.836  0.9891  3.5708 -0.9056
  741MOL0     H    5   6.320   4.366   5.890 -0.9086  1.2734  3.7742
  741MOL0     H    6   6.175   4.482   5.898  1.2931 -0.3532  2.3879
  741MOL0     H    7   6.114   4.441   5.678 -0.1415  0.3185  1.3226
  741MOL0     H    8   6.260   4.321   5.666 -0.0153 -0.6565  2.3926
  741MOL0     H    9   6.281   4.621   5.695  2.9264 -0.2106  2.7692
  741MOL0     H   10   6.407   4.518   5.684  0.1438  2.3632 -0.3215
  741MOL0     H   11   6.234   4.606   5.444  1.3119 -0.2909 -2.0086
  741MOL0     H   12   6.258   4.435   5.459  1.3885 -0.4702 -0.8269
  741MOL0     H   13   6.467   4.644   5.459  0.2709  0.8966  0.4055
  741MOL0     H   14   6.501   4.475   5.456  1.0166  1.0977  0.9937
  741MOL0     H   15   6.236   3.935   6.274  0.0523  0.3795 -0.7109
  741MOL0     H   16   6.115   3.785   6.428  1.8825  1.0210 -1.0206
  741MOL0     H   17   5.609   3.383   6.351 -0.4938  1.5175 -1.5394
  741MOL0     H   18   5.466   3.313   6.542 -2.5597  1.9809  0.0016
  741MOL0     H   19   4.631   3.681   8.385  1.0156 -0.0676 -0.9886
  741MOL0     H   20   4.399   3.725   8.428 -2.3071  0.2575 -0.8458
  741MOL0     H   21   3.852   3.476   8.271  0.4559 -2.4618  2.8374
  741MOL0     H   22   3.661   3.488   8.408  1.1408 -1.2688  0.9643
  741MOL0     H   23   3.610   3.882   8.638 -1.4498 -0.9124 -0.5993
  741MOL0     H   24   3.660   3.796   8.776 -0.1709 -1.1024  0.0329
  741MOL0     H   25   3.376   3.761   8.650 -1.0773  0.9274  0.2016
  741MOL0     H   26   3.416   3.884   8.758 -2.4447 -1.4360  0.1804
  741MOL0     H   27   3.516   3.619   8.851  1.1203  0.2040 -0.2644
  741MOL0     H   28   3.335   3.644   8.839  1.4731 -0.5361 -2.2200
  741MOL0     H   29   3.562   3.804   8.992  0.5014 -0.8395  1.2478
  741MOL0     H   30   3.395   3.843   8.995  1.9356  1.1213 -0.2405
  741MOL0     H   31   3.449   3.525   9.288  0.3771 -0.6006 -1.4232
  741MOL0     H   32   3.836   3.828   8.617 -0.5739  1.0656 -0.7234
  741MOL0     H   33   4.042   3.897   8.561 -2.6683 -0.8618 -0.1547
  741MOL0     H   34   4.148   3.757   8.536 -2.1656 -1.3399  0.4818
  741MOL0     H   35   4.104   3.856   8.397 -2.2463  0.4975 -1.6805
  742MOL0     O   36  11.199   9.611  10.136 -0.1002 -0.5148  0.7510
  742MOL0     C   37  11.080   9.647  10.157 -0.1055  0.8551  0.1413
  742MOL0     O   38  11.040   9.781  10.169  0.1061 -0.5226  0.4348
  742MOL0     C   39  11.129   9.875  10.220 -0.6359 -0.5091  0.1257
  742MOL0     C   40  11.101  10.006  10.186  0.1239  0.0885  0.4071
  742MOL0     C   41  11.174  10.118  10.245  1.1271 -0.5272 -0.1477
  742MOL0     C   42  11.291  10.087  10.314  0.7568 -0.3960 -0.0435
  742MOL0     O   43  11.367  10.182  10.378 -0.3039  0.1376  0.7971
  742MOL0     C   44  11.391  10.306  10.308  0.2465  0.5172 -0.0275
  742MOL0     C   45  11.512  10.376  10.376  0.2826  0.6607 -0.0013
  742MOL0     C   46  11.520  10.518  10.308  0.3697 -0.9760 -0.9133
  742MOL0     C   47  11.570  10.518  10.164  0.3545  0.7661  1.0326
  742MOL0     C   48  11.595  10.648  10.092 -0.8467  0.0377  0.4662
  742MOL0     C   49  11.654  10.777  10.147 -0.1655 -0.5212 -0.0270
  742MOL0     C   50  11.788  10.775  10.220 -0.5390 -0.3247 -0.8310
  742MOL0     C   51  11.909  10.769  10.131  0.4170  0.3308  0.0648
  742MOL0     N   52  12.029  10.795  10.218 -0.3250  0.1717 -0.2562
  742MOL0     C   53  12.119  10.899  10.216  0.0465 -0.2508 -0.0223
  742MOL0     C   54  12.213  10.863  10.312  0.0313  1.1671  0.4902
  742MOL0     C   55  12.345  10.927  10.337  0.1779 -0.2828 -0.2772
  742MOL0     C   56  12.444  10.856  10.433  0.1409  0.4094 -0.1147
  742MOL0     C   57  12.563  10.950  10.474  0.9354 -0.1440  0.6998
  742MOL0     C   58  12.662  10.901  10.582  0.7415 -0.6668 -0.3121
  742MOL0     O   59  12.596  10.901  10.710  0.3329  0.3846  0.5310
  742MOL0     C   60  12.667  10.883  10.830 -0.3403  0.8152  0.7604
  742MOL0     C   61  12.799  10.842  10.832 -0.0243 -0.2190 -0.0367
  742MOL0     C   62  12.858  10.812  10.955  0.0308 -0.7823 -0.5289
  742MOL0     C   63  12.794  10.828  11.079  0.3371 -0.4753 -1.2279
  742MOL0     C   64  12.863  10.807  11.208  0.0015 -0.5234  0.0250
  742MOL0     O   65  12.796  10.864  11.316 -0.3600 -0.7492 -0.3323
  742MOL0     C   66  12.862  10.846  11.432  0.3799  0.0585 -0.4901
  742MOL0     C   67  12.863  10.728  11.502  0.3804 -1.1219 -0.6741
  742MOL0     C   68  12.920  10.730  11.627 -0.4926 -0.0114  0.3991
  742MOL0     C   69  12.975  10.851  11.683 -0.1382  0.6138 -1.2766
  742MOL0     O   70  13.034  10.858  11.810  0.1950  0.4609  0.6579
  742MOL0     C   71  13.159  10.919  11.818 -1.1233 -0.2584 -0.6544
  742MOL0     C   72  13.201  10.913  11.964  0.2754 -0.1153 -0.0963
  742MOL0     C   73  13.333  10.972  11.998  0.0504 -0.4117  0.9813
  742MOL0     C   74  13.383  10.932  12.144 -0.2468  0.2659  0.9939
  742MOL0     C   75  13.538  10.961  12.161  0.2617 -0.3758  0.2927
  742MOL0     C   76  13.578  10.947  12.308 -0.1153  0.3598  0.3157
  742MOL0     C   77  13.722  10.935  12.323  0.0783  0.0751 -0.7219
  742MOL0     C   78  13.766  10.936  12.471 -0.1569  0.2990  0.5915
  742MOL0    Cl   79  13.951  10.935  12.473 -0.3522  0.3892  0.1082
  742MOL0     C   80  12.973  10.961  11.607 -0.0179 -0.1281  1.0495
  742MOL0     C   81  12.919  10.961  11.479 -0.1596  0.0043 -0.7917
  742MOL0     O   82  12.975  10.755  11.199 -0.2776  0.2342  0.4966
  742MOL0     C   83  12.664  10.888  11.073  0.0568  0.4008  0.6210
  742MOL0     C   84  12.601  10.906  10.946  0.1159  0.0233 -0.0092
  742MOL0     N   85  12.167  10.743  10.371 -1.2468 -0.2915  0.5763
  742MOL0     N   86  12.061  10.702  10.318  0.9241 -1.0701  0.4144
  742MOL0     C   87  11.334   9.953  10.333  0.5220 -0.0726  0.5235
  742MOL0     C   88  11.242   9.849  10.295  1.1402  0.2045  0.2404
  742MOL0     C   89  10.974   9.541  10.140  0.1573  0.3321 -1.0182
  742MOL0     C   90  10.844   9.582  10.109  0.1482  0.2204 -0.4348
  742MOL0     C   91  10.744   9.487  10.088  0.3785  0.1950  0.7916
  742MOL0     C   92  10.774   9.349  10.092 -0.2160  0.0803 -0.7437
  742MOL0     O   93  10.689   9.256  10.082 -0.5872 -0.3751  0.3691
  742MOL0     C   94  10.557   9.284  10.040 -0.6305  0.1785  0.6416
  742MOL0     C   95  10.491   9.147  10.053  0.7034 -0.5809 -0.5560
  742MOL0     C   96  10.348   9.155  10.000  0.1503 -0.1247 -0.3432
  742MOL0     C   97  10.259   9.029   9.998  0.4524 -0.6588 -0.6034
  742MOL0     C   98  10.119   9.062   9.966  0.2222  0.1132 -0.5225
  742MOL0     C   99   9.994   9.069   9.961 -0.9140  0.1758 -0.0301
  742MOL0     C  100  10.894   9.306  10.133  0.5245  0.0346 -0.4388
  742MOL0     C  101  11.000   9.396  10.152  0.5874 -1.2354 -0.5254
  742MOL0     C  102  11.123   9.316  10.192  0.4093  0.3895 -0.9322
  742MOL0     H  103  11.010  10.027  10.132  0.0977  0.6775  0.6712
  742MOL0     H  104  11.144  10.221  10.227 -0.2091 -0.8469  0.1432
  742MOL0     H  105  11.397  10.304  10.198 -2.4278  2.2995 -0.3048
  742MOL0     H  106  11.308  10.375  10.326  1.9346  2.5494  0.3637
  742MOL0     H  107  11.606  10.329  10.347 -1.0043 -0.9504 -1.8451
  742MOL0     H  108  11.503  10.375  10.485  1.0246  1.9441  0.0818
  742MOL0     H  109  11.569  10.597  10.366 -1.9446  1.2611 -1.7731
  742MOL0     H  110  11.416  10.551  10.316  0.6450 -0.5591  2.4765
  742MOL0     H  111  11.655  10.449  10.160  0.8817  1.4710 -1.1837
  742MOL0     H  112  11.489  10.474  10.105  0.1493  0.7666  1.3126
  742MOL0     H  113  11.655  10.621  10.005 -0.7995 -1.4984  0.9563
  742MOL0     H  114  11.503  10.671  10.036 -0.5333  0.2321  0.0198
  742MOL0     H  115  11.663  10.849  10.065 -0.3492  0.7827  1.0546
  742MOL0     H  116  11.582  10.825  10.215  0.4601 -1.0141  1.0013
  742MOL0     H  117  11.782  10.688  10.286  0.3456 -1.0198 -1.6342
  742MOL0     H  118  11.798  10.860  10.288  2.4970 -2.1376  1.2497
  742MOL0     H  119  11.919  10.670  10.084 -0.7150  0.2419 -0.0114
  742MOL0     H  120  11.904  10.839  10.047  1.1609 -0.9455 -1.1112
  742MOL0     H  121  12.130  10.990  10.159  2.0620 -1.2553 -1.3769
  742MOL0     H  122  12.389  10.958  10.242  1.7586 -0.9980  0.1895
  742MOL0     H  123  12.318  11.016  10.394  0.5590 -0.8109  0.7522
  742MOL0     H  124  12.395  10.819  10.523  0.8843 -1.2553 -0.3548
  742MOL0     H  125  12.487  10.768  10.383 -2.4102 -2.0204  1.6695
  742MOL0     H  126  12.525  11.042  10.520  0.2482  0.3974 -0.8800
  742MOL0     H  127  12.615  10.971  10.380 -1.4853 -1.9413 -1.1721
  742MOL0     H  128  12.745  10.970  10.597  2.9576 -2.8085 -1.8205
  742MOL0     H  129  12.706  10.804  10.555  1.5294 -0.8840  1.6228
  742MOL0     H  130  12.846  10.842  10.734  0.0694  3.7573 -0.1582
  742MOL0     H  131  12.963  10.788  10.941 -0.9142 -4.1826 -3.1534
  742MOL0     H  132  12.818  10.640  11.457 -1.4272 -1.1789  1.1053
  742MOL0     H  133  12.918  10.637  11.683  0.4527  1.0780  2.3517
  742MOL0     H  134  13.240  10.872  11.761 -1.2285  0.2521 -1.2374
  742MOL0     H  135  13.165  11.025  11.790 -0.4601 -0.1061  0.0230
  742MOL0     H  136  13.119  10.964  12.016  2.8030  4.1245  0.1660
  742MOL0     H  137  13.212  10.805  11.978 -1.2177 -0.2672  0.0271
  742MOL0     H  138  13.399  10.930  11.921 -0.5038 -0.0906  0.3158
  742MOL0     H  139  13.340  11.076  11.965  0.1615 -1.4413 -2.6670
  742MOL0     H  140  13.370  10.825  12.162  2.1489 -0.2916 -0.1892
  742MOL0     H  141  13.330  11.003  12.208  1.1835  3.3770 -1.0808
  742MOL0     H  142  13.582  11.046  12.108 -0.2391  0.0873  0.6100
  742MOL0     H  143  13.588  10.881  12.106 -1.5635  0.4560 -2.8472
  742MOL0     H  144  13.544  11.030  12.370 -1.8778 -0.0868  0.0111
  742MOL0     H  145  13.529  10.858  12.349 -1.4138 -0.0068 -1.8946
  742MOL0     H  146  13.764  11.020  12.269 -2.5377  2.9733  1.4337
  742MOL0     H  147  13.759  10.842  12.277 -0.8785  1.0640 -3.7322
  742MOL0     H  148  13.730  11.028  12.517  3.1610  3.0645 -1.8665
  742MOL0     H  149  13.727  10.847  12.521  0.8135  0.7753  2.2703
  742MOL0     H  150  13.008  11.057  11.643  0.3096  0.9419 -1.8601
  742MOL0     H  151  12.940  11.048  11.418  1.0639 -0.7488 -1.4905
  742MOL0     H  152  12.623  10.931  11.165  2.9060  5.3338 -0.0248
  742MOL0     H  153  12.499  10.943  10.940  1.1885  3.7929  2.1789
  742MOL0     H  154  11.429   9.925  10.378  0.0067 -0.9726  1.0904
  742MOL0     H  155  11.271   9.747  10.319 -0.3374 -0.0694  1.0085
  742MOL0     H  156  10.811   9.685  10.110 -2.6747 -0.5810 -0.7616
  742MOL0     H  157  10.643   9.523  10.075 -0.2092 -1.5400  0.4305
  742MOL0     H  158  10.556   9.320   9.937 -2.3641 -1.8410 -0.1242
  742MOL0     H  159  10.513   9.356  10.109 -0.8465 -1.6371  2.4931
  742MOL0     H  160  10.503   9.111  10.156  3.9882  1.4003 -0.1160
  742MOL0     H  161  10.535   9.078   9.981 -0.2615 -0.1252 -1.6107
  742MOL0     H  162  10.351   9.202   9.901 -0.5686 -4.0110 -2.4143
  742MOL0     H  163  10.296   9.227  10.064 -4.8788 -3.0395 -0.6447
  742MOL0     H  164  10.297   8.952   9.930  0.3175 -0.1566 -1.2627
  742MOL0     H  165  10.267   8.987  10.098 -3.8287  0.3524  0.3715
  742MOL0     H  166   9.888   9.064   9.948 -0.8879  1.3573 -0.8175
  742MOL0     H  167  10.901   9.202  10.163 -0.3192  0.9164  3.4480
  742MOL0     H  168  11.211   9.309  10.127  1.8780 -0.4774  1.0495
  742MOL0     H  169  11.169   9.348  10.286  1.6952  0.8843 -1.7026
  742MOL0     H  170  11.096   9.210  10.196  1.8952  0.0009 -0.4781
  743MOL0     O  171   3.690   5.232  11.314 -0.0365  0.2925  0.1050
  743MOL0     C  172   3.768   5.153  11.261  0.1928 -0.0761  1.2757
  743MOL0     O  173   3.755   5.086  11.146  0.1715  0.2451 -0.3487
  743MOL0     C  174   3.650   5.109  11.058  0.1244  0.5915 -0.2753
  743MOL0     C  175   3.647   5.019  10.949  0.3751  0.4285  0.0638
  743MOL0     C  176   3.577   5.046  10.846 -0.2367 -0.5888  1.3387
  743MOL0     C  177   3.493   5.159  10.838  0.2122 -0.3722  0.2897
  743MOL0     O  178   3.423   5.170  10.725 -0.1173 -0.6645  0.4834
  743MOL0     C  179   3.376   5.295  10.672 -0.0338  0.1926 -0.2590
  743MOL0     C  180   3.344   5.289  10.518  0.0791 -0.0395  0.2348
  743MOL0     C  181   3.203   5.245  10.488  0.8749  0.3602  0.3388
  743MOL0     C  182   3.168   5.288  10.345  0.4578  0.2705  0.1228
  743MOL0     C  183   3.023   5.244  10.305 -0.1594 -0.3713  1.1557
  743MOL0     C  184   2.911   5.305  10.389  0.8118 -0.6514  0.7231
  743MOL0     C  185   2.772   5.237  10.352 -0.7582  0.3577 -0.2140
  743MOL0     C  186   2.661   5.303  10.436  0.0535  0.2118 -0.6863
  743MOL0     N  187   2.530   5.235  10.418  0.1383  0.0650 -0.8277
  743MOL0     C  188   2.501   5.122  10.481  0.5730  0.2163  0.0636
  743MOL0     C  189   2.369   5.101  10.460  0.0997  0.1656  0.3456
  743MOL0     C  190   2.265   5.004  10.530 -0.0081 -0.2273  0.0200
  743MOL0     C  191   2.182   5.063  10.649 -0.6012  0.3113  0.5347
  743MOL0     C  192   2.118   4.938  10.717  0.7815 -0.9275  0.2083
  743MOL0     C  193   2.035   4.952  10.849  0.3723  0.3852  0.2292
  743MOL0     O  194   1.966   5.076  10.856 -0.1554  0.6011  0.6219
  743MOL0     C  195   1.848   5.079  10.789  0.7143 -0.7781 -0.0410
  743MOL0     C  196   1.799   5.202  10.777 -0.8015  0.4799  0.8390
  743MOL0     C  197   1.683   5.233  10.712  0.3116  0.2681 -0.1588
  743MOL0     C  198   1.606   5.133  10.650  0.1902  0.4342  0.4983
  743MOL0     C  199   1.472   5.164  10.579 -0.3808 -0.2264 -0.4545
  743MOL0     O  200   1.435   5.295  10.598  0.2792  0.4532 -0.2563
  743MOL0     C  201   1.363   5.341  10.496  1.3877 -0.3537 -0.5377
  743MOL0     C  202   1.223   5.356  10.519 -0.7825  0.6755  0.3309
  743MOL0     C  203   1.145   5.395  10.404 -1.0019  0.0636 -0.4365
  743MOL0     C  204   1.206   5.424  10.281 -1.0551  0.1701 -0.3402
  743MOL0     O  205   1.114   5.457  10.186 -0.4249 -0.3552 -0.5881
  743MOL0     C  206   1.146   5.426  10.054  0.3447  0.8355  0.5989
  743MOL0     C  207   1.119   5.279  10.026 -0.7060  1.0892  0.0923
  743MOL0     C  208   0.971   5.242   9.994  0.5310 -0.8680  0.4920
  743MOL0     C  209   0.934   5.297   9.858 -0.0723  0.8709 -0.7924
  743MOL0     C  210   0.783   5.271   9.815  0.7041 -0.6353 -0.2793
  743MOL0     C  211   0.769   5.325   9.672 -0.4111 -0.2152 -0.0915
  743MOL0     C  212   0.870   5.263   9.572  0.0114 -0.4490  0.6575
  743MOL0     C  213   0.824   5.287   9.426  0.1005 -0.6692  0.0691
  743MOL0    Cl  214   0.869   5.458   9.372  0.2145  0.0995  0.3418
  743MOL0     C  215   1.348   5.420  10.267  0.1775 -0.8754  0.5282
  743MOL0     C  216   1.425   5.371  10.378  0.3851  0.2123  0.6440
  743MOL0     O  217   1.411   5.082  10.516 -0.5251 -0.6436  0.1874
  743MOL0     C  218   1.654   5.003  10.670 -0.2870 -0.0961  0.7440
  743MOL0     C  219   1.777   4.978  10.722  0.2437  0.2745  0.4788
  743MOL0     N  220   2.329   5.194  10.363  0.3546  0.3783  0.2285
  743MOL0     N  221   2.435   5.262  10.325  0.5203  0.0311  0.5381
  743MOL0     C  222   3.489   5.251  10.944  0.2718 -0.3128  0.1924
  743MOL0     C  223   3.572   5.216  11.049 -0.0918  0.0753 -0.3051
  743MOL0     C  224   3.886   5.110  11.328 -0.9505 -1.2251 -0.4613
  743MOL0     C  225   3.913   4.969  11.338  0.4609 -0.5383 -0.0412
  743MOL0     C  226   4.020   4.922  11.409  0.5152 -0.4239  0.0322
  743MOL0     C  227   4.115   5.014  11.455  0.4050  0.1633  0.5119
  743MOL0     O  228   4.230   4.963  11.507 -0.3209  0.1259 -0.3996
  743MOL0     C  229   4.274   5.007  11.636 -0.3294 -0.5932  0.4366
  743MOL0     C  230   4.416   4.964  11.663  0.2622 -1.2233  0.7781
  743MOL0     C  231   4.421   4.815  11.678  0.9075 -0.2440 -0.8138
  743MOL0     C  232   4.566   4.774  11.717 -0.9486  0.2454  0.1005
  743MOL0     C  233   4.598   4.806  11.857  0.0475  0.7108 -0.6144
  743MOL0     C  234   4.609   4.838  11.977 -0.1680 -0.2069  0.3543
  743MOL0     C  235   4.102   5.149  11.447 -0.6543 -0.1315  0.4344
  743MOL0     C  236   3.987   5.200  11.378  0.0552  0.4019 -0.5026
  743MOL0     C  237   3.967   5.348  11.367 -0.0069 -0.5195 -0.0565
  743MOL0     H  238   3.705   4.928  10.959  2.9100  1.8656 -0.7961
  743MOL0     H  239   3.582   4.991  10.753  3.8150  1.1104  0.3487
  743MOL0     H  240   3.290   5.341  10.721 -0.2542  1.2353 -1.5477
  743MOL0     H  241   3.457   5.368  10.677  0.2332 -0.1831  2.3613
  743MOL0     H  242   3.410   5.222  10.462 -1.0715 -0.0551 -1.1503
  743MOL0     H  243   3.370   5.382  10.467  6.2069 -0.7582  1.3043
  743MOL0     H  244   3.125   5.286  10.553 -1.5898  0.5891 -2.5363
  743MOL0     H  245   3.207   5.136  10.492  0.0295  0.3546  1.9772
  743MOL0     H  246   3.162   5.397  10.338  1.8887  0.2573 -2.3831
  743MOL0     H  247   3.237   5.240  10.276  0.4535 -1.7240  1.4251
  743MOL0     H  248   3.005   5.277  10.202  2.3433  0.1379  0.8167
  743MOL0     H  249   3.021   5.134  10.307  0.2140 -0.3703  1.8630
  743MOL0     H  250   2.931   5.294  10.496  1.6459 -2.7013  0.4032
  743MOL0     H  251   2.904   5.411  10.363  1.8185 -0.2854  1.8561
  743MOL0     H  252   2.781   5.134  10.388  0.3602  0.6058  0.2578
  743MOL0     H  253   2.754   5.235  10.244 -0.5193  0.2969 -0.2528
  743MOL0     H  254   2.683   5.311  10.543  0.8526 -0.6672 -0.7676
  743MOL0     H  255   2.653   5.407  10.404  0.0139  0.2566 -0.5330
  743MOL0     H  256   2.567   5.074  10.554  3.0088  0.0246 -2.1118
  743MOL0     H  257   2.207   4.958  10.450  3.1348 -3.7750 -0.4656
  743MOL0     H  258   2.330   4.928  10.574  0.8211  0.7046  0.4406
  743MOL0     H  259   2.255   5.111  10.715 -1.7494  4.5641 -0.9739
  743MOL0     H  260   2.102   5.131  10.620 -2.7733 -2.3575 -0.1370
  743MOL0     H  261   2.184   4.854  10.739  1.4850  0.2378  2.9126
  743MOL0     H  262   2.054   4.887  10.644  1.0756  0.1508 -0.8282
  743MOL0     H  263   2.102   4.950  10.936  0.0435 -1.9193  0.4837
  743MOL0     H  264   1.965   4.869  10.861 -1.3387  1.8009  0.3277
  743MOL0     H  265   1.863   5.273  10.829  2.1501 -0.0059 -1.7704
  743MOL0     H  266   1.650   5.336  10.707  1.2663  0.6297  0.6780
  743MOL0     H  267   1.174   5.333  10.613  0.5375  1.0882  1.1454
  743MOL0     H  268   1.037   5.407  10.410 -1.2843 -1.7273 -1.2840
  743MOL0     H  269   1.089   5.484   9.980  0.6172  0.3637  0.0115
  743MOL0     H  270   1.253   5.430  10.034  0.2923 -1.1468 -0.3332
  743MOL0     H  271   1.179   5.245   9.942  0.9398 -0.6209  1.8541
  743MOL0     H  272   1.151   5.220  10.112  2.2151  3.2112  0.6302
  743MOL0     H  273   0.947   5.137   9.975  0.4165 -0.4584 -1.9873
  743MOL0     H  274   0.911   5.296  10.068 -1.7773 -2.8350  0.1719
  743MOL0     H  275   0.991   5.240   9.784 -1.3693 -0.6458 -0.6782
  743MOL0     H  276   0.956   5.403   9.844 -3.0823  1.5300 -1.1204
  743MOL0     H  277   0.715   5.321   9.886 -1.2533 -3.4090 -0.0661
  743MOL0     H  278   0.770   5.163   9.825 -1.2832 -0.2969  1.6201
  743MOL0     H  279   0.669   5.299   9.636 -0.7858 -0.7547  1.2670
  743MOL0     H  280   0.782   5.433   9.665 -0.7036 -0.1780 -0.0653
  743MOL0     H  281   0.874   5.155   9.592  0.8612 -0.6137 -0.3175
  743MOL0     H  282   0.969   5.308   9.587 -1.8910  4.6816 -0.1263
  743MOL0     H  283   0.882   5.221   9.361 -0.5244 -1.0292 -0.1288
  743MOL0     H  284   0.718   5.265   9.410 -0.4184  0.3885  1.7116
  743MOL0     H  285   1.402   5.445  10.177 -0.5605  2.9625  0.9750
  743MOL0     H  286   1.531   5.360  10.360  0.0399 -1.3621 -0.6757
  743MOL0     H  287   1.587   4.923  10.641 -0.9414 -0.5194  3.2684
  743MOL0     H  288   1.801   4.872  10.725 -1.0746 -0.0798 -0.5332
  743MOL0     H  289   3.427   5.340  10.955  2.4228  1.5463 -1.5479
  743MOL0     H  290   3.583   5.302  11.114  1.3630  0.7597 -1.4048
  743MOL0     H  291   3.856   4.899  11.278 -3.7923  2.2557  0.2824
  743MOL0     H  292   4.049   4.819  11.426 -0.5981 -0.1780  4.8717
  743MOL0     H  293   4.196   4.968  11.702  1.0389  1.0086  3.1333
  743MOL0     H  294   4.274   5.116  11.638 -0.1149 -0.5970  0.6212
  743MOL0     H  295   4.449   5.013  11.755 -1.9181  0.9392  0.5055
  743MOL0     H  296   4.478   4.993  11.578 -0.4480  0.2558  0.7347
  743MOL0     H  297   4.405   4.780  11.575 -2.4994  1.2208 -0.9237
  743MOL0     H  298   4.340   4.778  11.742 -1.5752 -1.7461 -4.4647
  743MOL0     H  299   4.578   4.669  11.691  0.6145  0.3936  0.1223
  743MOL0     H  300   4.638   4.836  11.662  1.1394 -1.0465  1.2405
  743MOL0     H  301   4.616   4.870  12.080 -0.2381  1.1835 -0.0577
  743MOL0     H  302   4.175   5.225  11.474  1.3764 -1.5458 -0.7527
  743MOL0     H  303   4.047   5.415  11.400 -3.0262  3.3766 -0.0561
  743MOL0     H  304   3.940   5.378  11.265 -0.3817  0.4983  0.3287
  743MOL0     H  305   3.880   5.364  11.431 -1.5487  0.1730 -2.2035
  744MOL0     O  306   2.097   3.219  10.853 -1.0258 -0.0121  0.2344
  744MOL0     C  307   2.097   3.109  10.801  0.6381 -0.8156  0.4679
  744MOL0     O  308   2.190   3.063  10.714 -0.1406 -0.5841 -0.1625
  744MOL0     C  309   2.291   3.153  10.695  0.2384 -0.7169 -0.3373
  744MOL0     C  310   2.277   3.279  10.628  0.5055  0.7543  0.0387
  744MOL0     C  311   2.383   3.373  10.625  0.8914  0.1331 -0.4497
  744MOL0     C  312   2.501   3.345  10.687 -0.0316 -0.5777  0.3243
  744MOL0     O  313   2.612   3.432  10.696  0.2872  0.4861 -0.4061
  744MOL0     C  314   2.710   3.395  10.600  0.5453 -1.0660 -0.2348
  744MOL0     C  315   2.788   3.522  10.573  0.3044 -0.5579  0.2245
  744MOL0     C  316   2.917   3.493  10.501  0.3272  0.5304 -0.2414
  744MOL0     C  317   2.981   3.618  10.432 -0.0496 -0.3171  0.0779
  744MOL0     C  318   3.131   3.596  10.404  0.1850  0.0428  0.3213
  744MOL0     C  319   3.201   3.734  10.383 -0.4770  0.9090  0.8132
  744MOL0     C  320   3.216   3.809  10.515 -0.2115 -0.4766 -0.0732
  744MOL0     C  321   3.185   3.956  10.490  0.1545 -0.3707  0.6538
  744MOL0     N  322   3.038   3.970  10.452  0.4881 -0.3552  0.7749
  744MOL0     C  323   2.939   3.964  10.544 -0.5352  0.2380  1.2248
  744MOL0     C  324   2.831   3.994  10.478  1.1919 -0.0724 -0.3455
  744MOL0     C  325   2.691   3.995  10.550  0.7684 -0.2446 -0.2243
  744MOL0     C  326   2.598   4.096  10.475 -0.0810 -0.1967 -0.0842
  744MOL0     C  327   2.458   4.117  10.538  0.4259 -0.1622 -0.2666
  744MOL0     C  328   2.470   4.183  10.679  0.7610 -0.2014  0.0552
  744MOL0     O  329   2.565   4.290  10.682 -0.1295  0.0393 -0.1177
  744MOL0     C  330   2.675   4.286  10.770 -0.9454 -0.7478 -0.6153
  744MOL0     C  331   2.807   4.316  10.729 -0.4976  0.4555 -0.2824
  744MOL0     C  332   2.914   4.294  10.826 -0.0923 -0.6765  0.0665
  744MOL0     C  333   2.891   4.266  10.958 -0.5187 -0.8285 -0.2136
  744MOL0     C  334   2.999   4.284  11.054 -0.8980 -0.2272 -0.2085
  744MOL0     O  335   3.106   4.367  11.030  0.0464  0.3686 -0.0468
  744MOL0     C  336   3.209   4.403  11.112  0.6236 -0.6219  0.0586
  744MOL0     C  337   3.211   4.387  11.252 -0.1461  0.4740  0.4114
  744MOL0     C  338   3.323   4.420  11.323 -0.5682  0.4226 -0.7437
  744MOL0     C  339   3.438   4.475  11.260 -0.3740 -0.2070 -0.6298
  744MOL0     O  340   3.555   4.502  11.335  0.4306 -0.7785  0.2342
  744MOL0     C  341   3.669   4.558  11.265 -0.3349  0.3681  0.6600
  744MOL0     C  342   3.790   4.586  11.360  0.1420 -0.4748  0.6683
  744MOL0     C  343   3.902   4.480  11.373 -0.4227 -0.4873 -0.0612
  744MOL0     C  344   4.001   4.522  11.488 -0.5233  0.4694  1.0969
  744MOL0     C  345   4.123   4.433  11.513  0.5927  0.0827 -1.2335
  744MOL0     C  346   4.198   4.420  11.379 -0.0517  0.3188  0.9807
  744MOL0     C  347   4.318   4.331  11.391  0.1825  0.7432  0.0709
  744MOL0     C  348   4.388   4.281  11.266  0.5833  0.4872  0.2330
  744MOL0    Cl  349   4.264   4.193  11.166  0.1523 -0.0453  0.1647
  744MOL0     C  350   3.426   4.488  11.123 -0.4231 -0.2319 -0.0784
  744MOL0     C  351   3.317   4.449  11.047 -0.1331  0.1658  0.2120
  744MOL0     O  352   2.973   4.228  11.159  0.4128 -0.1021  0.1236
  744MOL0     C  353   2.758   4.243  10.995  1.1085 -0.2579 -0.3353
  744MOL0     C  354   2.654   4.258  10.907 -0.4027  0.4159 -0.1515
  744MOL0     N  355   2.855   4.007  10.349 -0.0523 -0.5884  0.1678
  744MOL0     N  356   2.983   4.000  10.335  0.5017  0.5773  0.4828
  744MOL0     C  357   2.516   3.224  10.756  0.0621  0.6030  0.3192
  744MOL0     C  358   2.417   3.121  10.750  0.4773  0.0357  0.3133
  744MOL0     C  359   1.978   3.018  10.830 -0.1498 -0.4388 -0.4197
  744MOL0     C  360   1.863   3.086  10.879  0.0933  0.5951 -0.3750
  744MOL0     C  361   1.748   3.012  10.904  0.7625 -0.5041 -0.4957
  744MOL0     C  362   1.746   2.867  10.892 -0.5898  0.4948 -0.0108
  744MOL0     O  363   1.645   2.781  10.900 -0.6957  0.1598  0.0816
  744MOL0     C  364   1.527   2.835  10.959 -0.0358 -0.2282 -0.0422
  744MOL0     C  365   1.416   2.724  10.973 -0.0713 -0.9103  0.5411
  744MOL0     C  366   1.357   2.678  10.829 -0.0890 -0.4418 -0.5598
  744MOL0     C  367   1.252   2.576  10.867  1.2970  0.4394  0.3129
  744MOL0     C  368   1.228   2.479  10.754  0.6046 -0.0107  0.1158
  744MOL0     C  369   1.224   2.386  10.676 -0.1337 -0.8814 -0.2252
  744MOL0     C  370   1.869   2.806  10.859  0.3237 -0.5214 -0.1771
  744MOL0     C  371   1.981   2.875  10.828 -0.2857 -0.5086  1.0977
  744MOL0     C  372   2.115   2.791  10.806  0.2472 -0.2175  0.6549
  744MOL0     H  373   2.187   3.313  10.578 -0.3872 -1.7165 -0.2181
  744MOL0     H  374   2.379   3.475  10.591 -1.3747  0.9954  2.0096
  744MOL0     H  375   2.781   3.318  10.631  3.2068  0.3923 -2.2240
  744MOL0     H  376   2.657   3.365  10.509 -1.9109  2.3411 -0.1269
  744MOL0     H  377   2.818   3.571  10.665  2.5753  1.2236 -1.3478
  744MOL0     H  378   2.729   3.587  10.508 -2.3356 -2.8560  0.1166
  744MOL0     H  379   2.901   3.421  10.420 -1.2712  1.8800 -1.1912
  744MOL0     H  380   2.984   3.447  10.574 -0.3499 -0.8760 -0.4674
  744MOL0     H  381   2.930   3.640  10.338 -0.4784  2.0456  0.7734
  744MOL0     H  382   2.962   3.703  10.499 -3.8971 -0.7661 -0.2258
  744MOL0     H  383   3.177   3.554  10.494  2.5648 -0.7639 -1.1808
  744MOL0     H  384   3.153   3.520  10.329  0.1826 -0.6636  1.0266
  744MOL0     H  385   3.296   3.714  10.332 -0.4079 -1.6109  1.7936
  744MOL0     H  386   3.148   3.798  10.312 -0.0306 -0.2867 -0.6672
  744MOL0     H  387   3.324   3.816  10.536  0.1769 -1.7480 -1.4188
  744MOL0     H  388   3.166   3.761  10.599  2.2326 -2.5220  0.3795
  744MOL0     H  389   3.205   4.020  10.577 -0.1996  0.3550  0.2130
  744MOL0     H  390   3.252   3.997  10.414  0.0186  1.1645  1.3202
  744MOL0     H  391   2.939   3.941  10.650 -1.1933  3.1237  1.9603
  744MOL0     H  392   2.649   3.893  10.551 -1.0461  0.4412  1.6404
  744MOL0     H  393   2.705   4.031  10.652 -0.4341 -0.0485 -0.1129
  744MOL0     H  394   2.650   4.192  10.468 -0.4843  0.1106  0.9524
  744MOL0     H  395   2.589   4.055  10.374  2.1033 -1.6299  0.2194
  744MOL0     H  396   2.403   4.023  10.538  0.2592 -0.1812  2.6201
  744MOL0     H  397   2.402   4.192  10.482  0.0410 -0.5535 -0.4124
  744MOL0     H  398   2.499   4.105  10.749 -0.5238  0.8272  1.8149
  744MOL0     H  399   2.375   4.215  10.723  1.7734  0.8510  1.5804
  744MOL0     H  400   2.821   4.331  10.622 -2.4844 -2.4396 -1.0771
  744MOL0     H  401   3.017   4.310  10.799  0.1414 -0.4520  1.0546
  744MOL0     H  402   3.119   4.342  11.287  0.9131 -2.0447  0.1397
  744MOL0     H  403   3.349   4.401  11.427 -1.5080  0.3996 -0.5091
  744MOL0     H  404   3.693   4.481  11.191  2.7548  0.1668  1.7347
  744MOL0     H  405   3.646   4.648  11.208 -3.3353  0.5017  1.9279
  744MOL0     H  406   3.835   4.680  11.325 -0.0804 -1.4514 -2.5845
  744MOL0     H  407   3.755   4.600  11.462 -0.0268  1.1195  0.4166
  744MOL0     H  408   3.859   4.386  11.409  0.3175 -1.2387 -1.0963
  744MOL0     H  409   3.940   4.472  11.271 -3.6499  1.6315 -1.6150
  744MOL0     H  410   3.943   4.531  11.580 -0.1790  0.1481  1.3465
  744MOL0     H  411   4.031   4.626  11.469  3.1731 -0.0814  2.9829
  744MOL0     H  412   4.088   4.336  11.551  1.3891  1.2757  3.0158
  744MOL0     H  413   4.177   4.484  11.592 -1.8602  4.4720 -2.0660
  744MOL0     H  414   4.134   4.386  11.297 -1.2391  0.3829  1.8534
  744MOL0     H  415   4.231   4.523  11.360  1.2115  0.2174  2.4551
  744MOL0     H  416   4.284   4.239  11.440  0.9247 -0.5835 -1.7906
  744MOL0     H  417   4.387   4.385  11.456  1.9098 -0.8450 -0.3678
  744MOL0     H  418   4.434   4.371  11.223 -0.7553  1.5642  0.9835
  744MOL0     H  419   4.466   4.211  11.298  0.1502  0.0297  0.2872
  744MOL0     H  420   3.503   4.538  11.063  0.7950 -0.9342  0.8470
  744MOL0     H  421   3.306   4.462  10.940  0.0441  1.0946  0.3023
  744MOL0     H  422   2.737   4.212  11.097 -1.0401  1.1783 -0.2783
  744MOL0     H  423   2.555   4.242  10.949  1.4583 -1.9504  4.0139
  744MOL0     H  424   2.609   3.200  10.808 -0.1364 -0.5318  0.1653
  744MOL0     H  425   2.437   3.022  10.791  2.1221  0.1607 -0.1522
  744MOL0     H  426   1.860   3.191  10.907  0.6072  0.1018  1.7344
  744MOL0     H  427   1.670   3.061  10.961  0.2551  0.2632 -1.8098
  744MOL0     H  428   1.487   2.911  10.892 -0.5151 -0.6029 -0.1817
  744MOL0     H  429   1.546   2.876  11.059 -1.1503 -1.5932  0.7567
  744MOL0     H  430   1.335   2.761  11.036  0.9561 -1.8017  2.4695
  744MOL0     H  431   1.460   2.642  11.030 -1.2312 -0.7755  1.6685
  744MOL0     H  432   1.439   2.645  10.764  1.5274  1.9388  0.1185
  744MOL0     H  433   1.312   2.768  10.785  0.0906  0.1627  0.4587
  744MOL0     H  434   1.275   2.517  10.956 -1.6217 -0.2086  0.7374
  744MOL0     H  435   1.164   2.640  10.875 -0.3100 -1.5873 -0.3810
  744MOL0     H  436   1.221   2.306  10.605  0.1314 -0.4980 -0.6750
  744MOL0     H  437   1.868   2.698  10.855 -1.5247 -0.5005 -1.7334
  744MOL0     H  438   2.155   2.780  10.705  0.5033  0.2122  0.7049
  744MOL0     H  439   2.198   2.833  10.864  1.5839  0.9206 -1.9203
  744MOL0     H  440   2.099   2.696  10.856 -0.6057  0.7279  2.2660
  745MOL0     O  441   4.542   0.772   3.357 -0.3609  0.0411  0.4850
  745MOL0     C  442   4.550   0.713   3.465  0.4588 -0.7054  0.4786
  745MOL0     O  443   4.453   0.695   3.553  0.5393 -0.3244  0.3782
  745MOL0     C  444   4.319   0.740   3.544 -0.6750  0.2675 -0.7202
  745MOL0     C  445   4.250   0.736   3.664 -0.4159 -1.0313 -0.3682
  745MOL0     C  446   4.107   0.747   3.663 -0.2691 -0.4354 -0.2775
  745MOL0     C  447   4.043   0.789   3.545 -0.5611  0.0848  0.2530
  745MOL0     O  448   3.907   0.806   3.538  0.2720  0.1035 -0.5039
  745MOL0     C  449   3.817   0.810   3.657 -0.2558  0.2518  0.5764
  745MOL0     C  450   3.670   0.782   3.613 -0.6154  0.1276 -0.7480
  745MOL0     C  451   3.635   0.645   3.540  0.1425 -0.0336  0.0032
  745MOL0     C  452   3.711   0.610   3.417  0.3090  0.0744  0.0803
  745MOL0     C  453   3.641   0.503   3.333  0.1286  0.3632 -0.6445
  745MOL0     C  454   3.611   0.364   3.396  0.9296 -0.5473 -0.5860
  745MOL0     C  455   3.735   0.273   3.399  0.5659 -1.0540 -0.4720
  745MOL0     C  456   3.726   0.173   3.282 -0.1490 -0.7550 -0.3003
  745MOL0     N  457   3.782   0.044   3.328 -0.1112  0.6828  0.1667
  745MOL0     C  458   3.907   0.023   3.384  0.4493 -0.0087 -0.5477
  745MOL0     C  459   3.921  -0.109   3.386 -0.4678  0.7115 -0.7966
  745MOL0     C  460   4.040  -0.185   3.422 -0.6885  0.3137  0.0906
  745MOL0     C  461   4.047  -0.167   3.572 -1.2133 -0.2365  0.1980
  745MOL0     C  462   4.177  -0.233   3.629 -0.1360 -0.3089  0.4128
  745MOL0     C  463   4.319  -0.195   3.559  0.3234 -0.2267  0.3583
  745MOL0     O  464   4.424  -0.243   3.646 -0.1186  0.1364  0.2481
  745MOL0     C  465   4.549  -0.231   3.587 -0.4859  0.4430  0.1682
  745MOL0     C  466   4.659  -0.245   3.674  0.5393  0.1111 -0.6130
  745MOL0     C  467   4.791  -0.236   3.625  0.5143  0.6220 -1.3562
  745MOL0     C  468   4.820  -0.216   3.493  0.1151 -0.7473  0.4453
  745MOL0     C  469   4.957  -0.239   3.440 -0.1565  0.4697 -0.0411
  745MOL0     O  470   5.060  -0.297   3.521 -0.4180 -0.0963  0.0867
  745MOL0     C  471   5.142  -0.389   3.448 -0.3265  0.1649 -0.2308
  745MOL0     C  472   5.098  -0.522   3.428 -0.4582 -0.7945  0.1371
  745MOL0     C  473   5.167  -0.615   3.355 -0.2579  0.4616 -0.0754
  745MOL0     C  474   5.292  -0.568   3.311  0.4743  0.8014  0.0458
  745MOL0     O  475   5.387  -0.651   3.245  0.5967 -0.5096  0.0566
  745MOL0     C  476   5.372  -0.784   3.242  0.5949  1.5176 -0.4693
  745MOL0     C  477   5.431  -0.859   3.367  0.1571 -0.2959 -0.1742
  745MOL0     C  478   5.585  -0.870   3.358  0.8412  0.1397 -0.3396
  745MOL0     C  479   5.634  -0.976   3.457  0.0614  0.1271  0.3731
  745MOL0     C  480   5.628  -1.113   3.399 -1.0913  0.6047 -0.0551
  745MOL0     C  481   5.697  -1.229   3.476 -0.4443 -0.8153  1.2842
  745MOL0     C  482   5.645  -1.265   3.622 -0.3301 -0.0180  0.1924
  745MOL0     C  483   5.722  -1.379   3.685  0.6036  0.6002  0.4595
  745MOL0    Cl  484   5.890  -1.349   3.690  0.2170 -0.0137  0.2691
  745MOL0     C  485   5.346  -0.439   3.336  0.1104  0.1431  0.2711
  745MOL0     C  486   5.268  -0.352   3.408  0.2377  0.7385  0.4341
  745MOL0     O  487   4.966  -0.210   3.324 -0.5336  0.0527  0.6658
  745MOL0     C  488   4.711  -0.188   3.402  0.4417 -0.6819  0.7222
  745MOL0     C  489   4.578  -0.188   3.455  0.6226 -0.6634  0.3225
  745MOL0     N  490   3.803  -0.167   3.333  0.1735 -1.1760  0.1721
  745MOL0     N  491   3.721  -0.072   3.299  0.0100  0.4715 -0.2124
  745MOL0     C  492   4.117   0.796   3.428 -0.2071 -0.9589 -0.3865
  745MOL0     C  493   4.253   0.767   3.425  0.2259 -0.2158  0.1575
  745MOL0     C  494   4.688   0.671   3.504  1.1059  0.0760  0.1751
  745MOL0     C  495   4.723   0.691   3.639 -0.0623 -0.6953 -0.0232
  745MOL0     C  496   4.854   0.659   3.687 -0.1173 -0.1888  0.2697
  745MOL0     C  497   4.952   0.618   3.593  0.1540  0.3732 -0.0628
  745MOL0     O  498   5.083   0.586   3.613  0.8206 -0.5342 -0.0262
  745MOL0     C  499   5.140   0.578   3.740  0.0834 -0.5482  0.3707
  745MOL0     C  500   5.290   0.548   3.739  0.1791  0.4401  0.4570
  745MOL0     C  501   5.334   0.418   3.661 -0.1890 -0.3793  0.2372
  745MOL0     C  502   5.487   0.386   3.679  0.6252 -0.0233 -0.3264
  745MOL0     C  503   5.511   0.268   3.767 -0.7042  0.1346  0.1917
  745MOL0     C  504   5.536   0.178   3.840 -0.9656 -0.7863  0.4090
  745MOL0     C  505   4.914   0.606   3.463 -0.6918 -0.3488  0.2932
  745MOL0     C  506   4.785   0.619   3.413 -0.2165 -0.2701 -0.0849
  745MOL0     C  507   4.752   0.577   3.276  0.8957 -0.1064 -0.4656
  745MOL0     H  508   4.303   0.705   3.753  0.9213 -1.1590 -1.1794
  745MOL0     H  509   4.054   0.739   3.757 -1.5153  2.4617 -0.6074
  745MOL0     H  510   3.853   0.732   3.725  1.6872  0.3549 -0.2677
  745MOL0     H  511   3.824   0.908   3.705  1.4409 -0.1094  1.1482
  745MOL0     H  512   3.657   0.860   3.538 -0.2638 -2.3241 -3.5372
  745MOL0     H  513   3.605   0.795   3.700  0.3081  0.4677 -0.0852
  745MOL0     H  514   3.530   0.637   3.511 -0.0561  2.6797 -0.2313
  745MOL0     H  515   3.651   0.561   3.608  3.4863 -0.2403 -0.8553
  745MOL0     H  516   3.712   0.701   3.356  0.8932 -1.8070 -2.9427
  745MOL0     H  517   3.815   0.582   3.436 -0.3355 -2.5310  0.2553
  745MOL0     H  518   3.548   0.556   3.310 -1.1567 -1.2522  0.5243
  745MOL0     H  519   3.715   0.485   3.254  0.1239  1.4138 -0.9013
  745MOL0     H  520   3.577   0.376   3.499 -1.3009  3.6551 -1.5641
  745MOL0     H  521   3.535   0.318   3.332 -1.2935  0.9106  0.8414
  745MOL0     H  522   3.739   0.229   3.500 -0.0072  1.6181  0.8202
  745MOL0     H  523   3.823   0.337   3.390 -1.0621  1.1521 -1.6226
  745MOL0     H  524   3.623   0.151   3.252  0.1099 -1.6818 -0.5139
  745MOL0     H  525   3.788   0.208   3.199  0.3971 -2.7314 -0.7587
  745MOL0     H  526   3.987   0.093   3.404  0.2542 -0.2186  1.0554
  745MOL0     H  527   4.039  -0.287   3.383 -1.0640  0.9291 -1.6128
  745MOL0     H  528   4.130  -0.144   3.374  0.2063 -2.4627 -0.7808
  745MOL0     H  529   4.056  -0.059   3.591 -0.2623  0.3600 -3.1244
  745MOL0     H  530   3.964  -0.214   3.625 -0.1802 -0.8438  1.3250
  745MOL0     H  531   4.172  -0.341   3.613 -2.7031 -0.1050 -0.6011
  745MOL0     H  532   4.173  -0.209   3.735 -0.7965 -0.7736  0.4938
  745MOL0     H  533   4.327  -0.086   3.548  4.8554  0.0580  3.7326
  745MOL0     H  534   4.317  -0.236   3.458 -2.7022 -1.8222  0.9405
  745MOL0     H  535   4.654  -0.288   3.773  2.9010  0.0898 -0.4332
  745MOL0     H  536   4.874  -0.254   3.693  0.3062 -1.2136 -1.5439
  745MOL0     H  537   5.012  -0.564   3.478  1.5086 -3.4626  1.4852
  745MOL0     H  538   5.121  -0.713   3.349  2.9829 -1.1407 -1.1930
  745MOL0     H  539   5.273  -0.822   3.218  1.8363 -1.2182 -1.6942
  745MOL0     H  540   5.419  -0.825   3.152  1.3304  0.4454  0.3755
  745MOL0     H  541   5.404  -0.796   3.452  0.0754  0.8072 -0.9910
  745MOL0     H  542   5.376  -0.952   3.381 -1.3291  0.2632 -1.9314
  745MOL0     H  543   5.623  -0.887   3.257  5.5329  2.8031  0.6221
  745MOL0     H  544   5.626  -0.772   3.387  0.3356  0.1195  0.4750
  745MOL0     H  545   5.582  -0.980   3.553  0.0687 -1.7447  0.3469
  745MOL0     H  546   5.738  -0.953   3.485  0.9055 -4.1473  1.5267
  745MOL0     H  547   5.672  -1.127   3.299  0.0926 -1.4619  0.6843
  745MOL0     H  548   5.522  -1.135   3.380 -1.7289  3.8179 -0.9374
  745MOL0     H  549   5.674  -1.317   3.415  0.1560 -0.2907  0.2985
  745MOL0     H  550   5.804  -1.211   3.464 -0.8795  1.0253 -0.2819
  745MOL0     H  551   5.544  -1.299   3.596 -1.7059  2.3857  1.9469
  745MOL0     H  552   5.625  -1.181   3.689 -2.3284 -1.2230  1.2164
  745MOL0     H  553   5.682  -1.388   3.786  1.8799  0.3186  0.9509
  745MOL0     H  554   5.687  -1.470   3.635 -3.2091  1.0448  1.9557
  745MOL0     H  555   5.442  -0.401   3.301  0.6246  0.5733  2.0752
  745MOL0     H  556   5.306  -0.252   3.425 -2.7748  2.1062 -0.1149
  745MOL0     H  557   4.735  -0.174   3.297  0.8158 -0.8828  0.7790
  745MOL0     H  558   4.508  -0.173   3.373  1.4300 -0.3837 -0.3229
  745MOL0     H  559   4.068   0.816   3.334 -1.2465 -0.9901  0.1359
  745MOL0     H  560   4.302   0.758   3.329  0.3723 -0.2908  0.2391
  745MOL0     H  561   4.651   0.734   3.708  2.2056  1.0668  1.4144
  745MOL0     H  562   4.892   0.666   3.789 -0.0681 -2.5394  0.4708
  745MOL0     H  563   5.081   0.516   3.808 -1.1097  1.6367  1.4121
  745MOL0     H  564   5.134   0.675   3.790  0.3428  0.0477 -0.7250
  745MOL0     H  565   5.326   0.541   3.842 -2.4332  1.9164  1.5784
  745MOL0     H  566   5.346   0.632   3.697 -0.1316 -0.4949 -1.9965
  745MOL0     H  567   5.304   0.424   3.556 -2.3752  1.7549  0.8905
  745MOL0     H  568   5.277   0.344   3.717 -0.2115 -1.3409 -1.0379
  745MOL0     H  569   5.523   0.356   3.580  1.2777  1.3758 -0.5358
  745MOL0     H  570   5.539   0.477   3.709 -0.4570  0.7225 -0.6442
  745MOL0     H  571   5.563   0.099   3.908  4.7459 -0.4211 -0.9604
  745MOL0     H  572   4.992   0.565   3.399 -0.6292  0.2860 -0.0395
  745MOL0     H  573   4.835   0.525   3.227  0.4556 -1.1445 -0.1599
  745MOL0     H  574   4.662   0.514   3.272 -1.6426  3.2760 -0.5714
  745MOL0     H  575   4.711   0.668   3.231  1.2546  1.1664  1.6605
  746MOL0     O  576  11.199   9.611   2.576 -0.0802 -0.3482 -0.0998
  746MOL0     C  577  11.162   9.509   2.524 -0.3163 -0.0768  0.2563
  746MOL0     O  578  11.210   9.459   2.410 -0.4731  0.4925 -0.2928
  746MOL0     C  579  11.317   9.522   2.347 -0.1753  0.4063  0.6919
  746MOL0     C  580  11.442   9.462   2.351  0.5973 -0.6134  0.8211
  746MOL0     C  581  11.550   9.518   2.281 -0.2184 -0.6641 -0.7311
  746MOL0     C  582  11.535   9.628   2.205 -0.0290 -0.0855  0.2928
  746MOL0     O  583  11.643   9.671   2.129  0.0133  0.1355 -0.2103
  746MOL0     C  584  11.652   9.812   2.086  0.5458  0.0272  0.0678
  746MOL0     C  585  11.782   9.834   2.000  0.2059 -0.3616 -0.2800
  746MOL0     C  586  11.776   9.933   1.884  0.1970  0.3044 -0.6226
  746MOL0     C  587  11.899   9.923   1.796 -0.1262  0.0806  0.9620
  746MOL0     C  588  11.888  10.013   1.664  0.5875  0.0050 -0.0585
  746MOL0     C  589  12.021  10.026   1.589  0.7870  0.4584  0.6217
  746MOL0     C  590  12.002  10.073   1.444  0.5534 -0.4200 -0.0175
  746MOL0     C  591  12.138  10.079   1.380 -0.0016  0.3578  0.8171
  746MOL0     N  592  12.125  10.078   1.233 -0.3538 -0.4103 -0.8027
  746MOL0     C  593  12.102  10.190   1.153 -0.2557  0.8475 -0.0134
  746MOL0     C  594  12.120  10.150   1.026  0.2591 -0.0662 -0.2201
  746MOL0     C  595  12.083  10.237   0.916 -0.1781 -0.3910  0.2721
  746MOL0     C  596  12.020  10.169   0.797  0.1768 -0.5402 -0.5202
  746MOL0     C  597  11.966  10.277   0.703  0.2461  0.1035 -1.0638
  746MOL0     C  598  11.923  10.219   0.565  0.7048  1.2059 -0.1569
  746MOL0     O  599  12.039  10.214   0.482 -0.6243 -0.4998  0.1180
  746MOL0     C  600  12.030  10.184   0.347 -1.1505  0.1256  0.4713
  746MOL0     C  601  11.923  10.167   0.257  0.4252 -0.0970 -0.5450
  746MOL0     C  602  11.952  10.141   0.120 -0.0389 -0.6079 -0.4164
  746MOL0     C  603  12.079  10.120   0.072 -0.3142  0.2129 -0.5147
  746MOL0     C  604  12.102  10.073  -0.065 -0.0487 -0.4310 -0.1474
  746MOL0     O  605  11.999  10.043  -0.147  0.3532  0.6877  0.0036
  746MOL0     C  606  12.046  10.001  -0.268  0.0054 -0.5880  0.2924
  746MOL0     C  607  12.070  10.092  -0.376  1.1474 -0.1682 -0.0998
  746MOL0     C  608  12.103  10.036  -0.498 -1.3897 -0.6013 -0.1130
  746MOL0     C  609  12.122   9.899  -0.520 -0.3795  0.5741  0.3292
  746MOL0     O  610  12.150   9.851  -0.644 -0.6627  0.2223  0.8268
  746MOL0     C  611  12.189   9.933  -0.760 -0.5273  0.0466 -0.5280
  746MOL0     C  612  12.168   9.860  -0.892  0.4897 -0.7949 -0.0815
  746MOL0     C  613  12.245   9.726  -0.900 -0.4025 -0.2215  0.0457
  746MOL0     C  614  12.396   9.740  -0.873  0.8095 -0.9614 -0.6523
  746MOL0     C  615  12.470   9.628  -0.948  0.4597 -0.0469  0.0180
  746MOL0     C  616  12.438   9.486  -0.889 -0.0407 -0.2059  0.1763
  746MOL0     C  617  12.430   9.483  -0.739  0.5049  0.3131  0.0059
  746MOL0     C  618  12.408   9.346  -0.679 -0.8704 -0.4416 -0.2194
  746MOL0    Cl  619  12.442   9.349  -0.508  0.0845 -0.0268  0.5550
  746MOL0     C  620  12.104   9.808  -0.411  0.6910  0.4181  0.6518
  746MOL0     C  621  12.061   9.858  -0.284  0.5469  0.9566 -0.3148
  746MOL0     O  622  12.217  10.057  -0.095  0.1396 -0.0688  0.1159
  746MOL0     C  623  12.192  10.147   0.158 -0.2619  1.0024 -0.9887
  746MOL0     C  624  12.165  10.171   0.295  0.5631 -0.2949  0.4223
  746MOL0     N  625  12.171  10.025   1.026 -1.0437 -0.4143 -0.2577
  746MOL0     N  626  12.170   9.976   1.150 -0.2412 -0.2695 -0.0228
  746MOL0     C  627  11.409   9.691   2.208  0.0465  0.8410 -0.1382
  746MOL0     C  628  11.297   9.648   2.281 -0.3545  0.7112  0.8625
  746MOL0     C  629  11.047   9.439   2.598 -1.3385  0.3039  0.6527
  746MOL0     C  630  11.044   9.434   2.736 -0.0342 -0.3101 -0.3026
  746MOL0     C  631  10.945   9.359   2.794  0.1300  0.0175 -0.0831
  746MOL0     C  632  10.858   9.270   2.718 -0.9869 -1.1144 -0.5190
  746MOL0     O  633  10.758   9.195   2.771 -0.5810 -0.1565 -0.1518
  746MOL0     C  634  10.771   9.149   2.902  0.7309  0.4118 -0.4982
  746MOL0     C  635  10.698   9.232   3.013  1.1443 -0.0644  0.3354
  746MOL0     C  636  10.551   9.248   2.976 -0.4411 -0.7570  0.0888
  746MOL0     C  637  10.526   9.382   2.900  0.3072 -0.5999 -0.2632
  746MOL0     C  638  10.574   9.501   2.977  0.0313  0.3272  0.4592
  746MOL0     C  639  10.615   9.598   3.026 -0.7460 -0.7012 -0.2395
  746MOL0     C  640  10.866   9.273   2.584 -0.4318 -0.1295  0.2993
  746MOL0     C  641  10.962   9.353   2.517 -0.4454 -0.0151 -0.5118
  746MOL0     C  642  10.954   9.357   2.373  0.6835  0.1842  0.5106
  746MOL0     H  643  11.461   9.369   2.404  2.5698  0.5723  2.3356
  746MOL0     H  644  11.650   9.480   2.264  0.6770  1.7606 -1.3528
  746MOL0     H  645  11.571   9.841   2.019  2.3264  0.1800 -2.1482
  746MOL0     H  646  11.648   9.875   2.175  0.1219  0.0912  0.0052
  746MOL0     H  647  11.814   9.742   1.950  0.2624  0.2155 -1.3447
  746MOL0     H  648  11.859   9.865   2.072  0.9543 -4.9203  1.1542
  746MOL0     H  649  11.769  10.037   1.917 -1.6488 -0.5620  2.0144
  746MOL0     H  650  11.680   9.913   1.836 -0.7870 -0.1018  1.3934
  746MOL0     H  651  11.989   9.955   1.850  1.1972  1.2403 -1.7651
  746MOL0     H  652  11.917   9.820   1.764 -1.0111  0.4602 -0.8930
  746MOL0     H  653  11.823   9.950   1.602  2.3551 -1.8852 -0.1079
  746MOL0     H  654  11.843  10.111   1.683  0.2786 -0.4024  1.4740
  746MOL0     H  655  12.101  10.083   1.637  1.5716 -0.9951  1.1286
  746MOL0     H  656  12.069   9.928   1.581  2.1963  1.0123  1.7422
  746MOL0     H  657  11.964  10.175   1.458  2.5536  0.5511 -1.1245
  746MOL0     H  658  11.945  10.006   1.379  0.4349 -1.6721  1.3292
  746MOL0     H  659  12.208  10.150   1.426 -1.7364  1.5219  1.7365
  746MOL0     H  660  12.183   9.981   1.401  0.1155  0.3300  0.4430
  746MOL0     H  661  12.051  10.283   1.177 -1.6754  0.5486 -1.6411
  746MOL0     H  662  12.013  10.313   0.953 -1.0058 -0.1515 -1.6624
  746MOL0     H  663  12.169  10.294   0.880 -0.8309  0.2949 -0.2337
  746MOL0     H  664  12.085  10.099   0.743  1.7482 -1.3018  2.1768
  746MOL0     H  665  11.935  10.109   0.833 -0.9841  1.5216  0.3298
  746MOL0     H  666  12.036  10.360   0.692  0.5767  0.0680  0.5550
  746MOL0     H  667  11.876  10.307   0.758  0.6973 -0.1662 -0.1757
  746MOL0     H  668  11.842  10.281   0.527  0.5323  1.1362  0.0998
  746MOL0     H  669  11.886  10.119   0.590  0.4174  1.6764  1.3486
  746MOL0     H  670  11.817  10.170   0.281  0.1836 -0.3934 -1.5270
  746MOL0     H  671  11.868  10.130   0.051  1.1333 -2.2080 -1.6769
  746MOL0     H  672  12.065  10.198  -0.353  2.5170 -0.0435 -0.3003
  746MOL0     H  673  12.103  10.113  -0.575 -4.6456 -0.9561 -0.6348
  746MOL0     H  674  12.131  10.025  -0.755  0.8351  0.9998  5.0099
  746MOL0     H  675  12.294   9.964  -0.760 -1.4734  3.6226 -1.6265
  746MOL0     H  676  12.069   9.815  -0.903  0.5193 -0.3809 -2.9200
  746MOL0     H  677  12.182   9.929  -0.976  4.4487 -3.5173 -2.0268
  746MOL0     H  678  12.196   9.655  -0.833 -1.2624 -0.2280 -0.5816
  746MOL0     H  679  12.229   9.691  -1.003 -1.6184 -4.4948  1.4815
  746MOL0     H  680  12.408   9.755  -0.765 -2.0223 -0.5408 -0.3170
  746MOL0     H  681  12.425   9.836  -0.918 -0.6057  0.3060  0.9953
  746MOL0     H  682  12.576   9.659  -0.946 -0.3626  3.2642 -0.5299
  746MOL0     H  683  12.443   9.631  -1.054 -0.5199  3.7801  0.2216
  746MOL0     H  684  12.343   9.443  -0.922 -0.8575 -1.3887  3.6244
  746MOL0     H  685  12.522   9.423  -0.920 -1.6016 -0.9262 -2.9845
  746MOL0     H  686  12.353   9.547  -0.696  0.9824  0.0380  1.3323
  746MOL0     H  687  12.529   9.517  -0.708  1.7734 -3.4188  0.6172
  746MOL0     H  688  12.302   9.328  -0.698 -1.7442  2.4669  1.2986
  746MOL0     H  689  12.471   9.272  -0.728 -3.3567 -0.9708 -2.8566
  746MOL0     H  690  12.099   9.701  -0.427 -1.8064  0.6739 -0.8124
  746MOL0     H  691  12.033   9.791  -0.204 -1.6010  0.2569 -1.5620
  746MOL0     H  692  12.298  10.142   0.139  0.2546 -2.1250  1.7137
  746MOL0     H  693  12.253  10.185   0.356  2.8551 -0.3976 -2.5940
  746MOL0     H  694  11.401   9.781   2.148 -0.2877  0.0131 -1.3853
  746MOL0     H  695  11.202   9.699   2.264 -1.7476 -2.4704 -2.3908
  746MOL0     H  696  11.120   9.494   2.785  0.6356  0.3796 -2.0929
  746MOL0     H  697  10.933   9.374   2.901 -0.8774 -0.3357 -0.1309
  746MOL0     H  698  10.877   9.158   2.926  0.1837  4.0325  1.1583
  746MOL0     H  699  10.738   9.044   2.898 -0.6821  0.8570 -1.5559
  746MOL0     H  700  10.753   9.323   3.040  3.3068 -0.8653 -1.0570
  746MOL0     H  701  10.702   9.169   3.102  2.0278  2.3773  2.1444
  746MOL0     H  702  10.502   9.248   3.074  0.7410 -1.3519  0.7024
  746MOL0     H  703  10.528   9.160   2.916  2.6103 -0.1468 -2.1885
  746MOL0     H  704  10.597   9.381   2.816 -2.5829  0.9077 -2.9326
  746MOL0     H  705  10.426   9.391   2.858  0.9501 -2.5257 -2.4200
  746MOL0     H  706  10.662   9.686   3.064  0.6339 -0.7414 -1.7283
  746MOL0     H  707  10.794   9.215   2.526 -0.9210  0.0149  0.7567
  746MOL0     H  708  10.995   9.262   2.337  0.2617  1.2863 -3.3480
  746MOL0     H  709  10.849   9.376   2.353  0.4952  0.9142  2.0381
  746MOL0     H  710  11.000   9.444   2.324 -2.2164  1.0832 -0.8323
  747MOL0     O  711  10.006   4.215   8.786  0.1689  0.0040  0.9951
  747MOL0     C  712   9.930   4.309   8.736 -0.4074  0.4423  0.4225
  747MOL0     O  713   9.973   4.447   8.726 -0.0871  0.1968  0.1687
  747MOL0     C  714  10.101   4.491   8.741  0.1371 -0.4725  0.2116
  747MOL0     C  715  10.122   4.632   8.764 -0.4278 -0.2924  0.5746
  747MOL0     C  716  10.247   4.676   8.777 -0.8389 -1.1169  0.3747
  747MOL0     C  717  10.357   4.595   8.757  0.4404  0.4408  0.0790
  747MOL0     O  718  10.487   4.633   8.766 -0.3531 -0.5460 -0.1220
  747MOL0     C  719  10.556   4.672   8.646 -0.7367  0.2179  0.7409
  747MOL0     C  720  10.688   4.583   8.635 -0.0194 -0.4020 -0.1829
  747MOL0     C  721  10.775   4.604   8.758  0.0298 -0.4265  0.0059
  747MOL0     C  722  10.843   4.747   8.767  0.6990 -0.5379 -0.5184
  747MOL0     C  723  10.967   4.744   8.864  0.1325  0.0774 -1.1653
  747MOL0     C  724  10.925   4.696   9.013  0.4005 -0.0580  0.0923
  747MOL0     C  725  11.023   4.758   9.103 -0.1403 -0.0748 -0.1764
  747MOL0     C  726  11.000   4.910   9.126  1.2878  0.1047 -0.0181
  747MOL0     N  727  11.111   4.996   9.102 -0.2556  0.7856  0.7134
  747MOL0     C  728  11.240   4.973   9.153 -0.0671  0.3328 -0.3188
  747MOL0     C  729  11.312   5.085   9.124  0.6293 -0.5465 -0.6459
  747MOL0     C  730  11.461   5.090   9.153 -0.0422  0.0760 -0.6144
  747MOL0     C  731  11.490   5.194   9.259  0.0149 -0.4708 -0.4976
  747MOL0     C  732  11.509   5.333   9.217  0.6415 -0.8406  0.3264
  747MOL0     C  733  11.559   5.435   9.327 -0.9282  0.1047  0.3953
  747MOL0     O  734  11.706   5.420   9.332  0.4787 -0.4521  0.3409
  747MOL0     C  735  11.775   5.526   9.381 -0.2962  0.6146  0.3460
  747MOL0     C  736  11.719   5.646   9.417  0.3897  0.2162  0.3209
  747MOL0     C  737  11.792   5.752   9.465  0.1951 -0.5324  0.8702
  747MOL0     C  738  11.932   5.738   9.469 -1.3124 -0.3947  0.3196
  747MOL0     C  739  12.014   5.847   9.517 -0.3426 -0.0498  0.1077
  747MOL0     O  740  12.154   5.827   9.528  0.5541 -0.1685 -0.5721
  747MOL0     C  741  12.247   5.913   9.575 -0.6063 -0.9604  0.1255
  747MOL0     C  742  12.229   6.017   9.661 -0.1269 -0.3839 -0.3863
  747MOL0     C  743  12.339   6.090   9.716  0.3708  0.7062 -0.0823
  747MOL0     C  744  12.465   6.063   9.676  0.6460  0.3681  0.1019
  747MOL0     O  745  12.570   6.128   9.730 -0.0639 -0.4306  0.0157
  747MOL0     C  746  12.679   6.152   9.652 -0.2183  0.7835 -0.5776
  747MOL0     C  747  12.782   6.229   9.745  0.0381  0.0593  0.3412
  747MOL0     C  748  12.817   6.161   9.877 -0.2263 -0.0601 -0.0452
  747MOL0     C  749  12.912   6.261   9.950  0.4661  0.4606 -0.0952
  747MOL0     C  750  13.036   6.304   9.867  0.1372 -0.0887 -1.0003
  747MOL0     C  751  13.148   6.355   9.958 -0.8609 -0.4058  0.4774
  747MOL0     C  752  13.286   6.368   9.887  0.0344 -0.0108 -0.7696
  747MOL0     C  753  13.398   6.357  10.004 -0.5182  0.0829 -0.0826
  747MOL0    Cl  754  13.352   6.465  10.145  0.2272  0.1153 -0.2531
  747MOL0     C  755  12.486   5.970   9.578  0.2643 -0.2085  0.2560
  747MOL0     C  756  12.382   5.891   9.542  0.0170  0.3538  0.4999
  747MOL0     O  757  11.951   5.949   9.541 -0.5988 -0.2847 -0.0136
  747MOL0     C  758  11.988   5.605   9.436  0.0010 -0.1446  0.2603
  747MOL0     C  759  11.912   5.496   9.405  2.2096 -0.5659 -0.2055
  747MOL0     N  760  11.228   5.167   9.040 -0.1155  0.8275 -0.1302
  747MOL0     N  761  11.108   5.109   9.036  0.1188 -0.9617  0.1300
  747MOL0     C  762  10.339   4.458   8.730  0.9631  0.3725 -0.0907
  747MOL0     C  763  10.208   4.413   8.717 -0.1348  0.9739 -0.5232
  747MOL0     C  764   9.797   4.262   8.679 -0.4800  0.2291  0.1601
  747MOL0     C  765   9.761   4.134   8.696 -0.2084 -0.1852 -0.7122
  747MOL0     C  766   9.643   4.080   8.650 -0.7182 -0.1210  0.8853
  747MOL0     C  767   9.552   4.159   8.588  0.3604  0.2554 -0.3593
  747MOL0     O  768   9.427   4.102   8.557 -0.4001 -0.4199 -0.6329
  747MOL0     C  769   9.352   4.167   8.455 -0.2288 -0.0233 -0.9046
  747MOL0     C  770   9.222   4.085   8.418  0.7451 -0.2286 -0.2651
  747MOL0     C  771   9.094   4.170   8.401  0.0627 -0.5459 -0.7846
  747MOL0     C  772   9.067   4.213   8.247 -0.2985  0.4796  0.1312
  747MOL0     C  773   9.179   4.303   8.194 -0.1856 -0.2719  0.2679
  747MOL0     C  774   9.265   4.384   8.159 -0.1482  0.2613  0.4746
  747MOL0     C  775   9.585   4.295   8.574  0.2107  0.3409  0.8414
  747MOL0     C  776   9.708   4.350   8.609  0.2155  0.3057  0.2852
  747MOL0     C  777   9.733   4.495   8.582 -0.3314  0.4379 -0.0017
  747MOL0     H  778  10.050   4.710   8.785  2.2840  1.5843  4.0965
  747MOL0     H  779  10.267   4.782   8.787 -2.7208 -0.4914 -1.7284
  747MOL0     H  780  10.489   4.638   8.566  0.2147  0.9664 -0.3959
  747MOL0     H  781  10.576   4.779   8.646  1.4302 -0.1375  1.9341
  747MOL0     H  782  10.735   4.611   8.540 -2.2679 -1.5221 -1.7143
  747MOL0     H  783  10.662   4.476   8.633 -2.8942  0.0887  2.8490
  747MOL0     H  784  10.859   4.535   8.765  0.5289  0.2215  0.4690
  747MOL0     H  785  10.719   4.585   8.850  0.0837  1.1652  0.3958
  747MOL0     H  786  10.870   4.761   8.662 -0.4910  0.9323 -0.6606
  747MOL0     H  787  10.768   4.821   8.797 -0.1162 -1.3942 -0.4022
  747MOL0     H  788  11.046   4.678   8.828  0.6784 -1.0746  1.8371
  747MOL0     H  789  10.996   4.849   8.859 -1.1188  0.5670  0.7689
  747MOL0     H  790  10.826   4.727   9.045  1.1923  0.8928  1.7289
  747MOL0     H  791  10.936   4.587   9.022  0.3676  0.0574  1.8121
  747MOL0     H  792  11.127   4.754   9.070 -0.4540  1.6183 -1.5346
  747MOL0     H  793  11.021   4.713   9.202  3.4866  2.1174  1.0964
  747MOL0     H  794  10.914   4.934   9.062 -1.7277 -7.0370  0.4152
  747MOL0     H  795  10.954   4.927   9.223 -0.9757 -1.9124 -0.6330
  747MOL0     H  796  11.266   4.883   9.207 -0.8138 -0.3995 -1.1433
  747MOL0     H  797  11.499   4.997   9.196  0.3516  1.1994  1.6727
  747MOL0     H  798  11.506   5.122   9.059 -1.8308  1.0162 -1.1884
  747MOL0     H  799  11.406   5.198   9.329  2.9363 -1.1667  3.3786
  747MOL0     H  800  11.572   5.160   9.323 -0.6519  1.1702  1.3345
  747MOL0     H  801  11.413   5.369   9.179  1.6363  0.5608 -0.9509
  747MOL0     H  802  11.587   5.336   9.140 -1.2161  0.8100 -1.6247
  747MOL0     H  803  11.497   5.413   9.414 -0.4546 -0.6254  0.5588
  747MOL0     H  804  11.536   5.535   9.289  1.5211  1.1646  1.5394
  747MOL0     H  805  11.617   5.676   9.396  1.0149  1.7329 -0.7508
  747MOL0     H  806  11.737   5.845   9.479 -1.0494 -0.9464 -0.8976
  747MOL0     H  807  12.134   6.042   9.708 -0.5198 -1.0925 -0.7944
  747MOL0     H  808  12.327   6.170   9.789  1.2205 -0.2343  1.1383
  747MOL0     H  809  12.719   6.062   9.604 -3.5260 -0.7297 -0.7914
  747MOL0     H  810  12.642   6.206   9.564 -1.0156 -1.6537 -1.8136
  747MOL0     H  811  12.867   6.260   9.684  0.2411 -1.4796 -0.2092
  747MOL0     H  812  12.716   6.313   9.768  2.4915  2.5663 -1.2095
  747MOL0     H  813  12.727   6.142   9.936  0.4484 -1.9514  0.4382
  747MOL0     H  814  12.857   6.059   9.868 -1.4808 -0.6590  0.8604
  747MOL0     H  815  12.956   6.202  10.031 -0.2949 -0.5645 -0.4080
  747MOL0     H  816  12.860   6.352   9.981  1.3791  1.5762 -1.7114
  747MOL0     H  817  13.003   6.382   9.798 -1.2751 -1.7380 -2.2731
  747MOL0     H  818  13.076   6.215   9.818  2.5141  0.4442 -0.2027
  747MOL0     H  819  13.112   6.445  10.010  0.2133  0.1387  0.2961
  747MOL0     H  820  13.158   6.272  10.029 -1.3390  0.2669  1.3535
  747MOL0     H  821  13.299   6.465   9.839 -1.6785  0.8973  0.4952
  747MOL0     H  822  13.308   6.299   9.806 -0.0800  0.2886 -1.0582
  747MOL0     H  823  13.403   6.252  10.033 -0.8583  0.1035  0.0560
  747MOL0     H  824  13.497   6.384   9.967 -0.5200  0.2248  0.0188
  747MOL0     H  825  12.582   5.940   9.535  0.5734  3.0737 -1.6441
  747MOL0     H  826  12.404   5.807   9.477  0.0861 -0.3854  1.4611
  747MOL0     H  827  12.093   5.576   9.437 -0.5145 -2.2669 -0.7683
  747MOL0     H  828  11.974   5.409   9.389  4.0718  0.7971 -0.6564
  747MOL0     H  829  10.424   4.392   8.715  1.5227  0.7551  1.2113
  747MOL0     H  830  10.199   4.310   8.684  0.8031  0.6744  0.1193
  747MOL0     H  831   9.835   4.062   8.729  1.0282  1.0642 -0.6653
  747MOL0     H  832   9.623   3.976   8.677 -0.9546 -0.5966 -1.0231
  747MOL0     H  833   9.403   4.173   8.358 -2.1391 -1.8013 -2.1040
  747MOL0     H  834   9.325   4.269   8.483  3.0148  0.2038  2.0459
  747MOL0     H  835   9.201   4.011   8.495  0.4475  1.1634  1.0481
  747MOL0     H  836   9.240   4.029   8.326  0.5055 -0.8777  0.0768
  747MOL0     H  837   9.107   4.270   8.443  2.4039  0.9129 -4.4642
  747MOL0     H  838   9.006   4.121   8.445  0.2894  2.2692  3.3649
  747MOL0     H  839   9.058   4.123   8.185  5.1147 -0.1325 -0.1944
  747MOL0     H  840   8.968   4.261   8.244 -0.1573  0.8116  0.6515
  747MOL0     H  841   9.340   4.458   8.138 -1.6284  1.6987  0.0722
  747MOL0     H  842   9.515   4.357   8.520  2.0717  0.5957 -1.4382
  747MOL0     H  843   9.764   4.555   8.667  0.4050  2.1487 -1.4164
  747MOL0     H  844   9.807   4.496   8.501 -0.9214 -0.6959 -0.5860
  747MOL0     H  845   9.644   4.543   8.539 -1.2106 -0.2487  1.0007
  748MOL0     O  846  10.864  11.183   7.039 -0.0679  1.1577 -0.2153
  748MOL0     C  847  10.774  11.110   6.992 -0.0544 -0.9983 -0.5513
  748MOL0     O  848  10.639  11.135   7.006 -0.2807  0.1153  0.4517
  748MOL0     C  849  10.600  11.245   7.070 -0.5138  0.1424  0.4227
  748MOL0     C  850  10.511  11.236   7.174 -0.8201  0.3995 -0.5281
  748MOL0     C  851  10.467  11.358   7.241 -0.2213  0.0660  0.1821
  748MOL0     C  852  10.523  11.483   7.208 -0.1645 -0.1723  0.3538
  748MOL0     O  853  10.497  11.595   7.274 -0.6227 -0.1155 -0.9081
  748MOL0     C  854  10.582  11.617   7.390 -0.2581  0.3268 -0.0770
  748MOL0     C  855  10.553  11.753   7.460 -0.7106  0.1594 -0.3707
  748MOL0     C  856  10.595  11.877   7.383 -0.0845 -0.2352  0.9308
  748MOL0     C  857  10.747  11.893   7.389 -0.0255 -0.0216  0.0077
  748MOL0     C  858  10.785  12.043   7.377  0.9282 -0.0203  0.6769
  748MOL0     C  859  10.745  12.107   7.247 -0.1013  0.3141 -0.2079
  748MOL0     C  860  10.830  12.234   7.222 -1.0758 -0.2672  0.2951
  748MOL0     C  861  10.835  12.284   7.073 -0.2742  0.2043 -1.2235
  748MOL0     N  862  10.894  12.424   7.055 -0.0367  0.5141 -0.6545
  748MOL0     C  863  11.016  12.455   7.003 -0.3187  0.4947 -0.0979
  748MOL0     C  864  11.029  12.581   7.026 -0.4148 -0.3327  0.0347
  748MOL0     C  865  11.137  12.667   6.976 -0.6648 -0.2378  0.0235
  748MOL0     C  866  11.286  12.634   7.029  0.2155 -0.4200 -0.3287
  748MOL0     C  867  11.343  12.508   6.964 -0.4430 -0.0039 -0.0203
  748MOL0     C  868  11.489  12.495   7.009 -0.4830 -0.1973  0.2500
  748MOL0     O  869  11.500  12.445   7.148  1.3907  0.8800 -0.3750
  748MOL0     C  870  11.619  12.415   7.210  0.9717  1.4823 -0.8285
  748MOL0     C  871  11.616  12.351   7.336 -0.1088 -0.2172  0.8078
  748MOL0     C  872  11.732  12.320   7.404 -0.6174  0.3055 -0.1853
  748MOL0     C  873  11.858  12.355   7.355  1.1062  0.0846  1.0567
  748MOL0     C  874  11.984  12.335   7.420  0.4488 -0.2700  1.6802
  748MOL0     O  875  12.096  12.310   7.328  0.5211 -0.2702 -0.0469
  748MOL0     C  876  12.211  12.286   7.404 -0.0971  1.0694  1.1941
  748MOL0     C  877  12.284  12.381   7.463  1.1221 -0.1918  0.1531
  748MOL0     C  878  12.389  12.346   7.540  0.1925 -0.5544  0.4684
  748MOL0     C  879  12.426  12.220   7.556 -0.3581  0.1409  0.8101
  748MOL0     O  880  12.545  12.195   7.622  0.0578 -0.8523 -0.2932
  748MOL0     C  881  12.605  12.060   7.630  0.0228  0.5487 -0.5721
  748MOL0     C  882  12.742  12.072   7.701 -0.0852 -0.4705 -1.2808
  748MOL0     C  883  12.829  11.945   7.717  0.0498 -0.8732  0.5520
  748MOL0     C  884  12.949  11.968   7.820  0.2747  0.1689 -0.7502
  748MOL0     C  885  13.081  11.904   7.789 -0.3633  0.0705  0.7437
  748MOL0     C  886  13.203  11.934   7.881 -1.0125  0.0248  0.3778
  748MOL0     C  887  13.326  11.860   7.821  0.3567  0.6808 -0.0052
  748MOL0     C  888  13.449  11.864   7.920 -0.1795  0.5104  0.6042
  748MOL0    Cl  889  13.524  12.027   7.931 -0.0037 -0.1681 -0.0600
  748MOL0     C  890  12.353  12.121   7.504 -0.0110 -0.4721 -0.0581
  748MOL0     C  891  12.239  12.152   7.424 -0.0174 -0.0695  0.3257
  748MOL0     O  892  11.991  12.345   7.537  0.9329  0.5567 -0.2927
  748MOL0     C  893  11.859  12.400   7.219  0.5943 -1.0250 -0.3596
  748MOL0     C  894  11.737  12.428   7.149  0.9156  0.1198  0.5508
  748MOL0     N  895  10.919  12.634   7.092  0.0807 -0.2841  0.2491
  748MOL0     N  896  10.841  12.531   7.118 -0.5267  0.0759 -0.7948
  748MOL0     C  897  10.618  11.485   7.104  0.8661  0.0083 -0.4953
  748MOL0     C  898  10.653  11.372   7.036  0.5197 -0.2873 -0.9181
  748MOL0     C  899  10.812  10.998   6.903  0.0277  0.8440  1.0369
  748MOL0     C  900  10.708  10.902   6.891  0.0409  0.5194  0.5060
  748MOL0     C  901  10.725  10.789   6.810  0.9761 -0.0686  0.1359
  748MOL0     C  902  10.854  10.759   6.753  0.5586  0.0872 -0.0609
  748MOL0     O  903  10.877  10.649   6.683  0.9739 -0.3221  0.1436
  748MOL0     C  904  10.781  10.540   6.663 -0.3841 -0.0814 -0.3074
  748MOL0     C  905  10.842  10.418   6.592  0.3446 -0.2511 -0.6454
  748MOL0     C  906  10.739  10.311   6.544  0.3087 -0.0836  0.0778
  748MOL0     C  907  10.806  10.179   6.510 -0.2502  0.0742 -0.8061
  748MOL0     C  908  10.916  10.200   6.420 -0.3996  0.2509 -0.1637
  748MOL0     C  909  11.012  10.224   6.345 -1.0196  0.4976 -0.1029
  748MOL0     C  910  10.954  10.852   6.772  0.0491 -0.6738 -0.0890
  748MOL0     C  911  10.937  10.976   6.842  0.3902  0.3934  0.8893
  748MOL0     C  912  11.056  11.066   6.841 -0.4475  0.4061 -0.1802
  748MOL0     H  913  10.470  11.142   7.209  1.0873 -0.6744 -1.0234
  748MOL0     H  914  10.405  11.347   7.329  1.3375 -2.6910  1.0694
  748MOL0     H  915  10.561  11.534   7.458 -0.6664  0.5418  0.0620
  748MOL0     H  916  10.689  11.617   7.369 -0.6820  0.3967 -2.5990
  748MOL0     H  917  10.611  11.754   7.554  0.6000  0.4847 -1.1552
  748MOL0     H  918  10.447  11.767   7.482 -0.8480  0.2237 -1.0655
  748MOL0     H  919  10.534  11.957   7.426 -0.6707 -0.3014  0.2388
  748MOL0     H  920  10.547  11.869   7.285  1.8216  0.3428 -0.1085
  748MOL0     H  921  10.777  11.855   7.487  2.4373 -2.4618 -1.5609
  748MOL0     H  922  10.789  11.837   7.305 -3.8172  0.2435 -2.3444
  748MOL0     H  923  10.746  12.099   7.463  0.2050  1.8324 -0.7699
  748MOL0     H  924  10.894  12.045   7.391  1.1086 -2.1673 -0.0905
  748MOL0     H  925  10.758  12.038   7.163  1.5417  0.3770 -0.0325
  748MOL0     H  926  10.638  12.120   7.265  0.0005 -1.8757  2.7691
  748MOL0     H  927  10.932  12.236   7.261 -1.7435 -0.3813  2.1770
  748MOL0     H  928  10.781  12.314   7.278 -1.2251 -0.6658  0.7514
  748MOL0     H  929  10.892  12.214   7.010  2.9542  0.2699  1.3191
  748MOL0     H  930  10.733  12.297   7.038 -0.3619 -0.4857 -1.2487
  748MOL0     H  931  11.086  12.386   6.957 -1.0196  1.5231 -2.8727
  748MOL0     H  932  11.133  12.664   6.866 -0.0416 -0.7281  0.0046
  748MOL0     H  933  11.119  12.770   7.007 -1.4014 -0.7331  1.2842
  748MOL0     H  934  11.360  12.715   7.028  1.8221 -1.7914 -2.1040
  748MOL0     H  935  11.278  12.607   7.134  0.0026  1.0377  0.0584
  748MOL0     H  936  11.332  12.502   6.856  0.0945 -0.4215 -0.0507
  748MOL0     H  937  11.287  12.429   7.015  0.7625 -0.5597  0.4691
  748MOL0     H  938  11.532  12.595   7.001 -2.1301  0.8354  3.0052
  748MOL0     H  939  11.534  12.416   6.949  1.3841 -0.2931  1.7157
  748MOL0     H  940  11.522  12.305   7.367 -1.0020 -0.0113 -1.4193
  748MOL0     H  941  11.720  12.289   7.507 -3.0435  2.0307  0.1455
  748MOL0     H  942  12.255  12.486   7.464  0.2595 -0.3768 -1.6902
  748MOL0     H  943  12.455  12.419   7.586  1.5744 -2.5333  1.8124
  748MOL0     H  944  12.536  11.993   7.682  0.0621  0.9419  0.0024
  748MOL0     H  945  12.616  12.022   7.528  2.0621 -0.9131  0.1357
  748MOL0     H  946  12.803  12.150   7.655  3.4269 -1.0031  2.0436
  748MOL0     H  947  12.720  12.109   7.801  1.2321  1.8796 -1.7850
  748MOL0     H  948  12.775  11.854   7.745 -0.7440 -1.2682 -1.9560
  748MOL0     H  949  12.873  11.910   7.623 -1.0306  2.3347 -1.3046
  748MOL0     H  950  12.921  11.940   7.922  0.4888  1.4471 -0.3272
  748MOL0     H  951  12.966  12.076   7.825  2.7149 -0.1436 -1.3739
  748MOL0     H  952  13.106  11.947   7.691 -2.6894  3.3319  1.4405
  748MOL0     H  953  13.062  11.797   7.778  1.2430 -0.2569  0.8100
  748MOL0     H  954  13.213  12.043   7.890 -2.3548  0.0876  1.4608
  748MOL0     H  955  13.179  11.898   7.982 -0.9323 -1.8193 -0.2312
  748MOL0     H  956  13.361  11.908   7.729 -0.7897  0.6154 -0.4837
  748MOL0     H  957  13.310  11.753   7.806  2.2792  0.2916  0.4490
  748MOL0     H  958  13.422  11.825   8.018  0.5437 -1.4708  0.0611
  748MOL0     H  959  13.524  11.794   7.883  0.8674  0.7939  2.1168
  748MOL0     H  960  12.397  12.022   7.512  4.4560  1.2784 -0.5696
  748MOL0     H  961  12.178  12.069   7.388 -2.6598  1.3603  1.2676
  748MOL0     H  962  11.957  12.410   7.174  1.1150  0.0191  0.9403
  748MOL0     H  963  11.748  12.442   7.042  0.6215  1.7837  0.7187
  748MOL0     H  964  10.669  11.578   7.081  2.0925  0.0131  1.9230
  748MOL0     H  965  10.724  11.379   6.954 -0.7079 -0.9099 -2.0782
  748MOL0     H  966  10.617  10.913   6.948 -0.4696  0.0154 -0.1917
  748MOL0     H  967  10.639  10.726   6.792  0.9781  0.3937 -1.6234
  748MOL0     H  968  10.705  10.578   6.594 -0.5834 -0.0140 -0.0517
  748MOL0     H  969  10.728  10.508   6.753 -1.0071 -1.6531 -1.1854
  748MOL0     H  970  10.916  10.374   6.658  2.0697  2.0156 -0.9527
  748MOL0     H  971  10.897  10.463   6.509  5.0258  1.2907  2.8626
  748MOL0     H  972  10.681  10.329   6.453 -1.9104 -2.6512  0.8445
  748MOL0     H  973  10.660  10.292   6.617 -0.8326  2.3140 -0.4179
  748MOL0     H  974  10.855  10.146   6.601 -0.3163  1.6631 -0.1573
  748MOL0     H  975  10.735  10.106   6.470 -1.6115  1.6605 -1.4255
  748MOL0     H  976  11.071  10.250   6.260 -1.5172 -1.2570 -1.0167
  748MOL0     H  977  11.054  10.832   6.734 -0.0804 -0.0136 -0.7949
  748MOL0     H  978  11.086  11.054   6.946 -0.0768 -0.1803 -0.3494
  748MOL0     H  979  11.138  11.038   6.774  1.7318  1.5433  1.8231
  748MOL0     H  980  11.019  11.168   6.829  1.2649  1.3275  1.7558
  749MOL0     O  981   9.888   8.002   3.963 -0.0456 -0.1671 -0.5280
  749MOL0     C  982   9.944   7.928   3.889  0.4012  0.0968 -0.7290
  749MOL0     O  983  10.017   7.820   3.934  0.3216 -0.2485 -0.0286
  749MOL0     C  984  10.097   7.833   4.043 -0.1323  0.6892 -0.4626
  749MOL0     C  985  10.126   7.712   4.098  1.0247  0.0367 -0.5795
  749MOL0     C  986  10.215   7.697   4.199  0.3127  0.7314  0.0879
  749MOL0     C  987  10.282   7.802   4.249 -0.9712  0.3630  0.3570
  749MOL0     O  988  10.366   7.791   4.358 -0.1736  0.2861 -0.6019
  749MOL0     C  989  10.455   7.680   4.354 -0.5071 -0.4907  0.1023
  749MOL0     C  990  10.574   7.718   4.258 -0.5817  0.0375 -0.4420
  749MOL0     C  991  10.702   7.631   4.275  0.2642 -0.2900  0.0812
  749MOL0     C  992  10.826   7.675   4.187  0.0519 -0.0616  0.6645
  749MOL0     C  993  10.938   7.568   4.214 -0.0469  0.3441  0.7317
  749MOL0     C  994  11.076   7.609   4.161 -0.1145  0.4811 -0.2980
  749MOL0     C  995  11.199   7.528   4.216 -0.4077  0.5973 -0.0992
  749MOL0     C  996  11.171   7.382   4.239  0.6287  0.6714  0.1517
  749MOL0     N  997  11.278   7.302   4.182  0.5176 -0.2740  0.1189
  749MOL0     C  998  11.407   7.283   4.222  0.0657  0.2564 -0.3494
  749MOL0     C  999  11.462   7.204   4.132 -0.6410  0.3036 -0.1004
  749MOL0     C 1000  11.611   7.170   4.115  0.3041 -0.7683 -0.6108
  749MOL0     C 1001  11.646   7.035   4.183 -0.3620  0.0424 -0.3179
  749MOL0     C 1002  11.754   6.965   4.095  0.1594 -0.1514  0.7600
  749MOL0     C 1003  11.789   6.846   4.163 -0.5449 -0.3116  0.2444
  749MOL0     O 1004  11.895   6.779   4.082  0.1138  0.9164  0.1621
  749MOL0     C 1005  11.912   6.642   4.095 -0.3217 -0.4346  0.3082
  749MOL0     C 1006  11.974   6.579   3.987  0.2249 -0.1109  0.4380
  749MOL0     C 1007  11.991   6.439   3.982  1.0423  0.3307 -0.2750
  749MOL0     C 1008  11.945   6.357   4.087 -0.5006  0.4932 -1.3297
  749MOL0     C 1009  11.968   6.209   4.099 -0.6137 -0.3205  0.4253
  749MOL0     O 1010  11.918   6.133   4.204  0.4782 -0.3502 -0.4110
  749MOL0     C 1011  11.943   5.999   4.213 -0.4976 -0.0516 -0.2387
  749MOL0     C 1012  11.839   5.916   4.250  0.2595  0.0808  0.1577
  749MOL0     C 1013  11.868   5.778   4.270 -0.3006 -0.1490 -0.2138
  749MOL0     C 1014  12.002   5.728   4.251 -0.2253  0.9585 -0.0823
  749MOL0     O 1015  12.037   5.596   4.265 -0.4857  0.2214  0.3526
  749MOL0     C 1016  12.082   5.521   4.152  0.5711  0.2497 -0.3183
  749MOL0     C 1017  12.116   5.383   4.191  0.2521  0.1170 -0.4181
  749MOL0     C 1018  12.200   5.373   4.310 -0.4040  0.2476  1.0147
  749MOL0     C 1019  12.331   5.454   4.300  0.0864 -0.4996 -0.2773
  749MOL0     C 1020  12.430   5.434   4.410  0.9491 -0.5788 -0.0925
  749MOL0     C 1021  12.490   5.296   4.394  0.0396 -0.2594 -0.3665
  749MOL0     C 1022  12.608   5.270   4.485 -0.0084 -0.3947  0.1204
  749MOL0     C 1023  12.719   5.363   4.458 -0.9481 -0.6262  0.6856
  749MOL0    Cl 1024  12.851   5.321   4.562  0.3545 -0.0430  0.2260
  749MOL0     C 1025  12.100   5.819   4.206  0.0665 -0.0076  1.1173
  749MOL0     C 1026  12.073   5.951   4.192 -0.1559  0.1277 -0.5053
  749MOL0     O 1027  12.036   6.163   4.006 -0.1491 -0.3340 -0.4782
  749MOL0     C 1028  11.869   6.419   4.190 -0.7918  0.6390 -0.1862
  749MOL0     C 1029  11.855   6.561   4.200 -1.0480 -0.0913 -0.1088
  749MOL0     N 1030  11.370   7.175   4.046 -0.5357 -0.8349 -0.1276
  749MOL0     N 1031  11.261   7.218   4.075 -0.0491  0.7888  0.2704
  749MOL0     C 1032  10.268   7.924   4.182 -0.5795  0.0394  0.4986
  749MOL0     C 1033  10.166   7.944   4.092 -0.1118 -0.7861 -0.2861
  749MOL0     C 1034   9.939   7.959   3.748  0.7859 -0.8877  0.4169
  749MOL0     C 1035   9.828   8.023   3.695 -0.0591 -0.0951 -0.0867
  749MOL0     C 1036   9.819   8.065   3.565  0.1779  0.0161  0.3749
  749MOL0     C 1037   9.925   8.046   3.479  0.0660  0.4737 -0.3713
  749MOL0     O 1038   9.910   8.097   3.358  0.5733  0.4392 -0.5050
  749MOL0     C 1039  10.034   8.123   3.297  0.0915 -0.2453 -1.1377
  749MOL0     C 1040  10.001   8.213   3.176  0.1861 -0.2481  0.5427
  749MOL0     C 1041   9.904   8.136   3.082 -0.5087  0.1795 -0.5162
  749MOL0     C 1042   9.859   8.214   2.955  0.1823  0.2417 -0.1895
  749MOL0     C 1043   9.783   8.335   2.990 -0.2133 -0.6343 -0.2805
  749MOL0     C 1044   9.717   8.436   3.031 -0.1347 -0.6666  0.0488
  749MOL0     C 1045  10.035   7.970   3.531 -0.2216  1.0259  0.1501
  749MOL0     C 1046  10.043   7.927   3.659 -0.1685  0.5714 -0.1828
  749MOL0     C 1047  10.167   7.853   3.709  0.0495  0.0591  0.3674
  749MOL0     H 1048  10.075   7.624   4.060 -1.4242 -0.1081  2.6249
  749MOL0     H 1049  10.233   7.607   4.257  0.0988  0.2091 -0.6432
  749MOL0     H 1050  10.501   7.655   4.450  0.0859 -2.5204 -0.6738
  749MOL0     H 1051  10.408   7.587   4.321 -1.2487 -0.1356  0.1310
  749MOL0     H 1052  10.606   7.821   4.279  0.3578 -0.0456 -1.3497
  749MOL0     H 1053  10.547   7.708   4.152  0.0170 -1.2746 -0.4880
  749MOL0     H 1054  10.683   7.523   4.273  0.0101 -0.2382 -0.3026
  749MOL0     H 1055  10.735   7.647   4.378 -0.3893  1.6033  0.0239
  749MOL0     H 1056  10.798   7.695   4.083 -0.2566  3.1903  1.2399
  749MOL0     H 1057  10.850   7.775   4.224 -0.3341 -0.1283  1.1111
  749MOL0     H 1058  10.966   7.545   4.318  2.6397  1.2756  0.3106
  749MOL0     H 1059  10.911   7.474   4.166 -0.2067  1.6627 -1.9336
  749MOL0     H 1060  11.071   7.595   4.053  1.0065  0.9366 -0.4192
  749MOL0     H 1061  11.095   7.713   4.188 -0.5738  0.0305  2.0167
  749MOL0     H 1062  11.236   7.572   4.309 -1.4668  2.3187 -0.4584
  749MOL0     H 1063  11.283   7.536   4.146 -0.2071 -0.8754 -0.0574
  749MOL0     H 1064  11.163   7.357   4.346  2.9307  1.8645  0.6716
  749MOL0     H 1065  11.076   7.349   4.197  1.7951 -0.1583 -1.9458
  749MOL0     H 1066  11.456   7.330   4.307  0.8732 -0.5418 -0.3597
  749MOL0     H 1067  11.648   7.181   4.013 -0.3565 -0.6285 -0.8329
  749MOL0     H 1068  11.659   7.251   4.171 -2.2540  0.4915 -0.1204
  749MOL0     H 1069  11.693   7.060   4.278 -0.9404  2.9877 -0.6938
  749MOL0     H 1070  11.565   6.966   4.211 -0.3807  0.5387  0.9101
  749MOL0     H 1071  11.842   7.031   4.088 -0.5539  1.1920  3.3195
  749MOL0     H 1072  11.708   6.954   3.996 -0.2693  2.9394  0.5189
  749MOL0     H 1073  11.700   6.784   4.178 -1.8387  1.6995  1.3188
  749MOL0     H 1074  11.835   6.863   4.261  0.2992 -2.9560  0.3980
  749MOL0     H 1075  12.022   6.635   3.907  2.4760 -3.8744 -1.1364
  749MOL0     H 1076  12.053   6.400   3.901 -2.5114 -0.6258 -2.7995
  749MOL0     H 1077  11.742   5.957   4.274 -0.3720 -1.2150 -0.1083
  749MOL0     H 1078  11.786   5.712   4.298 -0.7513 -0.3220 -1.8474
  749MOL0     H 1079  12.006   5.522   4.074  2.5276 -1.8381 -2.3742
  749MOL0     H 1080  12.170   5.569   4.108  0.5321  0.1568 -0.4971
  749MOL0     H 1081  12.021   5.334   4.211  0.7018 -0.3413  0.6757
  749MOL0     H 1082  12.170   5.337   4.108 -0.9485  0.6896 -1.5323
  749MOL0     H 1083  12.138   5.411   4.392 -0.7172  0.4780  0.6756
  749MOL0     H 1084  12.227   5.269   4.326 -0.6684 -0.0279 -0.2440
  749MOL0     H 1085  12.305   5.560   4.301 -1.8153 -0.9362 -0.9097
  749MOL0     H 1086  12.377   5.432   4.203  0.1415  0.3083 -0.4390
  749MOL0     H 1087  12.381   5.440   4.508  0.4091  2.4251 -0.4286
  749MOL0     H 1088  12.496   5.521   4.400 -2.2524  1.9076 -1.4377
  749MOL0     H 1089  12.414   5.225   4.429 -1.8206  1.1501 -1.3934
  749MOL0     H 1090  12.523   5.276   4.292  2.7144  1.3594  0.0978
  749MOL0     H 1091  12.648   5.168   4.478  1.6975  0.0805  2.1321
  749MOL0     H 1092  12.563   5.278   4.585 -1.3873 -0.9036 -0.4257
  749MOL0     H 1093  12.756   5.359   4.355 -0.7273 -0.7090  0.7675
  749MOL0     H 1094  12.689   5.464   4.489  1.8305  0.2378  0.8752
  749MOL0     H 1095  12.205   5.801   4.190  0.3698  2.1814  0.3337
  749MOL0     H 1096  12.153   6.012   4.152  0.2747 -1.4131 -2.1352
  749MOL0     H 1097  11.824   6.363   4.272  2.6511 -0.6984  0.9965
  749MOL0     H 1098  11.801   6.616   4.276  0.5008 -0.2040  1.1294
  749MOL0     H 1099  10.323   8.010   4.219  2.6488 -2.1891  1.3201
  749MOL0     H 1100  10.133   8.045   4.069  1.0397  0.2466  2.2117
  749MOL0     H 1101   9.760   8.058   3.772  0.0871  0.2560 -0.1164
  749MOL0     H 1102   9.736   8.130   3.539  1.7171  1.4217 -1.3485
  749MOL0     H 1103  10.083   8.031   3.264  2.6212  0.5242  0.1658
  749MOL0     H 1104  10.097   8.175   3.369 -1.1078 -1.9796  1.3158
  749MOL0     H 1105  10.093   8.228   3.119 -0.2680 -0.9606 -0.3994
  749MOL0     H 1106   9.962   8.309   3.211 -0.6521 -0.4545  0.1849
  749MOL0     H 1107   9.817   8.092   3.130 -1.0897  0.4404 -1.2999
  749MOL0     H 1108   9.967   8.056   3.041  0.6917  1.9813 -2.4297
  749MOL0     H 1109   9.944   8.235   2.891  0.2385  0.3202 -0.0894
  749MOL0     H 1110   9.799   8.149   2.891 -2.7382  1.0795  1.5071
  749MOL0     H 1111   9.675   8.522   3.079 -0.6692  0.8762 -3.0029
  749MOL0     H 1112  10.110   7.947   3.456 -4.1639 -0.0519 -3.9126
  749MOL0     H 1113  10.194   7.892   3.807  2.4610 -1.0574  0.2367
  749MOL0     H 1114  10.138   7.748   3.718 -2.3501  0.7473  1.3627
  749MOL0     H 1115  10.248   7.870   3.637  1.1932 -1.4876  1.2348
  750MOL0     O 1116   7.343   3.156   3.131 -0.4027 -0.3171  0.1458
  750MOL0     C 1117   7.251   3.125   3.051  0.1658 -0.3346  0.3371
  750MOL0     O 1118   7.279   3.046   2.941  1.2924  0.0478 -0.6085
  750MOL0     C 1119   7.399   2.977   2.926 -0.2886 -1.0238 -1.1672
  750MOL0     C 1120   7.441   2.893   3.025 -0.6816  0.1143 -0.5251
  750MOL0     C 1121   7.550   2.814   2.995  0.2136 -0.7187  0.5315
  750MOL0     C 1122   7.611   2.820   2.871 -0.4925  0.2616  0.5603
  750MOL0     O 1123   7.725   2.746   2.830  0.2701 -0.3648 -0.1813
  750MOL0     C 1124   7.779   2.653   2.930 -0.1600 -0.7943  0.8035
  750MOL0     C 1125   7.879   2.560   2.847  0.0452 -0.4115  0.2073
  750MOL0     C 1126   7.818   2.460   2.744  0.0858 -0.8000 -0.1111
  750MOL0     C 1127   7.927   2.369   2.693 -0.1658 -0.3463  0.5411
  750MOL0     C 1128   7.991   2.419   2.559  0.1640 -0.1183  0.0843
  750MOL0     C 1129   8.117   2.343   2.535  0.5403 -0.4836  0.6070
  750MOL0     C 1130   8.167   2.399   2.403  0.3294  0.7679  0.6104
  750MOL0     C 1131   8.305   2.341   2.360  0.3514 -1.0229  0.1277
  750MOL0     N 1132   8.369   2.419   2.255 -0.7635 -0.6373 -0.6537
  750MOL0     C 1133   8.492   2.495   2.273 -0.2852 -0.1914 -1.3524
  750MOL0     C 1134   8.506   2.558   2.153  0.7391  0.7856 -0.5479
  750MOL0     C 1135   8.627   2.646   2.115 -0.4616 -0.1744  0.1021
  750MOL0     C 1136   8.766   2.566   2.140 -0.1903  0.1544 -0.2681
  750MOL0     C 1137   8.838   2.606   2.263 -0.0231  0.3675 -0.5033
  750MOL0     C 1138   8.881   2.757   2.253 -0.2245  0.4424  0.0907
  750MOL0     O 1139   9.030   2.758   2.241 -0.3709 -0.5561  0.4539
  750MOL0     C 1140   9.104   2.769   2.354  0.7780  0.5436  0.3506
  750MOL0     C 1141   9.232   2.820   2.351  0.7339 -0.7189 -0.2950
  750MOL0     C 1142   9.308   2.824   2.465 -0.3594 -0.5046 -0.1054
  750MOL0     C 1143   9.253   2.787   2.589  0.0486 -1.0333  0.1514
  750MOL0     C 1144   9.335   2.807   2.714  0.4429  0.2165  0.8445
  750MOL0     O 1145   9.456   2.755   2.705 -0.1743 -0.0262  0.2913
  750MOL0     C 1146   9.531   2.742   2.821 -0.4997  0.5799  0.2302
  750MOL0     C 1147   9.479   2.707   2.955 -0.3500 -1.3479  0.7513
  750MOL0     C 1148   9.563   2.661   3.061 -0.6670  0.1821  0.8007
  750MOL0     C 1149   9.708   2.671   3.038  0.7472 -0.2968 -1.1604
  750MOL0     O 1150   9.798   2.653   3.140  0.4424  0.7220 -0.4575
  750MOL0     C 1151   9.749   2.644   3.269 -0.1596 -0.6567 -1.2534
  750MOL0     C 1152   9.881   2.628   3.349 -0.6615  0.3256  0.5383
  750MOL0     C 1153   9.849   2.593   3.490  0.4105 -0.6483 -0.6332
  750MOL0     C 1154   9.975   2.600   3.587 -0.2731 -0.2329 -0.3735
  750MOL0     C 1155   9.955   2.549   3.727  0.0390 -0.1468  0.5271
  750MOL0     C 1156  10.084   2.583   3.802 -0.4232 -0.2551 -0.1714
  750MOL0     C 1157  10.057   2.600   3.955 -0.0303 -1.1807  0.5523
  750MOL0     C 1158   9.980   2.736   3.982  0.1743 -0.0601 -0.3312
  750MOL0    Cl 1159   9.965   2.735   4.162 -0.2263 -0.0041  0.4426
  750MOL0     C 1160   9.756   2.714   2.915  1.3062 -1.0438 -0.0446
  750MOL0     C 1161   9.667   2.740   2.810 -0.0513 -0.1531  0.6108
  750MOL0     O 1162   9.297   2.892   2.797 -0.6643  0.1080  0.3615
  750MOL0     C 1163   9.122   2.750   2.603 -0.0073  0.0968  0.1594
  750MOL0     C 1164   9.049   2.735   2.484  0.3359 -0.4631 -0.5398
  750MOL0     N 1165   8.394   2.523   2.073 -0.1653 -0.5902  0.1036
  750MOL0     N 1166   8.325   2.441   2.132 -0.1872 -0.2952  0.0612
  750MOL0     C 1167   7.582   2.918   2.783 -0.0781 -0.8058 -0.1361
  750MOL0     C 1168   7.466   2.993   2.806 -0.4133 -0.1951  0.0967
  750MOL0     C 1169   7.112   3.170   3.052  0.1746 -0.7282 -0.0779
  750MOL0     C 1170   7.020   3.073   3.004 -0.2873  0.0642 -0.0578
  750MOL0     C 1171   6.885   3.094   2.990  0.6287  0.5733 -0.1833
  750MOL0     C 1172   6.833   3.213   3.032  0.0873 -0.1898 -0.2756
  750MOL0     O 1173   6.703   3.242   3.016  1.1030  0.2565  0.2394
  750MOL0     C 1174   6.645   3.373   2.986  1.0080  0.1321  0.0679
  750MOL0     C 1175   6.709   3.448   2.867  0.8313  0.5688 -0.4958
  750MOL0     C 1176   6.711   3.361   2.745 -0.1037  0.3162 -0.3566
  750MOL0     C 1177   6.739   3.436   2.608 -0.1497 -0.5787 -0.2325
  750MOL0     C 1178   6.769   3.342   2.499  0.4547  0.4815 -0.1750
  750MOL0     C 1179   6.786   3.260   2.412  0.9297  0.5627  0.0089
  750MOL0     C 1180   6.923   3.310   3.081 -0.5768  0.1160  0.3723
  750MOL0     C 1181   7.060   3.293   3.096  0.0512 -0.5218  0.7241
  750MOL0     C 1182   7.158   3.403   3.128  0.1670  0.0867 -0.2176
  750MOL0     H 1183   7.387   2.873   3.117 -0.3353 -5.1914 -1.2172
  750MOL0     H 1184   7.580   2.762   3.085 -0.0876  1.1758  1.7930
  750MOL0     H 1185   7.833   2.709   3.007  1.5521  0.6888 -1.3595
  750MOL0     H 1186   7.700   2.585   2.962  0.6925 -1.2618  1.9952
  750MOL0     H 1187   7.929   2.489   2.912  1.4396 -1.8821 -2.3019
  750MOL0     H 1188   7.950   2.625   2.794 -2.1175 -0.1916 -2.6499
  750MOL0     H 1189   7.788   2.507   2.650 -0.6791 -2.8526 -0.9666
  750MOL0     H 1190   7.726   2.420   2.788 -0.2589 -0.7466 -0.7718
  750MOL0     H 1191   8.008   2.339   2.760  2.2799 -1.8760 -2.8299
  750MOL0     H 1192   7.890   2.270   2.668  1.0472 -0.5784 -0.4352
  750MOL0     H 1193   7.921   2.401   2.476 -0.9315  2.3161  0.3868
  750MOL0     H 1194   7.997   2.528   2.553  3.6085 -0.1535  0.8668
  750MOL0     H 1195   8.187   2.368   2.615 -0.6132 -0.3948  1.6356
  750MOL0     H 1196   8.090   2.237   2.530 -1.2399 -0.1814  2.4467
  750MOL0     H 1197   8.173   2.509   2.397 -0.3702  0.7841  0.0328
  750MOL0     H 1198   8.101   2.379   2.318  1.4988  0.8272 -0.3408
  750MOL0     H 1199   8.369   2.338   2.449 -0.6752  3.3169  1.2390
  750MOL0     H 1200   8.299   2.234   2.338  1.0850 -1.8174  3.1988
  750MOL0     H 1201   8.557   2.503   2.359 -1.1383 -4.2687 -0.1186
  750MOL0     H 1202   8.628   2.684   2.013  1.7836 -3.6530 -1.3377
  750MOL0     H 1203   8.629   2.735   2.180 -2.9913  3.2273 -3.9328
  750MOL0     H 1204   8.743   2.460   2.146  0.2234  0.1525  2.4820
  750MOL0     H 1205   8.828   2.569   2.050 -0.9528  0.7362 -0.7884
  750MOL0     H 1206   8.933   2.552   2.276  0.6905  1.1789 -2.0370
  750MOL0     H 1207   8.775   2.592   2.351 -0.0353  0.2709 -0.5269
  750MOL0     H 1208   8.849   2.815   2.339 -1.3066  0.6030 -0.4030
  750MOL0     H 1209   8.849   2.803   2.159  1.9197  2.5976  0.3277
  750MOL0     H 1210   9.267   2.867   2.260  2.7945 -1.6277 -0.0356
  750MOL0     H 1211   9.408   2.865   2.454 -0.7816 -0.2299 -6.1457
  750MOL0     H 1212   9.374   2.709   2.981 -0.6513 -0.4990 -0.4736
  750MOL0     H 1213   9.524   2.650   3.161  0.8326 -3.4561  1.1560
  750MOL0     H 1214   9.696   2.733   3.306 -0.7266 -0.4967 -2.4007
  750MOL0     H 1215   9.687   2.555   3.281  3.2251 -2.7936  3.2600
  750MOL0     H 1216   9.929   2.547   3.294 -1.7819  0.8624 -1.3415
  750MOL0     H 1217   9.947   2.715   3.338  0.9881 -1.0191 -0.7742
  750MOL0     H 1218   9.783   2.675   3.520  1.7302 -0.0124  0.7231
  750MOL0     H 1219   9.789   2.503   3.505  1.5181 -1.4066 -0.6443
  750MOL0     H 1220  10.000   2.706   3.577 -2.2357  0.1086 -2.3354
  750MOL0     H 1221  10.060   2.546   3.542  0.9855  0.0783  1.4847
  750MOL0     H 1222   9.936   2.442   3.733  0.1680 -0.2687 -0.8086
  750MOL0     H 1223   9.858   2.588   3.760 -2.6913 -2.8429 -3.4111
  750MOL0     H 1224  10.155   2.500   3.788 -0.3237 -0.0066 -1.2045
  750MOL0     H 1225  10.143   2.672   3.778  0.9164 -0.4437  2.1098
  750MOL0     H 1226  10.152   2.596   4.008  0.8797  1.4306 -0.6882
  750MOL0     H 1227  10.001   2.512   3.987  1.9105 -2.6932  0.0013
  750MOL0     H 1228  10.025   2.830   3.949 -2.4672  0.9623 -1.3055
  750MOL0     H 1229   9.877   2.730   3.947 -0.0057 -2.3789  0.4424
  750MOL0     H 1230   9.864   2.722   2.907  1.1240  1.6770 -0.9061
  750MOL0     H 1231   9.716   2.742   2.713 -0.9046 -1.4064  0.1303
  750MOL0     H 1232   9.074   2.722   2.696 -4.8789  1.1038 -1.7501
  750MOL0     H 1233   8.943   2.718   2.496  0.5676 -1.4974  0.2906
  750MOL0     H 1234   7.635   2.939   2.690 -0.1488  0.4609  0.0885
  750MOL0     H 1235   7.441   3.070   2.734 -0.8198 -1.2234 -0.8997
  750MOL0     H 1236   7.058   2.976   2.973  1.2655 -0.2617  2.6515
  750MOL0     H 1237   6.814   3.023   2.948  0.5592  0.6205 -0.1465
  750MOL0     H 1238   6.669   3.431   3.076 -2.5415 -1.7102  2.4646
  750MOL0     H 1239   6.537   3.370   2.968  0.9146  1.8250  0.1036
  750MOL0     H 1240   6.809   3.480   2.898  0.3162 -0.2942  2.3247
  750MOL0     H 1241   6.637   3.528   2.851 -1.7202 -0.6749  3.4075
  750MOL0     H 1242   6.624   3.295   2.737  1.4282 -1.6741 -1.9679
  750MOL0     H 1243   6.802   3.300   2.755 -0.7575 -0.9455 -1.6180
  750MOL0     H 1244   6.649   3.498   2.593  0.4129  0.5181  0.6983
  750MOL0     H 1245   6.827   3.501   2.608 -0.8031  0.3370 -0.2451
  750MOL0     H 1246   6.820   3.200   2.330  3.3801 -0.0353  1.3785
  750MOL0     H 1247   6.892   3.413   3.096  1.9999  1.0210  0.0706
  750MOL0     H 1248   7.251   3.382   3.075 -1.3387  0.3754 -3.1751
  750MOL0     H 1249   7.124   3.504   3.103  2.0174  1.5257  2.5394
  750MOL0     H 1250   7.175   3.402   3.236  2.3332  0.2619 -0.5233
  751MOL0     O 1251   0.318   8.434   6.847  0.5561  0.1655  0.1510
  751MOL0     C 1252   0.242   8.335   6.862  0.1831 -0.7168 -0.3556
  751MOL0     O 1253   0.284   8.210   6.868  0.4449 -0.0116  0.6368
  751MOL0     C 1254   0.391   8.176   6.800 -0.1192  0.2421  0.5227
  751MOL0     C 1255   0.473   8.075   6.859 -0.7964  0.8603  0.5255
  751MOL0     C 1256   0.595   8.035   6.797  0.1092  0.1896 -0.5076
  751MOL0     C 1257   0.635   8.091   6.683 -0.4418  1.2012 -0.5189
  751MOL0     O 1258   0.768   8.056   6.645  0.8236  0.3942  0.4816
  751MOL0     C 1259   0.873   8.043   6.744  0.1068  0.7283  0.0547
  751MOL0     C 1260   1.000   8.033   6.668 -0.5753  0.6926 -0.2033
  751MOL0     C 1261   1.068   8.171   6.636 -0.1831 -0.0619 -0.0413
  751MOL0     C 1262   1.151   8.226   6.756  0.1784 -0.5843  0.5557
  751MOL0     C 1263   1.227   8.342   6.705  0.5098 -0.1223 -0.3931
  751MOL0     C 1264   1.306   8.419   6.808  0.4386  0.6502  0.8790
  751MOL0     C 1265   1.388   8.530   6.737 -0.4834 -0.9928  0.5746
  751MOL0     C 1266   1.524   8.507   6.666 -0.0377  0.0657  0.7730
  751MOL0     N 1267   1.638   8.486   6.753  1.0924  0.4163 -0.5347
  751MOL0     C 1268   1.718   8.588   6.787  0.4219 -0.0832  0.5377
  751MOL0     C 1269   1.802   8.533   6.869 -0.5081 -0.4418 -0.1960
  751MOL0     C 1270   1.909   8.610   6.942  0.0791 -0.2118  0.3154
  751MOL0     C 1271   2.029   8.640   6.846 -0.7833 -0.3525 -0.2260
  751MOL0     C 1272   2.141   8.711   6.932 -0.2009 -0.0700  0.4986
  751MOL0     C 1273   2.276   8.707   6.857 -0.1434 -0.8443  0.8153
  751MOL0     O 1274   2.378   8.762   6.947 -0.4561  0.1955  0.0318
  751MOL0     C 1275   2.510   8.738   6.907 -0.8991  1.3412  0.4651
  751MOL0     C 1276   2.542   8.709   6.772 -0.5190  0.4829 -0.3289
  751MOL0     C 1277   2.671   8.696   6.723  0.3633 -0.1637  0.4699
  751MOL0     C 1278   2.776   8.747   6.800 -0.6464  0.2775  0.1119
  751MOL0     C 1279   2.915   8.736   6.755 -0.3375 -0.3656 -0.2305
  751MOL0     O 1280   2.940   8.655   6.647  0.0455 -0.0976  0.6046
  751MOL0     C 1281   3.075   8.626   6.632 -0.0129  0.4356  0.5040
  751MOL0     C 1282   3.129   8.529   6.713  0.3682 -0.2140  0.7055
  751MOL0     C 1283   3.267   8.505   6.719  0.4731 -0.2174  0.9293
  751MOL0     C 1284   3.349   8.557   6.618  0.3359  0.1119  0.6160
  751MOL0     O 1285   3.484   8.541   6.628 -0.6148  0.1380  0.4259
  751MOL0     C 1286   3.571   8.609   6.542 -0.2720 -0.1799  0.2873
  751MOL0     C 1287   3.718   8.608   6.586  0.0955  0.8109  0.6551
  751MOL0     C 1288   3.810   8.503   6.538  1.5661  0.4769  0.5789
  751MOL0     C 1289   3.952   8.537   6.579 -0.8306  0.2262 -0.2820
  751MOL0     C 1290   4.058   8.481   6.476  0.8701 -0.4263 -0.4876
  751MOL0     C 1291   4.196   8.489   6.531 -1.2283 -0.9258 -0.0307
  751MOL0     C 1292   4.287   8.422   6.429  0.5877 -0.0162  0.4984
  751MOL0     C 1293   4.432   8.451   6.473  0.3591 -0.7147 -0.0177
  751MOL0    Cl 1294   4.562   8.370   6.373 -0.0749 -0.1143 -0.1996
  751MOL0     C 1295   3.289   8.632   6.510  0.7738  0.5647 -0.7718
  751MOL0     C 1296   3.150   8.668   6.521  0.2159 -0.3357 -0.8821
  751MOL0     O 1297   2.997   8.799   6.827 -0.5282 -0.2284 -0.6001
  751MOL0     C 1298   2.756   8.777   6.938 -0.1565  0.7920 -0.1300
  751MOL0     C 1299   2.624   8.778   6.985  0.0488  1.2641 -0.1214
  751MOL0     N 1300   1.769   8.401   6.900  0.9499 -0.0182  0.2015
  751MOL0     N 1301   1.660   8.374   6.820 -0.4348  0.5803  0.2149
  751MOL0     C 1302   0.565   8.192   6.629  0.1876  0.2639  0.6259
  751MOL0     C 1303   0.443   8.227   6.677  0.6051  0.3910  0.2937
  751MOL0     C 1304   0.092   8.364   6.859  0.4787  0.9633 -0.0454
  751MOL0     C 1305   0.059   8.500   6.894 -0.8841 -0.9528 -0.4686
  751MOL0     C 1306  -0.076   8.528   6.924  1.3172  0.6604 -0.0423
  751MOL0     C 1307  -0.179   8.428   6.912 -0.6794  0.0418 -0.3324
  751MOL0     O 1308  -0.306   8.464   6.946 -0.0165 -0.3473 -0.0111
  751MOL0     C 1309  -0.408   8.364   6.937  0.0414 -0.0157 -0.4480
  751MOL0     C 1310  -0.538   8.424   6.980 -0.9096 -0.4708 -0.2984
  751MOL0     C 1311  -0.529   8.484   7.129  0.3920 -0.0268  0.7473
  751MOL0     C 1312  -0.498   8.383   7.239  0.1320  0.4182 -0.5278
  751MOL0     C 1313  -0.613   8.298   7.237  0.8529 -0.3398  0.0103
  751MOL0     C 1314  -0.708   8.223   7.243  0.1379  0.8134 -0.0773
  751MOL0     C 1315  -0.143   8.301   6.855  0.0179  0.0303  0.5764
  751MOL0     C 1316  -0.004   8.271   6.824 -0.1665 -0.1620  1.1347
  751MOL0     C 1317   0.028   8.130   6.781  0.6456  0.0859  0.4782
  751MOL0     H 1318   0.448   8.031   6.955  1.2330 -0.8381  0.3224
  751MOL0     H 1319   0.660   7.954   6.829  1.3053  0.5250 -1.9878
  751MOL0     H 1320   0.886   8.129   6.811 -1.1578  1.7471 -0.9658
  751MOL0     H 1321   0.867   7.947   6.796  1.7566 -0.7521 -2.2765
  751MOL0     H 1322   0.987   7.989   6.569 -0.7544 -1.0100  0.5363
  751MOL0     H 1323   1.059   7.961   6.726 -0.7764 -0.3821 -1.3063
  751MOL0     H 1324   0.998   8.250   6.607  0.8510 -0.1881 -3.1973
  751MOL0     H 1325   1.124   8.160   6.543 -0.3259 -1.7404  0.0391
  751MOL0     H 1326   1.071   8.270   6.817  0.0278  0.6292 -0.4787
  751MOL0     H 1327   1.205   8.149   6.812 -2.8971 -2.3511  1.3044
  751MOL0     H 1328   1.303   8.301   6.638  0.1818  2.6286 -2.6215
  751MOL0     H 1329   1.169   8.411   6.642  0.9761  0.1486 -0.5332
  751MOL0     H 1330   1.246   8.454   6.892 -2.0679 -0.1458 -0.4819
  751MOL0     H 1331   1.375   8.341   6.843 -0.1373 -1.0392 -1.4761
  751MOL0     H 1332   1.412   8.592   6.824 -0.8860 -1.1038  0.7687
  751MOL0     H 1333   1.333   8.590   6.664 -0.0881  1.6023  2.2907
  751MOL0     H 1334   1.524   8.425   6.593  0.2003  0.4451  0.3390
  751MOL0     H 1335   1.543   8.593   6.601 -0.4386 -0.1456  0.3628
  751MOL0     H 1336   1.721   8.691   6.751  2.0794 -0.0178  0.7729
  751MOL0     H 1337   1.871   8.707   6.976 -0.2290 -0.5214  0.8762
  751MOL0     H 1338   1.941   8.555   7.031  1.3447  0.6656  0.4120
  751MOL0     H 1339   2.064   8.548   6.799 -2.8047 -0.0985 -2.4069
  751MOL0     H 1340   2.005   8.707   6.763 -1.6210 -1.9150 -1.2949
  751MOL0     H 1341   2.155   8.653   7.024  2.8290  0.4058  0.4503
  751MOL0     H 1342   2.121   8.816   6.957  0.0090  0.3633 -1.0977
  751MOL0     H 1343   2.260   8.774   6.772  2.3746  1.0755  1.6977
  751MOL0     H 1344   2.293   8.605   6.823 -1.2065 -0.9256  0.4787
  751MOL0     H 1345   2.464   8.686   6.700  2.4306 -1.2942 -3.2459
  751MOL0     H 1346   2.688   8.663   6.621  0.7595 -4.9025  1.8250
  751MOL0     H 1347   3.058   8.492   6.787  0.2195 -1.3845  0.0011
  751MOL0     H 1348   3.312   8.448   6.800 -0.2369 -1.3514  0.5468
  751MOL0     H 1349   3.572   8.563   6.442 -1.1537 -1.0600  0.6607
  751MOL0     H 1350   3.541   8.713   6.525  0.5537  0.0450  0.1560
  751MOL0     H 1351   3.766   8.702   6.558 -1.0318  1.1334 -0.2770
  751MOL0     H 1352   3.711   8.603   6.696  2.0394  2.0394  0.8634
  751MOL0     H 1353   3.766   8.415   6.587 -0.0029 -0.2692 -1.9696
  751MOL0     H 1354   3.795   8.490   6.431 -3.2967  0.0249  1.0830
  751MOL0     H 1355   3.966   8.488   6.675  1.1072 -1.1250 -1.1973
  751MOL0     H 1356   3.971   8.643   6.601  2.2776 -0.5301  1.1638
  751MOL0     H 1357   4.045   8.527   6.378  0.7841  1.1309  0.2140
  751MOL0     H 1358   4.025   8.381   6.448 -2.7402 -0.1866  2.2623
  751MOL0     H 1359   4.233   8.591   6.541 -1.7288 -0.9286  2.6002
  751MOL0     H 1360   4.206   8.444   6.631 -0.6271 -0.3890  0.1593
  751MOL0     H 1361   4.270   8.461   6.328  0.2020  2.2917  1.3849
  751MOL0     H 1362   4.277   8.313   6.428  2.2343 -0.1921 -0.4798
  751MOL0     H 1363   4.456   8.558   6.470 -1.3881 -0.1671  2.2120
  751MOL0     H 1364   4.451   8.422   6.577  2.4346  1.4266  0.2688
  751MOL0     H 1365   3.351   8.667   6.427  1.1318  2.1763  0.1409
  751MOL0     H 1366   3.103   8.732   6.448 -1.1359 -1.1075 -0.7130
  751MOL0     H 1367   2.838   8.809   7.001 -0.1566 -1.1944  0.9518
  751MOL0     H 1368   2.614   8.809   7.089  3.0378  2.8314 -0.1825
  751MOL0     H 1369   0.606   8.259   6.554 -1.5994  0.9419  0.1943
  751MOL0     H 1370   0.392   8.314   6.637  1.4112  0.7919  0.1167
  751MOL0     H 1371   0.137   8.573   6.915  1.0446 -2.4241 -2.1366
  751MOL0     H 1372  -0.117   8.614   6.976 -1.0495 -1.0722  1.1227
  751MOL0     H 1373  -0.391   8.280   7.004  1.3372  1.1818  0.7947
  751MOL0     H 1374  -0.415   8.332   6.832 -4.1920 -0.0771 -0.3191
  751MOL0     H 1375  -0.617   8.347   6.978 -1.0364 -0.4203  1.1814
  751MOL0     H 1376  -0.563   8.504   6.911  0.7316  0.8803  0.6041
  751MOL0     H 1377  -0.621   8.533   7.161 -0.0799 -0.4910  0.1153
  751MOL0     H 1378  -0.448   8.558   7.125 -0.9422  1.5084  0.8950
  751MOL0     H 1379  -0.403   8.331   7.232  0.5193  1.2684 -2.4002
  751MOL0     H 1380  -0.502   8.438   7.334 -1.1042 -0.4582 -0.0484
  751MOL0     H 1381  -0.791   8.159   7.263 -0.8220  2.3802  1.2315
  751MOL0     H 1382  -0.215   8.221   6.844 -0.1368  0.1072  0.9766
  751MOL0     H 1383   0.053   8.062   6.863 -1.7187 -3.6228 -1.6158
  751MOL0     H 1384  -0.066   8.086   6.748 -1.2742  2.1793  2.7306
  751MOL0     H 1385   0.103   8.130   6.701 -0.1085  2.1679 -0.3041
  752MOL0     O 1386   2.188   7.713   2.601  0.1973  0.2093  0.4831
  752MOL0     C 1387   2.101   7.796   2.628 -0.0893  0.1609  0.4502
  752MOL0     O 1388   2.122   7.925   2.648 -0.3360  0.2304 -0.4119
  752MOL0     C 1389   2.253   7.971   2.651 -0.0316 -0.4818 -0.3188
  752MOL0     C 1390   2.283   8.048   2.766 -0.5628 -0.0210 -0.1598
  752MOL0     C 1391   2.410   8.115   2.774 -0.8669  0.2040 -0.1795
  752MOL0     C 1392   2.504   8.088   2.675 -0.2377  1.0028 -0.3323
  752MOL0     O 1393   2.630   8.131   2.679 -0.6844  0.3687  0.4966
  752MOL0     C 1394   2.713   8.102   2.793  0.3972 -0.1782  0.1125
  752MOL0     C 1395   2.769   7.955   2.801 -0.2325  0.2021  0.0160
  752MOL0     C 1396   2.862   7.941   2.679 -0.4677 -0.4417 -0.5122
  752MOL0     C 1397   2.865   7.792   2.655 -0.0895  0.1290  1.3069
  752MOL0     C 1398   2.958   7.763   2.535  0.8375  0.5654 -0.4730
  752MOL0     C 1399   3.013   7.622   2.517 -0.8944  0.8852 -0.6575
  752MOL0     C 1400   3.141   7.570   2.596 -0.2579 -0.2644  0.4145
  752MOL0     C 1401   3.257   7.653   2.558 -0.4887  0.4975  0.3012
  752MOL0     N 1402   3.378   7.569   2.576  0.5629  0.2865 -0.2945
  752MOL0     C 1403   3.409   7.504   2.690  0.6351  0.6506 -0.1863
  752MOL0     C 1404   3.527   7.444   2.662  0.3453 -0.2891  0.0161
  752MOL0     C 1405   3.606   7.345   2.745 -0.5269  0.1835  0.5623
  752MOL0     C 1406   3.710   7.417   2.840 -0.0332  0.0250 -0.6450
  752MOL0     C 1407   3.667   7.433   2.985  0.1388 -0.5145 -1.0741
  752MOL0     C 1408   3.563   7.550   3.011  0.1950  0.5369  0.6373
  752MOL0     O 1409   3.596   7.603   3.146 -0.7634 -0.2498 -0.1450
  752MOL0     C 1410   3.672   7.720   3.143  0.2277 -0.3857 -0.7910
  752MOL0     C 1411   3.757   7.754   3.039  0.1396  0.9926 -0.5446
  752MOL0     C 1412   3.854   7.851   3.049  0.2845  0.3783  0.3163
  752MOL0     C 1413   3.878   7.915   3.170  0.4668  0.0516  0.5244
  752MOL0     C 1414   3.999   7.997   3.194 -0.2324  0.7910 -0.8887
  752MOL0     O 1415   4.041   8.014   3.326 -0.3035 -0.1050 -0.4164
  752MOL0     C 1416   4.162   8.078   3.340 -0.1776 -0.3278  0.2144
  752MOL0     C 1417   4.159   8.219   3.353  0.3592  0.1881  0.2013
  752MOL0     C 1418   4.280   8.293   3.371 -0.7760  0.4498 -0.1786
  752MOL0     C 1419   4.400   8.212   3.397 -0.9314  0.9996 -0.8864
  752MOL0     O 1420   4.523   8.270   3.418 -0.5415  0.3029 -0.6668
  752MOL0     C 1421   4.543   8.395   3.347  0.3130  0.5833  0.2669
  752MOL0     C 1422   4.674   8.469   3.376  0.2182 -0.3477  0.0957
  752MOL0     C 1423   4.786   8.368   3.345 -0.0541 -0.1763 -0.8039
  752MOL0     C 1424   4.916   8.432   3.399 -1.1002  0.2285 -1.0460
  752MOL0     C 1425   5.033   8.327   3.388 -0.4267  1.4808  0.3056
  752MOL0     C 1426   5.177   8.366   3.421  0.3445  0.2896  0.9399
  752MOL0     C 1427   5.221   8.500   3.355  0.7363 -0.2544  0.1072
  752MOL0     C 1428   5.370   8.539   3.350  0.4745 -0.0638  0.4929
  752MOL0    Cl 1429   5.458   8.539   3.504  0.5696 -0.0381 -0.7587
  752MOL0     C 1430   4.386   8.069   3.414 -1.2569 -0.7884  0.4644
  752MOL0     C 1431   4.267   8.004   3.380 -0.2892  0.4848 -0.8829
  752MOL0     O 1432   4.046   8.043   3.090 -0.0013  0.2166 -0.3775
  752MOL0     C 1433   3.781   7.893   3.277 -1.0691  0.2985 -0.0623
  752MOL0     C 1434   3.682   7.803   3.258  0.0839 -0.0481  0.7390
  752MOL0     N 1435   3.570   7.483   2.538 -0.4217 -1.3965  0.0420
  752MOL0     N 1436   3.481   7.558   2.485  0.6599 -0.2096  0.2234
  752MOL0     C 1437   2.470   8.007   2.564 -1.3009 -0.7790  0.9709
  752MOL0     C 1438   2.349   7.949   2.554 -0.3385  0.4251  1.3235
  752MOL0     C 1439   1.959   7.767   2.592 -0.3919 -0.2730  0.5897
  752MOL0     C 1440   1.868   7.870   2.569 -0.2607  0.5122 -0.0630
  752MOL0     C 1441   1.730   7.846   2.541  0.1297 -0.2184  0.3657
  752MOL0     C 1442   1.686   7.719   2.540  0.4036 -1.6662  0.1253
  752MOL0     O 1443   1.550   7.701   2.515  0.6629 -0.3002  0.0252
  752MOL0     C 1444   1.488   7.581   2.552  0.5052  0.1679  0.4982
  752MOL0     C 1445   1.335   7.588   2.576 -0.1523  1.1549 -1.1968
  752MOL0     C 1446   1.260   7.643   2.451 -0.3623  0.2564  0.5186
  752MOL0     C 1447   1.142   7.736   2.494  0.7703  0.6119 -0.4378
  752MOL0     C 1448   1.106   7.826   2.387  0.3234  0.2281  0.3192
  752MOL0     C 1449   1.086   7.909   2.297  0.7713  0.1855 -1.0895
  752MOL0     C 1450   1.774   7.619   2.563 -0.4688  0.1090 -0.3745
  752MOL0     C 1451   1.910   7.635   2.585 -0.2891 -0.0887  0.8565
  752MOL0     C 1452   1.970   7.504   2.617 -0.2758  0.5608 -0.1912
  752MOL0     H 1453   2.202   8.055   2.838 -1.9364 -0.7239 -1.5612
  752MOL0     H 1454   2.433   8.173   2.862  0.3910  1.5372 -1.3232
  752MOL0     H 1455   2.794   8.175   2.786 -1.3755  1.9330  0.5330
  752MOL0     H 1456   2.674   8.131   2.891 -3.0505 -2.9423 -0.2373
  752MOL0     H 1457   2.693   7.878   2.816  0.7658 -1.1401 -1.5540
  752MOL0     H 1458   2.839   7.951   2.885  0.5607  4.2099 -0.2715
  752MOL0     H 1459   2.959   7.988   2.700  0.1766 -0.5806 -2.9360
  752MOL0     H 1460   2.819   7.991   2.593  2.6591  3.2605 -0.1964
  752MOL0     H 1461   2.901   7.743   2.746 -0.6447 -1.0083  0.9378
  752MOL0     H 1462   2.764   7.761   2.627 -0.4670  2.5403 -0.3276
  752MOL0     H 1463   2.902   7.781   2.443  1.8014 -2.2631 -1.7186
  752MOL0     H 1464   3.042   7.834   2.533  0.2765  1.2231 -2.1810
  752MOL0     H 1465   2.933   7.558   2.553 -0.0788  1.8345  3.4764
  752MOL0     H 1466   3.041   7.607   2.413 -2.5375  0.2390 -1.0292
  752MOL0     H 1467   3.141   7.464   2.569 -4.0147 -1.1382  3.0041
  752MOL0     H 1468   3.117   7.569   2.703 -1.4751  0.9619  0.1792
  752MOL0     H 1469   3.254   7.698   2.458  0.8295  2.1080  0.9522
  752MOL0     H 1470   3.263   7.737   2.628 -1.7891  0.5885  0.3429
  752MOL0     H 1471   3.348   7.492   2.779 -0.2923 -1.9206 -1.0678
  752MOL0     H 1472   3.540   7.272   2.794 -1.9762  0.1438 -1.3274
  752MOL0     H 1473   3.668   7.289   2.674 -0.7370  0.7167 -0.0545
  752MOL0     H 1474   3.796   7.350   2.840 -0.2093 -0.2270  0.5440
  752MOL0     H 1475   3.739   7.511   2.794  1.6579 -0.2650 -0.2472
  752MOL0     H 1476   3.761   7.461   3.034  2.1020 -1.9864 -3.7325
  752MOL0     H 1477   3.624   7.340   3.025 -1.9859  1.3021  1.2364
  752MOL0     H 1478   3.464   7.503   3.004  1.9731 -3.8614  2.0520
  752MOL0     H 1479   3.565   7.626   2.932  0.9335  0.2997  0.4266
  752MOL0     H 1480   3.761   7.705   2.942  1.0171  0.4318 -0.2303
  752MOL0     H 1481   3.914   7.856   2.959 -2.9737 -0.9802 -2.1220
  752MOL0     H 1482   4.059   8.261   3.343  0.8878  2.3539  2.9653
  752MOL0     H 1483   4.290   8.401   3.366  1.7232  0.1962 -2.6234
  752MOL0     H 1484   4.538   8.379   3.239  1.2115 -0.9910  0.4272
  752MOL0     H 1485   4.472   8.474   3.371 -1.0369 -0.5786  0.1895
  752MOL0     H 1486   4.671   8.550   3.302  0.6901 -1.3802 -1.0937
  752MOL0     H 1487   4.687   8.501   3.480 -1.2365  0.7345 -0.0176
  752MOL0     H 1488   4.767   8.273   3.397 -2.5945  0.7471  0.1265
  752MOL0     H 1489   4.800   8.359   3.237 -0.4988  0.7473 -0.9427
  752MOL0     H 1490   4.906   8.464   3.504 -0.0175  0.7443 -1.0839
  752MOL0     H 1491   4.944   8.524   3.348  3.3678  0.2388  0.9712
  752MOL0     H 1492   5.039   8.305   3.281 -2.1705 -1.6696  0.7275
  752MOL0     H 1493   5.008   8.239   3.448  2.1315  0.8572  0.5613
  752MOL0     H 1494   5.167   8.387   3.528 -3.0095  2.3065  0.3727
  752MOL0     H 1495   5.243   8.280   3.405  0.8212 -0.0360  3.9529
  752MOL0     H 1496   5.160   8.579   3.401 -0.0522  0.4424 -2.0352
  752MOL0     H 1497   5.193   8.495   3.250 -1.7786  0.9297  0.6329
  752MOL0     H 1498   5.434   8.471   3.294  0.4926  0.1624  0.2353
  752MOL0     H 1499   5.384   8.638   3.306  1.2480  0.9537  2.8549
  752MOL0     H 1500   4.472   8.013   3.449 -0.2172  1.8633  2.4887
  752MOL0     H 1501   4.262   7.896   3.382  1.1776  0.4070  0.6354
  752MOL0     H 1502   3.803   7.944   3.371  4.1702 -0.0064 -0.7835
  752MOL0     H 1503   3.620   7.774   3.342 -0.5180 -0.6066  0.1147
  752MOL0     H 1504   2.547   7.979   2.492 -0.9475 -1.3858  1.5796
  752MOL0     H 1505   2.313   7.903   2.463 -1.6749  2.5217  0.7340
  752MOL0     H 1506   1.892   7.976   2.572 -3.1932  1.2757 -0.1074
  752MOL0     H 1507   1.670   7.932   2.516  0.6977  0.0245 -0.1957
  752MOL0     H 1508   1.532   7.545   2.645  0.1944 -1.5824  0.0121
  752MOL0     H 1509   1.497   7.507   2.473  1.5370 -0.3221  1.0590
  752MOL0     H 1510   1.321   7.652   2.663 -1.7634 -0.8588  0.1142
  752MOL0     H 1511   1.295   7.489   2.601  0.4000  1.3015  0.3369
  752MOL0     H 1512   1.226   7.565   2.382  2.0902  0.7339 -1.3999
  752MOL0     H 1513   1.318   7.717   2.394  2.0532  0.5893  3.1654
  752MOL0     H 1514   1.050   7.683   2.521 -0.9088  2.7919 -1.5199
  752MOL0     H 1515   1.177   7.785   2.585  1.0242 -2.7218  1.4453
  752MOL0     H 1516   1.070   7.988   2.227  1.8797  1.6819  0.2729
  752MOL0     H 1517   1.731   7.521   2.578  0.5270  0.0024  2.2564
  752MOL0     H 1518   2.063   7.511   2.675 -0.9641  0.7789  0.9075
  752MOL0     H 1519   1.904   7.450   2.685 -1.4939  2.9986  0.7100
  752MOL0     H 1520   1.994   7.436   2.535 -1.1400  1.1062 -0.9120
  753MOL0     O 1521   4.504   2.214   3.519  0.1470  0.1234  0.5081
  753MOL0     C 1522   4.571   2.248   3.420  0.4581  0.8718  1.3313
  753MOL0     O 1523   4.515   2.293   3.303  0.3650 -0.9008  0.2225
  753MOL0     C 1524   4.386   2.332   3.284 -0.4908  0.3594  0.1825
  753MOL0     C 1525   4.291   2.369   3.384 -0.2768 -0.4444 -0.8292
  753MOL0     C 1526   4.158   2.402   3.350  0.1547 -0.2526  0.3992
  753MOL0     C 1527   4.117   2.386   3.218  1.3333 -0.4409 -0.2094
  753MOL0     O 1528   3.984   2.391   3.176  0.1361  0.1656  0.1749
  753MOL0     C 1529   3.885   2.435   3.261  0.5886 -0.1273 -0.0442
  753MOL0     C 1530   3.834   2.315   3.359  0.0555 -0.3917 -0.8181
  753MOL0     C 1531   3.803   2.191   3.278 -0.1856  0.1556 -0.1961
  753MOL0     C 1532   3.673   2.193   3.194  0.3598  0.3345  0.5973
  753MOL0     C 1533   3.628   2.052   3.154  0.0156 -0.3908 -0.3196
  753MOL0     C 1534   3.492   2.068   3.083 -0.5155 -0.6877  0.2511
  753MOL0     C 1535   3.421   1.937   3.061 -0.1926 -0.0106 -0.2700
  753MOL0     C 1536   3.363   1.878   3.192  0.2056  0.6472  0.5062
  753MOL0     N 1537   3.312   1.741   3.157 -1.2715  0.4678 -0.7384
  753MOL0     C 1538   3.201   1.729   3.088  0.6421 -0.2951 -0.4680
  753MOL0     C 1539   3.211   1.602   3.047 -0.6418 -0.3260 -0.0247
  753MOL0     C 1540   3.098   1.535   2.977  0.3229  0.3322 -0.0684
  753MOL0     C 1541   3.103   1.568   2.828 -0.1502 -0.1630  0.5670
  753MOL0     C 1542   3.089   1.720   2.781  0.8333 -0.3927 -1.0708
  753MOL0     C 1543   3.098   1.737   2.630  0.3974  0.5064 -0.6949
  753MOL0     O 1544   3.228   1.716   2.586 -0.1252 -0.4101 -0.8756
  753MOL0     C 1545   3.324   1.777   2.653 -0.0664 -0.3080 -0.0262
  753MOL0     C 1546   3.323   1.912   2.673 -0.6507  0.3319  0.1587
  753MOL0     C 1547   3.441   1.964   2.746 -0.9783 -0.0390 -0.7393
  753MOL0     C 1548   3.550   1.887   2.774  0.4768  0.0852 -0.4170
  753MOL0     C 1549   3.677   1.965   2.803  0.6103 -0.4448 -0.1218
  753MOL0     O 1550   3.799   1.895   2.804 -0.5687 -0.1025  0.2274
  753MOL0     C 1551   3.916   1.970   2.823 -0.5671 -0.1523 -0.7135
  753MOL0     C 1552   3.980   2.045   2.726 -0.0141  0.0241  0.0588
  753MOL0     C 1553   4.104   2.097   2.744 -0.5591  0.1993 -0.6759
  753MOL0     C 1554   4.173   2.083   2.864 -0.8897 -0.4344  0.3399
  753MOL0     O 1555   4.306   2.112   2.880 -0.3547 -0.6840  0.5319
  753MOL0     C 1556   4.384   2.159   2.764 -0.4164 -0.2612 -0.9125
  753MOL0     C 1557   4.520   2.220   2.808 -0.2417 -0.1999 -0.1924
  753MOL0     C 1558   4.602   2.135   2.911  0.0635  0.1548  0.4046
  753MOL0     C 1559   4.743   2.191   2.909 -0.2892  0.8420  0.4445
  753MOL0     C 1560   4.858   2.087   2.936  0.7686 -0.6271 -0.1160
  753MOL0     C 1561   4.856   2.032   3.089 -0.2090 -0.3745 -0.0997
  753MOL0     C 1562   4.979   1.943   3.103 -0.4365  0.5520 -0.9170
  753MOL0     C 1563   5.112   2.019   3.127  0.4553  0.0004  0.3008
  753MOL0    Cl 1564   5.240   1.903   3.120 -0.0181  0.2939  0.0545
  753MOL0     C 1565   4.106   2.026   2.964 -0.1755 -0.1566 -0.0259
  753MOL0     C 1566   3.978   1.967   2.946 -0.4310  0.8299  0.4149
  753MOL0     O 1567   3.664   2.087   2.821  0.0977 -0.2823 -0.4985
  753MOL0     C 1568   3.543   1.755   2.750 -0.6098  0.3162 -0.4111
  753MOL0     C 1569   3.429   1.700   2.694  0.3622 -0.2743 -0.5702
  753MOL0     N 1570   3.317   1.538   3.100 -0.1922 -0.3594  0.0951
  753MOL0     N 1571   3.382   1.618   3.180 -0.0812 -0.5682  0.3990
  753MOL0     C 1572   4.209   2.345   3.122  0.4671 -0.3829 -0.0961
  753MOL0     C 1573   4.339   2.323   3.161  0.3149  0.0750  0.4600
  753MOL0     C 1574   4.719   2.244   3.431 -0.3641  0.2848  0.1395
  753MOL0     C 1575   4.782   2.352   3.365  0.2511 -0.3386 -0.6866
  753MOL0     C 1576   4.920   2.356   3.361 -0.6081 -0.1996 -0.9136
  753MOL0     C 1577   5.008   2.259   3.423  0.3231 -0.1718 -1.1421
  753MOL0     O 1578   5.146   2.260   3.415  0.3241  0.2102 -0.5760
  753MOL0     C 1579   5.210   2.351   3.331 -0.4450 -1.1966 -0.5144
  753MOL0     C 1580   5.362   2.327   3.345 -0.9100  0.6477  0.2511
  753MOL0     C 1581   5.400   2.181   3.337  0.8543 -1.1859  0.4434
  753MOL0     C 1582   5.540   2.167   3.369 -0.4073 -0.0420  0.2606
  753MOL0     C 1583   5.597   2.038   3.323 -0.1265  0.1369  0.2212
  753MOL0     C 1584   5.632   1.935   3.283  0.4294 -0.0114 -0.0439
  753MOL0     C 1585   4.935   2.157   3.498 -0.4734 -0.3259 -0.9945
  753MOL0     C 1586   4.794   2.149   3.501  0.2328  0.7010 -0.3706
  753MOL0     C 1587   4.733   2.038   3.582  0.0936 -0.1212 -0.1618
  753MOL0     H 1588   4.319   2.390   3.487  1.0221  0.6095 -1.3674
  753MOL0     H 1589   4.084   2.420   3.428 -2.2188 -2.5752 -1.1587
  753MOL0     H 1590   3.930   2.513   3.324  0.2710 -0.0018  0.0290
  753MOL0     H 1591   3.800   2.485   3.213 -0.7967  0.1847  2.5255
  753MOL0     H 1592   3.750   2.334   3.427  0.6572  0.9926 -0.4335
  753MOL0     H 1593   3.917   2.282   3.422 -0.3609 -0.1802 -0.1517
  753MOL0     H 1594   3.811   2.100   3.338 -0.5058 -1.5964 -2.6480
  753MOL0     H 1595   3.891   2.178   3.214  1.7305  0.8390  2.1733
  753MOL0     H 1596   3.592   2.254   3.237  1.3811  2.6318 -0.5762
  753MOL0     H 1597   3.700   2.242   3.100  0.1967  2.1167  1.4403
  753MOL0     H 1598   3.711   2.003   3.103  3.1886  1.8648  2.2371
  753MOL0     H 1599   3.612   1.989   3.242  2.2626  0.7713  0.9927
  753MOL0     H 1600   3.428   2.133   3.144  1.9839  0.4467  1.8595
  753MOL0     H 1601   3.500   2.117   2.985 -1.1201 -1.0070  0.0419
  753MOL0     H 1602   3.491   1.860   3.028 -1.1669 -0.1372 -2.2050
  753MOL0     H 1603   3.341   1.952   2.987 -0.1107 -1.1886 -0.6127
  753MOL0     H 1604   3.428   1.885   3.279  0.4638  2.2101  0.2154
  753MOL0     H 1605   3.283   1.946   3.220  0.2777  0.9909 -0.1163
  753MOL0     H 1606   3.124   1.804   3.070 -0.1027 -1.0206 -0.3526
  753MOL0     H 1607   3.092   1.427   2.992 -2.4442  0.5324  0.9461
  753MOL0     H 1608   3.005   1.586   3.007  0.4652  2.1841 -2.4502
  753MOL0     H 1609   3.195   1.534   2.781 -2.7555 -2.3330 -3.5630
  753MOL0     H 1610   3.014   1.520   2.786 -1.4099 -0.9504  3.7674
  753MOL0     H 1611   3.158   1.790   2.828  0.3866  0.1858 -1.2661
  753MOL0     H 1612   2.987   1.748   2.810  1.5311 -0.5655  1.9429
  753MOL0     H 1613   3.059   1.836   2.605 -1.9986  0.3708  2.0491
  753MOL0     H 1614   3.023   1.669   2.588 -0.1051  0.2799  0.5302
  753MOL0     H 1615   3.249   1.978   2.630  0.4223  0.0429 -2.2921
  753MOL0     H 1616   3.437   2.071   2.760  0.4019 -0.1679  0.8917
  753MOL0     H 1617   3.930   2.061   2.631  0.2320 -1.2423 -0.3075
  753MOL0     H 1618   4.155   2.146   2.662  3.0000 -0.0845  1.1676
  753MOL0     H 1619   4.389   2.075   2.693  0.4477 -0.6551 -0.3967
  753MOL0     H 1620   4.329   2.243   2.719  1.0472  1.6074  0.6247
  753MOL0     H 1621   4.563   2.254   2.714  0.3259  0.4889  0.3067
  753MOL0     H 1622   4.502   2.312   2.864 -1.4276 -0.1405 -0.6282
  753MOL0     H 1623   4.566   2.145   3.013 -1.8048 -0.2093 -0.1805
  753MOL0     H 1624   4.594   2.031   2.879 -1.8504 -0.5457  2.9014
  753MOL0     H 1625   4.747   2.272   2.982 -2.5957  1.5463 -0.1295
  753MOL0     H 1626   4.755   2.236   2.810 -1.9818 -0.3363 -0.3466
  753MOL0     H 1627   4.951   2.139   2.909  0.6340 -0.9423 -1.2089
  753MOL0     H 1628   4.841   2.002   2.870  0.2210 -1.6898  1.3501
  753MOL0     H 1629   4.846   2.110   3.165 -1.3089  0.4834 -1.0850
  753MOL0     H 1630   4.771   1.965   3.101 -0.1501 -0.6459 -1.1026
  753MOL0     H 1631   4.983   1.895   3.005 -5.1347  0.8253 -1.4514
  753MOL0     H 1632   4.967   1.861   3.175  0.6103 -0.4576 -1.8585
  753MOL0     H 1633   5.147   2.085   3.047 -1.0386 -0.1748 -0.5381
  753MOL0     H 1634   5.107   2.067   3.226  1.5204 -0.0261  0.3757
  753MOL0     H 1635   4.152   2.021   3.062 -1.5462  1.5109  0.7417
  753MOL0     H 1636   3.933   1.898   3.018  0.3174  0.4419  0.5294
  753MOL0     H 1637   3.630   1.692   2.767 -1.9658 -2.1058 -1.9294
  753MOL0     H 1638   3.426   1.591   2.690 -1.3676 -0.3638  1.4684
  753MOL0     H 1639   4.191   2.324   3.017  4.0110 -0.9912 -0.6881
  753MOL0     H 1640   4.413   2.297   3.085  0.9837  1.0645  0.7472
  753MOL0     H 1641   4.730   2.432   3.313  0.9790  0.7030  0.1298
  753MOL0     H 1642   4.945   2.445   3.305 -0.3488 -0.1083 -0.6514
  753MOL0     H 1643   5.185   2.449   3.374  1.0993 -0.8112 -0.4528
  753MOL0     H 1644   5.180   2.360   3.226  1.2317  2.1648 -0.8353
  753MOL0     H 1645   5.407   2.373   3.433 -0.9339 -0.4498  0.8498
  753MOL0     H 1646   5.404   2.382   3.260  0.5201 -1.2043 -0.2989
  753MOL0     H 1647   5.372   2.135   3.241 -0.1944  0.3371 -0.0181
  753MOL0     H 1648   5.344   2.130   3.416 -0.1865 -1.0014 -0.1556
  753MOL0     H 1649   5.583   2.251   3.315  0.2253 -1.1105 -0.9662
  753MOL0     H 1650   5.554   2.181   3.476  2.2336  2.7535 -0.3223
  753MOL0     H 1651   5.648   1.838   3.240 -0.5333 -0.0303 -0.3805
  753MOL0     H 1652   4.999   2.092   3.557 -1.5654  0.2572  0.9267
  753MOL0     H 1653   4.807   1.978   3.636  0.4273 -1.0747 -1.6273
  753MOL0     H 1654   4.672   2.083   3.661  0.9325  2.9817 -1.1129
  753MOL0     H 1655   4.660   1.985   3.521  1.3614 -2.6747  0.4164
  754MOL0     O 1656   0.647   3.834   4.179  0.6528  0.1239  0.1565
  754MOL0     C 1657   0.573   3.924   4.146  0.0219 -1.0404  0.2555
  754MOL0     O 1658   0.544   3.955   4.018  0.6717  0.1360 -0.5976
  754MOL0     C 1659   0.616   3.895   3.917  0.3073  0.1119 -0.5034
  754MOL0     C 1660   0.549   3.844   3.800 -0.3228  0.8006 -0.6348
  754MOL0     C 1661   0.622   3.785   3.696 -0.0599  0.4214 -0.0249
  754MOL0     C 1662   0.760   3.793   3.697 -0.9070 -1.0961 -1.0089
  754MOL0     O 1663   0.848   3.764   3.595  0.0838  0.3700  0.1753
  754MOL0     C 1664   0.806   3.676   3.487 -0.1127 -0.5284 -0.3697
  754MOL0     C 1665   0.933   3.620   3.426 -0.0316  0.2918  0.2021
  754MOL0     C 1666   0.996   3.501   3.505  1.2815  0.3548 -0.4841
  754MOL0     C 1667   1.133   3.468   3.440 -0.0695 -1.3162  0.0997
  754MOL0     C 1668   1.202   3.348   3.499 -1.0150  0.7848  0.1001
  754MOL0     C 1669   1.274   3.357   3.632  0.2164 -0.1726  0.6319
  754MOL0     C 1670   1.354   3.227   3.646 -0.4844 -0.1294  0.1168
  754MOL0     C 1671   1.411   3.211   3.793 -0.0384  0.0582 -0.1117
  754MOL0     N 1672   1.517   3.308   3.830 -0.0468 -1.0437  1.0203
  754MOL0     C 1673   1.501   3.429   3.899 -1.0346 -0.2469 -0.4484
  754MOL0     C 1674   1.622   3.494   3.880 -0.0627 -0.0681 -0.2927
  754MOL0     C 1675   1.668   3.630   3.931 -0.1560 -0.2898  0.1134
  754MOL0     C 1676   1.809   3.652   4.005 -0.1608 -0.3620 -0.1797
  754MOL0     C 1677   1.814   3.560   4.124 -0.4754 -0.4411 -0.2695
  754MOL0     C 1678   1.945   3.551   4.195 -0.8115  0.3805 -0.6412
  754MOL0     O 1679   1.976   3.677   4.248 -1.3518 -0.2149 -0.0430
  754MOL0     C 1680   2.111   3.690   4.259 -0.4930 -0.3144  0.1304
  754MOL0     C 1681   2.156   3.819   4.244 -0.6297  0.3335  0.1701
  754MOL0     C 1682   2.294   3.856   4.255  1.2080  0.9082  1.0132
  754MOL0     C 1683   2.388   3.751   4.267 -0.1168  0.4568 -0.2238
  754MOL0     C 1684   2.534   3.782   4.281 -0.0310  0.3727  0.4773
  754MOL0     O 1685   2.612   3.689   4.353 -0.5043  0.2242  0.9982
  754MOL0     C 1686   2.745   3.713   4.347 -0.0582  0.5895 -0.7906
  754MOL0     C 1687   2.826   3.690   4.232 -0.3079  0.4313  0.2287
  754MOL0     C 1688   2.959   3.733   4.216  0.3150  0.7167  0.1376
  754MOL0     C 1689   3.023   3.792   4.327  0.2959 -0.4415 -0.0454
  754MOL0     O 1690   3.146   3.837   4.319  0.1149 -0.1203 -0.7064
  754MOL0     C 1691   3.174   3.940   4.234  0.5124  0.9487  0.3769
  754MOL0     C 1692   3.254   4.060   4.293 -0.2096 -0.2076 -0.5158
  754MOL0     C 1693   3.310   4.046   4.434  0.6561  0.2076  0.1575
  754MOL0     C 1694   3.345   4.192   4.480  0.0443  0.2077  0.4118
  754MOL0     C 1695   3.396   4.200   4.626  0.7415  0.8933  0.7919
  754MOL0     C 1696   3.396   4.336   4.687 -0.6942  0.4652  0.6667
  754MOL0     C 1697   3.465   4.339   4.826  0.6705  1.0762  0.1895
  754MOL0     C 1698   3.457   4.484   4.859  0.3988 -0.0830  0.1421
  754MOL0    Cl 1699   3.532   4.517   5.009  0.2798 -0.3415  0.2338
  754MOL0     C 1700   2.956   3.796   4.446  0.3847 -0.7848  0.3336
  754MOL0     C 1701   2.816   3.762   4.459  0.5730 -1.2583  0.3488
  754MOL0     O 1702   2.580   3.879   4.219  0.1711  0.2829 -0.1143
  754MOL0     C 1703   2.345   3.617   4.290 -0.1208 -0.2470 -0.8357
  754MOL0     C 1704   2.205   3.589   4.294 -0.6367  0.7176  0.1699
  754MOL0     N 1705   1.702   3.419   3.797  0.2663  0.5965 -0.0355
  754MOL0     N 1706   1.638   3.308   3.772  0.1942 -0.7266 -0.1832
  754MOL0     C 1707   0.825   3.846   3.812  0.1399 -1.0487  0.6314
  754MOL0     C 1708   0.757   3.907   3.913 -0.2888 -1.2539  0.1014
  754MOL0     C 1709   0.507   4.016   4.240  0.8541  0.2444 -0.5957
  754MOL0     C 1710   0.483   4.146   4.204 -0.5682 -0.5960 -0.0638
  754MOL0     C 1711   0.429   4.240   4.292 -0.2102 -0.3343  0.3394
  754MOL0     C 1712   0.407   4.216   4.426  0.3445  0.8045 -0.1667
  754MOL0     O 1713   0.364   4.313   4.514 -0.6063  0.9436  0.0229
  754MOL0     C 1714   0.363   4.449   4.480 -0.0416  0.4351  0.8668
  754MOL0     C 1715   0.324   4.528   4.604 -0.9400 -0.2832 -1.0020
  754MOL0     C 1716   0.419   4.515   4.722 -0.5998  0.2759  0.3432
  754MOL0     C 1717   0.392   4.617   4.833 -0.4482  0.2881  0.8424
  754MOL0     C 1718   0.254   4.596   4.891 -0.1523  0.1232  1.1828
  754MOL0     C 1719   0.141   4.589   4.937 -1.0258  0.4349  0.5352
  754MOL0     C 1720   0.428   4.085   4.470 -0.4833  0.2724 -0.5745
  754MOL0     C 1721   0.465   3.981   4.377 -0.1522  0.2474 -0.7455
  754MOL0     C 1722   0.492   3.838   4.433 -0.2781 -0.6302  0.0872
  754MOL0     H 1723   0.441   3.852   3.792 -0.2191  1.5468 -1.5054
  754MOL0     H 1724   0.571   3.754   3.606 -2.4267  0.4518  1.2378
  754MOL0     H 1725   0.750   3.588   3.519 -0.1369 -0.7218 -0.9398
  754MOL0     H 1726   0.747   3.732   3.414  1.2059  1.8203  0.2347
  754MOL0     H 1727   1.003   3.703   3.416  0.3123 -0.1763 -1.5172
  754MOL0     H 1728   0.900   3.588   3.327 -2.5339  1.3003  0.6173
  754MOL0     H 1729   0.929   3.414   3.499 -1.6279  2.3745  0.5241
  754MOL0     H 1730   1.001   3.528   3.610  1.7644 -0.5410 -0.2655
  754MOL0     H 1731   1.110   3.453   3.334 -1.4186  0.1755  0.1462
  754MOL0     H 1732   1.202   3.552   3.450 -0.7668 -0.5639 -1.1699
  754MOL0     H 1733   1.128   3.268   3.509 -0.7315  0.0834 -2.5476
  754MOL0     H 1734   1.273   3.309   3.425 -1.8909 -1.8201  0.5442
  754MOL0     H 1735   1.335   3.447   3.625 -0.3306  0.1058 -1.0265
  754MOL0     H 1736   1.212   3.371   3.721 -0.5602 -0.1618  0.0981
  754MOL0     H 1737   1.435   3.197   3.578 -0.0425 -3.6362  1.9616
  754MOL0     H 1738   1.281   3.146   3.634 -0.7664 -0.8082  4.8003
  754MOL0     H 1739   1.335   3.211   3.871  1.6915 -2.1959  1.7596
  754MOL0     H 1740   1.455   3.110   3.793  2.1802  0.9656 -0.0191
  754MOL0     H 1741   1.411   3.461   3.951 -1.5286 -1.6718 -0.3858
  754MOL0     H 1742   1.676   3.695   3.844 -4.0770 -1.1879 -1.1291
  754MOL0     H 1743   1.595   3.672   4.002  0.7788  0.2522  0.7754
  754MOL0     H 1744   1.896   3.625   3.945 -2.1039 -3.6488 -1.7999
  754MOL0     H 1745   1.815   3.758   4.033  0.5276 -1.1551  3.1639
  754MOL0     H 1746   1.775   3.462   4.098 -2.6292 -0.0503  1.1580
  754MOL0     H 1747   1.752   3.603   4.203  1.4235 -1.4412  1.8987
  754MOL0     H 1748   2.021   3.502   4.134  1.5953  2.4962  0.4746
  754MOL0     H 1749   1.942   3.479   4.277  2.5781 -0.9766 -1.5167
  754MOL0     H 1750   2.083   3.897   4.225  0.6082  1.2255 -1.2016
  754MOL0     H 1751   2.322   3.961   4.246 -1.1672  1.4044 -2.4883
  754MOL0     H 1752   2.781   3.641   4.146 -0.5036 -0.0846  0.6212
  754MOL0     H 1753   3.017   3.719   4.125  1.6830 -0.8895  1.1803
  754MOL0     H 1754   3.227   3.895   4.150 -1.4151 -0.4478 -0.1515
  754MOL0     H 1755   3.079   3.981   4.199  0.5660 -0.9639 -2.2763
  754MOL0     H 1756   3.338   4.082   4.228 -0.7693  4.5591  0.0616
  754MOL0     H 1757   3.187   4.146   4.284 -0.6979 -0.6424 -1.2971
  754MOL0     H 1758   3.240   3.995   4.502 -0.5303  2.4612  0.7446
  754MOL0     H 1759   3.400   3.985   4.433  0.8343  0.4747 -0.6606
  754MOL0     H 1760   3.251   4.248   4.475 -0.4703 -0.6735  0.0407
  754MOL0     H 1761   3.417   4.236   4.410 -0.0007 -1.3806 -0.6949
  754MOL0     H 1762   3.502   4.174   4.628  0.3185 -0.9077  1.1345
  754MOL0     H 1763   3.340   4.124   4.681  2.9969 -0.6646  1.0294
  754MOL0     H 1764   3.443   4.409   4.620 -0.6338  0.4023  0.6410
  754MOL0     H 1765   3.292   4.370   4.699 -0.4880  1.1561  0.5675
  754MOL0     H 1766   3.571   4.313   4.835  0.5950  1.2854  1.8335
  754MOL0     H 1767   3.411   4.281   4.901 -0.3512  0.3405 -1.0757
  754MOL0     H 1768   3.513   4.550   4.793 -0.7984  1.7987  0.9099
  754MOL0     H 1769   3.355   4.522   4.862  0.5212  1.0788 -4.3603
  754MOL0     H 1770   2.995   3.849   4.532 -1.4770 -0.7003  1.1768
  754MOL0     H 1771   2.768   3.763   4.557 -1.4385 -4.6617 -0.4179
  754MOL0     H 1772   2.422   3.544   4.312  1.1631  1.4918  0.7703
  754MOL0     H 1773   2.173   3.487   4.309 -0.5267  0.6957  0.2584
  754MOL0     H 1774   0.932   3.850   3.831  0.2915 -1.1944 -0.1618
  754MOL0     H 1775   0.805   3.950   4.000  0.5435 -2.7628  0.4274
  754MOL0     H 1776   0.516   4.177   4.106  3.1281 -3.0936  0.1985
  754MOL0     H 1777   0.427   4.341   4.253  4.4119  1.0382  2.9233
  754MOL0     H 1778   0.281   4.457   4.407  0.2998 -0.6128  0.3495
  754MOL0     H 1779   0.455   4.486   4.435  0.0112  0.2301  0.8049
  754MOL0     H 1780   0.226   4.485   4.628 -0.8075 -1.0006 -1.7109
  754MOL0     H 1781   0.296   4.633   4.596 -0.0166  0.5820  3.7181
  754MOL0     H 1782   0.520   4.522   4.681 -0.1922  0.9679  1.4361
  754MOL0     H 1783   0.415   4.416   4.767  0.1885  0.3279  0.5356
  754MOL0     H 1784   0.470   4.595   4.906  2.3872 -0.9247 -2.2857
  754MOL0     H 1785   0.412   4.720   4.800 -0.2583 -0.1707 -0.5123
  754MOL0     H 1786   0.046   4.575   4.986 -0.7344 -0.3779  0.8826
  754MOL0     H 1787   0.413   4.057   4.574 -0.4189 -3.2531 -1.3684
  754MOL0     H 1788   0.584   3.839   4.494  0.3264  3.7071 -0.5486
  754MOL0     H 1789   0.408   3.812   4.498  0.1249 -1.2517  0.3688
  754MOL0     H 1790   0.510   3.759   4.360  1.5101 -0.5609  0.3991
  755MOL0     O 1791   3.679   4.237   6.305 -0.6018 -0.0073  0.0065
  755MOL0     C 1792   3.783   4.255   6.236 -0.1125 -0.8968  0.2583
  755MOL0     O 1793   3.769   4.333   6.115 -0.9245  0.0996  0.3268
  755MOL0     C 1794   3.882   4.388   6.046 -0.3005  0.1222  0.0335
  755MOL0     C 1795   3.886   4.527   6.039 -0.3645  0.2947 -0.3475
  755MOL0     C 1796   3.992   4.577   5.963  0.2141 -0.9132 -0.0674
  755MOL0     C 1797   4.079   4.499   5.886  0.4883 -0.8128  0.1976
  755MOL0     O 1798   4.174   4.549   5.797  0.2785 -0.3181  0.1234
  755MOL0     C 1799   4.195   4.691   5.789 -0.4268  0.4089 -0.1111
  755MOL0     C 1800   4.311   4.722   5.884  0.3081  0.6055  0.4422
  755MOL0     C 1801   4.437   4.648   5.836  0.2118 -0.5008  0.3207
  755MOL0     C 1802   4.510   4.743   5.732  0.5017  0.4730 -0.1462
  755MOL0     C 1803   4.637   4.683   5.676  0.7174  0.3599 -0.1271
  755MOL0     C 1804   4.699   4.775   5.573 -0.9504  0.5613 -0.0967
  755MOL0     C 1805   4.828   4.706   5.514 -0.6529  0.3034  0.5050
  755MOL0     C 1806   4.850   4.763   5.379 -0.5695 -0.0468  0.0707
  755MOL0     N 1807   4.833   4.906   5.368 -1.1271 -0.5984 -1.3230
  755MOL0     C 1808   4.951   4.983   5.369 -0.4662 -0.4555 -0.4626
  755MOL0     C 1809   4.915   5.107   5.324 -0.3086 -0.1173 -0.4379
  755MOL0     C 1810   5.015   5.216   5.293 -0.7588 -0.0776 -0.4140
  755MOL0     C 1811   5.089   5.264   5.428 -0.1461  0.2316 -0.7193
  755MOL0     C 1812   5.203   5.367   5.416  0.0771  0.5681 -0.7532
  755MOL0     C 1813   5.310   5.312   5.327 -0.8013  0.0622  0.6523
  755MOL0     O 1814   5.442   5.354   5.368  0.5124  0.3331 -0.4869
  755MOL0     C 1815   5.550   5.345   5.282  0.8232 -0.5204 -0.1305
  755MOL0     C 1816   5.570   5.255   5.175  1.0908  0.6048 -1.1527
  755MOL0     C 1817   5.684   5.267   5.097  0.1706  0.0680  1.1173
  755MOL0     C 1818   5.795   5.355   5.129  0.6703 -0.5007  0.6080
  755MOL0     C 1819   5.924   5.373   5.053 -0.2475  0.7993  0.0822
  755MOL0     O 1820   6.024   5.452   5.109 -0.3227 -0.3361 -0.3690
  755MOL0     C 1821   6.125   5.511   5.038 -0.1579 -0.6384 -0.2468
  755MOL0     C 1822   6.096   5.619   4.957 -0.5892  0.1063 -0.6424
  755MOL0     C 1823   6.208   5.696   4.893  0.8939 -0.7589  0.0522
  755MOL0     C 1824   6.330   5.647   4.905  0.0104  0.0498  0.4590
  755MOL0     O 1825   6.450   5.699   4.845  0.2345  0.6446 -0.4633
  755MOL0     C 1826   6.444   5.825   4.768  0.5592  0.4464 -0.5911
  755MOL0     C 1827   6.576   5.843   4.700 -0.0438  0.0605  0.4435
  755MOL0     C 1828   6.617   5.990   4.681  0.2056 -0.4354  0.1653
  755MOL0     C 1829   6.750   6.002   4.609 -0.1165  0.0487 -0.6663
  755MOL0     C 1830   6.806   6.149   4.601  0.5131  0.4498  0.3441
  755MOL0     C 1831   6.944   6.138   4.530 -0.2096  0.5461 -0.2344
  755MOL0     C 1832   6.925   6.122   4.378 -0.3453  0.1159 -0.9497
  755MOL0     C 1833   7.043   6.191   4.310 -0.3434 -1.2690  1.0153
  755MOL0    Cl 1834   7.211   6.165   4.375  0.2187 -0.0143  0.3284
  755MOL0     C 1835   6.357   5.538   4.995  0.4347 -0.1447  1.2327
  755MOL0     C 1836   6.250   5.476   5.066 -0.7620 -0.0471  0.4141
  755MOL0     O 1837   5.935   5.313   4.950 -0.0829  0.1200  0.3679
  755MOL0     C 1838   5.775   5.428   5.253 -0.8190 -0.2301  0.4647
  755MOL0     C 1839   5.655   5.430   5.323 -0.6998 -0.1225 -1.4670
  755MOL0     N 1840   4.773   5.098   5.296  0.6179  0.1667  0.3572
  755MOL0     N 1841   4.734   4.976   5.331  0.3251 -1.0255 -0.0577
  755MOL0     C 1842   4.059   4.356   5.895 -0.3804  0.1654 -0.1441
  755MOL0     C 1843   3.966   4.303   5.975 -1.1799  0.5313  0.0193
  755MOL0     C 1844   3.913   4.218   6.279  0.3146 -0.1384  0.3475
  755MOL0     C 1845   3.994   4.308   6.350  0.7902  0.1049  0.5462
  755MOL0     C 1846   4.132   4.278   6.394  0.6978 -0.1992 -0.0055
  755MOL0     C 1847   4.175   4.147   6.373 -0.3427 -0.5432  0.6359
  755MOL0     O 1848   4.302   4.105   6.417 -0.3836  0.1445  0.6163
  755MOL0     C 1849   4.389   4.204   6.469 -0.6561 -0.7708  0.7918
  755MOL0     C 1850   4.520   4.149   6.446  0.1781  0.3334  0.0960
  755MOL0     C 1851   4.542   4.033   6.542  0.5740  0.4650  0.1278
  755MOL0     C 1852   4.642   3.931   6.481 -0.5010  0.2030  1.1560
  755MOL0     C 1853   4.688   3.836   6.572 -0.4728  1.1055 -0.5059
  755MOL0     C 1854   4.738   3.740   6.625  0.3239  0.1607  0.3985
  755MOL0     C 1855   4.095   4.048   6.306 -0.1759  0.6820 -0.4016
  755MOL0     C 1856   3.963   4.083   6.263 -1.4711  0.0909  1.0174
  755MOL0     C 1857   3.880   3.976   6.202  0.6140 -0.3905 -1.0684
  755MOL0     H 1858   3.818   4.594   6.091 -0.4521  0.6895 -0.9538
  755MOL0     H 1859   3.996   4.686   5.960  0.7337 -0.9416 -3.4349
  755MOL0     H 1860   4.232   4.712   5.688  1.5395 -0.2023  0.4361
  755MOL0     H 1861   4.104   4.748   5.811  0.7473  2.2929  0.1047
  755MOL0     H 1862   4.278   4.689   5.983  0.8355 -0.1910  0.3630
  755MOL0     H 1863   4.325   4.830   5.882 -0.9958  0.8170  1.2652
  755MOL0     H 1864   4.410   4.548   5.799  1.4059 -0.6830 -0.1155
  755MOL0     H 1865   4.509   4.627   5.915  1.2175 -4.4222 -1.3705
  755MOL0     H 1866   4.440   4.745   5.648 -0.0797  1.8498  0.3563
  755MOL0     H 1867   4.517   4.845   5.769 -0.8383  0.2969  0.6472
  755MOL0     H 1868   4.701   4.673   5.764 -1.0970 -0.2510  1.1885
  755MOL0     H 1869   4.628   4.581   5.639  2.1980  0.0489  0.3182
  755MOL0     H 1870   4.623   4.786   5.496 -0.3782  2.2200 -0.4689
  755MOL0     H 1871   4.716   4.877   5.609  0.3549  0.6239 -0.7884
  755MOL0     H 1872   4.803   4.601   5.499  2.2738 -0.5899  1.2225
  755MOL0     H 1873   4.918   4.707   5.576 -0.9186 -2.3820  1.0660
  755MOL0     H 1874   4.952   4.739   5.349  0.4215  0.5044  2.7299
  755MOL0     H 1875   4.792   4.705   5.306 -0.3338 -0.8995  0.5401
  755MOL0     H 1876   5.052   4.960   5.402 -0.1837  1.0683 -0.1628
  755MOL0     H 1877   5.083   5.171   5.220 -0.9207 -1.4278  0.2429
  755MOL0     H 1878   4.956   5.296   5.247  0.1209  0.3571 -0.8032
  755MOL0     H 1879   5.015   5.282   5.507 -1.6392 -3.4539 -1.0869
  755MOL0     H 1880   5.138   5.180   5.478  0.3469  0.4249 -0.8664
  755MOL0     H 1881   5.244   5.381   5.517  0.4239 -0.4096 -0.7415
  755MOL0     H 1882   5.164   5.460   5.375 -0.2077  0.2258 -1.2728
  755MOL0     H 1883   5.287   5.339   5.223 -1.4753 -0.1790  0.7357
  755MOL0     H 1884   5.304   5.203   5.325 -1.2366  0.0809  0.9107
  755MOL0     H 1885   5.494   5.180   5.154 -1.7448  2.8074  0.4648
  755MOL0     H 1886   5.693   5.200   5.012 -0.8396 -1.0009  1.8261
  755MOL0     H 1887   5.991   5.632   4.935 -0.5998 -0.8686 -1.2385
  755MOL0     H 1888   6.203   5.790   4.839  1.5440 -0.7728 -0.0394
  755MOL0     H 1889   6.362   5.833   4.696 -0.3955 -1.0324  0.2489
  755MOL0     H 1890   6.425   5.905   4.841 -1.5219  0.1728 -0.7552
  755MOL0     H 1891   6.640   5.793   4.773  0.2307  0.7405  0.6765
  755MOL0     H 1892   6.577   5.789   4.606  1.4657 -1.4294  1.2695
  755MOL0     H 1893   6.539   6.034   4.617  1.4985 -1.2432 -2.1125
  755MOL0     H 1894   6.628   6.032   4.781  0.0267 -0.4771  0.2018
  755MOL0     H 1895   6.729   5.969   4.506  1.3297 -1.0966 -0.6272
  755MOL0     H 1896   6.826   5.936   4.651  0.5901  1.1699 -0.1399
  755MOL0     H 1897   6.809   6.184   4.705 -2.6549  1.2791  0.2578
  755MOL0     H 1898   6.736   6.208   4.542  0.2650  0.2031  0.3908
  755MOL0     H 1899   6.987   6.238   4.544 -0.9795  0.7184  1.1033
  755MOL0     H 1900   7.012   6.063   4.569 -0.4080 -1.2736 -3.1090
  755MOL0     H 1901   6.828   6.163   4.348 -1.8415  1.3565  4.3942
  755MOL0     H 1902   6.918   6.017   4.349 -0.8574 -0.1465  0.0673
  755MOL0     H 1903   7.049   6.161   4.205 -2.1741 -2.1950  1.1328
  755MOL0     H 1904   7.028   6.298   4.323  0.5856 -0.9991  0.0036
  755MOL0     H 1905   6.461   5.507   4.999  1.3165  1.7124 -2.6709
  755MOL0     H 1906   6.289   5.394   5.126  0.7107  1.1780  1.1949
  755MOL0     H 1907   5.861   5.489   5.278 -0.4793 -1.4083  2.3171
  755MOL0     H 1908   5.633   5.489   5.411 -0.5532  0.3807 -1.7638
  755MOL0     H 1909   4.131   4.297   5.837  0.8993 -0.6378  2.1283
  755MOL0     H 1910   3.964   4.195   5.982 -3.4100  0.6428  2.8470
  755MOL0     H 1911   3.951   4.406   6.370 -1.1233 -0.5245 -0.2390
  755MOL0     H 1912   4.187   4.353   6.450  0.2376 -1.0398  1.6212
  755MOL0     H 1913   4.370   4.214   6.576 -1.5156 -0.0228  0.5832
  755MOL0     H 1914   4.394   4.303   6.421 -3.6661  0.0916  2.0332
  755MOL0     H 1915   4.589   4.230   6.471  0.8980 -0.3063  0.2232
  755MOL0     H 1916   4.531   4.116   6.342  0.5300 -0.0965  0.2656
  755MOL0     H 1917   4.448   3.987   6.573  1.2412  0.6201  2.6631
  755MOL0     H 1918   4.583   4.062   6.640  1.1705  0.1658 -0.0352
  755MOL0     H 1919   4.606   3.864   6.403  0.7969  0.5530  0.2135
  755MOL0     H 1920   4.731   3.987   6.449 -0.8526  0.4498  0.5899
  755MOL0     H 1921   4.793   3.657   6.666 -1.0677 -1.5689 -1.0971
  755MOL0     H 1922   4.133   3.947   6.293 -1.4952  0.3375 -1.8082
  755MOL0     H 1923   3.825   4.020   6.118  1.2720  2.5415 -0.0945
  755MOL0     H 1924   3.932   3.887   6.165 -0.8105 -1.2528 -1.1072
  755MOL0     H 1925   3.821   3.936   6.285  2.0736 -0.5036 -0.0620
  756MOL0     O 1926   4.548   8.448  10.515 -0.5698  0.2959  0.0077
  756MOL0     C 1927   4.472   8.448  10.427  0.2363  0.5701 -0.4447
  756MOL0     O 1928   4.505   8.500  10.305  0.9109  1.1466  0.0208
  756MOL0     C 1929   4.622   8.571  10.280 -0.2740  1.5184 -0.0023
  756MOL0     C 1930   4.652   8.687  10.358 -0.0811 -0.2443 -0.0626
  756MOL0     C 1931   4.785   8.748  10.352  0.5212  0.6114 -0.9599
  756MOL0     C 1932   4.879   8.700  10.254 -0.5732  0.0332  0.4002
  756MOL0     O 1933   4.993   8.770  10.223 -0.8599 -0.2597 -0.1627
  756MOL0     C 1934   5.054   8.760  10.089  0.1160  0.6231 -0.6264
  756MOL0     C 1935   5.163   8.866  10.067  0.3394 -0.5400  0.5870
  756MOL0     C 1936   5.276   8.829  10.156  0.0939 -1.0544  0.0450
  756MOL0     C 1937   5.378   8.741  10.089 -0.1178  0.0780 -1.0046
  756MOL0     C 1938   5.475   8.693  10.188  0.7154  0.8268 -0.8976
  756MOL0     C 1939   5.582   8.618  10.124 -0.1032  0.7380  0.3026
  756MOL0     C 1940   5.665   8.551  10.232 -0.0506 -0.8518  0.8434
  756MOL0     C 1941   5.740   8.427  10.174 -0.1790  0.1522  0.5104
  756MOL0     N 1942   5.831   8.385  10.280 -0.6262  0.5837 -0.0757
  756MOL0     C 1943   5.913   8.459  10.361  0.4458 -0.6070  0.4299
  756MOL0     C 1944   5.949   8.385  10.462 -0.1115  0.1534 -1.0944
  756MOL0     C 1945   6.050   8.413  10.581 -0.5585  0.1037 -0.3021
  756MOL0     C 1946   6.142   8.532  10.543  0.3598  0.1744 -0.0392
  756MOL0     C 1947   6.240   8.567  10.655  0.6131  0.5338  0.3571
  756MOL0     C 1948   6.313   8.697  10.645 -0.2803  0.3400  0.0938
  756MOL0     O 1949   6.419   8.676  10.552 -0.3117 -0.2783 -0.2646
  756MOL0     C 1950   6.517   8.775  10.540  0.2564 -0.0131 -0.6788
  756MOL0     C 1951   6.524   8.903  10.599  0.3703  0.4668  0.3945
  756MOL0     C 1952   6.639   8.980  10.580 -0.0228  0.1895  0.0993
  756MOL0     C 1953   6.753   8.935  10.509  0.0711 -0.3470 -0.4568
  756MOL0     C 1954   6.879   9.007  10.519 -0.0839 -0.5793 -0.4306
  756MOL0     O 1955   6.909   9.096  10.617  0.1333  0.0190 -0.5411
  756MOL0     C 1956   7.043   9.140  10.624  0.6546  0.0267 -0.2680
  756MOL0     C 1957   7.112   9.201  10.517  0.0993  0.5619  0.6131
  756MOL0     C 1958   7.237   9.257  10.527  1.1952  0.1138  0.3888
  756MOL0     C 1959   7.295   9.278  10.654  0.5873 -0.7251 -0.3069
  756MOL0     O 1960   7.415   9.347  10.662  0.3064  0.3929  0.7870
  756MOL0     C 1961   7.500   9.361  10.774 -0.0384 -0.2904  0.2410
  756MOL0     C 1962   7.619   9.460  10.737  0.1867  0.1927  0.4472
  756MOL0     C 1963   7.721   9.386  10.641 -0.8083  0.3609 -0.3972
  756MOL0     C 1964   7.789   9.477  10.541  0.3670  0.5739 -0.6838
  756MOL0     C 1965   7.940   9.493  10.562 -0.3672 -0.4834 -0.5904
  756MOL0     C 1966   7.975   9.611  10.658  0.2101  0.1712  0.2032
  756MOL0     C 1967   8.123   9.626  10.626  0.1803  0.0233  0.7477
  756MOL0     C 1968   8.180   9.724  10.732 -0.6618  0.2355 -0.8179
  756MOL0    Cl 1969   8.350   9.730  10.708 -0.3229  0.0559  0.5450
  756MOL0     C 1970   7.230   9.224  10.763  0.1928  0.6556  0.8766
  756MOL0     C 1971   7.103   9.159  10.750 -0.0679  0.7615  0.0703
  756MOL0     O 1972   6.961   8.960  10.441  0.4018  0.7571  0.3623
  756MOL0     C 1973   6.729   8.811  10.442  0.1548  0.1535  0.2970
  756MOL0     C 1974   6.619   8.737  10.455 -1.0328  0.4228 -0.6092
  756MOL0     N 1975   5.897   8.259  10.440 -0.2484  0.0377  0.3030
  756MOL0     N 1976   5.823   8.257  10.334  0.7637  0.9065  0.4280
  756MOL0     C 1977   4.836   8.588  10.185 -0.2688  0.2640  0.5892
  756MOL0     C 1978   4.713   8.519  10.196 -0.1161  0.2957  1.0786
  756MOL0     C 1979   4.348   8.368  10.420  0.3561 -0.2100 -0.4183
  756MOL0     C 1980   4.329   8.280  10.525  0.6918 -0.4758 -0.1947
  756MOL0     C 1981   4.211   8.207  10.533  0.0683  0.2538  0.4249
  756MOL0     C 1982   4.111   8.213  10.439  0.3438 -0.4263 -1.0138
  756MOL0     O 1983   4.014   8.117  10.446  0.3478 -0.5826  0.1477
  756MOL0     C 1984   3.923   8.106  10.335  0.5579 -0.1359 -0.2859
  756MOL0     C 1985   3.842   7.972  10.348 -0.9431  0.1396 -0.2784
  756MOL0     C 1986   3.792   7.953  10.496 -0.5405  0.4084 -0.6763
  756MOL0     C 1987   3.794   7.799  10.537 -0.2798 -0.0484 -0.4883
  756MOL0     C 1988   3.934   7.764  10.543 -0.2655  0.0250 -0.8285
  756MOL0     C 1989   4.061   7.749  10.547  1.1622 -0.2856 -0.5833
  756MOL0     C 1990   4.131   8.293  10.331  0.3178 -0.9832  0.2413
  756MOL0     C 1991   4.239   8.372  10.323 -0.3441  0.0832 -0.2854
  756MOL0     C 1992   4.259   8.449  10.192  0.1787 -0.3302  0.0608
  756MOL0     H 1993   4.579   8.727  10.427  0.1255 -0.3478  0.2186
  756MOL0     H 1994   4.812   8.827  10.420 -0.4174 -0.3912  0.6512
  756MOL0     H 1995   5.101   8.661  10.078  2.1851  1.4228  0.4666
  756MOL0     H 1996   4.972   8.783  10.020 -0.6508 -0.9518 -0.3062
  756MOL0     H 1997   5.117   8.961  10.099 -0.3802 -0.3378 -0.9462
  756MOL0     H 1998   5.194   8.870   9.963  1.0449  2.7875  0.8110
  756MOL0     H 1999   5.241   8.787  10.250 -1.3278 -0.2023 -0.0699
  756MOL0     H 2000   5.313   8.924  10.194  1.2611 -1.4601 -0.0378
  756MOL0     H 2001   5.323   8.658  10.044  0.5019 -0.0197 -1.5931
  756MOL0     H 2002   5.425   8.800  10.010 -0.0220  2.7707  0.9284
  756MOL0     H 2003   5.526   8.779  10.231  1.0843  0.5024 -0.6878
  756MOL0     H 2004   5.422   8.631  10.261 -0.4747  1.5740 -1.0963
  756MOL0     H 2005   5.536   8.547  10.056  2.0379 -0.0832 -0.3644
  756MOL0     H 2006   5.659   8.678  10.075 -0.3178  3.7223  3.2304
  756MOL0     H 2007   5.601   8.528  10.317 -2.1018  2.6014  0.4056
  756MOL0     H 2008   5.734   8.629  10.264  0.9120 -0.6603 -1.4473
  756MOL0     H 2009   5.669   8.345  10.167 -0.5404  0.1926  2.8065
  756MOL0     H 2010   5.780   8.455  10.076  1.3898  2.9798  1.8179
  756MOL0     H 2011   5.938   8.565  10.354 -0.3983 -0.2803  1.8931
  756MOL0     H 2012   5.982   8.433  10.665 -1.9596  0.9079 -1.5850
  756MOL0     H 2013   6.124   8.334  10.595  0.7569  1.0407 -1.7434
  756MOL0     H 2014   6.183   8.505  10.445 -0.8557 -0.9632 -0.2579
  756MOL0     H 2015   6.096   8.630  10.526  2.2504  1.6371  2.6556
  756MOL0     H 2016   6.300   8.478  10.678 -2.9163 -2.4003 -0.8324
  756MOL0     H 2017   6.179   8.567  10.746 -1.7802 -0.3316 -1.1582
  756MOL0     H 2018   6.360   8.730  10.738 -0.8768 -2.5350  1.5066
  756MOL0     H 2019   6.249   8.777  10.605  0.7576  1.0651 -0.1659
  756MOL0     H 2020   6.451   8.945  10.667 -2.2967 -2.1690 -0.6125
  756MOL0     H 2021   6.660   9.072  10.632  0.3150  1.0680 -1.5058
  756MOL0     H 2022   7.062   9.208  10.421 -1.6841  0.3485  1.4833
  756MOL0     H 2023   7.273   9.306  10.437  1.1926  1.6520  1.1936
  756MOL0     H 2024   7.442   9.405  10.856 -2.9920  0.0631 -1.8738
  756MOL0     H 2025   7.534   9.261  10.803 -0.2160 -1.4722 -3.1549
  756MOL0     H 2026   7.579   9.550  10.690  0.9793 -0.4591 -1.5626
  756MOL0     H 2027   7.667   9.487  10.832 -0.0535  0.7126  0.4215
  756MOL0     H 2028   7.796   9.340  10.707  0.2041  1.8551 -0.4408
  756MOL0     H 2029   7.678   9.302  10.587 -1.9721 -0.3988  1.6189
  756MOL0     H 2030   7.732   9.569  10.531 -4.5392 -2.0378  0.2531
  756MOL0     H 2031   7.773   9.423  10.447  2.3250 -0.6629 -0.3645
  756MOL0     H 2032   7.982   9.512  10.463 -0.5279 -0.5964 -0.6813
  756MOL0     H 2033   7.987   9.401  10.599 -1.8719 -0.9972  0.1527
  756MOL0     H 2034   7.911   9.696  10.631  0.7306  0.6946  0.6033
  756MOL0     H 2035   7.959   9.592  10.764 -0.7992 -1.2830 -0.1647
  756MOL0     H 2036   8.141   9.677  10.531  2.3009 -0.0730  1.0616
  756MOL0     H 2037   8.187   9.537  10.628  0.3044  0.1165  1.0298
  756MOL0     H 2038   8.132   9.822  10.725 -1.5679 -0.3111 -3.5674
  756MOL0     H 2039   8.173   9.687  10.835 -0.8987  2.4676  0.0247
  756MOL0     H 2040   7.277   9.249  10.858 -1.5211  3.4705  1.0848
  756MOL0     H 2041   7.071   9.114  10.844  1.6652 -1.2152 -0.2170
  756MOL0     H 2042   6.813   8.777  10.382  1.4916  0.4930  1.8914
  756MOL0     H 2043   6.611   8.646  10.396  1.4831 -0.3614  0.1149
  756MOL0     H 2044   4.905   8.549  10.111 -0.4807  1.5376 -0.3120
  756MOL0     H 2045   4.701   8.428  10.140 -0.8603 -1.3631  3.7298
  756MOL0     H 2046   4.401   8.273  10.606  1.4776  0.1374 -0.8307
  756MOL0     H 2047   4.203   8.142  10.620 -1.8981 -0.4012 -0.2066
  756MOL0     H 2048   3.989   8.083  10.251  2.5785  0.8193  0.9477
  756MOL0     H 2049   3.866   8.199  10.331  2.6993  1.2301 -0.4177
  756MOL0     H 2050   3.903   7.888  10.313  1.4663 -0.2045  4.1235
  756MOL0     H 2051   3.749   7.975  10.290 -0.0969  0.0469 -1.7002
  756MOL0     H 2052   3.688   7.988  10.501 -0.4595  0.4742  1.0191
  756MOL0     H 2053   3.847   8.011  10.570  0.3530 -1.6497  0.3300
  756MOL0     H 2054   3.746   7.793  10.635  0.4257  1.0807 -0.0456
  756MOL0     H 2055   3.746   7.726  10.472  0.0024 -3.2350  2.5628
  756MOL0     H 2056   4.168   7.742  10.544  1.2280  0.0421  0.7249
  756MOL0     H 2057   4.064   8.295  10.245  0.5850 -0.1580  0.0517
  756MOL0     H 2058   4.268   8.558  10.194  2.8357 -0.5049  0.0244
  756MOL0     H 2059   4.346   8.410  10.138  1.0471  1.2308  0.2877
  756MOL0     H 2060   4.175   8.435  10.122 -0.6091  2.6026  0.2845
  757MOL0     O 2061  11.126  10.085   1.613  0.2758  0.0056  0.2631
  757MOL0     C 2062  11.129  10.070   1.736  0.2427 -0.5658 -0.1608
  757MOL0     O 2063  11.219  10.142   1.813 -0.1577  0.4506 -0.3412
  757MOL0     C 2064  11.318  10.211   1.754 -0.4808  0.4853  1.0202
  757MOL0     C 2065  11.454  10.191   1.772  0.4275  0.0480 -0.0598
  757MOL0     C 2066  11.549  10.268   1.712  0.1000  0.0308  0.5079
  757MOL0     C 2067  11.516  10.387   1.641 -0.2396  0.1146  0.2090
  757MOL0     O 2068  11.614  10.470   1.604  0.1445  0.6071  0.2276
  757MOL0     C 2069  11.648  10.470   1.461  0.1566  0.1760  0.2461
  757MOL0     C 2070  11.741  10.370   1.409  0.5314 -0.6486 -1.8142
  757MOL0     C 2071  11.804  10.418   1.279 -0.1398  0.6690 -0.6991
  757MOL0     C 2072  11.711  10.438   1.153  0.2430  0.4395 -1.1314
  757MOL0     C 2073  11.685  10.316   1.059  0.0945  0.3224 -0.2182
  757MOL0     C 2074  11.614  10.354   0.927  0.4542 -0.1046  0.5551
  757MOL0     C 2075  11.573  10.223   0.838 -0.4891  0.3014  0.3949
  757MOL0     C 2076  11.524  10.284   0.708 -0.1959 -0.3751  0.1567
  757MOL0     N 2077  11.525  10.214   0.579  0.3055  1.5981 -0.0865
  757MOL0     C 2078  11.517  10.075   0.574 -0.2201  0.0293  0.4119
  757MOL0     C 2079  11.542  10.046   0.448 -0.3328  0.0862 -0.1650
  757MOL0     C 2080  11.550   9.912   0.390  0.1441 -0.2763  0.8565
  757MOL0     C 2081  11.698   9.891   0.353 -0.0783 -0.6729  0.0893
  757MOL0     C 2082  11.727   9.763   0.284  0.4329  0.5184  0.6558
  757MOL0     C 2083  11.873   9.771   0.240  0.2128 -0.7400  1.1966
  757MOL0     O 2084  11.944   9.747   0.351 -0.1753 -0.7108  0.4480
  757MOL0     C 2085  12.078   9.765   0.332 -0.4254  0.6187  0.3709
  757MOL0     C 2086  12.140   9.778   0.449 -0.1558  0.4675 -0.3014
  757MOL0     C 2087  12.275   9.792   0.464  1.8226 -0.3570 -0.6114
  757MOL0     C 2088  12.349   9.799   0.352  0.4417  0.0583  0.0094
  757MOL0     C 2089  12.487   9.822   0.367 -0.0306  0.0415 -0.9893
  757MOL0     O 2090  12.540   9.930   0.300  0.1044 -0.0828  0.3630
  757MOL0     C 2091  12.669   9.979   0.303 -0.9088 -1.0181  0.0690
  757MOL0     C 2092  12.749  10.007   0.421  0.2564 -0.5982 -0.2947
  757MOL0     C 2093  12.880  10.063   0.389 -0.2505  0.2437 -0.8926
  757MOL0     C 2094  12.933  10.081   0.257  0.2090  0.0262 -0.2066
  757MOL0     O 2095  13.056  10.135   0.251  0.5639  0.0926 -0.1125
  757MOL0     C 2096  13.141  10.118   0.140 -0.6245 -0.0969  0.5207
  757MOL0     C 2097  13.265  10.027   0.167  0.7357  0.2764 -0.4729
  757MOL0     C 2098  13.225   9.879   0.179 -0.6461  0.4326 -0.6073
  757MOL0     C 2099  13.351   9.817   0.245  0.3821  0.3292  0.0512
  757MOL0     C 2100  13.327   9.668   0.266  0.0084 -0.0257  0.3745
  757MOL0     C 2101  13.445   9.608   0.342  0.2412 -0.5615 -0.2635
  757MOL0     C 2102  13.410   9.459   0.361 -0.7680 -0.7924 -0.5264
  757MOL0     C 2103  13.522   9.393   0.442  0.0249 -0.4308  0.1267
  757MOL0    Cl 2104  13.512   9.402   0.626 -0.0914  0.2634 -0.1174
  757MOL0     C 2105  12.857  10.037   0.152 -0.7400 -0.0983  0.7234
  757MOL0     C 2106  12.727   9.986   0.167 -0.2008 -0.0624 -0.2157
  757MOL0     O 2107  12.551   9.744   0.438  0.7470 -0.0790  0.2389
  757MOL0     C 2108  12.295   9.808   0.219  0.5773  0.8549 -0.6862
  757MOL0     C 2109  12.157   9.776   0.214  0.6063 -0.2916 -0.7494
  757MOL0     N 2110  11.560  10.167   0.374  0.1201  0.8557 -1.0582
  757MOL0     N 2111  11.557  10.264   0.459 -0.6958 -0.2126 -0.4549
  757MOL0     C 2112  11.390  10.419   1.629  0.3592  0.3207 -0.2947
  757MOL0     C 2113  11.291  10.328   1.682 -0.0012  0.2474  0.0193
  757MOL0     C 2114  11.027   9.973   1.811  0.0067 -0.5338  0.1729
  757MOL0     C 2115  11.044   9.950   1.952 -0.3013 -0.2227 -0.4130
  757MOL0     C 2116  10.957   9.859   2.010  0.6134 -0.4215 -0.8021
  757MOL0     C 2117  10.851   9.793   1.950  0.1303 -0.7607  0.5408
  757MOL0     O 2118  10.775   9.694   2.015  0.3688  0.6914  0.0985
  757MOL0     C 2119  10.745   9.729   2.151  0.4801 -0.3235 -0.0097
  757MOL0     C 2120  10.626   9.643   2.186 -0.4068  0.2432 -0.0084
  757MOL0     C 2121  10.507   9.659   2.097 -0.4641 -0.1170 -0.1124
  757MOL0     C 2122  10.382   9.627   2.172 -0.1573  0.0928  0.6511
  757MOL0     C 2123  10.321   9.731   2.258  0.1283 -0.5438 -0.0793
  757MOL0     C 2124  10.268   9.811   2.328 -0.1535 -0.2579 -0.0108
  757MOL0     C 2125  10.833   9.823   1.814 -0.5358 -0.0396 -0.3236
  757MOL0     C 2126  10.921   9.908   1.743  0.0211 -0.3884 -0.5194
  757MOL0     C 2127  10.900   9.938   1.597 -0.8015 -0.2580 -0.6920
  757MOL0     H 2128  11.486  10.099   1.821 -0.3784  0.0489  0.4884
  757MOL0     H 2129  11.646  10.224   1.731 -1.7359 -4.0898  1.4744
  757MOL0     H 2130  11.550  10.461   1.412 -0.4862 -0.0930  1.5276
  757MOL0     H 2131  11.684  10.572   1.442  0.0589  0.3536  0.9723
  757MOL0     H 2132  11.704  10.268   1.394  0.9262 -0.8204 -1.6248
  757MOL0     H 2133  11.821  10.359   1.483 -1.0437 -2.1442 -0.2198
  757MOL0     H 2134  11.897  10.360   1.269 -0.5443 -0.6006  1.9849
  757MOL0     H 2135  11.833  10.523   1.292 -0.3573  0.5293  1.3299
  757MOL0     H 2136  11.612  10.471   1.188  1.7075  2.4083  1.4627
  757MOL0     H 2137  11.761  10.511   1.089  1.8007 -0.4022 -0.9085
  757MOL0     H 2138  11.784  10.277   1.036  0.4792  0.8294  0.5567
  757MOL0     H 2139  11.629  10.238   1.111 -1.6450  1.4104 -0.3524
  757MOL0     H 2140  11.523  10.411   0.949 -1.0588 -2.2978  0.3338
  757MOL0     H 2141  11.684  10.425   0.884 -0.7051  1.8642  1.7612
  757MOL0     H 2142  11.499  10.161   0.891 -0.1949  1.3330  2.0897
  757MOL0     H 2143  11.659  10.155   0.831 -0.6343 -0.3371  3.4764
  757MOL0     H 2144  11.418  10.308   0.722 -0.2314  0.0875 -0.8761
  757MOL0     H 2145  11.574  10.379   0.691  0.3301 -0.1946  2.4083
  757MOL0     H 2146  11.489  10.011   0.657  1.9598 -2.4305 -0.6287
  757MOL0     H 2147  11.502   9.842   0.459 -2.1161  2.7308  2.5969
  757MOL0     H 2148  11.493   9.900   0.297 -1.0980 -0.1037  1.5680
  757MOL0     H 2149  11.709   9.972   0.280 -1.8658  0.9295  1.4767
  757MOL0     H 2150  11.764   9.911   0.439  1.9654 -2.3951 -0.9823
  757MOL0     H 2151  11.652   9.747   0.206  2.0402 -2.3112 -0.4291
  757MOL0     H 2152  11.721   9.679   0.354  1.8322 -0.8081 -0.7573
  757MOL0     H 2153  11.898   9.864   0.189  0.5359 -1.5283 -0.1397
  757MOL0     H 2154  11.884   9.699   0.158 -0.8100 -1.0199  1.3009
  757MOL0     H 2155  12.074   9.778   0.535  1.7497 -3.2755  1.4010
  757MOL0     H 2156  12.309   9.801   0.566  1.3619 -3.1406 -0.1091
  757MOL0     H 2157  12.719   9.994   0.524  2.0897  3.3358  0.9387
  757MOL0     H 2158  12.942  10.096   0.471  0.8600 -0.3129 -1.4899
  757MOL0     H 2159  13.103  10.069   0.050  3.9868 -0.1997 -1.6534
  757MOL0     H 2160  13.169  10.218   0.105 -0.6659 -0.6300 -1.1425
  757MOL0     H 2161  13.331  10.033   0.080  0.0169  0.3325 -1.0314
  757MOL0     H 2162  13.314  10.063   0.258 -0.9078  0.1015  0.5230
  757MOL0     H 2163  13.133   9.854   0.232 -0.7567  1.4991 -0.2792
  757MOL0     H 2164  13.207   9.832   0.081  0.9071 -3.1773  0.6707
  757MOL0     H 2165  13.370   9.885   0.329 -0.0361  1.7017 -0.9324
  757MOL0     H 2166  13.438   9.821   0.179  0.7460 -2.5915  0.2295
  757MOL0     H 2167  13.324   9.635   0.161  1.0929  0.5938  0.1363
  757MOL0     H 2168  13.230   9.653   0.314 -0.3299  3.2048  0.9224
  757MOL0     H 2169  13.541   9.613   0.291 -0.2647 -0.7938 -1.2627
  757MOL0     H 2170  13.455   9.661   0.437 -2.7281 -1.2992  0.5577
  757MOL0     H 2171  13.400   9.410   0.264  0.1043  1.0449 -1.6082
  757MOL0     H 2172  13.311   9.452   0.408 -2.6004 -1.5587 -4.1779
  757MOL0     H 2173  13.533   9.285   0.431  0.7872 -0.3169 -0.2711
  757MOL0     H 2174  13.617   9.440   0.415 -1.2371  0.3452 -3.6318
  757MOL0     H 2175  12.886  10.043   0.047  1.2823  0.0764  1.2388
  757MOL0     H 2176  12.675   9.969   0.073  1.6344 -2.5663 -0.9027
  757MOL0     H 2177  12.353   9.832   0.131  0.8073 -0.9865 -1.0843
  757MOL0     H 2178  12.107   9.746   0.122 -2.8058 -2.2525  1.5190
  757MOL0     H 2179  11.368  10.509   1.574  1.5988 -0.2223 -1.7510
  757MOL0     H 2180  11.186  10.355   1.673 -1.1038 -3.3360  0.4503
  757MOL0     H 2181  11.115  10.004   2.014  0.5899 -0.4833 -1.1651
  757MOL0     H 2182  10.964   9.845   2.118  0.9063  2.7428 -0.3302
  757MOL0     H 2183  10.728   9.835   2.170  0.2807 -0.0926 -1.3532
  757MOL0     H 2184  10.837   9.701   2.203  0.2673 -0.3828  0.3355
  757MOL0     H 2185  10.604   9.674   2.288  1.2524 -0.1583  0.4896
  757MOL0     H 2186  10.645   9.535   2.186  1.4389  0.5368  0.3766
  757MOL0     H 2187  10.523   9.591   2.013  0.1940 -2.7905  2.0259
  757MOL0     H 2188  10.499   9.762   2.062  0.5561 -0.4272 -1.3347
  757MOL0     H 2189  10.303   9.603   2.100 -0.5942  1.4139  0.6685
  757MOL0     H 2190  10.407   9.541   2.234  3.5054  0.2645 -0.3794
  757MOL0     H 2191  10.223   9.877   2.400  2.0455 -0.2088  1.4272
  757MOL0     H 2192  10.747   9.781   1.764 -2.8898  2.2648  1.4857
  757MOL0     H 2193  10.972   9.898   1.525 -1.1055 -1.8557 -0.1538
  757MOL0     H 2194  10.804   9.894   1.567 -1.2130 -0.6633  1.1019
  757MOL0     H 2195  10.892  10.046   1.580  3.6030  0.7137  1.9421
  758MOL0     O 2196   0.248  10.172   5.931  0.6398 -0.0167  0.9806
  758MOL0     C 2197   0.281  10.260   6.010 -1.0794 -0.1170  0.8894
  758MOL0     O 2198   0.254  10.391   5.993 -0.1954  0.0360  0.2596
  758MOL0     C 2199   0.210  10.445   5.869 -0.4724  0.4548 -0.5849
  758MOL0     C 2200   0.111  10.548   5.862  0.0593  0.5125  0.6133
  758MOL0     C 2201   0.090  10.613   5.735 -0.2692  0.2264 -0.5985
  758MOL0     C 2202   0.158  10.579   5.621  0.1540 -0.6478  0.1162
  758MOL0     O 2203   0.139  10.635   5.497 -0.7552 -0.2473  0.6180
  758MOL0     C 2204   0.255  10.686   5.434  0.7067 -0.1793  0.0545
  758MOL0     C 2205   0.211  10.733   5.294  0.0118  0.5861  0.0073
  758MOL0     C 2206   0.325  10.802   5.223  0.2032 -0.5339  0.2377
  758MOL0     C 2207   0.290  10.852   5.078 -0.5527  0.3842  0.1874
  758MOL0     C 2208   0.411  10.888   4.992  0.0015 -0.4055  0.4409
  758MOL0     C 2209   0.490  10.994   5.054  0.0267 -0.6365 -0.7786
  758MOL0     C 2210   0.610  11.035   4.967 -0.3185  0.7142  0.6040
  758MOL0     C 2211   0.718  11.113   5.039  0.2501  0.1223 -0.4673
  758MOL0     N 2212   0.769  11.015   5.137 -0.6395  0.4348  0.4398
  758MOL0     C 2213   0.847  10.906   5.104 -0.4827 -0.5084 -0.0895
  758MOL0     C 2214   0.881  10.860   5.221  0.5580  0.8220 -1.4450
  758MOL0     C 2215   0.973  10.748   5.266 -0.3007 -0.6528  0.1052
  758MOL0     C 2216   1.055  10.706   5.143  0.4634 -0.3733  0.0279
  758MOL0     C 2217   1.185  10.632   5.178  0.8616 -1.4049 -0.1400
  758MOL0     C 2218   1.262  10.585   5.057  0.1593 -0.2481  0.3606
  758MOL0     O 2219   1.305  10.688   4.974  0.3950 -0.7026 -0.0844
  758MOL0     C 2220   1.426  10.747   5.010  0.2737  0.7015 -0.0947
  758MOL0     C 2221   1.462  10.863   4.935 -0.2020  0.1563 -0.3256
  758MOL0     C 2222   1.583  10.923   4.949  0.1824 -0.6229 -0.1779
  758MOL0     C 2223   1.680  10.870   5.036 -0.2970 -1.2514  0.7159
  758MOL0     C 2224   1.811  10.935   5.051  0.8248  0.4735 -0.2067
  758MOL0     O 2225   1.875  10.923   5.172  0.4090 -0.4733 -0.1621
  758MOL0     C 2226   2.008  10.914   5.185  0.0534  0.2389 -0.2223
  758MOL0     C 2227   2.082  10.837   5.097  0.7137 -0.0345 -0.2230
  758MOL0     C 2228   2.219  10.817   5.115 -0.2663 -0.0824  0.9803
  758MOL0     C 2229   2.293  10.881   5.220  0.5095 -0.2963  0.3358
  758MOL0     O 2230   2.421  10.858   5.234  0.2578  0.0986 -0.3061
  758MOL0     C 2231   2.497  10.959   5.170 -0.0374 -0.8394  0.0534
  758MOL0     C 2232   2.626  10.902   5.129 -0.4640 -0.5027  0.3816
  758MOL0     C 2233   2.698  11.016   5.057 -0.9674 -0.9405  0.3382
  758MOL0     C 2234   2.848  10.997   5.053  0.2759  0.1661 -0.8465
  758MOL0     C 2235   2.911  11.089   4.959 -0.5196  0.0147 -0.2664
  758MOL0     C 2236   3.061  11.116   5.004  0.6469  0.1431 -1.0026
  758MOL0     C 2237   3.129  11.217   4.918  0.2759  0.0278 -0.2670
  758MOL0     C 2238   3.266  11.238   4.968 -0.5455  0.5299 -0.2299
  758MOL0    Cl 2239   3.376  11.096   4.929  0.0815  0.0996  0.3698
  758MOL0     C 2240   2.216  10.952   5.315 -0.4439  0.3425  0.3968
  758MOL0     C 2241   2.076  10.968   5.297 -0.0333  0.4482 -0.1080
  758MOL0     O 2242   1.852  10.990   4.959 -0.2322 -0.3101  0.6623
  758MOL0     C 2243   1.639  10.773   5.127  0.7464  0.5283  0.4516
  758MOL0     C 2244   1.516  10.710   5.117 -0.4944 -0.3207  0.4358
  758MOL0     N 2245   0.815  10.931   5.320  0.0333  1.4434  0.4118
  758MOL0     N 2246   0.750  11.028   5.267  0.0788  0.2246 -0.7566
  758MOL0     C 2247   0.242  10.460   5.626  0.2651 -0.8025  0.2319
  758MOL0     C 2248   0.264  10.397   5.752  0.1475  0.1222 -0.1072
  758MOL0     C 2249   0.361  10.217   6.130  0.6655  0.0729  0.1023
  758MOL0     C 2250   0.360  10.314   6.231 -1.2662  0.7539 -0.6050
  758MOL0     C 2251   0.430  10.291   6.348 -0.0279 -0.0755 -0.6243
  758MOL0     C 2252   0.493  10.167   6.376 -0.7224  0.4654 -0.4019
  758MOL0     O 2253   0.575  10.136   6.483  0.1807 -0.0929 -0.5883
  758MOL0     C 2254   0.615  10.249   6.563  0.4842  1.0874 -0.1335
  758MOL0     C 2255   0.715  10.210   6.670  0.5033  0.1863  0.3563
  758MOL0     C 2256   0.805  10.318   6.733 -0.5919 -0.6437  0.4914
  758MOL0     C 2257   0.766  10.382   6.863  1.2914 -0.6927 -1.1710
  758MOL0     C 2258   0.863  10.478   6.905 -0.2390 -0.6579  0.2882
  758MOL0     C 2259   0.928  10.573   6.944 -0.0935  0.3412  0.1651
  758MOL0     C 2260   0.488  10.068   6.279  0.7282  0.3584 -0.4604
  758MOL0     C 2261   0.417  10.087   6.152  0.0923  0.3140  0.1400
  758MOL0     C 2262   0.399   9.964   6.065  0.2730  0.4032 -0.6056
  758MOL0     H 2263   0.057  10.595   5.944  0.0535 -3.2709  3.0301
  758MOL0     H 2264   0.008  10.684   5.742 -0.9115 -0.6470  1.5477
  758MOL0     H 2265   0.298  10.771   5.487 -2.3235  1.0941  0.6577
  758MOL0     H 2266   0.335  10.615   5.412  2.1440  2.3671 -4.2098
  758MOL0     H 2267   0.128  10.805   5.296 -0.4543  0.0768  2.8260
  758MOL0     H 2268   0.176  10.646   5.238 -0.4997  0.9942 -0.3135
  758MOL0     H 2269   0.419  10.746   5.221  2.0571  2.4025  0.0090
  758MOL0     H 2270   0.343  10.886   5.290 -1.5377  0.6189 -0.6660
  758MOL0     H 2271   0.251  10.771   5.015 -1.1734  2.5896 -2.4619
  758MOL0     H 2272   0.206  10.922   5.075 -1.5649 -0.7630  0.9563
  758MOL0     H 2273   0.469  10.795   4.981  1.7566  0.8311 -1.7288
  758MOL0     H 2274   0.368  10.923   4.898 -0.5526 -0.6109  0.6155
  758MOL0     H 2275   0.437  11.090   5.056 -1.3856 -1.3105 -2.8367
  758MOL0     H 2276   0.517  10.959   5.155  1.1816 -2.8047 -1.7782
  758MOL0     H 2277   0.573  11.093   4.882 -1.1684 -1.7981 -0.8366
  758MOL0     H 2278   0.654  10.942   4.929 -0.4879  0.4772  0.9726
  758MOL0     H 2279   0.797  11.146   4.971  0.7580  0.3017  0.1941
  758MOL0     H 2280   0.683  11.201   5.094  1.6640 -0.8012  2.0835
  758MOL0     H 2281   0.864  10.866   5.004  0.5571 -2.2024  0.7169
  758MOL0     H 2282   1.037  10.797   5.340  2.6179 -5.1055  0.9024
  758MOL0     H 2283   0.918  10.673   5.324 -2.0656 -1.2602 -2.2272
  758MOL0     H 2284   0.988  10.654   5.075 -3.6217  0.3260  3.0973
  758MOL0     H 2285   1.082  10.806   5.109 -0.5749  0.2644  1.0005
  758MOL0     H 2286   1.165  10.545   5.241 -0.1255 -0.2010  1.2745
  758MOL0     H 2287   1.241  10.702   5.241 -1.9009  0.0949  0.8140
  758MOL0     H 2288   1.191  10.519   5.008 -0.0725  0.1547  0.1524
  758MOL0     H 2289   1.344  10.517   5.085  0.3454 -1.8074 -3.4147
  758MOL0     H 2290   1.392  10.917   4.872 -0.9935  1.8298  1.8380
  758MOL0     H 2291   1.597  11.001   4.874 -0.7806  0.3238  0.6012
  758MOL0     H 2292   2.032  10.783   5.017 -0.4988  2.8498 -1.5498
  758MOL0     H 2293   2.262  10.755   5.038  2.1310  3.2735 -0.6517
  758MOL0     H 2294   2.445  11.007   5.086 -2.0957  0.0620  1.7428
  758MOL0     H 2295   2.499  11.036   5.248  1.5905 -1.8381  1.0617
  758MOL0     H 2296   2.678  10.865   5.218 -1.1890  0.7892  1.3688
  758MOL0     H 2297   2.610  10.818   5.060 -0.8556 -0.5159  0.4877
  758MOL0     H 2298   2.668  11.022   4.952  1.2162 -0.8058 -0.3258
  758MOL0     H 2299   2.679  11.115   5.098  1.0158 -0.0300 -0.7858
  758MOL0     H 2300   2.892  10.901   5.028  2.3630  0.6191  0.7856
  758MOL0     H 2301   2.888  11.019   5.153  0.0594 -0.3651 -0.6378
  758MOL0     H 2302   2.868  11.190   4.957  0.4688  0.4504 -2.4469
  758MOL0     H 2303   2.915  11.041   4.861  2.0211  0.2136 -0.3205
  758MOL0     H 2304   3.059  11.150   5.108  2.2020 -2.5565  0.0108
  758MOL0     H 2305   3.114  11.020   5.004  1.1568  0.4209 -1.1599
  758MOL0     H 2306   3.076  11.311   4.935 -1.1246 -1.0012  1.3211
  758MOL0     H 2307   3.121  11.187   4.813 -2.1985 -0.7474  0.0710
  758MOL0     H 2308   3.309  11.332   4.931  2.4536 -1.3746 -1.9129
  758MOL0     H 2309   3.256  11.248   5.077 -3.1255 -3.3006  0.0872
  758MOL0     H 2310   2.273  11.004   5.390 -1.0539  1.2653  0.2342
  758MOL0     H 2311   2.026  11.043   5.357 -0.7881  1.3679 -1.8321
  758MOL0     H 2312   1.706  10.750   5.210  0.7437 -0.0839  0.2908
  758MOL0     H 2313   1.495  10.634   5.191  1.0298  1.0064  2.3609
  758MOL0     H 2314   0.292  10.424   5.537  1.0287  1.9746 -0.5709
  758MOL0     H 2315   0.337  10.316   5.753 -0.7353 -0.7180 -0.8428
  758MOL0     H 2316   0.324  10.414   6.213  1.8876  1.8625 -1.4365
  758MOL0     H 2317   0.423  10.373   6.419 -1.4438 -1.3532  0.7973
  758MOL0     H 2318   0.521  10.274   6.614 -1.1818  0.3422 -2.6277
  758MOL0     H 2319   0.662  10.328   6.504 -0.2885  1.1474 -0.6832
  758MOL0     H 2320   0.782  10.147   6.612  0.6873  0.3872  0.3503
  758MOL0     H 2321   0.667  10.144   6.744  0.7184 -0.4068 -0.0213
  758MOL0     H 2322   0.836  10.397   6.664  2.2848 -0.0616  2.2587
  758MOL0     H 2323   0.901  10.272   6.757  0.3321 -0.3558 -2.3560
  758MOL0     H 2324   0.681  10.452   6.861  0.9575 -1.0950 -1.1369
  758MOL0     H 2325   0.762  10.310   6.945  1.1330  1.2204  0.5912
  758MOL0     H 2326   0.985  10.647   6.996  0.1140  0.1871  0.1580
  758MOL0     H 2327   0.538   9.977   6.310  3.9801  2.1753  0.0848
  758MOL0     H 2328   0.451   9.880   6.112  0.1127  0.4655 -0.3126
  758MOL0     H 2329   0.293   9.944   6.045  0.3673 -0.8330 -0.0000
  758MOL0     H 2330   0.447   9.979   5.969 -0.1879 -1.9578 -1.2750
  759MOL0     O 2331   6.612   7.037  10.536 -0.0312  0.0899 -0.0707
  759MOL0     C 2332   6.532   7.026  10.631 -0.0774  0.0003  0.5254
  759MOL0     O 2333   6.541   7.107  10.733  0.1234 -0.1475  0.1981
  759MOL0     C 2334   6.658   7.181  10.746  0.4685  0.3828 -0.1127
  759MOL0     C 2335   6.783   7.117  10.755 -0.1676 -0.0078  0.0029
  759MOL0     C 2336   6.897   7.192  10.787  0.2421  0.0523 -0.7482
  759MOL0     C 2337   6.889   7.326  10.815  0.1490 -0.6461 -0.8983
  759MOL0     O 2338   6.994   7.409  10.848 -0.4015  0.0599  0.0677
  759MOL0     C 2339   7.118   7.394  10.776 -0.0431  0.3526 -0.5176
  759MOL0     C 2340   7.240   7.460  10.842 -0.0051 -0.4815 -0.3658
  759MOL0     C 2341   7.344   7.498  10.743 -0.1754  0.2882  0.8664
  759MOL0     C 2342   7.294   7.598  10.635  0.3270  0.3789 -0.7531
  759MOL0     C 2343   7.408   7.684  10.578 -1.2573 -0.4571  0.5319
  759MOL0     C 2344   7.522   7.610  10.498 -0.4071 -0.3624  0.2327
  759MOL0     C 2345   7.482   7.549  10.361  0.9569 -0.3262  0.0201
  759MOL0     C 2346   7.425   7.643  10.253 -0.4848 -1.0940  0.1512
  759MOL0     N 2347   7.538   7.708  10.187  0.2732 -0.6247 -0.0368
  759MOL0     C 2348   7.618   7.654  10.090 -0.5561 -0.0836  0.7647
  759MOL0     C 2349   7.727   7.736  10.072  0.8736  0.3662 -0.6049
  759MOL0     C 2350   7.838   7.712   9.973  0.1018  0.6522 -0.1870
  759MOL0     C 2351   7.966   7.682  10.049  0.6236  0.0267  0.0980
  759MOL0     C 2352   8.088   7.657   9.949 -0.6043  0.0628  0.2474
  759MOL0     C 2353   8.204   7.621  10.035 -0.2214 -0.4968 -0.4937
  759MOL0     O 2354   8.303   7.555   9.960  0.6043 -0.2166  0.1068
  759MOL0     C 2355   8.414   7.501  10.024 -0.8886 -0.0502 -1.0124
  759MOL0     C 2356   8.431   7.489  10.161  0.2991  0.6764  0.1881
  759MOL0     C 2357   8.549   7.431  10.210  1.1473  0.7797  0.0011
  759MOL0     C 2358   8.660   7.403  10.125  0.8752 -0.4335 -0.5420
  759MOL0     C 2359   8.792   7.368  10.182 -0.5208  0.2386  0.4826
  759MOL0     O 2360   8.833   7.403  10.307  0.0255 -0.3184 -0.5218
  759MOL0     C 2361   8.960   7.360  10.360 -0.1178 -0.3365  0.5173
  759MOL0     C 2362   8.976   7.335  10.496  0.3133  1.0621 -0.1808
  759MOL0     C 2363   9.099   7.288  10.538 -0.2845 -0.2200 -0.6822
  759MOL0     C 2364   9.217   7.272  10.459 -0.8308 -0.4941  0.1845
  759MOL0     O 2365   9.333   7.235  10.525 -0.2107  0.7126 -0.8668
  759MOL0     C 2366   9.451   7.233  10.444 -0.2293 -0.1294 -0.0468
  759MOL0     C 2367   9.569   7.181  10.529  0.9646  1.1124  1.0039
  759MOL0     C 2368   9.629   7.288  10.611  0.4538  0.2012 -0.0516
  759MOL0     C 2369   9.734   7.218  10.701 -0.4719  0.7474  0.5371
  759MOL0     C 2370   9.790   7.326  10.799  0.0970  1.0216 -0.5377
  759MOL0     C 2371   9.902   7.268  10.883 -0.2347  0.2508  0.5184
  759MOL0     C 2372   9.901   7.287  11.035  0.3448 -0.4353 -0.5992
  759MOL0     C 2373   9.979   7.185  11.120 -0.2511  0.6543 -0.2166
  759MOL0    Cl 2374  10.149   7.180  11.059 -0.0999  0.1295  0.1320
  759MOL0     C 2375   9.201   7.298  10.318 -0.4163  0.1356 -0.0882
  759MOL0     C 2376   9.075   7.341  10.271 -0.1700 -0.0482  0.0387
  759MOL0     O 2377   8.854   7.295  10.102 -0.5945  0.2141  0.3484
  759MOL0     C 2378   8.640   7.421   9.990  0.0756 -0.5228  0.1705
  759MOL0     C 2379   8.517   7.457   9.946  0.0409  0.1353  0.1617
  759MOL0     N 2380   7.703   7.838  10.161 -0.2235 -0.5267  0.3000
  759MOL0     N 2381   7.593   7.830  10.219 -0.0382  0.1377  0.4096
  759MOL0     C 2382   6.761   7.382  10.804 -0.0812 -0.1844  0.4611
  759MOL0     C 2383   6.649   7.314  10.769  0.2026 -0.4200 -0.4354
  759MOL0     C 2384   6.424   6.931  10.641  0.4103 -0.0736  0.6543
  759MOL0     C 2385   6.434   6.823  10.554  0.0048  0.0870 -0.8006
  759MOL0     C 2386   6.343   6.720  10.551  0.4015  0.2128 -0.1137
  759MOL0     C 2387   6.230   6.729  10.623 -0.2924 -0.1684  0.3618
  759MOL0     O 2388   6.144   6.620  10.606 -0.3786  0.6852  0.1496
  759MOL0     C 2389   6.026   6.616  10.693  0.2123  0.7755 -0.4634
  759MOL0     C 2390   5.903   6.541  10.638 -0.2627 -0.0022 -0.4953
  759MOL0     C 2391   5.771   6.584  10.697  0.8053  0.1422  0.9059
  759MOL0     C 2392   5.687   6.451  10.710  0.3667  0.0903  0.0391
  759MOL0     C 2393   5.565   6.449  10.787  0.0760  0.4889 -0.1933
  759MOL0     C 2394   5.463   6.459  10.848 -0.2084  1.0751 -1.2445
  759MOL0     C 2395   6.220   6.838  10.710  1.1827 -0.4357 -0.2530
  759MOL0     C 2396   6.305   6.947  10.711  0.9958  0.6421  0.2655
  759MOL0     C 2397   6.268   7.072  10.792  0.1074 -0.0097  0.2787
  759MOL0     H 2398   6.782   7.011  10.732  3.6727 -0.1114 -0.2972
  759MOL0     H 2399   6.991   7.145  10.813  0.5717  0.9633 -0.2657
  759MOL0     H 2400   7.159   7.293  10.787  0.1537  0.3689 -1.0712
  759MOL0     H 2401   7.104   7.430  10.674  3.5803 -2.3637 -2.2400
  759MOL0     H 2402   7.278   7.387  10.914 -1.0155  4.8583  6.6876
  759MOL0     H 2403   7.211   7.555  10.888 -1.0793  0.7629 -3.3517
  759MOL0     H 2404   7.385   7.419  10.679 -0.4993  0.4453  0.4619
  759MOL0     H 2405   7.434   7.543  10.787 -0.1465  1.1880 -0.0757
  759MOL0     H 2406   7.241   7.542  10.558 -0.0271  1.6349 -1.4606
  759MOL0     H 2407   7.221   7.659  10.689  0.4083 -1.2754  1.3677
  759MOL0     H 2408   7.359   7.772  10.536  0.3233  0.5653  0.7302
  759MOL0     H 2409   7.457   7.731  10.664  0.1679  0.1893 -0.5876
  759MOL0     H 2410   7.600   7.685  10.480 -0.8493 -0.0373 -0.3469
  759MOL0     H 2411   7.574   7.533  10.556 -1.7881  0.9448  3.3977
  759MOL0     H 2412   7.408   7.471  10.383 -1.0208  1.1514 -0.9777
  759MOL0     H 2413   7.574   7.515  10.313 -0.2324 -1.9479 -1.1997
  759MOL0     H 2414   7.372   7.585  10.177  0.6525 -1.5232 -0.3487
  759MOL0     H 2415   7.347   7.711  10.286 -0.1775  0.4755 -2.1324
  759MOL0     H 2416   7.606   7.548  10.068 -0.3719 -0.6940  3.2491
  759MOL0     H 2417   7.805   7.643   9.895  1.2746  0.6257 -0.6688
  759MOL0     H 2418   7.856   7.806   9.919  1.6665 -0.6544 -2.0436
  759MOL0     H 2419   7.998   7.770  10.106 -2.4652  1.7283 -0.5835
  759MOL0     H 2420   7.944   7.592  10.107  1.0405 -0.4642 -0.4981
  759MOL0     H 2421   8.110   7.753   9.901 -2.1626  1.3365  1.9136
  759MOL0     H 2422   8.063   7.585   9.871  1.9876  1.9903 -2.6084
  759MOL0     H 2423   8.161   7.551  10.108 -2.8104 -0.1334 -1.5730
  759MOL0     H 2424   8.231   7.716  10.082 -1.4464 -0.4504  0.1516
  759MOL0     H 2425   8.361   7.530  10.233  2.0489  0.4818  2.0888
  759MOL0     H 2426   8.559   7.420  10.318 -0.1375  0.7865  0.1458
  759MOL0     H 2427   8.894   7.348  10.567 -2.8138 -4.6181 -2.1137
  759MOL0     H 2428   9.113   7.278  10.646  0.8137  0.7923 -0.7131
  759MOL0     H 2429   9.445   7.168  10.356  2.0912 -1.3297  0.5947
  759MOL0     H 2430   9.473   7.335  10.410  0.2908 -1.0412 -2.6453
  759MOL0     H 2431   9.531   7.097  10.588 -1.5089  0.0556 -1.8370
  759MOL0     H 2432   9.650   7.152  10.461 -0.9763 -1.6374 -0.3279
  759MOL0     H 2433   9.681   7.365  10.553 -2.2975  1.0209 -1.6184
  759MOL0     H 2434   9.560   7.342  10.676 -1.1929  4.8499 -4.9651
  759MOL0     H 2435   9.810   7.174  10.635 -1.5594  2.4713 -2.0089
  759MOL0     H 2436   9.694   7.132  10.756  0.0373  0.8393  1.0727
  759MOL0     H 2437   9.711   7.370  10.862  0.4996 -1.7258  2.0946
  759MOL0     H 2438   9.840   7.409  10.747 -0.1396  2.2922  1.1471
  759MOL0     H 2439   9.910   7.162  10.858  0.9641  0.4739 -0.0972
  759MOL0     H 2440   9.995   7.321  10.859  0.0945 -0.7660 -0.5036
  759MOL0     H 2441   9.802   7.276  11.079  0.6815  2.7707  1.3254
  759MOL0     H 2442   9.944   7.380  11.075 -2.0205 -0.2134  1.7299
  759MOL0     H 2443   9.968   7.214  11.225 -0.2797 -2.2552  0.6471
  759MOL0     H 2444   9.931   7.087  11.115  1.2793 -0.0993 -0.7078
  759MOL0     H 2445   9.279   7.294  10.243 -1.8217  3.8498 -2.0223
  759MOL0     H 2446   9.070   7.376  10.168 -1.3114  3.1223  1.0554
  759MOL0     H 2447   8.714   7.406   9.912  1.1463  0.1880  1.0117
  759MOL0     H 2448   8.504   7.450   9.839 -1.3635 -0.4622  0.3481
  759MOL0     H 2449   6.765   7.487  10.832 -3.0813 -0.2686  1.5585
  759MOL0     H 2450   6.554   7.364  10.755  1.5270  2.5163  0.2677
  759MOL0     H 2451   6.516   6.799  10.487  1.4290 -1.2331  1.3036
  759MOL0     H 2452   6.365   6.629  10.496 -3.4518 -0.8055 -0.2525
  759MOL0     H 2453   5.992   6.719  10.711  1.0069  1.1524 -1.0560
  759MOL0     H 2454   6.041   6.566  10.789 -2.3142 -0.2222 -0.5300
  759MOL0     H 2455   5.923   6.434  10.641  1.2131  0.2844  0.7786
  759MOL0     H 2456   5.886   6.573  10.535  0.9234 -0.9340 -1.0009
  759MOL0     H 2457   5.723   6.654  10.628  0.3747 -1.2488 -0.2440
  759MOL0     H 2458   5.787   6.624  10.798 -0.3736 -2.6050  2.2786
  759MOL0     H 2459   5.663   6.414  10.610 -1.6930 -0.9478  0.8704
  759MOL0     H 2460   5.752   6.374  10.755  0.8383  0.0147 -0.7426
  759MOL0     H 2461   5.377   6.474  10.910  0.3258 -2.4645  0.5781
  759MOL0     H 2462   6.133   6.846  10.775  1.3571 -4.3350  0.7056
  759MOL0     H 2463   6.162   7.080  10.816 -0.1611  0.6009 -1.0179
  759MOL0     H 2464   6.323   7.074  10.886 -0.6493 -1.7201  0.7947
  759MOL0     H 2465   6.296   7.152  10.723  0.9368 -0.1372  0.4513
  760MOL0     O 2466   8.121  10.123   2.204 -0.3459 -0.1677  0.3891
  760MOL0     C 2467   8.067  10.115   2.316  0.2155  0.1142 -0.2266
  760MOL0     O 2468   7.937  10.124   2.332 -0.9675  0.6363 -0.7392
  760MOL0     C 2469   7.892  10.142   2.461 -0.0838 -0.5171 -0.2233
  760MOL0     C 2470   7.904  10.270   2.520 -0.6942  0.7855 -0.5567
  760MOL0     C 2471   7.854  10.293   2.648 -0.6770 -0.3129  0.7333
  760MOL0     C 2472   7.793  10.196   2.720 -0.1005 -0.2493 -0.5490
  760MOL0     O 2473   7.741  10.218   2.845 -0.1601 -0.3950  0.2681
  760MOL0     C 2474   7.757  10.345   2.912  0.4040  0.5524 -0.1255
  760MOL0     C 2475   7.700  10.335   3.052  0.2017 -0.0169  0.4489
  760MOL0     C 2476   7.721  10.205   3.123 -0.1149  0.1132  0.3182
  760MOL0     C 2477   7.605  10.107   3.089 -0.6957 -0.2158 -0.8820
  760MOL0     C 2478   7.628   9.963   3.137 -0.2661 -0.9793 -0.1050
  760MOL0     C 2479   7.510   9.863   3.126 -0.7151  1.0166 -0.1158
  760MOL0     C 2480   7.473   9.842   2.969 -0.5527 -1.2255 -0.5718
  760MOL0     C 2481   7.588   9.787   2.883  0.0206 -0.5174  0.5639
  760MOL0     N 2482   7.546   9.766   2.745 -0.4305  0.1040  0.9205
  760MOL0     C 2483   7.536   9.643   2.694 -0.2414 -0.5039 -0.5206
  760MOL0     C 2484   7.466   9.659   2.578  0.8278 -0.5483 -0.4872
  760MOL0     C 2485   7.431   9.541   2.496  0.4726  0.3149  0.4449
  760MOL0     C 2486   7.285   9.505   2.490  0.5466  0.6196 -0.3373
  760MOL0     C 2487   7.222   9.567   2.372  0.5131  0.3161 -0.5250
  760MOL0     C 2488   7.080   9.514   2.347  0.0212 -0.5395 -0.7926
  760MOL0     O 2489   7.091   9.385   2.284  0.0052 -0.7889 -0.2496
  760MOL0     C 2490   6.976   9.314   2.254 -0.4576  0.5845  0.1703
  760MOL0     C 2491   6.850   9.361   2.271 -0.0223 -0.5886  0.0983
  760MOL0     C 2492   6.737   9.282   2.262 -0.4500 -0.5346 -0.7238
  760MOL0     C 2493   6.750   9.144   2.239 -0.7110 -0.4643  0.6940
  760MOL0     C 2494   6.638   9.045   2.240  0.0698  0.1667 -0.4202
  760MOL0     O 2495   6.525   9.082   2.308 -0.5087 -0.6637 -0.7859
  760MOL0     C 2496   6.414   8.998   2.304 -0.0246 -0.3027  0.1836
  760MOL0     C 2497   6.391   8.901   2.409  0.1417  0.1834  0.3671
  760MOL0     C 2498   6.275   8.820   2.399 -0.1743 -0.7701 -0.3830
  760MOL0     C 2499   6.176   8.856   2.306  0.8888 -1.0082  0.2244
  760MOL0     O 2500   6.051   8.796   2.310 -0.7507 -0.3167  0.6256
  760MOL0     C 2501   5.943   8.877   2.354  0.9760 -0.4283  0.0623
  760MOL0     C 2502   5.812   8.810   2.314  0.1742 -0.5457  0.3755
  760MOL0     C 2503   5.686   8.879   2.368 -0.0940 -0.1542 -0.1043
  760MOL0     C 2504   5.647   9.003   2.274  0.3607 -0.2674 -0.4367
  760MOL0     C 2505   5.523   9.099   2.318  0.4345  1.8133 -0.8222
  760MOL0     C 2506   5.458   9.174   2.205  0.7722  0.2766 -0.0007
  760MOL0     C 2507   5.387   9.080   2.109  0.7781 -0.0589  0.4144
  760MOL0     C 2508   5.303   9.158   2.003 -0.7240  0.0748  0.3419
  760MOL0    Cl 2509   5.405   9.286   1.927  0.0702 -0.0145  0.4593
  760MOL0     C 2510   6.200   8.946   2.197  0.2303  0.0432  0.2545
  760MOL0     C 2511   6.324   9.011   2.195 -0.3199 -0.0669  0.2354
  760MOL0     O 2512   6.662   8.932   2.192  0.2256  0.1243 -0.0441
  760MOL0     C 2513   6.881   9.098   2.212  0.1215 -0.0509  0.7637
  760MOL0     C 2514   6.992   9.183   2.218  0.1126  0.5289 -0.9037
  760MOL0     N 2515   7.434   9.787   2.559  0.2665 -0.1653 -0.1891
  760MOL0     N 2516   7.474   9.857   2.658 -0.1704  0.6595 -0.9060
  760MOL0     C 2517   7.781  10.073   2.655  0.0145 -0.2663 -1.3897
  760MOL0     C 2518   7.821  10.042   2.531  0.1763 -0.9495 -0.1305
  760MOL0     C 2519   8.162  10.070   2.420  1.1018 -0.1956  0.8136
  760MOL0     C 2520   8.148   9.945   2.478 -0.2795  0.0653  0.2795
  760MOL0     C 2521   8.240   9.889   2.561 -0.3313  0.5621 -0.1359
  760MOL0     C 2522   8.344   9.967   2.611 -0.1324  0.5715  0.4749
  760MOL0     O 2523   8.425   9.910   2.703 -0.5991 -0.0672 -0.3316
  760MOL0     C 2524   8.541   9.971   2.764 -0.4941 -0.1662  0.1122
  760MOL0     C 2525   8.627   9.878   2.842 -0.2048  0.9869  0.4960
  760MOL0     C 2526   8.570   9.846   2.988 -0.2249  0.1549  0.1216
  760MOL0     C 2527   8.650   9.742   3.066  1.4692  0.2570 -0.4374
  760MOL0     C 2528   8.673   9.614   2.992  0.2214  0.1146 -0.2306
  760MOL0     C 2529   8.724   9.526   2.925 -0.1685  0.8685 -1.2196
  760MOL0     C 2530   8.344  10.104   2.572  0.2234 -1.2127 -0.6907
  760MOL0     C 2531   8.264  10.156   2.473 -0.3744 -0.5551 -0.6833
  760MOL0     C 2532   8.274  10.294   2.424 -0.3161 -1.0949  0.1877
  760MOL0     H 2533   7.949  10.349   2.460 -0.3802  0.1267 -1.2100
  760MOL0     H 2534   7.863  10.397   2.678 -1.6936 -0.1896  0.6577
  760MOL0     H 2535   7.863  10.369   2.925 -0.7446  4.9469  4.3015
  760MOL0     H 2536   7.710  10.426   2.855 -1.4895  1.6646  2.8106
  760MOL0     H 2537   7.594  10.360   3.036  0.7368  3.4805  1.6488
  760MOL0     H 2538   7.744  10.413   3.113  2.0340 -0.8485  0.2580
  760MOL0     H 2539   7.723  10.224   3.231  2.6970  2.6976 -0.0621
  760MOL0     H 2540   7.812  10.146   3.107 -0.9289 -0.7912 -1.1630
  760MOL0     H 2541   7.516  10.150   3.137 -1.2874  0.4482 -2.5202
  760MOL0     H 2542   7.586  10.100   2.982 -0.1499 -0.4758 -0.9651
  760MOL0     H 2543   7.707   9.935   3.067 -0.7232  2.8659 -2.4446
  760MOL0     H 2544   7.662   9.959   3.241 -2.7128 -2.9222  0.7351
  760MOL0     H 2545   7.549   9.771   3.169 -2.3854  0.4010  0.1372
  760MOL0     H 2546   7.421   9.895   3.180 -1.9474 -0.4394 -1.2156
  760MOL0     H 2547   7.426   9.929   2.924 -0.8352 -1.7804 -1.3748
  760MOL0     H 2548   7.404   9.758   2.984  0.5434 -2.0123  0.2448
  760MOL0     H 2549   7.675   9.853   2.877  0.3185 -0.8218  1.3867
  760MOL0     H 2550   7.629   9.699   2.932  0.5556 -0.0263  1.0129
  760MOL0     H 2551   7.570   9.553   2.744  0.5392 -0.3554 -0.7743
  760MOL0     H 2552   7.460   9.568   2.394  1.7149 -0.9585  0.4365
  760MOL0     H 2553   7.488   9.456   2.533  1.5718  0.7333 -0.2600
  760MOL0     H 2554   7.275   9.397   2.504  2.0595  0.5308  0.2728
  760MOL0     H 2555   7.229   9.553   2.571 -1.4356  0.5311 -1.5913
  760MOL0     H 2556   7.277   9.538   2.281 -1.0608  0.0752 -1.4388
  760MOL0     H 2557   7.220   9.676   2.369  1.8664  0.3554 -0.8037
  760MOL0     H 2558   7.039   9.591   2.280  0.5365  2.0038  1.6274
  760MOL0     H 2559   7.023   9.510   2.440 -0.6492  3.6440 -0.8151
  760MOL0     H 2560   6.837   9.464   2.302 -0.5699 -1.2156  2.1148
  760MOL0     H 2561   6.645   9.335   2.283 -0.9529 -0.4920 -2.8242
  760MOL0     H 2562   6.468   8.879   2.482  0.9078 -2.3154 -1.0717
  760MOL0     H 2563   6.257   8.748   2.478 -1.0635  0.9384  1.0607
  760MOL0     H 2564   5.956   8.876   2.463 -2.8637  0.3870  0.6692
  760MOL0     H 2565   5.953   8.979   2.314  3.0365 -1.4728 -2.3508
  760MOL0     H 2566   5.805   8.804   2.205 -0.0991  3.0449  0.0583
  760MOL0     H 2567   5.811   8.710   2.359  1.4776 -0.5695  0.4097
  760MOL0     H 2568   5.601   8.811   2.361  0.2493 -0.6418  0.3545
  760MOL0     H 2569   5.699   8.902   2.475  2.0635 -2.3018  0.1884
  760MOL0     H 2570   5.633   8.959   2.175  2.7759 -3.8668  0.6295
  760MOL0     H 2571   5.739   9.061   2.264 -1.2212  2.0828 -2.6879
  760MOL0     H 2572   5.554   9.157   2.405  0.9458 -0.7707  0.8078
  760MOL0     H 2573   5.439   9.044   2.360 -1.1801  3.0279 -2.3060
  760MOL0     H 2574   5.385   9.245   2.246 -2.9240 -1.0373 -3.5347
  760MOL0     H 2575   5.532   9.233   2.150  0.8452 -0.4452 -0.6905
  760MOL0     H 2576   5.327   9.006   2.162 -1.6460  1.5568  0.0721
  760MOL0     H 2577   5.463   9.017   2.062  4.5837  2.3385  2.7452
  760MOL0     H 2578   5.270   9.096   1.919 -1.1410 -0.9754  1.2636
  760MOL0     H 2579   5.214   9.199   2.051 -0.7494  1.4410 -0.8045
  760MOL0     H 2580   6.119   8.992   2.140  1.3116  1.9220  0.1490
  760MOL0     H 2581   6.335   9.086   2.117 -2.9000  1.2362  1.0328
  760MOL0     H 2582   6.913   9.000   2.179  1.6302  1.5736 -3.3295
  760MOL0     H 2583   7.094   9.146   2.206 -0.6333 -1.7380 -0.7000
  760MOL0     H 2584   7.721   9.998   2.705 -0.7209  0.1747 -1.5893
  760MOL0     H 2585   7.780   9.948   2.495 -2.8385 -1.1456  3.1586
  760MOL0     H 2586   8.070   9.878   2.443  1.7644 -0.6305 -3.4477
  760MOL0     H 2587   8.217   9.790   2.599 -1.4205  0.9800  0.3498
  760MOL0     H 2588   8.506  10.051   2.830  0.3947 -0.3128  0.7710
  760MOL0     H 2589   8.597  10.019   2.684  0.6245  1.5849  1.8825
  760MOL0     H 2590   8.722   9.929   2.862  0.8466 -0.4971 -0.5045
  760MOL0     H 2591   8.652   9.790   2.782 -0.8256  1.4145 -0.4149
  760MOL0     H 2592   8.466   9.813   2.978 -0.3899  1.2618 -2.4909
  760MOL0     H 2593   8.574   9.939   3.046  1.5923  1.8719 -2.5054
  760MOL0     H 2594   8.744   9.794   3.087  0.7605  1.6221 -0.6051
  760MOL0     H 2595   8.585   9.723   3.152 -1.4389  1.0614 -2.2952
  760MOL0     H 2596   8.760   9.453   2.856  0.4605  0.6006 -0.6249
  760MOL0     H 2597   8.425  10.163   2.614 -1.7835  1.0440  0.2314
  760MOL0     H 2598   8.183  10.354   2.440 -0.7073 -1.2493 -1.2796
  760MOL0     H 2599   8.359  10.341   2.474 -0.5215  0.0892 -0.5476
  760MOL0     H 2600   8.286  10.278   2.316 -1.1341  1.7155 -0.4041
  761MOL0     O 2601   9.290   8.470   7.456 -0.2129  0.3716 -0.3123
  761MOL0     C 2602   9.290   8.355   7.491 -0.1677  1.2217 -0.3805
  761MOL0     O 2603   9.395   8.293   7.549 -0.1929  0.2271 -0.0872
  761MOL0     C 2604   9.501   8.364   7.586  0.4229 -0.4689  0.1420
  761MOL0     C 2605   9.512   8.428   7.708 -0.2207 -0.5624 -0.6425
  761MOL0     C 2606   9.623   8.499   7.746 -0.4989 -0.2804  0.0439
  761MOL0     C 2607   9.735   8.516   7.664  0.2435  0.1115  1.2815
  761MOL0     O 2608   9.815   8.618   7.699 -0.3240  0.0451 -0.2643
  761MOL0     C 2609   9.949   8.578   7.713  0.3032  0.4286  0.0935
  761MOL0     C 2610  10.029   8.683   7.796 -0.2105  1.0658 -0.3805
  761MOL0     C 2611  10.173   8.635   7.830 -0.3250 -0.1904  0.2096
  761MOL0     C 2612  10.169   8.542   7.958  0.1359  0.4188  0.0799
  761MOL0     C 2613  10.283   8.442   7.973 -1.0908 -0.2313 -0.0105
  761MOL0     C 2614  10.246   8.336   8.073 -0.0219 -0.5229 -0.3824
  761MOL0     C 2615  10.374   8.253   8.119  0.3360  0.7310 -1.1584
  761MOL0     C 2616  10.415   8.134   8.036  0.0560  0.3332 -0.3030
  761MOL0     N 2617  10.302   8.051   7.980  0.0705 -0.1129 -0.3792
  761MOL0     C 2618  10.241   8.081   7.863 -0.0434  0.5654 -0.6340
  761MOL0     C 2619  10.176   7.964   7.834 -0.6098  0.4594 -0.0520
  761MOL0     C 2620  10.078   7.950   7.723 -0.6765  0.8651 -0.2596
  761MOL0     C 2621   9.935   7.978   7.774  0.3021 -0.5173  0.3239
  761MOL0     C 2622   9.913   8.129   7.784  0.7050 -0.2108  0.2166
  761MOL0     C 2623   9.762   8.163   7.787 -0.1604 -0.2913  0.3798
  761MOL0     O 2624   9.691   8.101   7.897 -0.9323 -0.7186  0.5087
  761MOL0     C 2625   9.583   8.024   7.878 -0.2952 -0.4351 -0.7411
  761MOL0     C 2626   9.550   7.972   7.748  0.0822  0.4459 -0.5384
  761MOL0     C 2627   9.434   7.899   7.734  0.1190 -0.4258 -0.6267
  761MOL0     C 2628   9.336   7.879   7.840 -0.0459 -0.3730  0.3028
  761MOL0     C 2629   9.205   7.810   7.816 -0.0056  0.6465 -1.0018
  761MOL0     O 2630   9.127   7.785   7.931 -0.2644  0.7294 -0.1728
  761MOL0     C 2631   8.998   7.743   7.915  0.9483  0.3571  1.0623
  761MOL0     C 2632   8.920   7.770   7.801 -0.3268 -0.1910  0.2278
  761MOL0     C 2633   8.781   7.743   7.797 -0.5512 -0.3172  0.2034
  761MOL0     C 2634   8.718   7.689   7.906 -1.0281 -0.4253 -0.0784
  761MOL0     O 2635   8.582   7.672   7.900  0.4419 -0.5290  0.7667
  761MOL0     C 2636   8.507   7.580   7.981  0.1838 -0.2874  0.3077
  761MOL0     C 2637   8.428   7.666   8.078  0.2539 -0.4222 -0.2864
  761MOL0     C 2638   8.344   7.589   8.184 -0.4886  0.6952  0.5656
  761MOL0     C 2639   8.187   7.568   8.168 -1.0649 -0.3838  0.3790
  761MOL0     C 2640   8.101   7.697   8.154  0.7514 -0.2651  0.1272
  761MOL0     C 2641   7.956   7.666   8.211  0.1885  0.0012  0.2560
  761MOL0     C 2642   7.862   7.782   8.211  1.4516  0.5651  0.2674
  761MOL0     C 2643   7.730   7.738   8.144  0.0857 -0.6242 -0.0943
  761MOL0    Cl 2644   7.638   7.660   8.278 -0.5221 -0.3208 -0.0872
  761MOL0     C 2645   8.795   7.655   8.020  0.0765  0.6865 -0.1264
  761MOL0     C 2646   8.931   7.677   8.020  0.1099  0.2980  1.2096
  761MOL0     O 2647   9.183   7.787   7.696 -0.6375  0.1595  0.0718
  761MOL0     C 2648   9.370   7.931   7.969  0.3271 -1.0737  0.0144
  761MOL0     C 2649   9.497   7.995   7.989  0.8466 -0.7837 -0.7288
  761MOL0     N 2650  10.202   7.862   7.921  0.3355 -0.4594  0.2227
  761MOL0     N 2651  10.280   7.921   8.009 -0.0857  0.1567 -0.6466
  761MOL0     C 2652   9.728   8.458   7.534  0.7647 -0.4085  0.2017
  761MOL0     C 2653   9.612   8.378   7.493  0.7755 -0.0912 -0.3371
  761MOL0     C 2654   9.179   8.259   7.465 -0.7393 -0.0339  0.1629
  761MOL0     C 2655   9.177   8.129   7.511  0.3364  0.8878  0.1876
  761MOL0     C 2656   9.071   8.041   7.501  0.4022 -0.0391  0.4496
  761MOL0     C 2657   8.959   8.080   7.438  0.7266 -0.1212 -0.4442
  761MOL0     O 2658   8.854   7.988   7.438  0.1652  0.6864 -0.4366
  761MOL0     C 2659   8.732   8.013   7.369  0.4014 -0.8625 -1.1234
  761MOL0     C 2660   8.632   7.901   7.361 -0.3860 -0.2577  0.1004
  761MOL0     C 2661   8.501   7.945   7.290  0.5063  0.8613 -0.5633
  761MOL0     C 2662   8.392   7.836   7.303 -0.4241 -0.0188  0.0969
  761MOL0     C 2663   8.268   7.889   7.251 -0.7488  0.8633 -0.2111
  761MOL0     C 2664   8.170   7.946   7.208  0.8610  0.3766 -0.3049
  761MOL0     C 2665   8.958   8.210   7.381  0.4288 -0.7076  0.1934
  761MOL0     C 2666   9.066   8.304   7.390  0.5844 -0.5154  0.4743
  761MOL0     C 2667   9.064   8.440   7.309  0.0498  0.5684 -0.4660
  761MOL0     H 2668   9.422   8.410   7.767 -0.8098 -0.7843 -1.5767
  761MOL0     H 2669   9.617   8.562   7.834 -1.6913 -0.1955 -0.0753
  761MOL0     H 2670   9.959   8.481   7.762 -0.7263 -1.0820 -2.4796
  761MOL0     H 2671   9.989   8.560   7.613 -0.2202 -1.7106  0.2243
  761MOL0     H 2672   9.980   8.703   7.892 -1.1854 -1.5014 -0.2699
  761MOL0     H 2673  10.039   8.774   7.736 -2.5881  1.2012 -0.6623
  761MOL0     H 2674  10.246   8.716   7.837  2.9793 -3.0225  1.1493
  761MOL0     H 2675  10.205   8.575   7.744 -0.3689 -1.8872  1.3423
  761MOL0     H 2676  10.177   8.599   8.051  0.0259 -2.2966  1.8884
  761MOL0     H 2677  10.075   8.488   7.974 -0.2303  1.0885  0.2253
  761MOL0     H 2678  10.300   8.391   7.878 -0.2527 -1.0632  0.5643
  761MOL0     H 2679  10.364   8.506   8.007 -1.6985  1.7661 -2.1330
  761MOL0     H 2680  10.211   8.393   8.159  3.3494  1.4331 -0.1143
  761MOL0     H 2681  10.172   8.267   8.032 -0.8183 -0.0950  0.3028
  761MOL0     H 2682  10.352   8.195   8.209  2.1620  0.7910 -0.6372
  761MOL0     H 2683  10.449   8.330   8.140 -1.7658  2.6232 -0.0530
  761MOL0     H 2684  10.490   8.161   7.960  1.6399 -0.0517  1.0461
  761MOL0     H 2685  10.464   8.066   8.107 -1.5071  0.6677  1.1497
  761MOL0     H 2686  10.251   8.176   7.811 -0.3969  0.9343 -0.0438
  761MOL0     H 2687  10.099   8.014   7.637 -0.7207 -0.8508 -1.5987
  761MOL0     H 2688  10.084   7.851   7.677 -2.0594  3.1146 -6.1674
  761MOL0     H 2689   9.865   7.952   7.695 -0.2454  2.5610 -0.3368
  761MOL0     H 2690   9.906   7.923   7.864  2.3886 -2.0286  0.1309
  761MOL0     H 2691   9.966   8.190   7.710 -0.1224  1.9473  1.3351
  761MOL0     H 2692   9.962   8.149   7.879 -1.6649 -2.6270  2.0959
  761MOL0     H 2693   9.717   8.140   7.690 -0.8481  3.4443 -0.3205
  761MOL0     H 2694   9.753   8.271   7.801  0.8233 -0.3048  1.2790
  761MOL0     H 2695   9.622   7.950   7.670  0.8333 -2.1978  0.7845
  761MOL0     H 2696   9.414   7.845   7.643  2.8007 -2.1294 -0.3169
  761MOL0     H 2697   8.956   7.816   7.711 -2.1058 -0.9763 -0.9563
  761MOL0     H 2698   8.719   7.768   7.712  0.5056 -0.8904 -0.7780
  761MOL0     H 2699   8.436   7.530   7.914  0.0825  2.1025 -1.4753
  761MOL0     H 2700   8.578   7.504   8.016  0.7125 -0.3362 -0.8337
  761MOL0     H 2701   8.508   7.713   8.135 -1.3288 -1.3504  2.9545
  761MOL0     H 2702   8.360   7.740   8.034 -0.1913 -0.8933 -0.4095
  761MOL0     H 2703   8.389   7.491   8.202  0.2187  1.1126  1.0701
  761MOL0     H 2704   8.356   7.643   8.278 -1.0070  0.2704  0.8839
  761MOL0     H 2705   8.152   7.516   8.258 -0.1307  0.5848  1.3112
  761MOL0     H 2706   8.167   7.503   8.082 -1.4283  1.8678 -1.3285
  761MOL0     H 2707   8.086   7.721   8.048  0.9710  1.9251  0.5438
  761MOL0     H 2708   8.145   7.772   8.220  3.5661 -0.3571 -1.5029
  761MOL0     H 2709   7.914   7.580   8.159  1.6706  0.9040 -2.7239
  761MOL0     H 2710   7.956   7.639   8.317 -1.2551 -1.9715 -0.1919
  761MOL0     H 2711   7.904   7.877   8.178  0.1611  1.7270  1.8218
  761MOL0     H 2712   7.834   7.816   8.311 -0.5905 -0.9451  0.2727
  761MOL0     H 2713   7.683   7.826   8.098  2.2510  0.8440  0.3431
  761MOL0     H 2714   7.748   7.658   8.071  0.5001 -1.6226  1.0823
  761MOL0     H 2715   8.743   7.618   8.108  1.4951  0.6302  0.7214
  761MOL0     H 2716   8.986   7.638   8.105 -0.4601 -0.8173  1.0876
  761MOL0     H 2717   9.316   7.891   8.054 -0.9206  0.6252  0.0733
  761MOL0     H 2718   9.531   8.029   8.086  0.8025  3.8693 -2.1109
  761MOL0     H 2719   9.811   8.471   7.465  1.7295 -3.1402  0.7076
  761MOL0     H 2720   9.623   8.330   7.396 -0.8865  1.5394 -1.3946
  761MOL0     H 2721   9.274   8.088   7.540  0.3031 -0.9944 -2.0411
  761MOL0     H 2722   9.093   7.940   7.535  0.3597  0.7515  3.0623
  761MOL0     H 2723   8.760   8.038   7.267 -1.7703 -1.3618 -1.8847
  761MOL0     H 2724   8.684   8.093   7.427  0.9976 -1.6571  0.5281
  761MOL0     H 2725   8.601   7.868   7.460 -1.0862  0.4384  0.1271
  761MOL0     H 2726   8.672   7.826   7.292  1.6626  1.8990 -1.2270
  761MOL0     H 2727   8.518   7.971   7.185 -0.8266 -1.1828 -1.3466
  761MOL0     H 2728   8.470   8.041   7.332 -0.5061 -0.3907  1.6866
  761MOL0     H 2729   8.434   7.748   7.254 -1.6714 -0.5840  0.0004
  761MOL0     H 2730   8.369   7.807   7.406  2.7934 -1.1937  0.5991
  761MOL0     H 2731   8.072   7.978   7.179 -0.1857 -1.9692  0.4399
  761MOL0     H 2732   8.885   8.248   7.310  3.2389  2.9822 -1.0634
  761MOL0     H 2733   9.159   8.451   7.255  1.0349 -0.0722  1.0638
  761MOL0     H 2734   8.970   8.445   7.253 -0.3134 -1.8109 -0.1409
  761MOL0     H 2735   9.055   8.522   7.381  1.6727  2.8918 -2.7120
  762MOL0     O 2736   5.961   2.016   3.761  0.1494 -0.1244 -0.4629
  762MOL0     C 2737   5.869   1.964   3.824  0.8243 -0.7681  0.9303
  762MOL0     O 2738   5.840   1.833   3.809  0.4865  0.0004  0.3290
  762MOL0     C 2739   5.889   1.780   3.689  0.6916  0.2069  0.7038
  762MOL0     C 2740   5.995   1.687   3.685 -0.1022  0.7211  0.6036
  762MOL0     C 2741   6.053   1.643   3.565  0.0418  0.9236 -0.1698
  762MOL0     C 2742   5.996   1.680   3.441 -0.6045  0.2041  0.6849
  762MOL0     O 2743   6.049   1.624   3.328 -0.5611  0.1314 -0.1976
  762MOL0     C 2744   6.017   1.673   3.199  0.7500 -1.0461 -0.2501
  762MOL0     C 2745   6.128   1.627   3.104 -0.1529 -0.1350 -0.4671
  762MOL0     C 2746   6.260   1.692   3.151  0.7016  0.6251 -0.1501
  762MOL0     C 2747   6.364   1.663   3.041 -0.4506 -0.0673 -0.2602
  762MOL0     C 2748   6.503   1.724   3.066  0.2796 -0.8068  0.6040
  762MOL0     C 2749   6.615   1.699   2.967 -0.5610  0.4052  0.9331
  762MOL0     C 2750   6.588   1.761   2.830  0.0710  0.7119  0.0360
  762MOL0     C 2751   6.698   1.754   2.736  0.7332  0.2307  0.2473
  762MOL0     N 2752   6.673   1.837   2.608  0.0820 -0.1210  0.2187
  762MOL0     C 2753   6.587   1.798   2.511 -0.4507  0.1543 -0.3116
  762MOL0     C 2754   6.628   1.866   2.403 -0.0722  0.6635  0.6193
  762MOL0     C 2755   6.549   1.862   2.276  0.0527  0.9198 -0.2832
  762MOL0     C 2756   6.636   1.831   2.151 -0.0202 -0.7354 -0.2344
  762MOL0     C 2757   6.685   1.970   2.099  0.2358 -0.1728 -0.7407
  762MOL0     C 2758   6.725   1.954   1.950 -0.4586  0.1668 -0.2099
  762MOL0     O 2759   6.822   1.849   1.939 -0.1941  0.0204 -0.1044
  762MOL0     C 2760   6.882   1.832   1.815  0.1793 -0.7381  0.4592
  762MOL0     C 2761   6.971   1.721   1.811 -0.4986 -0.1610  0.5952
  762MOL0     C 2762   7.051   1.695   1.700  0.9286  0.4163 -0.7494
  762MOL0     C 2763   7.064   1.787   1.591  0.1314  0.5120  0.0388
  762MOL0     C 2764   7.143   1.757   1.462 -0.1223 -0.2530 -0.1979
  762MOL0     O 2765   7.166   1.628   1.429  0.0085  1.1142 -0.5939
  762MOL0     C 2766   7.263   1.603   1.344  0.1781 -0.3829  0.8732
  762MOL0     C 2767   7.244   1.656   1.210  0.2666 -0.7486  0.1455
  762MOL0     C 2768   7.344   1.644   1.112 -0.3708 -1.0680 -0.1398
  762MOL0     C 2769   7.441   1.552   1.129 -0.6313  0.4170 -0.3617
  762MOL0     O 2770   7.540   1.540   1.034 -0.3397  0.3842  0.6761
  762MOL0     C 2771   7.649   1.447   1.043 -0.6572  0.2888 -0.5219
  762MOL0     C 2772   7.679   1.423   0.899 -0.0750  0.0026  0.2044
  762MOL0     C 2773   7.820   1.366   0.868  0.5988 -0.6583  0.4640
  762MOL0     C 2774   7.865   1.366   0.721  0.1101 -0.4354  0.2667
  762MOL0     C 2775   8.007   1.304   0.710  1.4180 -0.6946  0.1339
  762MOL0     C 2776   8.064   1.309   0.574 -1.0351 -0.1104 -0.0180
  762MOL0     C 2777   8.172   1.206   0.548 -0.7136  0.5770  0.2762
  762MOL0     C 2778   8.136   1.103   0.446 -0.9495  0.2414  0.8604
  762MOL0    Cl 2779   8.268   0.994   0.413  0.0118  0.3412 -0.0736
  762MOL0     C 2780   7.446   1.478   1.252 -0.7002  0.0830 -0.7168
  762MOL0     C 2781   7.359   1.508   1.353 -0.2609  0.6703 -0.1582
  762MOL0     O 2782   7.185   1.860   1.400  0.2425  1.0247 -0.1741
  762MOL0     C 2783   6.975   1.902   1.596  1.2402 -0.7233 -0.2737
  762MOL0     C 2784   6.874   1.911   1.699 -0.4398 -0.1941  0.8238
  762MOL0     N 2785   6.729   1.949   2.438  0.0334 -0.2464 -0.0066
  762MOL0     N 2786   6.761   1.931   2.559  0.0728 -0.5785 -0.4611
  762MOL0     C 2787   5.868   1.736   3.444  0.0476  0.0398 -0.5680
  762MOL0     C 2788   5.828   1.801   3.559  0.2623  0.2798  0.0101
  762MOL0     C 2789   5.791   2.056   3.909 -0.0948 -0.1079  0.0002
  762MOL0     C 2790   5.845   2.179   3.936 -0.0079 -0.2755 -0.6555
  762MOL0     C 2791   5.782   2.271   4.016  0.5642 -0.7189 -0.6696
  762MOL0     C 2792   5.653   2.246   4.074  0.4556  0.5496  0.4847
  762MOL0     O 2793   5.583   2.358   4.123 -0.5125 -0.2500 -0.9275
  762MOL0     C 2794   5.434   2.350   4.141 -0.3868  0.1401 -0.1175
  762MOL0     C 2795   5.360   2.420   4.027 -1.3115 -0.6791 -0.2979
  762MOL0     C 2796   5.391   2.362   3.889  0.8833 -0.6392 -0.2697
  762MOL0     C 2797   5.332   2.452   3.774  0.4094  0.5053 -0.4420
  762MOL0     C 2798   5.190   2.419   3.749  1.3732 -0.7618  0.0757
  762MOL0     C 2799   5.071   2.396   3.731  0.4359 -0.7558  0.1452
  762MOL0     C 2800   5.597   2.111   4.055  0.4558 -0.5886  0.2328
  762MOL0     C 2801   5.670   2.017   3.980  0.5459 -0.1473 -0.8010
  762MOL0     C 2802   5.597   1.883   3.959 -0.7354 -0.4973  0.3917
  762MOL0     H 2803   6.030   1.646   3.779  1.2890 -2.4196 -1.1506
  762MOL0     H 2804   6.128   1.565   3.560 -1.2175 -0.3005 -1.5598
  762MOL0     H 2805   5.929   1.624   3.157  2.4361 -4.6344  0.0504
  762MOL0     H 2806   6.000   1.781   3.205  3.4470 -0.5504 -0.5130
  762MOL0     H 2807   6.090   1.656   3.006 -3.0370  0.5918  0.7577
  762MOL0     H 2808   6.132   1.518   3.115 -0.0325 -0.2280 -1.3972
  762MOL0     H 2809   6.294   1.649   3.246  3.0561  1.2255 -0.6682
  762MOL0     H 2810   6.233   1.798   3.158 -0.9484  0.2490 -0.4260
  762MOL0     H 2811   6.368   1.555   3.024  0.4107 -0.3916  1.7634
  762MOL0     H 2812   6.336   1.713   2.948  1.5726  1.0123 -0.3426
  762MOL0     H 2813   6.493   1.831   3.046  1.2993 -1.0181 -1.1854
  762MOL0     H 2814   6.536   1.712   3.170 -1.6423  1.4182  1.5863
  762MOL0     H 2815   6.698   1.751   3.015  0.6219  0.4054 -1.0084
  762MOL0     H 2816   6.631   1.592   2.958 -0.7547  0.4631 -0.2193
  762MOL0     H 2817   6.576   1.869   2.847  2.0598  1.0188 -0.2830
  762MOL0     H 2818   6.492   1.724   2.792  0.0017  0.6330  0.2903
  762MOL0     H 2819   6.790   1.788   2.784  1.6150 -1.9143  0.1903
  762MOL0     H 2820   6.724   1.655   2.696 -3.1709 -0.8595 -0.0118
  762MOL0     H 2821   6.496   1.742   2.524  0.9894 -2.0082  1.0338
  762MOL0     H 2822   6.468   1.789   2.285  0.6302 -0.1716 -2.9887
  762MOL0     H 2823   6.492   1.954   2.261 -2.0483 -0.4233 -0.9512
  762MOL0     H 2824   6.726   1.773   2.170  1.7119  2.3593  1.9476
  762MOL0     H 2825   6.563   1.785   2.084 -0.4094  0.0707 -0.3836
  762MOL0     H 2826   6.783   1.994   2.141  0.6522 -1.7020 -0.7835
  762MOL0     H 2827   6.610   2.048   2.116 -0.5068 -0.9171 -0.5267
  762MOL0     H 2828   6.764   2.053   1.925  1.9220 -0.5447  0.4899
  762MOL0     H 2829   6.637   1.942   1.886 -1.3182  1.0151  0.7769
  762MOL0     H 2830   6.964   1.646   1.890 -1.3845 -1.9753 -1.1112
  762MOL0     H 2831   7.111   1.605   1.696  0.3434  0.0109 -4.3267
  762MOL0     H 2832   7.162   1.722   1.184  1.5506  1.0202  0.3985
  762MOL0     H 2833   7.334   1.704   1.022 -0.0651  2.3455  1.9408
  762MOL0     H 2834   7.736   1.485   1.099 -0.3650 -1.1681  0.0728
  762MOL0     H 2835   7.617   1.352   1.088  0.0284 -0.7448 -2.1313
  762MOL0     H 2836   7.599   1.361   0.857  0.8206 -0.5428 -0.7519
  762MOL0     H 2837   7.665   1.510   0.835  0.8593 -1.5233 -2.2494
  762MOL0     H 2838   7.887   1.417   0.938 -1.1561  2.4543  0.0975
  762MOL0     H 2839   7.805   1.262   0.896 -2.4444 -0.4049  0.1848
  762MOL0     H 2840   7.854   1.468   0.684  3.2693  0.3106  1.0874
  762MOL0     H 2841   7.787   1.310   0.668 -0.1307 -0.9659  1.1465
  762MOL0     H 2842   7.989   1.198   0.731 -4.9085  0.2185  1.5107
  762MOL0     H 2843   8.068   1.356   0.784  2.0207 -2.1522  0.7044
  762MOL0     H 2844   7.986   1.307   0.497  1.1055  1.7973 -2.4258
  762MOL0     H 2845   8.104   1.410   0.560 -5.6291  1.9256 -0.5088
  762MOL0     H 2846   8.200   1.146   0.635  0.5143 -1.9772 -1.7490
  762MOL0     H 2847   8.262   1.260   0.517  1.6806 -2.6492  1.0779
  762MOL0     H 2848   8.046   1.043   0.465 -0.5787 -0.5786  0.1254
  762MOL0     H 2849   8.119   1.150   0.348 -0.4618  0.1029  0.7057
  762MOL0     H 2850   7.513   1.394   1.267 -1.1671 -0.5867 -2.2328
  762MOL0     H 2851   7.376   1.465   1.451 -0.3637  1.6081  0.2900
  762MOL0     H 2852   6.959   1.969   1.512 -1.8038 -3.8654 -2.5022
  762MOL0     H 2853   6.826   2.008   1.686 -1.7193 -0.9893 -0.6009
  762MOL0     H 2854   5.799   1.733   3.361 -1.6660  1.1767  0.7373
  762MOL0     H 2855   5.727   1.841   3.558 -1.0237 -2.5823 -2.7622
  762MOL0     H 2856   5.944   2.209   3.903  0.8477 -2.3018 -0.0998
  762MOL0     H 2857   5.845   2.358   4.031  1.1870 -1.4665  1.4901
  762MOL0     H 2858   5.404   2.392   4.237 -1.4057 -2.3301  0.7290
  762MOL0     H 2859   5.398   2.247   4.150  0.9084 -0.3185  0.0408
  762MOL0     H 2860   5.373   2.529   4.026 -1.2794 -0.6692 -1.7051
  762MOL0     H 2861   5.253   2.403   4.040 -1.9259  2.9507  0.3540
  762MOL0     H 2862   5.351   2.260   3.882  0.4782 -0.3940 -1.8124
  762MOL0     H 2863   5.500   2.356   3.880  0.8859 -1.4370  0.1651
  762MOL0     H 2864   5.336   2.549   3.824  1.4574  0.2175  0.0582
  762MOL0     H 2865   5.394   2.454   3.684  0.3616 -0.5320 -0.5139
  762MOL0     H 2866   4.974   2.370   3.696  0.7327 -1.9177  0.1405
  762MOL0     H 2867   5.499   2.097   4.098 -1.2647  3.4430 -1.7902
  762MOL0     H 2868   5.503   1.885   4.014 -0.7586  2.5048  0.4374
  762MOL0     H 2869   5.566   1.874   3.855 -0.2288 -0.0030  0.1916
  762MOL0     H 2870   5.661   1.799   3.986  0.4321  0.2182 -0.0954
  763MOL0     O 2871   7.399  11.146   9.707 -0.3370  0.3735 -0.0907
  763MOL0     C 2872   7.428  11.077   9.801 -0.6247  0.2766 -0.2103
  763MOL0     O 2873   7.338  11.007   9.880  0.6142 -0.6553  0.4187
  763MOL0     C 2874   7.203  11.001   9.821 -0.9889  0.1405  0.3686
  763MOL0     C 2875   7.098  11.057   9.886 -0.4199  0.3709 -0.5712
  763MOL0     C 2876   6.978  11.076   9.820 -0.2990 -0.4432 -0.3135
  763MOL0     C 2877   6.951  11.031   9.689  0.5644  0.9187 -0.6053
  763MOL0     O 2878   6.834  11.023   9.616  0.4596  0.4704 -0.1006
  763MOL0     C 2879   6.708  11.038   9.675  0.4391 -0.9971  0.4757
  763MOL0     C 2880   6.640  11.167   9.630  0.1978  0.2020  0.5226
  763MOL0     C 2881   6.613  11.195   9.481 -0.3174  0.0724 -0.4042
  763MOL0     C 2882   6.492  11.114   9.431 -0.1122 -1.5802  1.0157
  763MOL0     C 2883   6.473  11.136   9.277  0.4260  0.0132  0.8059
  763MOL0     C 2884   6.335  11.086   9.227  0.0911  0.2923 -0.2542
  763MOL0     C 2885   6.327  11.086   9.077  0.1640  0.1596  0.5566
  763MOL0     C 2886   6.184  11.059   9.024 -1.0280  0.1111 -0.4749
  763MOL0     N 2887   6.171  11.015   8.883  0.1277  0.2762 -1.0754
  763MOL0     C 2888   6.058  11.025   8.820 -1.0339  0.6367 -0.5647
  763MOL0     C 2889   6.089  11.007   8.690 -0.4520  0.8218 -0.1068
  763MOL0     C 2890   5.991  10.996   8.587 -0.6943 -0.6306  0.6245
  763MOL0     C 2891   6.008  10.874   8.492 -0.6432 -0.1840  0.9738
  763MOL0     C 2892   5.882  10.866   8.391 -1.0489 -0.0318 -0.4440
  763MOL0     C 2893   5.900  10.763   8.272  0.7635  0.0758 -0.1523
  763MOL0     O 2894   5.808  10.784   8.168  0.5451 -0.0177  0.9902
  763MOL0     C 2895   5.705  10.697   8.160  0.4634  0.2376  0.7531
  763MOL0     C 2896   5.627  10.693   8.048  0.6043 -0.7766  0.1614
  763MOL0     C 2897   5.509  10.620   8.033 -0.3499  0.3457  0.0239
  763MOL0     C 2898   5.455  10.547   8.143 -0.8804  0.0402  0.1079
  763MOL0     C 2899   5.321  10.485   8.147  0.3405 -1.0073  0.2732
  763MOL0     O 2900   5.272  10.448   8.264 -0.1815  0.0718 -0.5177
  763MOL0     C 2901   5.136  10.436   8.304 -0.4396  0.8462 -1.0198
  763MOL0     C 2902   5.014  10.483   8.245  0.3025  0.9322 -0.1850
  763MOL0     C 2903   4.887  10.446   8.306 -0.5238 -0.1307  0.7052
  763MOL0     C 2904   4.873  10.373   8.428 -1.2079  0.2523 -0.1747
  763MOL0     O 2905   4.751  10.329   8.477  0.1276 -0.5786 -0.1665
  763MOL0     C 2906   4.642  10.312   8.386  0.0177 -0.4895  0.4558
  763MOL0     C 2907   4.527  10.230   8.462  0.4891  0.2729 -0.0210
  763MOL0     C 2908   4.417  10.195   8.360 -0.9978 -0.5420  0.2935
  763MOL0     C 2909   4.294  10.142   8.442 -0.3879  0.3803 -0.1671
  763MOL0     C 2910   4.176  10.132   8.348  0.4230 -0.7366  0.0600
  763MOL0     C 2911   4.181  10.022   8.245  0.1307 -0.6663  0.3145
  763MOL0     C 2912   4.055   9.980   8.179  0.8129  1.1209  0.2436
  763MOL0     C 2913   3.986  10.099   8.098  0.8038  0.3188  0.1295
  763MOL0    Cl 2914   3.846  10.054   7.991  0.3613  0.2786 -0.1000
  763MOL0     C 2915   4.998  10.354   8.494 -0.3987 -0.1500 -0.5881
  763MOL0     C 2916   5.119  10.384   8.434 -0.0197  0.3796 -0.6817
  763MOL0     O 2917   5.253  10.498   8.043 -0.2416  0.4839 -0.6913
  763MOL0     C 2918   5.535  10.555   8.259 -0.4443 -0.1024 -0.2579
  763MOL0     C 2919   5.652  10.629   8.270 -0.3105  0.2347  0.1903
  763MOL0     N 2920   6.219  10.989   8.684 -0.1423 -0.6698  0.8683
  763MOL0     N 2921   6.273  11.008   8.795  0.7421 -0.5798 -0.0415
  763MOL0     C 2922   7.060  10.967   9.628 -0.3137  0.7277  0.5588
  763MOL0     C 2923   7.191  10.957   9.688 -0.0099 -0.2060  0.0170
  763MOL0     C 2924   7.569  11.073   9.849  0.0530 -0.3557  0.0297
  763MOL0     C 2925   7.604  10.997   9.960  0.4204 -1.0355 -0.9970
  763MOL0     C 2926   7.733  10.990  10.008 -0.8392  0.4669 -0.4748
  763MOL0     C 2927   7.835  11.058   9.948  0.5810  0.0296 -0.0983
  763MOL0     O 2928   7.962  11.040   9.986 -0.2763  0.6153 -0.9399
  763MOL0     C 2929   8.049  10.966   9.895  0.1692  0.2993  0.1947
  763MOL0     C 2930   8.176  10.931   9.953  0.1744  0.3931  0.0890
  763MOL0     C 2931   8.172  10.842  10.085 -0.1066  0.1998  0.4783
  763MOL0     C 2932   8.299  10.763  10.111  0.5076 -0.5774 -1.2994
  763MOL0     C 2933   8.394  10.846  10.188 -0.5075  0.5597  0.2547
  763MOL0     C 2934   8.468  10.914  10.252 -0.0478  0.0752 -0.3714
  763MOL0     C 2935   7.802  11.131   9.831 -0.0688  0.2927 -0.6704
  763MOL0     C 2936   7.676  11.129   9.774 -0.0354  0.3548 -0.2584
  763MOL0     C 2937   7.663  11.208   9.645 -0.5770  0.4787 -0.0054
  763MOL0     H 2938   7.118  11.075   9.991  3.4799  0.2264 -1.1326
  763MOL0     H 2939   6.901  11.132   9.873 -0.5245  0.3729 -1.4826
  763MOL0     H 2940   6.654  10.955   9.628 -2.5566  1.2824 -0.4626
  763MOL0     H 2941   6.704  11.021   9.783  1.5873 -1.2049  0.4991
  763MOL0     H 2942   6.703  11.248   9.668 -0.6261  0.2713  1.7673
  763MOL0     H 2943   6.542  11.164   9.678 -0.7251  1.8494 -1.1362
  763MOL0     H 2944   6.705  11.173   9.426 -0.5670  0.4769 -0.9989
  763MOL0     H 2945   6.584  11.300   9.465  2.0186  1.0465  1.2255
  763MOL0     H 2946   6.497  11.006   9.446 -0.9992 -1.3493  3.4271
  763MOL0     H 2947   6.400  11.157   9.471 -1.4915  0.1392 -3.3822
  763MOL0     H 2948   6.473  11.245   9.262  0.7798 -0.1987 -1.0748
  763MOL0     H 2949   6.550  11.088   9.216 -2.2589  0.5227 -3.5093
  763MOL0     H 2950   6.307  10.985   9.256  1.3313  0.0102  0.0241
  763MOL0     H 2951   6.257  11.146   9.276  3.6126  2.9234  2.7367
  763MOL0     H 2952   6.389  11.007   9.034  0.6343 -0.5537  2.4371
  763MOL0     H 2953   6.357  11.183   9.036 -3.5956  1.2811  0.0449
  763MOL0     H 2954   6.133  10.991   9.093  1.5366 -0.9623  0.5196
  763MOL0     H 2955   6.139  11.157   9.038  0.2807  0.6570  0.0243
  763MOL0     H 2956   5.957  11.041   8.857 -1.0171 -1.3187  0.4799
  763MOL0     H 2957   5.892  10.986   8.632 -0.1537 -3.3829  1.3670
  763MOL0     H 2958   5.988  11.087   8.525 -2.3885 -0.7616  0.4697
  763MOL0     H 2959   6.101  10.882   8.433 -1.2223 -0.9977 -0.0830
  763MOL0     H 2960   6.014  10.791   8.563  0.6199 -0.7623  0.2258
  763MOL0     H 2961   5.872  10.964   8.343  0.5563  0.4678  0.1560
  763MOL0     H 2962   5.798  10.833   8.452 -2.6992  3.4557 -0.5789
  763MOL0     H 2963   5.919  10.656   8.285  0.2466 -0.5431 -3.4764
  763MOL0     H 2964   5.995  10.795   8.230  1.4029 -1.8208 -0.2362
  763MOL0     H 2965   5.670  10.745   7.963  2.4494  0.1134  1.5628
  763MOL0     H 2966   5.457  10.619   7.937 -1.8424  2.3683  0.7433
  763MOL0     H 2967   5.009  10.523   8.144 -1.1772  1.2254 -0.0164
  763MOL0     H 2968   4.794  10.484   8.263  0.4754 -0.1389 -1.5694
  763MOL0     H 2969   4.605  10.408   8.348 -1.9605 -1.1380  0.5923
  763MOL0     H 2970   4.670  10.247   8.303 -3.5446  0.8480 -2.0857
  763MOL0     H 2971   4.578  10.140   8.500  0.7002  0.2954 -0.2504
  763MOL0     H 2972   4.491  10.294   8.543 -1.6519  0.1314 -0.8153
  763MOL0     H 2973   4.388  10.285   8.305  0.2111 -1.1229 -1.3944
  763MOL0     H 2974   4.445  10.119   8.286  0.6086  1.3277 -1.1450
  763MOL0     H 2975   4.263  10.228   8.503  0.3325  2.2855 -2.3093
  763MOL0     H 2976   4.306  10.042   8.484 -0.7705 -0.5807 -2.2356
  763MOL0     H 2977   4.149  10.230   8.309  0.4119 -0.0180  1.8317
  763MOL0     H 2978   4.091  10.115   8.415  0.0352  1.1488  0.0771
  763MOL0     H 2979   4.239  10.047   8.156 -0.9756  1.6943  0.2072
  763MOL0     H 2980   4.235   9.938   8.290 -1.1509 -2.7187 -1.7637
  763MOL0     H 2981   3.982   9.950   8.254  0.2338  0.7139 -0.4710
  763MOL0     H 2982   4.075   9.892   8.118 -0.8143 -0.1956  1.5269
  763MOL0     H 2983   3.969  10.182   8.167  2.9812  1.1812 -0.2805
  763MOL0     H 2984   4.063  10.138   8.031  1.8807  0.8174  1.6082
  763MOL0     H 2985   4.988  10.296   8.586 -0.7608  2.0723  0.8409
  763MOL0     H 2986   5.203  10.356   8.497 -0.0613  0.1979 -0.7052
  763MOL0     H 2987   5.494  10.487   8.333  0.6621  0.9196  1.3574
  763MOL0     H 2988   5.702  10.609   8.365 -3.6392 -1.6785  1.7107
  763MOL0     H 2989   7.059  10.925   9.529  1.8679  2.2264 -0.1786
  763MOL0     H 2990   7.273  10.910   9.635 -0.8259 -1.4950 -0.1467
  763MOL0     H 2991   7.530  10.938  10.013 -2.9395  2.0257 -1.8785
  763MOL0     H 2992   7.769  10.941  10.098 -0.3787 -0.9433 -1.3969
  763MOL0     H 2993   8.084  11.032   9.816  1.5867  1.1126  1.4458
  763MOL0     H 2994   7.997  10.880   9.852  1.1497  1.1389 -2.9077
  763MOL0     H 2995   8.214  11.029   9.985  1.3138  0.0679 -0.2189
  763MOL0     H 2996   8.238  10.887   9.875 -1.2275  0.1204 -0.9060
  763MOL0     H 2997   8.090  10.770  10.076  0.0551 -0.1693  1.7593
  763MOL0     H 2998   8.146  10.912  10.164  1.3845  1.5923 -0.2143
  763MOL0     H 2999   8.266  10.687  10.182  1.5743 -0.3512 -0.5401
  763MOL0     H 3000   8.337  10.717  10.020 -3.1631 -2.8242 -1.8826
  763MOL0     H 3001   8.523  10.984  10.312 -0.5763  0.3278 -0.1824
  763MOL0     H 3002   7.884  11.168   9.770  2.3431 -4.9032 -1.1075
  763MOL0     H 3003   7.599  11.297   9.644  1.0139  1.8435  3.1962
  763MOL0     H 3004   7.761  11.222   9.600  0.9918 -3.8009  1.6140
  763MOL0     H 3005   7.609  11.136   9.583 -2.2058  0.2860  1.5559
  764MOL0     O 3006   8.857   6.312   9.905  0.4262  0.8354 -0.1549
  764MOL0     C 3007   8.837   6.387   9.999 -0.3976  0.3005 -0.5179
  764MOL0     O 3008   8.919   6.398  10.107  0.8485  0.2304 -0.2966
  764MOL0     C 3009   9.054   6.356  10.117  0.8880  0.1985 -0.0567
  764MOL0     C 3010   9.129   6.300  10.016 -0.4724  0.2845 -0.0543
  764MOL0     C 3011   9.265   6.272  10.037  0.2352  0.4371  0.1800
  764MOL0     C 3012   9.330   6.297  10.166  0.0657  0.8904  0.0320
  764MOL0     O 3013   9.455   6.252  10.181 -0.2864 -0.4993 -0.1395
  764MOL0     C 3014   9.507   6.239  10.313  0.1283  0.3916 -0.1539
  764MOL0     C 3015   9.641   6.185  10.288 -0.5882 -0.1419  0.5548
  764MOL0     C 3016   9.749   6.302  10.309  0.2721  0.1429 -0.5260
  764MOL0     C 3017   9.899   6.272  10.271 -0.1699 -0.7583 -0.2685
  764MOL0     C 3018   9.928   6.305  10.127 -0.2606  0.4292  0.7399
  764MOL0     C 3019  10.075   6.266  10.073 -0.8172 -0.4380  0.2277
  764MOL0     C 3020  10.131   6.129  10.118 -0.0175  0.8200  0.0742
  764MOL0     C 3021  10.061   6.002  10.077  0.4037  0.5315 -0.2627
  764MOL0     N 3022  10.145   5.877  10.086  0.6524 -0.3769 -0.0421
  764MOL0     C 3023  10.235   5.838   9.992  0.8785  0.6191 -0.8950
  764MOL0     C 3024  10.311   5.756  10.061 -0.5182 -0.0806 -0.2306
  764MOL0     C 3025  10.436   5.712  10.011  0.2393  0.2551  0.3184
  764MOL0     C 3026  10.539   5.815   9.970 -0.3711 -0.1793  0.6468
  764MOL0     C 3027  10.689   5.774   9.964 -0.2658  0.1696  0.3569
  764MOL0     C 3028  10.712   5.654   9.873  0.9652  0.6846  0.2295
  764MOL0     O 3029  10.729   5.719   9.744 -0.0476  0.2336 -0.2740
  764MOL0     C 3030  10.851   5.742   9.688 -0.6467 -0.0373 -1.1517
  764MOL0     C 3031  10.970   5.754   9.764 -0.3319 -0.5946  0.9573
  764MOL0     C 3032  11.102   5.775   9.705 -0.2319  0.1528 -0.0487
  764MOL0     C 3033  11.111   5.779   9.568  0.6225  0.2437  0.8201
  764MOL0     C 3034  11.241   5.775   9.498 -0.1009 -0.5403 -0.0867
  764MOL0     O 3035  11.256   5.844   9.375  0.2286 -0.2714 -0.0377
  764MOL0     C 3036  11.374   5.838   9.299  0.1040 -0.1917 -0.6989
  764MOL0     C 3037  11.487   5.908   9.329 -0.9015  0.0617  0.1170
  764MOL0     C 3038  11.599   5.904   9.247 -0.0127 -0.4535 -0.5270
  764MOL0     C 3039  11.610   5.804   9.153  0.0188  0.4795  0.3482
  764MOL0     O 3040  11.730   5.802   9.089 -0.5518  0.6190  0.0673
  764MOL0     C 3041  11.750   5.702   8.978  0.5393  0.2124  0.2409
  764MOL0     C 3042  11.896   5.710   8.930 -0.3166 -0.0596 -0.6229
  764MOL0     C 3043  12.008   5.690   9.034  1.3948  1.0881  1.7434
  764MOL0     C 3044  12.136   5.690   8.955  0.3563  1.0829  0.8831
  764MOL0     C 3045  12.263   5.665   9.039 -0.2426 -0.3036 -0.0472
  764MOL0     C 3046  12.298   5.803   9.102 -0.0494 -0.2831  0.3037
  764MOL0     C 3047  12.434   5.802   9.167  0.1723  0.5263 -0.3147
  764MOL0     C 3048  12.501   5.928   9.217 -0.1979 -0.5810 -0.9523
  764MOL0    Cl 3049  12.677   5.883   9.267  0.1048  0.0949 -0.0402
  764MOL0     C 3050  11.504   5.725   9.126  0.0935  0.1134 -0.7055
  764MOL0     C 3051  11.384   5.747   9.200 -1.3052  0.0448  0.6468
  764MOL0     O 3052  11.338   5.724   9.558 -0.3793 -0.5420  0.4043
  764MOL0     C 3053  10.992   5.759   9.495 -0.2086  0.8052 -0.0536
  764MOL0     C 3054  10.864   5.742   9.551 -0.2610  0.3558 -0.4993
  764MOL0     N 3055  10.266   5.730  10.186  0.7584 -0.7230  0.8681
  764MOL0     N 3056  10.169   5.812  10.205 -0.0940  0.3182  0.3065
  764MOL0     C 3057   9.245   6.346  10.268 -0.9024 -0.7194 -1.0429
  764MOL0     C 3058   9.111   6.375  10.244 -0.2948 -0.4827  0.1468
  764MOL0     C 3059   8.706   6.455  10.023  0.1981  0.3564  0.3045
  764MOL0     C 3060   8.679   6.517  10.148  0.9552  0.0498  0.3391
  764MOL0     C 3061   8.558   6.579  10.172  0.5273  0.6283 -0.6685
  764MOL0     C 3062   8.454   6.583  10.084 -1.2705  0.4461  0.1785
  764MOL0     O 3063   8.352   6.663  10.127  0.7732  0.4048 -1.2197
  764MOL0     C 3064   8.225   6.643  10.068 -0.3037 -0.4059  0.0236
  764MOL0     C 3065   8.116   6.715  10.158 -0.4777 -0.8857  0.0447
  764MOL0     C 3066   8.098   6.862  10.133  0.2602  0.1911 -0.0818
  764MOL0     C 3067   7.983   6.935  10.199  0.3987  0.0928 -0.5945
  764MOL0     C 3068   7.853   6.911  10.133  0.6452 -0.2427 -0.6726
  764MOL0     C 3069   7.751   6.893  10.071 -0.4292  0.3827 -0.2677
  764MOL0     C 3070   8.470   6.521   9.962 -0.4634  1.3389  0.6706
  764MOL0     C 3071   8.596   6.468   9.925  1.1444  0.3404  0.4062
  764MOL0     C 3072   8.609   6.415   9.789 -0.5585  0.2123 -0.8738
  764MOL0     H 3073   9.109   6.291   9.909  3.0706  0.6183 -0.8618
  764MOL0     H 3074   9.332   6.247   9.955  1.0160 -0.1788  0.9868
  764MOL0     H 3075   9.503   6.340  10.356  0.1039  0.1980  0.3087
  764MOL0     H 3076   9.443   6.174  10.373 -1.7491  0.6829 -1.7620
  764MOL0     H 3077   9.650   6.127  10.196  3.4206 -1.2664  1.4577
  764MOL0     H 3078   9.663   6.117  10.371  3.8715 -0.2029 -0.4247
  764MOL0     H 3079   9.748   6.340  10.412  0.3661 -0.4323 -0.3103
  764MOL0     H 3080   9.703   6.383  10.252  0.6407  2.3745  2.1444
  764MOL0     H 3081   9.966   6.336  10.329 -0.0727  0.8569 -2.0706
  764MOL0     H 3082   9.919   6.169  10.303 -0.2710 -1.0548 -1.1440
  764MOL0     H 3083   9.858   6.253  10.061  3.5346 -2.4608 -1.3761
  764MOL0     H 3084   9.912   6.412  10.111  1.6619  0.7342  0.5509
  764MOL0     H 3085  10.080   6.274   9.964 -0.8165 -0.6239  0.2146
  764MOL0     H 3086  10.145   6.343  10.108 -1.1399 -0.8989  1.9664
  764MOL0     H 3087  10.146   6.130  10.226  1.8111  1.6026 -0.1404
  764MOL0     H 3088  10.230   6.118  10.071 -1.5246 -2.7502 -2.6772
  764MOL0     H 3089   9.975   6.001  10.145  1.5591  1.4540  1.2841
  764MOL0     H 3090  10.024   6.001   9.974 -0.5701  0.7563  0.0692
  764MOL0     H 3091  10.245   5.867   9.888  2.2608 -0.3530 -1.0617
  764MOL0     H 3092  10.473   5.638  10.084  0.5155  0.6503  0.5807
  764MOL0     H 3093  10.411   5.660   9.918  2.7919 -1.9593  0.7476
  764MOL0     H 3094  10.505   5.857   9.875  0.1149  0.0153  0.5547
  764MOL0     H 3095  10.541   5.894  10.046  1.3405  2.2451 -1.6998
  764MOL0     H 3096  10.722   5.742  10.064  0.9884  0.0502 -0.0792
  764MOL0     H 3097  10.746   5.867   9.950 -0.8620  0.2130 -2.2440
  764MOL0     H 3098  10.623   5.591   9.879  1.5853 -0.2764 -0.4602
  764MOL0     H 3099  10.802   5.607   9.914  0.1725  1.3873  3.0063
  764MOL0     H 3100  10.965   5.726   9.869 -0.2278 -1.9656  0.6160
  764MOL0     H 3101  11.189   5.770   9.769 -0.9033  1.0141  0.9566
  764MOL0     H 3102  11.487   5.971   9.418 -0.8153 -2.5479  2.0876
  764MOL0     H 3103  11.679   5.976   9.264 -0.3092 -0.8198  3.2752
  764MOL0     H 3104  11.733   5.598   9.010 -1.8302  1.0128  1.8313
  764MOL0     H 3105  11.677   5.726   8.900  1.9142  2.4131 -0.4360
  764MOL0     H 3106  11.910   5.639   8.848  0.3338  2.2626 -2.6297
  764MOL0     H 3107  11.910   5.808   8.884 -0.7655 -0.5212 -1.7842
  764MOL0     H 3108  12.011   5.785   9.088  0.6325  1.0128  1.9277
  764MOL0     H 3109  11.987   5.607   9.102 -1.0051  0.8090  0.7660
  764MOL0     H 3110  12.145   5.787   8.905  2.7910  1.8709  2.7062
  764MOL0     H 3111  12.133   5.608   8.882  2.6450  0.0966  1.8209
  764MOL0     H 3112  12.345   5.626   8.978  0.1789 -2.3988  1.7334
  764MOL0     H 3113  12.244   5.595   9.121 -0.8093  1.4033  1.3178
  764MOL0     H 3114  12.290   5.890   9.036 -0.1090 -0.6514 -0.1846
  764MOL0     H 3115  12.234   5.816   9.190  0.0951 -2.2014  0.7432
  764MOL0     H 3116  12.506   5.743   9.109 -1.2896  0.1118 -1.7659
  764MOL0     H 3117  12.424   5.742   9.257 -0.2306 -1.2874 -1.5266
  764MOL0     H 3118  12.491   5.993   9.129  1.0513 -1.6687 -1.9344
  764MOL0     H 3119  12.443   5.968   9.300 -1.4370  0.2771 -2.1760
  764MOL0     H 3120  11.504   5.636   9.063 -0.1464 -0.0397 -0.4928
  764MOL0     H 3121  11.293   5.690   9.184 -1.2959  0.0158  0.6955
  764MOL0     H 3122  10.999   5.742   9.388  2.7501  1.1226  0.0070
  764MOL0     H 3123  10.775   5.742   9.489 -0.2149  1.2520 -0.5814
  764MOL0     H 3124   9.279   6.366  10.369  3.4512  0.0342 -2.4387
  764MOL0     H 3125   9.047   6.417  10.321  0.3603  0.5136  0.1725
  764MOL0     H 3126   8.755   6.527  10.225  0.6738 -0.4660  0.6932
  764MOL0     H 3127   8.547   6.623  10.271  0.0698 -3.1722  1.1530
  764MOL0     H 3128   8.193   6.538  10.075 -1.2124 -0.2980 -1.7846
  764MOL0     H 3129   8.222   6.669   9.962 -1.3053  0.2368  0.2024
  764MOL0     H 3130   8.139   6.702  10.264 -1.6286 -0.1154  0.4172
  764MOL0     H 3131   8.015   6.673  10.149 -0.6011 -0.6144  0.1410
  764MOL0     H 3132   8.076   6.886  10.028  0.3218  0.0657 -0.1245
  764MOL0     H 3133   8.196   6.902  10.162 -0.0829  1.9571 -1.1850
  764MOL0     H 3134   7.987   6.902  10.303 -0.1763 -1.0944 -0.9428
  764MOL0     H 3135   7.998   7.043  10.209 -2.5557  0.5015  0.2726
  764MOL0     H 3136   7.667   6.851  10.019  0.4926 -1.4333 -0.3865
  764MOL0     H 3137   8.394   6.528   9.884 -0.3311  1.6338  0.5672
  764MOL0     H 3138   8.597   6.307   9.783  0.7989  0.0593 -1.1328
  764MOL0     H 3139   8.542   6.452   9.711 -0.6575  0.5203 -0.6490
  764MOL0     H 3140   8.710   6.441   9.755  0.2029 -2.1605 -0.6003
  765MOL0     O 3141   9.329   5.037   8.031  0.6335 -0.7340  0.3014
  765MOL0     C 3142   9.246   4.963   7.967  0.2360 -1.2123  0.5017
  765MOL0     O 3143   9.262   4.828   7.935  0.4426 -0.1620  0.6521
  765MOL0     C 3144   9.353   4.760   8.018 -0.3532 -0.2843 -0.0185
  765MOL0     C 3145   9.350   4.770   8.162 -1.1748  0.2209  0.5566
  765MOL0     C 3146   9.452   4.705   8.234 -0.3452 -0.4572 -0.0576
  765MOL0     C 3147   9.558   4.625   8.171 -0.0752 -0.6624 -0.1484
  765MOL0     O 3148   9.661   4.572   8.246  0.5946 -0.9764 -0.1019
  765MOL0     C 3149   9.799   4.558   8.193 -0.1665 -0.4802  0.9042
  765MOL0     C 3150   9.916   4.534   8.285  0.5719 -0.0172  1.0602
  765MOL0     C 3151  10.055   4.535   8.210  0.2455 -0.0026  0.9092
  765MOL0     C 3152  10.177   4.582   8.292  0.3550  0.4751 -0.3135
  765MOL0     C 3153  10.203   4.731   8.261 -0.8595 -0.1287  0.6845
  765MOL0     C 3154  10.348   4.762   8.289  0.2192  0.1950 -0.8439
  765MOL0     C 3155  10.368   4.912   8.250 -0.0987 -0.4345 -0.3100
  765MOL0     C 3156  10.490   4.992   8.314 -0.0622  0.2991 -0.4863
  765MOL0     N 3157  10.615   4.929   8.302 -0.6896  0.1203 -0.0247
  765MOL0     C 3158  10.681   4.913   8.184 -0.5150  0.7712  0.8873
  765MOL0     C 3159  10.791   4.856   8.232 -0.6496  0.8132 -0.2401
  765MOL0     C 3160  10.903   4.817   8.140 -0.9918 -0.0483  0.5251
  765MOL0     C 3161  11.042   4.812   8.217  0.3817 -0.1460  0.8885
  765MOL0     C 3162  11.138   4.721   8.147  1.2295 -0.0590 -0.4121
  765MOL0     C 3163  11.279   4.713   8.207  0.2432 -0.1897 -0.3492
  765MOL0     O 3164  11.354   4.829   8.166  0.9095  0.5927 -0.0856
  765MOL0     C 3165  11.490   4.838   8.204 -0.0962  0.1711 -1.0310
  765MOL0     C 3166  11.589   4.750   8.158 -0.0124  0.0806  0.8099
  765MOL0     C 3167  11.722   4.752   8.195 -0.8914  0.0442  1.0986
  765MOL0     C 3168  11.766   4.854   8.280 -0.5986 -0.0227  0.4757
  765MOL0     C 3169  11.906   4.845   8.325  0.4491 -0.1334  0.3530
  765MOL0     O 3170  11.949   4.937   8.422  0.4992  0.1505  0.1515
  765MOL0     C 3171  12.085   4.939   8.458 -0.5418  0.1701 -0.0501
  765MOL0     C 3172  12.110   5.008   8.579  0.3419 -0.7096  0.2161
  765MOL0     C 3173  12.237   5.027   8.630 -0.3249  0.2900 -0.4769
  765MOL0     C 3174  12.347   4.997   8.563 -0.5714 -0.0497  0.4663
  765MOL0     O 3175  12.467   5.026   8.617 -0.3363 -0.2415  0.2581
  765MOL0     C 3176  12.571   5.058   8.519  0.0499 -0.5933 -1.2539
  765MOL0     C 3177  12.703   5.066   8.596  0.4108 -0.2408  0.7325
  765MOL0     C 3178  12.832   5.028   8.520 -0.2091 -0.6982 -0.1857
  765MOL0     C 3179  12.876   5.159   8.442  0.1284 -0.0184  0.1896
  765MOL0     C 3180  13.006   5.122   8.368  0.9925  0.6716  0.4229
  765MOL0     C 3181  13.128   5.129   8.451 -0.4614 -0.6300  0.2573
  765MOL0     C 3182  13.263   5.111   8.369  0.9858 -1.1514  0.0671
  765MOL0     C 3183  13.359   5.024   8.441 -0.2771  0.6027 -0.0284
  765MOL0    Cl 3184  13.519   5.029   8.363  0.2959 -0.5968 -0.2296
  765MOL0     C 3185  12.328   4.924   8.440  0.1892 -0.1274  0.2837
  765MOL0     C 3186  12.205   4.893   8.394 -0.6598  0.1271  0.6973
  765MOL0     O 3187  11.974   4.755   8.269  0.3787 -0.5836 -0.3620
  765MOL0     C 3188  11.676   4.944   8.331 -0.0751 -0.1117 -0.3120
  765MOL0     C 3189  11.541   4.935   8.293 -0.5577  0.1538 -0.8680
  765MOL0     N 3190  10.795   4.843   8.374 -0.1224  0.3260  0.3890
  765MOL0     N 3191  10.681   4.886   8.412 -0.4490  0.9843  0.2432
  765MOL0     C 3192   9.545   4.609   8.034 -0.4553  0.0015 -0.0353
  765MOL0     C 3193   9.445   4.675   7.961 -0.4115 -0.7292  0.3692
  765MOL0     C 3194   9.113   5.022   7.922  0.1743 -0.1716  0.6704
  765MOL0     C 3195   9.014   4.928   7.895  0.0674 -1.0307 -0.0591
  765MOL0     C 3196   8.891   4.965   7.849  0.0128 -0.0891  0.8926
  765MOL0     C 3197   8.863   5.107   7.818 -0.5819  0.3831 -0.0934
  765MOL0     O 3198   8.738   5.144   7.771 -0.2763 -0.4227 -0.5108
  765MOL0     C 3199   8.671   5.242   7.850 -0.8467  0.0354  0.1472
  765MOL0     C 3200   8.623   5.336   7.743 -0.8722  0.2968 -0.1599
  765MOL0     C 3201   8.729   5.432   7.690  0.0579 -0.5515 -0.2520
  765MOL0     C 3202   8.668   5.536   7.595 -0.2773  0.3975 -0.4642
  765MOL0     C 3203   8.763   5.650   7.584  0.0286 -0.0130 -0.2506
  765MOL0     C 3204   8.845   5.742   7.585 -0.5043  1.5556  0.4755
  765MOL0     C 3205   8.966   5.191   7.844  0.4197 -0.4415  0.0853
  765MOL0     C 3206   9.094   5.156   7.897 -0.6571 -1.1447  1.0431
  765MOL0     C 3207   9.193   5.268   7.913 -0.0212 -0.1071  0.4385
  765MOL0     H 3208   9.268   4.830   8.201 -1.4461  0.8890 -0.9795
  765MOL0     H 3209   9.468   4.725   8.340  1.0685  2.8461 -0.7792
  765MOL0     H 3210   9.818   4.477   8.121 -0.7653 -1.7929  2.1793
  765MOL0     H 3211   9.822   4.648   8.135 -0.7353 -1.6137 -1.1879
  765MOL0     H 3212   9.885   4.440   8.331 -1.0667  2.1729  4.8676
  765MOL0     H 3213   9.938   4.619   8.350  0.5268  3.7441 -3.2856
  765MOL0     H 3214  10.060   4.592   8.117  2.6591 -3.0304 -1.0036
  765MOL0     H 3215  10.070   4.431   8.180  0.1338 -0.6048  2.7974
  765MOL0     H 3216  10.151   4.569   8.398  0.5333 -2.7269 -0.5530
  765MOL0     H 3217  10.262   4.517   8.269 -1.1555 -1.9018  0.4322
  765MOL0     H 3218  10.196   4.758   8.156  0.3025  2.3315  1.1720
  765MOL0     H 3219  10.131   4.788   8.320 -2.0132 -0.0071 -0.8067
  765MOL0     H 3220  10.364   4.756   8.397 -0.9474  0.0318 -0.6740
  765MOL0     H 3221  10.425   4.696   8.249  0.5935  0.1932 -0.1406
  765MOL0     H 3222  10.277   4.967   8.277  0.2562 -0.7038  1.5775
  765MOL0     H 3223  10.387   4.910   8.143 -0.1457  0.6952 -0.3550
  765MOL0     H 3224  10.488   5.088   8.261  1.0764 -0.5495 -2.1828
  765MOL0     H 3225  10.468   5.016   8.418  0.0644 -5.6097  1.2368
  765MOL0     H 3226  10.650   4.946   8.085 -2.1145  1.5282  1.6147
  765MOL0     H 3227  10.887   4.714   8.107  1.3941 -0.9871  2.0076
  765MOL0     H 3228  10.906   4.871   8.045  5.8343 -4.2564 -2.4085
  765MOL0     H 3229  11.083   4.914   8.211  5.8041 -2.0552  0.5325
  765MOL0     H 3230  11.033   4.789   8.323  2.5627 -2.5651  0.6357
  765MOL0     H 3231  11.138   4.729   8.038 -0.8163  1.1216 -0.3676
  765MOL0     H 3232  11.092   4.622   8.157  0.2489  0.2855 -1.2845
  765MOL0     H 3233  11.337   4.625   8.176  1.0235 -0.2676  1.2302
  765MOL0     H 3234  11.259   4.720   8.314 -4.0193  1.9693 -1.0723
  765MOL0     H 3235  11.566   4.673   8.085  2.1309  2.5639 -2.8210
  765MOL0     H 3236  11.787   4.674   8.156  0.4672  0.6819  2.0128
  765MOL0     H 3237  12.024   5.044   8.634 -0.2371 -2.3150  0.4253
  765MOL0     H 3238  12.247   5.068   8.730 -3.5609 -0.0542  0.0846
  765MOL0     H 3239  12.583   4.981   8.442  4.2690 -1.1705 -0.3032
  765MOL0     H 3240  12.548   5.152   8.468  1.2045  0.1651 -0.4262
  765MOL0     H 3241  12.712   5.173   8.619 -3.7110  2.0597 -5.5636
  765MOL0     H 3242  12.682   5.005   8.684 -1.6088 -0.8058 -0.0705
  765MOL0     H 3243  12.905   4.989   8.591 -0.0071 -3.5616 -1.8046
  765MOL0     H 3244  12.815   4.949   8.446  5.7335 -1.7481 -0.8800
  765MOL0     H 3245  12.888   5.243   8.511 -1.5161 -0.7465  1.4448
  765MOL0     H 3246  12.803   5.194   8.369  0.3786  0.9243  0.3750
  765MOL0     H 3247  13.020   5.186   8.280  0.6463  2.3366  1.5373
  765MOL0     H 3248  12.992   5.021   8.327  3.7426 -0.2130  1.4125
  765MOL0     H 3249  13.145   5.234   8.478  5.1045 -0.6361 -1.9401
  765MOL0     H 3250  13.129   5.068   8.541  2.4524  0.5432  1.1362
  765MOL0     H 3251  13.310   5.208   8.356  1.7531 -1.6738 -1.3178
  765MOL0     H 3252  13.243   5.087   8.264 -2.0740 -0.9803  0.5227
  765MOL0     H 3253  13.363   5.045   8.548 -0.9168 -1.3505  0.4326
  765MOL0     H 3254  13.322   4.921   8.433  1.3502  0.1271 -2.5020
  765MOL0     H 3255  12.407   4.883   8.377  0.5991  0.1607  0.6046
  765MOL0     H 3256  12.198   4.831   8.305 -0.5821 -1.6088  1.8427
  765MOL0     H 3257  11.715   5.024   8.393  1.3041  1.0283 -2.5093
  765MOL0     H 3258  11.460   5.002   8.322  0.8053  1.0821  0.9946
  765MOL0     H 3259   9.605   4.540   7.975 -0.0555 -2.3521  2.9034
  765MOL0     H 3260   9.433   4.656   7.855 -0.6877  0.1905  0.2261
  765MOL0     H 3261   9.029   4.822   7.917  0.5401 -0.6408  1.6224
  765MOL0     H 3262   8.818   4.885   7.854  0.4758 -0.5751  0.0534
  765MOL0     H 3263   8.732   5.280   7.933  1.5546 -1.5331 -0.7666
  765MOL0     H 3264   8.578   5.208   7.895 -0.7480  1.0782  1.1922
  765MOL0     H 3265   8.538   5.390   7.786 -0.9469 -0.8204  1.1628
  765MOL0     H 3266   8.574   5.275   7.666 -0.0742 -2.3045  1.2788
  765MOL0     H 3267   8.811   5.383   7.637  0.7693 -0.0316  0.3412
  765MOL0     H 3268   8.784   5.481   7.771  1.3266 -2.1630 -0.0888
  765MOL0     H 3269   8.655   5.477   7.504 -3.1534 -2.4011  1.5688
  765MOL0     H 3270   8.568   5.573   7.621 -0.8794 -2.4028  1.6149
  765MOL0     H 3271   8.932   5.803   7.598  1.8003 -1.6956  1.6686
  765MOL0     H 3272   8.948   5.296   7.822  0.4894 -0.0569  1.7372
  765MOL0     H 3273   9.241   5.294   7.818  1.4995  0.5275  1.3415
  765MOL0     H 3274   9.135   5.354   7.950  0.3722  1.1916 -1.7746
  765MOL0     H 3275   9.272   5.254   7.987 -0.6285  0.8884  1.3135
  766MOL0     O 3276   4.239   2.350   9.504 -0.0230 -0.3512 -0.2195
  766MOL0     C 3277   4.284   2.354   9.389 -0.0583 -0.0034 -0.3785
  766MOL0     O 3278   4.382   2.276   9.346  0.2396 -0.0922 -0.2576
  766MOL0     C 3279   4.469   2.227   9.434  1.0592 -0.3812 -0.7458
  766MOL0     C 3280   4.605   2.245   9.404  0.1734 -0.6241  0.6050
  766MOL0     C 3281   4.709   2.187   9.482 -0.1021 -0.0865  0.7501
  766MOL0     C 3282   4.672   2.118   9.598  0.1151  0.4244  0.2283
  766MOL0     O 3283   4.766   2.064   9.676  0.5696  0.3124 -0.6830
  766MOL0     C 3284   4.755   1.914   9.678 -0.5408  0.1863 -1.3572
  766MOL0     C 3285   4.802   1.858   9.537  0.0924  0.5986  0.3712
  766MOL0     C 3286   4.947   1.872   9.508  0.2610 -0.3151 -0.1934
  766MOL0     C 3287   4.989   1.812   9.371  0.1097 -0.3241 -0.0190
  766MOL0     C 3288   5.110   1.878   9.293 -0.2627 -0.0238 -0.0204
  766MOL0     C 3289   5.117   1.814   9.153 -0.5299 -0.7502  0.9598
  766MOL0     C 3290   5.241   1.862   9.065 -0.2397 -0.6332  0.2845
  766MOL0     C 3291   5.225   2.009   9.029  0.5902 -0.2714 -0.3614
  766MOL0     N 3292   5.333   2.065   8.956  0.2380  0.2595  0.1681
  766MOL0     C 3293   5.418   1.997   8.863  0.1149  0.1820 -0.3325
  766MOL0     C 3294   5.507   2.091   8.818  0.8769  0.3923 -0.5817
  766MOL0     C 3295   5.618   2.064   8.729 -0.7328  0.6002 -0.1415
  766MOL0     C 3296   5.753   2.056   8.806 -0.0991 -0.8306  0.5147
  766MOL0     C 3297   5.805   2.195   8.825 -0.3764 -0.3466 -0.5172
  766MOL0     C 3298   5.946   2.203   8.885 -1.1689 -0.1984 -0.4647
  766MOL0     O 3299   6.033   2.173   8.787 -0.4667  0.2151  0.4452
  766MOL0     C 3300   6.167   2.180   8.818  0.0144  0.1279  1.1854
  766MOL0     C 3301   6.225   2.214   8.937 -0.0315 -0.4613 -0.6675
  766MOL0     C 3302   6.363   2.203   8.961  0.3027  0.1269  0.2434
  766MOL0     C 3303   6.444   2.165   8.855  0.2805 -1.5465 -0.4901
  766MOL0     C 3304   6.596   2.150   8.879  0.0893 -0.0091 -0.2139
  766MOL0     O 3305   6.639   2.156   9.011  0.1870 -0.7883  0.2872
  766MOL0     C 3306   6.770   2.158   9.048  0.6421  0.2801  0.3103
  766MOL0     C 3307   6.828   2.080   9.149 -0.4507  0.4899  0.7792
  766MOL0     C 3308   6.961   2.083   9.188 -0.1368 -0.6356  0.3385
  766MOL0     C 3309   7.054   2.167   9.114  0.4204 -0.9913 -0.1312
  766MOL0     O 3310   7.191   2.165   9.131  0.2701 -0.3234  0.3143
  766MOL0     C 3311   7.244   2.073   9.230 -0.1840 -0.4873  0.9646
  766MOL0     C 3312   7.265   1.935   9.169 -0.0071  0.6089  0.4515
  766MOL0     C 3313   7.264   1.818   9.276 -0.9563 -0.0210  0.3925
  766MOL0     C 3314   7.343   1.842   9.409  0.0260  0.9373 -0.0210
  766MOL0     C 3315   7.492   1.851   9.390  0.0589  0.5827  0.7969
  766MOL0     C 3316   7.547   1.946   9.496 -0.0808 -0.6209  0.0185
  766MOL0     C 3317   7.528   1.886   9.644  0.9930 -0.3636 -0.0861
  766MOL0     C 3318   7.622   1.980   9.725 -0.3743  0.5206  0.3611
  766MOL0    Cl 3319   7.795   1.916   9.703  0.4347  0.1428  0.3733
  766MOL0     C 3320   7.004   2.228   8.998  0.2008  0.7716 -0.3753
  766MOL0     C 3321   6.863   2.222   8.965 -0.7084  0.5610  0.0307
  766MOL0     O 3322   6.659   2.112   8.776 -0.6735  0.0213 -0.3475
  766MOL0     C 3323   6.391   2.127   8.734 -0.5719  0.4246  0.0127
  766MOL0     C 3324   6.250   2.149   8.719 -0.1097  0.7179  0.1204
  766MOL0     N 3325   5.464   2.212   8.874  0.2592 -0.5915 -0.8391
  766MOL0     N 3326   5.368   2.202   8.957  1.5086  0.3432  0.4441
  766MOL0     C 3327   4.534   2.107   9.630  0.0666  0.1126 -0.2821
  766MOL0     C 3328   4.433   2.156   9.549 -1.1472 -1.2475 -0.2849
  766MOL0     C 3329   4.225   2.455   9.296 -0.3428 -0.0037 -0.5692
  766MOL0     C 3330   4.294   2.472   9.176  0.3423  0.4950  0.3514
  766MOL0     C 3331   4.267   2.580   9.084  0.7775 -0.6038 -0.3034
  766MOL0     C 3332   4.152   2.661   9.111 -0.7090  1.5849 -0.1937
  766MOL0     O 3333   4.113   2.771   9.041  0.1470 -0.0548  0.4839
  766MOL0     C 3334   4.183   2.798   8.915  0.2659  0.4538 -0.9506
  766MOL0     C 3335   4.136   2.926   8.848 -0.7441 -0.7109 -0.3841
  766MOL0     C 3336   4.156   3.047   8.947 -0.5319  0.2354  0.0391
  766MOL0     C 3337   4.293   3.078   9.004 -0.3253 -0.1174 -0.0195
  766MOL0     C 3338   4.300   3.204   9.084 -0.0467  0.6944  0.6336
  766MOL0     C 3339   4.323   3.303   9.133 -0.2980 -0.3665 -0.1240
  766MOL0     C 3340   4.072   2.624   9.219 -0.0141  0.9955 -0.1915
  766MOL0     C 3341   4.113   2.532   9.317 -0.4355 -0.0650 -0.5266
  766MOL0     C 3342   4.035   2.519   9.452 -1.1430  0.7261 -0.8167
  766MOL0     H 3343   4.627   2.303   9.315  2.9562  0.7135  2.0463
  766MOL0     H 3344   4.814   2.200   9.459  0.4683 -1.6300  2.3025
  766MOL0     H 3345   4.824   1.884   9.758 -1.6846  1.2178  0.0945
  766MOL0     H 3346   4.657   1.886   9.718 -0.1460 -0.3285 -0.7248
  766MOL0     H 3347   4.751   1.914   9.458 -1.3049  0.3924  1.1013
  766MOL0     H 3348   4.778   1.752   9.523 -3.2710  1.2706  0.3374
  766MOL0     H 3349   5.004   1.814   9.581 -0.5666 -3.0964 -1.5986
  766MOL0     H 3350   4.971   1.978   9.520  0.7384 -0.3272 -0.9901
  766MOL0     H 3351   5.029   1.715   9.400  1.0166  0.2716  0.7991
  766MOL0     H 3352   4.903   1.804   9.304 -1.1905  0.6275  1.5024
  766MOL0     H 3353   5.091   1.986   9.291 -0.8579 -0.1207 -2.4060
  766MOL0     H 3354   5.208   1.862   9.341 -0.5643 -1.2834  0.2139
  766MOL0     H 3355   5.130   1.708   9.180  0.7034 -0.7004  0.5864
  766MOL0     H 3356   5.025   1.834   9.097  1.4656  0.3585 -2.1809
  766MOL0     H 3357   5.234   1.808   8.971 -2.0225  0.1304 -0.0636
  766MOL0     H 3358   5.341   1.837   9.101  0.8742  2.2503 -0.4883
  766MOL0     H 3359   5.129   2.024   8.980 -0.1460 -6.4580 -1.6895
  766MOL0     H 3360   5.220   2.054   9.129  2.7260  0.6454 -0.6084
  766MOL0     H 3361   5.404   1.893   8.833 -2.7162  1.3164 -3.5988
  766MOL0     H 3362   5.612   1.963   8.689 -3.0448 -1.3177  4.3993
  766MOL0     H 3363   5.624   2.129   8.641  0.4855 -0.8749 -1.2004
  766MOL0     H 3364   5.741   2.002   8.900 -1.3774 -0.8659  0.3472
  766MOL0     H 3365   5.824   2.011   8.735  2.2487  1.9770  0.8958
  766MOL0     H 3366   5.735   2.242   8.895 -0.2747  0.3839 -0.8887
  766MOL0     H 3367   5.796   2.255   8.734  0.6254  1.2233  0.3568
  766MOL0     H 3368   5.959   2.124   8.959 -2.4956  0.9428  1.0690
  766MOL0     H 3369   5.954   2.297   8.940 -1.7447 -1.1903  1.3739
  766MOL0     H 3370   6.162   2.255   9.015 -1.0360 -0.0095 -1.6954
  766MOL0     H 3371   6.410   2.219   9.058  1.4755 -0.2412 -0.2507
  766MOL0     H 3372   6.762   2.012   9.203  2.0996 -1.1059  2.1161
  766MOL0     H 3373   6.988   2.010   9.264  4.2663 -0.1833 -0.5173
  766MOL0     H 3374   7.343   2.113   9.256 -0.0766 -0.9527  1.2795
  766MOL0     H 3375   7.187   2.071   9.324 -1.5621  0.2549  0.1788
  766MOL0     H 3376   7.187   1.917   9.095 -0.2585 -0.5765  0.9865
  766MOL0     H 3377   7.360   1.936   9.113 -0.6739 -0.0382 -0.7327
  766MOL0     H 3378   7.161   1.796   9.307 -0.7969  1.0345  1.7753
  766MOL0     H 3379   7.307   1.726   9.236  0.4370  1.2584 -1.1838
  766MOL0     H 3380   7.330   1.758   9.477  1.4206  1.2984  0.7231
  766MOL0     H 3381   7.300   1.935   9.449 -0.1351  1.4432 -1.2993
  766MOL0     H 3382   7.519   1.884   9.289  0.5276  0.1229  0.7659
  766MOL0     H 3383   7.526   1.748   9.405  3.1609  1.3917  0.0880
  766MOL0     H 3384   7.653   1.961   9.477 -0.1056 -1.4772 -0.8849
  766MOL0     H 3385   7.488   2.038   9.486 -2.3448 -1.8771  1.0156
  766MOL0     H 3386   7.567   1.785   9.658 -0.4930 -1.0120 -0.4578
  766MOL0     H 3387   7.424   1.891   9.675  1.1861  1.9253  0.3782
  766MOL0     H 3388   7.618   2.083   9.687 -2.1364 -0.1539 -1.5149
  766MOL0     H 3389   7.596   1.985   9.831  1.1251 -0.0896  0.7792
  766MOL0     H 3390   7.078   2.271   8.931  2.0934 -0.0220  1.1156
  766MOL0     H 3391   6.834   2.256   8.866  0.0316  0.5026 -0.2117
  766MOL0     H 3392   6.450   2.099   8.647 -1.6095 -0.7769 -0.3366
  766MOL0     H 3393   6.204   2.120   8.625 -1.7138  3.4541 -0.0446
  766MOL0     H 3394   4.518   2.053   9.723  2.1555  0.0712  0.0988
  766MOL0     H 3395   4.336   2.137   9.595 -0.7064 -0.3346  1.0888
  766MOL0     H 3396   4.376   2.407   9.151 -0.3454 -0.7911  1.2953
  766MOL0     H 3397   4.337   2.591   9.001 -1.1506  0.5512 -1.8672
  766MOL0     H 3398   4.158   2.719   8.845  3.2153 -0.7509 -0.7862
  766MOL0     H 3399   4.288   2.804   8.944  0.2479 -2.9841  0.2209
  766MOL0     H 3400   4.028   2.916   8.834 -1.0192  1.1406  0.1760
  766MOL0     H 3401   4.189   2.949   8.756  1.0232 -1.2807  0.4417
  766MOL0     H 3402   4.094   3.038   9.037  1.8731 -0.3462  1.7174
  766MOL0     H 3403   4.122   3.142   8.904  1.0644  0.0392 -1.8222
  766MOL0     H 3404   4.331   2.999   9.070 -0.8058 -0.9932 -0.7651
  766MOL0     H 3405   4.357   3.099   8.918 -3.9460  2.5666 -2.3170
  766MOL0     H 3406   4.359   3.387   9.189  1.2335 -0.8227 -0.3648
  766MOL0     H 3407   3.975   2.674   9.222 -0.4021  0.2252  0.2154
  766MOL0     H 3408   3.979   2.425   9.453  1.8431 -1.1709 -1.0044
  766MOL0     H 3409   4.095   2.534   9.542 -1.6560 -3.8270  0.5543
  766MOL0     H 3410   3.972   2.605   9.474 -0.8066  0.6880  0.3723
  767MOL0     O 3411   8.891   5.139   3.309 -0.6070  0.2803 -0.6118
  767MOL0     C 3412   8.908   5.180   3.423  0.0368  0.0914  1.0016
  767MOL0     O 3413   8.870   5.115   3.538  0.3519 -0.1082  0.1556
  767MOL0     C 3414   8.857   4.979   3.530  0.9104 -0.2837  0.4385
  767MOL0     C 3415   8.919   4.905   3.627 -0.7964  0.5486 -0.8195
  767MOL0     C 3416   8.894   4.761   3.631  0.1214  0.5853  0.4062
  767MOL0     C 3417   8.791   4.706   3.548 -0.2693 -0.2163  0.8462
  767MOL0     O 3418   8.741   4.581   3.569  0.3777  0.5134 -0.1825
  767MOL0     C 3419   8.793   4.489   3.671  0.5090 -0.4289 -0.3738
  767MOL0     C 3420   8.728   4.354   3.651 -0.5338  0.1413  1.1462
  767MOL0     C 3421   8.747   4.267   3.778 -0.4163  0.2210 -0.0828
  767MOL0     C 3422   8.895   4.225   3.803 -0.1553 -0.3861  0.5725
  767MOL0     C 3423   8.895   4.141   3.939  0.6368 -0.7568  1.3791
  767MOL0     C 3424   9.048   4.127   3.988  0.6386  0.4939 -0.0443
  767MOL0     C 3425   9.078   4.045   4.116  0.3533  0.6384  0.3024
  767MOL0     C 3426   9.056   4.129   4.250  0.1671 -0.4045 -0.6541
  767MOL0     N 3427   9.088   4.043   4.366  0.7310  0.7017 -0.1155
  767MOL0     C 3428   8.998   4.016   4.463 -0.1140 -0.4107 -0.8588
  767MOL0     C 3429   9.061   3.925   4.547 -0.0187 -0.1566 -0.0015
  767MOL0     C 3430   9.013   3.864   4.676 -0.2495 -0.2981  0.5830
  767MOL0     C 3431   8.931   3.730   4.647 -0.0207 -0.6248  0.1493
  767MOL0     C 3432   9.004   3.606   4.585  0.2713  0.0921  0.0960
  767MOL0     C 3433   9.141   3.587   4.645 -0.8217  0.1244  0.2143
  767MOL0     O 3434   9.196   3.458   4.621  0.7249  0.9856  0.1007
  767MOL0     C 3435   9.317   3.425   4.674  0.0574 -1.3990 -0.5085
  767MOL0     C 3436   9.379   3.480   4.782 -0.6658 -0.0588  0.2241
  767MOL0     C 3437   9.510   3.444   4.821  0.8391 -0.2170 -0.5646
  767MOL0     C 3438   9.578   3.333   4.759 -0.3541 -0.6012  0.6415
  767MOL0     C 3439   9.715   3.292   4.782  0.3395 -1.1554 -0.0232
  767MOL0     O 3440   9.764   3.230   4.676 -0.1900  0.0273 -0.2912
  767MOL0     C 3441   9.900   3.207   4.674 -0.1363  0.0839  0.5244
  767MOL0     C 3442   9.953   3.084   4.637  0.6443 -0.0301  0.4298
  767MOL0     C 3443  10.091   3.069   4.603  0.0668  0.4979  1.1390
  767MOL0     C 3444  10.176   3.175   4.621 -1.0923  0.9948 -0.4167
  767MOL0     O 3445  10.306   3.178   4.579 -0.0037  0.5523  0.5675
  767MOL0     C 3446  10.327   3.177   4.435  0.0525 -0.2292 -0.8228
  767MOL0     C 3447  10.472   3.175   4.413  0.1311 -0.6715 -0.1354
  767MOL0     C 3448  10.533   3.047   4.467  0.3434  0.4995 -0.3574
  767MOL0     C 3449  10.682   3.036   4.441  0.0860  0.3718 -0.8934
  767MOL0     C 3450  10.758   3.102   4.558  0.5676 -0.0942  0.2960
  767MOL0     C 3451  10.909   3.108   4.537  0.4159 -0.0880 -0.2876
  767MOL0     C 3452  10.946   3.215   4.441 -0.2681  0.3637  0.2646
  767MOL0     C 3453  11.103   3.238   4.422  0.7730 -1.0529  0.7696
  767MOL0    Cl 3454  11.185   3.096   4.352 -0.0603  0.3335 -0.0370
  767MOL0     C 3455  10.135   3.293   4.666  0.1243 -0.2428  0.0783
  767MOL0     C 3456   9.994   3.315   4.689  0.2844 -0.0811  0.9800
  767MOL0     O 3457   9.780   3.334   4.880  0.2075  1.0867  0.3482
  767MOL0     C 3458   9.506   3.272   4.660  0.3397  0.3662 -0.3119
  767MOL0     C 3459   9.381   3.327   4.614 -0.2548  0.6123  0.0643
  767MOL0     N 3460   9.192   3.907   4.493 -0.2313 -0.9256  0.5604
  767MOL0     N 3461   9.210   3.992   4.390 -0.3328  0.3320 -0.3113
  767MOL0     C 3462   8.733   4.787   3.453 -0.3994  0.3627 -0.7401
  767MOL0     C 3463   8.765   4.918   3.435 -0.1042 -1.2780 -0.4506
  767MOL0     C 3464   8.950   5.324   3.442 -0.6677 -0.3478 -0.0904
  767MOL0     C 3465   9.065   5.347   3.519  0.6320  0.3919  0.1473
  767MOL0     C 3466   9.122   5.483   3.528 -0.6651  0.9639 -0.3853
  767MOL0     C 3467   9.070   5.585   3.450  0.8281  0.1360 -0.5418
  767MOL0     O 3468   9.139   5.704   3.455 -1.2230  0.1426 -0.3604
  767MOL0     C 3469   9.127   5.789   3.341  0.6188 -0.4448 -0.7686
  767MOL0     C 3470   9.240   5.894   3.353 -0.5712 -0.6657 -0.1727
  767MOL0     C 3471   9.229   6.008   3.244  0.1515  0.5885 -0.5416
  767MOL0     C 3472   9.349   6.095   3.266 -0.2550 -0.5568 -0.7406
  767MOL0     C 3473   9.351   6.191   3.158 -0.2603  0.1486 -0.9397
  767MOL0     C 3474   9.347   6.281   3.086 -0.4168 -0.1132  0.1491
  767MOL0     C 3475   8.961   5.555   3.368  0.8805  0.4854 -0.0221
  767MOL0     C 3476   8.895   5.431   3.372 -0.1530  0.5284 -0.2971
  767MOL0     C 3477   8.770   5.395   3.284  0.1281 -0.7457 -0.5615
  767MOL0     H 3478   8.973   4.942   3.713 -1.1661 -3.6600  1.4819
  767MOL0     H 3479   8.947   4.704   3.707  0.3649 -3.0348 -2.2187
  767MOL0     H 3480   8.901   4.474   3.674  0.2460 -2.5897 -0.0771
  767MOL0     H 3481   8.766   4.531   3.769  0.7997  3.5966 -1.8254
  767MOL0     H 3482   8.785   4.305   3.572  1.0232  1.8176  1.1722
  767MOL0     H 3483   8.626   4.347   3.614 -0.3094 -0.5298  0.6310
  767MOL0     H 3484   8.685   4.177   3.773  1.6127 -1.1860 -2.2476
  767MOL0     H 3485   8.718   4.319   3.869  0.1891 -1.9351  1.4192
  767MOL0     H 3486   8.935   4.166   3.720  0.4865 -0.6967  1.0938
  767MOL0     H 3487   8.945   4.321   3.819 -1.0122 -0.2897  3.1012
  767MOL0     H 3488   8.839   4.172   4.028 -0.5377 -0.7614  0.6615
  767MOL0     H 3489   8.863   4.038   3.921  1.9070 -0.8467 -0.7094
  767MOL0     H 3490   9.103   4.075   3.910  0.6269  1.2269 -0.5501
  767MOL0     H 3491   9.087   4.228   4.004  0.0550  0.9758 -1.5010
  767MOL0     H 3492   9.185   4.022   4.115  0.5899  1.2751  2.8431
  767MOL0     H 3493   9.028   3.948   4.112 -1.5029  1.5308  0.8258
  767MOL0     H 3494   9.126   4.213   4.258  0.0428 -0.2849 -0.8217
  767MOL0     H 3495   8.951   4.158   4.247 -0.5733 -2.2648  2.7186
  767MOL0     H 3496   8.900   4.057   4.483  1.3407  3.9389 -1.7170
  767MOL0     H 3497   9.086   3.845   4.755  0.2016  0.0590  0.2591
  767MOL0     H 3498   8.938   3.931   4.719  0.1162 -0.0503  0.8418
  767MOL0     H 3499   8.885   3.706   4.744 -2.7541 -1.8976 -1.3507
  767MOL0     H 3500   8.847   3.765   4.586  0.7892 -0.3485 -0.8292
  767MOL0     H 3501   9.019   3.633   4.480  0.7908  1.5667  0.5150
  767MOL0     H 3502   8.935   3.522   4.596 -1.9296  2.0378  2.2915
  767MOL0     H 3503   9.128   3.607   4.751  1.4502  1.5062  0.2998
  767MOL0     H 3504   9.206   3.663   4.600 -0.9901 -1.7550 -3.6355
  767MOL0     H 3505   9.333   3.563   4.834 -4.5353 -2.4524  1.0527
  767MOL0     H 3506   9.563   3.513   4.886 -1.4179  0.9106  0.1846
  767MOL0     H 3507   9.882   3.002   4.634  2.4158 -1.6809 -2.9115
  767MOL0     H 3508  10.127   2.972   4.570 -2.5648  0.0546 -0.8805
  767MOL0     H 3509  10.285   3.101   4.369  1.3975  0.9573 -3.1619
  767MOL0     H 3510  10.283   3.270   4.400 -1.3958 -0.7809 -0.5346
  767MOL0     H 3511  10.504   3.188   4.309  1.1193  1.3455  0.3682
  767MOL0     H 3512  10.515   3.257   4.471 -3.4270 -0.9092  3.2152
  767MOL0     H 3513  10.510   3.033   4.573 -1.8204  0.4642 -0.7945
  767MOL0     H 3514  10.485   2.968   4.407 -2.3755  0.8865  1.1552
  767MOL0     H 3515  10.696   3.105   4.357  1.6230  1.9136  0.5477
  767MOL0     H 3516  10.717   2.937   4.412 -0.2005 -0.2052  0.6710
  767MOL0     H 3517  10.730   3.040   4.643  0.5881  2.1637  2.0426
  767MOL0     H 3518  10.713   3.201   4.572  1.3886  0.7327 -2.2966
  767MOL0     H 3519  10.950   3.130   4.636 -1.6177  0.2541  0.5459
  767MOL0     H 3520  10.951   3.014   4.501  4.9172  1.1181  1.2248
  767MOL0     H 3521  10.908   3.308   4.485 -0.9209 -1.5330  4.1528
  767MOL0     H 3522  10.901   3.198   4.343 -1.4410  1.6222  0.5537
  767MOL0     H 3523  11.114   3.320   4.350  1.3517 -1.5314  0.3053
  767MOL0     H 3524  11.157   3.276   4.509  2.7663 -0.3363 -0.7004
  767MOL0     H 3525  10.205   3.373   4.690  1.6840 -0.9036 -1.9595
  767MOL0     H 3526   9.965   3.419   4.702  2.4692  1.0490 -1.9838
  767MOL0     H 3527   9.535   3.188   4.599 -2.8874 -0.6488 -0.6732
  767MOL0     H 3528   9.330   3.280   4.531  1.2556  0.9647 -1.1063
  767MOL0     H 3529   8.663   4.735   3.387 -0.7602 -0.0081 -0.0713
  767MOL0     H 3530   8.717   4.987   3.367  1.0509  0.8472  0.7754
  767MOL0     H 3531   9.114   5.264   3.569  2.3499 -0.2234 -2.4093
  767MOL0     H 3532   9.212   5.493   3.586  1.0500 -1.2460 -2.4261
  767MOL0     H 3533   9.032   5.841   3.356 -0.0877 -2.0060  0.3934
  767MOL0     H 3534   9.126   5.731   3.249 -0.8537 -2.8904  0.6838
  767MOL0     H 3535   9.333   5.837   3.343 -0.6162 -1.7378  3.6451
  767MOL0     H 3536   9.223   5.938   3.452 -3.3866 -3.7394  0.9113
  767MOL0     H 3537   9.136   6.061   3.263  0.4720  1.1382 -0.4762
  767MOL0     H 3538   9.235   5.956   3.148  0.2790 -0.3881 -0.0210
  767MOL0     H 3539   9.353   6.145   3.363  3.0541 -0.1935 -0.9584
  767MOL0     H 3540   9.438   6.032   3.258  1.4253  1.6825 -0.7754
  767MOL0     H 3541   9.338   6.362   3.016  0.8622  1.7030  1.9805
  767MOL0     H 3542   8.909   5.625   3.304  0.5715 -1.3389 -1.8929
  767MOL0     H 3543   8.703   5.321   3.329 -1.7397 -1.0324 -3.5270
  767MOL0     H 3544   8.708   5.484   3.272  0.7224  0.2145  2.6107
  767MOL0     H 3545   8.806   5.354   3.189  1.8428 -0.1275 -0.2157
  768MOL0     O 3546   7.240   6.187   5.294 -0.2646  0.1692  0.3388
  768MOL0     C 3547   7.293   6.257   5.384 -0.1506 -0.3262 -1.1258
  768MOL0     O 3548   7.430   6.262   5.401 -0.0012  0.2380  0.2651
  768MOL0     C 3549   7.516   6.267   5.293 -0.3155  0.5155  0.7472
  768MOL0     C 3550   7.644   6.220   5.319 -0.5398  0.6347  1.1577
  768MOL0     C 3551   7.747   6.239   5.221  0.3665 -0.5987  0.6498
  768MOL0     C 3552   7.716   6.313   5.097  0.2009 -0.2082  0.1660
  768MOL0     O 3553   7.802   6.340   4.997 -1.1583 -0.6712 -0.8741
  768MOL0     C 3554   7.918   6.257   5.000 -0.6629 -0.1315 -0.5052
  768MOL0     C 3555   8.025   6.330   5.077 -0.8397  0.1567 -0.2050
  768MOL0     C 3556   8.093   6.451   5.009 -0.2357  0.3025  0.4612
  768MOL0     C 3557   8.215   6.407   4.939 -0.0348 -0.0358  0.5201
  768MOL0     C 3558   8.265   6.508   4.837  0.4420  0.1713 -0.6107
  768MOL0     C 3559   8.386   6.468   4.748  0.6647  0.8132 -0.0262
  768MOL0     C 3560   8.448   6.592   4.684  0.3449 -0.1686 -0.3426
  768MOL0     C 3561   8.569   6.532   4.598 -0.2587  0.1673 -0.1780
  768MOL0     N 3562   8.634   6.643   4.540  0.2224 -0.0028 -1.5378
  768MOL0     C 3563   8.708   6.743   4.603  0.0862 -0.3111  0.2560
  768MOL0     C 3564   8.747   6.826   4.505 -0.2053  0.1467 -0.4842
  768MOL0     C 3565   8.833   6.944   4.542 -0.0364  0.6038  0.5024
  768MOL0     C 3566   8.960   6.968   4.451 -0.0254 -0.6176 -0.2966
  768MOL0     C 3567   9.030   7.098   4.481 -0.6410  0.6985 -0.3057
  768MOL0     C 3568   8.953   7.232   4.461  0.2167 -0.3290 -0.6743
  768MOL0     O 3569   9.047   7.338   4.496  0.5391 -0.0376 -0.1876
  768MOL0     C 3570   9.001   7.468   4.495  0.5376 -0.6613 -1.1354
  768MOL0     C 3571   8.890   7.509   4.424 -0.6119 -0.3921  0.8015
  768MOL0     C 3572   8.858   7.638   4.417  0.4223  0.5802  0.2903
  768MOL0     C 3573   8.922   7.743   4.485 -0.2139  0.2536 -0.2665
  768MOL0     C 3574   8.882   7.882   4.462  0.7146 -1.0834 -0.6933
  768MOL0     O 3575   8.777   7.911   4.382 -0.8315 -0.1877  0.6954
  768MOL0     C 3576   8.743   8.043   4.352  1.2340 -1.2945 -0.4147
  768MOL0     C 3577   8.608   8.062   4.338 -0.1577 -0.2637 -0.9703
  768MOL0     C 3578   8.550   8.188   4.327 -1.0652  0.0820  1.2523
  768MOL0     C 3579   8.638   8.302   4.308 -0.6040 -0.6467 -0.2390
  768MOL0     O 3580   8.619   8.428   4.266  0.4824 -0.4554 -0.4099
  768MOL0     C 3581   8.499   8.444   4.188  0.5834 -0.6165 -0.9890
  768MOL0     C 3582   8.465   8.582   4.142 -0.7307 -0.3016  0.7304
  768MOL0     C 3583   8.461   8.683   4.260  0.4700  0.5608  0.6406
  768MOL0     C 3584   8.348   8.778   4.228  0.9366  0.0399 -0.1243
  768MOL0     C 3585   8.336   8.883   4.344 -0.1893  0.4533  0.3066
  768MOL0     C 3586   8.260   8.837   4.470 -0.1630  0.8290  0.7066
  768MOL0     C 3587   8.245   8.954   4.567  0.3089  0.2236  0.4331
  768MOL0     C 3588   8.186   8.927   4.694  1.1921  0.6529  0.4885
  768MOL0    Cl 3589   8.005   8.951   4.688 -0.1484  0.3779 -0.1299
  768MOL0     C 3590   8.777   8.285   4.327  0.8878 -0.7711 -0.4169
  768MOL0     C 3591   8.833   8.159   4.344 -0.2573 -0.8300 -0.6634
  768MOL0     O 3592   8.940   7.963   4.536  0.1710  0.1474  0.2477
  768MOL0     C 3593   9.029   7.701   4.562 -0.0499  0.5004  0.5876
  768MOL0     C 3594   9.079   7.568   4.560  0.3717 -0.0430  0.3509
  768MOL0     N 3595   8.701   6.774   4.383  0.1638 -0.4097 -0.0119
  768MOL0     N 3596   8.633   6.662   4.403  0.3638  0.2031 -0.5021
  768MOL0     C 3597   7.583   6.362   5.087  0.2602 -0.0468 -0.7556
  768MOL0     C 3598   7.484   6.339   5.177  0.3509  1.0800 -0.1814
  768MOL0     C 3599   7.199   6.316   5.475 -0.5142  0.2737  0.1653
  768MOL0     C 3600   7.065   6.303   5.457 -0.3742  0.4475 -0.2971
  768MOL0     C 3601   6.974   6.377   5.541 -0.3320  0.0588 -0.2257
  768MOL0     C 3602   7.027   6.428   5.660 -0.3968  0.1186 -0.9087
  768MOL0     O 3603   6.954   6.472   5.766 -0.0649  0.4439 -0.4312
  768MOL0     C 3604   6.805   6.452   5.760 -0.1245  0.1398 -0.0610
  768MOL0     C 3605   6.744   6.496   5.892 -0.2227  0.5144  0.4345
  768MOL0     C 3606   6.797   6.410   6.015  0.0010 -0.5146  1.6962
  768MOL0     C 3607   6.725   6.436   6.140 -0.0417  0.3967  0.2081
  768MOL0     C 3608   6.721   6.583   6.171  0.8654  0.7386  1.3899
  768MOL0     C 3609   6.717   6.704   6.188 -0.4881  0.7539  0.2761
  768MOL0     C 3610   7.156   6.447   5.678  0.2831  0.1509  0.2734
  768MOL0     C 3611   7.246   6.389   5.595  1.0426  0.8352  0.7024
  768MOL0     C 3612   7.393   6.421   5.631 -0.4251 -0.2236  0.3455
  768MOL0     H 3613   7.676   6.173   5.411 -0.2210 -0.6388  0.4107
  768MOL0     H 3614   7.842   6.194   5.247  0.7855  0.0352  0.2459
  768MOL0     H 3615   7.902   6.154   5.032  0.9579 -0.5769 -1.0508
  768MOL0     H 3616   7.960   6.240   4.900  2.4369 -1.7215  0.9258
  768MOL0     H 3617   8.094   6.250   5.103 -2.3092 -1.2353 -0.4408
  768MOL0     H 3618   7.980   6.377   5.165  2.1809 -0.7292  1.9802
  768MOL0     H 3619   8.117   6.525   5.086 -3.3530 -0.4642  2.3221
  768MOL0     H 3620   8.032   6.497   4.931 -2.2225  1.3351  2.5193
  768MOL0     H 3621   8.294   6.390   5.013 -0.9295  1.2061  1.8375
  768MOL0     H 3622   8.190   6.322   4.876 -1.2583  0.6921 -0.0175
  768MOL0     H 3623   8.188   6.552   4.773  0.6805 -0.1478 -1.1156
  768MOL0     H 3624   8.307   6.588   4.900  4.2508 -0.2527 -2.3199
  768MOL0     H 3625   8.468   6.411   4.793  2.2568 -0.4189 -4.0722
  768MOL0     H 3626   8.358   6.412   4.658  2.0978  2.9194 -1.8865
  768MOL0     H 3627   8.476   6.665   4.760 -3.1506 -2.0859  3.1258
  768MOL0     H 3628   8.379   6.649   4.621  1.3788  1.1365 -0.3597
  768MOL0     H 3629   8.647   6.485   4.658  1.7901 -0.5773 -3.2184
  768MOL0     H 3630   8.530   6.469   4.518 -0.3745  0.7855 -0.6194
  768MOL0     H 3631   8.739   6.755   4.706 -0.9624  1.6213  0.3924
  768MOL0     H 3632   8.769   7.031   4.524 -0.9460 -0.4733 -1.8751
  768MOL0     H 3633   8.850   6.944   4.651  1.1734  1.6306  0.3337
  768MOL0     H 3634   9.032   6.887   4.467 -0.1003 -0.5346  0.5562
  768MOL0     H 3635   8.930   6.953   4.347 -3.0526 -1.8185  0.6197
  768MOL0     H 3636   9.125   7.103   4.428  0.3149  3.8951  1.4589
  768MOL0     H 3637   9.063   7.092   4.585 -0.3372  1.1304 -0.3765
  768MOL0     H 3638   8.869   7.229   4.532 -0.3165  2.0964 -1.1131
  768MOL0     H 3639   8.919   7.247   4.358 -2.3866 -0.7390  0.0507
  768MOL0     H 3640   8.833   7.439   4.364 -0.4205 -1.7692  2.1591
  768MOL0     H 3641   8.770   7.664   4.359  1.3656  0.5016 -1.2126
  768MOL0     H 3642   8.541   7.979   4.360  0.3440 -0.1389  1.2442
  768MOL0     H 3643   8.442   8.199   4.335 -1.4921 -3.2314  1.4515
  768MOL0     H 3644   8.497   8.378   4.100 -0.2256  1.5098 -2.6461
  768MOL0     H 3645   8.418   8.408   4.252  0.0045  0.5595 -1.0352
  768MOL0     H 3646   8.532   8.613   4.061 -2.8988  0.8831 -0.7123
  768MOL0     H 3647   8.372   8.588   4.084  0.5475  2.3370 -1.2971
  768MOL0     H 3648   8.446   8.627   4.353  2.4506 -0.6923  0.2770
  768MOL0     H 3649   8.552   8.744   4.262 -0.2835  1.7050  1.2583
  768MOL0     H 3650   8.253   8.728   4.205 -0.2033  2.6045 -1.3769
  768MOL0     H 3651   8.370   8.825   4.132 -0.8958 -0.3244 -0.7581
  768MOL0     H 3652   8.297   8.978   4.306 -0.6203  0.6471  1.2028
  768MOL0     H 3653   8.436   8.895   4.387 -0.8706 -0.7996  2.3652
  768MOL0     H 3654   8.161   8.816   4.428 -0.2687  1.0100  0.8650
  768MOL0     H 3655   8.311   8.746   4.502 -0.1704  0.9346  1.0203
  768MOL0     H 3656   8.170   9.018   4.520  0.2387  1.0718  1.6488
  768MOL0     H 3657   8.345   8.995   4.579 -0.5244  2.4865  0.0052
  768MOL0     H 3658   8.207   8.833   4.745 -0.0160  0.6787  1.0710
  768MOL0     H 3659   8.231   9.000   4.762 -2.5673  1.7347  2.0866
  768MOL0     H 3660   8.838   8.374   4.319  0.8709 -0.5603  1.4852
  768MOL0     H 3661   8.940   8.157   4.361 -0.7371  1.1095  4.1912
  768MOL0     H 3662   9.079   7.779   4.618 -1.0437  2.8419 -1.5841
  768MOL0     H 3663   9.170   7.542   4.612  0.9183 -1.2632 -1.1264
  768MOL0     H 3664   7.555   6.425   5.004 -2.9747 -0.7554 -0.3387
  768MOL0     H 3665   7.385   6.375   5.150 -0.9407 -1.3340  1.0909
  768MOL0     H 3666   7.025   6.256   5.368  0.1239  2.7263 -1.8002
  768MOL0     H 3667   6.869   6.373   5.515  0.1671 -1.1805 -2.3402
  768MOL0     H 3668   6.787   6.345   5.748  2.0315 -0.4062  0.9747
  768MOL0     H 3669   6.751   6.500   5.678  0.5078  1.0780  0.0550
  768MOL0     H 3670   6.636   6.477   5.894 -0.4540  1.5923 -0.7530
  768MOL0     H 3671   6.758   6.603   5.910  0.0636  0.4693  0.4792
  768MOL0     H 3672   6.904   6.428   6.031 -0.0986  1.7563  0.2007
  768MOL0     H 3673   6.775   6.306   5.990  1.8719 -0.1014 -2.5671
  768MOL0     H 3674   6.623   6.396   6.141 -0.5357  1.5906  1.8278
  768MOL0     H 3675   6.774   6.381   6.220 -0.6768 -0.5816 -0.0576
  768MOL0     H 3676   6.721   6.805   6.225 -1.3642  1.2618 -0.9637
  768MOL0     H 3677   7.194   6.503   5.762 -0.1927 -0.2934  0.7948
  768MOL0     H 3678   7.428   6.496   5.559  1.0197 -2.4633 -1.4182
  768MOL0     H 3679   7.409   6.455   5.734 -2.4307  0.4116  0.4915
  768MOL0     H 3680   7.456   6.331   5.629 -0.2022 -0.1212  1.7103
  769MOL0     O 3681   9.996   5.139   2.728  0.3745 -0.4862 -0.3568
  769MOL0     C 3682  10.068   5.190   2.815  0.9445 -0.4835 -0.3851
  769MOL0     O 3683  10.035   5.207   2.945 -0.1051  0.7395  0.3206
  769MOL0     C 3684   9.922   5.145   2.980 -0.7310  0.8322  0.5422
  769MOL0     C 3685   9.790   5.177   2.935  0.7036  0.4066 -0.4893
  769MOL0     C 3686   9.674   5.115   2.979 -0.2870  0.2284 -0.0451
  769MOL0     C 3687   9.691   5.001   3.054 -0.0890  0.7757  0.6621
  769MOL0     O 3688   9.584   4.924   3.085  0.5033  1.5138  0.3945
  769MOL0     C 3689   9.585   4.799   3.160 -0.2075  0.3831 -0.5377
  769MOL0     C 3690   9.439   4.751   3.159 -0.0170  0.1916  0.0756
  769MOL0     C 3691   9.443   4.607   3.211 -0.9065  0.0324 -0.5998
  769MOL0     C 3692   9.344   4.512   3.146  0.2039  0.5731 -0.0873
  769MOL0     C 3693   9.379   4.361   3.162 -0.8527 -0.2420  0.0512
  769MOL0     C 3694   9.270   4.275   3.094  0.1113  0.0671 -0.8493
  769MOL0     C 3695   9.284   4.133   3.136 -0.1734 -0.3986 -0.3994
  769MOL0     C 3696   9.181   4.036   3.091 -0.2937 -0.5735  0.1389
  769MOL0     N 3697   9.212   3.993   2.957 -0.6937 -0.0128 -0.8545
  769MOL0     C 3698   9.189   4.056   2.844  0.5880 -0.7563  0.4455
  769MOL0     C 3699   9.247   3.981   2.743 -0.5931 -0.4024  0.2304
  769MOL0     C 3700   9.241   4.009   2.594  0.3897 -0.0497 -0.4965
  769MOL0     C 3701   9.136   3.925   2.542  0.4820 -0.1676 -1.0604
  769MOL0     C 3702   9.146   3.893   2.393 -0.9897 -0.6151  0.4963
  769MOL0     C 3703   9.115   4.004   2.295 -0.6148  0.3790 -0.4141
  769MOL0     O 3704   9.132   3.939   2.163 -0.4409  0.2910 -0.0422
  769MOL0     C 3705   9.230   3.973   2.084 -0.5951 -0.6601 -0.2025
  769MOL0     C 3706   9.345   4.043   2.129  0.4689  0.3122  0.2545
  769MOL0     C 3707   9.456   4.066   2.046  0.6697  0.3347  0.3947
  769MOL0     C 3708   9.454   4.016   1.913  1.0721  0.2755 -0.7026
  769MOL0     C 3709   9.571   4.031   1.821 -0.4007  0.6585 -0.1941
  769MOL0     O 3710   9.568   3.975   1.700 -0.3673  0.6494 -0.0051
  769MOL0     C 3711   9.679   3.973   1.616 -0.1715 -0.6662 -0.6038
  769MOL0     C 3712   9.662   3.995   1.480 -0.6165  0.4652 -0.9531
  769MOL0     C 3713   9.773   3.986   1.389  0.8065 -0.5498  0.1661
  769MOL0     C 3714   9.904   3.948   1.439  1.1584 -0.1216  1.2154
  769MOL0     O 3715  10.016   3.952   1.354 -0.4404 -0.0080 -1.2999
  769MOL0     C 3716  10.027   3.851   1.251  0.3518  0.1023 -0.2600
  769MOL0     C 3717  10.169   3.841   1.196 -0.1533  1.2411  0.1432
  769MOL0     C 3718  10.193   3.953   1.088  0.4997  0.6677 -0.3938
  769MOL0     C 3719  10.077   3.984   0.995 -0.1729 -0.3754  0.3396
  769MOL0     C 3720  10.008   4.112   1.042 -0.0385 -0.9906 -0.1693
  769MOL0     C 3721   9.872   4.145   0.981  0.4022  0.2169 -0.4086
  769MOL0     C 3722   9.897   4.213   0.850 -0.0299 -0.8702 -0.4461
  769MOL0     C 3723   9.761   4.248   0.795 -0.1175 -0.5284  0.3238
  769MOL0    Cl 3724   9.776   4.379   0.671 -0.1735 -0.5426 -0.0264
  769MOL0     C 3725   9.917   3.928   1.574  0.3730  0.6509 -0.5272
  769MOL0     C 3726   9.805   3.936   1.665 -0.4185  0.5289  0.8520
  769MOL0     O 3727   9.667   4.090   1.863 -0.0704 -0.3006  0.5623
  769MOL0     C 3728   9.335   3.958   1.868  0.3134 -0.9393  0.5218
  769MOL0     C 3729   9.224   3.937   1.952  0.4579  0.4739 -0.2198
  769MOL0     N 3730   9.306   3.875   2.811  0.2067  0.2032  0.0189
  769MOL0     N 3731   9.289   3.887   2.934 -0.4833 -0.3502 -0.6157
  769MOL0     C 3732   9.823   4.966   3.100  0.0142 -0.7906  0.1410
  769MOL0     C 3733   9.935   5.033   3.068 -1.0187 -0.3813  0.8582
  769MOL0     C 3734  10.209   5.221   2.785 -0.0228  0.1191  0.7607
  769MOL0     C 3735  10.287   5.298   2.877 -0.0055 -0.3150  0.4018
  769MOL0     C 3736  10.422   5.310   2.868 -0.5229 -0.2968  0.2369
  769MOL0     C 3737  10.489   5.258   2.761  0.2497 -0.4652  0.5275
  769MOL0     O 3738  10.627   5.285   2.734  0.0854  0.1402  0.1888
  769MOL0     C 3739  10.720   5.327   2.834 -0.5841 -0.3180 -0.1524
  769MOL0     C 3740  10.869   5.300   2.816  0.1328  0.1935  0.3788
  769MOL0     C 3741  10.964   5.384   2.901 -0.3661 -1.1532 -0.2282
  769MOL0     C 3742  11.111   5.345   2.878  0.1049 -0.6099  0.5148
  769MOL0     C 3743  11.138   5.223   2.939 -0.1047  0.6689 -0.8904
  769MOL0     C 3744  11.154   5.116   3.000  0.3738 -0.1268  0.7576
  769MOL0     C 3745  10.420   5.188   2.665  0.1542  0.4256 -0.2954
  769MOL0     C 3746  10.284   5.164   2.671  0.4872  0.3977 -0.5578
  769MOL0     C 3747  10.222   5.079   2.556 -0.0652  0.0615  0.1870
  769MOL0     H 3748   9.780   5.268   2.877  1.6142  1.1510  0.4873
  769MOL0     H 3749   9.575   5.158   2.965 -0.0113  0.5325 -1.1407
  769MOL0     H 3750   9.651   4.731   3.107  0.1389  0.4919 -0.2569
  769MOL0     H 3751   9.615   4.818   3.264 -1.1772  1.7211 -0.4654
  769MOL0     H 3752   9.391   4.767   3.062 -0.4176  5.1445  0.8399
  769MOL0     H 3753   9.380   4.796   3.239 -1.0269 -0.8148 -0.0818
  769MOL0     H 3754   9.426   4.612   3.319 -1.1340  0.2433 -0.6450
  769MOL0     H 3755   9.543   4.566   3.195 -0.9311  0.0970 -0.9274
  769MOL0     H 3756   9.245   4.535   3.189  0.3473 -1.2934  1.3779
  769MOL0     H 3757   9.350   4.527   3.038  0.2126  0.6225 -0.0800
  769MOL0     H 3758   9.478   4.334   3.125 -0.5405  1.8454 -0.7422
  769MOL0     H 3759   9.373   4.337   3.269  3.2231  1.7759  0.9310
  769MOL0     H 3760   9.174   4.306   3.137 -0.4013 -2.6944  0.2111
  769MOL0     H 3761   9.281   4.291   2.986 -0.8211  2.7680 -0.6257
  769MOL0     H 3762   9.277   4.127   3.245  3.9102  0.1369  0.0401
  769MOL0     H 3763   9.383   4.096   3.109 -0.0732 -2.2491  2.0735
  769MOL0     H 3764   9.198   3.952   3.159 -1.7462 -1.2138 -0.2363
  769MOL0     H 3765   9.078   4.070   3.107  0.1843  1.5552 -0.8492
  769MOL0     H 3766   9.137   4.149   2.827 -0.8910 -1.9674 -2.4221
  769MOL0     H 3767   9.225   4.115   2.577  0.4027  0.2365  1.0751
  769MOL0     H 3768   9.338   3.980   2.552 -0.3629  0.1309 -2.4550
  769MOL0     H 3769   9.119   3.839   2.608  2.4967  1.8870  2.4917
  769MOL0     H 3770   9.042   3.977   2.563 -0.0926 -1.9876  1.3337
  769MOL0     H 3771   9.096   3.800   2.364 -3.1540  0.6605 -0.1673
  769MOL0     H 3772   9.251   3.868   2.377 -1.0701 -0.3222 -0.5347
  769MOL0     H 3773   9.181   4.092   2.296  1.2023 -0.9126 -1.1178
  769MOL0     H 3774   9.014   4.038   2.318 -0.0415  0.0570  3.2365
  769MOL0     H 3775   9.354   4.055   2.236 -1.4390  3.1784  0.1846
  769MOL0     H 3776   9.527   4.143   2.077  1.8643 -0.4748 -0.2622
  769MOL0     H 3777   9.570   4.039   1.441 -0.8791  0.4346 -0.3688
  769MOL0     H 3778   9.763   4.015   1.285 -2.6559 -0.7579  0.3326
  769MOL0     H 3779   9.998   3.754   1.292  2.2898 -0.8253 -0.9295
  769MOL0     H 3780   9.948   3.864   1.176  1.3566 -0.5657 -1.4831
  769MOL0     H 3781  10.239   3.838   1.280 -0.1684 -2.1299  0.1703
  769MOL0     H 3782  10.184   3.743   1.149  1.8351  1.0229  1.1410
  769MOL0     H 3783  10.235   4.041   1.138  0.5532  0.2288  0.3609
  769MOL0     H 3784  10.268   3.922   1.016 -0.9217  1.2537 -2.2032
  769MOL0     H 3785  10.008   3.901   0.976  0.4015 -0.9850  0.8776
  769MOL0     H 3786  10.127   4.011   0.902 -0.5664  1.3295  0.5822
  769MOL0     H 3787  10.079   4.192   1.025 -2.3810  1.8498  2.2521
  769MOL0     H 3788   9.991   4.116   1.150  0.6953  0.1742 -0.0804
  769MOL0     H 3789   9.806   4.059   0.970 -0.7594  0.9457  0.6625
  769MOL0     H 3790   9.821   4.211   1.051 -0.9110 -0.6972 -0.4688
  769MOL0     H 3791   9.951   4.144   0.784  1.1198 -1.7448  1.3430
  769MOL0     H 3792   9.965   4.297   0.861 -0.3065 -0.6733 -0.2360
  769MOL0     H 3793   9.702   4.169   0.750 -1.3914  2.3532 -3.6023
  769MOL0     H 3794   9.710   4.293   0.881  1.4317 -2.1185  2.1749
  769MOL0     H 3795  10.012   3.899   1.617 -1.1996 -2.5036  1.1435
  769MOL0     H 3796   9.819   3.908   1.769  3.3667 -0.8971  0.0883
  769MOL0     H 3797   9.343   3.917   1.768 -0.3246 -1.5538  0.7094
  769MOL0     H 3798   9.131   3.887   1.927  0.2325  0.8293 -0.0970
  769MOL0     H 3799   9.841   4.891   3.176  0.6769  0.3295  1.1256
  769MOL0     H 3800  10.027   5.011   3.122 -0.8829  1.1224  1.2971
  769MOL0     H 3801  10.243   5.327   2.972 -3.4233  0.0953 -1.1512
  769MOL0     H 3802  10.476   5.356   2.950  0.4220 -1.5701  0.3748
  769MOL0     H 3803  10.689   5.280   2.928 -0.7634 -1.6422 -0.8353
  769MOL0     H 3804  10.704   5.434   2.845  0.3901 -0.0660 -1.0328
  769MOL0     H 3805  10.896   5.328   2.714  2.6162 -1.4192  0.5035
  769MOL0     H 3806  10.892   5.194   2.834  0.5763  0.5572  2.2200
  769MOL0     H 3807  10.926   5.372   3.003  0.1972  2.4989  0.5435
  769MOL0     H 3808  10.956   5.491   2.877  1.5139 -0.5385  1.5998
  769MOL0     H 3809  11.125   5.349   2.769 -3.0577  1.4713  0.0477
  769MOL0     H 3810  11.184   5.414   2.922 -0.4155  2.1208 -2.5013
  769MOL0     H 3811  11.175   5.026   3.054  3.4706  1.6950  2.9702
  769MOL0     H 3812  10.472   5.134   2.587 -1.3986 -3.2640  1.0006
  769MOL0     H 3813  10.222   4.972   2.576  0.6070 -0.2525 -1.3438
  769MOL0     H 3814  10.123   5.111   2.522 -0.4481 -1.3522 -0.0869
  769MOL0     H 3815  10.286   5.092   2.469 -0.3270  1.1391  0.1328
  770MOL0     O 3816   9.948   3.177   6.901  0.1575  1.7019  0.3493
  770MOL0     C 3817   9.843   3.181   6.968 -0.5663  0.0951 -0.4931
  770MOL0     O 3818   9.800   3.281   7.052 -0.6049 -0.2022 -0.5176
  770MOL0     C 3819   9.867   3.396   7.048  0.1172  0.3104  0.8933
  770MOL0     C 3820   9.853   3.494   6.949 -0.0087  0.1832  0.6676
  770MOL0     C 3821   9.914   3.622   6.973  0.6368  0.4453  0.0472
  770MOL0     C 3822  10.003   3.644   7.079 -0.5024  0.6218 -0.3411
  770MOL0     O 3823  10.075   3.756   7.108 -0.7950 -0.9230 -0.2237
  770MOL0     C 3824  10.071   3.864   7.015 -0.1059 -0.1381  0.0888
  770MOL0     C 3825  10.188   3.966   7.019 -0.9166  0.6613 -0.5789
  770MOL0     C 3826  10.327   3.905   7.003  0.1874 -0.8525  0.1380
  770MOL0     C 3827  10.426   4.021   6.988 -0.0635  1.3026  0.5413
  770MOL0     C 3828  10.554   3.976   6.915 -0.0705  0.2535 -0.9708
  770MOL0     C 3829  10.649   4.093   6.927  0.3730 -0.1572  0.6090
  770MOL0     C 3830  10.771   4.061   6.842 -0.2114 -0.4539  0.5010
  770MOL0     C 3831  10.866   4.186   6.832  0.7801  0.0961  0.2546
  770MOL0     N 3832  10.930   4.225   6.961  0.0220 -0.3773  0.3975
  770MOL0     C 3833  11.015   4.145   7.037 -0.1699 -0.5968 -0.3940
  770MOL0     C 3834  11.073   4.237   7.122  0.2470 -0.1015  0.0632
  770MOL0     C 3835  11.193   4.213   7.222  0.8934 -0.4685  0.1979
  770MOL0     C 3836  11.331   4.224   7.154  0.0737  0.3022 -0.5207
  770MOL0     C 3837  11.363   4.092   7.078  0.4678 -0.7581  1.4787
  770MOL0     C 3838  11.519   4.088   7.048 -0.1796  0.2343 -1.1411
  770MOL0     O 3839  11.560   4.205   6.972 -0.2256  0.8803 -0.4873
  770MOL0     C 3840  11.697   4.217   6.958  0.0176  0.5357  0.2748
  770MOL0     C 3841  11.740   4.342   6.992 -0.5098 -0.5413  0.2706
  770MOL0     C 3842  11.880   4.370   6.996  0.7796  0.0700 -0.2017
  770MOL0     C 3843  11.971   4.262   6.975  0.2053 -0.0945 -0.1336
  770MOL0     C 3844  12.111   4.277   6.974 -0.0780  0.3864 -1.0391
  770MOL0     O 3845  12.193   4.166   6.973  0.2278 -0.0683 -0.9443
  770MOL0     C 3846  12.329   4.185   6.955  0.0636  0.7275 -0.2189
  770MOL0     C 3847  12.422   4.117   7.037 -0.5540 -0.0746 -0.1595
  770MOL0     C 3848  12.560   4.150   7.012 -0.0394  0.3451  0.5110
  770MOL0     C 3849  12.610   4.221   6.897  0.4240 -0.2492 -0.2006
  770MOL0     O 3850  12.744   4.250   6.864  0.3660 -0.1081  0.1215
  770MOL0     C 3851  12.848   4.201   6.933 -1.0660  0.1989 -0.8132
  770MOL0     C 3852  12.974   4.254   6.874  0.9569 -0.6540 -0.5437
  770MOL0     C 3853  12.983   4.413   6.910 -0.8751  0.2244  0.0808
  770MOL0     C 3854  13.091   4.501   6.859 -0.4501 -0.0146  0.1081
  770MOL0     C 3855  13.072   4.644   6.831  0.3766 -1.2482  0.3156
  770MOL0     C 3856  13.205   4.728   6.798  0.1808  0.0132 -0.5943
  770MOL0     C 3857  13.168   4.855   6.734  0.5723 -0.0011 -0.0756
  770MOL0     C 3858  13.269   4.959   6.775 -0.2938  0.5279  0.4068
  770MOL0    Cl 3859  13.434   4.889   6.741 -0.7995  0.5673 -0.0354
  770MOL0     C 3860  12.508   4.268   6.819  0.1908  0.1122  0.4986
  770MOL0     C 3861  12.368   4.249   6.842 -1.2020  0.1488  0.2899
  770MOL0     O 3862  12.152   4.393   6.982  0.0126  0.5450 -0.6697
  770MOL0     C 3863  11.921   4.132   6.947  0.9818  0.0266 -0.7679
  770MOL0     C 3864  11.784   4.115   6.929 -0.4124  0.3369 -0.4282
  770MOL0     N 3865  10.990   4.355   7.118 -0.3115  0.2736  0.7891
  770MOL0     N 3866  10.925   4.355   7.004  1.1647  0.3946 -0.1150
  770MOL0     C 3867  10.010   3.539   7.177  0.5467 -0.4602 -0.8029
  770MOL0     C 3868   9.937   3.421   7.158 -0.1615  0.9586 -0.9593
  770MOL0     C 3869   9.749   3.067   6.961 -0.4829  0.8772  1.2645
  770MOL0     C 3870   9.615   3.085   6.940 -0.3971  0.3910 -0.1298
  770MOL0     C 3871   9.531   2.980   6.956  0.4730 -0.3537 -0.3316
  770MOL0     C 3872   9.581   2.847   6.968 -1.0232 -0.0644 -0.4576
  770MOL0     O 3873   9.488   2.758   6.983  0.6931  0.1166 -0.7794
  770MOL0     C 3874   9.519   2.617   6.965 -0.3878 -0.0353  0.9202
  770MOL0     C 3875   9.524   2.570   6.808  0.1396  0.1635  0.3043
  770MOL0     C 3876   9.568   2.422   6.787 -0.4396  0.5920  0.9647
  770MOL0     C 3877   9.544   2.384   6.639 -0.2625 -0.2082  0.5806
  770MOL0     C 3878   9.604   2.475   6.539 -1.0752 -0.5905  0.1594
  770MOL0     C 3879   9.652   2.547   6.456  0.9155 -0.4365 -0.3343
  770MOL0     C 3880   9.717   2.824   6.990  0.2700  0.8938  0.6262
  770MOL0     C 3881   9.807   2.936   6.983 -0.2582 -1.1041  0.3257
  770MOL0     C 3882   9.952   2.917   7.010 -0.6677 -0.1026 -0.3128
  770MOL0     H 3883   9.796   3.477   6.858  0.6621  2.3891 -0.2502
  770MOL0     H 3884   9.893   3.705   6.906  0.1709  1.1519  1.0475
  770MOL0     H 3885  10.071   3.832   6.911  2.3387 -0.7997  0.2463
  770MOL0     H 3886   9.975   3.916   7.027  1.2923  3.0600 -1.6457
  770MOL0     H 3887  10.174   4.008   7.119 -1.6532 -2.3855  0.7033
  770MOL0     H 3888  10.178   4.042   6.941  3.3803  0.3582 -1.6548
  770MOL0     H 3889  10.330   3.842   6.913  2.3526 -0.7165  0.0577
  770MOL0     H 3890  10.347   3.845   7.091  0.4132 -0.3934  0.4032
  770MOL0     H 3891  10.380   4.099   6.927 -0.5229  1.9929  1.7485
  770MOL0     H 3892  10.462   4.060   7.083  2.2584  1.3093 -0.2768
  770MOL0     H 3893  10.592   3.882   6.956 -3.4806 -0.7569  0.2773
  770MOL0     H 3894  10.543   3.966   6.807  0.9994  3.5669 -1.5037
  770MOL0     H 3895  10.603   4.184   6.889  0.6680 -0.6575 -1.0141
  770MOL0     H 3896  10.673   4.110   7.033  1.1463  1.1732  0.2493
  770MOL0     H 3897  10.726   4.042   6.744 -3.1902 -1.4028  1.9150
  770MOL0     H 3898  10.825   3.975   6.885 -0.8737 -0.5534  1.1600
  770MOL0     H 3899  10.942   4.165   6.757 -2.4374  0.4570 -3.4182
  770MOL0     H 3900  10.809   4.273   6.798 -0.3060 -0.4306  0.6628
  770MOL0     H 3901  11.049   4.043   7.023  1.0042 -0.1565 -0.9557
  770MOL0     H 3902  11.191   4.281   7.307 -1.8238 -2.1318  1.6004
  770MOL0     H 3903  11.186   4.109   7.255  1.0263 -2.1117 -4.2354
  770MOL0     H 3904  11.331   4.320   7.100 -0.5833  1.3259  1.2044
  770MOL0     H 3905  11.401   4.237   7.237 -3.2427 -0.5745  2.6459
  770MOL0     H 3906  11.307   4.096   6.985 -0.3508  4.4756  1.9204
  770MOL0     H 3907  11.328   4.004   7.134 -2.5698  1.5075  3.4947
  770MOL0     H 3908  11.561   3.994   7.012 -0.8303  0.9657 -4.0395
  770MOL0     H 3909  11.564   4.094   7.147  0.0696 -0.1742 -1.2297
  770MOL0     H 3910  11.669   4.417   7.022  0.8734 -0.4426  3.7928
  770MOL0     H 3911  11.914   4.472   7.012  2.4089 -0.6519  1.1754
  770MOL0     H 3912  12.391   4.052   7.118  1.3845 -1.4268 -0.4344
  770MOL0     H 3913  12.638   4.104   7.071 -1.2734 -2.9683 -0.2320
  770MOL0     H 3914  12.848   4.217   7.041 -1.6248 -2.1014 -0.4190
  770MOL0     H 3915  12.845   4.092   6.934  1.8366 -0.0861  3.5581
  770MOL0     H 3916  13.058   4.201   6.921  0.7239 -0.0337  0.6185
  770MOL0     H 3917  12.989   4.238   6.767  0.1597 -1.6868 -0.5193
  770MOL0     H 3918  12.883   4.451   6.889 -3.0439 -3.1867  3.0126
  770MOL0     H 3919  12.993   4.421   7.019 -1.8009 -1.9702  0.3897
  770MOL0     H 3920  13.110   4.466   6.757 -0.2570 -1.5166  0.6352
  770MOL0     H 3921  13.179   4.481   6.919 -0.4324  0.7436  0.3389
  770MOL0     H 3922  13.015   4.692   6.911  0.3040  0.9858 -1.0014
  770MOL0     H 3923  13.003   4.652   6.747  0.7540 -0.6984  0.0530
  770MOL0     H 3924  13.263   4.725   6.890  2.8314 -0.3144 -2.1875
  770MOL0     H 3925  13.270   4.669   6.732 -0.2457  0.9839 -1.9345
  770MOL0     H 3926  13.060   4.875   6.727  0.5441 -0.5800 -4.9480
  770MOL0     H 3927  13.177   4.843   6.626 -0.2651 -1.5192 -0.0080
  770MOL0     H 3928  13.248   5.055   6.729 -0.4314  0.6901  0.8000
  770MOL0     H 3929  13.253   4.968   6.883 -2.8558  0.6139  0.0879
  770MOL0     H 3930  12.546   4.317   6.730 -1.4679 -1.6878 -1.3007
  770MOL0     H 3931  12.291   4.291   6.778 -3.0850 -1.0599  1.6754
  770MOL0     H 3932  11.991   4.051   6.925 -0.3304 -1.2363 -0.4845
  770MOL0     H 3933  11.743   4.016   6.911 -0.2482  0.0721  0.6154
  770MOL0     H 3934  10.071   3.559   7.266 -0.7293 -3.9648  1.0351
  770MOL0     H 3935   9.933   3.348   7.239 -1.6125  1.2436 -0.7577
  770MOL0     H 3936   9.562   3.179   6.927 -3.4193 -1.4260 -2.1018
  770MOL0     H 3937   9.426   3.009   6.959  0.4602  0.1130  4.8454
  770MOL0     H 3938   9.436   2.567   7.014 -1.5824  3.0450  2.3092
  770MOL0     H 3939   9.610   2.580   7.013 -2.0644 -2.3317  2.5423
  770MOL0     H 3940   9.599   2.627   6.752 -2.3276  0.8364 -2.6234
  770MOL0     H 3941   9.424   2.588   6.768  0.0572  0.4546  0.6444
  770MOL0     H 3942   9.501   2.360   6.848  0.7737 -1.2836  0.4752
  770MOL0     H 3943   9.672   2.395   6.805  0.3119  0.9897 -2.1792
  770MOL0     H 3944   9.580   2.283   6.621  0.6524  0.1490  0.3804
  770MOL0     H 3945   9.436   2.385   6.621 -0.4507 -0.1320  1.6338
  770MOL0     H 3946   9.684   2.610   6.376 -0.3553  1.0338  0.2697
  770MOL0     H 3947   9.749   2.724   7.015 -1.7719 -0.0770 -0.3684
  770MOL0     H 3948   9.980   2.953   7.110  0.1225 -0.8068 -0.2733
  770MOL0     H 3949   9.969   2.809   7.008  1.6261  0.2199 -0.5001
  770MOL0     H 3950  10.024   2.955   6.938  0.6148  1.4802  1.7214
  771MOL0     O 3951   5.069   9.997   0.230  0.0013 -0.0862 -0.0426
  771MOL0     C 3952   5.065   9.880   0.214  0.4435  0.8314 -0.0315
  771MOL0     O 3953   5.170   9.801   0.192  0.4366 -0.2991  0.6663
  771MOL0     C 3954   5.298   9.857   0.175  0.1324 -0.1700  0.5471
  771MOL0     C 3955   5.353   9.953   0.254  0.8308  0.3671 -0.1827
  771MOL0     C 3956   5.478  10.007   0.225 -0.2199 -0.8862  0.4044
  771MOL0     C 3957   5.547   9.972   0.108 -0.3617 -0.3545 -0.0267
  771MOL0     O 3958   5.667  10.035   0.093 -0.8931  0.0604 -0.2520
  771MOL0     C 3959   5.729  10.033  -0.043 -0.1614  0.3956 -0.5369
  771MOL0     C 3960   5.866  10.099  -0.027 -0.3697  0.1507 -0.5856
  771MOL0     C 3961   5.958   9.987   0.050  0.6685  0.4171 -0.0723
  771MOL0     C 3962   6.103  10.017   0.047 -0.0185 -0.2111  0.0219
  771MOL0     C 3963   6.191   9.932   0.143  0.3477 -0.3863  0.5853
  771MOL0     C 3964   6.344   9.972   0.137  0.3545  0.2147  0.5110
  771MOL0     C 3965   6.362  10.113   0.200 -0.2401 -0.7947  1.0697
  771MOL0     C 3966   6.503  10.173   0.204 -0.1937  0.7411 -0.2454
  771MOL0     N 3967   6.513  10.310   0.229  0.3003  0.5150  0.7937
  771MOL0     C 3968   6.521  10.405   0.127 -0.1559 -0.4578  0.1893
  771MOL0     C 3969   6.549  10.517   0.190  0.5849 -0.3913 -0.2751
  771MOL0     C 3970   6.558  10.652   0.121  0.5111 -0.4880 -0.5396
  771MOL0     C 3971   6.566  10.776   0.219 -0.4257 -0.6190 -0.7404
  771MOL0     C 3972   6.706  10.839   0.209 -0.2585 -0.9886 -0.1927
  771MOL0     C 3973   6.722  10.932   0.333  0.1931 -0.1025  0.4910
  771MOL0     O 3974   6.854  10.989   0.341 -0.2248  0.9610  0.4039
  771MOL0     C 3975   6.962  10.906   0.348 -0.2870  0.7653 -0.4775
  771MOL0     C 3976   6.960  10.782   0.411  0.4549 -0.0938 -0.0496
  771MOL0     C 3977   7.079  10.715   0.429 -0.6868 -0.0453  0.4669
  771MOL0     C 3978   7.200  10.771   0.393  0.2473  0.2480 -0.3452
  771MOL0     C 3979   7.324  10.707   0.434 -0.0097  0.2502  0.4915
  771MOL0     O 3980   7.417  10.793   0.476 -1.2928 -0.4345 -0.4354
  771MOL0     C 3981   7.530  10.743   0.537  0.4826  0.9077  0.4163
  771MOL0     C 3982   7.546  10.744   0.672  1.0171  0.3780  0.3125
  771MOL0     C 3983   7.664  10.704   0.724 -0.6892 -0.4794  0.5733
  771MOL0     C 3984   7.775  10.657   0.648  0.4413  0.4687  0.1664
  771MOL0     O 3985   7.897  10.620   0.702 -0.1037  0.3409  0.1594
  771MOL0     C 3986   7.937  10.649   0.832  0.0941  0.1240 -0.1501
  771MOL0     C 3987   8.096  10.640   0.843 -0.4848  0.6656  0.7467
  771MOL0     C 3988   8.150  10.693   0.978  0.5646 -0.2186 -0.0650
  771MOL0     C 3989   8.177  10.847   0.967 -0.0127 -0.1602 -0.7920
  771MOL0     C 3990   8.261  10.906   1.092 -0.0412  0.4198 -0.0569
  771MOL0     C 3991   8.186  10.895   1.231  0.0563 -0.0424  0.2145
  771MOL0     C 3992   8.286  10.921   1.348 -1.1124  0.5578  0.5773
  771MOL0     C 3993   8.344  11.059   1.344 -0.4205  0.5402  0.1878
  771MOL0    Cl 3994   8.222  11.173   1.406 -0.1606 -0.1649 -0.8737
  771MOL0     C 3995   7.753  10.656   0.513 -1.1262 -0.1235 -0.0082
  771MOL0     C 3996   7.634  10.699   0.454 -0.1993  0.1239  0.4803
  771MOL0     O 3997   7.327  10.586   0.438  0.1841 -0.0616 -0.5469
  771MOL0     C 3998   7.197  10.896   0.324 -0.9448  0.3642  0.2019
  771MOL0     C 3999   7.081  10.959   0.315  0.2011 -0.3785  0.3321
  771MOL0     N 4000   6.549  10.494   0.326  1.2401 -0.3497 -0.0663
  771MOL0     N 4001   6.536  10.372   0.344 -0.1896  0.8906 -0.4580
  771MOL0     C 4002   5.494   9.874   0.028 -0.0152  0.2770  0.6945
  771MOL0     C 4003   5.365   9.820   0.056  0.7652 -0.3799 -0.1503
  771MOL0     C 4004   4.924   9.820   0.223 -0.6606  0.0152  0.3067
  771MOL0     C 4005   4.832   9.881   0.307  0.1485  0.1709  0.8259
  771MOL0     C 4006   4.698   9.831   0.312 -0.4328  0.0084  0.1638
  771MOL0     C 4007   4.657   9.713   0.244 -0.1439 -0.5707  0.2014
  771MOL0     O 4008   4.530   9.665   0.242 -0.1657 -0.5728 -0.7258
  771MOL0     C 4009   4.429   9.757   0.271  0.7781 -0.3682  0.5899
  771MOL0     C 4010   4.288   9.710   0.229  0.5871  1.5556 -0.3962
  771MOL0     C 4011   4.183   9.802   0.276  0.2230 -0.0742  0.6738
  771MOL0     C 4012   4.153   9.916   0.180 -0.3063 -0.6006  0.5736
  771MOL0     C 4013   4.269  10.006   0.150 -0.3052 -0.4442  0.0997
  771MOL0     C 4014   4.363  10.083   0.131  0.2698 -0.2887 -1.1717
  771MOL0     C 4015   4.753   9.650   0.167 -0.7865 -0.5413  0.0021
  771MOL0     C 4016   4.888   9.696   0.163 -0.0675  0.1792 -0.4262
  771MOL0     C 4017   4.979   9.617   0.077 -0.2504  0.2974  0.6272
  771MOL0     H 4018   5.304   9.985   0.345  0.1384 -1.6821  0.2273
  771MOL0     H 4019   5.507  10.072   0.307 -0.2929 -0.0264 -0.2363
  771MOL0     H 4020   5.745   9.935  -0.089  1.9565  0.6098 -0.3931
  771MOL0     H 4021   5.664  10.086  -0.113 -1.3053  0.0391  0.2306
  771MOL0     H 4022   5.848  10.187   0.035  1.5100 -2.1675  3.7282
  771MOL0     H 4023   5.913  10.126  -0.121 -1.5634 -1.3639 -1.6672
  771MOL0     H 4024   5.928   9.886   0.020  1.1095  0.1772  0.2724
  771MOL0     H 4025   5.921  10.002   0.152  0.0692  2.1620 -0.5094
  771MOL0     H 4026   6.142  10.004  -0.055 -0.7882  2.9696 -0.7945
  771MOL0     H 4027   6.109  10.125   0.064 -1.1650 -0.1551  0.1242
  771MOL0     H 4028   6.140   9.943   0.240  2.8841 -3.4694  2.4461
  771MOL0     H 4029   6.179   9.825   0.125  1.2523 -0.7996  2.1820
  771MOL0     H 4030   6.406   9.898   0.188  1.5706 -0.5197 -1.8792
  771MOL0     H 4031   6.373   9.972   0.031  0.0537 -2.3249  0.3462
  771MOL0     H 4032   6.323  10.102   0.302 -0.9126  0.7353  1.0190
  771MOL0     H 4033   6.291  10.188   0.162  1.6962  1.1683  1.0905
  771MOL0     H 4034   6.561  10.119   0.280  0.8455  2.8053  0.5091
  771MOL0     H 4035   6.550  10.165   0.105  0.9514 -0.3474  0.3481
  771MOL0     H 4036   6.522  10.384   0.020 -0.4330 -1.6228  0.4056
  771MOL0     H 4037   6.655  10.642   0.072 -0.0569 -3.0437 -1.3290
  771MOL0     H 4038   6.480  10.665   0.045 -0.4089  1.9489  0.7121
  771MOL0     H 4039   6.493  10.854   0.197  0.7328  1.1376  1.2435
  771MOL0     H 4040   6.547  10.750   0.324 -1.4166 -1.5443 -1.1212
  771MOL0     H 4041   6.713  10.887   0.111 -1.2703 -1.7318 -0.6411
  771MOL0     H 4042   6.781  10.759   0.215  0.3401 -0.4607 -0.5574
  771MOL0     H 4043   6.697  10.891   0.431  1.4379 -1.2892  0.3290
  771MOL0     H 4044   6.654  11.017   0.320  1.2901  0.4247 -2.8977
  771MOL0     H 4045   6.871  10.727   0.440  1.8494 -0.8080  3.3379
  771MOL0     H 4046   7.078  10.620   0.483 -0.1069  0.6386  1.7284
  771MOL0     H 4047   7.463  10.780   0.733  1.8749  4.5591 -0.6870
  771MOL0     H 4048   7.675  10.694   0.832  0.1116 -3.7946  0.2864
  771MOL0     H 4049   7.916  10.753   0.856  0.7047 -0.2493  2.2524
  771MOL0     H 4050   7.872  10.589   0.896 -1.9565  1.4125 -0.9158
  771MOL0     H 4051   8.118  10.534   0.832 -1.2622  0.7344 -3.0521
  771MOL0     H 4052   8.133  10.682   0.749 -0.0263 -0.8824  0.2109
  771MOL0     H 4053   8.070  10.683   1.053  1.1115  1.5324  0.8260
  771MOL0     H 4054   8.239  10.641   1.015  1.7679  2.1055  0.5104
  771MOL0     H 4055   8.084  10.905   0.964 -0.1782 -0.0815  2.1957
  771MOL0     H 4056   8.241  10.871   0.882  0.1633 -0.8892 -0.8699
  771MOL0     H 4057   8.282  11.012   1.074 -0.6114  0.8473  1.6217
  771MOL0     H 4058   8.357  10.855   1.092 -0.3072 -0.0927  0.5601
  771MOL0     H 4059   8.100  10.963   1.236  0.7342  0.8663 -0.1776
  771MOL0     H 4060   8.152  10.791   1.235  1.0186 -0.3507  0.7162
  771MOL0     H 4061   8.369  10.849   1.357 -1.1864 -0.0478 -2.4770
  771MOL0     H 4062   8.222  10.885   1.429 -2.7925 -1.6074 -1.5456
  771MOL0     H 4063   8.421  11.061   1.422  0.2074 -0.3168 -0.3868
  771MOL0     H 4064   8.387  11.084   1.247  4.2736 -0.7023  1.6648
  771MOL0     H 4065   7.825  10.611   0.445 -0.5151 -0.2584  0.7141
  771MOL0     H 4066   7.620  10.691   0.347  0.6436  2.9068  0.0868
  771MOL0     H 4067   7.297  10.937   0.314 -0.4273 -0.2273  2.4125
  771MOL0     H 4068   7.067  11.059   0.274 -0.2888 -1.5206 -2.5500
  771MOL0     H 4069   5.552   9.840  -0.057 -0.0023  0.8659  0.4642
  771MOL0     H 4070   5.323   9.750  -0.015  0.4438  0.7624 -1.1270
  771MOL0     H 4071   4.866   9.965   0.366 -0.1526  0.8706  0.0357
  771MOL0     H 4072   4.637   9.887   0.382 -0.1971 -0.5682  0.8428
  771MOL0     H 4073   4.464   9.849   0.223  0.3875 -1.2652 -1.5165
  771MOL0     H 4074   4.433   9.787   0.376 -3.4372  2.7217  0.1285
  771MOL0     H 4075   4.273   9.612   0.277  1.5261  1.2205 -0.7562
  771MOL0     H 4076   4.280   9.698   0.121  0.0622  1.0818 -0.3132
  771MOL0     H 4077   4.215   9.842   0.373  1.4907 -2.5170  1.3229
  771MOL0     H 4078   4.092   9.745   0.292 -2.3069  3.5782  0.5991
  771MOL0     H 4079   4.107   9.882   0.087  1.7208  0.9821 -1.0806
  771MOL0     H 4080   4.082   9.988   0.223  1.3865  1.6703 -0.2536
  771MOL0     H 4081   4.435  10.162   0.124 -1.1097  1.0472 -0.8302
  771MOL0     H 4082   4.713   9.577   0.098  0.9099  0.8432 -2.6408
  771MOL0     H 4083   5.030   9.687   0.009 -0.3455 -1.1509 -1.0062
  771MOL0     H 4084   5.053   9.551   0.123 -0.1745 -1.5161 -1.9069
  771MOL0     H 4085   4.909   9.553   0.024 -2.6825  2.2222  1.3219
  772MOL0     O 4086   8.502   6.467   7.941 -0.2500 -0.3310  0.3601
  772MOL0     C 4087   8.443   6.561   7.883 -0.2903 -0.7274 -1.1661
  772MOL0     O 4088   8.510   6.671   7.819  0.4974  0.6264 -0.0367
  772MOL0     C 4089   8.654   6.687   7.820  0.2756 -0.4569  0.1603
  772MOL0     C 4090   8.693   6.766   7.718  0.2669  1.0383 -0.2979
  772MOL0     C 4091   8.829   6.782   7.685 -1.1882 -1.0234 -0.7004
  772MOL0     C 4092   8.932   6.732   7.768  0.1647  0.5884 -0.8213
  772MOL0     O 4093   9.063   6.758   7.742  0.0909  0.2330  0.4353
  772MOL0     C 4094   9.158   6.777   7.848 -0.2988 -0.5711  0.6129
  772MOL0     C 4095   9.306   6.778   7.802  0.3115 -0.2682  0.0729
  772MOL0     C 4096   9.355   6.639   7.761 -0.8100  0.4595  0.3708
  772MOL0     C 4097   9.392   6.551   7.878  0.5872 -0.7520  0.1436
  772MOL0     C 4098   9.533   6.572   7.936 -0.2208 -0.6793 -0.0765
  772MOL0     C 4099   9.640   6.515   7.832 -0.0039 -0.5817 -0.4782
  772MOL0     C 4100   9.769   6.517   7.905 -0.1880  0.3741  0.0339
  772MOL0     C 4101   9.881   6.446   7.838 -0.4342 -0.1686  0.1871
  772MOL0     N 4102  10.019   6.441   7.904  0.2850  0.7624 -0.3887
  772MOL0     C 4103  10.114   6.341   7.886  0.2300 -0.2891 -0.9170
  772MOL0     C 4104  10.232   6.393   7.925 -0.4635  0.5667 -0.1378
  772MOL0     C 4105  10.359   6.308   7.928 -0.2436  0.3605 -0.3809
  772MOL0     C 4106  10.361   6.215   8.047 -0.9212 -0.4399  0.0899
  772MOL0     C 4107  10.493   6.140   8.055 -0.0419  0.4130 -0.8668
  772MOL0     C 4108  10.506   6.046   8.173  0.2834 -0.2494  0.5819
  772MOL0     O 4109  10.628   5.973   8.148  0.0842 -0.4164  0.1813
  772MOL0     C 4110  10.671   5.879   8.245  0.3849 -0.0475  0.0750
  772MOL0     C 4111  10.762   5.779   8.212 -0.1775 -1.3375  0.4100
  772MOL0     C 4112  10.810   5.681   8.298  0.9625  0.2108 -0.5896
  772MOL0     C 4113  10.770   5.689   8.436  0.6532  0.0024  0.4293
  772MOL0     C 4114  10.828   5.613   8.547  0.2010 -0.0854  0.1080
  772MOL0     O 4115  10.810   5.666   8.673  0.1306 -0.1631 -0.7155
  772MOL0     C 4116  10.877   5.628   8.791 -0.0747 -0.2604 -0.5824
  772MOL0     C 4117  10.942   5.505   8.815  0.1232  0.4530  1.2804
  772MOL0     C 4118  11.005   5.479   8.937 -0.1306  0.3646 -0.6248
  772MOL0     C 4119  11.009   5.580   9.033 -0.7599  0.3024 -0.6197
  772MOL0     O 4120  11.072   5.566   9.160  0.3400  0.0402  0.1972
  772MOL0     C 4121  11.086   5.431   9.217 -0.6490 -0.6305 -0.5518
  772MOL0     C 4122  11.141   5.431   9.357  0.1686 -0.1332 -0.6052
  772MOL0     C 4123  11.122   5.294   9.412  0.1306  0.4411 -0.2109
  772MOL0     C 4124  11.201   5.287   9.548 -0.5273 -0.2332 -0.0333
  772MOL0     C 4125  11.163   5.159   9.634  0.0082  0.0237 -0.2430
  772MOL0     C 4126  11.178   5.026   9.567 -0.3048 -1.2030 -0.3421
  772MOL0     C 4127  11.328   5.000   9.550  0.6087 -0.7950 -0.2582
  772MOL0     C 4128  11.361   4.852   9.574  0.8997  0.0980  0.6916
  772MOL0    Cl 4129  11.238   4.754   9.475 -0.3470  0.0730  0.4701
  772MOL0     C 4130  10.948   5.701   9.013  0.6515  0.2601 -0.0767
  772MOL0     C 4131  10.882   5.723   8.892  0.0314 -0.5140 -0.4449
  772MOL0     O 4132  10.914   5.531   8.508 -0.2825 -0.3842 -0.5837
  772MOL0     C 4133  10.667   5.774   8.465 -0.3497  0.8843  0.1067
  772MOL0     C 4134  10.626   5.872   8.377 -1.1584 -0.2389 -0.2249
  772MOL0     N 4135  10.214   6.526   7.946  0.4499 -0.2627  0.9110
  772MOL0     N 4136  10.088   6.551   7.940 -0.1852 -0.3259 -0.1495
  772MOL0     C 4137   8.884   6.645   7.880  0.0859  0.3303 -0.2723
  772MOL0     C 4138   8.746   6.624   7.906 -1.0712 -0.2541 -0.5800
  772MOL0     C 4139   8.295   6.566   7.901 -0.1160 -0.0536 -0.4861
  772MOL0     C 4140   8.219   6.640   7.808  0.4570 -0.2152  0.9410
  772MOL0     C 4141   8.083   6.661   7.815 -0.4497 -0.3153  0.2384
  772MOL0     C 4142   8.013   6.598   7.913 -0.1403  0.5841 -0.9258
  772MOL0     O 4143   7.873   6.605   7.914 -0.5856  0.0658 -0.2434
  772MOL0     C 4144   7.803   6.580   8.035 -0.2337 -0.4080 -0.0436
  772MOL0     C 4145   7.662   6.645   8.015 -0.5715 -0.1673  0.4748
  772MOL0     C 4146   7.593   6.661   8.151 -0.4951 -0.4479 -0.2921
  772MOL0     C 4147   7.445   6.692   8.151 -0.1781  0.1451 -0.0611
  772MOL0     C 4148   7.421   6.822   8.090  0.0618 -0.8663  0.2408
  772MOL0     C 4149   7.421   6.940   8.053  0.2945 -0.5735  0.7366
  772MOL0     C 4150   8.081   6.516   8.014  0.0755  0.1431 -0.0556
  772MOL0     C 4151   8.217   6.507   8.007 -0.5502  1.0620  1.4982
  772MOL0     C 4152   8.289   6.417   8.111 -0.8751 -0.1298  0.1055
  772MOL0     H 4153   8.617   6.818   7.660 -1.5712 -3.3292 -2.1865
  772MOL0     H 4154   8.854   6.851   7.605 -0.7698 -1.1162 -0.6479
  772MOL0     H 4155   9.135   6.866   7.908 -3.5943  1.3185 -3.0132
  772MOL0     H 4156   9.150   6.688   7.912 -0.4568 -2.4750 -1.9233
  772MOL0     H 4157   9.375   6.823   7.873  2.0457  1.4875 -2.5666
  772MOL0     H 4158   9.288   6.852   7.724 -0.6846 -0.7675 -0.1935
  772MOL0     H 4159   9.438   6.642   7.691 -0.2260  0.7393  1.0581
  772MOL0     H 4160   9.273   6.587   7.711  1.1731  0.3606 -3.0208
  772MOL0     H 4161   9.329   6.590   7.959  1.9982  1.0770  0.4501
  772MOL0     H 4162   9.361   6.448   7.858 -0.6037 -0.0796 -1.6825
  772MOL0     H 4163   9.557   6.679   7.944  1.7104 -1.0084 -0.7551
  772MOL0     H 4164   9.540   6.531   8.037 -0.6312  1.2751  0.7953
  772MOL0     H 4165   9.626   6.410   7.806  0.3380 -0.9038  0.6080
  772MOL0     H 4166   9.651   6.579   7.743  3.1025 -1.4432 -0.8136
  772MOL0     H 4167   9.756   6.465   8.001  0.3149  1.3870  0.6586
  772MOL0     H 4168   9.800   6.619   7.927  0.5957  0.0431  0.4936
  772MOL0     H 4169   9.848   6.342   7.830 -2.5194  0.4183  0.5938
  772MOL0     H 4170   9.893   6.481   7.736 -0.9639 -1.0502 -0.1882
  772MOL0     H 4171  10.102   6.237   7.856 -0.8814  0.1299 -2.0197
  772MOL0     H 4172  10.360   6.236   7.846 -0.0623 -3.0259  2.3712
  772MOL0     H 4173  10.443   6.377   7.936 -0.7217  0.7772  1.6291
  772MOL0     H 4174  10.357   6.270   8.142  2.7401 -0.7688  0.5800
  772MOL0     H 4175  10.274   6.149   8.033 -0.7872 -0.4803 -0.5884
  772MOL0     H 4176  10.577   6.208   8.077  3.3604 -3.8814  0.7983
  772MOL0     H 4177  10.514   6.099   7.956 -1.8246  1.9149 -1.9538
  772MOL0     H 4178  10.418   5.984   8.189  0.7750 -0.8078  1.1735
  772MOL0     H 4179  10.515   6.102   8.266 -1.8227 -0.7518  1.1430
  772MOL0     H 4180  10.807   5.779   8.113  1.0610  4.1997  0.6137
  772MOL0     H 4181  10.890   5.618   8.262  1.4776 -0.1133  1.0359
  772MOL0     H 4182  10.931   5.425   8.743 -3.1541 -0.2365  2.3809
  772MOL0     H 4183  11.047   5.380   8.947 -0.4302  0.3572  0.7347
  772MOL0     H 4184  10.991   5.379   9.221 -0.9559 -0.0192  0.8864
  772MOL0     H 4185  11.146   5.379   9.142  3.5246  3.8824 -0.8527
  772MOL0     H 4186  11.246   5.460   9.343  0.3727 -0.7305 -0.3539
  772MOL0     H 4187  11.091   5.504   9.422 -1.9195 -1.4341 -0.6902
  772MOL0     H 4188  11.016   5.290   9.440  0.7837  3.2142  3.3718
  772MOL0     H 4189  11.157   5.215   9.345 -1.3420  0.2247 -0.7646
  772MOL0     H 4190  11.166   5.380   9.595 -1.2672 -0.4541 -0.1309
  772MOL0     H 4191  11.308   5.294   9.529 -0.8817  4.8961 -1.5111
  772MOL0     H 4192  11.059   5.168   9.667  0.3890  1.1789  0.7297
  772MOL0     H 4193  11.235   5.158   9.717  1.0508  0.5607 -1.1108
  772MOL0     H 4194  11.136   4.947   9.630  1.0916 -3.0942 -1.6779
  772MOL0     H 4195  11.129   5.012   9.470 -1.1945 -4.0977  0.4240
  772MOL0     H 4196  11.398   5.055   9.613 -1.4589  0.2445  1.2725
  772MOL0     H 4197  11.349   5.025   9.446  0.8374  0.9625  0.1804
  772MOL0     H 4198  11.464   4.832   9.544 -0.5209 -4.3476 -2.2206
  772MOL0     H 4199  11.352   4.830   9.681  4.1410  0.1706  1.0791
  772MOL0     H 4200  10.944   5.772   9.094  0.1468  0.9645 -0.6986
  772MOL0     H 4201  10.836   5.819   8.871  1.9031  0.4939 -0.0940
  772MOL0     H 4202  10.627   5.778   8.566 -3.8160 -1.3641 -1.0101
  772MOL0     H 4203  10.557   5.941   8.424 -2.7183 -1.8340 -0.0719
  772MOL0     H 4204   8.959   6.598   7.942 -0.3339 -1.8850 -1.3483
  772MOL0     H 4205   8.707   6.575   7.994 -1.1315 -0.0662 -0.5012
  772MOL0     H 4206   8.269   6.680   7.720  0.5621 -1.8445  0.2140
  772MOL0     H 4207   8.039   6.709   7.728  0.8582 -0.9865 -0.8277
  772MOL0     H 4208   7.854   6.635   8.114 -0.7657 -0.9153  0.6614
  772MOL0     H 4209   7.799   6.473   8.057  2.8398 -0.0290  3.3048
  772MOL0     H 4210   7.601   6.578   7.954 -0.7166  0.9771 -0.6662
  772MOL0     H 4211   7.663   6.745   7.972 -1.2992  0.2742  1.4468
  772MOL0     H 4212   7.651   6.736   8.205 -2.0176  0.8528 -0.3731
  772MOL0     H 4213   7.611   6.567   8.204  0.8404 -0.1166 -0.1300
  772MOL0     H 4214   7.401   6.613   8.089  1.3989 -0.7250 -0.1237
  772MOL0     H 4215   7.393   6.698   8.248 -3.7640  3.1358 -1.8907
  772MOL0     H 4216   7.407   7.035   8.005 -0.8550 -0.6957  0.7999
  772MOL0     H 4217   8.027   6.461   8.090  1.2240 -0.1106  0.5923
  772MOL0     H 4218   8.222   6.385   8.191 -2.2315 -1.1758 -1.3708
  772MOL0     H 4219   8.331   6.333   8.055  0.9041  1.2977 -0.8219
  772MOL0     H 4220   8.380   6.468   8.143 -0.7653  0.4689 -1.0921
  773MOL0     O 4221   1.721   6.775   7.717  0.3195 -0.0662 -0.3078
  773MOL0     C 4222   1.631   6.821   7.785 -0.0833  0.3218 -0.3415
  773MOL0     O 4223   1.627   6.949   7.828 -0.5312  0.1653  0.4737
  773MOL0     C 4224   1.732   7.026   7.807  0.4668 -0.4257  0.1422
  773MOL0     C 4225   1.848   7.014   7.886 -0.5958 -0.9732  0.3473
  773MOL0     C 4226   1.958   7.099   7.870 -0.0897  0.1593  1.2533
  773MOL0     C 4227   1.963   7.186   7.757 -0.7949 -0.4741 -0.5883
  773MOL0     O 4228   2.079   7.259   7.749  0.0371  0.0371  0.6034
  773MOL0     C 4229   2.094   7.318   7.616  0.4646 -0.2836  0.2069
  773MOL0     C 4230   2.244   7.326   7.581 -0.3017 -0.3137 -0.2229
  773MOL0     C 4231   2.308   7.187   7.592  0.1761 -0.6770  0.7585
  773MOL0     C 4232   2.453   7.192   7.570 -0.5303 -0.2581  0.1592
  773MOL0     C 4233   2.495   7.207   7.431  0.4790  0.2870  0.5811
  773MOL0     C 4234   2.634   7.164   7.412 -0.6532 -0.5513  0.0781
  773MOL0     C 4235   2.682   7.172   7.271 -0.7661 -0.8228  0.2418
  773MOL0     C 4236   2.836   7.166   7.264  0.3085 -0.2099 -0.4792
  773MOL0     N 4237   2.888   7.152   7.132  0.1575 -0.0662  0.5737
  773MOL0     C 4238   2.901   7.241   7.031  0.4140 -0.0919  0.1256
  773MOL0     C 4239   2.943   7.174   6.917 -0.3268  0.2950  0.6308
  773MOL0     C 4240   2.976   7.224   6.780  0.0330  0.8754  0.4608
  773MOL0     C 4241   3.132   7.250   6.775 -0.0789  0.6592  0.3833
  773MOL0     C 4242   3.207   7.118   6.745  0.9312 -0.3671 -0.4825
  773MOL0     C 4243   3.355   7.142   6.721 -1.4802  0.7210  0.4146
  773MOL0     O 4244   3.408   7.187   6.846 -0.0306 -0.0080 -0.6038
  773MOL0     C 4245   3.543   7.208   6.852  0.6568  0.6714  0.2627
  773MOL0     C 4246   3.593   7.228   6.979 -0.6246 -0.4086  0.5194
  773MOL0     C 4247   3.732   7.253   6.992  0.0873  0.3698 -0.0114
  773MOL0     C 4248   3.815   7.250   6.866 -0.7436  0.5583 -0.1903
  773MOL0     C 4249   3.962   7.251   6.888 -0.6975  0.1103 -0.3270
  773MOL0     O 4250   4.052   7.294   6.791 -0.0645  0.2351 -0.3587
  773MOL0     C 4251   4.183   7.305   6.828  0.7938  0.0111  0.0881
  773MOL0     C 4252   4.229   7.432   6.861 -1.2406 -0.7879  0.6518
  773MOL0     C 4253   4.366   7.454   6.882 -0.9065  0.8798  0.1451
  773MOL0     C 4254   4.458   7.349   6.862 -0.2136  0.5488  0.2970
  773MOL0     O 4255   4.591   7.394   6.867 -0.6506 -0.7739  0.1195
  773MOL0     C 4256   4.699   7.298   6.864  0.0968  0.6056  0.1181
  773MOL0     C 4257   4.828   7.353   6.909  0.7640  0.5671 -0.0883
  773MOL0     C 4258   4.941   7.248   6.909 -1.0162  0.1265 -0.8094
  773MOL0     C 4259   4.923   7.106   6.977  0.4746 -0.4274  0.1475
  773MOL0     C 4260   5.055   7.034   7.010  0.2114 -0.9067  0.5458
  773MOL0     C 4261   5.025   6.904   7.079 -1.0185 -0.8896 -0.0904
  773MOL0     C 4262   5.131   6.795   7.076 -1.0865  0.9437 -0.5686
  773MOL0     C 4263   5.161   6.747   6.937  0.2856  0.4268  0.5060
  773MOL0    Cl 4264   5.283   6.617   6.943  0.0318 -0.3902 -0.0512
  773MOL0     C 4265   4.411   7.211   6.833  0.1791 -0.4221  0.5949
  773MOL0     C 4266   4.274   7.198   6.814  0.0265  1.2644  0.5366
  773MOL0     O 4267   4.005   7.217   6.998 -0.6549  0.2690  0.1559
  773MOL0     C 4268   3.754   7.250   6.743  0.3400 -0.2714 -0.3764
  773MOL0     C 4269   3.627   7.217   6.738  0.0776  0.2962  0.5007
  773MOL0     N 4270   2.941   7.043   6.952 -0.4955  0.0325 -0.0719
  773MOL0     N 4271   2.916   7.027   7.072  0.6455 -0.0486 -0.3068
  773MOL0     C 4272   1.840   7.204   7.681 -0.4466 -0.5403 -0.0936
  773MOL0     C 4273   1.726   7.127   7.714  0.3785 -0.0627 -0.6022
  773MOL0     C 4274   1.511   6.736   7.812 -0.2114  0.8373 -0.4895
  773MOL0     C 4275   1.416   6.795   7.901  0.3645  1.1465  0.4105
  773MOL0     C 4276   1.296   6.719   7.936 -0.0113  0.0923 -0.3776
  773MOL0     C 4277   1.260   6.598   7.876 -0.6160  0.0803 -0.3180
  773MOL0     O 4278   1.142   6.534   7.901  0.3890  0.3911  0.5215
  773MOL0     C 4279   1.166   6.393   7.936  0.4446 -0.6460 -0.4829
  773MOL0     C 4280   1.042   6.344   7.997  0.2396  0.0545 -0.2551
  773MOL0     C 4281   1.057   6.217   8.067 -0.5802  0.4628  0.1992
  773MOL0     C 4282   0.944   6.168   8.157  1.2642  0.3564 -0.1364
  773MOL0     C 4283   0.920   6.262   8.259  0.6320 -0.4971 -0.2247
  773MOL0     C 4284   0.916   6.346   8.347  0.7975 -0.8311  0.0736
  773MOL0     C 4285   1.351   6.553   7.775 -0.4733  0.0469 -0.3107
  773MOL0     C 4286   1.468   6.613   7.744 -0.9569 -0.0070 -0.5971
  773MOL0     C 4287   1.558   6.548   7.639  0.7892  1.0982 -0.3130
  773MOL0     H 4288   1.846   6.941   7.965  3.0056 -2.6087 -0.8770
  773MOL0     H 4289   2.043   7.079   7.935  1.7707 -3.4075 -1.8871
  773MOL0     H 4290   2.044   7.256   7.542 -3.3717  0.8725  1.5974
  773MOL0     H 4291   2.045   7.415   7.607 -2.4346 -1.8337 -1.9309
  773MOL0     H 4292   2.291   7.401   7.645 -4.8437  3.1666 -0.4249
  773MOL0     H 4293   2.232   7.350   7.475  0.6034 -1.9006 -0.7236
  773MOL0     H 4294   2.260   7.134   7.508 -0.2120  1.6875 -0.5993
  773MOL0     H 4295   2.276   7.133   7.681 -0.3787 -2.2041 -0.3230
  773MOL0     H 4296   2.491   7.278   7.625 -2.4305  0.0950  0.9950
  773MOL0     H 4297   2.500   7.102   7.609 -0.8841 -1.2582 -1.6181
  773MOL0     H 4298   2.432   7.144   7.367  0.0662 -0.4095  1.6493
  773MOL0     H 4299   2.482   7.308   7.390  0.2567 -0.6699 -1.9387
  773MOL0     H 4300   2.698   7.219   7.482 -2.0407 -0.5482  1.3992
  773MOL0     H 4301   2.641   7.057   7.434  2.3549 -1.0596 -2.7928
  773MOL0     H 4302   2.647   7.265   7.225 -0.3309 -1.6749 -1.9649
  773MOL0     H 4303   2.634   7.095   7.209 -1.8480  1.0104 -1.3260
  773MOL0     H 4304   2.880   7.248   7.320 -1.4142  0.4033  0.0310
  773MOL0     H 4305   2.871   7.076   7.315 -2.3656 -0.7190  0.6161
  773MOL0     H 4306   2.868   7.345   7.024 -0.7213 -0.4972 -0.9892
  773MOL0     H 4307   2.927   7.158   6.709 -1.7755  1.6237  0.9612
  773MOL0     H 4308   2.927   7.319   6.757 -0.8322  0.6475  1.2830
  773MOL0     H 4309   3.156   7.317   6.692  0.0856 -0.4761 -0.5107
  773MOL0     H 4310   3.166   7.278   6.875 -1.6595 -0.7140  1.3615
  773MOL0     H 4311   3.175   7.079   6.648 -0.9360 -0.4973  0.1448
  773MOL0     H 4312   3.184   7.042   6.820 -2.5288  0.4779 -0.5317
  773MOL0     H 4313   3.373   7.211   6.638  3.5259 -1.7516 -0.9834
  773MOL0     H 4314   3.405   7.046   6.704 -2.7450  0.5119 -2.7852
  773MOL0     H 4315   3.529   7.223   7.066 -0.6883  3.4278  0.8860
  773MOL0     H 4316   3.765   7.262   7.095 -4.3671  2.3641  1.4834
  773MOL0     H 4317   4.164   7.518   6.874 -0.8824 -0.4786  0.4319
  773MOL0     H 4318   4.405   7.549   6.919  0.6930  0.2962  0.0589
  773MOL0     H 4319   4.667   7.217   6.930 -0.1518  0.9053  0.3707
  773MOL0     H 4320   4.720   7.255   6.765  2.1227  2.0938 -0.1592
  773MOL0     H 4321   4.848   7.441   6.848 -0.8260  0.4481 -0.8094
  773MOL0     H 4322   4.820   7.386   7.013 -1.2717 -0.3556  0.0964
  773MOL0     H 4323   4.985   7.229   6.810  1.0809 -0.9418  0.2609
  773MOL0     H 4324   5.023   7.298   6.961 -0.7388  2.1353 -3.0035
  773MOL0     H 4325   4.863   7.041   6.912  1.1284  1.4049 -2.4519
  773MOL0     H 4326   4.860   7.125   7.064  1.7553 -2.1442  1.5194
  773MOL0     H 4327   5.134   7.087   7.063  1.0893  0.5290 -2.0093
  773MOL0     H 4328   5.100   7.019   6.911 -3.3049  0.8378 -1.5162
  773MOL0     H 4329   4.987   6.921   7.180 -0.7415 -0.2765 -0.0906
  773MOL0     H 4330   4.947   6.851   7.022 -0.3677 -0.7408 -1.1447
  773MOL0     H 4331   5.091   6.708   7.130 -2.2707  0.2473 -2.4759
  773MOL0     H 4332   5.223   6.837   7.117 -0.1336 -1.8060  0.3369
  773MOL0     H 4333   5.077   6.695   6.891  1.9184 -2.8239  0.9300
  773MOL0     H 4334   5.197   6.831   6.877  1.3508 -0.6773 -0.4537
  773MOL0     H 4335   4.481   7.128   6.829  1.4177  0.4532  2.5478
  773MOL0     H 4336   4.232   7.107   6.772  0.1427  0.8910  1.2042
  773MOL0     H 4337   3.815   7.265   6.654 -0.0398  1.6704 -0.3679
  773MOL0     H 4338   3.594   7.212   6.635 -0.6970 -2.0270  0.7960
  773MOL0     H 4339   1.839   7.283   7.605  0.3481 -2.4036 -2.1570
  773MOL0     H 4340   1.637   7.144   7.655 -0.0657 -0.7520 -0.1460
  773MOL0     H 4341   1.420   6.889   7.954 -2.5351  2.0130 -0.6784
  773MOL0     H 4342   1.220   6.747   8.009 -3.2615 -1.5769 -2.8741
  773MOL0     H 4343   1.246   6.393   8.011 -1.7269  0.2686  2.0097
  773MOL0     H 4344   1.194   6.336   7.847  2.9173 -0.8662  0.3458
  773MOL0     H 4345   0.970   6.327   7.916  1.8316 -0.3825 -1.6458
  773MOL0     H 4346   0.999   6.418   8.065 -0.4158 -0.7399  0.2028
  773MOL0     H 4347   1.153   6.224   8.119  0.2611 -0.7926 -1.0827
  773MOL0     H 4348   1.073   6.150   7.981  2.0657  1.9408 -0.5792
  773MOL0     H 4349   0.863   6.142   8.087  0.9552  0.7712  0.0603
  773MOL0     H 4350   0.971   6.069   8.195  1.8561  1.0115  1.1847
  773MOL0     H 4351   0.913   6.423   8.421 -0.3198  0.1720 -0.9672
  773MOL0     H 4352   1.318   6.458   7.736  1.1214 -0.5752 -0.2323
  773MOL0     H 4353   1.586   6.611   7.554  1.8409 -1.2682 -1.8177
  773MOL0     H 4354   1.657   6.533   7.683  0.5890  0.0224 -0.2081
  773MOL0     H 4355   1.516   6.455   7.599 -1.8984  2.7937 -1.7274
  774MOL0     O 4356   2.047   7.889   6.622 -0.2100 -0.0448  0.5487
  774MOL0     C 4357   1.946   7.842   6.568  0.0576  0.1909 -0.6814
  774MOL0     O 4358   1.945   7.772   6.453  0.3475 -0.2135 -0.1026
  774MOL0     C 4359   2.059   7.786   6.373 -0.1932 -0.8389  0.4753
  774MOL0     C 4360   2.168   7.702   6.400 -1.1456  1.2039  0.8817
  774MOL0     C 4361   2.281   7.702   6.309 -0.1891  0.2792 -0.0902
  774MOL0     C 4362   2.290   7.788   6.198 -0.4105  0.1339 -0.1838
  774MOL0     O 4363   2.393   7.800   6.117  0.3610 -0.0496 -0.2849
  774MOL0     C 4364   2.521   7.754   6.153 -0.5218 -0.1453 -0.0075
  774MOL0     C 4365   2.624   7.759   6.044  0.6001  0.4304 -0.2310
  774MOL0     C 4366   2.758   7.703   6.089 -0.4492  0.6150 -0.0683
  774MOL0     C 4367   2.864   7.742   5.988  0.3444 -0.7008 -0.3647
  774MOL0     C 4368   2.992   7.657   5.990 -0.1094  0.0060 -0.0017
  774MOL0     C 4369   3.086   7.679   5.865  0.1340 -0.0404 -0.3126
  774MOL0     C 4370   3.236   7.635   5.881  0.4646 -0.4869 -0.2181
  774MOL0     C 4371   3.313   7.746   5.955  0.4846  0.1121 -0.7141
  774MOL0     N 4372   3.454   7.706   5.990  0.5436 -0.5099  0.8775
  774MOL0     C 4373   3.544   7.781   6.059  0.4462 -0.1325 -0.8850
  774MOL0     C 4374   3.657   7.712   6.067  0.6483  0.0415  0.3969
  774MOL0     C 4375   3.777   7.775   6.141 -0.0735  0.0184  0.3484
  774MOL0     C 4376   3.916   7.729   6.099  0.2733 -0.0203  0.3473
  774MOL0     C 4377   3.948   7.747   5.948  0.2336 -0.1409  1.0075
  774MOL0     C 4378   4.093   7.753   5.900 -0.8610  0.5318 -0.0547
  774MOL0     O 4379   4.184   7.640   5.928  0.2017 -0.5458  0.9406
  774MOL0     C 4380   4.324   7.654   5.914  0.8426 -0.0621  0.0507
  774MOL0     C 4381   4.406   7.546   5.950  0.6631 -0.4420 -0.4026
  774MOL0     C 4382   4.545   7.548   5.949 -0.7814 -0.0137  0.1602
  774MOL0     C 4383   4.607   7.658   5.899 -0.0908 -0.6563 -0.1723
  774MOL0     C 4384   4.756   7.675   5.887 -0.9984 -0.0012  0.1007
  774MOL0     O 4385   4.808   7.773   5.806 -0.2784 -0.4602 -0.7211
  774MOL0     C 4386   4.944   7.797   5.791  0.2462  0.1459  0.0095
  774MOL0     C 4387   4.993   7.843   5.664  0.3703 -0.6308 -0.6973
  774MOL0     C 4388   5.126   7.877   5.638 -0.7551 -0.0308  0.6927
  774MOL0     C 4389   5.209   7.873   5.752 -0.1613 -0.0307 -0.4353
  774MOL0     O 4390   5.344   7.899   5.748 -0.2224 -1.1842 -0.4531
  774MOL0     C 4391   5.373   8.042   5.741 -1.1847 -0.3741  0.2247
  774MOL0     C 4392   5.510   8.064   5.684 -0.4788 -0.4526  0.1892
  774MOL0     C 4393   5.542   8.212   5.671 -0.4159  0.4292  0.1515
  774MOL0     C 4394   5.437   8.308   5.615  0.2413 -0.4890 -0.7922
  774MOL0     C 4395   5.455   8.314   5.464 -0.5142 -0.5829  0.0571
  774MOL0     C 4396   5.372   8.429   5.396  0.1707 -1.0637  0.1192
  774MOL0     C 4397   5.435   8.570   5.409 -0.1580 -0.2430 -0.0049
  774MOL0     C 4398   5.404   8.654   5.285  0.0791 -0.2093 -0.1236
  774MOL0    Cl 4399   5.509   8.810   5.334  0.0581  0.2072  0.0420
  774MOL0     C 4400   5.167   7.840   5.879  0.5507  0.5964 -0.2093
  774MOL0     C 4401   5.035   7.791   5.891 -1.0198  0.4068  0.7414
  774MOL0     O 4402   4.829   7.594   5.945  0.3954 -0.2379  0.2850
  774MOL0     C 4403   4.530   7.779   5.872  0.1372  0.8885 -0.0183
  774MOL0     C 4404   4.385   7.772   5.877  0.0172  0.8475  0.4037
  774MOL0     N 4405   3.636   7.591   6.005  0.0404  0.6647  0.2931
  774MOL0     N 4406   3.523   7.592   5.944  0.5800 -0.4539 -0.1516
  774MOL0     C 4407   2.181   7.871   6.165 -0.4521 -0.4411 -0.3723
  774MOL0     C 4408   2.070   7.872   6.257  0.1360 -0.0544 -0.7603
  774MOL0     C 4409   1.825   7.837   6.650 -0.1950 -0.2753  1.0351
  774MOL0     C 4410   1.745   7.728   6.622  0.3418 -0.5569 -0.1225
  774MOL0     C 4411   1.614   7.715   6.670 -0.1574  0.2884  0.3702
  774MOL0     C 4412   1.561   7.814   6.750  0.4145 -0.3295  0.0138
  774MOL0     O 4413   1.443   7.795   6.811  0.5762 -0.7016  0.3144
  774MOL0     C 4414   1.334   7.850   6.751 -0.4335 -0.1906  0.3830
  774MOL0     C 4415   1.289   7.737   6.654  0.4901 -0.0366  0.7404
  774MOL0     C 4416   1.240   7.608   6.717  0.4846  0.2406 -0.8531
  774MOL0     C 4417   1.170   7.530   6.608  0.2018  0.2684 -0.2007
  774MOL0     C 4418   1.022   7.555   6.615  0.2337 -0.4850  0.1072
  774MOL0     C 4419   0.901   7.570   6.605  0.9659  0.2795 -0.1031
  774MOL0     C 4420   1.640   7.923   6.788  0.2154  0.0564  0.6859
  774MOL0     C 4421   1.770   7.942   6.730  0.1393  0.3285  0.2621
  774MOL0     C 4422   1.845   8.071   6.751  0.4199 -0.5883  0.1230
  774MOL0     H 4423   2.163   7.641   6.489 -0.7351 -2.0305 -1.1393
  774MOL0     H 4424   2.363   7.641   6.345  1.3075  0.9978 -2.0904
  774MOL0     H 4425   2.548   7.819   6.237 -0.3916  2.7925 -2.1470
  774MOL0     H 4426   2.521   7.651   6.190  2.9648  0.0076  0.7234
  774MOL0     H 4427   2.627   7.863   6.011 -1.3688  0.9072  0.9461
  774MOL0     H 4428   2.588   7.708   5.954 -0.4877  0.0765  0.3876
  774MOL0     H 4429   2.750   7.594   6.094  0.1431  0.5876  0.4306
  774MOL0     H 4430   2.778   7.750   6.185 -3.1709  1.8733 -0.0458
  774MOL0     H 4431   2.822   7.745   5.887  0.4119  0.1564 -0.3773
  774MOL0     H 4432   2.892   7.847   6.006  2.8220 -1.7526  3.1242
  774MOL0     H 4433   3.043   7.699   6.077 -1.7412  1.5801  0.2633
  774MOL0     H 4434   2.962   7.553   6.008 -1.5075  0.1585 -1.2614
  774MOL0     H 4435   3.034   7.624   5.786 -3.9701  2.2405  0.5028
  774MOL0     H 4436   3.075   7.782   5.830 -0.8486  0.4672  1.3561
  774MOL0     H 4437   3.281   7.623   5.782  2.2061  0.7630  0.3736
  774MOL0     H 4438   3.229   7.541   5.938 -1.5717 -0.1187  0.2334
  774MOL0     H 4439   3.307   7.836   5.893  3.1464  0.5889 -0.3894
  774MOL0     H 4440   3.258   7.757   6.050  2.9033  0.8481  0.6924
  774MOL0     H 4441   3.525   7.882   6.095 -2.3521 -0.3368 -1.5578
  774MOL0     H 4442   3.774   7.884   6.134  0.7383  0.0478  0.3725
  774MOL0     H 4443   3.771   7.756   6.248  1.2655 -1.3163  0.2336
  774MOL0     H 4444   3.983   7.792   6.157  0.3727  0.6119 -0.4251
  774MOL0     H 4445   3.927   7.624   6.129  1.0621 -0.2172 -0.5767
  774MOL0     H 4446   3.886   7.835   5.930  0.3273 -0.7917 -3.7288
  774MOL0     H 4447   3.891   7.664   5.904 -2.5220  0.0260  3.8672
  774MOL0     H 4448   4.131   7.841   5.953  2.3669  0.6321 -2.2664
  774MOL0     H 4449   4.090   7.775   5.793  0.3529  0.4310 -0.1226
  774MOL0     H 4450   4.347   7.457   5.972 -3.2078  1.1519 -3.2244
  774MOL0     H 4451   4.607   7.465   5.983 -2.6729 -0.3193  3.3147
  774MOL0     H 4452   4.925   7.834   5.580  1.7982 -2.9815 -1.7021
  774MOL0     H 4453   5.158   7.920   5.543  0.0842  2.8186  2.1508
  774MOL0     H 4454   5.296   8.080   5.673 -0.7284 -1.4974 -0.9703
  774MOL0     H 4455   5.364   8.091   5.838 -1.7358 -0.6801  0.3316
  774MOL0     H 4456   5.588   8.023   5.750 -1.9684 -1.1927  1.5662
  774MOL0     H 4457   5.513   8.012   5.588  0.9528  0.3293 -0.2211
  774MOL0     H 4458   5.551   8.244   5.775 -1.4869 -0.6924  0.6083
  774MOL0     H 4459   5.641   8.235   5.631  1.1783 -1.6292  2.6242
  774MOL0     H 4460   5.458   8.405   5.662 -1.0880 -0.0051 -1.1409
  774MOL0     H 4461   5.332   8.288   5.639  0.5414 -0.2110  0.8568
  774MOL0     H 4462   5.428   8.217   5.424  1.8273 -1.2898  0.0575
  774MOL0     H 4463   5.561   8.324   5.442 -0.2893 -1.8049  0.5354
  774MOL0     H 4464   5.366   8.419   5.287 -0.1150  4.1140 -0.5837
  774MOL0     H 4465   5.269   8.429   5.432 -0.0400  0.7670 -0.3954
  774MOL0     H 4466   5.544   8.562   5.410 -0.2678 -2.0872  1.5695
  774MOL0     H 4467   5.402   8.622   5.499 -2.0576  0.8729 -1.2734
  774MOL0     H 4468   5.451   8.620   5.192  3.1381 -0.3970  1.3829
  774MOL0     H 4469   5.298   8.680   5.287  0.8498  3.5457  2.1089
  774MOL0     H 4470   5.239   7.840   5.960 -0.1924 -1.2046  0.5097
  774MOL0     H 4471   4.987   7.766   5.985 -2.6427  4.5839  1.2207
  774MOL0     H 4472   4.583   7.873   5.863  4.1758 -1.2487 -1.4252
  774MOL0     H 4473   4.323   7.856   5.847  1.8074  0.7483 -4.3254
  774MOL0     H 4474   2.189   7.954   6.095 -2.3179  1.1826  1.2290
  774MOL0     H 4475   1.994   7.948   6.245 -1.5012 -1.9542 -3.5090
  774MOL0     H 4476   1.779   7.646   6.560  4.1694  1.3160 -0.8162
  774MOL0     H 4477   1.557   7.630   6.635 -0.0444  1.4471 -2.9965
  774MOL0     H 4478   1.364   7.941   6.700  0.8284 -2.4650 -3.2757
  774MOL0     H 4479   1.259   7.868   6.830  0.4677  4.0054  0.4711
  774MOL0     H 4480   1.358   7.712   6.573 -0.8679  1.8685 -1.1673
  774MOL0     H 4481   1.195   7.767   6.605 -0.2127 -0.8543  1.5590
  774MOL0     H 4482   1.170   7.628   6.798  0.2176  2.4424 -1.5635
  774MOL0     H 4483   1.330   7.555   6.750  1.5353  2.2549 -0.3733
  774MOL0     H 4484   1.197   7.564   6.508  0.5596 -0.0627 -0.2171
  774MOL0     H 4485   1.200   7.427   6.626 -0.0190  0.4315  1.2641
  774MOL0     H 4486   0.796   7.573   6.622  1.2972  1.2453  2.1091
  774MOL0     H 4487   1.584   7.999   6.841 -0.8121 -0.4861  0.4056
  774MOL0     H 4488   1.852   8.138   6.665  2.4894 -0.5258  0.2921
  774MOL0     H 4489   1.797   8.121   6.836  2.7396 -0.8707  1.6923
  774MOL0     H 4490   1.949   8.049   6.778  0.1799 -1.8756  0.0343
  775MOL0     O 4491   0.119   0.854   6.703  0.2899  0.4505  0.0065
  775MOL0     C 4492   0.007   0.812   6.668 -0.5033  0.2466 -0.2467
  775MOL0     O 4493  -0.046   0.700   6.720  0.7510  0.1360  0.8469
  775MOL0     C 4494  -0.010   0.626   6.827 -0.3434  0.4633 -1.7292
  775MOL0     C 4495  -0.018   0.483   6.820  0.0072 -0.3072  0.0951
  775MOL0     C 4496   0.010   0.405   6.928  0.5874 -0.2099 -0.5298
  775MOL0     C 4497   0.042   0.451   7.054  0.4373 -0.6809 -0.1370
  775MOL0     O 4498   0.089   0.364   7.150 -0.0272 -0.1682 -0.2293
  775MOL0     C 4499   0.029   0.377   7.281  0.7549 -0.6955 -0.9987
  775MOL0     C 4500   0.070   0.266   7.376  0.3233  0.4819 -0.0712
  775MOL0     C 4501   0.205   0.295   7.453  0.2342 -0.1478 -0.5855
  775MOL0     C 4502   0.261   0.168   7.518  0.1557 -0.4008 -0.7209
  775MOL0     C 4503   0.388   0.191   7.608 -0.9278 -1.0818  0.7679
  775MOL0     C 4504   0.379   0.306   7.718  0.2773  0.2159  0.8588
  775MOL0     C 4505   0.471   0.285   7.845 -0.3707  0.6507  0.3240
  775MOL0     C 4506   0.465   0.142   7.894  0.5045 -0.0099 -0.3677
  775MOL0     N 4507   0.539   0.110   8.018 -0.3151  0.7425  0.4503
  775MOL0     C 4508   0.604   0.193   8.104  0.1539  0.2885  0.2619
  775MOL0     C 4509   0.664   0.114   8.200  0.9929 -0.4269  1.3204
  775MOL0     C 4510   0.738   0.172   8.319  0.9529  0.9369  0.8211
  775MOL0     C 4511   0.654   0.216   8.439  0.3287  0.5811  0.2036
  775MOL0     C 4512   0.731   0.262   8.560 -1.0533  0.3319  0.5250
  775MOL0     C 4513   0.855   0.351   8.524  0.5648  0.9964  0.2239
  775MOL0     O 4514   0.882   0.423   8.643 -0.3210  0.5699 -0.0787
  775MOL0     C 4515   1.010   0.468   8.664  0.5538 -0.5255 -0.1679
  775MOL0     C 4516   1.118   0.466   8.572  0.0381  0.3028 -0.1012
  775MOL0     C 4517   1.247   0.508   8.607 -0.3455 -0.0872 -0.1333
  775MOL0     C 4518   1.265   0.562   8.738  0.2270 -0.2209 -0.6348
  775MOL0     C 4519   1.399   0.617   8.787 -0.7279  0.2052 -0.6764
  775MOL0     O 4520   1.502   0.630   8.694 -0.6382 -0.2960 -0.5046
  775MOL0     C 4521   1.619   0.703   8.705  0.7176 -1.1263 -0.5947
  775MOL0     C 4522   1.649   0.769   8.817 -0.8799  1.4967  0.5719
  775MOL0     C 4523   1.771   0.837   8.832 -1.2857 -0.0081  0.2872
  775MOL0     C 4524   1.869   0.835   8.729  0.0920 -0.2761 -0.0584
  775MOL0     O 4525   1.995   0.894   8.748  0.5047  0.8009 -0.0099
  775MOL0     C 4526   2.102   0.820   8.670  0.3113 -0.1865  0.1915
  775MOL0     C 4527   2.247   0.858   8.726 -0.0005 -0.5689  0.1025
  775MOL0     C 4528   2.264   0.854   8.875  0.9291 -0.5347 -0.0889
  775MOL0     C 4529   2.402   0.887   8.920  1.3454  0.1897  0.8803
  775MOL0     C 4530   2.516   0.809   8.853  0.0890  0.5901 -0.3824
  775MOL0     C 4531   2.519   0.650   8.869 -0.1561 -0.2603  0.1415
  775MOL0     C 4532   2.653   0.597   8.807 -0.1394 -0.1974 -0.2534
  775MOL0     C 4533   2.769   0.596   8.895 -0.0796  0.6406 -0.5703
  775MOL0    Cl 4534   2.924   0.622   8.809  0.3759  0.5519  0.1746
  775MOL0     C 4535   1.833   0.765   8.611  0.6780  0.4669  0.1943
  775MOL0     C 4536   1.711   0.704   8.599  0.2715  0.1412  0.1683
  775MOL0     O 4537   1.392   0.666   8.897  0.3069 -0.8228 -0.1355
  775MOL0     C 4538   1.153   0.561   8.832  0.5378  0.1543  0.4499
  775MOL0     C 4539   1.030   0.507   8.789  0.5510  0.2469 -1.6327
  775MOL0     N 4540   0.656  -0.019   8.151  0.3232 -0.2967 -0.3282
  775MOL0     N 4541   0.577  -0.018   8.044 -0.1421 -0.1659  0.2944
  775MOL0     C 4542   0.052   0.591   7.066  0.2059  0.7212  0.1694
  775MOL0     C 4543   0.020   0.680   6.957  0.7338 -0.2619 -0.4272
  775MOL0     C 4544  -0.076   0.889   6.574  0.0373  0.0576  0.5039
  775MOL0     C 4545  -0.216   0.848   6.566  0.4560  0.1733 -1.6761
  775MOL0     C 4546  -0.303   0.909   6.471 -0.3640  0.5841  0.3049
  775MOL0     C 4547  -0.248   0.996   6.383  0.8618  0.8346  0.1409
  775MOL0     O 4548  -0.314   1.055   6.278  0.1276  0.8420 -0.3900
  775MOL0     C 4549  -0.280   1.002   6.149  0.3380  0.1699 -0.0439
  775MOL0     C 4550  -0.396   0.896   6.115 -0.4108 -0.1470 -0.0966
  775MOL0     C 4551  -0.533   0.972   6.124  0.8529  0.1604  0.5582
  775MOL0     C 4552  -0.647   0.877   6.053 -0.6007  0.2486 -0.9189
  775MOL0     C 4553  -0.648   0.881   5.900 -0.1374 -0.3887  1.0722
  775MOL0     C 4554  -0.655   0.916   5.781 -0.8912  0.3093  0.2925
  775MOL0     C 4555  -0.113   1.028   6.387 -1.0326  0.2000 -0.3437
  775MOL0     C 4556  -0.020   0.970   6.468  1.0543  0.7956 -1.0800
  775MOL0     C 4557   0.122   1.010   6.462 -0.5673  0.3334 -0.2604
  775MOL0     H 4558  -0.057   0.440   6.728 -3.3669  0.1000  1.1867
  775MOL0     H 4559   0.017   0.297   6.919  1.0945 -0.5582  2.7705
  775MOL0     H 4560   0.046   0.472   7.332  1.3752 -2.7380  3.0467
  775MOL0     H 4561  -0.076   0.361   7.254  0.3980 -0.7557  0.3614
  775MOL0     H 4562   0.080   0.174   7.318  0.4910 -0.2167  1.0259
  775MOL0     H 4563  -0.009   0.259   7.452  0.2348  1.6947 -0.0269
  775MOL0     H 4564   0.176   0.369   7.528 -0.2281 -2.1126  1.2571
  775MOL0     H 4565   0.278   0.354   7.396 -1.7967  3.2108 -0.0162
  775MOL0     H 4566   0.186   0.136   7.591  0.3497 -0.1743 -0.4186
  775MOL0     H 4567   0.288   0.101   7.437  3.1613 -2.7157  1.9044
  775MOL0     H 4568   0.407   0.094   7.656  0.8421 -0.7557  0.7990
  775MOL0     H 4569   0.478   0.221   7.554 -0.6220 -0.9105  1.3637
  775MOL0     H 4570   0.402   0.397   7.662 -1.3051  0.6396  0.8583
  775MOL0     H 4571   0.274   0.296   7.746 -0.4505  0.2441 -1.5871
  775MOL0     H 4572   0.449   0.352   7.929  0.0071 -0.1525  1.0713
  775MOL0     H 4573   0.570   0.317   7.808 -0.3925  0.8419  0.4263
  775MOL0     H 4574   0.362   0.108   7.910  0.7676  0.4814  3.4889
  775MOL0     H 4575   0.507   0.071   7.823  1.0020  0.5008 -0.5869
  775MOL0     H 4576   0.601   0.301   8.102  3.1213  0.4388 -0.0293
  775MOL0     H 4577   0.811   0.102   8.360  2.0729  1.3213 -0.4260
  775MOL0     H 4578   0.801   0.254   8.284 -0.8296  1.9968 -0.0366
  775MOL0     H 4579   0.584   0.290   8.399 -0.7968 -1.6836 -2.3061
  775MOL0     H 4580   0.586   0.141   8.480 -2.4272  2.9647  0.2506
  775MOL0     H 4581   0.763   0.174   8.616 -0.1508 -1.5385 -2.6621
  775MOL0     H 4582   0.670   0.334   8.615 -1.1003  0.3473  0.4534
  775MOL0     H 4583   0.842   0.418   8.439  1.1355  0.4893 -0.2733
  775MOL0     H 4584   0.939   0.287   8.493  1.9860  3.2129 -0.7856
  775MOL0     H 4585   1.100   0.417   8.477 -0.5003 -1.2418  0.7524
  775MOL0     H 4586   1.318   0.505   8.526 -0.1253  3.4254 -0.2193
  775MOL0     H 4587   1.586   0.776   8.906 -2.1066 -0.4343 -0.0938
  775MOL0     H 4588   1.791   0.906   8.914 -0.4544  1.0807 -0.7948
  775MOL0     H 4589   2.091   0.712   8.663  1.1216 -0.3841  1.6974
  775MOL0     H 4590   2.105   0.860   8.568  3.2769 -0.4540  0.0983
  775MOL0     H 4591   2.311   0.780   8.684  1.1979 -0.2177  1.1929
  775MOL0     H 4592   2.257   0.959   8.685 -0.4967 -1.3211 -1.9643
  775MOL0     H 4593   2.190   0.925   8.914  1.2102  1.1462 -2.4067
  775MOL0     H 4594   2.243   0.753   8.912 -1.2300 -0.6707 -1.5522
  775MOL0     H 4595   2.401   0.873   9.029  0.2679  2.1082  1.1554
  775MOL0     H 4596   2.421   0.994   8.914  0.0868  0.3608 -0.8585
  775MOL0     H 4597   2.611   0.853   8.885  0.7257 -1.9718  1.5797
  775MOL0     H 4598   2.512   0.833   8.746 -1.6230  0.7199 -0.3179
  775MOL0     H 4599   2.507   0.622   8.974  0.7785 -1.3151 -0.0179
  775MOL0     H 4600   2.433   0.607   8.816  0.0700 -1.0323  0.3875
  775MOL0     H 4601   2.670   0.669   8.726 -2.3515 -0.8772 -1.4123
  775MOL0     H 4602   2.641   0.496   8.766 -1.0654  0.3154 -1.3159
  775MOL0     H 4603   2.754   0.668   8.976 -1.4916  0.2329 -0.4536
  775MOL0     H 4604   2.783   0.502   8.949  0.7289 -0.0732 -1.9593
  775MOL0     H 4605   1.891   0.771   8.520 -0.7480 -0.9361 -0.8365
  775MOL0     H 4606   1.685   0.665   8.502  0.3415  1.6860 -0.5051
  775MOL0     H 4607   1.155   0.598   8.934  0.9173 -1.2952  0.9898
  775MOL0     H 4608   0.956   0.487   8.865 -0.5150  2.2458 -2.0693
  775MOL0     H 4609   0.104   0.625   7.154 -1.2424  0.4831  1.1503
  775MOL0     H 4610   0.017   0.786   6.977  0.9539  0.4802 -3.8029
  775MOL0     H 4611  -0.266   0.776   6.631 -1.0442  0.7176 -2.1827
  775MOL0     H 4612  -0.407   0.877   6.474  0.2845 -1.8888 -0.9236
  775MOL0     H 4613  -0.182   0.954   6.156 -0.6862 -2.0370  0.2428
  775MOL0     H 4614  -0.283   1.091   6.086  0.5005  1.0861  1.1985
  775MOL0     H 4615  -0.393   0.810   6.183  3.0793 -1.6053 -1.8201
  775MOL0     H 4616  -0.379   0.852   6.016 -0.2980  0.4683 -0.3558
  775MOL0     H 4617  -0.527   1.065   6.068  1.3944 -0.9674 -1.3804
  775MOL0     H 4618  -0.557   0.982   6.230  2.5586  2.5991  0.7891
  775MOL0     H 4619  -0.629   0.775   6.086  0.9825  1.1849  1.3660
  775MOL0     H 4620  -0.744   0.910   6.092  1.0093  1.2143  2.7301
  775MOL0     H 4621  -0.662   0.954   5.681  2.1522 -0.9294 -0.5086
  775MOL0     H 4622  -0.062   1.093   6.318  0.9357 -0.6358  0.2451
  775MOL0     H 4623   0.147   1.051   6.561 -2.5225 -1.8991  1.2554
  775MOL0     H 4624   0.190   0.925   6.457 -3.3244 -2.1498  1.5944
  775MOL0     H 4625   0.143   1.076   6.377 -0.1718 -2.2072 -2.2445
  776MOL0     O 4626   8.562   7.983   8.779 -0.2934  0.3033 -0.4409
  776MOL0     C 4627   8.537   7.916   8.871  0.4505 -0.0202  0.1680
  776MOL0     O 4628   8.623   7.883   8.968 -0.2896 -0.6409  0.0412
  776MOL0     C 4629   8.749   7.936   8.951 -0.3747 -0.7139  0.5485
  776MOL0     C 4630   8.855   7.866   8.918 -0.4763  0.6185  0.3022
  776MOL0     C 4631   8.976   7.920   8.910 -0.4251 -0.4887  0.0282
  776MOL0     C 4632   8.999   8.057   8.913 -0.6227  0.4876 -0.5731
  776MOL0     O 4633   9.123   8.104   8.890 -0.0711  0.0423  0.1526
  776MOL0     C 4634   9.207   8.117   9.008 -0.0413 -0.2418  0.6018
  776MOL0     C 4635   9.305   7.996   8.975 -0.6677 -0.3582 -0.5534
  776MOL0     C 4636   9.399   8.038   8.852 -0.6313 -0.0172 -0.5076
  776MOL0     C 4637   9.506   7.928   8.838  0.8960 -1.1818  0.5915
  776MOL0     C 4638   9.580   7.940   8.705 -0.5107  0.0155 -0.0933
  776MOL0     C 4639   9.699   8.042   8.714  0.4657 -0.6962  0.6613
  776MOL0     C 4640   9.781   8.046   8.579 -0.1755  0.4386  0.0199
  776MOL0     C 4641   9.861   7.921   8.558 -0.6940 -0.0330  0.1654
  776MOL0     N 4642   9.965   7.903   8.663  0.2032  0.1176  0.6178
  776MOL0     C 4643  10.008   7.780   8.688 -0.2535 -0.0670 -0.1561
  776MOL0     C 4644  10.121   7.809   8.751 -0.7524  0.2284 -0.1554
  776MOL0     C 4645  10.237   7.722   8.811  0.1120  0.3860 -0.7693
  776MOL0     C 4646  10.258   7.740   8.974  0.2964 -0.6019 -0.0721
  776MOL0     C 4647  10.351   7.634   9.028 -0.1148 -0.9578  0.2793
  776MOL0     C 4648  10.502   7.678   9.018  0.2025 -0.6548  0.1933
  776MOL0     O 4649  10.535   7.796   9.093 -0.6321 -0.4025  0.2455
  776MOL0     C 4650  10.664   7.809   9.147 -1.1104  0.3267  0.1581
  776MOL0     C 4651  10.781   7.778   9.074 -0.2062 -0.1345 -0.1643
  776MOL0     C 4652  10.907   7.763   9.140 -0.0604 -0.4565  0.0934
  776MOL0     C 4653  10.919   7.802   9.282 -1.3136 -0.3144  0.3230
  776MOL0     C 4654  11.057   7.798   9.352  0.1037  0.7135 -0.5045
  776MOL0     O 4655  11.160   7.806   9.269 -0.3037  0.3394 -0.2250
  776MOL0     C 4656  11.292   7.805   9.302  0.3496 -0.2887 -0.9483
  776MOL0     C 4657  11.384   7.846   9.205  0.4673  0.2504 -0.1657
  776MOL0     C 4658  11.516   7.848   9.234  0.4976 -0.8120  0.3406
  776MOL0     C 4659  11.561   7.813   9.363 -1.6549  0.4691 -0.1582
  776MOL0     O 4660  11.702   7.806   9.400  0.2147  0.3550 -0.4653
  776MOL0     C 4661  11.780   7.902   9.330 -0.2392  0.9515 -0.2703
  776MOL0     C 4662  11.921   7.915   9.388  0.1197  0.0216  0.1705
  776MOL0     C 4663  11.921   8.025   9.484  0.4803  0.0764 -0.2840
  776MOL0     C 4664  12.053   8.033   9.560  0.4866 -0.1371  0.5977
  776MOL0     C 4665  12.174   8.081   9.481  0.9165 -0.4239 -0.2508
  776MOL0     C 4666  12.168   8.226   9.423  0.7489  0.2336 -0.1799
  776MOL0     C 4667  12.308   8.263   9.395 -0.1401  0.0397  0.2045
  776MOL0     C 4668  12.329   8.410   9.381  0.1768  0.3618  0.9153
  776MOL0    Cl 4669  12.502   8.441   9.380  0.2805  0.3031 -0.3273
  776MOL0     C 4670  11.472   7.766   9.454  1.1090  1.0218 -0.2684
  776MOL0     C 4671  11.337   7.765   9.428  0.2522  0.5887 -0.3234
  776MOL0     O 4672  11.055   7.795   9.470 -0.2504  0.5696  0.0395
  776MOL0     C 4673  10.801   7.831   9.347 -0.4155 -0.1610  0.0512
  776MOL0     C 4674  10.682   7.838   9.277  0.4677 -2.2819 -0.6132
  776MOL0     N 4675  10.138   7.944   8.767 -0.6967  0.2954  0.4136
  776MOL0     N 4676  10.034   8.005   8.717  0.1358  0.6365 -0.3051
  776MOL0     C 4677   8.889   8.136   8.934  1.2604  0.1471  0.1929
  776MOL0     C 4678   8.763   8.078   8.964  0.1185 -0.0981 -0.0298
  776MOL0     C 4679   8.401   7.874   8.900 -0.0366  0.0356 -0.1216
  776MOL0     C 4680   8.372   7.832   9.033 -0.8749  0.0595  0.3305
  776MOL0     C 4681   8.243   7.794   9.063 -0.7652  0.0940 -1.0764
  776MOL0     C 4682   8.150   7.782   8.961 -0.0974 -0.7214 -0.6174
  776MOL0     O 4683   8.023   7.733   8.976  0.4368 -0.4329 -0.5507
  776MOL0     C 4684   7.966   7.747   9.113  0.1286  0.3428 -0.2635
  776MOL0     C 4685   7.816   7.717   9.122  0.3985 -0.0613 -0.0345
  776MOL0     C 4686   7.795   7.576   9.071  0.8108  0.1810  0.8631
  776MOL0     C 4687   7.654   7.518   9.111 -0.4186  0.7026 -0.2452
  776MOL0     C 4688   7.543   7.609   9.104 -0.8799  0.0890 -0.3622
  776MOL0     C 4689   7.446   7.674   9.112  0.1268  0.0680  0.5203
  776MOL0     C 4690   8.173   7.818   8.831  0.0922 -0.1583  0.1440
  776MOL0     C 4691   8.299   7.862   8.797 -0.4106 -0.4819 -0.0927
  776MOL0     C 4692   8.312   7.885   8.648  0.0046 -0.6488  0.2424
  776MOL0     H 4693   8.836   7.760   8.903 -1.6810  1.1573 -2.7131
  776MOL0     H 4694   9.056   7.847   8.899 -0.2535 -0.7215  2.3000
  776MOL0     H 4695   9.261   8.212   9.004 -1.4855  0.6229 -3.1285
  776MOL0     H 4696   9.145   8.106   9.097  0.8667 -2.4250  1.0152
  776MOL0     H 4697   9.245   7.906   8.959  0.4254 -1.0811 -0.6915
  776MOL0     H 4698   9.353   7.973   9.070 -2.8149 -0.7820  0.5111
  776MOL0     H 4699   9.445   8.136   8.869  0.6367 -0.9292  1.7703
  776MOL0     H 4700   9.342   8.031   8.759 -0.0534 -5.4899 -0.7567
  776MOL0     H 4701   9.583   7.929   8.916 -0.0278  1.0618  1.5644
  776MOL0     H 4702   9.458   7.830   8.837 -3.3431  0.6547 -1.7387
  776MOL0     H 4703   9.629   7.844   8.685  0.3909  0.4434  0.0130
  776MOL0     H 4704   9.519   7.971   8.620  0.5542 -2.0191 -1.6978
  776MOL0     H 4705   9.656   8.142   8.724 -0.1270 -1.1135  2.6371
  776MOL0     H 4706   9.768   8.031   8.798  5.4154  3.0542 -2.3115
  776MOL0     H 4707   9.845   8.134   8.587  0.3959 -0.1685  3.5502
  776MOL0     H 4708   9.707   8.045   8.498  0.9540 -1.9518 -1.0975
  776MOL0     H 4709   9.793   7.836   8.565 -2.0094  1.0783  1.2116
  776MOL0     H 4710   9.914   7.926   8.462  0.1080 -1.4551  0.5094
  776MOL0     H 4711   9.965   7.686   8.655 -1.2028  1.2767 -3.1309
  776MOL0     H 4712  10.222   7.615   8.795  1.6428 -0.3127  1.8472
  776MOL0     H 4713  10.332   7.739   8.760  0.5991  0.5398  0.1770
  776MOL0     H 4714  10.280   7.842   9.004 -3.3288 -0.0063  1.0622
  776MOL0     H 4715  10.159   7.719   9.017 -0.3183 -0.4425 -1.3629
  776MOL0     H 4716  10.336   7.530   8.997 -2.9077 -0.1834 -1.3335
  776MOL0     H 4717  10.327   7.631   9.135  0.2809 -4.0843  0.3914
  776MOL0     H 4718  10.527   7.695   8.913  2.4378  1.3297  0.9536
  776MOL0     H 4719  10.577   7.605   9.050  2.4372  0.3983 -2.2491
  776MOL0     H 4720  10.790   7.761   8.967  1.9897 -1.0757  0.1193
  776MOL0     H 4721  10.993   7.739   9.079  1.1380  0.0212  1.5236
  776MOL0     H 4722  11.356   7.879   9.105  0.8370  0.7997 -0.0928
  776MOL0     H 4723  11.587   7.886   9.161 -0.3361  3.1047  1.3569
  776MOL0     H 4724  11.791   7.873   9.225 -2.4321 -0.5450 -0.1421
  776MOL0     H 4725  11.725   7.996   9.323 -2.0374 -0.1575 -2.5060
  776MOL0     H 4726  11.960   7.819   9.422  2.4429  0.9605  0.3455
  776MOL0     H 4727  11.992   7.946   9.311 -0.6734  0.0702 -0.5559
  776MOL0     H 4728  11.897   8.124   9.444 -0.1456  0.0627  0.0515
  776MOL0     H 4729  11.841   8.003   9.555  0.3121  2.2803  0.2957
  776MOL0     H 4730  12.073   7.931   9.595  1.2546 -0.3622 -0.4189
  776MOL0     H 4731  12.040   8.109   9.638  1.5353  0.6515  0.0318
  776MOL0     H 4732  12.190   8.001   9.408 -0.0106 -2.4146  1.6055
  776MOL0     H 4733  12.260   8.077   9.549  0.3204  0.9084  0.6267
  776MOL0     H 4734  12.103   8.231   9.335  3.4452  0.0014 -2.3346
  776MOL0     H 4735  12.124   8.299   9.491  1.3438  1.3513 -0.9771
  776MOL0     H 4736  12.348   8.214   9.306  1.0084  3.3262 -1.2455
  776MOL0     H 4737  12.378   8.231   9.473  1.0356  0.2835 -0.7077
  776MOL0     H 4738  12.295   8.434   9.280  0.9862  1.7654  0.9580
  776MOL0     H 4739  12.279   8.470   9.458  2.4483  2.1300  1.1135
  776MOL0     H 4740  11.503   7.733   9.553 -0.7130  1.4587  0.4798
  776MOL0     H 4741  11.276   7.717   9.504  0.0090  1.7280  0.2179
  776MOL0     H 4742  10.808   7.855   9.453  0.2835  1.1397 -0.2668
  776MOL0     H 4743  10.594   7.860   9.335  1.2626 -2.0655  0.5498
  776MOL0     H 4744   8.884   8.244   8.925 -0.2989  0.1783  1.1314
  776MOL0     H 4745   8.678   8.138   8.995  0.1728  0.0665 -0.1938
  776MOL0     H 4746   8.441   7.841   9.116  0.8249  0.2726 -1.0423
  776MOL0     H 4747   8.216   7.767   9.165  1.0305 -2.1640 -1.1135
  776MOL0     H 4748   7.985   7.847   9.152 -0.2280  0.3616 -0.1404
  776MOL0     H 4749   8.013   7.670   9.176  0.6998  2.5199  2.1262
  776MOL0     H 4750   7.755   7.790   9.067  1.4819 -1.8963 -4.0243
  776MOL0     H 4751   7.785   7.723   9.227  3.3087  0.6549  0.8943
  776MOL0     H 4752   7.873   7.506   9.104 -0.8075 -3.1534 -1.7059
  776MOL0     H 4753   7.802   7.573   8.962 -3.3680 -0.5481  0.4526
  776MOL0     H 4754   7.634   7.425   9.059  3.1838 -0.5543  0.3670
  776MOL0     H 4755   7.665   7.485   9.215  0.9043  0.6289 -0.3885
  776MOL0     H 4756   7.364   7.743   9.118 -2.1817 -2.5284  0.7801
  776MOL0     H 4757   8.089   7.808   8.763 -0.9179  1.8647  1.0042
  776MOL0     H 4758   8.238   7.820   8.601  0.8329 -0.7511 -0.9717
  776MOL0     H 4759   8.299   7.993   8.636 -0.0017 -0.7010 -0.2202
  776MOL0     H 4760   8.408   7.846   8.614 -0.0236 -0.1195 -0.4453
  777MOL0     O 4761   7.268   4.724   2.990  0.6002  0.2928 -0.3337
  777MOL0     C 4762   7.349   4.706   2.899 -0.6531  0.2936  0.1224
  777MOL0     O 4763   7.322   4.672   2.766 -1.1329  0.3267  0.8470
  777MOL0     C 4764   7.193   4.662   2.724  0.0192 -0.7185  0.2759
  777MOL0     C 4765   7.132   4.533   2.686  0.4008 -0.1091 -0.2200
  777MOL0     C 4766   7.004   4.525   2.633  1.0360 -0.6239  0.3966
  777MOL0     C 4767   6.925   4.634   2.617  0.6603 -0.1736  0.1228
  777MOL0     O 4768   6.795   4.634   2.573 -0.1297 -0.0533 -0.3130
  777MOL0     C 4769   6.761   4.716   2.457 -0.4302 -0.1689  0.1579
  777MOL0     C 4770   6.611   4.689   2.446 -0.8571  0.2709 -0.1582
  777MOL0     C 4771   6.523   4.805   2.460  0.8197 -0.0236  0.9149
  777MOL0     C 4772   6.372   4.767   2.451  0.8806 -0.2365  0.4200
  777MOL0     C 4773   6.313   4.750   2.317 -0.2529  0.2653  0.0850
  777MOL0     C 4774   6.255   4.869   2.246  1.0536 -0.3747 -0.9145
  777MOL0     C 4775   6.126   4.924   2.316 -0.0948 -0.1114  0.1959
  777MOL0     C 4776   6.021   4.820   2.347 -0.6173 -0.8020 -0.6087
  777MOL0     N 4777   5.961   4.746   2.231  0.2671  0.1728  0.5459
  777MOL0     C 4778   5.993   4.618   2.199 -0.5055  0.0569  0.7344
  777MOL0     C 4779   5.918   4.587   2.096 -0.3587 -0.2447  1.0186
  777MOL0     C 4780   5.937   4.475   2.018  0.2994 -0.3654  1.3350
  777MOL0     C 4781   5.801   4.430   1.951  0.3059 -0.7363 -0.8808
  777MOL0     C 4782   5.831   4.331   1.837 -0.1157 -0.3846 -0.4900
  777MOL0     C 4783   5.876   4.195   1.882 -0.2867  1.6891 -0.1003
  777MOL0     O 4784   5.886   4.114   1.760  0.3165  0.1285  1.1840
  777MOL0     C 4785   6.004   4.115   1.689 -0.3035 -0.5867 -0.6433
  777MOL0     C 4786   6.130   4.173   1.723 -0.0377  0.0068  0.1600
  777MOL0     C 4787   6.234   4.171   1.635  0.7287 -0.1756  0.7866
  777MOL0     C 4788   6.217   4.096   1.514  0.0747 -0.3785 -0.0618
  777MOL0     C 4789   6.329   4.090   1.415  0.4805  0.4607 -0.8191
  777MOL0     O 4790   6.300   4.014   1.307 -0.1533 -0.9118  0.5505
  777MOL0     C 4791   6.399   3.975   1.222  0.9770 -0.6974  0.7729
  777MOL0     C 4792   6.506   4.058   1.162 -0.2977  0.4198  0.6097
  777MOL0     C 4793   6.592   3.997   1.064  0.3942  0.0276 -0.0133
  777MOL0     C 4794   6.569   3.861   1.030  0.7915 -1.0782  0.1742
  777MOL0     O 4795   6.664   3.809   0.936 -0.1418  0.2670 -1.0136
  777MOL0     C 4796   6.616   3.737   0.818  0.2150 -0.5419 -0.0799
  777MOL0     C 4797   6.494   3.788   0.741 -0.7985  0.1783 -0.8458
  777MOL0     C 4798   6.522   3.930   0.679  0.4491 -0.6275 -0.8698
  777MOL0     C 4799   6.452   3.946   0.535 -0.3794  0.8566 -0.4406
  777MOL0     C 4800   6.487   4.087   0.477 -0.2552  0.2362 -0.1965
  777MOL0     C 4801   6.634   4.092   0.432 -0.6508  0.1052  0.9002
  777MOL0     C 4802   6.667   4.229   0.369  0.3326 -0.0038  0.6669
  777MOL0     C 4803   6.649   4.358   0.454 -0.1728  0.4309  0.5429
  777MOL0    Cl 4804   6.679   4.493   0.340  0.2656  0.0030  0.6823
  777MOL0     C 4805   6.470   3.790   1.088  0.2682  0.4757  0.5409
  777MOL0     C 4806   6.378   3.845   1.183 -0.2887 -0.3425  0.0396
  777MOL0     O 4807   6.431   4.152   1.439 -0.5763 -0.4935 -0.3224
  777MOL0     C 4808   6.098   4.030   1.488 -0.3886  0.7081 -0.4336
  777MOL0     C 4809   5.986   4.057   1.562  0.1460  0.3239 -0.3542
  777MOL0     N 4810   5.836   4.696   2.081 -0.5150  1.1101  0.6127
  777MOL0     N 4811   5.863   4.791   2.158  0.1480 -0.6136 -0.4714
  777MOL0     C 4812   6.975   4.760   2.645  0.4843 -0.3670  0.1741
  777MOL0     C 4813   7.102   4.771   2.706 -0.4094  1.5151  0.1705
  777MOL0     C 4814   7.485   4.735   2.950 -1.1869  0.5939 -0.1427
  777MOL0     C 4815   7.517   4.811   3.069  0.8378  0.1782 -0.7003
  777MOL0     C 4816   7.642   4.836   3.122  0.1161  0.0932 -1.2116
  777MOL0     C 4817   7.754   4.795   3.045  1.0802  0.2355 -0.8750
  777MOL0     O 4818   7.874   4.827   3.092  0.7094 -0.1671 -0.6230
  777MOL0     C 4819   7.911   4.960   3.047 -0.3173 -0.2712  0.0723
  777MOL0     C 4820   7.907   5.059   3.163  0.4189 -0.6605  1.0042
  777MOL0     C 4821   7.984   5.001   3.281 -0.0595 -0.2401 -0.6733
  777MOL0     C 4822   8.031   5.107   3.383  0.2134 -0.6740 -0.4390
  777MOL0     C 4823   7.933   5.217   3.383 -0.4019 -0.2370 -0.1476
  777MOL0     C 4824   7.870   5.318   3.392  0.4166  0.2129  0.2213
  777MOL0     C 4825   7.734   4.710   2.939  0.7682 -0.2553  0.7469
  777MOL0     C 4826   7.602   4.681   2.885  0.8619 -1.0313 -1.0606
  777MOL0     C 4827   7.603   4.578   2.775  0.2921 -0.8648  0.4041
  777MOL0     H 4828   7.183   4.438   2.696  0.3118 -0.1243  0.1034
  777MOL0     H 4829   6.964   4.427   2.609 -0.9370  0.6089 -1.7766
  777MOL0     H 4830   6.781   4.823   2.460 -2.6153  0.2899  0.8929
  777MOL0     H 4831   6.812   4.687   2.365  2.7146  1.0458  1.4153
  777MOL0     H 4832   6.587   4.608   2.516  0.7962 -2.4578 -2.5009
  777MOL0     H 4833   6.585   4.638   2.352 -1.6961  2.4181 -1.1619
  777MOL0     H 4834   6.544   4.882   2.385  0.4658 -1.1954 -0.4539
  777MOL0     H 4835   6.546   4.842   2.560  1.3744 -0.3617  0.9151
  777MOL0     H 4836   6.352   4.674   2.505  1.0018  0.5046  1.7688
  777MOL0     H 4837   6.313   4.842   2.504 -0.4350 -1.5787  0.9200
  777MOL0     H 4838   6.405   4.727   2.263  0.1425  0.0066  0.8622
  777MOL0     H 4839   6.241   4.669   2.304  2.4210 -2.0945 -1.0402
  777MOL0     H 4840   6.330   4.949   2.241 -0.2282  0.8181 -1.8369
  777MOL0     H 4841   6.232   4.842   2.142 -0.4559  2.6855 -1.4544
  777MOL0     H 4842   6.078   4.995   2.248  1.2233  2.0047  1.3516
  777MOL0     H 4843   6.158   4.982   2.403 -4.0672  1.4117  0.8542
  777MOL0     H 4844   6.058   4.753   2.424  0.2952 -0.9827 -1.1803
  777MOL0     H 4845   5.941   4.881   2.390  1.0694 -0.5626  2.4307
  777MOL0     H 4846   6.087   4.574   2.231 -1.4108 -2.8324 -0.3251
  777MOL0     H 4847   6.003   4.500   1.934 -0.6269  2.5472  1.3768
  777MOL0     H 4848   5.985   4.395   2.074  1.4637  0.5994  1.7491
  777MOL0     H 4849   5.725   4.395   2.021  0.4559  1.0208  0.2382
  777MOL0     H 4850   5.753   4.519   1.907 -0.4344  0.3573  1.9641
  777MOL0     H 4851   5.906   4.370   1.768 -1.0476  3.2104  0.2951
  777MOL0     H 4852   5.740   4.310   1.780 -0.5992 -0.9293  0.4505
  777MOL0     H 4853   5.796   4.156   1.946  1.1165  1.1182  1.3948
  777MOL0     H 4854   5.966   4.202   1.944 -1.7146 -0.3469  2.4149
  777MOL0     H 4855   6.138   4.219   1.821  2.5980  1.1552 -0.5014
  777MOL0     H 4856   6.323   4.232   1.649 -0.8372  3.2529 -2.4726
  777MOL0     H 4857   6.510   4.162   1.193 -0.4719  0.3928  0.7233
  777MOL0     H 4858   6.666   4.064   1.022 -0.8376  0.5166 -1.5217
  777MOL0     H 4859   6.697   3.734   0.744 -1.2084 -1.0915 -1.6656
  777MOL0     H 4860   6.605   3.630   0.839 -1.0687 -0.4384 -0.1481
  777MOL0     H 4861   6.483   3.710   0.665 -1.3580  0.0789 -0.6667
  777MOL0     H 4862   6.402   3.790   0.800  0.2053 -0.9062  0.8480
  777MOL0     H 4863   6.481   4.006   0.746  0.4012 -1.5008  0.1056
  777MOL0     H 4864   6.629   3.942   0.664  0.1250  1.1310 -2.1648
  777MOL0     H 4865   6.344   3.933   0.549 -0.6768  2.0371 -1.3916
  777MOL0     H 4866   6.495   3.863   0.480 -1.2312 -0.3226  0.6170
  777MOL0     H 4867   6.456   4.165   0.547 -2.1951 -0.8665  0.2264
  777MOL0     H 4868   6.430   4.106   0.386  0.3012  0.4566 -0.5082
  777MOL0     H 4869   6.705   4.085   0.516  4.5575 -2.0887 -3.0701
  777MOL0     H 4870   6.668   4.011   0.366  1.2233  0.9178  0.8039
  777MOL0     H 4871   6.601   4.245   0.283 -1.1220  0.7725  1.8920
  777MOL0     H 4872   6.768   4.227   0.327  1.0530  1.2807  2.2317
  777MOL0     H 4873   6.547   4.365   0.492 -0.2638 -0.5833  0.5042
  777MOL0     H 4874   6.724   4.361   0.533 -0.6530 -0.2875  1.0371
  777MOL0     H 4875   6.463   3.684   1.065  1.1492  0.5741 -0.2250
  777MOL0     H 4876   6.300   3.792   1.237 -2.2311  1.6933 -0.5690
  777MOL0     H 4877   6.076   3.969   1.401 -2.9730  0.6150  0.1930
  777MOL0     H 4878   5.892   4.018   1.524  0.2676 -0.4075  0.0883
  777MOL0     H 4879   6.927   4.857   2.635 -1.7568 -0.8477  4.3353
  777MOL0     H 4880   7.136   4.872   2.728  1.6816  1.2969 -1.7595
  777MOL0     H 4881   7.432   4.850   3.124 -2.2368 -0.8224 -4.2582
  777MOL0     H 4882   7.648   4.906   3.204  2.4888  0.2986 -1.4905
  777MOL0     H 4883   7.848   4.995   2.965  0.6930 -0.2868 -0.7374
  777MOL0     H 4884   8.014   4.956   3.009 -1.2330  1.7312 -3.0014
  777MOL0     H 4885   7.803   5.087   3.179  0.3773  1.1146 -1.5701
  777MOL0     H 4886   7.954   5.156   3.141  1.3405 -0.8987  1.8463
  777MOL0     H 4887   8.073   4.953   3.238  0.4517 -0.9010  1.0563
  777MOL0     H 4888   7.915   4.934   3.334 -2.1474  3.3664  1.6121
  777MOL0     H 4889   8.044   5.074   3.486 -1.6637  2.9636  1.1379
  777MOL0     H 4890   8.124   5.144   3.338  2.0335  0.8888  4.1071
  777MOL0     H 4891   7.820   5.412   3.403 -1.0684 -0.1614 -2.4733
  777MOL0     H 4892   7.827   4.692   2.886  1.8625  1.6096  1.9128
  777MOL0     H 4893   7.614   4.613   2.672  2.2171 -0.7197  0.6354
  777MOL0     H 4894   7.689   4.515   2.800  0.3714  0.3793  3.8009
  777MOL0     H 4895   7.514   4.514   2.776 -0.2849 -0.1616 -1.4084
  778MOL0     O 4896   6.737   6.475   4.671  0.6148 -0.1890  0.5452
  778MOL0     C 4897   6.669   6.458   4.576  0.3709  0.6896 -0.0943
  778MOL0     O 4898   6.698   6.501   4.454  0.4951 -0.7268 -0.4560
  778MOL0     C 4899   6.831   6.522   4.411  0.2964 -0.4128  0.0031
  778MOL0     C 4900   6.947   6.498   4.486 -1.3110  0.7732  0.0220
  778MOL0     C 4901   7.077   6.524   4.429  0.5125 -0.7731  0.7709
  778MOL0     C 4902   7.087   6.575   4.298  0.1366  0.0761  0.3527
  778MOL0     O 4903   7.197   6.608   4.237 -1.0212 -0.1535 -0.3289
  778MOL0     C 4904   7.330   6.597   4.306 -0.1795  0.3190 -0.0346
  778MOL0     C 4905   7.436   6.678   4.222  0.0564 -0.7542  0.4213
  778MOL0     C 4906   7.547   6.594   4.164 -0.4361  0.0293 -0.2654
  778MOL0     C 4907   7.682   6.590   4.239  0.0333  0.6986 -0.1921
  778MOL0     C 4908   7.791   6.511   4.163 -0.1216  0.8018  0.1043
  778MOL0     C 4909   7.903   6.482   4.255  0.6310  0.3350  0.3949
  778MOL0     C 4910   7.992   6.600   4.293  0.0757  0.2694 -0.6868
  778MOL0     C 4911   8.092   6.583   4.406 -0.2888  0.3069 -0.1401
  778MOL0     N 4912   8.168   6.710   4.422  0.2676 -0.4600  0.1428
  778MOL0     C 4913   8.300   6.748   4.382 -0.1789 -0.2707  1.0329
  778MOL0     C 4914   8.320   6.880   4.413  0.1462 -0.9221 -0.3504
  778MOL0     C 4915   8.437   6.973   4.382 -0.7253  0.0058  0.5437
  778MOL0     C 4916   8.398   7.104   4.322 -0.4206  0.1531 -0.4725
  778MOL0     C 4917   8.364   7.081   4.171 -0.6071 -0.4647 -0.5688
  778MOL0     C 4918   8.255   7.173   4.124 -0.0209 -0.4404  0.3467
  778MOL0     O 4919   8.315   7.294   4.081  0.2956  0.2281 -0.0876
  778MOL0     C 4920   8.242   7.384   4.014 -0.4551  0.2816  0.4951
  778MOL0     C 4921   8.311   7.471   3.928  0.3788  0.3461  0.3018
  778MOL0     C 4922   8.243   7.572   3.849  0.0864  0.7858 -0.0754
  778MOL0     C 4923   8.105   7.562   3.835 -0.5702  0.4380 -0.7153
  778MOL0     C 4924   8.039   7.658   3.743 -0.9810  0.5771  0.5111
  778MOL0     O 4925   8.120   7.713   3.648  0.6338  0.4766 -0.1394
  778MOL0     C 4926   8.069   7.789   3.542  0.5671 -0.2136 -0.3376
  778MOL0     C 4927   8.133   7.907   3.514  0.1541 -0.4700 -0.3212
  778MOL0     C 4928   8.097   7.982   3.400 -0.2864  0.1997 -0.1132
  778MOL0     C 4929   7.996   7.938   3.316 -0.4064 -0.1682 -0.7951
  778MOL0     O 4930   7.975   8.007   3.195 -0.0311 -0.7785  0.1817
  778MOL0     C 4931   7.907   7.934   3.097  0.8373  0.5470  0.5558
  778MOL0     C 4932   7.917   8.019   2.969  0.1070  0.5406 -1.0467
  778MOL0     C 4933   7.879   7.921   2.849  0.4927  0.0255  0.0657
  778MOL0     C 4934   7.844   7.997   2.722  0.5026 -0.3185 -0.3487
  778MOL0     C 4935   7.954   8.085   2.662 -0.1805 -0.3647  0.4476
  778MOL0     C 4936   8.007   8.012   2.532 -0.9129 -0.5394 -0.3519
  778MOL0     C 4937   8.111   8.092   2.458 -0.1319 -0.2159  1.1509
  778MOL0     C 4938   8.178   7.999   2.354 -0.7558 -0.0320 -0.5003
  778MOL0    Cl 4939   8.092   7.970   2.206 -0.3517 -0.2473  0.2940
  778MOL0     C 4940   7.923   7.821   3.357 -0.3249 -0.0086  0.8377
  778MOL0     C 4941   7.963   7.735   3.464  0.1706  0.3809 -0.0811
  778MOL0     O 4942   7.916   7.654   3.736 -0.5117  0.2318  0.0946
  778MOL0     C 4943   8.038   7.470   3.917 -0.0123 -0.2159 -0.4280
  778MOL0     C 4944   8.102   7.387   4.008  0.0449  0.0813 -0.6127
  778MOL0     N 4945   8.200   6.917   4.481  0.1353  1.0830  0.0358
  778MOL0     N 4946   8.109   6.821   4.476  0.4790 -0.1512  0.5159
  778MOL0     C 4947   6.972   6.598   4.224  0.1236 -0.0249  0.0531
  778MOL0     C 4948   6.842   6.571   4.281  0.4424 -0.2944 -0.3521
  778MOL0     C 4949   6.541   6.389   4.587  0.6540  0.4729 -0.3104
  778MOL0     C 4950   6.485   6.363   4.717 -0.7759 -0.8010 -0.5855
  778MOL0     C 4951   6.381   6.282   4.740  0.4802  0.0043  0.7670
  778MOL0     C 4952   6.310   6.234   4.627  0.6384  0.4230 -0.1387
  778MOL0     O 4953   6.194   6.166   4.644  0.8445  0.0744  0.4431
  778MOL0     C 4954   6.073   6.244   4.657  0.0103  0.0486  0.2768
  778MOL0     C 4955   5.954   6.162   4.595 -0.0873 -0.1153 -0.1442
  778MOL0     C 4956   5.812   6.211   4.625  0.2335  0.1505 -0.9089
  778MOL0     C 4957   5.699   6.130   4.571 -0.2589 -0.8257 -0.5376
  778MOL0     C 4958   5.738   6.107   4.434  0.0910 -0.0779 -0.0928
  778MOL0     C 4959   5.751   6.102   4.319  0.7837  0.0749  0.2864
  778MOL0     C 4960   6.349   6.249   4.503  0.4177  0.4117  0.7557
  778MOL0     C 4961   6.468   6.325   4.481  0.2017  0.1341  0.5082
  778MOL0     C 4962   6.522   6.320   4.336  0.1291 -0.4842 -0.6627
  778MOL0     H 4963   6.947   6.453   4.585 -1.2988 -1.5922 -0.9802
  778MOL0     H 4964   7.168   6.498   4.481  0.3994  0.5313  1.6427
  778MOL0     H 4965   7.321   6.660   4.395  1.8479  2.4303 -1.1954
  778MOL0     H 4966   7.362   6.497   4.336 -1.8975 -0.0471  0.7150
  778MOL0     H 4967   7.475   6.757   4.288  1.9260 -0.7417 -0.6135
  778MOL0     H 4968   7.384   6.721   4.136  1.2960 -0.5610 -0.2525
  778MOL0     H 4969   7.572   6.639   4.067 -2.3137  2.4922  0.2725
  778MOL0     H 4970   7.510   6.493   4.142 -0.7886 -0.1209  0.9450
  778MOL0     H 4971   7.706   6.693   4.268  2.3830 -0.5503  2.7502
  778MOL0     H 4972   7.675   6.537   4.334  0.1023  0.6329 -0.2236
  778MOL0     H 4973   7.748   6.412   4.146  2.0924  0.0999 -2.0684
  778MOL0     H 4974   7.823   6.568   4.075  3.7273 -0.2488  0.6499
  778MOL0     H 4975   7.852   6.433   4.339 -2.1596 -0.3593 -1.5634
  778MOL0     H 4976   7.957   6.399   4.208  1.8003  1.2212  0.1275
  778MOL0     H 4977   7.917   6.674   4.324 -0.6357 -0.2716 -1.0660
  778MOL0     H 4978   8.042   6.635   4.202 -0.5874  0.3829 -1.0166
  778MOL0     H 4979   8.038   6.569   4.501 -1.2674  1.7017 -0.4673
  778MOL0     H 4980   8.160   6.498   4.396 -1.7774 -1.0479  0.7608
  778MOL0     H 4981   8.364   6.689   4.318 -2.3430  0.2643 -1.8468
  778MOL0     H 4982   8.511   6.981   4.462  1.2119 -0.6641 -1.0871
  778MOL0     H 4983   8.494   6.915   4.309 -0.8739  0.3705  0.1312
  778MOL0     H 4984   8.317   7.143   4.384 -1.1097 -0.4045 -1.0070
  778MOL0     H 4985   8.480   7.177   4.325 -0.5100  0.4096 -2.7054
  778MOL0     H 4986   8.321   6.981   4.163 -2.1928 -0.4378  4.1420
  778MOL0     H 4987   8.454   7.093   4.110  1.2200  0.5480  2.0969
  778MOL0     H 4988   8.181   7.186   4.204 -1.1379 -0.0740 -0.7171
  778MOL0     H 4989   8.211   7.120   4.039  0.8164  0.4359 -0.6426
  778MOL0     H 4990   8.419   7.473   3.935  0.6197 -1.7520 -1.6668
  778MOL0     H 4991   8.299   7.641   3.787  0.2439  1.1470  0.4681
  778MOL0     H 4992   8.214   7.930   3.583 -0.3542  0.6938 -0.0795
  778MOL0     H 4993   8.154   8.071   3.375  0.9829 -0.8915 -1.2739
  778MOL0     H 4994   7.939   7.830   3.085  1.1808  0.8264 -1.2062
  778MOL0     H 4995   7.800   7.931   3.122  0.9187  2.1282  1.1688
  778MOL0     H 4996   7.843   8.099   2.973 -1.5615 -0.9599  1.0931
  778MOL0     H 4997   8.019   8.053   2.952 -0.4366  3.2855  0.5774
  778MOL0     H 4998   7.953   7.842   2.834  0.4186  0.0729 -0.5847
  778MOL0     H 4999   7.789   7.868   2.880  1.3554 -2.1942 -0.9801
  778MOL0     H 5000   7.757   8.061   2.737 -0.4668 -0.7145 -3.5887
  778MOL0     H 5001   7.802   7.917   2.661 -1.9133 -0.2246  1.0384
  778MOL0     H 5002   8.034   8.118   2.729  1.8375  2.5600 -3.0001
  778MOL0     H 5003   7.910   8.180   2.628 -2.2084 -1.0401  1.0124
  778MOL0     H 5004   8.053   7.919   2.567  3.3115  1.0639 -1.1079
  778MOL0     H 5005   7.921   7.984   2.469 -0.1702  1.0000 -2.1547
  778MOL0     H 5006   8.188   8.126   2.528  1.5955 -1.0348 -0.2822
  778MOL0     H 5007   8.064   8.178   2.410 -2.0587 -1.5217  0.5738
  778MOL0     H 5008   8.276   8.041   2.331 -0.1987 -1.5568 -1.1112
  778MOL0     H 5009   8.204   7.903   2.399 -3.7715 -0.2552  0.9776
  778MOL0     H 5010   7.840   7.784   3.298  1.3965  0.1405 -1.8393
  778MOL0     H 5011   7.930   7.634   3.485  2.6095 -0.3885  0.3145
  778MOL0     H 5012   7.929   7.467   3.916 -0.1231  1.4136  0.9799
  778MOL0     H 5013   8.038   7.326   4.071  0.7311  1.8902  2.0063
  778MOL0     H 5014   6.974   6.647   4.127 -1.4447  0.8105  0.4143
  778MOL0     H 5015   6.741   6.580   4.243 -0.7710 -0.5882  2.5134
  778MOL0     H 5016   6.542   6.408   4.797 -0.5187 -0.2612 -1.0576
  778MOL0     H 5017   6.338   6.259   4.837  0.3869 -0.3810  0.6355
  778MOL0     H 5018   6.076   6.347   4.620  0.8128  0.6763  1.9927
  778MOL0     H 5019   6.056   6.257   4.764  1.1980  0.3747  0.4377
  778MOL0     H 5020   5.960   6.055   4.617  0.2172  0.0433  0.5556
  778MOL0     H 5021   5.966   6.180   4.487 -2.5919  1.9811 -0.1875
  778MOL0     H 5022   5.804   6.312   4.583 -1.3610  0.1608 -0.6401
  778MOL0     H 5023   5.808   6.222   4.734 -4.4281  1.3962 -0.9900
  778MOL0     H 5024   5.683   6.034   4.621  2.5455 -0.7575  0.6584
  778MOL0     H 5025   5.606   6.187   4.561  1.9487  2.9810 -1.2502
  778MOL0     H 5026   5.758   6.107   4.212 -0.3212  3.8139  0.2693
  778MOL0     H 5027   6.286   6.220   4.419 -2.0396  0.6210  2.4195
  778MOL0     H 5028   6.487   6.223   4.299  1.0762 -0.1074 -2.6667
  778MOL0     H 5029   6.475   6.391   4.268 -0.2528 -0.4859 -0.4066
  778MOL0     H 5030   6.631   6.322   4.329  0.1863  1.2050  0.1903
  779MOL0     O 5031   0.625   7.859   4.707  0.0339 -0.4354 -0.6679
  779MOL0     C 5032   0.561   7.871   4.810 -0.0033 -0.0570  0.1926
  779MOL0     O 5033   0.526   7.770   4.900  0.6184  0.0812  0.9476
  779MOL0     C 5034   0.545   7.648   4.847 -0.4965 -0.2936 -0.3129
  779MOL0     C 5035   0.633   7.559   4.919  0.0159 -0.1200  0.0567
  779MOL0     C 5036   0.656   7.431   4.868 -0.8000 -0.5170 -0.6382
  779MOL0     C 5037   0.604   7.392   4.742  0.3590  0.4984  0.1966
  779MOL0     O 5038   0.636   7.269   4.681 -0.1276  0.1033  0.2916
  779MOL0     C 5039   0.647   7.146   4.758 -0.0331 -0.2320 -0.2017
  779MOL0     C 5040   0.746   7.061   4.678  1.1525  0.0931 -0.6920
  779MOL0     C 5041   0.781   6.925   4.748 -0.7013 -0.3823 -0.7269
  779MOL0     C 5042   0.905   6.857   4.695 -0.8757  0.0263  0.2216
  779MOL0     C 5043   0.944   6.734   4.766  0.0553  1.0899 -0.1112
  779MOL0     C 5044   0.842   6.616   4.734 -0.0433  0.2964  0.4617
  779MOL0     C 5045   0.880   6.493   4.818  0.2349 -0.0443 -0.4873
  779MOL0     C 5046   0.867   6.524   4.970  1.2844  0.7228 -0.4428
  779MOL0     N 5047   0.723   6.541   5.014 -0.3934 -1.2084 -0.4010
  779MOL0     C 5048   0.652   6.664   5.018 -0.2146  1.3197  0.5671
  779MOL0     C 5049   0.538   6.631   5.089 -1.6582 -0.2033 -0.6902
  779MOL0     C 5050   0.451   6.735   5.147 -1.0417  0.0159  0.1246
  779MOL0     C 5051   0.330   6.752   5.060  0.7440 -0.1007  0.2969
  779MOL0     C 5052   0.363   6.827   4.929 -0.1128 -0.3289 -0.3154
  779MOL0     C 5053   0.326   6.976   4.914  0.1849  0.1768  0.8025
  779MOL0     O 5054   0.379   7.044   5.026 -0.8647  0.4204  0.3379
  779MOL0     C 5055   0.328   7.172   5.051  0.1399 -0.4885  0.0330
  779MOL0     C 5056   0.297   7.256   4.954 -0.0717 -1.6828  0.0638
  779MOL0     C 5057   0.272   7.389   4.980 -0.4962 -0.8349 -0.2706
  779MOL0     C 5058   0.263   7.443   5.110  0.4210 -0.5826  0.1303
  779MOL0     C 5059   0.242   7.587   5.131 -0.3595 -0.9574 -0.9692
  779MOL0     O 5060   0.270   7.634   5.249  0.5220  0.6507  0.7300
  779MOL0     C 5061   0.273   7.767   5.277  0.3289  0.2204 -0.1603
  779MOL0     C 5062   0.157   7.831   5.314 -0.1177  0.6214 -0.5163
  779MOL0     C 5063   0.157   7.957   5.373 -0.4562 -0.8678 -0.1448
  779MOL0     C 5064   0.273   8.036   5.377 -0.0768  0.7176 -1.1748
  779MOL0     O 5065   0.255   8.159   5.432 -0.2232 -1.0127  0.7119
  779MOL0     C 5066   0.376   8.240   5.438 -0.9035  0.6142 -0.3190
  779MOL0     C 5067   0.334   8.373   5.497  0.4059 -0.1952 -0.2554
  779MOL0     C 5068   0.414   8.494   5.439  1.0457  0.3761 -1.0034
  779MOL0     C 5069   0.326   8.628   5.468 -0.0384  0.9269  0.2138
  779MOL0     C 5070   0.375   8.753   5.398  0.1456 -0.2778  0.0594
  779MOL0     C 5071   0.268   8.864   5.390 -0.5054 -0.1967 -0.0218
  779MOL0     C 5072   0.215   8.896   5.533 -0.6116 -0.5163 -0.9173
  779MOL0     C 5073   0.111   9.001   5.521 -0.1707  0.7252 -0.0928
  779MOL0    Cl 5074   0.044   9.061   5.677  0.3114 -0.2156 -0.0794
  779MOL0     C 5075   0.387   7.971   5.332  0.6083 -0.4152  0.4130
  779MOL0     C 5076   0.388   7.836   5.288  0.3203  0.0483  0.0946
  779MOL0     O 5077   0.191   7.649   5.044  0.2804 -0.2433 -0.0776
  779MOL0     C 5078   0.277   7.349   5.211  0.5736  1.0502 -0.8735
  779MOL0     C 5079   0.313   7.213   5.182 -0.2547  0.1115 -0.2992
  779MOL0     N 5080   0.539   6.494   5.125 -0.1512 -0.1735  0.9893
  779MOL0     N 5081   0.647   6.439   5.082  0.7450 -0.0411  0.0644
  779MOL0     C 5082   0.528   7.482   4.672  0.0466 -0.0497 -0.2622
  779MOL0     C 5083   0.501   7.604   4.725  0.5139  0.2619  0.6185
  779MOL0     C 5084   0.503   8.006   4.840 -0.4225 -0.8490  0.7252
  779MOL0     C 5085   0.410   8.019   4.946  0.2544  0.2935  0.1349
  779MOL0     C 5086   0.358   8.141   4.986  0.2902  0.5675 -1.2270
  779MOL0     C 5087   0.411   8.262   4.942  0.3868  0.3505 -1.0528
  779MOL0     O 5088   0.390   8.389   4.984  0.8733  0.0413 -0.7108
  779MOL0     C 5089   0.261   8.409   5.042  1.2981  0.1532 -0.3558
  779MOL0     C 5090   0.226   8.553   5.036  0.0035  0.6146  0.4192
  779MOL0     C 5091   0.093   8.583   5.096 -0.2999  0.1165 -0.2959
  779MOL0     C 5092  -0.001   8.616   4.978 -0.1346  0.0533  0.2707
  779MOL0     C 5093  -0.141   8.593   5.028  0.4261 -0.4388 -0.3164
  779MOL0     C 5094  -0.253   8.568   5.072 -0.2115  0.2547  0.0118
  779MOL0     C 5095   0.501   8.254   4.838  0.4112 -0.0428  0.5493
  779MOL0     C 5096   0.552   8.133   4.782  0.1423  1.3185  1.4410
  779MOL0     C 5097   0.646   8.134   4.668 -0.1908 -0.3936  0.8039
  779MOL0     H 5098   0.685   7.590   5.009  1.2408  0.5709 -0.8590
  779MOL0     H 5099   0.726   7.371   4.925  0.6665  1.9537  0.3369
  779MOL0     H 5100   0.695   7.146   4.856 -3.4242  0.2465  1.6014
  779MOL0     H 5101   0.547   7.106   4.778  0.0305 -0.8833 -1.1300
  779MOL0     H 5102   0.830   7.129   4.657  0.8266  1.3485  1.7638
  779MOL0     H 5103   0.702   7.038   4.581  1.6630  0.5190 -1.0326
  779MOL0     H 5104   0.700   6.852   4.750 -1.0890  0.0305  1.4376
  779MOL0     H 5105   0.793   6.957   4.852 -0.4450 -0.8737 -0.6040
  779MOL0     H 5106   0.891   6.828   4.591 -0.0875 -0.7942  0.3343
  779MOL0     H 5107   0.985   6.930   4.708  2.0129 -2.6851 -1.1513
  779MOL0     H 5108   1.041   6.693   4.737 -0.4022 -4.2636  4.0991
  779MOL0     H 5109   0.940   6.748   4.875  0.2869 -0.4611  0.1309
  779MOL0     H 5110   0.743   6.650   4.764  0.3870  0.2670  2.0055
  779MOL0     H 5111   0.851   6.585   4.629  0.8192 -2.7833  1.3516
  779MOL0     H 5112   0.983   6.466   4.790  0.9134  0.0686  1.7319
  779MOL0     H 5113   0.808   6.417   4.785 -0.2704  0.7822 -1.3333
  779MOL0     H 5114   0.901   6.432   5.018 -1.2525 -0.1863 -0.2115
  779MOL0     H 5115   0.935   6.598   5.013  1.3840 -0.8466  2.3643
  779MOL0     H 5116   0.690   6.758   4.980  2.2154  0.4717  0.6971
  779MOL0     H 5117   0.419   6.701   5.246 -1.8385 -0.2087 -0.2039
  779MOL0     H 5118   0.504   6.830   5.160  3.5102 -2.4579  1.5003
  779MOL0     H 5119   0.287   6.654   5.038 -0.2536 -0.3071  2.8936
  779MOL0     H 5120   0.245   6.798   5.111 -0.4316  0.8222 -2.3151
  779MOL0     H 5121   0.326   6.765   4.846 -0.6533 -1.7844  0.9689
  779MOL0     H 5122   0.472   6.822   4.913 -0.0456  2.5833 -1.4717
  779MOL0     H 5123   0.218   6.981   4.898  0.1269 -0.2991  1.0228
  779MOL0     H 5124   0.359   7.006   4.813  1.0894 -3.9507 -0.3185
  779MOL0     H 5125   0.317   7.233   4.850  1.1060  1.7827 -0.5838
  779MOL0     H 5126   0.256   7.453   4.893 -3.1650  3.3444  2.8612
  779MOL0     H 5127   0.064   7.777   5.311  1.3458 -2.2380  1.0810
  779MOL0     H 5128   0.066   8.003   5.410  0.6829  1.0598  0.3976
  779MOL0     H 5129   0.448   8.189   5.503  2.3770  1.2327 -3.1893
  779MOL0     H 5130   0.418   8.257   5.339 -0.6867  0.4269 -0.2606
  779MOL0     H 5131   0.229   8.393   5.474  0.6433  0.2347 -0.9954
  779MOL0     H 5132   0.338   8.365   5.606 -1.6015 -4.4597 -0.2792
  779MOL0     H 5133   0.515   8.507   5.481 -0.1030 -0.0318  2.1744
  779MOL0     H 5134   0.422   8.471   5.333  2.8679  0.1876 -0.8549
  779MOL0     H 5135   0.331   8.645   5.576  2.5099 -0.3215  0.3529
  779MOL0     H 5136   0.225   8.614   5.427  0.2845 -0.5353 -0.1369
  779MOL0     H 5137   0.392   8.725   5.294 -0.5312  1.6628 -0.6129
  779MOL0     H 5138   0.468   8.788   5.445  1.5555 -1.3121 -1.7966
  779MOL0     H 5139   0.320   8.955   5.358  1.8175 -1.9486 -1.4818
  779MOL0     H 5140   0.188   8.848   5.317 -1.9578  0.0969  1.4373
  779MOL0     H 5141   0.294   8.938   5.596  0.4148  1.3734 -3.2977
  779MOL0     H 5142   0.162   8.813   5.580  0.8105 -0.3072  1.2211
  779MOL0     H 5143   0.144   9.086   5.460  0.8309  0.2985 -0.1739
  779MOL0     H 5144   0.028   8.952   5.468 -1.0260  1.2125  0.7802
  779MOL0     H 5145   0.482   8.023   5.339  0.4891 -0.1646  0.2204
  779MOL0     H 5146   0.479   7.786   5.259 -0.5762 -1.5910  0.0213
  779MOL0     H 5147   0.263   7.371   5.316  0.4640  0.2315 -0.7084
  779MOL0     H 5148   0.344   7.151   5.265 -1.2476 -0.2001 -0.1527
  779MOL0     H 5149   0.480   7.443   4.583  0.0944 -2.3558  0.6377
  779MOL0     H 5150   0.446   7.680   4.671 -0.7308  0.1974  1.7328
  779MOL0     H 5151   0.372   7.928   4.991 -0.4184 -0.9436 -2.7158
  779MOL0     H 5152   0.288   8.140   5.069  0.5672 -0.8711 -1.0000
  779MOL0     H 5153   0.266   8.379   5.147  0.8023  1.6951  0.1422
  779MOL0     H 5154   0.176   8.354   5.001 -0.1567  2.2845 -0.3898
  779MOL0     H 5155   0.224   8.591   4.933 -0.6014 -2.6844 -0.9185
  779MOL0     H 5156   0.304   8.617   5.077  0.4733  2.4849 -2.9785
  779MOL0     H 5157   0.111   8.669   5.161  0.5809 -1.6784  1.9544
  779MOL0     H 5158   0.064   8.503   5.165  1.6351 -0.3070  0.0711
  779MOL0     H 5159   0.009   8.718   4.941  2.4980  0.0468  0.8237
  779MOL0     H 5160   0.005   8.540   4.900  2.4093  0.5647 -0.0899
  779MOL0     H 5161  -0.347   8.532   5.110  0.1874 -1.7104 -0.7268
  779MOL0     H 5162   0.547   8.344   4.800 -1.3956  1.0174  0.7329
  779MOL0     H 5163   0.748   8.115   4.701  0.7573 -1.6099 -2.4104
  779MOL0     H 5164   0.618   8.070   4.584 -0.5874 -0.9014  1.3159
  779MOL0     H 5165   0.645   8.237   4.632 -0.7063  0.0480  2.0207
  780MOL0     O 5166   0.485   5.300   6.474  0.1526 -0.4523 -0.0942
  780MOL0     C 5167   0.539   5.411   6.463  1.0300  0.7429 -0.2932
  780MOL0     O 5168   0.630   5.460   6.549 -0.1063 -0.3763  0.2964
  780MOL0     C 5169   0.647   5.414   6.679 -0.6133 -0.2163  0.9146
  780MOL0     C 5170   0.678   5.511   6.771 -0.9010 -0.0584  1.0817
  780MOL0     C 5171   0.693   5.486   6.908  0.7729  0.0176 -0.1091
  780MOL0     C 5172   0.669   5.360   6.959  0.6897 -0.6473  0.8397
  780MOL0     O 5173   0.670   5.340   7.097 -0.2264  0.2739  0.1231
  780MOL0     C 5174   0.712   5.218   7.162  0.2315 -0.5234  0.1623
  780MOL0     C 5175   0.852   5.197   7.131  0.8443  0.1001  0.1891
  780MOL0     C 5176   0.902   5.053   7.157 -0.2976  0.1263  0.2460
  780MOL0     C 5177   0.842   4.957   7.056 -0.5870  0.9699  0.8868
  780MOL0     C 5178   0.875   4.803   7.069 -0.1821 -0.5769 -0.3489
  780MOL0     C 5179   1.017   4.768   7.035  0.3384  0.2437  0.1920
  780MOL0     C 5180   1.054   4.623   7.022  0.3890 -0.4639  0.5657
  780MOL0     C 5181   1.015   4.532   7.141 -0.2484 -1.0848 -0.1535
  780MOL0     N 5182   1.095   4.566   7.251 -0.3246  0.2876 -0.0513
  780MOL0     C 5183   1.065   4.664   7.340  0.6554 -0.3004 -0.1815
  780MOL0     C 5184   1.154   4.642   7.442 -0.5124  0.3440  0.9955
  780MOL0     C 5185   1.153   4.729   7.566 -0.2900 -0.9836 -0.4081
  780MOL0     C 5186   1.295   4.754   7.628 -0.5548  0.5489 -0.2554
  780MOL0     C 5187   1.346   4.642   7.718  0.8238  0.4825  0.6485
  780MOL0     C 5188   1.469   4.686   7.804  0.3187 -0.3267  0.8809
  780MOL0     O 5189   1.538   4.570   7.860 -0.1299  0.1550 -0.1998
  780MOL0     C 5190   1.585   4.572   7.987  0.2121  0.7329  0.1167
  780MOL0     C 5191   1.605   4.693   8.060  0.8435  0.4877  0.0220
  780MOL0     C 5192   1.634   4.680   8.201  0.1740  0.1328 -0.0752
  780MOL0     C 5193   1.648   4.553   8.266 -0.3098  0.5898  0.8642
  780MOL0     C 5194   1.687   4.537   8.404 -0.5951  0.6375 -0.0132
  780MOL0     O 5195   1.671   4.640   8.494 -0.6152 -0.0051  0.1333
  780MOL0     C 5196   1.616   4.609   8.613  0.2579  0.3983 -1.0929
  780MOL0     C 5197   1.488   4.659   8.645  0.8613 -0.0111 -0.9027
  780MOL0     C 5198   1.429   4.622   8.765 -0.1473 -0.1123 -0.0093
  780MOL0     C 5199   1.488   4.533   8.856  0.2445 -0.5484 -1.1475
  780MOL0     O 5200   1.427   4.494   8.975  0.8483 -0.0779  0.4443
  780MOL0     C 5201   1.407   4.595   9.078  0.6860  0.6564 -0.2145
  780MOL0     C 5202   1.515   4.575   9.175 -0.1026  0.1906 -0.8561
  780MOL0     C 5203   1.652   4.646   9.131 -0.4893 -0.2822  0.3195
  780MOL0     C 5204   1.781   4.608   9.213  0.0017  0.5053  0.2617
  780MOL0     C 5205   1.881   4.725   9.170  0.2710  0.0056 -0.5327
  780MOL0     C 5206   2.032   4.698   9.215 -0.3347 -0.4653  0.2245
  780MOL0     C 5207   2.066   4.720   9.368 -1.0669  0.0312 -0.7949
  780MOL0     C 5208   2.045   4.872   9.417 -0.6919  0.4670  0.0056
  780MOL0    Cl 5209   2.130   4.901   9.575 -0.4295  0.1618 -0.0238
  780MOL0     C 5210   1.616   4.486   8.815 -0.0504 -0.5495 -0.2106
  780MOL0     C 5211   1.681   4.524   8.705  0.1899  0.2273  1.4002
  780MOL0     O 5212   1.730   4.430   8.436 -0.5666  0.5624  0.2670
  780MOL0     C 5213   1.641   4.443   8.179  0.4337 -0.5414 -0.5190
  780MOL0     C 5214   1.602   4.453   8.046 -0.4583 -0.0733 -1.9436
  780MOL0     N 5215   1.237   4.531   7.412 -0.3629 -0.7419 -0.2184
  780MOL0     N 5216   1.197   4.489   7.293  0.0724  0.5221 -0.9806
  780MOL0     C 5217   0.633   5.259   6.863 -0.8027  1.0195  0.1228
  780MOL0     C 5218   0.624   5.278   6.730 -1.0804 -0.4516  0.9039
  780MOL0     C 5219   0.494   5.483   6.339 -0.3681 -0.0278  0.0072
  780MOL0     C 5220   0.408   5.415   6.252  0.0167 -0.1998  0.5398
  780MOL0     C 5221   0.361   5.484   6.140  0.4340  0.2038  0.6125
  780MOL0     C 5222   0.411   5.608   6.095 -0.2402  0.3491 -0.0084
  780MOL0     O 5223   0.379   5.642   5.965 -0.6381 -0.4554 -0.3763
  780MOL0     C 5224   0.429   5.767   5.917 -0.0708 -0.2102 -0.7562
  780MOL0     C 5225   0.397   5.777   5.771  0.2207 -0.7154 -0.0942
  780MOL0     C 5226   0.418   5.920   5.733 -0.6088 -0.6003  0.3854
  780MOL0     C 5227   0.370   5.961   5.590  0.1234 -0.2808  1.1303
  780MOL0     C 5228   0.431   5.885   5.485 -0.0354 -0.7764 -0.4184
  780MOL0     C 5229   0.489   5.829   5.404 -1.3068 -0.4277  0.0127
  780MOL0     C 5230   0.499   5.678   6.187  0.7381 -0.1184  0.8577
  780MOL0     C 5231   0.537   5.616   6.309 -0.3568  0.5497  0.2713
  780MOL0     C 5232   0.638   5.694   6.392  0.3687  1.3923 -0.5175
  780MOL0     H 5233   0.687   5.615   6.740  0.4624 -0.8544 -1.5296
  780MOL0     H 5234   0.705   5.571   6.975  1.3289  1.5935 -2.1189
  780MOL0     H 5235   0.717   5.235   7.270  2.1457  1.6209 -0.1757
  780MOL0     H 5236   0.642   5.137   7.140  1.7218 -1.8071  0.0360
  780MOL0     H 5237   0.914   5.277   7.174 -0.6234  3.8081 -3.8604
  780MOL0     H 5238   0.870   5.214   7.024 -1.0317 -0.7210 -0.2854
  780MOL0     H 5239   0.896   5.029   7.264  2.9341 -0.7679  0.3247
  780MOL0     H 5240   1.009   5.055   7.135 -0.5246  0.3465 -0.8971
  780MOL0     H 5241   0.733   4.956   7.072 -0.6070 -1.2385  0.8609
  780MOL0     H 5242   0.863   4.997   6.956 -2.1258  2.6507  1.1573
  780MOL0     H 5243   0.836   4.764   7.163 -1.2822  0.7361 -0.2282
  780MOL0     H 5244   0.813   4.744   7.002 -1.9322  0.6935  0.0785
  780MOL0     H 5245   1.028   4.817   6.938  0.1706 -0.4316 -0.1784
  780MOL0     H 5246   1.084   4.826   7.099  1.3158  0.6250 -1.1371
  780MOL0     H 5247   1.162   4.613   7.007  0.3859 -0.9860  0.8696
  780MOL0     H 5248   0.995   4.577   6.943  0.3820 -0.0810  0.3481
  780MOL0     H 5249   0.908   4.542   7.163  0.1498 -1.0337  1.9887
  780MOL0     H 5250   1.023   4.428   7.107  1.9467 -0.9699 -0.1165
  780MOL0     H 5251   0.993   4.744   7.323 -0.8766 -1.2862  1.3966
  780MOL0     H 5252   1.117   4.829   7.539 -0.7698 -1.2636 -0.8335
  780MOL0     H 5253   1.081   4.692   7.640 -1.7699  1.4176 -0.5089
  780MOL0     H 5254   1.366   4.775   7.547 -0.2789  1.0579  0.1123
  780MOL0     H 5255   1.294   4.839   7.697 -2.0325 -0.7232  1.3958
  780MOL0     H 5256   1.385   4.565   7.651  1.7280  2.2115 -0.9002
  780MOL0     H 5257   1.268   4.603   7.784 -0.3297  0.4862 -0.6818
  780MOL0     H 5258   1.433   4.744   7.890 -2.4076 -3.1399  1.8137
  780MOL0     H 5259   1.551   4.735   7.749 -1.9445  0.9473 -1.5609
  780MOL0     H 5260   1.603   4.794   8.022 -2.5643  0.2769 -0.6920
  780MOL0     H 5261   1.651   4.772   8.257 -0.3036 -0.1328  0.5229
  780MOL0     H 5262   1.466   4.736   8.572  2.2074 -0.0994 -1.4346
  780MOL0     H 5263   1.329   4.665   8.772 -1.3748 -2.9346  1.2467
  780MOL0     H 5264   1.418   4.697   9.039 -3.5241  1.3359 -0.2020
  780MOL0     H 5265   1.312   4.582   9.131  1.2188 -2.2122  0.1798
  780MOL0     H 5266   1.480   4.628   9.264  4.4394  0.6436  0.9813
  780MOL0     H 5267   1.535   4.471   9.202  4.4062  1.0844  0.0908
  780MOL0     H 5268   1.665   4.623   9.025  2.3537 -0.2789  0.6005
  780MOL0     H 5269   1.646   4.755   9.120 -0.5213 -0.5106 -3.1231
  780MOL0     H 5270   1.811   4.506   9.187 -0.6627 -0.4733  2.9819
  780MOL0     H 5271   1.761   4.607   9.320 -1.0826  2.7933  0.1373
  780MOL0     H 5272   1.843   4.814   9.222 -0.8648 -2.7011  3.7640
  780MOL0     H 5273   1.872   4.726   9.061 -2.4582 -0.0231 -0.3533
  780MOL0     H 5274   2.061   4.597   9.185  0.9445  0.0522 -0.3893
  780MOL0     H 5275   2.085   4.783   9.171 -1.9381  0.6784  0.4303
  780MOL0     H 5276   2.171   4.703   9.393 -1.0804  1.5936  0.5193
  780MOL0     H 5277   1.999   4.658   9.429  3.0052 -2.2060  1.8930
  780MOL0     H 5278   2.077   4.950   9.348  2.0270  0.6422  1.3406
  780MOL0     H 5279   1.938   4.893   9.426 -0.1084  3.4334  1.2731
  780MOL0     H 5280   1.658   4.420   8.891  1.1401 -0.5380 -0.8355
  780MOL0     H 5281   1.779   4.485   8.679 -0.5120  0.4315 -1.9845
  780MOL0     H 5282   1.659   4.344   8.219  1.1763 -1.4878 -2.9638
  780MOL0     H 5283   1.584   4.362   7.989 -0.2816 -0.7777 -0.9220
  780MOL0     H 5284   0.618   5.155   6.891 -1.4649  0.6294 -1.5480
  780MOL0     H 5285   0.606   5.191   6.667 -0.7038  0.4864 -0.5468
  780MOL0     H 5286   0.367   5.317   6.272  0.6442 -0.5123  0.3099
  780MOL0     H 5287   0.282   5.444   6.077  0.1590  1.3766  0.1885
  780MOL0     H 5288   0.537   5.773   5.933 -0.0774 -0.4819 -0.5922
  780MOL0     H 5289   0.387   5.848   5.977 -1.2853 -0.4010 -1.3370
  780MOL0     H 5290   0.292   5.747   5.757  0.2048  0.2183 -2.4816
  780MOL0     H 5291   0.457   5.712   5.706  0.6743 -2.0527  1.5814
  780MOL0     H 5292   0.526   5.935   5.735 -0.3009 -2.3276 -0.6477
  780MOL0     H 5293   0.368   5.996   5.794  1.2887  1.9776 -1.0940
  780MOL0     H 5294   0.262   5.945   5.592 -0.2657  1.9664  0.6758
  780MOL0     H 5295   0.380   6.068   5.572 -1.2595 -0.3503 -0.2875
  780MOL0     H 5296   0.531   5.777   5.321  0.5609 -0.0319  0.6648
  780MOL0     H 5297   0.544   5.768   6.148 -2.5826  0.1721 -3.0383
  780MOL0     H 5298   0.627   5.798   6.361 -3.1233  1.1863 -0.3343
  780MOL0     H 5299   0.610   5.686   6.497  1.9602 -4.8081 -0.1572
  780MOL0     H 5300   0.739   5.653   6.390 -0.5148 -1.4380  3.1561
  781MOL0     O 5301   0.178   6.199   1.938  0.0619 -0.7413 -0.3385
  781MOL0     C 5302   0.155   6.306   2.007 -0.7331  0.1044 -0.4539
  781MOL0     O 5303   0.175   6.326   2.141  0.2518 -0.9142 -0.1349
  781MOL0     C 5304   0.250   6.242   2.216 -0.4426  0.2126  1.7655
  781MOL0     C 5305   0.359   6.167   2.166 -0.0620 -0.1678 -0.8226
  781MOL0     C 5306   0.443   6.092   2.246 -0.8255 -0.1204 -0.6342
  781MOL0     C 5307   0.417   6.085   2.381  0.4602  0.0410 -0.9377
  781MOL0     O 5308   0.487   5.992   2.455  0.0235  0.1190  0.6472
  781MOL0     C 5309   0.527   6.008   2.588 -0.2299 -0.0162 -1.0686
  781MOL0     C 5310   0.675   5.977   2.614  0.0259  0.3217 -0.0083
  781MOL0     C 5311   0.691   5.819   2.582 -0.1294 -0.0963  0.4431
  781MOL0     C 5312   0.833   5.766   2.617 -0.7429 -0.5295 -0.2999
  781MOL0     C 5313   0.863   5.620   2.577  0.3787  0.0351 -0.3404
  781MOL0     C 5314   0.759   5.519   2.623  0.4168 -0.3471  0.3699
  781MOL0     C 5315   0.830   5.392   2.625 -0.8515  0.7807  0.7611
  781MOL0     C 5316   0.747   5.264   2.663 -0.6966 -0.7323  0.3360
  781MOL0     N 5317   0.623   5.247   2.583 -0.4001 -0.5025  0.5151
  781MOL0     C 5318   0.494   5.279   2.622  0.3685  1.2142  0.7816
  781MOL0     C 5319   0.414   5.240   2.517 -0.6672 -0.4618  0.4225
  781MOL0     C 5320   0.275   5.257   2.490  1.1649 -0.2519 -0.3474
  781MOL0     C 5321   0.178   5.269   2.612 -0.0339  0.0756  0.6162
  781MOL0     C 5322   0.060   5.364   2.573  0.1526 -0.5365  0.8492
  781MOL0     C 5323  -0.032   5.304   2.459 -0.6250 -1.5319 -1.1531
  781MOL0     O 5324  -0.086   5.195   2.527 -0.5839  0.3191  1.2794
  781MOL0     C 5325  -0.218   5.156   2.504  0.0400  0.2561  0.8074
  781MOL0     C 5326  -0.328   5.243   2.519  0.0396  0.4096  0.0537
  781MOL0     C 5327  -0.457   5.207   2.473 -0.0472 -1.0303  0.9936
  781MOL0     C 5328  -0.475   5.083   2.398  0.6225  0.1654 -0.3243
  781MOL0     C 5329  -0.612   5.049   2.344 -0.7802 -0.2737  0.1810
  781MOL0     O 5330  -0.695   5.152   2.326  0.1240  0.6250 -0.2674
  781MOL0     C 5331  -0.806   5.123   2.250  0.2126  0.1059  0.2479
  781MOL0     C 5332  -0.916   5.042   2.291  0.3966  0.4188  0.4912
  781MOL0     C 5333  -1.023   5.036   2.200  0.0661 -0.1880 -0.4720
  781MOL0     C 5334  -1.031   5.122   2.081 -0.1855  0.0730 -0.9179
  781MOL0     O 5335  -1.144   5.117   2.005  0.4692  0.0566 -0.6024
  781MOL0     C 5336  -1.154   5.193   1.882 -0.4416 -0.4243  0.0294
  781MOL0     C 5337  -1.294   5.188   1.825 -0.0718  0.1960 -0.0597
  781MOL0     C 5338  -1.311   5.240   1.688 -1.8442  0.0060  0.8384
  781MOL0     C 5339  -1.449   5.194   1.626  0.2800  0.0684  0.1392
  781MOL0     C 5340  -1.461   5.042   1.601 -0.4484 -0.1212  0.0762
  781MOL0     C 5341  -1.582   5.020   1.515  0.1238 -0.4876  0.8948
  781MOL0     C 5342  -1.577   4.887   1.435 -0.4559 -0.3796  0.6029
  781MOL0     C 5343  -1.640   4.897   1.306 -0.4604  0.4840  0.1458
  781MOL0    Cl 5344  -1.821   4.930   1.341  0.3047 -0.0491  0.4357
  781MOL0     C 5345  -0.919   5.193   2.047  0.4114  0.2633 -0.2731
  781MOL0     C 5346  -0.808   5.189   2.127  0.4682  1.1404 -0.1696
  781MOL0     O 5347  -0.635   4.931   2.316  0.2946  0.4980 -1.0018
  781MOL0     C 5348  -0.365   5.000   2.390 -0.3473  0.3550  0.1342
  781MOL0     C 5349  -0.239   5.031   2.446 -0.1414  1.0175 -0.3872
  781MOL0     N 5350   0.496   5.167   2.431  0.3753 -0.1648 -0.0916
  781MOL0     N 5351   0.620   5.174   2.474 -0.0943 -0.1666 -0.8359
  781MOL0     C 5352   0.309   6.149   2.432  1.0540 -0.0071 -0.5173
  781MOL0     C 5353   0.224   6.228   2.349  0.3650  0.7779  0.5918
  781MOL0     C 5354   0.092   6.424   1.941  0.6528  0.3486 -0.0206
  781MOL0     C 5355   0.017   6.511   2.027  0.4673 -0.1368 -0.3300
  781MOL0     C 5356  -0.031   6.645   1.980  0.4839  0.0989  0.1021
  781MOL0     C 5357  -0.021   6.678   1.840  0.3541  0.3263 -0.3813
  781MOL0     O 5358  -0.078   6.799   1.794  0.2254 -0.2294 -0.2051
  781MOL0     C 5359  -0.137   6.801   1.666  1.2594 -0.3147 -0.5599
  781MOL0     C 5360  -0.244   6.910   1.641 -0.0286 -0.6572  0.1152
  781MOL0     C 5361  -0.186   7.048   1.603  0.3806  0.2273 -0.7300
  781MOL0     C 5362  -0.204   7.082   1.453 -0.5449 -0.1709 -0.1523
  781MOL0     C 5363  -0.161   6.989   1.350  0.0308  0.8895 -0.3201
  781MOL0     C 5364  -0.110   6.928   1.261 -0.2410 -0.4451 -0.2966
  781MOL0     C 5365   0.047   6.580   1.761 -0.0605 -0.1465 -0.0862
  781MOL0     C 5366   0.106   6.458   1.799  0.0250  0.1599 -1.3036
  781MOL0     C 5367   0.201   6.396   1.703  0.9796 -0.2131 -0.5412
  781MOL0     H 5368   0.384   6.175   2.060 -0.6611 -2.2666 -1.1649
  781MOL0     H 5369   0.537   6.059   2.203 -0.1719  0.5127  0.2734
  781MOL0     H 5370   0.507   6.106   2.630 -2.9710  0.1924 -2.6194
  781MOL0     H 5371   0.465   5.951   2.658 -0.6759  2.1844  0.4123
  781MOL0     H 5372   0.713   6.020   2.707  4.6816  3.4721 -2.8918
  781MOL0     H 5373   0.726   6.037   2.538  0.4454 -0.5670 -0.4390
  781MOL0     H 5374   0.670   5.814   2.475 -1.8879  1.2600  0.6778
  781MOL0     H 5375   0.610   5.769   2.637 -1.6965 -0.2485 -1.8815
  781MOL0     H 5376   0.902   5.832   2.563  1.5914 -1.0746  1.8266
  781MOL0     H 5377   0.850   5.786   2.723  2.9292  0.9815 -1.0030
  781MOL0     H 5378   0.861   5.613   2.468 -4.4115 -1.4168 -0.4222
  781MOL0     H 5379   0.963   5.602   2.617  0.0630 -1.9766 -0.3852
  781MOL0     H 5380   0.730   5.545   2.726 -0.3019 -0.5933  0.2367
  781MOL0     H 5381   0.672   5.529   2.557 -2.8695 -0.7801  4.2512
  781MOL0     H 5382   0.918   5.402   2.689  0.2121 -1.1284 -0.3217
  781MOL0     H 5383   0.869   5.373   2.524  0.2428 -1.5844  1.5584
  781MOL0     H 5384   0.815   5.179   2.655  1.0421  0.7427 -1.9394
  781MOL0     H 5385   0.705   5.282   2.762  3.9113  2.6422  2.0194
  781MOL0     H 5386   0.457   5.341   2.703 -1.4234  2.6372 -1.0149
  781MOL0     H 5387   0.259   5.335   2.416 -0.4929 -0.7979 -0.6014
  781MOL0     H 5388   0.248   5.171   2.428  3.0293 -1.7509  0.7814
  781MOL0     H 5389   0.140   5.169   2.634 -1.1148  0.6030  1.1937
  781MOL0     H 5390   0.240   5.299   2.697  2.5203  3.4340 -2.1151
  781MOL0     H 5391   0.107   5.453   2.531  0.9963 -2.9486 -4.0760
  781MOL0     H 5392   0.010   5.388   2.668  0.0576 -0.6763  0.8362
  781MOL0     H 5393   0.020   5.282   2.366  1.9884 -3.8489  0.6756
  781MOL0     H 5394  -0.113   5.372   2.432  0.5672  0.1720 -0.6263
  781MOL0     H 5395  -0.315   5.348   2.541 -1.5323  1.0438 -1.7550
  781MOL0     H 5396  -0.539   5.277   2.483  0.0659 -0.9329  1.2693
  781MOL0     H 5397  -0.915   4.997   2.389  0.7333  0.2588  0.4146
  781MOL0     H 5398  -1.104   4.988   2.254 -1.7443  0.1747 -2.7162
  781MOL0     H 5399  -1.123   5.296   1.904 -1.6028  0.2152 -1.1627
  781MOL0     H 5400  -1.084   5.149   1.811  1.1262 -2.8094  2.8567
  781MOL0     H 5401  -1.311   5.080   1.824  2.3600 -0.2577 -0.5994
  781MOL0     H 5402  -1.369   5.239   1.885 -1.1333  1.6809 -2.4735
  781MOL0     H 5403  -1.297   5.348   1.690  0.4342 -0.1861 -0.4970
  781MOL0     H 5404  -1.219   5.203   1.640 -0.5001  0.0195  3.2449
  781MOL0     H 5405  -1.474   5.250   1.536 -1.7355 -1.5691 -0.3859
  781MOL0     H 5406  -1.527   5.216   1.700  1.6539  0.4988  1.5373
  781MOL0     H 5407  -1.474   4.989   1.696  1.2567 -0.0261  0.3849
  781MOL0     H 5408  -1.374   5.012   1.542 -0.2511  0.2060  0.1963
  781MOL0     H 5409  -1.680   5.031   1.564 -0.4066  1.5393 -0.4928
  781MOL0     H 5410  -1.582   5.096   1.436 -2.4175 -0.7314  0.5565
  781MOL0     H 5411  -1.609   4.806   1.502  2.4522 -1.8556  0.3663
  781MOL0     H 5412  -1.475   4.855   1.414  0.1301  0.7680  1.5652
  781MOL0     H 5413  -1.592   4.968   1.238  1.9406 -1.2270 -0.0592
  781MOL0     H 5414  -1.637   4.797   1.260  1.4042  0.1691  0.8766
  781MOL0     H 5415  -0.914   5.274   1.975  1.0026 -2.4307 -3.4984
  781MOL0     H 5416  -0.718   5.247   2.108  0.0692  0.9291 -3.1433
  781MOL0     H 5417  -0.380   4.906   2.338 -2.1744 -0.3459  1.7798
  781MOL0     H 5418  -0.161   4.959   2.425 -1.2607  0.4157 -2.9318
  781MOL0     H 5419   0.283   6.123   2.534  3.2053 -2.1505 -0.4204
  781MOL0     H 5420   0.142   6.282   2.396 -0.1575 -0.8213  1.5882
  781MOL0     H 5421  -0.014   6.496   2.130 -1.9526  1.7784 -0.7055
  781MOL0     H 5422  -0.090   6.710   2.044 -2.3793 -1.7927 -0.4036
  781MOL0     H 5423  -0.195   6.708   1.664  0.8025 -0.0813  0.6648
  781MOL0     H 5424  -0.056   6.804   1.593  1.9837  1.4703  0.2709
  781MOL0     H 5425  -0.304   6.926   1.731  1.3149  3.1558  0.5147
  781MOL0     H 5426  -0.301   6.870   1.556  0.1210 -0.7718  0.0698
  781MOL0     H 5427  -0.082   7.050   1.636 -0.1071 -2.8850  1.4230
  781MOL0     H 5428  -0.237   7.122   1.666 -0.6719 -0.3640 -0.8749
  781MOL0     H 5429  -0.311   7.103   1.443 -0.5345 -1.1451 -3.4217
  781MOL0     H 5430  -0.163   7.183   1.442 -1.0813  0.2306  1.3599
  781MOL0     H 5431  -0.064   6.895   1.170  2.8672  4.4522 -0.9130
  781MOL0     H 5432   0.074   6.623   1.665  1.1133  2.7774  1.4469
  781MOL0     H 5433   0.293   6.366   1.753 -0.0899  1.2941  2.6453
  781MOL0     H 5434   0.151   6.308   1.661 -0.2024 -0.6872  1.6653
  781MOL0     H 5435   0.223   6.465   1.622  4.3352 -1.7234 -1.0672
  782MOL0     O 5436   8.655   1.630   6.992 -0.4467  0.3902  0.3664
  782MOL0     C 5437   8.537   1.671   6.985 -0.5958  0.4326 -0.3671
  782MOL0     O 5438   8.490   1.779   6.908 -0.7310  0.6710 -0.2288
  782MOL0     C 5439   8.588   1.864   6.871 -0.0232  0.0979 -0.0444
  782MOL0     C 5440   8.634   1.978   6.943  0.1436 -0.5750 -0.1477
  782MOL0     C 5441   8.720   2.072   6.890 -0.3895 -1.2648  1.0111
  782MOL0     C 5442   8.770   2.049   6.765  1.2274  0.6332  0.3857
  782MOL0     O 5443   8.842   2.149   6.717  0.0953  0.0021  0.1359
  782MOL0     C 5444   8.964   2.119   6.642 -0.3426 -0.3593  0.2756
  782MOL0     C 5445   9.006   2.260   6.604 -0.2184 -0.1257 -0.1854
  782MOL0     C 5446   9.102   2.271   6.487  0.5884 -0.7553  0.6331
  782MOL0     C 5447   9.158   2.412   6.465 -0.6146  0.2953  0.5699
  782MOL0     C 5448   9.208   2.443   6.328 -0.0924 -0.5979  0.7334
  782MOL0     C 5449   9.334   2.353   6.295 -0.0073 -0.9779  0.4896
  782MOL0     C 5450   9.396   2.384   6.162 -0.2355 -0.5748  1.2635
  782MOL0     C 5451   9.305   2.365   6.036  0.9802  0.4298  0.1959
  782MOL0     N 5452   9.228   2.232   6.033 -0.4875 -0.3809  0.1922
  782MOL0     C 5453   9.091   2.224   6.019  0.6881  0.0022  1.0983
  782MOL0     C 5454   9.083   2.089   5.997  1.7104 -0.9123  0.0149
  782MOL0     C 5455   8.958   2.022   5.964 -0.4252  0.0577 -1.2035
  782MOL0     C 5456   8.911   1.903   6.051 -0.1942  0.2140  0.0487
  782MOL0     C 5457   8.963   1.763   6.014  0.0580 -0.2462  0.7264
  782MOL0     C 5458   8.877   1.643   6.061 -0.6573  0.6611  0.7132
  782MOL0     O 5459   8.874   1.628   6.204 -0.5860  0.4739  0.4872
  782MOL0     C 5460   8.754   1.607   6.263  0.1320  0.2311  0.4259
  782MOL0     C 5461   8.733   1.487   6.324 -0.6521  0.2042 -0.0033
  782MOL0     C 5462   8.613   1.458   6.397  0.1808 -0.4674  0.7823
  782MOL0     C 5463   8.515   1.556   6.409 -0.0744  0.8724  0.4599
  782MOL0     C 5464   8.386   1.536   6.473  0.6431  0.1999 -0.7594
  782MOL0     O 5465   8.322   1.641   6.542  0.7143  0.4933  0.5367
  782MOL0     C 5466   8.218   1.591   6.617 -0.2779  0.2725 -0.6554
  782MOL0     C 5467   8.084   1.611   6.574 -0.4609  0.1011  0.3181
  782MOL0     C 5468   7.980   1.556   6.648 -0.1253 -1.1911 -0.3968
  782MOL0     C 5469   8.008   1.492   6.770  0.7769  0.0749 -0.7817
  782MOL0     O 5470   7.909   1.437   6.850 -0.0252  0.1874 -0.3823
  782MOL0     C 5471   7.797   1.515   6.876 -1.0832 -1.2105 -0.2870
  782MOL0     C 5472   7.706   1.445   6.982 -1.3301 -0.7369  0.3265
  782MOL0     C 5473   7.645   1.319   6.932  0.9030 -0.7891 -0.4536
  782MOL0     C 5474   7.560   1.276   7.049 -0.2642 -1.1200  0.1686
  782MOL0     C 5475   7.432   1.214   7.002 -0.2776  0.4151  0.0206
  782MOL0     C 5476   7.451   1.076   6.930  1.5156  0.1260  0.8140
  782MOL0     C 5477   7.309   1.028   6.884  0.2416  0.7686 -1.0297
  782MOL0     C 5478   7.302   0.919   6.767 -0.4097 -0.0418 -0.5690
  782MOL0    Cl 5479   7.134   0.912   6.704  0.2326  0.0139  0.2655
  782MOL0     C 5480   8.138   1.478   6.817  0.1223  0.2029  1.6846
  782MOL0     C 5481   8.242   1.527   6.738 -0.1144  1.0280 -1.0890
  782MOL0     O 5482   8.347   1.421   6.471 -0.4604  0.4694 -0.1342
  782MOL0     C 5483   8.552   1.682   6.359  0.0342  0.8245 -0.6936
  782MOL0     C 5484   8.665   1.711   6.283 -0.4331  0.1843  0.1071
  782MOL0     N 5485   9.202   2.019   5.997 -0.9403 -0.0541  0.4652
  782MOL0     N 5486   9.291   2.113   6.008 -0.1848  0.5182 -0.0900
  782MOL0     C 5487   8.735   1.933   6.686 -0.1094 -0.6390 -0.7436
  782MOL0     C 5488   8.637   1.849   6.740 -0.4914  0.2908  0.0886
  782MOL0     C 5489   8.425   1.582   7.049 -0.1447  0.1196  0.3482
  782MOL0     C 5490   8.300   1.646   7.059  0.2117  0.4550  0.1853
  782MOL0     C 5491   8.201   1.576   7.127 -0.5108  0.3321  0.3164
  782MOL0     C 5492   8.215   1.457   7.190  0.9098 -0.3569  0.1121
  782MOL0     O 5493   8.112   1.400   7.265 -0.5035  0.7412 -0.7763
  782MOL0     C 5494   7.984   1.374   7.208  0.1387  0.3658  0.0299
  782MOL0     C 5495   7.933   1.236   7.247 -0.0933 -0.7049 -0.6387
  782MOL0     C 5496   7.943   1.204   7.398  1.4668 -0.6719  0.5632
  782MOL0     C 5497   7.875   1.067   7.444  1.2750  0.3687 -0.0105
  782MOL0     C 5498   7.739   1.047   7.378  0.1663 -0.3702 -0.2041
  782MOL0     C 5499   7.631   1.037   7.327  0.5172  1.1085  0.0541
  782MOL0     C 5500   8.335   1.399   7.189  0.0464 -0.2226 -0.2944
  782MOL0     C 5501   8.448   1.459   7.124 -0.6386  0.6587 -0.1733
  782MOL0     C 5502   8.557   1.371   7.115 -0.5698  0.5297 -0.5424
  782MOL0     H 5503   8.599   1.986   7.045 -2.6411  0.4724 -1.1014
  782MOL0     H 5504   8.755   2.157   6.948 -1.1755 -1.5054  1.8528
  782MOL0     H 5505   9.041   2.073   6.704  0.9728 -0.8052 -1.6032
  782MOL0     H 5506   8.939   2.059   6.554  3.7848 -0.5494 -0.9748
  782MOL0     H 5507   9.059   2.284   6.696 -1.5650 -2.8796  1.4226
  782MOL0     H 5508   8.923   2.327   6.579 -1.2624 -2.3655 -3.3952
  782MOL0     H 5509   9.052   2.232   6.398 -0.2228 -0.5582  0.9868
  782MOL0     H 5510   9.191   2.211   6.505  0.8419  0.2380  3.0913
  782MOL0     H 5511   9.085   2.483   6.504 -1.1422 -0.0338  0.1917
  782MOL0     H 5512   9.248   2.427   6.525  1.2323  1.4643 -2.2871
  782MOL0     H 5513   9.131   2.418   6.255  1.5153 -0.8310 -0.9853
  782MOL0     H 5514   9.227   2.551   6.320  0.1952 -0.6612  0.5369
  782MOL0     H 5515   9.413   2.381   6.365 -0.3687 -1.2540  1.0107
  782MOL0     H 5516   9.317   2.247   6.316  1.4240 -1.3240  0.0462
  782MOL0     H 5517   9.491   2.331   6.149 -0.0836  0.1668 -0.9347
  782MOL0     H 5518   9.424   2.490   6.172  0.1733 -0.7242  1.7932
  782MOL0     H 5519   9.236   2.450   6.031  3.5723  2.6086 -1.4261
  782MOL0     H 5520   9.356   2.379   5.941  0.4722  0.8915 -0.0173
  782MOL0     H 5521   9.021   2.306   6.025  0.7009  0.0165  1.0502
  782MOL0     H 5522   8.886   2.096   6.000  0.9225  1.0557 -0.4810
  782MOL0     H 5523   8.942   2.006   5.857  1.9253 -1.3089 -1.4122
  782MOL0     H 5524   8.949   1.916   6.153 -1.0192 -1.2055  0.5601
  782MOL0     H 5525   8.802   1.898   6.060 -0.3480  0.2184 -1.5392
  782MOL0     H 5526   9.066   1.744   6.046  0.4355  2.2815  1.1850
  782MOL0     H 5527   8.953   1.764   5.905 -3.9994  1.3915  0.9288
  782MOL0     H 5528   8.917   1.551   6.017 -3.4823 -0.1833 -0.3007
  782MOL0     H 5529   8.782   1.671   6.015 -0.8314  1.3607  1.4639
  782MOL0     H 5530   8.812   1.412   6.318 -2.5528 -1.9260  0.4454
  782MOL0     H 5531   8.611   1.361   6.445 -0.8388 -1.4819 -1.2185
  782MOL0     H 5532   8.068   1.669   6.484 -1.6828 -0.1982  0.3266
  782MOL0     H 5533   7.875   1.556   6.618 -1.3116 -2.5632  3.1266
  782MOL0     H 5534   7.827   1.612   6.917 -2.3096 -1.4260  1.1985
  782MOL0     H 5535   7.742   1.540   6.785  0.6065 -1.2996 -1.3789
  782MOL0     H 5536   7.764   1.426   7.073  0.1064  1.4279 -0.0604
  782MOL0     H 5537   7.626   1.518   6.996  1.8157  2.8489  1.1391
  782MOL0     H 5538   7.578   1.330   6.846 -1.3189  0.3317  1.3122
  782MOL0     H 5539   7.728   1.249   6.912  3.7525  1.9918  0.8032
  782MOL0     H 5540   7.539   1.360   7.117  3.0818 -0.0851  0.0827
  782MOL0     H 5541   7.611   1.198   7.106  0.8227 -0.5666 -0.0315
  782MOL0     H 5542   7.375   1.280   6.936  0.8883  0.2660 -1.1975
  782MOL0     H 5543   7.362   1.202   7.085 -1.5868 -0.2127 -1.1195
  782MOL0     H 5544   7.507   1.090   6.836  2.6797 -3.2749  0.8657
  782MOL0     H 5545   7.505   1.002   6.989  0.7524 -1.5395 -0.4742
  782MOL0     H 5546   7.239   1.111   6.865  1.0489  1.7180 -0.0192
  782MOL0     H 5547   7.261   0.990   6.975  0.4050  0.5256 -1.0458
  782MOL0     H 5548   7.368   0.955   6.688 -0.2462 -0.6329 -0.7074
  782MOL0     H 5549   7.339   0.820   6.797  1.4700  0.4910 -1.0144
  782MOL0     H 5550   8.161   1.418   6.904 -2.0148 -0.8889  1.5684
  782MOL0     H 5551   8.345   1.511   6.768 -0.1473 -0.6707 -1.7596
  782MOL0     H 5552   8.479   1.762   6.364 -3.0173 -1.8379  1.1705
  782MOL0     H 5553   8.685   1.808   6.239 -1.3444 -0.9163 -3.0315
  782MOL0     H 5554   8.765   1.913   6.583  1.1316  0.6921 -0.6713
  782MOL0     H 5555   8.606   1.764   6.680  1.7240  0.2849 -1.1149
  782MOL0     H 5556   8.264   1.742   7.022 -2.0925 -0.5318 -0.3207
  782MOL0     H 5557   8.107   1.630   7.139 -1.4575 -1.6839  2.8895
  782MOL0     H 5558   7.978   1.390   7.099 -3.1011 -2.2240 -0.3154
  782MOL0     H 5559   7.924   1.444   7.266 -1.6398  2.0017 -3.4556
  782MOL0     H 5560   7.979   1.152   7.193 -0.4188 -1.1498 -0.2398
  782MOL0     H 5561   7.828   1.235   7.218  0.6608 -1.5716 -3.8503
  782MOL0     H 5562   7.904   1.290   7.452  0.2398  1.7056 -3.7087
  782MOL0     H 5563   8.048   1.196   7.430  1.4296  3.2843  2.2435
  782MOL0     H 5564   7.950   0.991   7.420  0.9702  0.1995 -0.4288
  782MOL0     H 5565   7.851   1.067   7.551 -2.4204 -0.0210 -0.7232
  782MOL0     H 5566   7.537   1.013   7.281  1.3213 -2.7827  0.0858
  782MOL0     H 5567   8.343   1.317   7.261  0.1228  0.5445  0.5947
  782MOL0     H 5568   8.528   1.272   7.153  1.3300 -0.8934 -2.4886
  782MOL0     H 5569   8.592   1.361   7.011  0.8390  2.3841 -0.2997
  782MOL0     H 5570   8.637   1.412   7.177 -2.5456 -0.5780  3.0052
  783MOL0     O 5571   6.136   1.352   1.182 -0.2137  0.9494  1.1910
  783MOL0     C 5572   6.245   1.355   1.232 -0.1655  0.5803  0.4663
  783MOL0     O 5573   6.266   1.384   1.364 -0.6003 -0.1584 -0.3278
  783MOL0     C 5574   6.173   1.451   1.440 -0.6134 -0.5010  0.3265
  783MOL0     C 5575   6.057   1.520   1.410  0.1736 -0.7677  0.5222
  783MOL0     C 5576   5.965   1.565   1.512  0.3243  0.7876  0.0826
  783MOL0     C 5577   5.996   1.539   1.649 -0.4055  0.0495 -0.2339
  783MOL0     O 5578   5.916   1.591   1.742  0.3608  0.5936  0.3133
  783MOL0     C 5579   5.773   1.599   1.715 -0.1206  1.5868 -0.0606
  783MOL0     C 5580   5.717   1.607   1.867 -0.0875  0.0531 -0.4433
  783MOL0     C 5581   5.728   1.473   1.963  0.3641  0.4248  0.1945
  783MOL0     C 5582   5.632   1.499   2.084 -0.5172  1.6113  1.0731
  783MOL0     C 5583   5.609   1.371   2.148 -0.5000  0.3523 -0.0985
  783MOL0     C 5584   5.517   1.393   2.271 -0.2911  0.0543 -0.5022
  783MOL0     C 5585   5.524   1.271   2.370  0.5599  0.5074  0.6592
  783MOL0     C 5586   5.487   1.130   2.308  0.6069 -0.4571  0.6406
  783MOL0     N 5587   5.481   1.022   2.405  0.1018 -0.8981  0.4909
  783MOL0     C 5588   5.370   0.958   2.456  0.1418  0.0790 -0.8255
  783MOL0     C 5589   5.433   0.852   2.529  0.7730 -1.0317  0.2550
  783MOL0     C 5590   5.379   0.730   2.586  0.5571  0.1768 -0.6172
  783MOL0     C 5591   5.332   0.748   2.733  0.4166 -0.3807 -0.2147
  783MOL0     C 5592   5.261   0.877   2.761  0.3654 -1.1101  0.4131
  783MOL0     C 5593   5.108   0.872   2.719 -0.4045 -0.3646 -0.4348
  783MOL0     O 5594   5.099   0.876   2.577  0.1925  0.1371  0.3092
  783MOL0     C 5595   4.980   0.910   2.510 -1.1460 -0.9229 -0.5162
  783MOL0     C 5596   4.863   0.948   2.571 -0.5493  0.1071 -0.2134
  783MOL0     C 5597   4.740   0.963   2.507  0.1495  0.0053  0.8621
  783MOL0     C 5598   4.741   0.930   2.370  0.7187  0.0891  0.7769
  783MOL0     C 5599   4.612   0.913   2.293 -0.5932 -0.1520 -0.1039
  783MOL0     O 5600   4.502   0.964   2.363 -0.0863  0.1893 -0.0828
  783MOL0     C 5601   4.392   0.993   2.294  1.0159 -0.2074  0.2721
  783MOL0     C 5602   4.392   1.037   2.159 -0.0211 -0.4578 -0.3716
  783MOL0     C 5603   4.277   1.103   2.108  0.0441  0.6777  0.6088
  783MOL0     C 5604   4.158   1.106   2.176  0.4091 -0.0264 -0.0987
  783MOL0     O 5605   4.061   1.186   2.121  0.0079  0.5756 -0.9562
  783MOL0     C 5606   3.957   1.228   2.203 -0.1614  0.0341  0.1541
  783MOL0     C 5607   3.903   1.356   2.142  1.5613  0.6812  0.1668
  783MOL0     C 5608   3.835   1.323   2.005  0.1027  0.0184 -0.1110
  783MOL0     C 5609   3.802   1.453   1.924 -1.4165 -0.1082 -0.5178
  783MOL0     C 5610   3.690   1.445   1.829  0.8457  0.0249 -0.1151
  783MOL0     C 5611   3.715   1.363   1.704 -0.3107  0.3086 -0.1959
  783MOL0     C 5612   3.590   1.342   1.622  0.6580 -0.5065  0.3328
  783MOL0     C 5613   3.620   1.273   1.491  0.3457 -0.5390 -0.3577
  783MOL0    Cl 5614   3.731   1.365   1.370  0.2199 -0.1939  0.2083
  783MOL0     C 5615   4.153   1.049   2.302 -0.2125 -0.7089 -0.1402
  783MOL0     C 5616   4.265   1.001   2.365 -0.4596 -0.2093 -0.0589
  783MOL0     O 5617   4.610   0.854   2.180  0.9362 -0.1797  0.0997
  783MOL0     C 5618   4.856   0.899   2.299 -0.2120 -0.4227 -0.1642
  783MOL0     C 5619   4.975   0.891   2.378 -0.0801  0.4041 -0.1133
  783MOL0     N 5620   5.567   0.872   2.530  0.0648 -0.2926 -0.3828
  783MOL0     N 5621   5.594   0.974   2.455  0.2422  0.8206 -0.1339
  783MOL0     C 5622   6.126   1.480   1.683  1.0185  0.0042  0.1526
  783MOL0     C 5623   6.210   1.445   1.570  0.0999  0.0207 -0.3611
  783MOL0     C 5624   6.368   1.318   1.159  1.6142  0.6207 -0.7040
  783MOL0     C 5625   6.432   1.425   1.096 -0.5072  0.1094 -0.2279
  783MOL0     C 5626   6.555   1.404   1.031  1.0919  0.7810 -0.5616
  783MOL0     C 5627   6.611   1.273   1.021 -0.0854  0.6748 -0.5226
  783MOL0     O 5628   6.730   1.254   0.958  0.6807 -0.3156  0.6104
  783MOL0     C 5629   6.849   1.237   1.042  1.0270  0.2914  1.0520
  783MOL0     C 5630   6.888   1.354   1.131 -0.8500  0.3103 -0.0817
  783MOL0     C 5631   6.968   1.298   1.250  1.6940  0.4139  0.2569
  783MOL0     C 5632   7.118   1.296   1.224 -0.4642  0.4227 -0.8625
  783MOL0     C 5633   7.161   1.191   1.128  0.6613 -0.1479 -0.1391
  783MOL0     C 5634   7.199   1.102   1.061 -0.4980  0.3756  0.3786
  783MOL0     C 5635   6.533   1.169   1.076 -0.7625  0.5375 -0.0163
  783MOL0     C 5636   6.417   1.183   1.147 -0.6297 -0.7773 -0.5634
  783MOL0     C 5637   6.353   1.067   1.227 -0.4621 -1.1614 -0.3031
  783MOL0     H 5638   6.006   1.541   1.317  0.8014 -0.4990  0.2371
  783MOL0     H 5639   5.878   1.620   1.479  1.5215  0.6951 -3.7085
  783MOL0     H 5640   5.755   1.683   1.647  2.2631  0.9982 -1.5524
  783MOL0     H 5641   5.734   1.504   1.677  1.8484  0.9160 -0.5530
  783MOL0     H 5642   5.612   1.637   1.862 -0.7671 -1.9337  1.0611
  783MOL0     H 5643   5.768   1.677   1.934 -0.4814 -1.6756  1.7712
  783MOL0     H 5644   5.829   1.474   2.004  0.2578  2.7064  0.5804
  783MOL0     H 5645   5.704   1.377   1.917  0.5649  0.2216  0.5146
  783MOL0     H 5646   5.674   1.571   2.155  0.7192  2.3462 -0.3393
  783MOL0     H 5647   5.539   1.542   2.047 -1.4314  0.2534  1.7498
  783MOL0     H 5648   5.570   1.291   2.084 -0.6614 -1.2026  1.8591
  783MOL0     H 5649   5.708   1.333   2.176  0.4623  2.3079 -0.6834
  783MOL0     H 5650   5.548   1.489   2.313 -0.8155  0.5630 -1.2584
  783MOL0     H 5651   5.414   1.406   2.239 -0.5686  2.2448  1.0345
  783MOL0     H 5652   5.458   1.293   2.454 -2.5152  0.7728 -1.6629
  783MOL0     H 5653   5.628   1.268   2.404  1.0165  2.3790 -0.4240
  783MOL0     H 5654   5.389   1.142   2.261  1.4984  1.5114 -0.9263
  783MOL0     H 5655   5.557   1.108   2.226 -0.1336  1.0900 -0.4707
  783MOL0     H 5656   5.264   0.975   2.442  0.4003  2.6504 -0.1376
  783MOL0     H 5657   5.293   0.694   2.528  1.3351 -0.1716 -1.5901
  783MOL0     H 5658   5.464   0.662   2.576  2.3782  2.0882  0.9485
  783MOL0     H 5659   5.263   0.664   2.748 -0.1701 -0.3477 -2.3634
  783MOL0     H 5660   5.421   0.742   2.796  0.1021 -2.0630  0.1128
  783MOL0     H 5661   5.306   0.965   2.714 -3.8875  0.5963 -0.8844
  783MOL0     H 5662   5.256   0.896   2.869  0.8695 -0.0755  0.2700
  783MOL0     H 5663   5.055   0.954   2.769  0.0018 -1.7932  2.5165
  783MOL0     H 5664   5.067   0.776   2.752  0.3647 -0.1399  1.2748
  783MOL0     H 5665   4.871   0.953   2.679  1.8327  1.1776 -0.3815
  783MOL0     H 5666   4.652   0.998   2.560 -0.2652  2.4480 -1.2189
  783MOL0     H 5667   4.483   1.045   2.101  0.8446  1.6271  1.1300
  783MOL0     H 5668   4.281   1.128   2.003  0.7832 -2.4698 -0.2111
  783MOL0     H 5669   3.879   1.153   2.220 -0.0806  0.6346  3.9047
  783MOL0     H 5670   3.994   1.256   2.302  1.6258  0.2022 -0.5439
  783MOL0     H 5671   3.820   1.387   2.206 -0.6434  0.0615 -2.2028
  783MOL0     H 5672   3.983   1.430   2.131  2.1419 -0.1129 -1.1608
  783MOL0     H 5673   3.902   1.257   1.949 -1.2558 -1.3776 -0.1641
  783MOL0     H 5674   3.740   1.269   2.011 -1.2793  2.2792 -0.0366
  783MOL0     H 5675   3.891   1.491   1.873 -0.0540 -0.7715  1.2399
  783MOL0     H 5676   3.771   1.529   1.997 -0.7657  0.8282 -1.1864
  783MOL0     H 5677   3.669   1.546   1.792 -0.2931 -0.7288 -1.6190
  783MOL0     H 5678   3.599   1.418   1.884  0.1566  3.0467  0.3944
  783MOL0     H 5679   3.788   1.415   1.642 -1.9874  1.1617 -1.5346
  783MOL0     H 5680   3.749   1.264   1.735 -1.2785 -0.0852 -0.3620
  783MOL0     H 5681   3.536   1.435   1.603 -1.9619 -2.3693 -2.2659
  783MOL0     H 5682   3.510   1.291   1.677  0.2245 -0.3413 -0.1373
  783MOL0     H 5683   3.652   1.169   1.502 -2.0381 -1.6960 -3.1801
  783MOL0     H 5684   3.521   1.245   1.455  0.6806 -2.2104 -0.0571
  783MOL0     H 5685   4.064   1.044   2.365  0.0836  2.4102  0.7005
  783MOL0     H 5686   4.262   0.968   2.468  3.4771 -1.8983 -0.3050
  783MOL0     H 5687   4.848   0.874   2.194 -1.9880  0.9094 -0.3936
  783MOL0     H 5688   5.063   0.845   2.333 -0.2446 -0.3787  0.3462
  783MOL0     H 5689   6.164   1.485   1.785 -2.2946  4.3141  1.5320
  783MOL0     H 5690   6.311   1.410   1.591 -1.1612 -1.2887  5.0299
  783MOL0     H 5691   6.392   1.525   1.088 -0.7479  0.0777  0.4369
  783MOL0     H 5692   6.612   1.487   0.991  0.5612  2.3396  1.7125
  783MOL0     H 5693   6.927   1.186   0.985 -0.6827 -1.2586 -0.0574
  783MOL0     H 5694   6.823   1.154   1.109  0.7961 -0.0426  0.5626
  783MOL0     H 5695   6.809   1.421   1.167  0.6309  1.8713  0.3595
  783MOL0     H 5696   6.942   1.433   1.078 -1.3295 -0.7348 -2.2814
  783MOL0     H 5697   6.932   1.204   1.292  0.3101  1.1650  0.8299
  783MOL0     H 5698   6.957   1.370   1.332 -1.3086 -0.8840  1.1617
  783MOL0     H 5699   7.154   1.393   1.190  0.6088  0.6094  0.7368
  783MOL0     H 5700   7.169   1.288   1.320 -1.7849  2.1015  0.0422
  783MOL0     H 5701   7.251   1.029   1.002  1.9991  2.1412  0.2350
  783MOL0     H 5702   6.581   1.073   1.059  0.6421  1.3117 -0.5768
  783MOL0     H 5703   6.423   0.984   1.241  1.6824  0.8085  1.4016
  783MOL0     H 5704   6.320   1.102   1.326 -0.2166 -0.4025 -0.4823
  783MOL0     H 5705   6.259   1.040   1.177 -1.7445 -2.6988  2.6341
  784MOL0     O 5706   3.382   0.827   2.123 -0.6457 -0.6103 -0.7070
  784MOL0     C 5707   3.505   0.846   2.126  0.3274 -0.2097  0.0032
  784MOL0     O 5708   3.581   0.856   2.238 -0.7976  0.1217 -0.0145
  784MOL0     C 5709   3.540   0.861   2.370  0.8632 -0.1987  0.3623
  784MOL0     C 5710   3.425   0.807   2.415 -0.4094 -0.1178  0.0924
  784MOL0     C 5711   3.396   0.819   2.549  0.4264  0.2109 -0.1401
  784MOL0     C 5712   3.483   0.875   2.641 -1.0656 -0.5678 -0.1017
  784MOL0     O 5713   3.469   0.861   2.772 -0.1846  0.9657 -0.1921
  784MOL0     C 5714   3.515   0.969   2.857 -0.3633  0.8161  0.1103
  784MOL0     C 5715   3.490   0.913   2.999  0.1833  0.0950  0.5028
  784MOL0     C 5716   3.577   0.975   3.107 -0.6270  1.0926  0.2004
  784MOL0     C 5717   3.504   1.014   3.224 -0.1614 -0.4740 -0.4878
  784MOL0     C 5718   3.598   1.095   3.316 -0.8945 -0.6051 -0.5852
  784MOL0     C 5719   3.501   1.155   3.422 -0.2575 -0.1979 -0.2459
  784MOL0     C 5720   3.506   1.309   3.422 -0.1506 -0.9753 -0.0856
  784MOL0     C 5721   3.390   1.377   3.499 -0.0604 -0.3239 -0.1078
  784MOL0     N 5722   3.434   1.385   3.636  0.2878 -0.4298  0.2856
  784MOL0     C 5723   3.530   1.473   3.690  0.5087  0.0871  0.2300
  784MOL0     C 5724   3.543   1.430   3.822  0.0185 -0.3613  0.3121
  784MOL0     C 5725   3.629   1.483   3.930 -0.3161 -0.1662 -0.7817
  784MOL0     C 5726   3.778   1.494   3.884 -0.4130  0.5268 -0.2688
  784MOL0     C 5727   3.856   1.366   3.915  0.5920  0.2158  0.0040
  784MOL0     C 5728   3.996   1.368   3.869  0.1007 -0.1190 -0.1380
  784MOL0     O 5729   4.048   1.240   3.907 -0.1268  0.3478 -0.0261
  784MOL0     C 5730   4.170   1.214   3.852 -0.5677  0.7159  0.2465
  784MOL0     C 5731   4.251   1.301   3.784  0.1859 -0.0410  0.4556
  784MOL0     C 5732   4.373   1.253   3.734  0.3513 -0.4560 -0.3564
  784MOL0     C 5733   4.430   1.133   3.754  0.0376  0.3281 -0.4525
  784MOL0     C 5734   4.560   1.096   3.707 -0.1803  0.7249  0.0015
  784MOL0     O 5735   4.663   1.186   3.702  0.4676  0.2074  0.6145
  784MOL0     C 5736   4.787   1.149   3.738  0.5838  0.0398 -0.5554
  784MOL0     C 5737   4.825   1.044   3.821 -1.0168 -0.9615  0.6261
  784MOL0     C 5738   4.961   1.019   3.853  0.6602 -0.0910  0.0496
  784MOL0     C 5739   5.063   1.094   3.785 -0.0530 -0.2363 -0.7404
  784MOL0     O 5740   5.192   1.055   3.815  0.2045  0.8174  0.8162
  784MOL0     C 5741   5.296   1.095   3.720 -0.7798 -0.3663 -0.3775
  784MOL0     C 5742   5.414   1.008   3.751 -1.4224 -0.2242  0.0432
  784MOL0     C 5743   5.542   1.015   3.667  0.4975  0.0842 -0.8066
  784MOL0     C 5744   5.611   1.145   3.708 -0.3169 -0.8728  0.8415
  784MOL0     C 5745   5.753   1.160   3.643 -0.4459  0.5701  0.3009
  784MOL0     C 5746   5.854   1.057   3.700  0.5825  0.2355  0.1124
  784MOL0     C 5747   5.991   1.100   3.658  0.3437  0.5055  0.3082
  784MOL0     C 5748   6.092   0.992   3.695 -0.6591 -0.6200 -0.1882
  784MOL0    Cl 5749   6.069   0.919   3.860  0.0166  0.2388 -0.0766
  784MOL0     C 5750   5.022   1.201   3.710 -0.2167  0.6207  0.2986
  784MOL0     C 5751   4.885   1.226   3.684 -0.7348 -0.2385  0.4095
  784MOL0     O 5752   4.573   0.976   3.676  0.5971 -0.7155  0.2862
  784MOL0     C 5753   4.350   1.037   3.812  0.3364 -0.3766 -0.1222
  784MOL0     C 5754   4.225   1.088   3.877  0.3001  0.1857 -0.4721
  784MOL0     N 5755   3.475   1.307   3.837  0.1329  0.3779 -0.0029
  784MOL0     N 5756   3.420   1.281   3.722  0.0198  0.4142 -0.4086
  784MOL0     C 5757   3.605   0.930   2.593 -0.1074 -1.8999 -0.0008
  784MOL0     C 5758   3.628   0.935   2.454  0.2815  0.2846  0.1867
  784MOL0     C 5759   3.583   0.883   2.008 -0.5422 -0.2748 -0.1699
  784MOL0     C 5760   3.711   0.948   2.024 -1.4856 -0.7361  0.3712
  784MOL0     C 5761   3.795   0.965   1.913  0.0969 -0.4786  0.2913
  784MOL0     C 5762   3.751   0.930   1.784 -0.1517 -0.1539  0.9427
  784MOL0     O 5763   3.821   0.949   1.667 -0.2075  0.5035  0.4550
  784MOL0     C 5764   3.949   1.013   1.672  0.1049 -0.2179  0.4488
  784MOL0     C 5765   4.019   1.008   1.540 -0.5285 -0.4921  0.2761
  784MOL0     C 5766   3.975   1.123   1.447 -0.6173  0.2475  0.4857
  784MOL0     C 5767   4.003   1.087   1.296  0.7049  0.1645  0.5540
  784MOL0     C 5768   4.144   1.074   1.263 -0.9709 -0.4927 -0.0039
  784MOL0     C 5769   4.266   1.042   1.242 -0.2308 -0.7000  0.3330
  784MOL0     C 5770   3.625   0.867   1.764  0.5686  0.3221  0.7349
  784MOL0     C 5771   3.552   0.834   1.872  0.4680  0.3027 -0.0533
  784MOL0     C 5772   3.437   0.726   1.863  0.2871  0.0225  0.3990
  784MOL0     H 5773   3.350   0.754   2.356  0.3925 -0.3166 -0.7814
  784MOL0     H 5774   3.321   0.758   2.598  1.5574  1.0153  2.8027
  784MOL0     H 5775   3.618   1.005   2.845 -0.2626  0.6999  0.6081
  784MOL0     H 5776   3.451   1.057   2.841 -0.0593  1.4617  2.1782
  784MOL0     H 5777   3.514   0.806   2.991 -1.6586 -0.2724 -0.8642
  784MOL0     H 5778   3.386   0.933   3.025 -0.0286  0.3752 -0.5138
  784MOL0     H 5779   3.633   1.061   3.070 -0.5376  1.4770  1.2079
  784MOL0     H 5780   3.652   0.899   3.132 -0.0604  2.3861  2.7580
  784MOL0     H 5781   3.423   1.080   3.189  0.4238  0.9609  0.7131
  784MOL0     H 5782   3.456   0.930   3.274 -2.9609  0.7952 -0.8088
  784MOL0     H 5783   3.670   1.028   3.364 -1.5912  0.3293  1.9613
  784MOL0     H 5784   3.652   1.173   3.261 -0.3882  0.3542  1.1846
  784MOL0     H 5785   3.400   1.115   3.406  0.7944 -3.7348  0.9663
  784MOL0     H 5786   3.532   1.127   3.523  0.4921  0.7854 -0.1880
  784MOL0     H 5787   3.496   1.340   3.317 -0.5928  0.9368  0.4742
  784MOL0     H 5788   3.600   1.355   3.454 -1.8675  2.2689  0.7842
  784MOL0     H 5789   3.384   1.478   3.456 -0.6585  0.8609  2.5296
  784MOL0     H 5790   3.299   1.320   3.478 -0.1581  0.4415 -1.8820
  784MOL0     H 5791   3.581   1.556   3.643  0.6029  0.0514  0.2706
  784MOL0     H 5792   3.598   1.584   3.959 -2.6009 -1.8604  3.5933
  784MOL0     H 5793   3.618   1.430   4.025 -3.0188  0.0256 -0.9215
  784MOL0     H 5794   3.778   1.498   3.774 -1.0910 -0.1847 -0.3101
  784MOL0     H 5795   3.829   1.584   3.917 -2.4332  0.6119  3.0585
  784MOL0     H 5796   3.806   1.284   3.863 -1.3379  2.3535 -1.7424
  784MOL0     H 5797   3.852   1.342   4.022  1.3790 -3.1157 -0.5965
  784MOL0     H 5798   4.052   1.443   3.925  0.0973 -0.4870  0.3680
  784MOL0     H 5799   3.993   1.388   3.762 -1.6243  2.5993  0.3223
  784MOL0     H 5800   4.232   1.405   3.762  3.2973  0.5630  0.2017
  784MOL0     H 5801   4.426   1.333   3.683  1.4637  1.4341  3.3839
  784MOL0     H 5802   4.745   0.982   3.860 -1.3538 -3.3902 -3.3298
  784MOL0     H 5803   4.980   0.935   3.919  2.0984  0.4602  0.3585
  784MOL0     H 5804   5.264   1.077   3.617 -1.0695 -1.5160 -0.0953
  784MOL0     H 5805   5.321   1.200   3.739 -0.5889 -0.3298 -0.8210
  784MOL0     H 5806   5.443   1.015   3.857  1.7242  1.9789 -0.8032
  784MOL0     H 5807   5.371   0.909   3.740 -0.2325 -1.0313  2.1165
  784MOL0     H 5808   5.602   0.924   3.676 -0.1269 -0.1573  1.5805
  784MOL0     H 5809   5.511   1.028   3.563 -0.7369 -0.3683 -0.5092
  784MOL0     H 5810   5.623   1.137   3.816  1.9588 -0.8300  0.6383
  784MOL0     H 5811   5.553   1.229   3.670  1.1986  0.3234  1.0769
  784MOL0     H 5812   5.794   1.261   3.652  2.3844 -0.0061 -3.5160
  784MOL0     H 5813   5.739   1.140   3.536  1.0868 -4.4336  0.8237
  784MOL0     H 5814   5.840   1.039   3.807 -0.3814 -1.8354 -0.3173
  784MOL0     H 5815   5.826   0.959   3.661  0.2694  0.4104 -0.1128
  784MOL0     H 5816   6.010   1.185   3.724 -0.6790  0.0433  1.2199
  784MOL0     H 5817   5.999   1.129   3.553  0.2706  2.5909  0.8299
  784MOL0     H 5818   6.089   0.927   3.608 -0.6494 -0.4699 -0.3005
  784MOL0     H 5819   6.191   1.037   3.680 -1.4352  0.4043 -2.8538
  784MOL0     H 5820   5.098   1.269   3.672  0.5183 -1.5437 -2.4180
  784MOL0     H 5821   4.858   1.310   3.621 -3.0509 -1.2852 -0.0645
  784MOL0     H 5822   4.395   0.940   3.827  1.9994  0.4692  0.6174
  784MOL0     H 5823   4.169   1.018   3.938  0.3035  1.4406  1.0528
  784MOL0     H 5824   3.690   0.928   2.661 -0.1920 -2.3422  0.0950
  784MOL0     H 5825   3.725   0.952   2.409  0.9897 -4.8744 -0.8654
  784MOL0     H 5826   3.758   0.980   2.117  2.2231  2.6500 -2.3508
  784MOL0     H 5827   3.895   1.007   1.925 -1.0266  2.5670 -0.2168
  784MOL0     H 5828   4.015   0.959   1.741  1.6649 -0.1503 -0.9365
  784MOL0     H 5829   3.927   1.107   1.725  1.6012  1.1461 -1.2096
  784MOL0     H 5830   3.999   0.918   1.481 -3.1104  0.2687 -0.1322
  784MOL0     H 5831   4.125   1.017   1.567 -1.1635  2.0410  2.3170
  784MOL0     H 5832   4.018   1.218   1.481 -1.4287 -0.1627  2.7770
  784MOL0     H 5833   3.871   1.138   1.476 -0.9034 -3.8991  2.2487
  784MOL0     H 5834   3.938   0.999   1.286 -4.1125  2.6729  5.1215
  784MOL0     H 5835   3.958   1.156   1.225  1.5677  1.7199  1.4814
  784MOL0     H 5836   4.364   1.000   1.228 -0.5168 -1.4168  0.4160
  784MOL0     H 5837   3.592   0.834   1.666  0.2603 -0.0899  0.9741
  784MOL0     H 5838   3.455   0.658   1.947 -0.4148  0.9197  1.3083
  784MOL0     H 5839   3.343   0.779   1.883  1.0182  0.5924  2.7423
  784MOL0     H 5840   3.439   0.671   1.769 -2.3167 -1.2984  1.0155
  785MOL0     O 5841   1.722  10.727   2.363 -0.0405  0.5221  0.5806
  785MOL0     C 5842   1.677  10.780   2.466  0.1401 -1.0712 -0.2631
  785MOL0     O 5843   1.745  10.867   2.537  0.6793  0.4059  0.0565
  785MOL0     C 5844   1.884  10.854   2.556 -0.0711  1.2332  0.4297
  785MOL0     C 5845   1.948  10.727   2.571  0.2272  0.8752 -0.2677
  785MOL0     C 5846   2.082  10.720   2.614  0.4353  0.4533  0.0465
  785MOL0     C 5847   2.150  10.839   2.640 -0.4714  0.3055  0.5271
  785MOL0     O 5848   2.275  10.814   2.692 -0.8305  0.1045  0.5517
  785MOL0     C 5849   2.355  10.928   2.738  0.7043 -0.2405  0.3273
  785MOL0     C 5850   2.498  10.899   2.728 -0.4488 -0.2705  0.6302
  785MOL0     C 5851   2.568  10.960   2.605  0.0198 -0.5819  0.6579
  785MOL0     C 5852   2.715  10.919   2.572  0.4228 -0.0940  0.5209
  785MOL0     C 5853   2.766  11.008   2.447  0.0176  0.2384  0.9848
  785MOL0     C 5854   2.893  10.953   2.400 -0.6330  1.1002 -0.1811
  785MOL0     C 5855   2.972  11.050   2.305  0.6877  0.2448 -0.3284
  785MOL0     C 5856   3.109  11.008   2.270 -0.6923 -0.7713 -0.2299
  785MOL0     N 5857   3.109  10.886   2.180  0.8126 -0.7180  0.3527
  785MOL0     C 5858   3.102  10.893   2.041  0.1983  0.3677  0.2426
  785MOL0     C 5859   3.136  10.767   1.997  0.6592 -0.4828 -1.5820
  785MOL0     C 5860   3.165  10.733   1.850 -0.4240  0.1818  0.4568
  785MOL0     C 5861   3.111  10.823   1.740 -0.6042 -0.5780 -0.2702
  785MOL0     C 5862   3.210  10.901   1.660  0.3686 -0.3357  0.5851
  785MOL0     C 5863   3.277  10.825   1.541 -0.8338  0.1171 -0.3163
  785MOL0     O 5864   3.372  10.730   1.595  0.2093 -0.2117 -0.2360
  785MOL0     C 5865   3.505  10.765   1.612 -0.9619 -0.4950  0.2220
  785MOL0     C 5866   3.587  10.681   1.695 -0.4411 -0.3320  0.6085
  785MOL0     C 5867   3.720  10.700   1.712  0.3597 -0.3781  0.4143
  785MOL0     C 5868   3.794  10.811   1.650  0.2299  0.4075 -0.7588
  785MOL0     C 5869   3.939  10.825   1.676  0.4188 -0.3058 -0.2797
  785MOL0     O 5870   3.979  10.743   1.767 -0.3386  0.6503  0.4546
  785MOL0     C 5871   4.111  10.720   1.787 -0.0212 -0.8937  0.1276
  785MOL0     C 5872   4.152  10.697   1.922  0.1499 -0.0559 -0.3093
  785MOL0     C 5873   4.286  10.683   1.945  0.9273  0.5080 -1.2738
  785MOL0     C 5874   4.385  10.687   1.848  0.3208 -0.5532 -0.2372
  785MOL0     O 5875   4.529  10.681   1.854  0.4238 -0.3321 -0.0721
  785MOL0     C 5876   4.600  10.690   1.981 -0.6321 -0.0390  0.0653
  785MOL0     C 5877   4.662  10.548   2.006 -0.0928 -0.5084 -0.2189
  785MOL0     C 5878   4.791  10.519   1.938 -0.1859 -0.3803 -0.3804
  785MOL0     C 5879   4.885  10.640   1.918  0.3058  0.0658 -0.0182
  785MOL0     C 5880   5.030  10.576   1.890  0.6874 -0.6352 -0.5992
  785MOL0     C 5881   5.129  10.685   1.841 -1.3758 -0.0034 -0.2433
  785MOL0     C 5882   5.269  10.627   1.828  0.1887  0.2375 -0.0428
  785MOL0     C 5883   5.365  10.728   1.776 -0.7422  0.2232  0.0997
  785MOL0    Cl 5884   5.319  10.837   1.649  0.6386 -0.1574 -0.0381
  785MOL0     C 5885   4.336  10.691   1.715 -0.4941  1.2423 -1.2792
  785MOL0     C 5886   4.206  10.712   1.688  0.8826 -0.0218 -0.4580
  785MOL0     O 5887   4.007  10.911   1.622  0.0594 -0.0930 -0.1678
  785MOL0     C 5888   3.714  10.892   1.569 -0.1809  0.2239 -0.6302
  785MOL0     C 5889   3.573  10.874   1.552 -0.4533 -0.0231  0.4067
  785MOL0     N 5890   3.151  10.689   2.108 -0.2576 -0.1169  0.0715
  785MOL0     N 5891   3.127  10.754   2.214  0.4551 -0.0750  0.6315
  785MOL0     C 5892   2.092  10.964   2.619  0.5355 -0.9300  0.8105
  785MOL0     C 5893   1.961  10.968   2.583 -0.3593 -0.1551  0.3097
  785MOL0     C 5894   1.532  10.774   2.498  0.9253 -0.2645  0.2130
  785MOL0     C 5895   1.451  10.781   2.383  0.1856 -0.8929 -0.4250
  785MOL0     C 5896   1.313  10.782   2.389 -0.3571  0.3616 -0.0272
  785MOL0     C 5897   1.254  10.781   2.513  0.3245 -0.6561  0.1509
  785MOL0     O 5898   1.123  10.803   2.519 -0.5795  0.2758 -0.1820
  785MOL0     C 5899   1.051  10.687   2.510  1.0354  1.1939  0.2966
  785MOL0     C 5900   0.906  10.744   2.471  0.2786  0.7024  0.0121
  785MOL0     C 5901   0.832  10.819   2.589  0.0452  0.0231  0.2939
  785MOL0     C 5902   0.702  10.883   2.529 -0.5413 -0.3945 -0.3652
  785MOL0     C 5903   0.602  10.920   2.634 -0.9106 -0.2112 -0.2683
  785MOL0     C 5904   0.521  10.963   2.717  0.5263 -0.2075 -0.3820
  785MOL0     C 5905   1.338  10.771   2.628  0.5912 -0.0317 -0.3567
  785MOL0     C 5906   1.473  10.763   2.622 -0.4657  0.4459 -0.8704
  785MOL0     C 5907   1.558  10.755   2.748  0.6198 -0.3216  0.2972
  785MOL0     H 5908   1.895  10.635   2.550 -0.5255  0.6134  2.4181
  785MOL0     H 5909   2.122  10.621   2.630 -0.3928  0.5854  4.0605
  785MOL0     H 5910   2.324  11.018   2.686 -0.4864 -2.5204 -3.2368
  785MOL0     H 5911   2.328  10.929   2.845 -1.0539 -5.2055  0.1951
  785MOL0     H 5912   2.518  10.792   2.730 -2.6418 -0.7162  0.9535
  785MOL0     H 5913   2.547  10.948   2.813 -0.1030  1.6671 -0.6278
  785MOL0     H 5914   2.569  11.069   2.609  1.6331 -0.4169 -2.0289
  785MOL0     H 5915   2.498  10.934   2.525 -0.2714  0.8373  0.4159
  785MOL0     H 5916   2.778  10.941   2.658  0.4875  0.6524  0.2889
  785MOL0     H 5917   2.725  10.812   2.553  2.9552 -0.2274  2.1238
  785MOL0     H 5918   2.694  10.998   2.365  1.7037 -2.9030 -0.3291
  785MOL0     H 5919   2.771  11.113   2.474 -1.7941  0.8608 -0.8988
  785MOL0     H 5920   2.946  10.907   2.483 -4.9978 -0.5417  2.0076
  785MOL0     H 5921   2.877  10.861   2.343 -0.1829 -1.4667  3.4984
  785MOL0     H 5922   2.969  11.140   2.367 -2.5599  1.4325 -1.9847
  785MOL0     H 5923   2.914  11.062   2.214 -1.1073 -1.4197  0.5095
  785MOL0     H 5924   3.162  11.095   2.231 -4.0509  2.3552  1.4699
  785MOL0     H 5925   3.148  10.972   2.366  1.0068 -2.0263 -1.3378
  785MOL0     H 5926   3.095  10.989   1.990 -0.2466  1.9351  3.0529
  785MOL0     H 5927   3.274  10.727   1.839 -0.5220  0.6468 -0.9961
  785MOL0     H 5928   3.135  10.631   1.823  0.2645 -0.0854  0.6761
  785MOL0     H 5929   3.058  10.767   1.661  2.4548 -0.3136 -2.7050
  785MOL0     H 5930   3.046  10.899   1.784 -0.3086 -0.0545 -0.7304
  785MOL0     H 5931   3.278  10.939   1.737  1.5993 -0.1601 -0.5483
  785MOL0     H 5932   3.153  10.984   1.618  1.5363  0.3345  0.2793
  785MOL0     H 5933   3.317  10.897   1.468 -1.3488  0.9067  0.1667
  785MOL0     H 5934   3.209  10.769   1.475 -0.0215 -1.3876  0.0954
  785MOL0     H 5935   3.530  10.611   1.755  0.0829 -1.4591 -0.1667
  785MOL0     H 5936   3.779  10.635   1.776 -1.9705  1.9167  5.4475
  785MOL0     H 5937   4.079  10.715   2.000 -0.4525 -1.8127 -0.4379
  785MOL0     H 5938   4.323  10.670   2.046 -2.4357  3.9858  0.6983
  785MOL0     H 5939   4.671  10.773   1.974 -2.0287  1.0519 -2.4347
  785MOL0     H 5940   4.523  10.715   2.055 -0.6637  2.8338 -0.8211
  785MOL0     H 5941   4.668  10.539   2.115  1.2056  0.6093 -0.1735
  785MOL0     H 5942   4.580  10.481   1.977  0.0129  0.0660 -1.9701
  785MOL0     H 5943   4.835  10.435   1.993 -1.3351 -1.3782 -0.9317
  785MOL0     H 5944   4.760  10.484   1.839 -1.5235  1.3395 -0.6286
  785MOL0     H 5945   4.880  10.696   2.012  1.6990 -1.3909  0.9772
  785MOL0     H 5946   4.858  10.711   1.839  1.4993 -0.6902 -1.1348
  785MOL0     H 5947   5.016  10.497   1.815  0.9209 -3.4549  2.1053
  785MOL0     H 5948   5.068  10.521   1.977 -0.7097 -2.8738 -1.2995
  785MOL0     H 5949   5.099  10.743   1.753 -0.5801  1.5919  0.4946
  785MOL0     H 5950   5.133  10.763   1.917 -0.8443 -0.2092 -0.0564
  785MOL0     H 5951   5.265  10.537   1.767 -0.2988  0.3531 -0.1781
  785MOL0     H 5952   5.306  10.593   1.926  0.0960 -1.8535 -0.6902
  785MOL0     H 5953   5.385  10.798   1.858 -0.1917 -1.6192  1.5830
  785MOL0     H 5954   5.461  10.685   1.750 -0.4788  0.5202  0.5643
  785MOL0     H 5955   4.404  10.668   1.633 -1.0672  0.6329 -1.5939
  785MOL0     H 5956   4.179  10.716   1.583 -1.3872 -2.7766 -0.1091
  785MOL0     H 5957   3.765  10.978   1.526  0.9623  0.4754  1.1504
  785MOL0     H 5958   3.517  10.948   1.496  1.8268  2.5043  1.2314
  785MOL0     H 5959   2.142  11.060   2.630  1.8996 -1.0218 -3.1133
  785MOL0     H 5960   1.920  11.066   2.561  5.0506  1.8846 -2.5842
  785MOL0     H 5961   1.501  10.789   2.286 -0.6222  3.8770 -0.6887
  785MOL0     H 5962   1.252  10.774   2.300  0.7176 -0.0455 -0.7484
  785MOL0     H 5963   1.052  10.638   2.608  1.8048 -1.2290 -0.8455
  785MOL0     H 5964   1.085  10.618   2.433 -3.3015  0.7596 -1.5015
  785MOL0     H 5965   0.860  10.649   2.441  0.5472  0.3807  0.6020
  785MOL0     H 5966   0.917  10.815   2.388  1.8506  0.3175 -0.1470
  785MOL0     H 5967   0.888  10.905   2.627 -1.9106  0.9177  1.3008
  785MOL0     H 5968   0.824  10.755   2.678 -0.5923  1.4007  1.2604
  785MOL0     H 5969   0.726  10.964   2.460 -1.2536 -0.5832 -0.8538
  785MOL0     H 5970   0.660  10.805   2.464 -0.2250 -2.4931  1.8043
  785MOL0     H 5971   0.450  11.000   2.788 -0.9575 -2.7637 -0.3857
  785MOL0     H 5972   1.295  10.774   2.727  1.3931 -0.0516  0.0047
  785MOL0     H 5973   1.583  10.859   2.770  2.1127 -0.8895  1.4296
  785MOL0     H 5974   1.497  10.711   2.827  1.0211  0.3600  1.0003
  785MOL0     H 5975   1.648  10.696   2.732  0.9768  0.2674  0.0888
  786MOL0     O 5976   3.458   6.477   8.048  0.1355  0.1182 -0.5467
  786MOL0     C 5977   3.431   6.362   8.088 -0.1229  1.0532  0.6987
  786MOL0     O 5978   3.519   6.255   8.106  0.2730  0.0774 -1.0507
  786MOL0     C 5979   3.655   6.275   8.135 -0.2506  0.1224  0.3482
  786MOL0     C 5980   3.700   6.393   8.189 -0.7258 -0.8543  0.1707
  786MOL0     C 5981   3.836   6.427   8.202 -1.1785  1.1815 -0.3080
  786MOL0     C 5982   3.932   6.332   8.161  0.1242  0.2876  0.0583
  786MOL0     O 5983   4.065   6.336   8.158  0.0438 -0.0357 -0.9662
  786MOL0     C 5984   4.123   6.422   8.261  0.0679  0.3224  0.6336
  786MOL0     C 5985   4.270   6.446   8.218  0.6205  0.0025 -0.8393
  786MOL0     C 5986   4.365   6.346   8.277 -0.4518  0.8692 -0.2589
  786MOL0     C 5987   4.515   6.394   8.278  1.5481 -0.4846 -0.3406
  786MOL0     C 5988   4.620   6.279   8.264 -0.2866  0.0000 -0.1773
  786MOL0     C 5989   4.765   6.321   8.233 -0.5001 -0.1322 -0.3749
  786MOL0     C 5990   4.853   6.198   8.188  0.4804  0.0247 -0.2023
  786MOL0     C 5991   4.993   6.249   8.171 -0.0866  0.2984  0.4870
  786MOL0     N 5992   5.098   6.152   8.127 -0.1709  0.4500  0.5655
  786MOL0     C 5993   5.131   6.048   8.205 -0.0130 -0.0914 -0.5063
  786MOL0     C 5994   5.187   5.964   8.128 -0.0490 -0.7188  0.6530
  786MOL0     C 5995   5.266   5.842   8.168 -0.3800 -0.5990 -0.4550
  786MOL0     C 5996   5.246   5.723   8.075  0.0490  0.0304  0.6367
  786MOL0     C 5997   5.330   5.600   8.126  0.3981  0.6044  0.3032
  786MOL0     C 5998   5.273   5.475   8.050 -0.4750 -1.5719  0.8172
  786MOL0     O 5999   5.319   5.350   8.092  0.0786  0.0315 -0.4749
  786MOL0     C 6000   5.450   5.300   8.052  0.1275 -1.0786 -0.7465
  786MOL0     C 6001   5.553   5.359   7.979 -0.0007  0.0327 -0.3258
  786MOL0     C 6002   5.675   5.295   7.962  0.1319 -1.0056  0.0895
  786MOL0     C 6003   5.685   5.154   7.999  0.4364 -0.4641 -0.3752
  786MOL0     C 6004   5.821   5.086   7.993  0.4315  0.4686  0.5386
  786MOL0     O 6005   5.934   5.159   7.954 -0.2338  0.0305  1.3088
  786MOL0     C 6006   6.057   5.093   7.931 -0.8350  0.0982 -0.1867
  786MOL0     C 6007   6.110   4.975   7.985 -0.2620  0.3861 -0.4488
  786MOL0     C 6008   6.228   4.921   7.940 -0.5851  0.2334  0.6093
  786MOL0     C 6009   6.306   4.996   7.853  0.3124 -0.3769  0.5154
  786MOL0     O 6010   6.413   4.928   7.803 -0.2344  0.6749  0.7085
  786MOL0     C 6011   6.508   4.992   7.718  0.6970 -0.0818 -0.3145
  786MOL0     C 6012   6.631   5.016   7.796  0.2821  0.3794  0.1547
  786MOL0     C 6013   6.753   5.028   7.718  0.0413  0.0735 -0.2897
  786MOL0     C 6014   6.881   5.076   7.788 -0.9438 -0.0535 -0.3721
  786MOL0     C 6015   7.010   5.081   7.703  0.5979 -0.1038  0.2044
  786MOL0     C 6016   7.135   5.096   7.794 -0.1378  0.0945 -0.7473
  786MOL0     C 6017   7.252   5.100   7.704  0.0491 -1.1092 -0.5642
  786MOL0     C 6018   7.317   4.969   7.686 -0.2937  0.6896  0.7589
  786MOL0    Cl 6019   7.430   4.988   7.556  0.1532  0.2633 -0.2675
  786MOL0     C 6020   6.255   5.118   7.798 -0.0260 -0.6724 -1.0398
  786MOL0     C 6021   6.134   5.171   7.845  0.5775  0.4050  0.8978
  786MOL0     O 6022   5.815   4.965   8.014 -0.3091  0.3728  0.9561
  786MOL0     C 6023   5.584   5.099   8.073 -0.0207 -0.1286 -0.5416
  786MOL0     C 6024   5.469   5.172   8.098  0.2358  0.0893 -0.8108
  786MOL0     N 6025   5.198   6.015   7.996  0.7896 -0.3798 -0.6873
  786MOL0     N 6026   5.133   6.132   7.996 -0.4052  0.1043  0.0817
  786MOL0     C 6027   3.886   6.202   8.113 -1.1617 -0.9808  0.5203
  786MOL0     C 6028   3.747   6.180   8.113  0.1232  0.6228  0.4983
  786MOL0     C 6029   3.285   6.332   8.110 -0.1135  0.5845 -1.0948
  786MOL0     C 6030   3.194   6.440   8.093 -0.2321  0.6972  0.5544
  786MOL0     C 6031   3.056   6.421   8.097  0.0417  0.3012  0.3129
  786MOL0     C 6032   2.995   6.292   8.127  0.1358  0.3923 -0.0223
  786MOL0     O 6033   2.856   6.270   8.144  0.0045 -0.3819  0.5549
  786MOL0     C 6034   2.759   6.361   8.103  0.7246 -0.1263 -0.2271
  786MOL0     C 6035   2.637   6.277   8.086 -0.4237 -0.4189 -0.3408
  786MOL0     C 6036   2.512   6.360   8.034 -0.0155  0.5858 -0.2751
  786MOL0     C 6037   2.376   6.291   8.067 -0.0860  0.7390  0.4263
  786MOL0     C 6038   2.262   6.377   8.051  0.9925  0.2148  0.2496
  786MOL0     C 6039   2.160   6.453   8.033  0.1711  0.9142 -0.1792
  786MOL0     C 6040   3.085   6.191   8.160  0.4249 -0.1400  0.7475
  786MOL0     C 6041   3.224   6.205   8.139 -0.1790  0.3808  1.5397
  786MOL0     C 6042   3.307   6.075   8.176 -0.0040 -0.1262 -0.0072
  786MOL0     H 6043   3.631   6.460   8.238  0.4035  0.0557  0.5667
  786MOL0     H 6044   3.856   6.524   8.245 -0.6098  0.5213  0.9772
  786MOL0     H 6045   4.079   6.521   8.253  1.5994  1.0987  1.4986
  786MOL0     H 6046   4.113   6.381   8.362  1.0938 -4.6734 -1.0006
  786MOL0     H 6047   4.292   6.552   8.235 -0.7262  0.1683  0.0381
  786MOL0     H 6048   4.267   6.439   8.109  0.4529  2.5898 -1.0827
  786MOL0     H 6049   4.364   6.259   8.211 -1.5925  0.7116 -0.0456
  786MOL0     H 6050   4.328   6.310   8.373 -2.0596 -1.6648 -1.7323
  786MOL0     H 6051   4.530   6.455   8.188 -0.9484 -0.3463 -0.7337
  786MOL0     H 6052   4.535   6.453   8.367 -0.2080 -1.1753  0.5567
  786MOL0     H 6053   4.618   6.207   8.347  1.9848 -0.9326 -0.8460
  786MOL0     H 6054   4.595   6.222   8.174  2.0248  0.3468 -1.1015
  786MOL0     H 6055   4.766   6.395   8.152  4.9725  1.6316  0.9075
  786MOL0     H 6056   4.830   6.357   8.314  3.2438 -0.5551 -2.9564
  786MOL0     H 6057   4.812   6.143   8.102  1.2362  2.1317 -2.0043
  786MOL0     H 6058   4.855   6.134   8.277 -2.5061  0.8998  0.6011
  786MOL0     H 6059   4.977   6.329   8.098  0.0948 -0.9125 -0.9503
  786MOL0     H 6060   5.020   6.296   8.265 -2.0585 -2.7162  2.7729
  786MOL0     H 6061   5.128   6.037   8.313  1.9859 -0.5553 -0.4576
  786MOL0     H 6062   5.368   5.874   8.188 -1.2857  1.3155  1.5326
  786MOL0     H 6063   5.230   5.804   8.264  1.8344  3.1240  2.0809
  786MOL0     H 6064   5.142   5.688   8.079 -0.2721  1.0519  1.4223
  786MOL0     H 6065   5.278   5.750   7.974 -1.0217  1.3410  0.6204
  786MOL0     H 6066   5.315   5.591   8.234 -1.0786 -0.0266  0.0724
  786MOL0     H 6067   5.437   5.605   8.106  0.6358 -0.7938  1.0762
  786MOL0     H 6068   5.289   5.489   7.943 -4.3636  1.2673  0.3885
  786MOL0     H 6069   5.163   5.470   8.050 -0.7480  2.0264  0.4010
  786MOL0     H 6070   5.535   5.461   7.949 -2.5778 -0.7025 -1.6532
  786MOL0     H 6071   5.763   5.338   7.915 -0.2672  0.6742  0.7814
  786MOL0     H 6072   6.053   4.920   8.059 -0.1103 -0.2698 -0.8102
  786MOL0     H 6073   6.255   4.834   7.998 -0.3261 -0.0022  0.1363
  786MOL0     H 6074   6.525   4.919   7.637  0.3261 -1.4312  0.7879
  786MOL0     H 6075   6.473   5.086   7.674  0.9263  1.1220  1.9620
  786MOL0     H 6076   6.616   5.102   7.861  0.1784  1.1893 -0.9204
  786MOL0     H 6077   6.647   4.935   7.868 -0.4211  1.1279  1.1696
  786MOL0     H 6078   6.781   4.928   7.683 -0.4660 -0.4859  0.8510
  786MOL0     H 6079   6.736   5.111   7.649  0.8721 -0.7184 -1.4955
  786MOL0     H 6080   6.915   5.003   7.861  1.8031  1.7571  0.3234
  786MOL0     H 6081   6.864   5.172   7.837  0.8195  0.2246 -0.2579
  786MOL0     H 6082   6.992   5.162   7.632  3.0154  2.1617  1.9658
  786MOL0     H 6083   7.015   4.981   7.660  0.2241 -0.6978  1.5144
  786MOL0     H 6084   7.122   5.187   7.853  0.2691 -0.0623 -0.4201
  786MOL0     H 6085   7.152   5.019   7.869  2.3683  0.7087 -0.6182
  786MOL0     H 6086   7.337   5.156   7.745  1.5915 -3.8881  0.3081
  786MOL0     H 6087   7.224   5.147   7.610  1.9860 -0.0266 -0.6675
  786MOL0     H 6088   7.369   4.935   7.776 -3.3723 -1.2145  1.9621
  786MOL0     H 6089   7.251   4.901   7.632  3.0977 -1.9989 -0.4105
  786MOL0     H 6090   6.313   5.181   7.732 -0.2901  0.0040 -0.6309
  786MOL0     H 6091   6.101   5.264   7.799  0.1046 -0.1096  0.1920
  786MOL0     H 6092   5.586   4.999   8.116 -0.7707  0.6988  1.5518
  786MOL0     H 6093   5.394   5.120   8.157  1.3318 -0.8947 -0.2439
  786MOL0     H 6094   3.958   6.124   8.091  0.3820  0.2854  0.8868
  786MOL0     H 6095   3.716   6.081   8.082  1.1414  0.2515  0.6305
  786MOL0     H 6096   3.222   6.543   8.070  0.0923  0.4185 -0.3502
  786MOL0     H 6097   3.002   6.511   8.072  0.1556  0.8021  1.7859
  786MOL0     H 6098   2.768   6.414   8.007 -1.5874  0.5673 -0.1028
  786MOL0     H 6099   2.747   6.442   8.175  3.2784  0.2503 -0.1041
  786MOL0     H 6100   2.615   6.236   8.185  0.3758 -0.4402 -0.1696
  786MOL0     H 6101   2.645   6.189   8.022  0.1741 -0.7010  0.1173
  786MOL0     H 6102   2.518   6.380   7.926  1.5547 -2.3475 -0.8461
  786MOL0     H 6103   2.524   6.454   8.089  0.8247  0.1170  0.3641
  786MOL0     H 6104   2.380   6.206   7.998  0.7822 -0.6095  2.0713
  786MOL0     H 6105   2.378   6.248   8.167 -2.4029  1.4232  0.8317
  786MOL0     H 6106   2.077   6.514   8.001  1.2933  0.8460 -3.5975
  786MOL0     H 6107   3.044   6.092   8.177 -3.2289  1.2827  1.0472
  786MOL0     H 6108   3.354   6.089   8.273  1.4442  1.4686 -0.8688
  786MOL0     H 6109   3.238   5.992   8.190  0.7094 -0.4767  1.6329
  786MOL0     H 6110   3.385   6.061   8.100  1.1416  3.1523  0.3864
  787MOL0     O 6111   9.072  10.284   5.094  0.4467  0.4768  0.2189
  787MOL0     C 6112   9.170  10.352   5.127  0.5161  0.2807  0.9520
  787MOL0     O 6113   9.190  10.395   5.252 -0.0709 -0.4843 -0.4513
  787MOL0     C 6114   9.092  10.388   5.347 -0.1374 -0.0126 -0.5412
  787MOL0     C 6115   9.059  10.263   5.393 -0.6219  0.3380 -0.5521
  787MOL0     C 6116   8.967  10.249   5.505 -0.2291 -0.2865  0.4044
  787MOL0     C 6117   8.927  10.363   5.566 -0.1659  0.2073 -0.0455
  787MOL0     O 6118   8.847  10.338   5.678 -0.2532 -0.1540  0.6211
  787MOL0     C 6119   8.749  10.447   5.690  0.0136 -0.1004 -0.6025
  787MOL0     C 6120   8.621  10.400   5.759 -0.4991  1.1459 -0.2573
  787MOL0     C 6121   8.634  10.402   5.907  0.4772 -0.0074 -0.2061
  787MOL0     C 6122   8.514  10.345   5.977  0.2997  0.4825 -0.0692
  787MOL0     C 6123   8.414  10.454   6.019  0.3283  0.0168  0.0664
  787MOL0     C 6124   8.264  10.399   6.032 -0.1266  0.6478  0.5865
  787MOL0     C 6125   8.170  10.513   6.076  0.2250 -0.2779 -0.1396
  787MOL0     C 6126   8.045  10.444   6.142  0.3908  0.6057 -0.6012
  787MOL0     N 6127   8.081  10.382   6.271  0.1672  0.2041 -0.2971
  787MOL0     C 6128   8.002  10.286   6.327 -0.7772 -0.6821  0.2929
  787MOL0     C 6129   8.041  10.270   6.456  0.7575  0.4476 -0.5134
  787MOL0     C 6130   7.987  10.155   6.538 -0.3206  0.4295  0.6027
  787MOL0     C 6131   7.967  10.207   6.674 -0.0641  0.9243 -0.1671
  787MOL0     C 6132   8.072  10.158   6.774 -0.6816 -0.1609  1.3131
  787MOL0     C 6133   8.206  10.229   6.744  0.1008  0.8864 -0.3287
  787MOL0     O 6134   8.300  10.198   6.845 -0.8863  1.4017  0.4066
  787MOL0     C 6135   8.431  10.231   6.826 -0.3691  0.4772  0.0442
  787MOL0     C 6136   8.473  10.330   6.737  0.3424  0.2421  0.4921
  787MOL0     C 6137   8.612  10.356   6.709 -0.4905  0.7955  0.0048
  787MOL0     C 6138   8.703  10.278   6.775 -0.2235 -0.0268 -0.4718
  787MOL0     C 6139   8.852  10.316   6.763  0.3099 -0.2736  0.5811
  787MOL0     O 6140   8.877  10.437   6.703 -0.3762  0.2240  0.6039
  787MOL0     C 6141   9.004  10.491   6.689  0.5831  0.0101  0.9490
  787MOL0     C 6142   9.138  10.446   6.732  0.6620 -0.6213  0.0604
  787MOL0     C 6143   9.257  10.505   6.683 -0.4157 -0.4435  1.1677
  787MOL0     C 6144   9.255  10.609   6.591  0.3819 -0.7762  0.0946
  787MOL0     O 6145   9.378  10.664   6.556  0.4602  0.6926 -0.0917
  787MOL0     C 6146   9.398  10.783   6.479 -0.0295  0.6639 -0.3263
  787MOL0     C 6147   9.536  10.843   6.499 -0.5953 -0.6493 -0.5178
  787MOL0     C 6148   9.587  10.863   6.647  0.5706 -0.3680 -1.1639
  787MOL0     C 6149   9.517  10.979   6.718 -0.1917 -0.4758 -0.2104
  787MOL0     C 6150   9.540  11.106   6.638  1.0639  0.3185 -0.6835
  787MOL0     C 6151   9.479  11.224   6.718  1.4549  1.2505 -0.0692
  787MOL0     C 6152   9.326  11.205   6.754 -0.4004 -0.6236  0.1292
  787MOL0     C 6153   9.298  11.160   6.893 -0.2469  0.0727 -0.5832
  787MOL0    Cl 6154   9.127  11.173   6.904  0.4538 -0.4147  0.0027
  787MOL0     C 6155   9.133  10.663   6.553 -0.2318  0.1444  0.7632
  787MOL0     C 6156   9.012  10.606   6.598 -0.7587  0.0919  0.4289
  787MOL0     O 6157   8.938  10.240   6.805  0.5129 -0.4121 -1.1436
  787MOL0     C 6158   8.667  10.180   6.864  0.2534  0.4804 -0.3180
  787MOL0     C 6159   8.530  10.155   6.893 -0.2971  0.0853 -0.7007
  787MOL0     N 6160   8.141  10.368   6.481 -0.1002  0.2768 -0.5953
  787MOL0     N 6161   8.171  10.423   6.364 -0.0557  0.1295  0.3484
  787MOL0     C 6162   8.979  10.491   5.525 -0.2265 -0.0924 -0.0258
  787MOL0     C 6163   9.057  10.501   5.413 -0.3089  0.5686 -0.0890
  787MOL0     C 6164   9.268  10.393   5.024  0.8656 -0.4994 -1.1488
  787MOL0     C 6165   9.379  10.459   5.073 -0.3996  0.1456  0.0953
  787MOL0     C 6166   9.480  10.503   4.985 -0.4194 -0.2036  1.1404
  787MOL0     C 6167   9.485  10.473   4.852  0.0502 -0.9492  0.3652
  787MOL0     O 6168   9.598  10.529   4.790 -1.3874  0.0014 -0.0518
  787MOL0     C 6169   9.596  10.534   4.648  0.0593 -0.0618 -0.4358
  787MOL0     C 6170   9.710  10.629   4.604 -0.0835  0.4286  0.8493
  787MOL0     C 6171   9.757  10.597   4.453  0.4661  0.1787 -0.3707
  787MOL0     C 6172   9.815  10.730   4.401  0.1513 -0.0636  0.2594
  787MOL0     C 6173   9.939  10.763   4.457 -0.3741 -0.4265  0.0596
  787MOL0     C 6174  10.054  10.788   4.482  0.3251  0.7527 -0.6358
  787MOL0     C 6175   9.374  10.403   4.795  0.2509 -0.1892 -0.7963
  787MOL0     C 6176   9.272  10.351   4.887  0.9157 -0.6386  0.7282
  787MOL0     C 6177   9.154  10.288   4.819 -0.3460 -0.0614 -0.3472
  787MOL0     H 6178   9.083  10.174   5.335 -2.4876 -1.0517  0.6916
  787MOL0     H 6179   8.923  10.152   5.526 -2.3784  0.1378 -1.7467
  787MOL0     H 6180   8.799  10.530   5.740 -0.8995  1.9433 -2.8699
  787MOL0     H 6181   8.730  10.489   5.591 -2.4390 -2.6800 -1.3660
  787MOL0     H 6182   8.601  10.296   5.732 -1.9880  2.2742 -4.2572
  787MOL0     H 6183   8.539  10.463   5.721  0.6245  3.1016  0.4154
  787MOL0     H 6184   8.647  10.501   5.950  0.5901 -0.1170  0.0180
  787MOL0     H 6185   8.726  10.344   5.923  0.6076 -0.0229 -0.9911
  787MOL0     H 6186   8.458  10.266   5.925  0.5633 -1.1278  1.9225
  787MOL0     H 6187   8.543  10.304   6.075 -4.1405 -1.1200  0.8259
  787MOL0     H 6188   8.455  10.492   6.113  2.3897  4.6002 -2.3369
  787MOL0     H 6189   8.408  10.547   5.962 -1.5260  0.3525  0.7350
  787MOL0     H 6190   8.233  10.360   5.935  1.2161  1.8203 -0.3401
  787MOL0     H 6191   8.261  10.315   6.102 -3.3041 -0.4418 -0.7029
  787MOL0     H 6192   8.133  10.562   5.986 -0.6789  0.7959  0.7950
  787MOL0     H 6193   8.211  10.586   6.147 -1.8017 -1.1500  2.0599
  787MOL0     H 6194   7.973  10.515   6.182 -1.1389 -2.2475  2.1580
  787MOL0     H 6195   8.003  10.373   6.071  1.4560  0.5240 -1.1784
  787MOL0     H 6196   7.923  10.235   6.273 -3.4879 -0.7693  3.9873
  787MOL0     H 6197   7.894  10.119   6.494 -0.3380  0.8121  0.3231
  787MOL0     H 6198   8.058  10.071   6.532 -0.7169  0.1526 -0.4540
  787MOL0     H 6199   7.960  10.315   6.664  0.4729  0.8731 -1.2612
  787MOL0     H 6200   7.875  10.163   6.716  0.6028 -1.5929 -1.1276
  787MOL0     H 6201   8.073  10.050   6.789 -0.4591 -0.2022  1.0016
  787MOL0     H 6202   8.049  10.185   6.878 -0.3552  0.0479  1.3343
  787MOL0     H 6203   8.193  10.337   6.731  2.8423  1.4406  0.9343
  787MOL0     H 6204   8.237  10.191   6.646 -0.1563  1.6939 -0.7367
  787MOL0     H 6205   8.397  10.394   6.693  1.6435  2.5355  1.4268
  787MOL0     H 6206   8.637  10.437   6.641  2.0799  0.5353  0.5454
  787MOL0     H 6207   9.149  10.373   6.812  0.0822 -0.7063  0.0680
  787MOL0     H 6208   9.357  10.472   6.707  0.5965  0.9869 -0.7787
  787MOL0     H 6209   9.385  10.764   6.372  0.3589  0.3891 -0.3281
  787MOL0     H 6210   9.319  10.843   6.526 -0.6842 -2.4417  2.9714
  787MOL0     H 6211   9.588  10.761   6.449  1.7053  0.3441  0.1272
  787MOL0     H 6212   9.552  10.936   6.445  1.0482 -0.8748 -0.4693
  787MOL0     H 6213   9.569  10.776   6.711  0.4852  1.5512  1.5978
  787MOL0     H 6214   9.695  10.885   6.649  0.5142  0.2902  2.8010
  787MOL0     H 6215   9.571  10.981   6.813 -0.7449 -1.7833  0.1572
  787MOL0     H 6216   9.410  10.954   6.727 -0.5256  1.0230  0.1831
  787MOL0     H 6217   9.495  11.099   6.539  1.2053 -0.9345 -0.6667
  787MOL0     H 6218   9.646  11.122   6.620  1.2447 -0.6452 -0.5108
  787MOL0     H 6219   9.543  11.248   6.804  1.3239  1.3268  0.0091
  787MOL0     H 6220   9.504  11.307   6.651  2.1391  1.1945  0.1072
  787MOL0     H 6221   9.280  11.144   6.676  0.3556 -0.1255 -0.7318
  787MOL0     H 6222   9.272  11.300   6.757 -2.7951 -1.9006  2.8318
  787MOL0     H 6223   9.336  11.061   6.921  3.1432  0.6934 -2.4190
  787MOL0     H 6224   9.354  11.224   6.961 -0.1203 -2.2137  1.6462
  787MOL0     H 6225   9.129  10.745   6.482 -2.4351  0.0900  0.7564
  787MOL0     H 6226   8.915  10.639   6.561 -2.0002 -3.7604 -0.2495
  787MOL0     H 6227   8.738  10.130   6.929 -0.2476 -0.9135 -0.8093
  787MOL0     H 6228   8.502  10.086   6.971  0.0272  1.9542  1.1543
  787MOL0     H 6229   8.944  10.579   5.578 -0.2344  0.4681 -0.9324
  787MOL0     H 6230   9.095  10.592   5.369  0.3228  0.1088 -0.5110
  787MOL0     H 6231   9.394  10.494   5.175  1.2701 -2.0931  0.7075
  787MOL0     H 6232   9.559  10.572   5.013  1.0006 -0.8564 -1.0461
  787MOL0     H 6233   9.507  10.574   4.598  1.7221  1.8304 -2.0372
  787MOL0     H 6234   9.625  10.436   4.608  3.0654 -1.3617  4.1032
  787MOL0     H 6235   9.798  10.628   4.670  0.4190  1.9533  0.2577
  787MOL0     H 6236   9.681  10.735   4.609 -2.3452 -0.1270  0.4716
  787MOL0     H 6237   9.678  10.584   4.379 -0.0768  2.4645 -0.2551
  787MOL0     H 6238   9.829  10.514   4.444 -1.4479 -1.3389 -3.3131
  787MOL0     H 6239   9.829  10.706   4.295  2.2989  1.1422  0.2113
  787MOL0     H 6240   9.738  10.807   4.409 -1.2388 -1.4348  0.5677
  787MOL0     H 6241  10.151  10.810   4.522  0.2732 -0.5032  0.2243
  787MOL0     H 6242   9.353  10.376   4.692  0.1475 -1.6833 -0.4165
  787MOL0     H 6243   9.180  10.261   4.717 -1.3242  0.6756 -0.8048
  787MOL0     H 6244   9.112  10.194   4.857 -3.2593  0.2674 -2.4461
  787MOL0     H 6245   9.073  10.362   4.824  0.3082  0.7701 -1.4711
  788MOL0     O 6246   8.937   5.336   5.877  0.4015  0.5298  0.7039
  788MOL0     C 6247   8.909   5.359   5.993  0.6448  0.8643  0.0104
  788MOL0     O 6248   8.974   5.441   6.080 -0.4992 -0.6600 -0.6489
  788MOL0     C 6249   9.064   5.543   6.034  0.1021  0.6478 -0.6205
  788MOL0     C 6250   9.123   5.620   6.133 -0.1563  0.2147 -0.2197
  788MOL0     C 6251   9.211   5.727   6.098  0.3014  0.5540  0.2140
  788MOL0     C 6252   9.241   5.756   5.963 -0.1560  0.0671  0.3940
  788MOL0     O 6253   9.319   5.863   5.923  0.7580  0.5319 -0.2829
  788MOL0     C 6254   9.384   5.935   6.020 -0.7752 -0.0317  0.4931
  788MOL0     C 6255   9.482   6.026   5.946 -0.6177  0.4315  0.4306
  788MOL0     C 6256   9.550   6.136   6.037 -0.5075  0.1168  0.5460
  788MOL0     C 6257   9.455   6.245   6.081 -0.1549  0.0229 -1.0951
  788MOL0     C 6258   9.537   6.367   6.135  0.8262 -0.7439  0.1725
  788MOL0     C 6259   9.452   6.480   6.196  0.2067 -0.0355 -0.6476
  788MOL0     C 6260   9.349   6.550   6.100 -0.0192  0.3454  0.2728
  788MOL0     C 6261   9.204   6.494   6.119  0.2499  0.5706  0.1145
  788MOL0     N 6262   9.086   6.550   6.054 -0.7166 -0.5118  0.2426
  788MOL0     C 6263   9.083   6.666   5.982 -0.7479 -0.6816  0.2235
  788MOL0     C 6264   8.958   6.698   5.962  0.2115 -0.4325  0.3656
  788MOL0     C 6265   8.901   6.821   5.886 -0.2342  0.4309 -0.1040
  788MOL0     C 6266   8.857   6.934   5.972 -0.7998  0.0104  0.7245
  788MOL0     C 6267   8.721   6.904   6.040 -0.2334 -0.7316  0.0831
  788MOL0     C 6268   8.664   7.008   6.143  0.0531 -0.0428 -0.6440
  788MOL0     O 6269   8.676   7.140   6.092 -0.9399 -0.6393 -0.3772
  788MOL0     C 6270   8.585   7.198   6.017  0.0986 -0.8690 -0.5857
  788MOL0     C 6271   8.634   7.327   5.988 -0.8180 -0.3161 -0.6484
  788MOL0     C 6272   8.556   7.412   5.912 -1.2286  0.2367 -0.9072
  788MOL0     C 6273   8.432   7.367   5.863  0.0152 -1.4540  0.3621
  788MOL0     C 6274   8.349   7.453   5.772  0.2988  0.2097  0.3900
  788MOL0     O 6275   8.404   7.515   5.659  1.2192  0.7138  0.4606
  788MOL0     C 6276   8.320   7.570   5.567 -0.4222 -0.1840  1.2390
  788MOL0     C 6277   8.324   7.708   5.564 -0.1176 -0.9131 -0.2071
  788MOL0     C 6278   8.270   7.775   5.450 -0.7757 -0.5052  0.6454
  788MOL0     C 6279   8.215   7.696   5.349 -0.4487 -0.0990 -0.3918
  788MOL0     O 6280   8.173   7.774   5.244  0.3162 -0.0400 -0.2479
  788MOL0     C 6281   8.171   7.706   5.120 -0.3626 -0.8004  0.2568
  788MOL0     C 6282   8.214   7.816   5.011  0.1924 -0.1512 -0.1045
  788MOL0     C 6283   8.102   7.908   4.971 -0.0450  0.8080  0.2071
  788MOL0     C 6284   8.128   7.990   4.851 -0.3172  0.2585  0.2068
  788MOL0     C 6285   8.061   7.947   4.724  0.7543 -0.3738 -0.6233
  788MOL0     C 6286   8.082   8.048   4.614  0.1484 -0.2095 -0.8817
  788MOL0     C 6287   8.004   8.015   4.485 -0.3990 -0.1898  0.2394
  788MOL0     C 6288   8.058   8.092   4.368 -0.1229 -0.1462  0.6002
  788MOL0    Cl 6289   8.217   8.041   4.322  0.4509 -0.2078 -0.0450
  788MOL0     C 6290   8.196   7.555   5.366 -0.2574  0.0216  0.2480
  788MOL0     C 6291   8.259   7.493   5.473 -0.3540 -0.7599 -0.2115
  788MOL0     O 6292   8.220   7.459   5.791  0.3691  0.4509  0.2090
  788MOL0     C 6293   8.392   7.238   5.876 -1.1946  0.2254 -0.0459
  788MOL0     C 6294   8.465   7.151   5.958  0.9107  0.8475 -0.7909
  788MOL0     N 6295   8.887   6.588   6.015 -0.6826 -0.4121  0.1641
  788MOL0     N 6296   8.960   6.505   6.071  0.0591 -0.0098 -1.5647
  788MOL0     C 6297   9.189   5.672   5.862  0.4483  0.2967 -0.5407
  788MOL0     C 6298   9.100   5.569   5.893 -0.3687 -0.1642 -1.3408
  788MOL0     C 6299   8.785   5.304   6.053 -1.2889  0.6794  0.7416
  788MOL0     C 6300   8.741   5.345   6.176  0.1399  0.3234  0.0463
  788MOL0     C 6301   8.638   5.275   6.238  1.1290  0.7238  0.3481
  788MOL0     C 6302   8.562   5.170   6.170 -0.0674  0.2038  0.5535
  788MOL0     O 6303   8.463   5.089   6.221 -0.3176  0.6208  1.1685
  788MOL0     C 6304   8.402   5.119   6.348 -0.4748  0.6402 -0.4231
  788MOL0     C 6305   8.253   5.108   6.324  0.0492 -0.2644 -0.2375
  788MOL0     C 6306   8.209   4.983   6.246  0.4730  0.4861 -0.2894
  788MOL0     C 6307   8.052   4.971   6.257  0.0214  0.5382  0.0022
  788MOL0     C 6308   8.010   4.858   6.175 -0.2425  0.0570  0.0049
  788MOL0     C 6309   7.967   4.755   6.135 -0.1401  0.4348 -1.3783
  788MOL0     C 6310   8.596   5.136   6.045  0.2569  0.7427  0.3355
  788MOL0     C 6311   8.708   5.201   5.980 -0.0252 -0.0476 -0.4201
  788MOL0     C 6312   8.732   5.158   5.831  0.1061 -0.6099 -0.1707
  788MOL0     H 6313   9.094   5.610   6.238 -1.1219  1.8187 -0.3017
  788MOL0     H 6314   9.251   5.775   6.186  1.6957 -2.9608  1.6609
  788MOL0     H 6315   9.311   5.990   6.080 -1.3038 -0.1432 -0.0357
  788MOL0     H 6316   9.439   5.877   6.095  1.8469  1.5426 -0.0595
  788MOL0     H 6317   9.435   6.074   5.859  0.5732  2.1306  0.6769
  788MOL0     H 6318   9.559   5.961   5.904 -0.2108  0.0201  1.7731
  788MOL0     H 6319   9.629   6.176   5.973  0.7408 -1.0703  1.2889
  788MOL0     H 6320   9.597   6.093   6.126  1.8520  0.4122 -0.4983
  788MOL0     H 6321   9.402   6.273   5.990  3.9966  1.0893 -3.4524
  788MOL0     H 6322   9.392   6.204   6.161  2.1317 -1.7488 -0.0688
  788MOL0     H 6323   9.607   6.337   6.213  0.9747 -0.8415  0.0050
  788MOL0     H 6324   9.590   6.405   6.047 -2.2282 -2.6695 -2.7725
  788MOL0     H 6325   9.399   6.437   6.282 -0.0270  0.9360 -0.2907
  788MOL0     H 6326   9.523   6.555   6.232 -0.1777  1.0958 -2.1559
  788MOL0     H 6327   9.375   6.536   5.995 -0.9437  0.2545  0.0464
  788MOL0     H 6328   9.341   6.658   6.119  0.5496  1.0493 -2.9120
  788MOL0     H 6329   9.208   6.392   6.079  1.5774 -0.0654  1.7361
  788MOL0     H 6330   9.198   6.493   6.228 -0.0526  1.7634  0.1127
  788MOL0     H 6331   9.161   6.725   5.935  1.6310 -3.2414  0.7073
  788MOL0     H 6332   8.957   6.863   5.802 -0.7783 -1.3226 -1.4085
  788MOL0     H 6333   8.808   6.782   5.841  0.2465 -1.7277  0.6481
  788MOL0     H 6334   8.935   6.946   6.048 -0.2425 -1.1544  0.3511
  788MOL0     H 6335   8.837   7.017   5.904  1.2749 -0.0728 -0.0607
  788MOL0     H 6336   8.731   6.810   6.095  4.1487 -1.1851 -1.0635
  788MOL0     H 6337   8.660   6.894   5.949  2.0277 -0.8755 -1.5054
  788MOL0     H 6338   8.714   7.002   6.240  1.1646  0.4706 -1.1812
  788MOL0     H 6339   8.554   7.002   6.147 -0.0371  0.4953 -1.8039
  788MOL0     H 6340   8.731   7.351   6.030 -0.6500 -1.7353 -0.1917
  788MOL0     H 6341   8.593   7.514   5.904  0.6830 -0.1300  1.8834
  788MOL0     H 6342   8.377   7.755   5.647  0.9684 -1.1071 -0.7709
  788MOL0     H 6343   8.264   7.883   5.439  0.1810 -0.4973  0.0284
  788MOL0     H 6344   8.248   7.629   5.113 -3.1602 -4.6276  5.4644
  788MOL0     H 6345   8.081   7.650   5.094 -0.6467 -0.3194  0.1705
  788MOL0     H 6346   8.296   7.874   5.055  2.0687 -2.1907 -0.7072
  788MOL0     H 6347   8.261   7.773   4.922 -0.1419  0.2771 -0.4899
  788MOL0     H 6348   8.012   7.848   4.960 -0.1939  1.0936 -0.1321
  788MOL0     H 6349   8.084   7.972   5.058 -0.8628 -2.5779  2.7476
  788MOL0     H 6350   8.235   8.006   4.835 -0.1357 -0.7542  0.3398
  788MOL0     H 6351   8.085   8.089   4.866 -4.0259 -0.6958 -2.5412
  788MOL0     H 6352   7.953   7.936   4.743  0.8703  0.1089  0.3724
  788MOL0     H 6353   8.091   7.847   4.689  0.4229  0.0452 -2.2066
  788MOL0     H 6354   8.052   8.146   4.652 -0.9924 -1.2954  1.1589
  788MOL0     H 6355   8.190   8.039   4.606  0.0308 -1.0166 -1.8472
  788MOL0     H 6356   7.897   8.038   4.495 -0.4929 -0.9743  1.2434
  788MOL0     H 6357   8.008   7.908   4.464 -3.7640 -1.0193  2.7938
  788MOL0     H 6358   7.982   8.091   4.289 -0.8703  3.3577  1.1271
  788MOL0     H 6359   8.058   8.198   4.394  0.8959  0.8987 -3.1285
  788MOL0     H 6360   8.131   7.505   5.296 -2.6993  1.8329  1.0757
  788MOL0     H 6361   8.264   7.386   5.485  1.7392 -1.0060 -2.4949
  788MOL0     H 6362   8.300   7.204   5.831 -0.7769 -0.5497 -0.3376
  788MOL0     H 6363   8.421   7.055   5.980  1.2887  1.0602  1.1280
  788MOL0     H 6364   9.211   5.693   5.758 -1.7002  0.0377 -1.1066
  788MOL0     H 6365   9.056   5.517   5.809 -3.7733 -2.3613  1.4946
  788MOL0     H 6366   8.777   5.437   6.220 -0.4873 -0.8358  3.2453
  788MOL0     H 6367   8.601   5.293   6.339  1.5536 -1.7317  1.0018
  788MOL0     H 6368   8.430   5.217   6.386 -0.8994  0.9655 -0.9388
  788MOL0     H 6369   8.441   5.051   6.424  0.3380  1.4966 -0.0600
  788MOL0     H 6370   8.216   5.203   6.283  0.7513  1.2120  2.3158
  788MOL0     H 6371   8.197   5.107   6.418  1.3546 -0.1999  0.5664
  788MOL0     H 6372   8.259   4.889   6.269  1.8938  0.8611 -1.6638
  788MOL0     H 6373   8.234   4.997   6.140 -0.3803 -0.7524 -0.6761
  788MOL0     H 6374   8.011   4.968   6.358  2.2123 -1.0832  0.9304
  788MOL0     H 6375   8.009   5.064   6.218  2.9282  2.0269 -0.0135
  788MOL0     H 6376   7.936   4.658   6.099  0.4341  0.1567 -1.1351
  788MOL0     H 6377   8.535   5.067   5.989 -3.2877  0.3818  4.1472
  788MOL0     H 6378   8.835   5.126   5.813 -0.0192 -0.3810 -1.3563
  788MOL0     H 6379   8.660   5.091   5.783 -1.7335  1.8582 -1.0157
  788MOL0     H 6380   8.718   5.245   5.767  0.5662  0.0029  0.5434
  789MOL0     O 6381   5.876   3.255  10.775  0.0309 -0.2099  0.1398
  789MOL0     C 6382   5.819   3.334  10.705  0.3523  0.3212  0.1754
  789MOL0     O 6383   5.832   3.330  10.570 -0.3429 -0.5279  0.2110
  789MOL0     C 6384   5.912   3.241  10.501 -0.3105 -0.2116  0.5363
  789MOL0     C 6385   5.893   3.100  10.507  0.7258 -0.7935  0.0590
  789MOL0     C 6386   5.971   3.009  10.440  0.4508  1.2590 -1.1104
  789MOL0     C 6387   6.081   3.062  10.383  0.1051  0.4354  0.3862
  789MOL0     O 6388   6.174   2.988  10.314  0.4173  0.2554  0.7873
  789MOL0     C 6389   6.130   2.876  10.244  0.0550  0.8488 -0.3247
  789MOL0     C 6390   6.244   2.819  10.142  0.5309  0.2283 -0.2678
  789MOL0     C 6391   6.271   2.913  10.033 -0.1087 -0.5487 -0.0684
  789MOL0     C 6392   6.351   2.855   9.919 -0.3087  1.5112 -0.0042
  789MOL0     C 6393   6.318   2.913   9.779 -1.2722  1.0010  0.8460
  789MOL0     C 6394   6.410   2.832   9.664  0.6163  0.0431  0.3653
  789MOL0     C 6395   6.352   2.845   9.522 -0.3772  0.3419  0.1705
  789MOL0     C 6396   6.353   2.981   9.462  0.0343 -1.3914  0.6677
  789MOL0     N 6397   6.338   3.001   9.316 -0.2519  0.1736 -0.0995
  789MOL0     C 6398   6.375   2.906   9.218  0.4490 -0.2959 -0.3781
  789MOL0     C 6399   6.365   2.981   9.104 -0.3352 -0.6948 -0.3568
  789MOL0     C 6400   6.385   2.931   8.962 -1.2195  0.1651  1.1365
  789MOL0     C 6401   6.546   2.932   8.928  0.1476 -0.2632  0.2249
  789MOL0     C 6402   6.625   2.795   8.969  0.4824  0.8157  0.4154
  789MOL0     C 6403   6.770   2.809   8.924 -0.4457  1.1366  0.2324
  789MOL0     O 6404   6.843   2.680   8.942  0.3177 -0.2026 -0.7986
  789MOL0     C 6405   6.974   2.684   8.910 -0.0642  0.0272 -0.3436
  789MOL0     C 6406   7.036   2.756   8.803  0.4519 -0.2013  0.4473
  789MOL0     C 6407   7.172   2.763   8.793  0.3885 -0.0229  0.5565
  789MOL0     C 6408   7.256   2.697   8.881  0.9333 -0.1144  0.0174
  789MOL0     C 6409   7.406   2.721   8.872 -0.1497  0.4433 -0.1953
  789MOL0     O 6410   7.452   2.838   8.825  0.1398 -0.3288  0.0889
  789MOL0     C 6411   7.592   2.858   8.825 -0.3480  0.1013  0.0221
  789MOL0     C 6412   7.685   2.770   8.759  0.1054  0.2949  0.3272
  789MOL0     C 6413   7.820   2.806   8.754  0.2278 -0.5813  0.2049
  789MOL0     C 6414   7.871   2.923   8.808  0.1307 -0.2627  0.0497
  789MOL0     O 6415   8.000   2.953   8.776 -0.3594 -0.1216  0.0804
  789MOL0     C 6416   8.011   3.059   8.681 -0.1661 -0.3577  0.4589
  789MOL0     C 6417   8.155   3.045   8.629  0.2961  1.1675 -0.2431
  789MOL0     C 6418   8.196   3.152   8.530 -0.3269 -0.6733  0.5785
  789MOL0     C 6419   8.276   3.262   8.593  0.6508 -0.5112 -0.9453
  789MOL0     C 6420   8.225   3.400   8.543 -0.0992  0.7768  0.3641
  789MOL0     C 6421   8.267   3.423   8.402 -0.4387 -0.1293 -0.4893
  789MOL0     C 6422   8.420   3.465   8.386  1.9913  0.2424 -0.2752
  789MOL0     C 6423   8.479   3.412   8.253 -0.0066 -0.2314  0.3221
  789MOL0    Cl 6424   8.402   3.513   8.126  0.1080  0.3448 -0.1133
  789MOL0     C 6425   7.786   3.002   8.880  0.2257  0.4994  0.0895
  789MOL0     C 6426   7.643   2.972   8.888 -0.5158  0.2380  1.0155
  789MOL0     O 6427   7.476   2.635   8.919  0.8741  0.4207 -0.5301
  789MOL0     C 6428   7.195   2.616   8.978 -0.1595 -0.5634 -0.3481
  789MOL0     C 6429   7.057   2.605   8.991 -0.7038 -0.6077  0.7804
  789MOL0     N 6430   6.315   3.109   9.135 -0.8690  0.0522  0.3748
  789MOL0     N 6431   6.300   3.120   9.260 -0.2849 -0.2944 -0.2876
  789MOL0     C 6432   6.110   3.199  10.382 -0.7046 -1.1096  0.2059
  789MOL0     C 6433   6.029   3.292  10.449 -0.2237  0.2040  0.2371
  789MOL0     C 6434   5.741   3.434  10.782  0.2605 -0.5603 -0.3522
  789MOL0     C 6435   5.689   3.534  10.704  1.1056  0.3379  0.2016
  789MOL0     C 6436   5.610   3.627  10.781  0.2436  1.1023  0.1883
  789MOL0     C 6437   5.596   3.637  10.917 -0.2861 -0.6732  0.2376
  789MOL0     O 6438   5.515   3.718  10.990  0.3227  0.0201  0.7201
  789MOL0     C 6439   5.418   3.804  10.912 -0.6668 -0.5320 -0.8022
  789MOL0     C 6440   5.332   3.882  11.010 -0.2036 -0.2208  0.3725
  789MOL0     C 6441   5.228   3.976  10.936 -0.7181  0.3567 -0.1528
  789MOL0     C 6442   5.128   4.048  11.025  0.0629 -0.0891 -0.0847
  789MOL0     C 6443   5.204   4.150  11.102  0.8947 -0.1030 -0.3706
  789MOL0     C 6444   5.268   4.220  11.176 -0.5504  0.2702 -0.1176
  789MOL0     C 6445   5.656   3.536  10.987  0.6593 -0.2751 -0.7834
  789MOL0     C 6446   5.732   3.432  10.924  0.7511  0.4114 -1.1060
  789MOL0     C 6447   5.783   3.331  11.015 -0.0982 -1.3282 -0.5679
  789MOL0     H 6448   5.798   3.059  10.539  2.0698 -5.6564 -1.2931
  789MOL0     H 6449   5.935   2.908  10.427  0.2105  1.0990  0.6419
  789MOL0     H 6450   6.121   2.798  10.321 -1.5166 -1.1223 -2.3382
  789MOL0     H 6451   6.039   2.883  10.183  2.3678 -1.7223 -4.6118
  789MOL0     H 6452   6.202   2.729  10.095  0.6925  0.5032 -0.9477
  789MOL0     H 6453   6.340   2.795  10.190 -0.1467 -2.0249  0.0921
  789MOL0     H 6454   6.319   3.004  10.068  1.9661 -0.1812 -3.4286
  789MOL0     H 6455   6.172   2.930   9.988  0.1710  0.3925 -0.3565
  789MOL0     H 6456   6.457   2.870   9.944  0.4990 -0.3644 -1.9784
  789MOL0     H 6457   6.335   2.747   9.905 -0.9848  1.6733 -0.5365
  789MOL0     H 6458   6.212   2.905   9.757 -0.9417  2.4049 -1.5825
  789MOL0     H 6459   6.350   3.017   9.780  0.4354  0.5322 -0.2761
  789MOL0     H 6460   6.518   2.848   9.670  0.9890 -0.4144 -3.0663
  789MOL0     H 6461   6.407   2.724   9.683 -0.2742 -0.0432 -0.1885
  789MOL0     H 6462   6.252   2.801   9.517  0.5965 -2.2845  1.3713
  789MOL0     H 6463   6.411   2.784   9.454 -1.2322 -1.0422  0.6243
  789MOL0     H 6464   6.287   3.057   9.505  0.0846  0.3907 -2.1496
  789MOL0     H 6465   6.452   3.014   9.496 -0.5153 -0.8376  1.8033
  789MOL0     H 6466   6.415   2.807   9.238 -0.2557 -0.1615  1.9661
  789MOL0     H 6467   6.346   2.829   8.962  3.6216 -1.9725 -0.2013
  789MOL0     H 6468   6.342   3.000   8.889  0.1545 -0.1491  0.0019
  789MOL0     H 6469   6.549   2.948   8.820 -1.7813 -0.1091  0.1619
  789MOL0     H 6470   6.587   3.023   8.972 -1.1679  1.3958 -1.7818
  789MOL0     H 6471   6.575   2.713   8.918  0.0029  1.9153 -0.9520
  789MOL0     H 6472   6.622   2.790   9.078 -4.1737  0.2236  0.4268
  789MOL0     H 6473   6.818   2.900   8.964  3.3150  0.1787 -1.6161
  789MOL0     H 6474   6.774   2.822   8.816  0.6137 -1.8025 -0.1751
  789MOL0     H 6475   6.969   2.798   8.729  2.0054 -0.7261 -1.3332
  789MOL0     H 6476   7.209   2.816   8.705  1.9701 -2.7631 -0.5793
  789MOL0     H 6477   7.643   2.680   8.716  1.3640 -0.3177  0.3371
  789MOL0     H 6478   7.878   2.740   8.690 -0.3666 -0.6289 -0.2978
  789MOL0     H 6479   7.936   3.052   8.602 -1.5834  0.0239  1.7208
  789MOL0     H 6480   8.001   3.156   8.730 -2.8506 -0.9405  1.2212
  789MOL0     H 6481   8.222   3.030   8.713 -3.0166 -1.2350  2.2511
  789MOL0     H 6482   8.152   2.952   8.571  1.0324  0.0058  1.5256
  789MOL0     H 6483   8.253   3.100   8.453 -1.4330 -2.8091  1.1272
  789MOL0     H 6484   8.105   3.176   8.474 -2.0794 -0.4280  3.3250
  789MOL0     H 6485   8.380   3.247   8.563  1.0452 -1.0628  0.5925
  789MOL0     H 6486   8.266   3.251   8.701 -4.2305 -1.3279 -1.2473
  789MOL0     H 6487   8.255   3.484   8.606 -1.1433  2.0935 -0.8109
  789MOL0     H 6488   8.115   3.398   8.543 -0.1229 -0.8450  2.2074
  789MOL0     H 6489   8.242   3.344   8.331  0.5347 -1.5331  0.6731
  789MOL0     H 6490   8.211   3.512   8.370  0.0632  0.4631  0.2539
  789MOL0     H 6491   8.477   3.422   8.469  2.0986  3.4376  1.4328
  789MOL0     H 6492   8.419   3.574   8.374  1.3808  0.0739 -2.1867
  789MOL0     H 6493   8.585   3.437   8.263  0.3043 -1.0300 -0.7469
  789MOL0     H 6494   8.467   3.304   8.242 -1.8671  0.0812 -1.1866
  789MOL0     H 6495   7.829   3.093   8.921  0.1709 -0.6433  2.9610
  789MOL0     H 6496   7.574   3.041   8.935  0.5071  2.5361 -0.6186
  789MOL0     H 6497   7.261   2.568   9.048 -0.8062 -1.2286 -0.1815
  789MOL0     H 6498   7.023   2.541   9.072  0.7174  0.8935  2.6555
  789MOL0     H 6499   6.197   3.234  10.327 -2.3688  0.8461 -1.3690
  789MOL0     H 6500   6.058   3.396  10.452  3.6989 -0.7616  0.4743
  789MOL0     H 6501   5.699   3.526  10.597 -0.2116 -3.1231  0.2238
  789MOL0     H 6502   5.546   3.684  10.714 -2.7081 -0.6844  1.2931
  789MOL0     H 6503   5.342   3.736  10.871 -0.5507 -1.1569  0.0002
  789MOL0     H 6504   5.470   3.870  10.842  1.8722 -1.0988  0.4654
  789MOL0     H 6505   5.407   3.935  11.069  0.8270 -2.8145  1.5533
  789MOL0     H 6506   5.289   3.811  11.081  2.2103 -0.3863  1.7670
  789MOL0     H 6507   5.168   3.908  10.874 -0.0812 -1.8299  1.5058
  789MOL0     H 6508   5.280   4.046  10.871  0.2095  1.0457  1.2810
  789MOL0     H 6509   5.049   4.101  10.972 -2.3763  0.0549  3.3889
  789MOL0     H 6510   5.074   3.982  11.093  1.5458 -0.9373  0.3119
  789MOL0     H 6511   5.318   4.283  11.247 -0.4062 -1.1718  1.0970
  789MOL0     H 6512   5.660   3.531  11.095 -0.8394 -0.5388 -0.7137
  789MOL0     H 6513   5.749   3.231  10.985  0.7632 -1.9588  0.5156
  789MOL0     H 6514   5.892   3.332  11.012 -0.1122 -0.4086 -1.3043
  789MOL0     H 6515   5.745   3.337  11.117  0.8161 -1.2289 -0.2278
  790MOL0     O 6516   3.024  11.260   0.712  1.0219 -0.2010  0.1447
  790MOL0     C 6517   3.116  11.339   0.746  0.6400 -0.5840  0.3184
  790MOL0     O 6518   3.210  11.312   0.843  0.8469 -0.4601  0.3036
  790MOL0     C 6519   3.219  11.187   0.888  0.8360  0.8941  0.4477
  790MOL0     C 6520   3.341  11.123   0.874 -0.1639 -0.3764 -0.7059
  790MOL0     C 6521   3.369  10.992   0.913  0.1736 -0.0700 -0.6712
  790MOL0     C 6522   3.264  10.921   0.971  0.0806  0.1073 -0.4073
  790MOL0     O 6523   3.307  10.794   1.007  0.3461 -0.2149  0.0054
  790MOL0     C 6524   3.223  10.737   1.110  0.1048  0.7655 -0.7157
  790MOL0     C 6525   3.282  10.599   1.147 -0.0716 -0.1654 -0.5600
  790MOL0     C 6526   3.403  10.620   1.237  0.0416  0.0257 -0.0542
  790MOL0     C 6527   3.516  10.515   1.207  0.2899  0.2413 -0.1831
  790MOL0     C 6528   3.613  10.514   1.322 -0.0058  0.1477 -0.5141
  790MOL0     C 6529   3.747  10.458   1.260  0.4138 -0.7795 -0.1051
  790MOL0     C 6530   3.862  10.474   1.369  0.2798 -0.2120 -0.2342
  790MOL0     C 6531   3.989  10.438   1.286 -0.0667 -0.3112 -0.9342
  790MOL0     N 6532   4.112  10.440   1.367  1.2608  0.2798  0.5948
  790MOL0     C 6533   4.129  10.348   1.465 -0.1320  0.0192  1.1136
  790MOL0     C 6534   4.252  10.380   1.512  0.7377 -0.6827 -0.5738
  790MOL0     C 6535   4.308  10.330   1.640  0.3692  0.3151 -0.0794
  790MOL0     C 6536   4.432  10.235   1.618  0.5965 -0.1202  0.1476
  790MOL0     C 6537   4.490  10.178   1.752  0.2295 -0.4930 -0.5136
  790MOL0     C 6538   4.640  10.190   1.773  0.1469 -0.3380 -0.8287
  790MOL0     O 6539   4.685  10.136   1.897  1.4382 -0.4483 -0.5668
  790MOL0     C 6540   4.814  10.159   1.936  0.4351  0.4049  0.4715
  790MOL0     C 6541   4.846  10.099   2.052 -0.0316 -0.0745  0.1389
  790MOL0     C 6542   4.977  10.112   2.095 -0.4649  0.1383  0.3070
  790MOL0     C 6543   5.078  10.182   2.017 -0.3450  0.6139 -1.4885
  790MOL0     C 6544   5.216  10.191   2.067  0.1465  0.5728  0.3007
  790MOL0     O 6545   5.282  10.309   2.046 -0.2916  0.5456  0.1290
  790MOL0     C 6546   5.416  10.329   2.047  0.7010 -0.2875  0.1775
  790MOL0     C 6547   5.453  10.451   2.103 -0.4862  0.9040 -0.2091
  790MOL0     C 6548   5.577  10.508   2.087  0.8617 -0.4488 -0.7540
  790MOL0     C 6549   5.664  10.444   2.007 -0.0337 -0.4589  0.0516
  790MOL0     O 6550   5.780  10.504   1.976 -0.3832  0.0052 -0.8023
  790MOL0     C 6551   5.800  10.648   1.963 -0.4362  0.6318 -0.2872
  790MOL0     C 6552   5.874  10.683   1.840  0.2483  0.2864  0.1868
  790MOL0     C 6553   6.013  10.610   1.819 -0.6550 -1.2379  0.8585
  790MOL0     C 6554   6.120  10.653   1.926 -0.5592  0.2625 -0.6125
  790MOL0     C 6555   6.257  10.587   1.905  0.2426  0.0850  0.1559
  790MOL0     C 6556   6.357  10.617   2.026 -0.9665 -0.9002  0.5429
  790MOL0     C 6557   6.363  10.763   2.059  0.0810 -0.2016 -0.2502
  790MOL0     C 6558   6.515  10.811   2.112  0.1423  0.9707 -0.3754
  790MOL0    Cl 6559   6.526  10.993   2.105  0.4999 -0.3301 -0.1448
  790MOL0     C 6560   5.631  10.320   1.944  0.2794  0.4876 -0.8924
  790MOL0     C 6561   5.510  10.266   1.971  0.6601 -0.5962  0.0340
  790MOL0     O 6562   5.274  10.080   2.104  0.0385  0.5241  0.1569
  790MOL0     C 6563   5.038  10.230   1.897 -0.8148  0.7284 -0.6323
  790MOL0     C 6564   4.913  10.220   1.851  0.0223 -0.4723 -0.2813
  790MOL0     N 6565   4.309  10.481   1.435 -0.6146  0.0740  0.4962
  790MOL0     N 6566   4.224  10.509   1.345  0.1164  0.1139  0.2427
  790MOL0     C 6567   3.130  10.974   0.974  0.6724 -0.1782  0.2336
  790MOL0     C 6568   3.108  11.113   0.938  0.2859  0.4427  0.2731
  790MOL0     C 6569   3.124  11.475   0.682 -0.6072  0.7816 -0.2257
  790MOL0     C 6570   3.218  11.566   0.727 -0.0614 -0.1505  0.1274
  790MOL0     C 6571   3.226  11.691   0.669 -0.5358  0.4454 -0.2303
  790MOL0     C 6572   3.155  11.718   0.551  0.2081 -0.4747  0.0915
  790MOL0     O 6573   3.174  11.839   0.493 -0.2065  0.6580 -0.1334
  790MOL0     C 6574   3.057  11.918   0.469  0.8755  0.3499 -0.2119
  790MOL0     C 6575   2.980  11.956   0.598  0.4165  0.0297 -0.3372
  790MOL0     C 6576   3.068  12.064   0.668  0.9229  0.7029 -0.6684
  790MOL0     C 6577   3.001  12.139   0.780 -0.5164  0.0078 -0.5112
  790MOL0     C 6578   3.002  12.055   0.899 -0.9025 -0.3458 -0.0119
  790MOL0     C 6579   3.019  11.988   0.997 -0.3956 -0.2726  0.3522
  790MOL0     C 6580   3.069  11.623   0.499 -0.5512 -0.3465 -0.1370
  790MOL0     C 6581   3.044  11.504   0.566 -0.6258 -0.6255 -0.4593
  790MOL0     C 6582   2.937  11.414   0.502 -0.4844  0.3235 -0.2484
  790MOL0     H 6583   3.427  11.172   0.831 -0.8795  0.1193 -1.6088
  790MOL0     H 6584   3.465  10.942   0.913 -0.4264 -1.3081 -2.1434
  790MOL0     H 6585   3.225  10.802   1.198 -0.5343  0.9499 -0.8333
  790MOL0     H 6586   3.122  10.729   1.069  0.0931  1.0970 -0.7554
  790MOL0     H 6587   3.323  10.551   1.058  3.4971  0.1790  0.7184
  790MOL0     H 6588   3.211  10.526   1.189  1.1182 -2.1281 -1.7974
  790MOL0     H 6589   3.364  10.609   1.339 -0.4869  3.0927  0.1571
  790MOL0     H 6590   3.438  10.723   1.240  1.7327 -0.5097 -0.2168
  790MOL0     H 6591   3.474  10.416   1.190  1.8809 -0.4787 -0.1620
  790MOL0     H 6592   3.569  10.551   1.118  1.3320  0.2663  0.4225
  790MOL0     H 6593   3.626  10.619   1.348 -0.9394  1.7430 -5.3622
  790MOL0     H 6594   3.579  10.461   1.411 -0.3449  2.2033  0.6296
  790MOL0     H 6595   3.728  10.355   1.229 -0.0908 -0.4284 -1.0133
  790MOL0     H 6596   3.764  10.510   1.165  1.7392 -2.0103 -0.5581
  790MOL0     H 6597   3.838  10.412   1.456 -1.7918  3.5263  2.1008
  790MOL0     H 6598   3.877  10.577   1.403  3.2136 -1.3086  2.2544
  790MOL0     H 6599   3.974  10.344   1.232  0.3595 -0.6446 -0.4755
  790MOL0     H 6600   4.004  10.511   1.206  0.1440 -0.6053 -1.1613
  790MOL0     H 6601   4.058  10.274   1.502 -0.9395 -1.4824 -2.9248
  790MOL0     H 6602   4.341  10.412   1.703 -2.0988  2.6151 -1.5481
  790MOL0     H 6603   4.230  10.274   1.693 -1.5522  0.8148 -2.2128
  790MOL0     H 6604   4.405  10.149   1.556  0.7400  1.5117 -2.3103
  790MOL0     H 6605   4.498  10.288   1.548 -0.5870 -0.0061 -0.9190
  790MOL0     H 6606   4.459  10.073   1.747  1.0781 -0.8726  1.4068
  790MOL0     H 6607   4.443  10.217   1.842  1.2885  0.9127 -0.5308
  790MOL0     H 6608   4.682  10.289   1.755  0.7134  0.2154  2.8641
  790MOL0     H 6609   4.674  10.117   1.699 -0.1972 -2.6922  1.2266
  790MOL0     H 6610   4.774  10.037   2.105 -1.7212 -0.7372 -2.7019
  790MOL0     H 6611   5.009  10.046   2.175 -1.2703 -0.6269  0.0081
  790MOL0     H 6612   5.378  10.488   2.172 -1.4046 -0.4625 -0.4346
  790MOL0     H 6613   5.614  10.589   2.148 -0.8059 -1.1856  1.3676
  790MOL0     H 6614   5.706  10.704   1.961 -0.5708  0.4079 -0.2400
  790MOL0     H 6615   5.865  10.677   2.046  3.7285  0.3460 -3.1599
  790MOL0     H 6616   5.821  10.657   1.748  1.3900 -0.8851 -0.1789
  790MOL0     H 6617   5.879  10.792   1.848 -0.0676  0.1677  4.0480
  790MOL0     H 6618   5.994  10.502   1.813 -1.1682 -1.0654 -1.1531
  790MOL0     H 6619   6.058  10.649   1.728  2.6621 -2.9925  1.5609
  790MOL0     H 6620   6.083  10.623   2.025 -1.5752  1.5350 -0.5817
  790MOL0     H 6621   6.132  10.761   1.920  2.0036  0.0895  0.0572
  790MOL0     H 6622   6.304  10.608   1.808 -1.8907 -1.9991 -1.4326
  790MOL0     H 6623   6.235  10.480   1.894 -3.4628  0.7892 -0.4294
  790MOL0     H 6624   6.328  10.558   2.114 -1.2486 -2.2609 -0.4253
  790MOL0     H 6625   6.453  10.575   1.994 -1.4475 -1.5700 -0.0658
  790MOL0     H 6626   6.296  10.788   2.141  2.0338  3.1703  0.5030
  790MOL0     H 6627   6.337  10.826   1.973  2.7192  0.0439 -0.9551
  790MOL0     H 6628   6.552  10.773   2.208 -0.3282 -0.6014 -0.7839
  790MOL0     H 6629   6.585  10.767   2.040  1.5025  2.5210 -0.0522
  790MOL0     H 6630   5.704  10.262   1.888  0.1917 -0.7306  0.2059
  790MOL0     H 6631   5.469  10.174   1.930 -3.5357 -0.0749  2.4808
  790MOL0     H 6632   5.117  10.272   1.836  1.4448 -0.7689  1.0655
  790MOL0     H 6633   4.892  10.258   1.752  3.0685  4.0051  0.4983
  790MOL0     H 6634   3.054  10.908   1.014  1.5572 -3.7521 -3.2500
  790MOL0     H 6635   3.009  11.157   0.953  0.8275  2.4478 -1.5015
  790MOL0     H 6636   3.285  11.538   0.808  1.8975  2.1363 -0.5861
  790MOL0     H 6637   3.295  11.775   0.672 -1.6877  1.4095 -0.2290
  790MOL0     H 6638   2.990  11.861   0.403  1.8698 -0.7337 -0.3196
  790MOL0     H 6639   3.085  12.010   0.417 -1.9544  0.4059 -1.8334
  790MOL0     H 6640   2.966  11.872   0.667 -0.0472  1.4152  1.3394
  790MOL0     H 6641   2.881  11.992   0.571  0.3833 -0.1433 -0.4476
  790MOL0     H 6642   3.075  12.138   0.588 -0.6317  0.4002 -1.1214
  790MOL0     H 6643   3.159  12.012   0.701 -0.2949 -1.0553  0.1152
  790MOL0     H 6644   3.062  12.225   0.809 -0.6086 -0.2534  0.4794
  790MOL0     H 6645   2.904  12.177   0.747 -0.0901  3.2129  1.4689
  790MOL0     H 6646   3.046  11.918   1.074  2.3469 -0.6309 -0.8165
  790MOL0     H 6647   3.018  11.645   0.405 -0.5175 -1.7941 -0.5077
  790MOL0     H 6648   2.876  11.469   0.430  0.9839 -0.6696 -2.3766
  790MOL0     H 6649   2.994  11.332   0.456 -1.4237 -0.6649  0.3078
  790MOL0     H 6650   2.861  11.370   0.567  2.8432 -0.6941  3.3793
  791MOL0     O 6651  10.803   3.135   8.622  0.2382 -1.1682  0.2606
  791MOL0     C 6652  10.884   3.172   8.537 -0.0437  0.7064  1.1704
  791MOL0     O 6653  10.890   3.298   8.481  0.3872 -0.2396  0.0428
  791MOL0     C 6654  10.782   3.378   8.516  0.4303  0.1220 -0.7473
  791MOL0     C 6655  10.802   3.468   8.620 -0.9774  0.7375  0.4163
  791MOL0     C 6656  10.692   3.551   8.650 -0.3504  0.4040 -1.2835
  791MOL0     C 6657  10.569   3.551   8.587 -0.6860  0.2593  0.4174
  791MOL0     O 6658  10.468   3.632   8.633 -0.4282  0.0099 -0.1408
  791MOL0     C 6659  10.345   3.560   8.669 -0.9438 -1.0002  0.0684
  791MOL0     C 6660  10.254   3.662   8.727 -0.8342 -0.1522  0.7343
  791MOL0     C 6661  10.195   3.752   8.615  0.5110  0.1397 -0.2428
  791MOL0     C 6662  10.102   3.864   8.658  0.3339 -0.2874 -0.1423
  791MOL0     C 6663  10.052   3.952   8.543  0.3975  0.3421 -0.6380
  791MOL0     C 6664   9.941   3.881   8.464 -0.2938 -0.0440 -0.1910
  791MOL0     C 6665   9.927   3.932   8.320  0.2569  0.1369 -0.6879
  791MOL0     C 6666   9.913   4.081   8.321  0.1904  0.2043 -0.3842
  791MOL0     N 6667   9.850   4.112   8.200 -0.3983  0.5697  0.1423
  791MOL0     C 6668   9.724   4.084   8.155  0.3131  0.7322  0.9015
  791MOL0     C 6669   9.714   4.138   8.029  1.2887  1.1811 -0.9395
  791MOL0     C 6670   9.599   4.133   7.930 -0.4659  0.9798 -0.6556
  791MOL0     C 6671   9.522   4.003   7.934 -0.0812  0.6604  0.4447
  791MOL0     C 6672   9.403   3.993   8.028  0.0043  1.0575 -0.5218
  791MOL0     C 6673   9.359   3.843   8.072  0.7925 -0.3414 -0.1917
  791MOL0     O 6674   9.448   3.800   8.177 -0.3375 -0.5208 -0.1957
  791MOL0     C 6675   9.409   3.694   8.260  0.4081 -0.3457  0.3323
  791MOL0     C 6676   9.497   3.673   8.371  0.5275 -0.7107  0.3008
  791MOL0     C 6677   9.463   3.582   8.468 -0.1994  0.4315  0.3018
  791MOL0     C 6678   9.342   3.513   8.470 -0.3981 -0.2600  0.2182
  791MOL0     C 6679   9.293   3.415   8.572  0.1470  0.1959 -0.5576
  791MOL0     O 6680   9.181   3.350   8.535  0.2254 -0.5238 -0.2700
  791MOL0     C 6681   9.118   3.255   8.607  0.8684  0.2322 -0.0268
  791MOL0     C 6682   9.055   3.289   8.727  0.4675 -0.0256 -0.4245
  791MOL0     C 6683   8.995   3.187   8.802  0.1212  0.8113 -0.3122
  791MOL0     C 6684   8.986   3.055   8.755 -0.0403  0.0438  0.1532
  791MOL0     O 6685   8.939   2.952   8.829  0.8256  0.7873  0.5193
  791MOL0     C 6686   8.850   2.988   8.937  0.3671  0.0608  0.2546
  791MOL0     C 6687   8.800   2.853   8.988 -0.4427  1.2199 -0.1017
  791MOL0     C 6688   8.733   2.865   9.129 -0.3693 -0.3471  0.3319
  791MOL0     C 6689   8.841   2.877   9.248  0.7311  0.4101  0.4036
  791MOL0     C 6690   8.913   3.013   9.269 -0.0280 -0.5564  0.0634
  791MOL0     C 6691   8.812   3.132   9.264 -0.1295 -0.2894  0.5421
  791MOL0     C 6692   8.874   3.270   9.302  1.1468  0.3077  0.6534
  791MOL0     C 6693   8.778   3.383   9.252  0.0475  0.9047  0.2994
  791MOL0    Cl 6694   8.615   3.374   9.324 -0.5749 -0.0082  0.2637
  791MOL0     C 6695   9.044   3.029   8.626 -1.0717 -0.1444 -0.2836
  791MOL0     C 6696   9.105   3.126   8.553 -0.7104  0.3375  0.4044
  791MOL0     O 6697   9.348   3.404   8.681 -0.0907 -0.7513 -0.3190
  791MOL0     C 6698   9.255   3.547   8.367  0.0214  0.4956 -0.3960
  791MOL0     C 6699   9.289   3.626   8.262 -0.5800  0.5709  0.1056
  791MOL0     N 6700   9.839   4.184   7.996  0.3107 -0.2297  0.5520
  791MOL0     N 6701   9.920   4.175   8.095 -0.1241  0.7841 -0.3885
  791MOL0     C 6702  10.556   3.456   8.479 -0.2243  0.4405 -0.5635
  791MOL0     C 6703  10.660   3.366   8.445  0.0860  0.2228 -0.3930
  791MOL0     C 6704  11.003   3.082   8.484 -0.5656 -0.3955 -0.0815
  791MOL0     C 6705  11.085   3.132   8.382 -0.7177 -0.4297  0.8820
  791MOL0     C 6706  11.191   3.055   8.327  0.2164  0.0415  0.1596
  791MOL0     C 6707  11.237   2.931   8.387 -0.4779 -1.5551  0.6762
  791MOL0     O 6708  11.356   2.875   8.346  0.9623  0.1531 -0.0684
  791MOL0     C 6709  11.404   2.769   8.430 -0.0732 -0.0582  0.1370
  791MOL0     C 6710  11.550   2.735   8.379  0.5849  0.8829  0.3755
  791MOL0     C 6711  11.543   2.661   8.245 -0.0271  0.0124 -0.9366
  791MOL0     C 6712  11.671   2.606   8.211 -0.6023  0.4038 -0.1186
  791MOL0     C 6713  11.687   2.541   8.079  0.3199  0.9255 -0.7012
  791MOL0     C 6714  11.718   2.484   7.976  0.0065  0.2760 -0.0071
  791MOL0     C 6715  11.155   2.886   8.490  0.2044  0.1895 -0.7641
  791MOL0     C 6716  11.043   2.959   8.538 -0.5757  0.0923 -0.1267
  791MOL0     C 6717  10.973   2.889   8.654  0.1492  1.0362 -0.9100
  791MOL0     H 6718  10.891   3.478   8.682 -1.7744  0.5807  1.6122
  791MOL0     H 6719  10.696   3.624   8.731  0.9587  2.5935 -3.2097
  791MOL0     H 6720  10.288   3.509   8.591 -1.0772  0.0846 -0.5790
  791MOL0     H 6721  10.379   3.490   8.746  0.6564 -0.8589 -0.4569
  791MOL0     H 6722  10.317   3.715   8.799  0.3475  0.4417 -0.6824
  791MOL0     H 6723  10.168   3.614   8.776  0.2384 -1.4996  1.3629
  791MOL0     H 6724  10.143   3.690   8.542 -1.0484 -0.8533  1.6065
  791MOL0     H 6725  10.270   3.805   8.557 -0.1054  1.0929 -0.1888
  791MOL0     H 6726  10.017   3.825   8.716 -1.0584 -1.6600 -2.9157
  791MOL0     H 6727  10.158   3.929   8.725 -1.5639  0.4892  0.7915
  791MOL0     H 6728  10.019   4.047   8.585 -1.1928 -0.0786 -0.8602
  791MOL0     H 6729  10.140   3.966   8.479  0.6142 -0.3926 -0.5187
  791MOL0     H 6730   9.954   3.773   8.458  0.1758  0.0363 -0.6690
  791MOL0     H 6731   9.850   3.903   8.522 -0.4578  0.3441 -0.5842
  791MOL0     H 6732   9.835   3.889   8.278 -2.2795  2.2180  2.2841
  791MOL0     H 6733  10.012   3.907   8.257  0.4365  0.2635 -0.4951
  791MOL0     H 6734   9.853   4.109   8.408 -0.9377  0.2471 -1.1656
  791MOL0     H 6735  10.009   4.129   8.339  1.3923 -2.3917  0.7249
  791MOL0     H 6736   9.652   4.031   8.217  2.4098 -2.3046  0.9880
  791MOL0     H 6737   9.538   4.221   7.952  1.7963  2.3800  0.2549
  791MOL0     H 6738   9.643   4.148   7.831 -1.3235 -0.7638 -1.3603
  791MOL0     H 6739   9.491   3.985   7.830 -0.3148 -2.6985  0.9731
  791MOL0     H 6740   9.594   3.928   7.966 -0.1030  0.1899 -0.5902
  791MOL0     H 6741   9.315   4.034   7.978 -3.4921  1.0866  4.7982
  791MOL0     H 6742   9.428   4.057   8.114  2.8809  0.4720 -0.8179
  791MOL0     H 6743   9.374   3.779   7.985  0.9735 -0.2859 -0.2027
  791MOL0     H 6744   9.253   3.847   8.100  0.8413 -1.8941  0.3016
  791MOL0     H 6745   9.584   3.736   8.360  0.1090 -0.3971 -1.7381
  791MOL0     H 6746   9.536   3.565   8.548  0.0212  2.3635  0.5482
  791MOL0     H 6747   9.064   3.390   8.767  2.5411 -1.2201  2.5568
  791MOL0     H 6748   8.972   3.207   8.906 -0.1366  0.2621 -0.2615
  791MOL0     H 6749   8.911   3.042   9.011  0.8832 -0.0044 -0.1223
  791MOL0     H 6750   8.762   3.045   8.905  0.0936 -0.5006  0.0055
  791MOL0     H 6751   8.720   2.808   8.928 -0.5051 -1.9440  2.0494
  791MOL0     H 6752   8.889   2.789   8.991 -0.1524  1.4288 -2.6804
  791MOL0     H 6753   8.666   2.952   9.121  0.0197 -0.0811 -0.0693
  791MOL0     H 6754   8.673   2.779   9.158 -2.2301  1.2479  1.4996
  791MOL0     H 6755   8.905   2.788   9.247  0.0110 -0.1220  0.5821
  791MOL0     H 6756   8.784   2.860   9.340 -1.4930  1.5321 -0.6839
  791MOL0     H 6757   9.001   3.022   9.204  0.3874 -1.1447  0.5337
  791MOL0     H 6758   8.936   3.020   9.376 -0.6020 -2.6697  0.3621
  791MOL0     H 6759   8.777   3.137   9.161 -2.0209 -0.3450  1.1451
  791MOL0     H 6760   8.723   3.113   9.324  0.0222 -2.6299  0.1104
  791MOL0     H 6761   8.970   3.292   9.254  0.5853 -1.8325 -1.6256
  791MOL0     H 6762   8.885   3.265   9.411  2.3577 -1.8185  0.4778
  791MOL0     H 6763   8.830   3.475   9.280  0.1926  0.8691  0.1508
  791MOL0     H 6764   8.777   3.377   9.143  0.3495 -0.9880  0.3573
  791MOL0     H 6765   9.038   2.930   8.582  0.1979 -0.5822  0.4859
  791MOL0     H 6766   9.149   3.116   8.454  1.6473  1.4835  1.2622
  791MOL0     H 6767   9.158   3.499   8.369 -0.7671  1.9730  2.6451
  791MOL0     H 6768   9.215   3.641   8.184 -0.3667  3.4466  0.3634
  791MOL0     H 6769  10.458   3.459   8.431 -1.9204  1.3498  2.6667
  791MOL0     H 6770  10.654   3.282   8.377  1.5488 -0.2501  0.0156
  791MOL0     H 6771  11.060   3.223   8.329  0.2751 -1.4814 -1.5427
  791MOL0     H 6772  11.250   3.099   8.248  1.9403  0.7556  1.7735
  791MOL0     H 6773  11.338   2.683   8.416 -0.1265  0.1395 -0.8439
  791MOL0     H 6774  11.407   2.799   8.535  1.9296 -0.1383  0.1563
  791MOL0     H 6775  11.599   2.669   8.451 -0.4364  0.3409  0.5966
  791MOL0     H 6776  11.599   2.832   8.372 -1.9988  2.3555  1.0635
  791MOL0     H 6777  11.502   2.730   8.170 -0.7275  0.6492  0.0080
  791MOL0     H 6778  11.477   2.574   8.239  0.8523 -0.5618 -3.6329
  791MOL0     H 6779  11.745   2.685   8.225 -1.2177  0.9931 -0.1757
  791MOL0     H 6780  11.697   2.518   8.272  0.5429  0.4887 -0.4631
  791MOL0     H 6781  11.737   2.420   7.893  1.9565 -2.1363  2.1376
  791MOL0     H 6782  11.181   2.796   8.545 -3.7378 -0.2412  0.7605
  791MOL0     H 6783  11.034   2.808   8.696  1.5813  0.9559 -3.0108
  791MOL0     H 6784  10.960   2.953   8.742  2.3193  0.8797 -0.4082
  791MOL0     H 6785  10.872   2.861   8.624 -0.4410  2.5738 -0.4301
  792MOL0     O 6786  10.653   9.048   1.503 -0.3772 -0.9515  0.0907
  792MOL0     C 6787  10.739   9.000   1.580  0.1103 -0.6248 -0.7254
  792MOL0     O 6788  10.717   8.911   1.683  0.1534  0.2829 -0.1099
  792MOL0     C 6789  10.592   8.850   1.688  0.1942  0.5616  0.8038
  792MOL0     C 6790  10.568   8.745   1.607  0.2815 -0.1264  0.5723
  792MOL0     C 6791  10.453   8.673   1.617  0.9304 -0.7587  0.0202
  792MOL0     C 6792  10.353   8.717   1.707 -0.7614 -1.0042 -0.4917
  792MOL0     O 6793  10.230   8.657   1.703 -0.5908  0.4640 -0.3581
  792MOL0     C 6794  10.119   8.674   1.786  0.5042 -1.0073  0.7244
  792MOL0     C 6795  10.019   8.560   1.753  0.5288 -0.6763  0.3007
  792MOL0     C 6796   9.938   8.602   1.617 -0.3214 -0.5185 -0.1365
  792MOL0     C 6797   9.869   8.480   1.571 -1.3322  0.4410 -0.6838
  792MOL0     C 6798   9.758   8.500   1.471 -0.2478  0.9647  1.3161
  792MOL0     C 6799   9.803   8.507   1.319  0.8085  1.6683 -0.4956
  792MOL0     C 6800   9.836   8.371   1.250 -0.5299 -0.4494 -0.8875
  792MOL0     C 6801   9.706   8.290   1.229 -0.8452 -0.2515 -0.1073
  792MOL0     N 6802   9.731   8.150   1.182  0.0473 -0.0287  0.4468
  792MOL0     C 6803   9.849   8.083   1.186 -0.4449  1.2970  0.0981
  792MOL0     C 6804   9.820   7.978   1.108  0.4121  0.4309 -0.5293
  792MOL0     C 6805   9.898   7.861   1.062  0.7322  0.4645 -0.1518
  792MOL0     C 6806   9.895   7.743   1.160 -0.6570 -0.2298  0.3586
  792MOL0     C 6807   9.970   7.781   1.301  0.0183  0.2326  0.6326
  792MOL0     C 6808  10.120   7.787   1.268 -0.4941  0.3377  0.0737
  792MOL0     O 6809  10.170   7.646   1.258 -0.1111 -0.8185 -0.2171
  792MOL0     C 6810  10.305   7.624   1.222  0.7819 -0.6245  0.1792
  792MOL0     C 6811  10.401   7.621   1.323 -0.2122 -0.2426  0.0963
  792MOL0     C 6812  10.536   7.597   1.283  0.4604 -0.6876 -0.4260
  792MOL0     C 6813  10.569   7.591   1.149  0.2654  0.0501 -0.6031
  792MOL0     C 6814  10.712   7.597   1.103  0.0474  0.0632  0.5554
  792MOL0     O 6815  10.730   7.637   0.980 -0.1616 -0.3178 -0.0367
  792MOL0     C 6816  10.859   7.634   0.932 -0.9072 -0.7197 -0.3267
  792MOL0     C 6817  10.918   7.534   0.855  0.5814  0.1213  0.2536
  792MOL0     C 6818  11.052   7.545   0.803  0.3702  0.3256  0.6159
  792MOL0     C 6819  11.130   7.654   0.838  0.7657  0.6100  0.6217
  792MOL0     O 6820  11.249   7.657   0.780  0.1914 -0.2946 -0.4343
  792MOL0     C 6821  11.321   7.781   0.780  0.3158 -0.0920  1.0283
  792MOL0     C 6822  11.458   7.754   0.720  0.2286 -0.1603 -1.0264
  792MOL0     C 6823  11.464   7.780   0.572  0.8818  0.6266  0.1126
  792MOL0     C 6824  11.612   7.757   0.525 -1.0026  0.3713  0.8154
  792MOL0     C 6825  11.702   7.884   0.561 -0.0709 -0.2128  0.3097
  792MOL0     C 6826  11.648   8.017   0.480 -0.7494  0.9642  0.2565
  792MOL0     C 6827  11.758   8.125   0.472 -0.8270  0.3056 -0.0698
  792MOL0     C 6828  11.729   8.230   0.359 -0.3546 -0.5708  0.1921
  792MOL0    Cl 6829  11.597   8.337   0.397  0.1686  0.1869  0.5592
  792MOL0     C 6830  11.079   7.749   0.929  0.3373  0.8113  0.8699
  792MOL0     C 6831  10.942   7.743   0.968 -0.1804 -0.6811  0.0518
  792MOL0     O 6832  10.795   7.568   1.183  0.4222  0.4630  0.1056
  792MOL0     C 6833  10.462   7.576   1.049 -0.1504 -0.1478 -1.0020
  792MOL0     C 6834  10.332   7.593   1.091 -0.1005 -0.7399 -0.5580
  792MOL0     N 6835   9.684   7.984   1.075 -0.3254  1.0156  1.0649
  792MOL0     N 6836   9.633   8.089   1.112 -0.2014 -0.5822 -0.4551
  792MOL0     C 6837  10.380   8.821   1.801 -0.2400  0.3278 -0.3597
  792MOL0     C 6838  10.500   8.883   1.792 -0.4931  0.6566  0.2208
  792MOL0     C 6839  10.876   9.067   1.582 -0.6789 -0.5270 -1.0280
  792MOL0     C 6840  10.888   9.179   1.494  0.3981  0.5892  0.0370
  792MOL0     C 6841  10.998   9.264   1.487 -0.7244 -0.2491  0.2275
  792MOL0     C 6842  11.106   9.223   1.571 -0.8218 -0.4500  0.6312
  792MOL0     O 6843  11.220   9.305   1.575  1.0051  0.4847  0.9533
  792MOL0     C 6844  11.316   9.277   1.674  0.1091 -0.3234  0.0040
  792MOL0     C 6845  11.392   9.404   1.714  0.2238  0.0104  0.2696
  792MOL0     C 6846  11.329   9.494   1.817 -0.5230 -0.2404  0.3694
  792MOL0     C 6847  11.401   9.629   1.835 -0.2590  0.0859  0.4451
  792MOL0     C 6848  11.367   9.730   1.734  0.6082 -0.7051  0.1464
  792MOL0     C 6849  11.349   9.815   1.648 -0.2044 -0.5087  0.3456
  792MOL0     C 6850  11.122   9.088   1.626  0.3474  0.2044 -0.4121
  792MOL0     C 6851  11.002   9.013   1.633  0.3489 -0.6200  0.2686
  792MOL0     C 6852  11.013   8.878   1.702  0.0322  0.4777 -0.3723
  792MOL0     H 6853  10.646   8.699   1.548 -0.2794 -0.6747  0.2359
  792MOL0     H 6854  10.431   8.600   1.540 -0.3552  0.1082 -0.4600
  792MOL0     H 6855  10.147   8.665   1.892  2.4342 -2.9227  0.1331
  792MOL0     H 6856  10.084   8.776   1.770  0.5709 -1.1496 -0.4235
  792MOL0     H 6857   9.961   8.535   1.842  1.2200  2.3702  1.7376
  792MOL0     H 6858  10.080   8.473   1.725 -2.4738 -2.5047 -0.9570
  792MOL0     H 6859   9.996   8.657   1.543  1.8382 -0.5363  1.4817
  792MOL0     H 6860   9.870   8.681   1.649 -0.1767 -0.4979  0.1201
  792MOL0     H 6861   9.944   8.421   1.516 -2.0650 -0.9972 -0.1894
  792MOL0     H 6862   9.830   8.413   1.648 -2.3205 -0.1246 -1.6440
  792MOL0     H 6863   9.683   8.421   1.476 -2.2433  2.3657 -2.4748
  792MOL0     H 6864   9.707   8.594   1.493 -3.0876  0.1625 -1.1648
  792MOL0     H 6865   9.713   8.544   1.270 -1.1632  0.9526  2.3087
  792MOL0     H 6866   9.881   8.583   1.308  2.2721  0.4381  0.7590
  792MOL0     H 6867   9.903   8.316   1.316 -0.5998  0.1897 -0.2622
  792MOL0     H 6868   9.887   8.385   1.154  3.2026 -1.7991  0.7353
  792MOL0     H 6869   9.648   8.281   1.321 -0.1471 -2.2364  0.1964
  792MOL0     H 6870   9.644   8.341   1.155  0.0491 -1.4402 -1.7512
  792MOL0     H 6871   9.952   8.096   1.215 -0.1244 -0.1290 -0.2872
  792MOL0     H 6872   9.842   7.813   0.981 -2.4771 -1.6883  2.9969
  792MOL0     H 6873   9.996   7.897   1.032  0.8950 -0.1012 -0.3171
  792MOL0     H 6874   9.794   7.716   1.193 -0.7787 -0.9585 -0.5777
  792MOL0     H 6875   9.938   7.656   1.112 -0.2601 -0.4405  1.0724
  792MOL0     H 6876   9.940   7.713   1.380 -0.6088 -3.0848 -2.2130
  792MOL0     H 6877   9.945   7.884   1.330  0.5622  0.2883  0.9158
  792MOL0     H 6878  10.166   7.852   1.343  2.7511  1.4011 -2.5516
  792MOL0     H 6879  10.148   7.841   1.177 -1.1982  0.9893  0.2290
  792MOL0     H 6880  10.371   7.641   1.426 -0.7477 -1.0401  0.1002
  792MOL0     H 6881  10.614   7.582   1.357  1.4280  4.3732 -0.0315
  792MOL0     H 6882  10.843   7.462   0.824  1.0831 -1.2577  2.0281
  792MOL0     H 6883  11.081   7.454   0.751 -1.1309  0.9751 -1.5098
  792MOL0     H 6884  11.262   7.853   0.723 -1.3896 -1.4589  0.9867
  792MOL0     H 6885  11.336   7.816   0.883  1.0277  1.1520  0.5158
  792MOL0     H 6886  11.531   7.811   0.778  0.3828  1.3768 -2.6360
  792MOL0     H 6887  11.474   7.646   0.729  0.4924 -0.3905 -3.5073
  792MOL0     H 6888  11.395   7.712   0.521 -2.6601  1.6240  3.1034
  792MOL0     H 6889  11.429   7.879   0.543 -1.6594 -0.0733  0.4938
  792MOL0     H 6890  11.633   7.742   0.419  0.9652  1.1923  1.0371
  792MOL0     H 6891  11.668   7.678   0.577 -0.3108 -1.4615 -2.4648
  792MOL0     H 6892  11.800   7.862   0.517 -0.8912 -1.4060 -1.0126
  792MOL0     H 6893  11.718   7.896   0.668 -0.3941 -2.0247  0.5951
  792MOL0     H 6894  11.631   7.986   0.376 -0.8768  0.6426  0.3732
  792MOL0     H 6895  11.555   8.063   0.515 -0.0564  3.1217 -0.5963
  792MOL0     H 6896  11.854   8.083   0.443 -1.5067 -1.5120  0.2150
  792MOL0     H 6897  11.784   8.176   0.566 -2.0201 -1.0516  1.0372
  792MOL0     H 6898  11.819   8.289   0.337 -0.6034 -1.3227 -3.5262
  792MOL0     H 6899  11.705   8.184   0.262 -0.6036  1.0738 -0.5612
  792MOL0     H 6900  11.140   7.833   0.960 -1.6129  1.8530  2.0223
  792MOL0     H 6901  10.897   7.821   1.030  0.3369 -1.4380  1.4187
  792MOL0     H 6902  10.480   7.565   0.943 -4.7601  0.0700 -2.0407
  792MOL0     H 6903  10.246   7.588   1.026 -1.7379 -0.6861  1.4931
  792MOL0     H 6904  10.307   8.850   1.875 -0.8478 -1.8666 -0.0247
  792MOL0     H 6905  10.514   8.964   1.862 -2.1975  1.0501  0.1473
  792MOL0     H 6906  10.801   9.209   1.436 -1.9671 -0.0317  3.0267
  792MOL0     H 6907  11.006   9.360   1.438 -1.5306  1.4931  3.3091
  792MOL0     H 6908  11.393   9.209   1.636  1.0708  1.9018 -2.3731
  792MOL0     H 6909  11.267   9.234   1.761 -0.4588  0.2266 -0.0320
  792MOL0     H 6910  11.424   9.471   1.634  1.5923  2.3058  2.5762
  792MOL0     H 6911  11.484   9.363   1.757  0.7303  1.6212  0.7911
  792MOL0     H 6912  11.324   9.440   1.912 -1.6091 -0.2058  0.3450
  792MOL0     H 6913  11.229   9.520   1.779 -0.3753  1.6108  1.1273
  792MOL0     H 6914  11.377   9.672   1.933 -2.1023  0.0853  0.0130
  792MOL0     H 6915  11.509   9.610   1.827 -0.4173  0.0807 -3.0379
  792MOL0     H 6916  11.314   9.901   1.595 -1.6371 -2.0825 -1.4200
  792MOL0     H 6917  11.214   9.054   1.672 -0.8671 -0.2167  1.8916
  792MOL0     H 6918  11.113   8.844   1.728  0.0080 -0.2931 -1.2458
  792MOL0     H 6919  10.953   8.878   1.793  1.0339  0.0038  0.2954
  792MOL0     H 6920  10.977   8.799   1.636 -0.8995  1.2797 -0.8595
  793MOL0     O 6921   2.685   1.463   2.453 -0.2872 -0.0281 -0.2255
  793MOL0     C 6922   2.664   1.353   2.498 -0.0071 -0.3142 -0.6918
  793MOL0     O 6923   2.765   1.259   2.531 -0.7795 -0.5817 -0.1612
  793MOL0     C 6924   2.897   1.274   2.505 -0.0659 -0.1621  0.7499
  793MOL0     C 6925   2.963   1.386   2.457  1.0216 -0.4906  0.7375
  793MOL0     C 6926   3.096   1.396   2.404 -0.7470 -0.5494 -0.3721
  793MOL0     C 6927   3.172   1.278   2.398  1.1438  0.5278  0.4655
  793MOL0     O 6928   3.296   1.269   2.341 -0.1783  0.0956 -0.8957
  793MOL0     C 6929   3.352   1.371   2.249 -0.7853  0.5473  0.5098
  793MOL0     C 6930   3.466   1.311   2.163  0.8417  1.0097  0.1792
  793MOL0     C 6931   3.437   1.184   2.075 -0.1833  0.8906 -0.3740
  793MOL0     C 6932   3.320   1.210   1.984  0.3191 -0.0605  0.1466
  793MOL0     C 6933   3.275   1.108   1.878 -0.3477 -0.0723  0.1460
  793MOL0     C 6934   3.164   1.175   1.793  0.1136 -0.4925  0.3921
  793MOL0     C 6935   3.093   1.069   1.708  1.1799  0.6032  0.1477
  793MOL0     C 6936   3.176   1.036   1.589  0.1218  0.5053  0.2098
  793MOL0     N 6937   3.162   0.899   1.543 -0.9551  0.2271  0.0164
  793MOL0     C 6938   3.106   0.853   1.432  0.5902  0.9214 -0.4356
  793MOL0     C 6939   3.117   0.715   1.433  0.2232 -0.1140 -0.5813
  793MOL0     C 6940   3.047   0.625   1.336  0.0112  0.8906  0.2479
  793MOL0     C 6941   2.963   0.508   1.406 -0.7127 -0.2963 -0.1444
  793MOL0     C 6942   2.807   0.535   1.408 -0.4456 -1.4012 -0.4425
  793MOL0     C 6943   2.739   0.466   1.294 -0.0670  0.2127  0.2263
  793MOL0     O 6944   2.597   0.472   1.314  0.5315 -0.3029  0.7444
  793MOL0     C 6945   2.508   0.430   1.214 -0.0985 -0.1038  0.0348
  793MOL0     C 6946   2.370   0.424   1.254  0.1981  0.1718  1.7029
  793MOL0     C 6947   2.267   0.403   1.164  0.7633 -0.6106 -0.2057
  793MOL0     C 6948   2.292   0.376   1.030 -0.5149 -0.6200  0.9578
  793MOL0     C 6949   2.192   0.329   0.933  0.8249  0.2861  1.2430
  793MOL0     O 6950   2.222   0.286   0.809  0.0268  0.5960  0.7111
  793MOL0     C 6951   2.139   0.237   0.712  1.0185 -0.0442 -0.0148
  793MOL0     C 6952   2.196   0.157   0.612  0.6316  0.4867 -0.2467
  793MOL0     C 6953   2.132   0.138   0.487  0.1909 -0.7475  0.5248
  793MOL0     C 6954   2.001   0.191   0.473  0.8718  0.4525  0.5037
  793MOL0     O 6955   1.917   0.177   0.363 -0.3879  0.1149 -0.4178
  793MOL0     C 6956   1.899   0.052   0.291 -0.1172 -0.3307 -0.7487
  793MOL0     C 6957   1.885   0.081   0.143 -0.0898 -0.4317 -0.4104
  793MOL0     C 6958   1.757   0.158   0.114  1.2268  0.1917 -0.5791
  793MOL0     C 6959   1.730   0.146  -0.046 -0.7633  0.7841  0.0292
  793MOL0     C 6960   1.595   0.212  -0.092 -0.2051 -0.6030  0.1335
  793MOL0     C 6961   1.592   0.217  -0.245 -0.2788 -0.2769 -0.1185
  793MOL0     C 6962   1.451   0.266  -0.296 -0.7859 -0.7618  0.2724
  793MOL0     C 6963   1.468   0.284  -0.453  0.6062  0.6258 -0.6798
  793MOL0    Cl 6964   1.324   0.361  -0.518  0.2054 -0.3766 -0.1703
  793MOL0     C 6965   1.936   0.258   0.580 -1.0432  0.5741  0.8487
  793MOL0     C 6966   2.010   0.283   0.692 -0.1391 -0.7682  0.1556
  793MOL0     O 6967   2.075   0.333   0.977  0.0019 -0.0635 -0.4063
  793MOL0     C 6968   2.427   0.381   0.986  0.0616  0.6407 -0.0894
  793MOL0     C 6969   2.537   0.413   1.075  0.6372 -0.0449  0.8749
  793MOL0     N 6970   3.181   0.684   1.549 -0.2032 -0.0838 -0.2942
  793MOL0     N 6971   3.199   0.791   1.611 -0.0725 -0.8575 -0.2448
  793MOL0     C 6972   3.110   1.156   2.454 -0.1389  0.4841  0.2952
  793MOL0     C 6973   2.977   1.156   2.508  0.8784  0.0395 -0.5809
  793MOL0     C 6974   2.518   1.327   2.522  0.3605  0.2338  0.2249
  793MOL0     C 6975   2.428   1.437   2.482  0.5839  0.7127 -0.1630
  793MOL0     C 6976   2.300   1.438   2.537  0.0493  0.5341 -0.1109
  793MOL0     C 6977   2.247   1.330   2.622 -0.1106 -0.5582 -0.3360
  793MOL0     O 6978   2.115   1.348   2.656  0.3359 -0.5150  0.1744
  793MOL0     C 6979   2.032   1.243   2.698 -0.8431 -1.2542 -0.2728
  793MOL0     C 6980   1.883   1.280   2.692  0.9538  0.3517  0.0704
  793MOL0     C 6981   1.840   1.355   2.561 -0.4024  0.2575 -0.0787
  793MOL0     C 6982   1.694   1.350   2.545  0.0516  0.0442  0.4245
  793MOL0     C 6983   1.662   1.227   2.480 -0.9617 -0.5917 -1.1364
  793MOL0     C 6984   1.644   1.118   2.441  0.7985 -0.0375  0.9882
  793MOL0     C 6985   2.328   1.217   2.631  0.0606  0.2734  0.0731
  793MOL0     C 6986   2.459   1.210   2.584 -0.5976 -0.8382  0.0586
  793MOL0     C 6987   2.539   1.085   2.606 -0.7252  0.0193  0.0330
  793MOL0     H 6988   2.919   1.485   2.453  2.4148  0.0995 -1.1642
  793MOL0     H 6989   3.125   1.490   2.360  1.5580 -0.8851  0.2749
  793MOL0     H 6990   3.274   1.403   2.179  0.2051 -3.3107 -2.7017
  793MOL0     H 6991   3.401   1.451   2.305  2.2859 -0.5465 -0.4261
  793MOL0     H 6992   3.547   1.284   2.231 -0.6215 -1.1895  1.1403
  793MOL0     H 6993   3.508   1.385   2.093  2.0945 -0.7162 -0.9577
  793MOL0     H 6994   3.414   1.100   2.142  1.9484  1.3948  1.0897
  793MOL0     H 6995   3.519   1.146   2.013 -0.7449  1.3483 -1.4202
  793MOL0     H 6996   3.228   1.240   2.035 -0.7004 -0.2357 -1.5222
  793MOL0     H 6997   3.347   1.303   1.934 -2.6848 -0.0298 -1.6661
  793MOL0     H 6998   3.361   1.079   1.817 -0.3956  0.4050 -0.1593
  793MOL0     H 6999   3.238   1.016   1.924 -2.6928  0.7860  0.0835
  793MOL0     H 7000   3.087   1.229   1.848 -2.4881 -3.0802 -0.4969
  793MOL0     H 7001   3.207   1.250   1.725 -0.6650 -2.5118 -2.5118
  793MOL0     H 7002   2.991   1.093   1.677  0.8679  0.4922  1.0430
  793MOL0     H 7003   3.091   0.975   1.764 -0.6646  1.1268  1.0734
  793MOL0     H 7004   3.162   1.104   1.504 -0.0419 -0.8808 -0.9167
  793MOL0     H 7005   3.283   1.052   1.600  0.3063  1.5415 -2.3052
  793MOL0     H 7006   3.046   0.914   1.365  2.6821  1.7132 -1.6637
  793MOL0     H 7007   2.979   0.672   1.264  1.2011  0.8609 -0.9443
  793MOL0     H 7008   3.126   0.580   1.275 -1.8621 -0.9749 -0.9423
  793MOL0     H 7009   2.980   0.409   1.363 -1.9824 -1.3469  1.6295
  793MOL0     H 7010   2.998   0.497   1.510 -0.7645 -1.8999 -0.2686
  793MOL0     H 7011   2.792   0.644   1.411 -0.2239 -1.3771 -0.1179
  793MOL0     H 7012   2.774   0.490   1.502  1.4845  2.0176  2.1042
  793MOL0     H 7013   2.777   0.365   1.274  1.4768  0.5589  1.2172
  793MOL0     H 7014   2.771   0.526   1.209  1.8054 -2.3279 -0.9809
  793MOL0     H 7015   2.350   0.448   1.358  3.0004  4.7236  1.4652
  793MOL0     H 7016   2.166   0.389   1.203  1.2971 -0.0291  1.4523
  793MOL0     H 7017   2.303   0.140   0.620  0.8120  0.6104 -1.9225
  793MOL0     H 7018   2.188   0.091   0.407  4.3077  1.9394  1.4995
  793MOL0     H 7019   1.984  -0.016   0.302  1.5758  1.7701 -0.2197
  793MOL0     H 7020   1.806   0.003   0.320 -1.2592  0.9595 -2.1034
  793MOL0     H 7021   1.958   0.152   0.103 -0.1633 -0.0999  0.0440
  793MOL0     H 7022   1.892  -0.016   0.092  4.5493 -1.6002  1.8958
  793MOL0     H 7023   1.663   0.115   0.150  2.1977 -1.2124  0.4346
  793MOL0     H 7024   1.774   0.260   0.150 -1.2123  0.9488 -1.4101
  793MOL0     H 7025   1.740   0.042  -0.080  2.7913  1.1945 -0.5623
  793MOL0     H 7026   1.801   0.204  -0.107 -0.8384  1.6926  0.7879
  793MOL0     H 7027   1.598   0.315  -0.055  2.0077 -0.0663 -1.3594
  793MOL0     H 7028   1.506   0.152  -0.069 -0.0078 -2.5194 -3.4238
  793MOL0     H 7029   1.671   0.281  -0.286 -2.2419  2.4728  0.0910
  793MOL0     H 7030   1.613   0.115  -0.279  0.1330 -0.3524  0.3321
  793MOL0     H 7031   1.426   0.359  -0.244  3.0742 -0.0970  1.2689
  793MOL0     H 7032   1.367   0.201  -0.271 -0.1513 -1.7392 -0.0525
  793MOL0     H 7033   1.556   0.344  -0.477  1.5029 -0.5109 -0.3471
  793MOL0     H 7034   1.467   0.184  -0.497 -2.0269 -0.2251  1.0791
  793MOL0     H 7035   1.829   0.276   0.577 -1.4052 -1.4269 -2.1819
  793MOL0     H 7036   1.957   0.344   0.765  0.0334 -3.0413  2.3209
  793MOL0     H 7037   2.451   0.356   0.883  2.1701 -0.9102  0.7078
  793MOL0     H 7038   2.640   0.423   1.040  0.7179 -1.5405  0.6160
  793MOL0     H 7039   3.164   1.062   2.454 -0.7442  0.1076  1.4968
  793MOL0     H 7040   2.938   1.066   2.553  0.5445  1.5552  2.4190
  793MOL0     H 7041   2.467   1.520   2.425 -0.3412  0.5875 -1.0187
  793MOL0     H 7042   2.239   1.528   2.534 -1.5908 -0.3072  3.4086
  793MOL0     H 7043   2.054   1.221   2.804 -0.1367 -3.1097 -0.7617
  793MOL0     H 7044   2.034   1.155   2.633 -3.9785 -1.0904 -0.7110
  793MOL0     H 7045   1.867   1.333   2.787  0.4021  1.5998 -0.6989
  793MOL0     H 7046   1.833   1.183   2.694  0.7122  0.4258 -1.3824
  793MOL0     H 7047   1.894   1.310   2.478 -0.6692  0.7006 -0.4987
  793MOL0     H 7048   1.875   1.458   2.574  2.0058 -0.3530 -1.0329
  793MOL0     H 7049   1.645   1.357   2.643  0.9450  0.2504  0.8669
  793MOL0     H 7050   1.653   1.434   2.488  1.6180 -0.0247 -0.8952
  793MOL0     H 7051   1.609   1.029   2.393 -1.1253  2.6301 -3.0721
  793MOL0     H 7052   2.281   1.138   2.688  3.0212  0.2491  2.7127
  793MOL0     H 7053   2.612   1.103   2.686 -1.8630  0.1670  1.0718
  793MOL0     H 7054   2.481   0.998   2.636 -1.2447  0.8823  1.6715
  793MOL0     H 7055   2.596   1.062   2.516  2.2665  2.5095  1.0812
  794MOL0     O 7056   9.801   8.070   1.839 -0.1649  0.2207 -0.1545
  794MOL0     C 7057   9.751   7.994   1.761  0.3161  0.0841  0.5802
  794MOL0     O 7058   9.815   7.953   1.642  0.7661  0.4541 -0.8049
  794MOL0     C 7059   9.952   7.989   1.630  0.5171 -1.4426 -0.6127
  794MOL0     C 7060  10.057   7.905   1.639 -0.8561 -0.7190  0.1058
  794MOL0     C 7061  10.195   7.938   1.611  0.0962 -0.0767 -0.6356
  794MOL0     C 7062  10.214   8.067   1.564  0.3421 -0.5782  0.5400
  794MOL0     O 7063  10.345   8.096   1.541  0.1839 -0.3163  0.4367
  794MOL0     C 7064  10.414   8.152   1.648  0.0642  0.2715  0.0418
  794MOL0     C 7065  10.565   8.112   1.622 -0.1316 -0.1136 -0.2194
  794MOL0     C 7066  10.577   7.962   1.634  0.2943  1.2911  1.0004
  794MOL0     C 7067  10.709   7.909   1.579  0.0004 -0.5583  0.0020
  794MOL0     C 7068  10.703   7.750   1.591 -0.4357  0.1664  0.1042
  794MOL0     C 7069  10.821   7.691   1.514  0.0400  0.2861  0.1232
  794MOL0     C 7070  10.957   7.742   1.571  0.1338  0.3390 -0.3987
  794MOL0     C 7071  11.057   7.655   1.495 -0.2321  0.5983  0.3620
  794MOL0     N 7072  11.197   7.669   1.552  0.4769  0.2955  0.0018
  794MOL0     C 7073  11.268   7.784   1.556 -0.0334 -0.3656 -0.2559
  794MOL0     C 7074  11.381   7.751   1.633  0.2737 -0.2727  0.1534
  794MOL0     C 7075  11.470   7.865   1.666 -0.6422  0.2742  0.7197
  794MOL0     C 7076  11.562   7.896   1.551 -1.1702 -0.4489  0.4597
  794MOL0     C 7077  11.690   7.983   1.590 -0.2033  0.5219 -0.6537
  794MOL0     C 7078  11.778   8.017   1.467  0.7936 -0.2304  0.1220
  794MOL0     O 7079  11.877   8.108   1.512  0.6204 -0.1068  0.1337
  794MOL0     C 7080  11.984   8.141   1.427  0.8246 -0.2878  0.9139
  794MOL0     C 7081  12.013   8.082   1.300  0.0267  0.3152 -0.1203
  794MOL0     C 7082  12.117   8.130   1.228 -0.2854  0.0002 -0.1832
  794MOL0     C 7083  12.202   8.232   1.269 -0.4653 -0.2425 -0.3239
  794MOL0     C 7084  12.308   8.279   1.178  0.3159  0.0790  0.2078
  794MOL0     O 7085  12.332   8.202   1.073  0.1100  0.6321  0.0372
  794MOL0     C 7086  12.426   8.245   0.979 -0.4324  0.2175  0.5182
  794MOL0     C 7087  12.366   8.278   0.857 -0.1025  0.1295 -0.0512
  794MOL0     C 7088  12.453   8.328   0.759 -0.6884  0.7209 -0.0258
  794MOL0     C 7089  12.592   8.344   0.771 -0.1465  0.0986  0.3191
  794MOL0     O 7090  12.662   8.390   0.661 -0.5390 -0.5155 -0.3579
  794MOL0     C 7091  12.756   8.296   0.606  0.1932  0.2207  0.8128
  794MOL0     C 7092  12.899   8.341   0.641 -0.6579  0.3591  0.2917
  794MOL0     C 7093  12.997   8.276   0.542 -0.4118 -0.6607  0.5850
  794MOL0     C 7094  13.146   8.292   0.610 -0.5870 -0.3019 -0.5817
  794MOL0     C 7095  13.252   8.248   0.510 -0.8325  0.2212  0.7001
  794MOL0     C 7096  13.386   8.204   0.581  0.2086 -0.1400  0.4465
  794MOL0     C 7097  13.507   8.224   0.491 -0.9783  0.2376 -0.5050
  794MOL0     C 7098  13.638   8.211   0.573 -0.9940 -0.0435 -0.3030
  794MOL0    Cl 7099  13.732   8.360   0.574 -0.4948  0.0033  0.3036
  794MOL0     C 7100  12.648   8.303   0.892 -0.1666 -0.0242 -0.1772
  794MOL0     C 7101  12.568   8.248   0.997  0.7089 -0.2835  0.6311
  794MOL0     O 7102  12.377   8.370   1.210 -0.2662 -0.1255  0.0157
  794MOL0     C 7103  12.186   8.281   1.393 -0.4116 -0.0121 -0.1980
  794MOL0     C 7104  12.079   8.233   1.467 -0.4086  0.7190 -0.3466
  794MOL0     N 7105  11.380   7.617   1.669  0.2676 -0.5075  0.2059
  794MOL0     N 7106  11.269   7.573   1.621  0.8098 -0.1307 -0.2792
  794MOL0     C 7107  10.105   8.157   1.539 -0.5098 -0.3796  0.1053
  794MOL0     C 7108   9.978   8.116   1.578 -0.0268  0.0453 -0.3950
  794MOL0     C 7109   9.607   7.963   1.780  0.0774 -0.4236 -0.5806
  794MOL0     C 7110   9.533   7.939   1.665  0.6792  0.4257  0.8638
  794MOL0     C 7111   9.401   7.914   1.676  0.8061  0.0288 -0.8283
  794MOL0     C 7112   9.333   7.900   1.800 -0.1641  0.7454  0.3662
  794MOL0     O 7113   9.201   7.860   1.810 -0.2097 -0.0850  0.3776
  794MOL0     C 7114   9.143   7.790   1.700 -0.4974 -0.3552 -0.4143
  794MOL0     C 7115   9.011   7.731   1.756 -0.3371 -0.7420  0.1412
  794MOL0     C 7116   8.900   7.834   1.788 -0.2373  0.8018  0.2373
  794MOL0     C 7117   8.762   7.777   1.819  0.6234 -0.0721 -0.3673
  794MOL0     C 7118   8.684   7.740   1.701 -1.0712  0.6576  0.5497
  794MOL0     C 7119   8.614   7.701   1.611 -0.6814 -0.8154  0.0666
  794MOL0     C 7120   9.404   7.936   1.910 -0.0447  0.1896 -0.3588
  794MOL0     C 7121   9.537   7.965   1.906  0.1259  0.3801  0.0885
  794MOL0     C 7122   9.607   7.990   2.039 -0.5512  0.2985 -0.0497
  794MOL0     H 7123  10.041   7.808   1.684  0.8559 -0.0183  2.4066
  794MOL0     H 7124  10.272   7.861   1.617  0.4585  0.1195 -2.3173
  794MOL0     H 7125  10.393   8.259   1.656  3.1427  0.9745  0.2169
  794MOL0     H 7126  10.390   8.102   1.742  0.9568 -0.8454 -0.2978
  794MOL0     H 7127  10.627   8.162   1.697 -1.4325 -0.3482  1.0544
  794MOL0     H 7128  10.585   8.151   1.521 -4.4177  3.1527 -0.0915
  794MOL0     H 7129  10.497   7.910   1.581  1.6394 -0.0732  0.2117
  794MOL0     H 7130  10.571   7.932   1.739  3.2909 -2.1359  0.4029
  794MOL0     H 7131  10.730   7.946   1.479 -0.2925  4.5826  1.5600
  794MOL0     H 7132  10.788   7.953   1.640 -2.2491  1.5240  1.6119
  794MOL0     H 7133  10.708   7.718   1.695 -3.5828  1.6496  0.8227
  794MOL0     H 7134  10.620   7.701   1.539  0.3222  1.2058 -2.2581
  794MOL0     H 7135  10.813   7.581   1.514  0.2562 -0.1307  6.5737
  794MOL0     H 7136  10.818   7.715   1.407  1.7452 -0.3998 -0.1161
  794MOL0     H 7137  10.968   7.717   1.677 -0.1260 -1.1972 -0.7095
  794MOL0     H 7138  10.958   7.849   1.551 -0.2851  0.1297 -1.6837
  794MOL0     H 7139  11.021   7.553   1.515 -0.4994  0.1844 -2.0293
  794MOL0     H 7140  11.073   7.670   1.388 -1.3981 -1.0985 -0.0854
  794MOL0     H 7141  11.246   7.879   1.508 -0.4482 -0.3566 -0.0513
  794MOL0     H 7142  11.419   7.959   1.690  1.1486  2.1542 -2.2438
  794MOL0     H 7143  11.529   7.838   1.755 -1.7610  0.7312  1.6168
  794MOL0     H 7144  11.592   7.800   1.507  0.2349 -0.5575  1.5892
  794MOL0     H 7145  11.518   7.956   1.471  1.0326 -2.3761 -2.4227
  794MOL0     H 7146  11.755   7.918   1.649  0.5293 -0.3275 -2.3359
  794MOL0     H 7147  11.663   8.076   1.640 -1.3558  0.0999 -0.4367
  794MOL0     H 7148  11.719   8.079   1.400 -0.4002  0.2555  1.5680
  794MOL0     H 7149  11.820   7.929   1.418  1.5042  0.4305 -0.4672
  794MOL0     H 7150  11.952   8.003   1.258  0.8592 -0.8288  0.7522
  794MOL0     H 7151  12.132   8.076   1.136  0.3356 -4.6300  2.3223
  794MOL0     H 7152  12.262   8.251   0.841 -0.3573  0.0276  1.5533
  794MOL0     H 7153  12.406   8.368   0.669  0.7591  1.5782 -0.4447
  794MOL0     H 7154  12.728   8.200   0.650 -0.0650  1.0794  2.5956
  794MOL0     H 7155  12.741   8.299   0.498 -0.5789  2.3707  0.9245
  794MOL0     H 7156  12.924   8.448   0.646  2.1031 -0.2425  1.0960
  794MOL0     H 7157  12.914   8.301   0.742 -5.3656 -1.0712  0.6544
  794MOL0     H 7158  12.966   8.173   0.524  0.1092 -0.7008 -0.1561
  794MOL0     H 7159  12.986   8.330   0.447 -0.3045  0.6597  1.2951
  794MOL0     H 7160  13.138   8.235   0.703  0.0846  2.1890  1.0969
  794MOL0     H 7161  13.166   8.396   0.637 -1.1217 -0.0849 -0.9844
  794MOL0     H 7162  13.272   8.330   0.440 -0.5076 -0.9483 -0.6186
  794MOL0     H 7163  13.212   8.174   0.440  2.0618 -1.0704  0.2549
  794MOL0     H 7164  13.405   8.264   0.671  3.5268 -1.3626  0.6880
  794MOL0     H 7165  13.377   8.103   0.622 -1.7522 -0.5733 -0.9061
  794MOL0     H 7166  13.497   8.321   0.440  2.8542 -0.0222 -2.0870
  794MOL0     H 7167  13.503   8.152   0.409  2.7266  1.2655 -1.7881
  794MOL0     H 7168  13.614   8.191   0.678  0.0057 -1.8133 -0.3787
  794MOL0     H 7169  13.688   8.124   0.530  1.0182  1.4806 -1.2328
  794MOL0     H 7170  12.752   8.327   0.910 -0.4179  0.3148  0.8959
  794MOL0     H 7171  12.621   8.210   1.084 -0.2615 -0.8228  1.0019
  794MOL0     H 7172  12.248   8.346   1.454 -2.5420 -1.5121  3.9508
  794MOL0     H 7173  12.064   8.268   1.568  1.6325  0.1356  0.2020
  794MOL0     H 7174  10.111   8.260   1.505 -0.4299  0.1735  1.6791
  794MOL0     H 7175   9.886   8.171   1.562 -1.0034 -1.1508  0.8790
  794MOL0     H 7176   9.582   7.936   1.568 -1.0656  0.2810 -0.0448
  794MOL0     H 7177   9.345   7.893   1.585  1.6329  0.7756 -1.5220
  794MOL0     H 7178   9.198   7.704   1.659 -2.2324 -3.1306  2.6332
  794MOL0     H 7179   9.114   7.864   1.625 -2.8521 -0.6412  0.1590
  794MOL0     H 7180   9.046   7.661   1.833  3.3464  0.2892 -0.3674
  794MOL0     H 7181   8.959   7.678   1.676 -0.7386 -0.4794  0.2276
  794MOL0     H 7182   8.893   7.896   1.698 -1.3589 -1.1951 -1.1204
  794MOL0     H 7183   8.942   7.894   1.870 -1.4179  0.7955  0.8731
  794MOL0     H 7184   8.771   7.686   1.879  1.5994  0.3207  0.1085
  794MOL0     H 7185   8.706   7.849   1.880  0.8196  0.2467 -0.5591
  794MOL0     H 7186   8.556   7.664   1.529 -0.0665 -0.3402 -0.5868
  794MOL0     H 7187   9.354   7.941   2.006  1.8159 -1.5932  0.7778
  794MOL0     H 7188   9.625   8.097   2.052  0.7417  0.1652 -0.5726
  794MOL0     H 7189   9.544   7.961   2.124 -1.8433  2.2053 -0.2962
  794MOL0     H 7190   9.696   7.929   2.053 -0.5902 -0.3834 -2.3152
  795MOL0     O 7191   5.589   7.860  10.861  0.1107 -0.2712  0.0419
  795MOL0     C 7192   5.657   7.848  10.758  0.7090 -0.1003  0.5209
  795MOL0     O 7193   5.778   7.796  10.754 -0.1827 -0.3445  0.1193
  795MOL0     C 7194   5.838   7.735  10.866  0.8733 -0.3758 -1.3992
  795MOL0     C 7195   5.868   7.816  10.981  0.7671  0.5172  0.1007
  795MOL0     C 7196   5.920   7.749  11.095  0.0927 -0.1508  0.3649
  795MOL0     C 7197   5.952   7.615  11.089  0.2698 -0.2883 -0.3690
  795MOL0     O 7198   6.018   7.568  11.202  0.3991  0.5719  0.2624
  795MOL0     C 7199   6.128   7.478  11.179 -0.9227  0.8068 -0.2422
  795MOL0     C 7200   6.246   7.573  11.222 -0.6242  0.0766 -1.1876
  795MOL0     C 7201   6.295   7.673  11.121 -0.1204 -0.2987  0.4716
  795MOL0     C 7202   6.404   7.781  11.185  0.5200 -0.1983  0.8938
  795MOL0     C 7203   6.516   7.816  11.090  0.6634 -0.1822  0.6410
  795MOL0     C 7204   6.607   7.704  11.037 -0.5499  1.3094  0.1010
  795MOL0     C 7205   6.741   7.751  10.987  0.9632 -0.1802 -0.5160
  795MOL0     C 7206   6.719   7.849  10.865  0.9564  0.4190  0.8050
  795MOL0     N 7207   6.822   7.859  10.764  0.2068 -0.1331 -0.2038
  795MOL0     C 7208   6.805   7.874  10.630 -0.0778  0.2772  0.1862
  795MOL0     C 7209   6.938   7.877  10.575  0.7201  0.6141  0.0605
  795MOL0     C 7210   6.983   7.894  10.435  0.4390  0.2202 -0.5778
  795MOL0     C 7211   6.940   8.038  10.397 -0.7070 -0.4148  0.2608
  795MOL0     C 7212   6.948   8.068  10.241 -0.0785 -0.8208  0.2730
  795MOL0     C 7213   7.091   8.047  10.189 -0.5739  0.9699  0.6834
  795MOL0     O 7214   7.080   8.015  10.053 -0.8290 -0.2288  0.2891
  795MOL0     C 7215   7.193   8.017   9.975 -0.2539  0.3021 -0.0880
  795MOL0     C 7216   7.162   8.009   9.834  0.0541  0.1113 -0.8045
  795MOL0     C 7217   7.274   8.005   9.748 -0.5894  1.0314 -0.1258
  795MOL0     C 7218   7.407   8.018   9.784  0.1937 -0.1469  0.5230
  795MOL0     C 7219   7.519   8.004   9.684  0.2600 -0.0211 -0.4203
  795MOL0     O 7220   7.484   7.969   9.560 -0.2367 -0.6022  0.4616
  795MOL0     C 7221   7.552   8.024   9.447 -0.1445 -0.0493 -0.0023
  795MOL0     C 7222   7.522   7.963   9.327  0.3731  0.6585 -0.1423
  795MOL0     C 7223   7.558   8.024   9.199 -1.1169  0.1775 -0.4677
  795MOL0     C 7224   7.648   8.131   9.202 -0.3635 -0.6569  0.3059
  795MOL0     O 7225   7.681   8.185   9.083 -0.0945  0.0287  0.1542
  795MOL0     C 7226   7.788   8.113   9.018 -0.2450 -1.0389  0.0636
  795MOL0     C 7227   7.927   8.155   9.070 -0.3931  0.0420 -0.4814
  795MOL0     C 7228   7.950   8.304   9.051 -0.0808 -1.1712 -0.0499
  795MOL0     C 7229   8.089   8.349   9.092  0.9410  0.0745 -0.3782
  795MOL0     C 7230   8.190   8.294   8.989  0.0847  0.0164  0.5267
  795MOL0     C 7231   8.320   8.365   9.000  0.0889 -0.2857  0.7326
  795MOL0     C 7232   8.430   8.322   8.891  1.0930 -0.2604 -0.1290
  795MOL0     C 7233   8.383   8.333   8.749 -0.6071 -0.0311 -0.8866
  795MOL0    Cl 7234   8.507   8.287   8.639  0.2782 -0.3534 -0.1891
  795MOL0     C 7235   7.689   8.188   9.317  0.2542 -0.3063 -0.4571
  795MOL0     C 7236   7.638   8.133   9.439 -0.5923  0.2965  0.0231
  795MOL0     O 7237   7.630   8.022   9.725  0.4471  0.0100 -0.5111
  795MOL0     C 7238   7.433   8.037   9.925 -0.2311 -0.1733  0.1293
  795MOL0     C 7239   7.329   8.031  10.019  0.7026  0.0627  0.6129
  795MOL0     N 7240   7.022   7.856  10.682  0.3871  0.4157  0.5679
  795MOL0     N 7241   6.953   7.845  10.787 -0.5440  0.6652 -0.8020
  795MOL0     C 7242   5.914   7.538  10.977 -0.3775 -0.5908  0.3782
  795MOL0     C 7243   5.859   7.597  10.867  1.2886 -0.3415 -0.5149
  795MOL0     C 7244   5.598   7.906  10.638  0.3356  0.0582 -0.3733
  795MOL0     C 7245   5.685   7.946  10.537 -0.9628 -0.4360  0.1933
  795MOL0     C 7246   5.644   7.977  10.404  0.4972 -0.2596  0.4545
  795MOL0     C 7247   5.513   7.960  10.366 -0.6970  0.2381 -0.4838
  795MOL0     O 7248   5.470   7.977  10.234  0.4497 -0.5164 -0.4762
  795MOL0     C 7249   5.548   8.019  10.122  0.1764  0.2055  1.2467
  795MOL0     C 7250   5.483   7.965   9.996 -0.6606 -0.1911 -0.1543
  795MOL0     C 7251   5.511   7.817   9.966  0.0107  0.4988 -0.1825
  795MOL0     C 7252   5.439   7.779   9.837 -0.0989  0.4808  0.8541
  795MOL0     C 7253   5.436   7.630   9.822  0.3804  0.1556 -0.3651
  795MOL0     C 7254   5.446   7.510   9.817 -0.3131 -0.0849  0.0918
  795MOL0     C 7255   5.425   7.916  10.462  0.0736 -0.5885  0.8104
  795MOL0     C 7256   5.462   7.898  10.592  0.2440 -0.2628  0.0665
  795MOL0     C 7257   5.356   7.831  10.678 -0.5632  0.2971  0.7177
  795MOL0     H 7258   5.839   7.921  10.982 -2.9834 -0.3744 -0.5103
  795MOL0     H 7259   5.943   7.808  11.183 -0.0669  1.1582 -0.4455
  795MOL0     H 7260   6.128   7.385  11.237 -0.9317  1.2737  0.5220
  795MOL0     H 7261   6.129   7.447  11.074 -2.3275 -2.3778  0.5598
  795MOL0     H 7262   6.332   7.515  11.256  0.5663  1.0050 -2.5112
  795MOL0     H 7263   6.215   7.629  11.310  2.2583  2.5187 -1.5798
  795MOL0     H 7264   6.228   7.734  11.060  0.9875 -1.1929 -1.7790
  795MOL0     H 7265   6.353   7.616  11.047  2.8585  2.2717  0.6107
  795MOL0     H 7266   6.344   7.870  11.205  0.0864 -0.3860  0.4560
  795MOL0     H 7267   6.443   7.731  11.274  0.2788 -2.4542 -0.1985
  795MOL0     H 7268   6.477   7.875  11.006  0.6385 -2.9452 -1.4281
  795MOL0     H 7269   6.585   7.882  11.144  1.4755  1.8019 -2.5421
  795MOL0     H 7270   6.627   7.627  11.112  2.3632 -0.4338 -2.2521
  795MOL0     H 7271   6.561   7.642  10.960  3.4084 -3.1484  0.8680
  795MOL0     H 7272   6.794   7.664  10.947 -0.5920 -0.4489 -2.1309
  795MOL0     H 7273   6.800   7.794  11.068 -1.2368  0.7603  0.6694
  795MOL0     H 7274   6.629   7.823  10.808  0.6954  0.6636  1.1016
  795MOL0     H 7275   6.707   7.953  10.897  1.5812  0.8470 -0.2963
  795MOL0     H 7276   6.706   7.874  10.587 -0.0044 -1.7477 -0.1121
  795MOL0     H 7277   7.092   7.880  10.437  0.2967 -0.9796  0.6796
  795MOL0     H 7278   6.932   7.828  10.364 -0.7730  0.3895  0.1211
  795MOL0     H 7279   6.837   8.055  10.429 -0.6001  0.2783  0.2705
  795MOL0     H 7280   7.014   8.109  10.435  0.7836 -1.7826  0.0192
  795MOL0     H 7281   6.912   8.167  10.209  0.9356 -1.7324 -4.5696
  795MOL0     H 7282   6.887   7.992  10.193 -2.0529  2.1457 -2.3591
  795MOL0     H 7283   7.145   7.961  10.230 -3.7412 -1.3771  0.2972
  795MOL0     H 7284   7.149   8.136  10.214  1.8135 -0.0606 -0.8666
  795MOL0     H 7285   7.064   7.981   9.798  0.5404 -1.2923 -1.0647
  795MOL0     H 7286   7.258   7.966   9.648  0.4165 -0.8409  0.3989
  795MOL0     H 7287   7.458   7.876   9.326 -1.1587  1.7512 -1.6643
  795MOL0     H 7288   7.516   7.995   9.103  0.2515  0.6277 -1.2170
  795MOL0     H 7289   7.775   8.005   9.030 -4.2960 -0.5451  1.7652
  795MOL0     H 7290   7.776   8.152   8.917 -0.1470  0.7249  0.6898
  795MOL0     H 7291   7.941   8.125   9.174 -0.6778  0.5144 -0.3039
  795MOL0     H 7292   7.999   8.099   9.009  3.9736  2.1817  2.1901
  795MOL0     H 7293   7.932   8.339   8.949  1.9271  1.1285  0.3017
  795MOL0     H 7294   7.885   8.373   9.106  2.7391  2.4667 -0.9192
  795MOL0     H 7295   8.116   8.316   9.193 -1.0324 -1.7602 -0.3752
  795MOL0     H 7296   8.099   8.457   9.098  0.0908  0.3195 -2.5026
  795MOL0     H 7297   8.161   8.307   8.884 -1.8374 -1.7536  0.7707
  795MOL0     H 7298   8.195   8.187   9.009 -4.0268 -0.3937  0.4035
  795MOL0     H 7299   8.311   8.471   8.973  5.2552 -0.3399 -2.6561
  795MOL0     H 7300   8.365   8.365   9.100  4.2606  4.4035 -0.6819
  795MOL0     H 7301   8.451   8.218   8.916 -2.3608 -1.3663 -1.1871
  795MOL0     H 7302   8.513   8.390   8.913  0.3822  0.5735  0.0489
  795MOL0     H 7303   8.303   8.258   8.747  0.2052 -1.2639  3.4512
  795MOL0     H 7304   8.348   8.431   8.715  1.2750  0.2283 -2.2402
  795MOL0     H 7305   7.760   8.269   9.329  0.9433 -0.9578  0.0703
  795MOL0     H 7306   7.681   8.182   9.526  0.8659  0.3345 -0.6834
  795MOL0     H 7307   7.535   8.039   9.962 -0.2994 -2.5010  0.6403
  795MOL0     H 7308   7.364   8.048  10.120  0.3237 -0.0134  0.7599
  795MOL0     H 7309   5.929   7.430  10.984 -2.0020 -0.7499  3.2780
  795MOL0     H 7310   5.819   7.536  10.786 -1.0646 -1.7067  1.5183
  795MOL0     H 7311   5.787   7.968  10.566 -0.8947 -0.4092 -0.0652
  795MOL0     H 7312   5.725   8.011  10.340 -0.3610 -2.7688 -2.2048
  795MOL0     H 7313   5.648   7.981  10.143  0.4664  1.4480  2.2561
  795MOL0     H 7314   5.550   8.129  10.124 -2.9569  0.3696  3.8156
  795MOL0     H 7315   5.513   8.025   9.910  0.3925 -0.3497  0.0893
  795MOL0     H 7316   5.373   7.971   9.999 -0.8105 -0.2251 -3.0047
  795MOL0     H 7317   5.477   7.760  10.053  4.1895 -0.2151  1.2444
  795MOL0     H 7318   5.618   7.799   9.947  1.0010  2.2377  3.0197
  795MOL0     H 7319   5.336   7.817   9.837 -1.0631 -1.9668 -0.5097
  795MOL0     H 7320   5.489   7.824   9.750 -1.0828 -3.2350 -1.8644
  795MOL0     H 7321   5.458   7.405   9.800 -0.2038  0.3131 -2.9441
  795MOL0     H 7322   5.319   7.912  10.441  0.6389  0.4982 -3.2801
  795MOL0     H 7323   5.403   7.732  10.679 -2.7385 -0.9416 -2.4830
  795MOL0     H 7324   5.342   7.867  10.780  0.7579 -0.0402  1.0401
  795MOL0     H 7325   5.257   7.828  10.631 -0.2534 -0.3736  0.0910
  796MOL0     O 7326   3.046  10.223  11.230 -0.3226 -1.3157 -0.2920
  796MOL0     C 7327   3.066  10.345  11.247  0.0253  0.7212  0.2130
  796MOL0     O 7328   3.186  10.401  11.252  0.5684  0.4808  0.0293
  796MOL0     C 7329   3.279  10.363  11.159  0.0070  0.1109 -0.2469
  796MOL0     C 7330   3.247  10.313  11.030 -1.0892  0.0126 -0.1666
  796MOL0     C 7331   3.354  10.254  10.955  0.4468 -0.3722 -0.1475
  796MOL0     C 7332   3.485  10.241  11.004  0.7207  0.5818 -0.8077
  796MOL0     O 7333   3.582  10.202  10.917  0.3232  0.3230 -0.7384
  796MOL0     C 7334   3.709  10.169  10.973  0.2957 -0.5422  0.7808
  796MOL0     C 7335   3.778  10.093  10.860  0.1923  0.5118  0.5569
  796MOL0     C 7336   3.927  10.090  10.889  0.1710 -0.9768  0.3199
  796MOL0     C 7337   3.993   9.998  10.789 -0.1625 -0.1485  0.4352
  796MOL0     C 7338   4.144   9.997  10.829  0.2080  0.1914 -1.8694
  796MOL0     C 7339   4.238   9.951  10.727  1.4283 -0.4804 -0.2613
  796MOL0     C 7340   4.389   9.950  10.779  1.0233 -0.3323 -0.3358
  796MOL0     C 7341   4.491  10.004  10.690  0.4321 -0.2902 -0.6316
  796MOL0     N 7342   4.626   9.977  10.737  0.3402  0.2155  0.6873
  796MOL0     C 7343   4.730  10.067  10.732 -0.0144 -0.2212  0.8966
  796MOL0     C 7344   4.845   9.986  10.748  0.6530 -0.1122  1.1535
  796MOL0     C 7345   4.981  10.031  10.755 -1.2148  0.2472 -0.4609
  796MOL0     C 7346   5.076   9.940  10.668 -0.5156 -0.4330  0.0301
  796MOL0     C 7347   5.207  10.011  10.665 -0.3294  0.5754  0.5607
  796MOL0     C 7348   5.315   9.910  10.628  0.1897 -0.2118  0.9180
  796MOL0     O 7349   5.442   9.976  10.626  1.1157 -0.7029  0.9542
  796MOL0     C 7350   5.532   9.919  10.713  0.1294  0.4079  0.3258
  796MOL0     C 7351   5.595   9.995  10.813 -0.2207 -0.1683  0.4647
  796MOL0     C 7352   5.687   9.935  10.892 -0.1464  0.1611  0.0645
  796MOL0     C 7353   5.728   9.806  10.875  0.4555  1.0824 -0.0940
  796MOL0     C 7354   5.846   9.755  10.960  0.3841  0.0849 -0.2837
  796MOL0     O 7355   5.895   9.840  11.067 -0.1379 -0.2582 -0.1850
  796MOL0     C 7356   6.005   9.799  11.134 -0.0635 -0.2881 -0.4776
  796MOL0     C 7357   6.134   9.851  11.099  0.2212  0.2966  0.1054
  796MOL0     C 7358   6.246   9.786  11.162 -0.6946  0.3587  0.2277
  796MOL0     C 7359   6.235   9.686  11.254 -0.0591  0.6124  0.4305
  796MOL0     O 7360   6.330   9.608  11.310  0.3013  0.0844  1.0911
  796MOL0     C 7361   6.420   9.673  11.404  1.0149 -0.6838 -1.0671
  796MOL0     C 7362   6.531   9.574  11.449 -0.0541 -0.6846 -0.2227
  796MOL0     C 7363   6.627   9.524  11.344 -0.2246  0.1790 -0.2246
  796MOL0     C 7364   6.720   9.635  11.291 -0.3592  1.0384 -0.1265
  796MOL0     C 7365   6.809   9.573  11.176  0.0408 -0.3808 -0.5544
  796MOL0     C 7366   6.933   9.656  11.133 -0.5108 -0.9298  0.4709
  796MOL0     C 7367   6.997   9.609  10.998  1.1094 -0.5885 -0.7560
  796MOL0     C 7368   7.072   9.478  11.007 -0.0080 -0.0542  0.5315
  796MOL0    Cl 7369   7.240   9.508  11.053 -0.1544  0.7388 -0.1092
  796MOL0     C 7370   6.109   9.643  11.284  0.7442 -0.3810 -0.1315
  796MOL0     C 7371   5.995   9.700  11.230  0.2057  0.5562  0.3856
  796MOL0     O 7372   5.890   9.646  10.942 -0.2911 -0.0873  0.1389
  796MOL0     C 7373   5.680   9.734  10.773  0.9622 -0.8126  1.3780
  796MOL0     C 7374   5.575   9.786  10.692  0.4130 -0.9554  0.5510
  796MOL0     N 7375   4.805   9.853  10.759 -0.4449  0.0720 -0.6040
  796MOL0     N 7376   4.676   9.851  10.749  0.0562  0.6659 -0.1506
  796MOL0     C 7377   3.506  10.307  11.132  0.1264 -0.0661  0.5081
  796MOL0     C 7378   3.408  10.375  11.206 -0.1008 -0.1032 -0.2677
  796MOL0     C 7379   2.944  10.426  11.301 -0.2554 -0.1344 -0.2602
  796MOL0     C 7380   2.972  10.551  11.369  0.4141  0.3655  0.1401
  796MOL0     C 7381   2.862  10.629  11.419 -0.1564 -0.1825  0.1958
  796MOL0     C 7382   2.734  10.596  11.394  0.2392  0.4848  0.2540
  796MOL0     O 7383   2.629  10.685  11.425  0.1826  0.1948  0.4173
  796MOL0     C 7384   2.585  10.745  11.307  0.6350 -0.5276  0.0460
  796MOL0     C 7385   2.439  10.710  11.267  0.2321 -0.0436 -0.2576
  796MOL0     C 7386   2.402  10.777  11.140  0.2195  0.5389  0.5496
  796MOL0     C 7387   2.419  10.928  11.141  0.3964 -0.4467 -0.5882
  796MOL0     C 7388   2.330  11.007  11.059  0.1171 -0.3057 -0.7962
  796MOL0     C 7389   2.266  11.061  10.978 -0.5563  0.4481 -0.0095
  796MOL0     C 7390   2.706  10.477  11.321 -0.9293 -0.1980 -0.3893
  796MOL0     C 7391   2.803  10.388  11.277 -0.5269  0.3431 -0.4335
  796MOL0     C 7392   2.752  10.273  11.195  0.1703  0.6306 -0.2375
  796MOL0     H 7393   3.144  10.307  10.997 -0.8919 -0.5660 -0.6765
  796MOL0     H 7394   3.329  10.212  10.858 -1.9213  0.1611  0.1830
  796MOL0     H 7395   3.759  10.261  11.003 -0.9627 -0.2151  1.9686
  796MOL0     H 7396   3.693  10.114  11.066 -1.3524 -0.3602  0.6420
  796MOL0     H 7397   3.772  10.152  10.768  2.7183 -0.5768 -0.3998
  796MOL0     H 7398   3.740   9.993  10.836  2.2662 -0.3497  0.6541
  796MOL0     H 7399   3.947  10.049  10.989 -2.8037 -2.2445  0.4813
  796MOL0     H 7400   3.963  10.192  10.872 -2.0082 -0.5761 -2.7025
  796MOL0     H 7401   3.953   9.897  10.784  1.0156 -0.6028 -0.1321
  796MOL0     H 7402   3.976  10.036  10.688 -2.3742  0.0316  0.8179
  796MOL0     H 7403   4.179  10.099  10.852 -1.5683  0.4230  0.1009
  796MOL0     H 7404   4.151   9.941  10.922  1.1177  1.7072 -0.9718
  796MOL0     H 7405   4.212   9.849  10.697 -0.1786  0.1279 -1.0156
  796MOL0     H 7406   4.226  10.021  10.643  0.3192 -0.8987 -0.4634
  796MOL0     H 7407   4.427   9.850  10.801  0.3732 -0.4751  0.1504
  796MOL0     H 7408   4.387  10.009  10.871  1.8763 -0.9474  0.0914
  796MOL0     H 7409   4.487   9.962  10.589 -0.7240  1.1375 -1.2160
  796MOL0     H 7410   4.465  10.110  10.679  0.3307 -0.0895  1.3056
  796MOL0     H 7411   4.728  10.173  10.712 -1.0174 -0.6300 -1.4878
  796MOL0     H 7412   4.991  10.132  10.716 -2.3387  1.1504  1.4738
  796MOL0     H 7413   5.019  10.030  10.858  0.2486 -1.2777 -0.9631
  796MOL0     H 7414   5.073   9.835  10.697 -1.0005 -0.5445 -0.4084
  796MOL0     H 7415   5.028   9.926  10.571 -2.0169 -1.8584  0.9314
  796MOL0     H 7416   5.226  10.060  10.761 -0.4462  2.5509 -0.3771
  796MOL0     H 7417   5.213  10.091  10.591 -0.3811  1.0686  1.0812
  796MOL0     H 7418   5.291   9.868  10.530 -0.7188  1.5296  0.3452
  796MOL0     H 7419   5.311   9.825  10.698 -1.0516 -0.6536  0.3356
  796MOL0     H 7420   5.563  10.095  10.840 -0.3404 -0.5660  1.8620
  796MOL0     H 7421   5.739   9.997  10.964 -1.8726  1.3856  0.3097
  796MOL0     H 7422   6.143   9.924  11.019 -1.4029 -0.1034 -0.4893
  796MOL0     H 7423   6.345   9.809  11.126 -1.7767 -2.0540 -5.4984
  796MOL0     H 7424   6.471   9.758  11.359  3.3386 -1.2945  0.2351
  796MOL0     H 7425   6.369   9.693  11.498  2.1563 -1.0395 -0.3453
  796MOL0     H 7426   6.585   9.616  11.534 -1.4901 -1.8574  1.3428
  796MOL0     H 7427   6.485   9.487  11.498  0.2557 -0.7894 -0.1153
  796MOL0     H 7428   6.679   9.435  11.379 -0.5666 -0.0081 -0.1845
  796MOL0     H 7429   6.575   9.476  11.261 -0.5218 -0.2997  0.2285
  796MOL0     H 7430   6.776   9.664  11.380 -2.0849 -2.1231  2.2111
  796MOL0     H 7431   6.661   9.717  11.249 -2.1961  0.2002  0.7042
  796MOL0     H 7432   6.748   9.558  11.087  0.0992  0.5165 -0.7582
  796MOL0     H 7433   6.843   9.475  11.209 -2.1252 -0.9659  0.1124
  796MOL0     H 7434   6.904   9.760  11.121  0.0393 -0.8561 -0.3198
  796MOL0     H 7435   7.015   9.655  11.206  1.7274 -0.4685 -1.8759
  796MOL0     H 7436   7.060   9.692  10.964 -1.7552  2.3560  0.5468
  796MOL0     H 7437   6.907   9.601  10.935  1.0523 -0.6393 -0.6677
  796MOL0     H 7438   7.020   9.410  11.074  2.2858 -2.0590  0.4232
  796MOL0     H 7439   7.091   9.444  10.904  0.6499  2.2993 -0.1948
  796MOL0     H 7440   6.090   9.560  11.352 -0.6576 -1.0354 -1.2574
  796MOL0     H 7441   5.896   9.655  11.234  0.8991 -1.5243 -2.6358
  796MOL0     H 7442   5.715   9.631  10.763 -0.0329 -1.1003  0.7520
  796MOL0     H 7443   5.550   9.728  10.604 -1.5843  1.3091 -0.4649
  796MOL0     H 7444   3.609  10.318  11.163  0.2082 -3.2309  1.7075
  796MOL0     H 7445   3.424  10.406  11.309  2.7942  1.5081 -1.0895
  796MOL0     H 7446   3.076  10.582  11.378  0.6134  0.3290 -1.8104
  796MOL0     H 7447   2.885  10.729  11.456  0.0259  0.2599 -1.0649
  796MOL0     H 7448   2.652  10.728  11.223 -0.3823 -0.3810 -0.8082
  796MOL0     H 7449   2.583  10.854  11.317  0.2896 -0.3686 -1.5203
  796MOL0     H 7450   2.373  10.744  11.347 -0.8433  0.9438 -1.5301
  796MOL0     H 7451   2.435  10.601  11.265 -0.5558 -0.0404  0.5354
  796MOL0     H 7452   2.295  10.755  11.130  0.6839 -1.8651  0.3136
  796MOL0     H 7453   2.460  10.741  11.054  0.1155  0.9322  0.3129
  796MOL0     H 7454   2.403  10.967  11.242  0.4790 -1.4689 -0.1721
  796MOL0     H 7455   2.520  10.961  11.116  0.7439  0.7376  2.0164
  796MOL0     H 7456   2.207  11.111  10.903 -2.3894  2.2302  2.4719
  796MOL0     H 7457   2.604  10.455  11.290  0.0473 -1.6228 -2.8489
  796MOL0     H 7458   2.797  10.287  11.096  0.0471 -1.8687 -0.7211
  796MOL0     H 7459   2.791  10.178  11.234 -1.7899  0.6994  2.1174
  796MOL0     H 7460   2.643  10.275  11.184  0.1143 -1.2026 -0.2656
  797MOL0     O 7461  11.013   3.714   2.482  0.0560  0.0259 -0.5142
  797MOL0     C 7462  11.063   3.664   2.583 -0.1637 -0.8582  1.1909
  797MOL0     O 7463  11.196   3.647   2.600  0.8459 -0.4197  0.0473
  797MOL0     C 7464  11.283   3.629   2.493  0.2197 -0.8527 -0.7782
  797MOL0     C 7465  11.248   3.575   2.364 -0.0506  0.1411  0.1252
  797MOL0     C 7466  11.337   3.564   2.263  0.2081 -0.3830 -0.4009
  797MOL0     C 7467  11.462   3.616   2.282 -0.0982 -0.2451  0.3476
  797MOL0     O 7468  11.545   3.597   2.177  0.2586 -0.0968 -0.1794
  797MOL0     C 7469  11.688   3.602   2.193  0.6410  0.7020 -0.9932
  797MOL0     C 7470  11.751   3.532   2.080  0.6614 -0.2687 -0.0279
  797MOL0     C 7471  11.902   3.507   2.102  0.0588 -1.2575 -0.3974
  797MOL0     C 7472  11.975   3.631   2.139 -0.5431  0.1191  0.4623
  797MOL0     C 7473  12.127   3.598   2.150  0.1415 -0.0407 -0.1677
  797MOL0     C 7474  12.206   3.714   2.210  0.2016 -0.6641 -0.0460
  797MOL0     C 7475  12.351   3.688   2.224 -0.0939 -0.0192  0.1827
  797MOL0     C 7476  12.380   3.598   2.340  0.1258 -0.2619  0.5599
  797MOL0     N 7477  12.508   3.610   2.403 -0.2356 -0.6259 -0.3340
  797MOL0     C 7478  12.620   3.567   2.353 -0.6090 -1.5152 -0.2598
  797MOL0     C 7479  12.719   3.579   2.453  0.0995 -0.3866  0.2962
  797MOL0     C 7480  12.859   3.532   2.436  0.2507  0.7255  0.6906
  797MOL0     C 7481  12.894   3.393   2.502  0.3329 -0.0070  0.1125
  797MOL0     C 7482  12.835   3.272   2.434  0.4084  0.1764 -0.2665
  797MOL0     C 7483  12.684   3.251   2.421 -0.6527 -0.5103 -0.7184
  797MOL0     O 7484  12.609   3.251   2.549 -0.0405 -0.2510  0.1311
  797MOL0     C 7485  12.472   3.284   2.548  0.1097 -0.5268  0.9850
  797MOL0     C 7486  12.407   3.320   2.667  0.4018  0.4625 -0.2191
  797MOL0     C 7487  12.276   3.349   2.679 -0.1735 -0.5344 -0.0225
  797MOL0     C 7488  12.192   3.345   2.564 -0.8462 -0.3134 -0.6768
  797MOL0     C 7489  12.052   3.387   2.583  0.3753 -0.2294 -0.7528
  797MOL0     O 7490  12.015   3.431   2.706 -0.2397  0.2445 -0.4550
  797MOL0     C 7491  11.890   3.478   2.747 -0.5145  0.4273  0.5370
  797MOL0     C 7492  11.765   3.459   2.681  0.4451 -0.6928  0.0369
  797MOL0     C 7493  11.637   3.493   2.731 -0.0711 -0.2785 -0.0543
  797MOL0     C 7494  11.636   3.566   2.856 -1.5256  0.0714  0.0336
  797MOL0     O 7495  11.510   3.593   2.910 -0.8789 -0.5140 -0.0873
  797MOL0     C 7496  11.496   3.537   3.040 -0.0815  0.0112 -0.1018
  797MOL0     C 7497  11.348   3.523   3.078  0.5819 -1.0642  0.4080
  797MOL0     C 7498  11.273   3.667   3.073 -0.2861  0.3224  0.5084
  797MOL0     C 7499  11.124   3.659   3.099  0.7737 -1.5699  0.0751
  797MOL0     C 7500  11.056   3.781   3.027  0.6306  0.3757  0.3247
  797MOL0     C 7501  10.905   3.794   3.068  0.5868  0.1447 -0.0690
  797MOL0     C 7502  10.843   3.912   2.992  0.0489 -0.4699 -0.2512
  797MOL0     C 7503  10.696   3.914   3.035  0.8256 -0.4051  0.1512
  797MOL0    Cl 7504  10.592   4.026   2.943  0.3593 -0.4147 -0.2800
  797MOL0     C 7505  11.760   3.590   2.919 -0.9244 -0.6238  0.0245
  797MOL0     C 7506  11.885   3.551   2.866 -0.3678  0.9430 -1.2233
  797MOL0     O 7507  11.971   3.384   2.484  0.2231 -0.2694 -0.1317
  797MOL0     C 7508  12.251   3.306   2.445  0.2261  0.0049 -0.0501
  797MOL0     C 7509  12.391   3.276   2.435  0.0537  0.4368  0.5957
  797MOL0     N 7510  12.658   3.635   2.561  0.2349 -1.1977  0.1927
  797MOL0     N 7511  12.534   3.651   2.525  0.0169  0.1287  0.0729
  797MOL0     C 7512  11.512   3.672   2.401  0.1361  0.6875  0.3205
  797MOL0     C 7513  11.420   3.677   2.514  0.3763 -0.0784  0.9485
  797MOL0     C 7514  10.977   3.615   2.685 -0.0455 -0.2840  0.0933
  797MOL0     C 7515  11.029   3.521   2.773  0.0135 -0.3841 -0.4573
  797MOL0     C 7516  10.957   3.451   2.863 -0.2545 -0.4742  0.6078
  797MOL0     C 7517  10.827   3.490   2.892 -0.5698  0.1529 -0.1292
  797MOL0     O 7518  10.770   3.429   3.006 -0.0041 -0.2895  0.2110
  797MOL0     C 7519  10.625   3.438   3.010  0.6903 -0.9614  0.2810
  797MOL0     C 7520  10.556   3.342   3.097  0.8245 -0.3111 -0.7557
  797MOL0     C 7521  10.578   3.361   3.246 -0.6845 -0.2658 -0.2302
  797MOL0     C 7522  10.704   3.276   3.295  0.4818 -0.5207 -0.2398
  797MOL0     C 7523  10.742   3.306   3.432  0.1314  1.3127 -0.7892
  797MOL0     C 7524  10.753   3.343   3.550  0.3899 -0.3889  0.1587
  797MOL0     C 7525  10.771   3.592   2.811  1.0127  0.0240 -0.6028
  797MOL0     C 7526  10.844   3.657   2.707 -0.3452  0.1677 -0.4760
  797MOL0     C 7527  10.771   3.774   2.648  0.4544  0.3902  0.0715
  797MOL0     H 7528  11.154   3.527   2.338  0.1857  1.4480 -3.8255
  797MOL0     H 7529  11.320   3.506   2.173 -0.5451  2.2070 -2.0518
  797MOL0     H 7530  11.720   3.706   2.195  3.2707 -0.0075 -1.9662
  797MOL0     H 7531  11.721   3.551   2.285  1.2544  1.3797 -0.8345
  797MOL0     H 7532  11.719   3.592   1.995 -1.6411 -0.9825  0.2633
  797MOL0     H 7533  11.697   3.441   2.054  0.0557 -0.5243  1.9585
  797MOL0     H 7534  11.955   3.469   2.014  1.8033  0.1336 -0.0115
  797MOL0     H 7535  11.910   3.434   2.183 -0.8776 -1.3710 -0.4049
  797MOL0     H 7536  11.956   3.690   2.049 -0.8593 -1.0701 -0.2765
  797MOL0     H 7537  11.934   3.674   2.232 -0.3324 -2.1550  1.6883
  797MOL0     H 7538  12.129   3.513   2.218 -2.9408  0.8602  1.1792
  797MOL0     H 7539  12.175   3.569   2.056  2.9631  1.0102  0.8367
  797MOL0     H 7540  12.194   3.804   2.147  0.5498 -2.1845 -2.4199
  797MOL0     H 7541  12.154   3.737   2.303 -3.0790 -0.5641 -1.7372
  797MOL0     H 7542  12.406   3.780   2.248 -0.1160 -0.7303  3.5051
  797MOL0     H 7543  12.405   3.641   2.141  0.1291 -0.8608  0.7840
  797MOL0     H 7544  12.296   3.605   2.409  1.1202 -1.6922  2.0021
  797MOL0     H 7545  12.360   3.499   2.296  3.0231 -0.7430  0.0805
  797MOL0     H 7546  12.635   3.527   2.253 -0.3561  0.1796 -0.9306
  797MOL0     H 7547  12.896   3.539   2.334  3.6048  0.7323  1.8013
  797MOL0     H 7548  12.901   3.607   2.503 -2.7240  1.4210  1.9498
  797MOL0     H 7549  13.002   3.379   2.508  0.4864  0.8189 -0.5121
  797MOL0     H 7550  12.853   3.403   2.603 -3.4308 -0.5966 -1.2141
  797MOL0     H 7551  12.872   3.174   2.466  1.5304 -0.1847 -2.4561
  797MOL0     H 7552  12.876   3.279   2.333  1.4040 -0.0691  0.1169
  797MOL0     H 7553  12.665   3.151   2.382  1.2124 -2.9239  3.8061
  797MOL0     H 7554  12.634   3.320   2.352 -0.0843 -0.6898 -1.3107
  797MOL0     H 7555  12.468   3.332   2.756  0.1553 -0.7478  0.1308
  797MOL0     H 7556  12.248   3.376   2.780  0.1106 -3.7314  1.0367
  797MOL0     H 7557  11.768   3.400   2.590  0.4545  0.5920 -0.8124
  797MOL0     H 7558  11.539   3.472   2.689 -0.6873 -3.2187  2.5538
  797MOL0     H 7559  11.551   3.443   3.049  0.8334  0.5395  0.0377
  797MOL0     H 7560  11.532   3.608   3.116  1.6173 -0.7268 -0.1526
  797MOL0     H 7561  11.314   3.448   3.006 -0.0124 -1.9316  1.5547
  797MOL0     H 7562  11.332   3.485   3.180 -1.7364  3.1835  1.8846
  797MOL0     H 7563  11.314   3.737   3.146  1.5059 -1.5874  1.4348
  797MOL0     H 7564  11.294   3.709   2.974  4.2636 -0.6509  0.8324
  797MOL0     H 7565  11.105   3.659   3.207  2.2434 -0.8132  0.3516
  797MOL0     H 7566  11.069   3.571   3.063 -5.2268  1.2986  0.9246
  797MOL0     H 7567  11.060   3.780   2.918 -2.3396 -1.4097  0.0919
  797MOL0     H 7568  11.105   3.868   3.072  0.3084  0.6795  0.0915
  797MOL0     H 7569  10.856   3.699   3.047  4.8462 -2.7438  1.7670
  797MOL0     H 7570  10.903   3.819   3.175 -2.5039  2.2336 -0.4558
  797MOL0     H 7571  10.853   3.886   2.886 -2.2070 -2.0860 -0.1226
  797MOL0     H 7572  10.907   3.997   3.018  0.9003 -0.4182 -2.3268
  797MOL0     H 7573  10.648   3.816   3.018 -0.5437  0.6768 -3.0181
  797MOL0     H 7574  10.683   3.928   3.143 -0.5389  1.7243 -0.2366
  797MOL0     H 7575  11.764   3.648   3.011 -1.8819 -3.6801  2.1404
  797MOL0     H 7576  11.974   3.565   2.927 -0.2307  0.3562 -1.2888
  797MOL0     H 7577  12.196   3.311   2.352 -1.2717  1.4294  0.8565
  797MOL0     H 7578  12.423   3.246   2.335  2.9411  1.3685  1.1397
  797MOL0     H 7579  11.616   3.701   2.414  0.0078  0.8452  1.0286
  797MOL0     H 7580  11.443   3.730   2.605 -1.1927 -0.4777  1.6136
  797MOL0     H 7581  11.123   3.471   2.752  0.0203  0.1266 -1.7068
  797MOL0     H 7582  11.001   3.367   2.916 -1.1511 -1.5831 -0.3530
  797MOL0     H 7583  10.577   3.421   2.913 -2.4778 -1.6814  1.8321
  797MOL0     H 7584  10.581   3.533   3.039  0.3630 -0.1068 -2.7041
  797MOL0     H 7585  10.582   3.241   3.065  1.0616  0.0010 -1.5678
  797MOL0     H 7586  10.447   3.347   3.090  0.6300 -0.2608  1.5778
  797MOL0     H 7587  10.485   3.330   3.294 -1.3146  1.9097  0.0595
  797MOL0     H 7588  10.595   3.465   3.275 -1.4803 -0.0778 -0.4308
  797MOL0     H 7589  10.670   3.173   3.280 -1.1046 -0.1527  0.6120
  797MOL0     H 7590  10.792   3.287   3.230  1.7179 -1.8043  1.1542
  797MOL0     H 7591  10.776   3.367   3.651  0.7236 -0.9483  0.2236
  797MOL0     H 7592  10.669   3.619   2.834  0.8615  0.7198 -1.9956
  797MOL0     H 7593  10.714   3.836   2.718 -1.6163 -0.3613 -0.8640
  797MOL0     H 7594  10.834   3.836   2.583  1.8354 -1.8133 -0.8237
  797MOL0     H 7595  10.690   3.727   2.592  1.2224  0.5418 -1.2237
  798MOL0     O 7596   3.995   2.262   6.320  0.2034  0.2933 -0.5001
  798MOL0     C 7597   3.996   2.373   6.264  0.4829 -0.7984  0.0722
  798MOL0     O 7598   3.896   2.457   6.264  0.4330  0.5392  0.2447
  798MOL0     C 7599   3.785   2.414   6.333 -1.1366  0.6058  0.4418
  798MOL0     C 7600   3.760   2.431   6.465  0.3527 -1.0087  0.4595
  798MOL0     C 7601   3.642   2.407   6.530 -0.6520 -0.9082 -0.0167
  798MOL0     C 7602   3.537   2.341   6.457 -0.5619 -0.4739 -0.9543
  798MOL0     O 7603   3.415   2.316   6.511  0.1964 -0.0860  0.1408
  798MOL0     C 7604   3.357   2.416   6.590  0.2566 -0.0919 -0.2263
  798MOL0     C 7605   3.216   2.440   6.528 -0.6516 -0.5829  0.6946
  798MOL0     C 7606   3.132   2.538   6.605  0.0467 -0.5182  0.1757
  798MOL0     C 7607   2.984   2.544   6.552 -0.4787 -0.5233  0.1238
  798MOL0     C 7608   2.967   2.562   6.401 -0.0014 -0.4248  0.0742
  798MOL0     C 7609   2.822   2.529   6.362 -0.0952 -0.6528 -0.2655
  798MOL0     C 7610   2.785   2.557   6.219  1.1828  0.1299  0.8601
  798MOL0     C 7611   2.816   2.447   6.109 -0.1234 -0.8694  0.3142
  798MOL0     N 7612   2.959   2.425   6.082  0.8574 -0.6048 -0.2538
  798MOL0     C 7613   3.047   2.513   6.046 -0.5963 -1.7853 -0.3753
  798MOL0     C 7614   3.162   2.451   6.008  0.7352 -1.1893 -0.6487
  798MOL0     C 7615   3.284   2.522   5.979  0.0291  0.4664  0.6543
  798MOL0     C 7616   3.399   2.433   5.932 -0.6620  0.1204  0.0592
  798MOL0     C 7617   3.531   2.512   5.913 -0.6445  0.4865  0.0939
  798MOL0     C 7618   3.643   2.407   5.868 -0.4468  0.0404 -0.4747
  798MOL0     O 7619   3.760   2.478   5.829  0.3790 -0.2019 -0.4900
  798MOL0     C 7620   3.875   2.411   5.790  0.5518 -0.2596 -0.1735
  798MOL0     C 7621   3.971   2.483   5.701  0.2064  0.8604  0.7866
  798MOL0     C 7622   4.091   2.411   5.677  0.2380 -1.0787 -0.1282
  798MOL0     C 7623   4.115   2.284   5.733  0.4409 -0.2524  0.4119
  798MOL0     C 7624   4.242   2.219   5.701 -0.6696  0.0016  0.3332
  798MOL0     O 7625   4.334   2.290   5.633  0.6014  0.3154 -0.3843
  798MOL0     C 7626   4.454   2.233   5.588 -0.2531  0.1264 -0.1502
  798MOL0     C 7627   4.512   2.112   5.636  0.1219 -0.0578 -0.2410
  798MOL0     C 7628   4.645   2.086   5.598  0.4365 -0.7472  0.0942
  798MOL0     C 7629   4.711   2.167   5.509  0.0162 -0.5372  0.2627
  798MOL0     O 7630   4.845   2.144   5.486 -0.0643 -0.0327 -0.0281
  798MOL0     C 7631   4.943   2.238   5.538  0.3626 -0.3694 -0.0679
  798MOL0     C 7632   5.056   2.250   5.442  1.2779  0.8690  0.0253
  798MOL0     C 7633   5.158   2.125   5.435  0.1159  0.2185  0.3209
  798MOL0     C 7634   5.263   2.160   5.330  0.3512  0.4332  0.4629
  798MOL0     C 7635   5.352   2.041   5.300 -0.6812 -0.2150  0.3430
  798MOL0     C 7636   5.482   2.090   5.230  0.4862  0.4420  0.1362
  798MOL0     C 7637   5.550   1.966   5.177 -0.8097 -0.8705 -0.1849
  798MOL0     C 7638   5.659   1.999   5.069  0.2647  0.4635 -0.0738
  798MOL0    Cl 7639   5.811   2.058   5.153 -0.0257 -0.4388 -0.2524
  798MOL0     C 7640   4.652   2.282   5.453 -0.3668  0.5907  0.0166
  798MOL0     C 7641   4.524   2.311   5.496 -0.2340 -0.5022 -0.9789
  798MOL0     O 7642   4.260   2.102   5.751 -0.3205  0.3762  0.2420
  798MOL0     C 7643   4.020   2.210   5.797  0.4703 -0.3360 -0.2415
  798MOL0     C 7644   3.900   2.275   5.823 -0.3235 -0.7139 -1.0786
  798MOL0     N 7645   3.133   2.311   6.024 -0.4544  0.8347  0.0330
  798MOL0     N 7646   3.011   2.301   6.058  0.1277 -0.4205  0.2939
  798MOL0     C 7647   3.563   2.310   6.325  0.2300 -0.7002 -1.2496
  798MOL0     C 7648   3.678   2.354   6.260 -0.2097 -0.5954 -0.2872
  798MOL0     C 7649   4.110   2.390   6.170 -0.1971  0.9031 -0.3633
  798MOL0     C 7650   4.182   2.280   6.125  0.3151  0.4541 -0.2919
  798MOL0     C 7651   4.282   2.291   6.022  0.3257 -0.1002 -0.7470
  798MOL0     C 7652   4.305   2.423   5.969 -0.0865  1.2428  0.5543
  798MOL0     O 7653   4.412   2.450   5.886 -0.0866  0.1419 -0.1322
  798MOL0     C 7654   4.539   2.479   5.950 -0.3346 -0.3208  1.0924
  798MOL0     C 7655   4.626   2.579   5.880 -0.6708 -0.5061  0.6460
  798MOL0     C 7656   4.653   2.548   5.728  0.8950 -0.7321 -0.3651
  798MOL0     C 7657   4.772   2.626   5.685  0.0857  0.4350 -0.9264
  798MOL0     C 7658   4.897   2.560   5.722  1.2721  0.2608  0.5061
  798MOL0     C 7659   4.991   2.505   5.769 -0.0556 -0.4461 -0.5202
  798MOL0     C 7660   4.227   2.533   6.001 -0.0984 -0.0383 -0.6379
  798MOL0     C 7661   4.132   2.519   6.111 -0.2733 -0.6909 -0.5257
  798MOL0     C 7662   4.058   2.643   6.148 -0.1511 -0.0789 -0.5870
  798MOL0     H 7663   3.834   2.488   6.521 -2.0003 -0.1081  2.8554
  798MOL0     H 7664   3.626   2.420   6.636 -0.7455  1.1636 -0.2538
  798MOL0     H 7665   3.345   2.375   6.690 -1.6106 -0.3512 -0.5131
  798MOL0     H 7666   3.406   2.513   6.591 -1.8402  1.3027 -4.5824
  798MOL0     H 7667   3.154   2.351   6.514 -2.3218  0.7751 -1.1736
  798MOL0     H 7668   3.224   2.489   6.430  0.5069 -2.3291 -0.1396
  798MOL0     H 7669   3.176   2.636   6.582 -1.8520 -0.2779 -3.0542
  798MOL0     H 7670   3.139   2.509   6.710 -0.5401 -2.2851 -0.2430
  798MOL0     H 7671   2.940   2.452   6.593  3.5705 -1.3111  3.4421
  798MOL0     H 7672   2.943   2.628   6.609  1.6043  1.1046 -0.6297
  798MOL0     H 7673   2.985   2.666   6.373  0.3132 -0.8143 -1.2504
  798MOL0     H 7674   3.033   2.491   6.350  0.0183  1.1799 -2.2578
  798MOL0     H 7675   2.778   2.430   6.374 -0.3530 -0.8703 -2.5098
  798MOL0     H 7676   2.756   2.600   6.413  0.3561 -0.1242 -0.4108
  798MOL0     H 7677   2.823   2.653   6.182 -1.6661  2.1441  2.7186
  798MOL0     H 7678   2.677   2.564   6.206  1.0870  0.5067  1.7270
  798MOL0     H 7679   2.757   2.358   6.136  0.8542 -2.0802 -1.3407
  798MOL0     H 7680   2.780   2.485   6.013 -0.9690 -0.7050  0.6897
  798MOL0     H 7681   3.038   2.617   6.076  0.8010 -1.8656  0.3612
  798MOL0     H 7682   3.258   2.588   5.896 -2.2127 -1.6459 -0.4479
  798MOL0     H 7683   3.320   2.580   6.064 -0.1383 -0.6425  1.5035
  798MOL0     H 7684   3.404   2.353   6.007 -1.3048 -1.5242 -1.5940
  798MOL0     H 7685   3.359   2.393   5.838  1.6678 -3.3767  0.3587
  798MOL0     H 7686   3.554   2.570   6.003 -0.3080  1.5892 -0.6859
  798MOL0     H 7687   3.528   2.589   5.835 -1.6352 -0.1048 -0.4731
  798MOL0     H 7688   3.612   2.338   5.789 -1.5222  2.7239 -2.5427
  798MOL0     H 7689   3.676   2.354   5.958 -0.5960 -1.7897 -1.4423
  798MOL0     H 7690   3.941   2.576   5.654 -0.3101 -1.3550 -3.9574
  798MOL0     H 7691   4.171   2.473   5.638 -1.2718  2.3795  1.7617
  798MOL0     H 7692   4.473   2.044   5.711 -0.3066  0.7223  0.2617
  798MOL0     H 7693   4.700   2.002   5.639 -1.1832 -1.6514  0.5174
  798MOL0     H 7694   4.902   2.339   5.546  3.1675  1.0295 -2.0559
  798MOL0     H 7695   4.975   2.203   5.637  2.1810 -3.9390 -1.7068
  798MOL0     H 7696   5.012   2.275   5.345 -0.5707  3.0795  1.3493
  798MOL0     H 7697   5.113   2.337   5.476  1.3712  0.7175  0.2602
  798MOL0     H 7698   5.212   2.106   5.528  1.0051 -0.8479 -0.3834
  798MOL0     H 7699   5.114   2.031   5.400 -1.6482  1.8029 -2.0155
  798MOL0     H 7700   5.333   2.240   5.355  3.6631 -1.0855 -3.0228
  798MOL0     H 7701   5.216   2.190   5.236  2.2001  1.3664 -0.2056
  798MOL0     H 7702   5.294   1.978   5.232 -1.6392 -0.2664  1.1666
  798MOL0     H 7703   5.382   1.992   5.394 -0.4368 -0.6426  0.0435
  798MOL0     H 7704   5.463   2.164   5.151  0.3936 -1.1160 -1.3551
  798MOL0     H 7705   5.538   2.135   5.313 -0.8770  3.7206 -0.5358
  798MOL0     H 7706   5.475   1.899   5.134 -0.1501 -0.7740 -1.5263
  798MOL0     H 7707   5.600   1.912   5.258  0.5696  1.2386  0.4636
  798MOL0     H 7708   5.682   1.904   5.019  3.0957  1.6695 -1.2650
  798MOL0     H 7709   5.618   2.076   5.003 -0.4047 -1.3339 -1.8796
  798MOL0     H 7710   4.716   2.336   5.384  0.4777 -2.4047 -1.7154
  798MOL0     H 7711   4.476   2.405   5.473  0.3186 -0.5448 -2.4096
  798MOL0     H 7712   4.040   2.113   5.841  0.0291  0.3177  1.4836
  798MOL0     H 7713   3.819   2.230   5.880 -0.0747 -1.6388 -1.4351
  798MOL0     H 7714   3.489   2.252   6.269 -0.0625  0.1881 -1.8142
  798MOL0     H 7715   3.699   2.340   6.154  2.8188  1.5973 -0.1255
  798MOL0     H 7716   4.160   2.186   6.176 -2.6676  2.4520  2.5418
  798MOL0     H 7717   4.339   2.203   5.993 -0.9991 -0.6877 -1.6728
  798MOL0     H 7718   4.601   2.389   5.959  2.3990  1.1569 -1.0927
  798MOL0     H 7719   4.517   2.503   6.054 -1.1014 -0.3983  0.9513
  798MOL0     H 7720   4.715   2.578   5.943 -1.2083  1.1256  1.4869
  798MOL0     H 7721   4.580   2.678   5.875 -0.8136 -0.5756 -4.0260
  798MOL0     H 7722   4.567   2.588   5.673 -0.0105  0.8735  2.0532
  798MOL0     H 7723   4.672   2.444   5.702  2.8010 -0.1865 -1.3229
  798MOL0     H 7724   4.775   2.651   5.579  1.5624  0.9759 -0.7828
  798MOL0     H 7725   4.761   2.724   5.733 -1.3476 -0.2463  0.2203
  798MOL0     H 7726   5.067   2.451   5.823 -2.3708 -1.0855  2.3765
  798MOL0     H 7727   4.251   2.630   5.960  0.0418  0.0979 -0.2341
  798MOL0     H 7728   4.110   2.722   6.093  0.3926 -1.5070 -2.2356
  798MOL0     H 7729   3.951   2.642   6.125 -0.6764 -0.3616  1.6614
  798MOL0     H 7730   4.067   2.672   6.253 -3.1580 -1.6162  0.2233
  799MOL0     O 7731   2.505   1.564   8.133  0.2560  0.4164 -0.6752
  799MOL0     C 7732   2.549   1.677   8.130 -0.4119  0.3055 -0.3330
  799MOL0     O 7733   2.472   1.790   8.157  0.1031  0.3627 -0.6126
  799MOL0     C 7734   2.337   1.774   8.185 -0.4277 -0.4489  0.0201
  799MOL0     C 7735   2.243   1.804   8.089  0.7761 -0.5060  0.1464
  799MOL0     C 7736   2.102   1.790   8.119 -0.1827  0.0185  0.8057
  799MOL0     C 7737   2.058   1.771   8.246 -0.2475 -0.3337  0.1284
  799MOL0     O 7738   1.920   1.780   8.279 -0.6535 -0.6491  0.1540
  799MOL0     C 7739   1.871   1.794   8.407  1.3800 -0.1523 -0.3318
  799MOL0     C 7740   1.717   1.818   8.402 -0.3717  0.2878 -0.3102
  799MOL0     C 7741   1.655   1.859   8.542 -0.2654 -0.3803  0.4031
  799MOL0     C 7742   1.620   1.736   8.622 -0.4068  1.0737  0.0352
  799MOL0     C 7743   1.600   1.772   8.770 -1.1758  0.1530  0.2665
  799MOL0     C 7744   1.523   1.656   8.842  0.3821 -0.5801  0.0845
  799MOL0     C 7745   1.543   1.677   8.999  1.0841 -0.1750  0.1518
  799MOL0     C 7746   1.680   1.633   9.048 -0.1101  0.4657  0.6667
  799MOL0     N 7747   1.735   1.734   9.141  0.2205  0.3227  0.1608
  799MOL0     C 7748   1.694   1.742   9.270 -0.4300  0.1747  0.2472
  799MOL0     C 7749   1.779   1.827   9.314  0.2952 -1.4550 -0.5027
  799MOL0     C 7750   1.802   1.880   9.445  0.3599 -0.3635 -0.5104
  799MOL0     C 7751   1.864   1.773   9.538  0.2490  0.2810 -0.4532
  799MOL0     C 7752   2.008   1.744   9.506 -0.4383 -0.1758 -0.3264
  799MOL0     C 7753   2.100   1.868   9.532 -0.4797  0.3846 -0.0753
  799MOL0     O 7754   2.080   1.941   9.654 -0.3399  0.3933 -0.9998
  799MOL0     C 7755   2.197   2.015   9.695 -0.0279 -0.3989  0.2754
  799MOL0     C 7756   2.226   2.031   9.832 -0.7120 -0.0264  0.9156
  799MOL0     C 7757   2.337   2.100   9.873 -0.6606  0.5114  0.4299
  799MOL0     C 7758   2.406   2.177   9.780 -0.4663 -0.2553 -0.5876
  799MOL0     C 7759   2.511   2.268   9.832 -0.2669 -0.4647  0.4195
  799MOL0     O 7760   2.563   2.349   9.738 -0.3370 -0.1637 -0.0756
  799MOL0     C 7761   2.672   2.431   9.764 -0.5272  0.1983 -0.4002
  799MOL0     C 7762   2.638   2.561   9.754 -0.2168  0.2559 -0.2146
  799MOL0     C 7763   2.719   2.660   9.800 -0.2301  0.6736  0.4128
  799MOL0     C 7764   2.852   2.629   9.847 -0.9193  0.6642  0.6920
  799MOL0     O 7765   2.937   2.733   9.880 -0.4142  0.1845 -0.4857
  799MOL0     C 7766   3.071   2.699   9.917 -0.7548  0.1085  0.3315
  799MOL0     C 7767   3.164   2.672   9.796 -0.0524 -0.5144  1.0215
  799MOL0     C 7768   3.192   2.799   9.720 -0.1233  0.0953 -0.0693
  799MOL0     C 7769   3.288   2.784   9.599  0.0573 -0.7867  0.4610
  799MOL0     C 7770   3.307   2.907   9.497 -0.0661  0.1900  0.8371
  799MOL0     C 7771   3.421   2.884   9.390 -0.1955  0.6931 -0.4374
  799MOL0     C 7772   3.403   2.971   9.264 -0.1446 -0.8406 -0.1767
  799MOL0     C 7773   3.445   3.115   9.275 -0.1010 -0.8545 -0.0578
  799MOL0    Cl 7774   3.323   3.224   9.361  0.0013  0.0425  0.0385
  799MOL0     C 7775   2.884   2.495   9.844 -0.0512  0.4488 -0.7861
  799MOL0     C 7776   2.801   2.392   9.813 -0.7394 -0.2102  0.4043
  799MOL0     O 7777   2.551   2.246   9.946 -0.2864 -0.7007  0.3896
  799MOL0     C 7778   2.388   2.171   9.642 -0.1969  0.4726 -0.5272
  799MOL0     C 7779   2.285   2.079   9.605  0.5708 -0.7253 -0.2052
  799MOL0     N 7780   1.872   1.860   9.222 -0.7048  0.5809  0.3178
  799MOL0     N 7781   1.844   1.796   9.117  0.3581  0.7036  0.3214
  799MOL0     C 7782   2.159   1.741   8.347 -0.0840 -0.6062  0.4192
  799MOL0     C 7783   2.295   1.744   8.311 -0.3134 -0.6923 -0.4686
  799MOL0     C 7784   2.702   1.694   8.098 -0.2699 -0.1266  0.8515
  799MOL0     C 7785   2.741   1.832   8.108  0.1752  0.2357 -0.3321
  799MOL0     C 7786   2.875   1.864   8.077  0.6530 -1.0456  0.2609
  799MOL0     C 7787   2.959   1.760   8.033 -0.3575 -0.5641 -0.5111
  799MOL0     O 7788   3.092   1.792   8.009  0.2723  0.4570  0.1517
  799MOL0     C 7789   3.149   1.759   7.886  1.0545  1.0999  0.0967
  799MOL0     C 7790   3.117   1.875   7.785 -0.8250 -0.2659 -0.0194
  799MOL0     C 7791   3.164   1.834   7.646 -0.5779  0.3960 -0.3736
  799MOL0     C 7792   3.099   1.909   7.531 -0.9142  0.1171  0.6762
  799MOL0     C 7793   3.183   1.907   7.411  0.3872  0.1046  0.2274
  799MOL0     C 7794   3.264   1.919   7.326  0.0579 -0.0824 -0.5717
  799MOL0     C 7795   2.925   1.624   8.037  0.0532  0.0884 -0.3923
  799MOL0     C 7796   2.798   1.597   8.064  0.4419  0.2204 -0.9959
  799MOL0     C 7797   2.754   1.459   8.031  0.8170  0.6817 -0.5815
  799MOL0     H 7798   2.269   1.842   7.990  2.8280  2.4447  1.6539
  799MOL0     H 7799   2.028   1.811   8.042 -1.6302 -2.1747  1.5301
  799MOL0     H 7800   1.884   1.704   8.468  2.4368  1.1238  1.4313
  799MOL0     H 7801   1.914   1.878   8.462 -2.0102  0.4590  1.7046
  799MOL0     H 7802   1.679   1.720   8.373  5.2010 -2.8649  1.4411
  799MOL0     H 7803   1.681   1.895   8.333  0.7554 -2.1464 -3.9457
  799MOL0     H 7804   1.566   1.917   8.517  0.8717  0.3454 -2.4389
  799MOL0     H 7805   1.716   1.930   8.599 -0.3156 -0.4649  0.5589
  799MOL0     H 7806   1.528   1.686   8.592 -0.1059  0.0420  0.7647
  799MOL0     H 7807   1.699   1.663   8.601  0.1914  1.9245 -0.7369
  799MOL0     H 7808   1.698   1.795   8.813 -1.2116  1.5330 -0.3366
  799MOL0     H 7809   1.547   1.868   8.779  2.0515  2.0085  1.0602
  799MOL0     H 7810   1.419   1.664   8.808  0.6995  1.1461 -0.6217
  799MOL0     H 7811   1.563   1.560   8.811 -0.6538 -1.6369  1.8577
  799MOL0     H 7812   1.463   1.626   9.054  1.3185  0.2804  0.9334
  799MOL0     H 7813   1.531   1.784   9.021 -0.6638 -0.8424  2.9828
  799MOL0     H 7814   1.670   1.532   9.089 -1.2364  0.0792 -0.4634
  799MOL0     H 7815   1.750   1.624   8.964  0.0944 -0.4876  0.9225
  799MOL0     H 7816   1.615   1.695   9.327  2.1295 -2.0476  2.2453
  799MOL0     H 7817   1.866   1.968   9.443  2.1347 -1.5453  0.9541
  799MOL0     H 7818   1.707   1.919   9.483  0.0560  0.7476 -2.2987
  799MOL0     H 7819   1.869   1.797   9.645  1.4311  2.0731 -0.8698
  799MOL0     H 7820   1.809   1.678   9.536  0.1334  0.2867  0.9766
  799MOL0     H 7821   2.014   1.711   9.402  0.7784  1.1004 -0.7042
  799MOL0     H 7822   2.038   1.664   9.574  0.4424  0.2599 -0.1892
  799MOL0     H 7823   2.096   1.935   9.446 -0.9209  1.9292  1.1028
  799MOL0     H 7824   2.200   1.825   9.535 -0.0347  1.1374 -2.2728
  799MOL0     H 7825   2.151   1.984   9.894 -0.5961 -0.1414  0.9711
  799MOL0     H 7826   2.361   2.092   9.978  2.5305  2.9512  0.0291
  799MOL0     H 7827   2.534   2.582   9.734 -0.6388  2.7107  3.5145
  799MOL0     H 7828   2.674   2.759   9.798 -0.7142  0.5839  2.9608
  799MOL0     H 7829   3.118   2.781   9.971 -0.2744  0.2611 -0.3192
  799MOL0     H 7830   3.066   2.618   9.991 -3.2118  0.9498  1.2089
  799MOL0     H 7831   3.262   2.628   9.820 -0.3248 -1.0666  1.1424
  799MOL0     H 7832   3.114   2.601   9.729  0.9817 -0.0694 -0.2638
  799MOL0     H 7833   3.099   2.839   9.677 -0.2153 -1.8084 -1.8211
  799MOL0     H 7834   3.248   2.874   9.776 -0.1467  1.5714 -1.9163
  799MOL0     H 7835   3.240   2.712   9.533 -1.9150 -0.1862  1.1520
  799MOL0     H 7836   3.382   2.743   9.638 -1.1975 -1.1717  3.3710
  799MOL0     H 7837   3.311   3.004   9.548 -2.1626  0.4531  0.5937
  799MOL0     H 7838   3.212   2.906   9.443  0.8681 -0.3153 -0.8644
  799MOL0     H 7839   3.516   2.906   9.439 -0.8673  0.7412  0.8653
  799MOL0     H 7840   3.427   2.779   9.359  0.3362 -0.3715  2.9224
  799MOL0     H 7841   3.303   2.966   9.221 -0.6643 -0.9238  0.9824
  799MOL0     H 7842   3.457   2.923   9.182 -3.5924 -1.9480 -1.9597
  799MOL0     H 7843   3.542   3.132   9.321 -0.0923  0.6473 -0.5692
  799MOL0     H 7844   3.476   3.148   9.175  2.9144  1.2208  1.4251
  799MOL0     H 7845   2.981   2.456   9.873 -1.1820 -0.7571  1.6669
  799MOL0     H 7846   2.829   2.289   9.834 -0.2004 -0.3979 -1.0574
  799MOL0     H 7847   2.439   2.220   9.559 -0.8045 -1.1193 -1.9055
  799MOL0     H 7848   2.267   2.056   9.501  1.6008  0.3709 -0.6402
  799MOL0     H 7849   2.139   1.720   8.451 -0.9986  0.2208  0.4319
  799MOL0     H 7850   2.374   1.731   8.384  1.6055  0.6431 -2.2133
  799MOL0     H 7851   2.684   1.922   8.133  2.5161  1.1346  2.2796
  799MOL0     H 7852   2.915   1.965   8.087  0.5775 -1.1953  2.4899
  799MOL0     H 7853   3.128   1.656   7.857  0.6462  0.5604  2.1641
  799MOL0     H 7854   3.257   1.747   7.900  0.5638 -5.1669  1.4333
  799MOL0     H 7855   3.181   1.956   7.820 -0.9784  0.6483 -1.7319
  799MOL0     H 7856   3.018   1.921   7.793 -0.9400 -0.8967  4.6232
  799MOL0     H 7857   3.142   1.728   7.631  1.9557 -0.5560  1.7447
  799MOL0     H 7858   3.271   1.853   7.637 -0.3962 -1.2325 -2.9949
  799MOL0     H 7859   3.007   1.858   7.502 -0.2534  1.0822 -3.7747
  799MOL0     H 7860   3.086   2.013   7.564  0.5736  0.2035  1.1026
  799MOL0     H 7861   3.341   1.926   7.253  1.9039  0.6198  1.3479
  799MOL0     H 7862   2.995   1.550   8.000 -0.7879 -1.2102  0.5188
  799MOL0     H 7863   2.668   1.457   7.964  0.5911 -0.5554 -0.2778
  799MOL0     H 7864   2.831   1.404   7.976 -1.4349 -2.9819 -0.4096
  799MOL0     H 7865   2.741   1.400   8.123  3.0277  1.4946  0.3370
  800MOL0     O 7866   9.653   5.243   9.187 -0.7753  0.6093 -0.0270
  800MOL0     C 7867   9.706   5.185   9.094 -0.3357  0.0547 -0.6176
  800MOL0     O 7868   9.729   5.242   8.972  0.6881  0.3560  0.2672
  800MOL0     C 7869   9.644   5.345   8.917 -0.5822  0.4914  0.0954
  800MOL0     C 7870   9.593   5.448   8.998 -0.2054  0.0557 -1.2948
  800MOL0     C 7871   9.533   5.562   8.941 -0.3237 -0.0149 -0.3802
  800MOL0     C 7872   9.494   5.568   8.815 -0.5365 -0.3217  0.4219
  800MOL0     O 7873   9.421   5.680   8.776  0.1629 -0.3194 -0.7321
  800MOL0     C 7874   9.398   5.706   8.635 -0.1194 -0.1703  0.0188
  800MOL0     C 7875   9.311   5.834   8.605  0.0816  0.2883 -0.2136
  800MOL0     C 7876   9.173   5.824   8.658 -0.3045  1.2715  0.3486
  800MOL0     C 7877   9.159   5.869   8.800 -0.4526 -0.3155  0.5033
  800MOL0     C 7878   9.024   5.855   8.858 -0.1091 -0.1958  0.0976
  800MOL0     C 7879   8.925   5.953   8.803  0.2799 -0.1526  0.7756
  800MOL0     C 7880   8.943   6.098   8.847 -0.0586 -0.4762  0.5151
  800MOL0     C 7881   8.895   6.192   8.734 -0.5345 -0.4821 -0.4958
  800MOL0     N 7882   8.971   6.191   8.606 -0.0926  0.0934  0.0610
  800MOL0     C 7883   9.103   6.210   8.599  0.9903 -0.3226  0.6801
  800MOL0     C 7884   9.145   6.149   8.481  0.5327 -0.2116 -0.5045
  800MOL0     C 7885   9.282   6.151   8.425 -0.4853 -0.7217 -0.1721
  800MOL0     C 7886   9.356   6.286   8.444  0.2190 -0.6070 -0.0217
  800MOL0     C 7887   9.468   6.292   8.347 -0.2371  0.2961 -0.2728
  800MOL0     C 7888   9.544   6.427   8.360  0.9637  0.0032 -0.4383
  800MOL0     O 7889   9.672   6.420   8.294  1.0727 -0.1870 -0.8958
  800MOL0     C 7890   9.771   6.365   8.364 -0.3253  0.1964 -0.8216
  800MOL0     C 7891   9.781   6.315   8.493 -1.0768 -0.1905  0.0372
  800MOL0     C 7892   9.908   6.257   8.539  0.1108 -0.6772  0.0105
  800MOL0     C 7893  10.022   6.254   8.455 -0.1912  0.6926  1.6416
  800MOL0     C 7894  10.141   6.179   8.495 -0.4077 -0.7286  0.4031
  800MOL0     O 7895  10.159   6.133   8.619  0.6910  0.6808  0.2871
  800MOL0     C 7896  10.280   6.078   8.655  0.2593 -0.0311  0.2298
  800MOL0     C 7897  10.274   5.988   8.763 -0.7667 -0.3475 -0.1296
  800MOL0     C 7898  10.401   5.931   8.808  0.0825 -0.8980 -0.0778
  800MOL0     C 7899  10.526   5.986   8.782  0.1116 -0.2052 -0.8401
  800MOL0     O 7900  10.635   5.946   8.852 -0.2037 -0.7786 -0.0015
  800MOL0     C 7901  10.707   6.055   8.898 -0.3080  0.2615 -0.4510
  800MOL0     C 7902  10.732   6.038   9.050 -0.2251  0.8424  0.8780
  800MOL0     C 7903  10.612   6.000   9.127 -0.3155 -0.0308 -0.6688
  800MOL0     C 7904  10.632   5.986   9.294  0.3798  0.3399 -0.1730
  800MOL0     C 7905  10.498   5.967   9.367 -0.1771 -0.4409 -0.5059
  800MOL0     C 7906  10.432   6.096   9.408 -0.5765 -0.1034  0.3706
  800MOL0     C 7907  10.289   6.054   9.457  0.1423  0.6662 -0.2791
  800MOL0     C 7908  10.285   5.991   9.597  0.1259  0.0411 -0.6173
  800MOL0    Cl 7909  10.291   6.101   9.736 -0.1906 -0.0461 -0.0832
  800MOL0     C 7910  10.531   6.088   8.681 -0.2265  0.1695 -0.3094
  800MOL0     C 7911  10.416   6.122   8.610  0.5609 -0.7560 -0.3712
  800MOL0     O 7912  10.221   6.171   8.401  0.3971 -0.3947  0.0504
  800MOL0     C 7913  10.005   6.307   8.329 -0.2487  0.0547  0.1047
  800MOL0     C 7914   9.893   6.373   8.294  0.1969  0.3896  1.2081
  800MOL0     N 7915   9.031   6.121   8.409  0.6538 -0.0838 -0.8316
  800MOL0     N 7916   8.926   6.146   8.482 -0.7777 -0.1873  0.2242
  800MOL0     C 7917   9.537   5.465   8.730 -0.2208  0.0346 -0.9007
  800MOL0     C 7918   9.614   5.357   8.783 -0.2350  0.4962  0.6474
  800MOL0     C 7919   9.792   5.067   9.129  0.4162  0.1989  0.0921
  800MOL0     C 7920   9.745   4.978   9.219 -0.7403  1.2100 -0.3398
  800MOL0     C 7921   9.825   4.866   9.258 -0.3050  0.1929 -0.3337
  800MOL0     C 7922   9.948   4.838   9.220  0.5480 -0.9873  0.8608
  800MOL0     O 7923   9.999   4.726   9.270 -0.1467  0.6865 -0.4323
  800MOL0     C 7924  10.130   4.678   9.245 -0.1610  0.3882 -0.1132
  800MOL0     C 7925  10.164   4.580   9.356  0.1749  0.3790  1.0862
  800MOL0     C 7926  10.308   4.531   9.357  0.2432  0.3098 -0.9759
  800MOL0     C 7927  10.342   4.446   9.483  0.5460  0.5499 -0.3414
  800MOL0     C 7928  10.486   4.411   9.479 -0.3805 -0.2379 -0.3793
  800MOL0     C 7929  10.607   4.390   9.483  0.5675  0.5494  0.6226
  800MOL0     C 7930  10.003   4.932   9.128  0.3476  0.0865  0.2170
  800MOL0     C 7931   9.925   5.044   9.078 -0.2504  0.2653 -0.0623
  800MOL0     C 7932   9.989   5.143   8.978 -0.0337 -0.2931 -0.1383
  800MOL0     H 7933   9.579   5.447   9.106  2.7516  1.1419 -0.7922
  800MOL0     H 7934   9.519   5.648   9.006 -1.9925  0.5397 -1.4143
  800MOL0     H 7935   9.500   5.703   8.595  0.3232 -1.5454  1.1421
  800MOL0     H 7936   9.341   5.624   8.591 -1.8369  2.0884 -2.2144
  800MOL0     H 7937   9.300   5.839   8.496 -0.3585 -2.8256 -0.3973
  800MOL0     H 7938   9.360   5.926   8.638  3.9944 -1.1701 -1.2991
  800MOL0     H 7939   9.153   5.716   8.649  4.9535  0.1315 -2.1700
  800MOL0     H 7940   9.101   5.877   8.594  0.4069 -1.4690 -3.0753
  800MOL0     H 7941   9.207   5.798   8.869  2.3373  2.3554  1.5233
  800MOL0     H 7942   9.202   5.969   8.802 -1.3901  0.1484 -0.9979
  800MOL0     H 7943   8.988   5.753   8.841  1.4647 -0.9139  0.8004
  800MOL0     H 7944   9.025   5.867   8.967 -0.1789  1.6132 -0.0807
  800MOL0     H 7945   8.922   5.948   8.693 -0.4606  1.8881  0.6445
  800MOL0     H 7946   8.826   5.917   8.831  0.5400  0.4224  2.5378
  800MOL0     H 7947   9.051   6.118   8.852 -0.5421  2.5351  0.6939
  800MOL0     H 7948   8.888   6.118   8.940 -0.7918  2.8781 -0.4876
  800MOL0     H 7949   8.790   6.174   8.712 -0.7356 -2.2080  1.5894
  800MOL0     H 7950   8.913   6.296   8.763  1.8938 -0.6573 -1.0940
  800MOL0     H 7951   9.174   6.255   8.668  0.2619  0.7633  0.7414
  800MOL0     H 7952   9.339   6.073   8.475 -0.1257  0.0594  0.6581
  800MOL0     H 7953   9.266   6.123   8.320  0.0363 -0.9696 -0.1881
  800MOL0     H 7954   9.275   6.355   8.418 -2.4468 -2.2654  3.0517
  800MOL0     H 7955   9.401   6.297   8.543  0.5072 -0.8485 -0.1238
  800MOL0     H 7956   9.438   6.264   8.246  0.8303 -0.1660 -0.4800
  800MOL0     H 7957   9.535   6.214   8.383 -0.2506  0.1372 -0.5927
  800MOL0     H 7958   9.553   6.455   8.465 -0.5124  1.9155 -0.7696
  800MOL0     H 7959   9.491   6.508   8.309  0.0558  0.2168  0.8128
  800MOL0     H 7960   9.703   6.311   8.569 -1.8099  0.6866 -0.6481
  800MOL0     H 7961   9.908   6.206   8.634 -0.1069 -1.2783 -0.3116
  800MOL0     H 7962  10.175   5.977   8.806  0.3139  1.6397  3.3165
  800MOL0     H 7963  10.398   5.850   8.880 -1.0610 -1.0886 -0.3268
  800MOL0     H 7964  10.807   6.067   8.855 -0.3358  1.4358 -0.2187
  800MOL0     H 7965  10.654   6.151   8.897  0.4818  0.7347  0.8289
  800MOL0     H 7966  10.816   5.971   9.067 -1.5200 -0.8591  0.8854
  800MOL0     H 7967  10.759   6.136   9.089  0.2452  0.3127  1.9202
  800MOL0     H 7968  10.542   6.081   9.105 -0.1859  0.0526 -0.7726
  800MOL0     H 7969  10.568   5.910   9.084 -1.2375  0.6248 -1.1377
  800MOL0     H 7970  10.680   6.081   9.319  1.3250 -0.5263  1.4081
  800MOL0     H 7971  10.698   5.901   9.311 -0.4599 -0.7640 -2.1536
  800MOL0     H 7972  10.514   5.903   9.453 -1.4245 -1.7720 -1.2181
  800MOL0     H 7973  10.441   5.892   9.312  2.7082 -2.7958 -0.4948
  800MOL0     H 7974  10.489   6.146   9.487  0.9915 -1.5639  0.2036
  800MOL0     H 7975  10.415   6.165   9.325 -0.2062 -1.9876 -1.3571
  800MOL0     H 7976  10.242   5.990   9.381  1.2369  0.5706 -0.9046
  800MOL0     H 7977  10.227   6.143   9.464 -0.8364  0.0180 -0.5538
  800MOL0     H 7978  10.187   5.943   9.601  0.1943 -0.0748 -0.2715
  800MOL0     H 7979  10.366   5.921   9.617 -0.6053 -0.4118  0.9390
  800MOL0     H 7980  10.620   6.136   8.642 -1.1718  1.6707 -0.6936
  800MOL0     H 7981  10.424   6.196   8.530 -3.8446  0.3348 -0.0652
  800MOL0     H 7982  10.085   6.303   8.257  0.5327  1.2283  0.8637
  800MOL0     H 7983   9.892   6.433   8.203  1.4169 -0.1793  0.8001
  800MOL0     H 7984   9.508   5.467   8.625 -3.4781 -0.6259 -0.1254
  800MOL0     H 7985   9.659   5.284   8.716  1.2050 -1.7636  3.7874
  800MOL0     H 7986   9.663   4.995   9.289  0.4112  0.1032  1.3480
  800MOL0     H 7987   9.784   4.794   9.328 -1.2268  1.4400  0.4488
  800MOL0     H 7988  10.198   4.763   9.255  0.9624 -0.0804 -2.9644
  800MOL0     H 7989  10.139   4.629   9.148 -1.0446 -1.5281  0.7219
  800MOL0     H 7990  10.083   4.507   9.351 -0.0169  0.5953  1.0421
  800MOL0     H 7991  10.139   4.639   9.445  1.6589  0.6772  1.3261
  800MOL0     H 7992  10.381   4.612   9.363  2.1289 -1.4332  1.1529
  800MOL0     H 7993  10.340   4.477   9.267  0.6098 -0.8126 -0.1981
  800MOL0     H 7994  10.331   4.512   9.570  2.5713 -0.6513  0.9177
  800MOL0     H 7995  10.278   4.359   9.496 -0.5712  1.2185 -1.1918
  800MOL0     H 7996  10.711   4.363   9.483 -0.2205 -3.0630  0.2521
  800MOL0     H 7997  10.101   4.907   9.087 -0.0323  0.9857 -1.2955
  800MOL0     H 7998  10.096   5.126   8.964 -0.1801 -2.5050  0.9237
  800MOL0     H 7999   9.935   5.123   8.885  0.3614  1.2770 -0.7391
  800MOL0     H 8000   9.973   5.248   9.002 -0.4393 -0.3312 -0.2340
  801MOL0     O 8001   2.624   9.522   3.516  0.9440  0.1657 -0.0786
  801MOL0     C 8002   2.696   9.439   3.467 -0.6494 -0.1157  0.4554
  801MOL0     O 8003   2.665   9.308   3.427 -0.4954 -0.3377 -0.0713
  801MOL0     C 8004   2.538   9.304   3.385 -0.4272  0.2717 -0.3933
  801MOL0     C 8005   2.451   9.253   3.474  0.5209  0.7553  0.1072
  801MOL0     C 8006   2.321   9.235   3.431  0.9021  0.0140  1.2258
  801MOL0     C 8007   2.273   9.282   3.307 -0.0897 -0.5907 -0.1831
  801MOL0     O 8008   2.141   9.274   3.270 -0.7120 -0.0305  1.1833
  801MOL0     C 8009   2.040   9.275   3.369  0.0247 -0.1727  0.6038
  801MOL0     C 8010   1.906   9.276   3.295 -0.8408 -0.0120 -0.0614
  801MOL0     C 8011   1.882   9.145   3.208 -0.1281 -0.8884 -0.2318
  801MOL0     C 8012   1.910   9.175   3.052 -0.4102 -0.0562  0.4047
  801MOL0     C 8013   1.870   9.048   2.961 -0.1847 -0.9031  0.6840
  801MOL0     C 8014   1.902   9.072   2.807 -0.7080 -0.1858 -0.2923
  801MOL0     C 8015   1.914   8.943   2.740 -0.2964  0.0969  0.8828
  801MOL0     C 8016   1.886   8.948   2.592 -0.3189 -1.3087  0.6970
  801MOL0     N 8017   1.889   8.819   2.530 -0.3037  0.0795  0.1502
  801MOL0     C 8018   2.000   8.760   2.473 -0.2014  0.5968  0.2287
  801MOL0     C 8019   1.954   8.638   2.433 -0.1464 -0.1544  0.5950
  801MOL0     C 8020   2.034   8.531   2.362  0.0336  0.3446  1.1046
  801MOL0     C 8021   2.161   8.506   2.428 -0.6402  0.3376  0.7865
  801MOL0     C 8022   2.229   8.395   2.348  0.0143  0.0816 -0.2042
  801MOL0     C 8023   2.370   8.369   2.402  0.8444 -0.5216 -0.0561
  801MOL0     O 8024   2.441   8.479   2.357  0.0111 -0.5125  0.2500
  801MOL0     C 8025   2.575   8.479   2.374  0.7123  1.0939 -0.1394
  801MOL0     C 8026   2.652   8.370   2.422  0.8803  0.0049 -1.0969
  801MOL0     C 8027   2.783   8.383   2.457  0.5390  0.2245 -0.0326
  801MOL0     C 8028   2.855   8.496   2.433 -0.0712  0.5769  0.2675
  801MOL0     C 8029   2.997   8.507   2.475 -0.2035 -1.3087  0.3249
  801MOL0     O 8030   3.062   8.407   2.536  0.3965  0.5702 -0.2713
  801MOL0     C 8031   3.195   8.413   2.568 -0.8968  0.3266 -0.2571
  801MOL0     C 8032   3.234   8.313   2.664 -0.5781 -0.4635  0.2259
  801MOL0     C 8033   3.368   8.311   2.722  0.5718  0.5554  0.3475
  801MOL0     C 8034   3.464   8.398   2.680  0.1998  1.0214  0.1831
  801MOL0     O 8035   3.584   8.389   2.749  0.0119  0.6499 -0.3176
  801MOL0     C 8036   3.668   8.286   2.693 -0.1799 -0.6382 -0.0411
  801MOL0     C 8037   3.812   8.287   2.749 -0.9970  0.3856 -0.2009
  801MOL0     C 8038   3.901   8.180   2.681  0.6000 -0.8067  0.9177
  801MOL0     C 8039   3.857   8.034   2.715 -0.0853  0.5631  0.4283
  801MOL0     C 8040   3.907   7.934   2.611 -0.6442 -0.5875 -0.0961
  801MOL0     C 8041   3.822   7.801   2.630  1.2651 -0.8696 -0.4816
  801MOL0     C 8042   3.895   7.681   2.550 -0.6146 -1.0600 -0.4721
  801MOL0     C 8043   4.051   7.669   2.567  0.0074  0.8090 -0.8985
  801MOL0    Cl 8044   4.109   7.693   2.743 -0.1272  0.0377 -0.0887
  801MOL0     C 8045   3.431   8.485   2.571 -0.5280 -0.4159  0.5181
  801MOL0     C 8046   3.301   8.492   2.513 -0.4220 -0.8373 -0.7753
  801MOL0     O 8047   3.045   8.623   2.447  0.3684  0.3532  1.0649
  801MOL0     C 8048   2.786   8.605   2.371 -0.1789  1.0196 -0.5100
  801MOL0     C 8049   2.648   8.591   2.343  0.5533 -1.4066  0.2265
  801MOL0     N 8050   1.816   8.628   2.464 -0.2248  0.1284  0.4775
  801MOL0     N 8051   1.781   8.735   2.529 -0.2491 -0.4949  0.5684
  801MOL0     C 8052   2.367   9.329   3.215 -0.3824  0.2980  0.3059
  801MOL0     C 8053   2.499   9.345   3.254 -1.0023 -0.0849  0.4989
  801MOL0     C 8054   2.841   9.476   3.447 -0.3507 -0.5829  0.1076
  801MOL0     C 8055   2.930   9.386   3.386  0.2658  0.3290 -0.5033
  801MOL0     C 8056   3.057   9.419   3.348 -0.2963  0.7614  0.0459
  801MOL0     C 8057   3.119   9.533   3.391  0.1587 -0.7906  0.1485
  801MOL0     O 8058   3.256   9.555   3.378  0.2647  0.2756  0.7351
  801MOL0     C 8059   3.348   9.468   3.305 -0.3965 -0.1048 -0.0810
  801MOL0     C 8060   3.494   9.496   3.356 -0.6333  0.2479  1.0156
  801MOL0     C 8061   3.550   9.636   3.341  0.1205  0.3451  0.6339
  801MOL0     C 8062   3.560   9.690   3.195 -0.5205 -0.0414 -0.0950
  801MOL0     C 8063   3.650   9.609   3.110  0.5628 -0.7202 -0.9859
  801MOL0     C 8064   3.714   9.545   3.043 -0.2812  0.2743  0.1628
  801MOL0     C 8065   3.037   9.623   3.460  0.0872  0.7472 -0.3872
  801MOL0     C 8066   2.900   9.600   3.481 -1.0285 -0.3558 -0.2556
  801MOL0     C 8067   2.837   9.706   3.572  0.1029 -0.1133  0.7492
  801MOL0     H 8068   2.487   9.213   3.568  2.1414 -0.9326 -1.1275
  801MOL0     H 8069   2.258   9.167   3.488 -1.4278 -0.3978 -1.6251
  801MOL0     H 8070   2.045   9.187   3.434  2.3467 -0.6239 -0.0968
  801MOL0     H 8071   2.056   9.367   3.426  0.3640  0.5752 -0.6648
  801MOL0     H 8072   1.891   9.364   3.231  0.1908 -0.6662 -1.2254
  801MOL0     H 8073   1.834   9.293   3.376 -1.9279  1.1178 -1.1951
  801MOL0     H 8074   1.775   9.125   3.202 -0.1742 -1.6855  2.2283
  801MOL0     H 8075   1.918   9.053   3.254 -2.2524 -1.8639 -0.3956
  801MOL0     H 8076   1.854   9.262   3.018  0.8252  1.1138  1.2439
  801MOL0     H 8077   2.017   9.195   3.045  0.4151 -3.3673  1.4269
  801MOL0     H 8078   1.924   8.956   2.987  0.9977 -1.3319 -2.8448
  801MOL0     H 8079   1.763   9.033   2.979 -0.6549  2.1114  0.9310
  801MOL0     H 8080   1.827   9.136   2.760  0.9528  2.7467  0.8180
  801MOL0     H 8081   1.997   9.124   2.791 -2.1298  2.6741 -0.1469
  801MOL0     H 8082   1.834   8.882   2.782 -0.4149  0.1455  0.7272
  801MOL0     H 8083   2.009   8.894   2.762  0.2219  0.6580 -0.0442
  801MOL0     H 8084   1.791   8.996   2.569  0.2205  0.5575  2.0961
  801MOL0     H 8085   1.967   9.002   2.542 -0.8126 -0.6505  0.6015
  801MOL0     H 8086   2.099   8.803   2.462 -0.1015  0.6159  1.1440
  801MOL0     H 8087   1.977   8.439   2.346  0.5324  0.4441 -1.7477
  801MOL0     H 8088   2.063   8.564   2.262 -1.0843  1.4714  1.1247
  801MOL0     H 8089   2.217   8.600   2.434 -1.5645  1.2395 -2.4870
  801MOL0     H 8090   2.144   8.475   2.531 -0.8765 -2.6158 -0.0329
  801MOL0     H 8091   2.227   8.417   2.241  0.0113 -0.9387 -0.4203
  801MOL0     H 8092   2.176   8.299   2.354  3.7061 -2.0966  0.2245
  801MOL0     H 8093   2.413   8.283   2.350  3.4405 -0.0834  1.1971
  801MOL0     H 8094   2.360   8.368   2.511 -2.6240 -0.1917 -0.2603
  801MOL0     H 8095   2.606   8.277   2.454  2.6458 -0.2434  0.9419
  801MOL0     H 8096   2.828   8.294   2.500 -2.3571 -2.4014 -1.9547
  801MOL0     H 8097   3.161   8.250   2.713 -1.5062  1.5026  1.5397
  801MOL0     H 8098   3.391   8.240   2.801 -2.1597 -0.6546  0.1735
  801MOL0     H 8099   3.621   8.193   2.727 -0.3124 -1.1360 -1.5145
  801MOL0     H 8100   3.672   8.284   2.584  0.2906 -0.5644 -0.0252
  801MOL0     H 8101   3.847   8.390   2.740 -0.2070  0.1391 -0.0160
  801MOL0     H 8102   3.821   8.267   2.856  1.7870  0.9235 -0.2758
  801MOL0     H 8103   3.906   8.211   2.577 -5.5971  2.4902  1.1126
  801MOL0     H 8104   3.997   8.193   2.731 -0.7797  0.2924  3.4760
  801MOL0     H 8105   3.748   8.022   2.722  0.1204 -0.1712  3.6713
  801MOL0     H 8106   3.891   8.010   2.816 -0.2516 -2.8196 -0.1840
  801MOL0     H 8107   4.014   7.941   2.636 -1.1269  2.3242  1.6242
  801MOL0     H 8108   3.894   7.967   2.508  2.4776  0.5147 -0.2659
  801MOL0     H 8109   3.810   7.768   2.734 -1.2185 -1.9841 -1.0464
  801MOL0     H 8110   3.718   7.809   2.598 -0.5176 -3.4190  3.8151
  801MOL0     H 8111   3.879   7.694   2.442 -1.9020  3.7060  0.0379
  801MOL0     H 8112   3.853   7.587   2.584 -1.6335  0.2536  2.2199
  801MOL0     H 8113   4.084   7.576   2.520  1.4284  0.7189  0.1852
  801MOL0     H 8114   4.092   7.749   2.506  0.1215  2.2547  0.9658
  801MOL0     H 8115   3.502   8.555   2.529 -0.4157 -2.5285 -3.1812
  801MOL0     H 8116   3.294   8.571   2.439  1.8306 -1.6388 -1.9306
  801MOL0     H 8117   2.826   8.704   2.348 -1.0137  1.3450 -0.6021
  801MOL0     H 8118   2.590   8.670   2.296  2.5019  0.6701  1.1422
  801MOL0     H 8119   2.343   9.359   3.113  3.0641 -2.2712 -1.5018
  801MOL0     H 8120   2.578   9.389   3.192 -3.8523  1.6592 -2.1907
  801MOL0     H 8121   2.885   9.301   3.335  1.1731  0.6274 -1.8695
  801MOL0     H 8122   3.098   9.331   3.299 -2.4188 -0.2786 -0.0210
  801MOL0     H 8123   3.351   9.472   3.196 -0.2836  3.0405 -0.0550
  801MOL0     H 8124   3.325   9.365   3.334  1.3035 -0.2700  0.8549
  801MOL0     H 8125   3.558   9.429   3.298 -2.8327  3.6555 -6.6817
  801MOL0     H 8126   3.497   9.462   3.460  0.6280 -2.0658  0.2878
  801MOL0     H 8127   3.649   9.642   3.386 -0.1715 -0.4009  1.4102
  801MOL0     H 8128   3.487   9.707   3.396  0.6828 -0.8837  2.9827
  801MOL0     H 8129   3.457   9.696   3.160  0.1606 -1.7358 -2.6825
  801MOL0     H 8130   3.616   9.784   3.200 -0.5998  0.0665 -1.1414
  801MOL0     H 8131   3.776   9.489   2.975  2.1835  3.7183 -0.6779
  801MOL0     H 8132   3.081   9.718   3.488  0.6602  0.7377 -1.2314
  801MOL0     H 8133   2.801   9.649   3.659 -2.3828 -0.1943 -0.2638
  801MOL0     H 8134   2.897   9.794   3.597 -2.9182  2.4272 -0.3794
  801MOL0     H 8135   2.753   9.733   3.508 -0.3725 -0.4082  1.2426
  802MOL0     O 8136   9.187   9.047   9.947  0.1703 -0.2625  0.3029
  802MOL0     C 8137   9.164   9.146  10.013  0.0220  0.3217 -0.0008
  802MOL0     O 8138   9.070   9.144  10.118 -0.7162  0.5624  0.3092
  802MOL0     C 8139   8.978   9.041  10.130  0.4563  0.7560 -0.7262
  802MOL0     C 8140   8.903   8.981  10.035  0.4295  0.1096 -0.8217
  802MOL0     C 8141   8.806   8.890  10.073 -0.2565  0.6282  0.6565
  802MOL0     C 8142   8.774   8.854  10.207  0.3032 -0.2915  0.0886
  802MOL0     O 8143   8.672   8.762  10.234  0.5296 -0.6745 -0.2609
  802MOL0     C 8144   8.697   8.651  10.317  0.6417  0.5084 -0.7639
  802MOL0     C 8145   8.594   8.539  10.277 -0.3517  0.3880  0.3434
  802MOL0     C 8146   8.617   8.415  10.373 -1.0700 -0.1595 -1.2252
  802MOL0     C 8147   8.557   8.428  10.519 -1.1211  0.7215 -0.6461
  802MOL0     C 8148   8.396   8.430  10.528 -0.2033  0.2397  0.3037
  802MOL0     C 8149   8.344   8.424  10.678 -0.1241 -0.4640 -0.0946
  802MOL0     C 8150   8.359   8.290  10.754  0.1810  0.7046  0.0412
  802MOL0     C 8151   8.297   8.168  10.689  0.7424 -0.8342  0.1758
  802MOL0     N 8152   8.328   8.037  10.749  0.0376  0.2023  0.6230
  802MOL0     C 8153   8.236   7.972  10.833  0.1246 -0.4002 -0.1686
  802MOL0     C 8154   8.291   7.844  10.847  0.2952  0.6820 -0.1585
  802MOL0     C 8155   8.229   7.722  10.913  0.2332  0.1391 -0.4411
  802MOL0     C 8156   8.124   7.650  10.831  0.1678  0.4848 -0.0384
  802MOL0     C 8157   8.076   7.522  10.903  1.1030 -0.1708 -1.3657
  802MOL0     C 8158   7.986   7.426  10.816  0.5486 -0.0228 -0.3135
  802MOL0     O 8159   7.946   7.301  10.888 -0.4326  0.2468 -0.3809
  802MOL0     C 8160   7.830   7.250  10.866  0.5118  0.2112 -0.2087
  802MOL0     C 8161   7.754   7.282  10.756 -0.7460  0.4016 -1.3244
  802MOL0     C 8162   7.641   7.219  10.727  0.1150  0.6775  0.2892
  802MOL0     C 8163   7.588   7.124  10.800  0.7583  0.3206 -0.3840
  802MOL0     C 8164   7.458   7.068  10.756 -0.2231 -0.2609  0.5667
  802MOL0     O 8165   7.400   7.096  10.629 -0.2397 -0.2710  0.0306
  802MOL0     C 8166   7.277   7.034  10.600  0.5715  1.3042 -0.4047
  802MOL0     C 8167   7.179   7.115  10.548  0.9449  0.1273  0.0886
  802MOL0     C 8168   7.055   7.057  10.503  0.5410  0.4402  0.6601
  802MOL0     C 8169   7.040   6.925  10.515 -0.1450 -0.4217 -1.2047
  802MOL0     O 8170   6.918   6.854  10.500  0.3707 -0.9040  0.6513
  802MOL0     C 8171   6.850   6.871  10.377 -0.5518  0.5640  0.2406
  802MOL0     C 8172   6.837   6.736  10.300  0.6856  0.5532 -0.0234
  802MOL0     C 8173   6.734   6.748  10.181 -0.7758 -0.0303 -0.1395
  802MOL0     C 8174   6.592   6.730  10.227  0.3772 -0.5556  0.0161
  802MOL0     C 8175   6.483   6.730  10.106 -0.0877  0.1677  0.0393
  802MOL0     C 8176   6.491   6.862  10.018 -0.5634  0.1749  0.0521
  802MOL0     C 8177   6.363   6.870   9.929  0.2757 -0.8152 -0.0169
  802MOL0     C 8178   6.389   6.989   9.841 -0.0487  0.2078 -0.4647
  802MOL0    Cl 8179   6.516   6.962   9.719 -0.3409 -0.0583  0.1479
  802MOL0     C 8180   7.137   6.846  10.575 -0.2028  0.1067  0.3222
  802MOL0     C 8181   7.261   6.896  10.614  1.0229  0.0406  0.6595
  802MOL0     O 8182   7.407   7.001  10.844  0.0948  0.3882  0.6003
  802MOL0     C 8183   7.657   7.083  10.922 -0.5156 -0.0454  0.1116
  802MOL0     C 8184   7.784   7.146  10.949 -0.0180  0.0274 -0.7017
  802MOL0     N 8185   8.418   7.850  10.795  0.8907  0.4375 -0.1529
  802MOL0     N 8186   8.434   7.961  10.735 -0.1528  0.4022 -0.1481
  802MOL0     C 8187   8.850   8.911  10.306 -0.0988 -0.1052  0.0965
  802MOL0     C 8188   8.950   8.999  10.267 -0.4878  0.8196  0.4535
  802MOL0     C 8189   9.195   9.284   9.970 -0.0047 -0.6575  0.3722
  802MOL0     C 8190   9.098   9.382  10.007  0.0159  0.5738 -0.0776
  802MOL0     C 8191   9.121   9.519   9.973  1.2203 -0.8980 -0.0724
  802MOL0     C 8192   9.225   9.554   9.884  0.6603 -0.3860 -0.2961
  802MOL0     O 8193   9.242   9.681   9.845  1.0992  0.0263  0.0463
  802MOL0     C 8194   9.237   9.718   9.710 -1.4066 -0.4243 -0.1739
  802MOL0     C 8195   9.271   9.869   9.711 -0.6232 -0.1587  0.1971
  802MOL0     C 8196   9.146   9.944   9.733  0.3833  0.5488  0.3973
  802MOL0     C 8197   9.178  10.089   9.717  0.1560 -1.6966 -0.1369
  802MOL0     C 8198   9.259  10.127   9.606  0.3141 -1.5100 -0.2426
  802MOL0     C 8199   9.332  10.156   9.522 -0.0272  0.6697 -0.6225
  802MOL0     C 8200   9.311   9.456   9.838 -0.3763 -0.0432 -0.2149
  802MOL0     C 8201   9.298   9.324   9.879 -0.1544  1.0722  0.3483
  802MOL0     C 8202   9.393   9.225   9.816 -0.1308 -0.4094 -0.6506
  802MOL0     H 8203   8.926   9.004   9.932 -1.3667 -2.2605 -1.8236
  802MOL0     H 8204   8.743   8.843   9.998  1.2026  0.6113 -0.6034
  802MOL0     H 8205   8.798   8.610  10.308  0.2517 -1.5842  2.4812
  802MOL0     H 8206   8.687   8.677  10.423  1.9799 -2.3723  0.1663
  802MOL0     H 8207   8.597   8.510  10.171  2.1345 -1.3402  0.7907
  802MOL0     H 8208   8.493   8.579  10.290 -0.7862 -0.6672  0.3328
  802MOL0     H 8209   8.725   8.403  10.382 -0.7274  2.1801 -1.5717
  802MOL0     H 8210   8.587   8.315  10.340  1.5098 -1.2636 -0.4632
  802MOL0     H 8211   8.605   8.345  10.570 -2.2003  2.4804  3.7088
  802MOL0     H 8212   8.593   8.514  10.577 -0.5596  0.2603 -0.3050
  802MOL0     H 8213   8.349   8.513  10.475 -1.1552 -0.3977  0.1192
  802MOL0     H 8214   8.369   8.338  10.476 -0.3808  0.3788  0.1479
  802MOL0     H 8215   8.398   8.500  10.736 -1.4331 -1.2257  2.2702
  802MOL0     H 8216   8.242   8.461  10.666 -0.6726 -1.2830  1.6097
  802MOL0     H 8217   8.318   8.293  10.856 -2.0886  0.7766 -0.8146
  802MOL0     H 8218   8.465   8.271  10.772  0.3808  0.2182 -1.5008
  802MOL0     H 8219   8.188   8.178  10.686  0.7600 -0.3917  0.7194
  802MOL0     H 8220   8.341   8.169  10.590  1.0807 -1.2930  0.3181
  802MOL0     H 8221   8.137   7.998  10.869  2.0123  2.2386  3.8006
  802MOL0     H 8222   8.306   7.654  10.952 -1.6331 -0.4880  2.4929
  802MOL0     H 8223   8.173   7.757  11.000  3.0868  2.6706  0.5979
  802MOL0     H 8224   8.032   7.709  10.822  2.0487  3.5962 -0.4485
  802MOL0     H 8225   8.168   7.615  10.737  1.3956 -1.1068  1.0799
  802MOL0     H 8226   8.035   7.544  11.002 -0.3855  0.1068 -2.0208
  802MOL0     H 8227   8.164   7.460  10.924  1.6441  0.8573 -0.4998
  802MOL0     H 8228   8.034   7.411  10.720  2.0047  4.0769 -0.4012
  802MOL0     H 8229   7.897   7.489  10.804  1.1306  1.1606  1.2257
  802MOL0     H 8230   7.790   7.357  10.685  4.0944  1.3753  1.6507
  802MOL0     H 8231   7.594   7.268  10.642  0.2455  1.3228  0.5830
  802MOL0     H 8232   7.191   7.222  10.543  1.4672  0.0401 -0.5801
  802MOL0     H 8233   6.976   7.127  10.480  1.6733  0.6056 -3.5524
  802MOL0     H 8234   6.744   6.899  10.381 -0.3833  1.6611 -1.6470
  802MOL0     H 8235   6.878   6.956  10.315  0.5302  1.8652  2.4094
  802MOL0     H 8236   6.934   6.706  10.260 -0.4662 -0.6107 -2.1072
  802MOL0     H 8237   6.806   6.659  10.371 -3.0715  1.3597 -0.5843
  802MOL0     H 8238   6.759   6.842  10.133 -2.6046 -0.0687 -1.2705
  802MOL0     H 8239   6.769   6.668  10.115  3.3128 -0.3307  2.0623
  802MOL0     H 8240   6.568   6.819  10.284  3.4570  0.6328 -0.3646
  802MOL0     H 8241   6.590   6.639  10.289  2.6801  0.7565  2.1866
  802MOL0     H 8242   6.384   6.726  10.151  0.9512  0.4516  2.4925
  802MOL0     H 8243   6.508   6.641  10.047  0.7171 -0.3351  1.1161
  802MOL0     H 8244   6.514   6.946  10.085  0.1357  1.0422 -1.2314
  802MOL0     H 8245   6.582   6.847   9.959 -1.7020 -3.2164 -1.0169
  802MOL0     H 8246   6.276   6.896   9.989  1.7314 -2.6647  3.1103
  802MOL0     H 8247   6.347   6.775   9.878  1.4266 -2.0707  1.8536
  802MOL0     H 8248   6.296   7.024   9.794  1.1755  2.6738 -1.2274
  802MOL0     H 8249   6.426   7.071   9.904  0.0526 -0.2874  0.1304
  802MOL0     H 8250   7.115   6.740  10.582 -0.6021  0.0058 -1.7722
  802MOL0     H 8251   7.341   6.830  10.645  3.5178  3.0021  1.0613
  802MOL0     H 8252   7.598   7.013  10.981 -1.1173  0.4848  0.1464
  802MOL0     H 8253   7.840   7.110  11.035 -3.0783 -3.7082  0.0044
  802MOL0     H 8254   8.815   8.886  10.406 -1.5616 -0.1684 -0.4028
  802MOL0     H 8255   9.005   9.049  10.346 -1.0712 -1.0276  2.1116
  802MOL0     H 8256   8.994   9.355  10.028 -0.0603  0.4319 -0.6040
  802MOL0     H 8257   9.057   9.593  10.019  2.5697  1.0881 -1.2236
  802MOL0     H 8258   9.142   9.679   9.673 -0.9869 -0.0725 -1.6732
  802MOL0     H 8259   9.321   9.669   9.660  0.3387  0.5749  1.6322
  802MOL0     H 8260   9.325   9.894   9.619 -1.9690 -1.3004 -0.9368
  802MOL0     H 8261   9.339   9.885   9.796  1.3858  1.6373 -1.6219
  802MOL0     H 8262   9.117   9.921   9.836  1.0317  1.5981  0.8316
  802MOL0     H 8263   9.061   9.925   9.667  0.6492  1.5895 -0.2786
  802MOL0     H 8264   9.091  10.155   9.723 -0.7612 -3.0340  2.2432
  802MOL0     H 8265   9.239  10.109   9.805  1.2889  0.1324 -1.2613
  802MOL0     H 8266   9.394  10.177   9.437 -2.3057  3.3752 -1.7298
  802MOL0     H 8267   9.383   9.497   9.767 -1.7975  1.0338 -1.0902
  802MOL0     H 8268   9.357   9.123   9.802 -0.6628 -0.0105 -2.4863
  802MOL0     H 8269   9.423   9.264   9.718  0.8344 -0.3088 -0.3299
  802MOL0     H 8270   9.478   9.228   9.885  0.1104 -0.6983 -0.9245
  803MOL0     O 8271  10.015   2.413  11.037  0.0310 -0.1412  0.2665
  803MOL0     C 8272  10.013   2.429  10.917 -0.2437  0.2512  0.6546
  803MOL0     O 8273   9.911   2.423  10.826  0.0019  0.4173 -0.2388
  803MOL0     C 8274   9.791   2.364  10.873 -0.5665 -0.7269  0.4673
  803MOL0     C 8275   9.763   2.231  10.833 -0.2835 -0.2391  0.1434
  803MOL0     C 8276   9.652   2.161  10.858 -0.2510 -0.3108  0.6104
  803MOL0     C 8277   9.555   2.218  10.951  0.6872 -0.0894  0.6080
  803MOL0     O 8278   9.431   2.165  10.979  0.6846  0.1389  0.0055
  803MOL0     C 8279   9.368   2.062  10.893 -0.3665 -0.7886  0.1003
  803MOL0     C 8280   9.223   2.034  10.944 -0.6470  0.3290 -0.6566
  803MOL0     C 8281   9.228   1.941  11.065  1.2511 -0.2373 -0.6476
  803MOL0     C 8282   9.082   1.914  11.120  0.7286 -0.5666  0.5529
  803MOL0     C 8283   9.088   1.837  11.250 -0.8363 -0.2439  0.1792
  803MOL0     C 8284   8.961   1.772  11.293 -0.8004  0.1327  0.2244
  803MOL0     C 8285   8.976   1.686  11.430 -1.2424  0.1302  0.2215
  803MOL0     C 8286   8.882   1.732  11.544 -0.2842 -0.5623  0.0472
  803MOL0     N 8287   8.915   1.652  11.672 -0.8588  0.2666 -0.4726
  803MOL0     C 8288   9.038   1.636  11.724 -0.3680  0.7474 -0.5228
  803MOL0     C 8289   9.029   1.546  11.828 -0.6728 -0.0707 -0.2483
  803MOL0     C 8290   9.136   1.482  11.910 -0.6766 -0.2520  0.3682
  803MOL0     C 8291   9.200   1.581  12.011  0.5138 -0.6074 -0.1695
  803MOL0     C 8292   9.104   1.646  12.103 -0.2711  0.0730 -0.6793
  803MOL0     C 8293   9.166   1.739  12.206 -0.1051 -0.5712 -0.1349
  803MOL0     O 8294   9.230   1.856  12.133  0.0424 -0.2715 -0.4179
  803MOL0     C 8295   9.290   1.953  12.211  0.6459 -0.3254 -0.3140
  803MOL0     C 8296   9.333   2.073  12.146 -0.8200  0.0069  0.0782
  803MOL0     C 8297   9.374   2.179  12.228 -0.1648 -0.1198  0.2394
  803MOL0     C 8298   9.384   2.169  12.370  0.2160  0.5440 -0.4147
  803MOL0     C 8299   9.416   2.291  12.452 -0.0641  0.9809 -0.1446
  803MOL0     O 8300   9.429   2.263  12.582 -0.6097  0.6991 -0.1806
  803MOL0     C 8301   9.452   2.374  12.658 -0.3595  0.1562 -0.0892
  803MOL0     C 8302   9.566   2.374  12.741  0.0056 -0.1859 -0.0801
  803MOL0     C 8303   9.575   2.471  12.844 -0.1454  0.0301 -0.6460
  803MOL0     C 8304   9.488   2.577  12.865  0.3195  0.0210 -0.6323
  803MOL0     O 8305   9.487   2.684  12.952  0.6704  0.8081 -0.5322
  803MOL0     C 8306   9.577   2.690  13.060 -0.1011 -0.1351 -0.1171
  803MOL0     C 8307   9.653   2.815  13.029 -0.9260  0.0160  0.3316
  803MOL0     C 8308   9.564   2.937  13.006 -0.2376 -0.1017 -0.0431
  803MOL0     C 8309   9.637   3.069  13.011 -0.1565 -0.9308  0.1339
  803MOL0     C 8310   9.527   3.180  12.996 -0.5117 -0.7949 -1.0449
  803MOL0     C 8311   9.587   3.312  13.030 -0.1599  0.1239  0.1121
  803MOL0     C 8312   9.482   3.423  13.027 -0.2129 -0.9404  0.5402
  803MOL0     C 8313   9.554   3.562  13.036 -0.3060 -0.2510 -0.5861
  803MOL0    Cl 8314   9.541   3.617  13.200  0.1963  0.2681 -0.0216
  803MOL0     C 8315   9.376   2.573  12.770  0.3889 -0.6013  0.0373
  803MOL0     C 8316   9.359   2.472  12.673  0.1478 -0.4308 -0.2444
  803MOL0     O 8317   9.437   2.398  12.392  0.4229  0.1946  0.3625
  803MOL0     C 8318   9.338   2.049  12.434 -0.4702 -0.3491 -0.2774
  803MOL0     C 8319   9.296   1.942  12.353 -0.6747  0.1771  0.8697
  803MOL0     N 8320   8.888   1.535  11.853  0.3169 -0.5047  0.2890
  803MOL0     N 8321   8.819   1.597  11.754 -0.1490  0.1888 -1.1143
  803MOL0     C 8322   9.579   2.354  10.994  0.4157 -0.2617  0.1071
  803MOL0     C 8323   9.690   2.427  10.955 -0.5033 -0.1429 -0.3927
  803MOL0     C 8324  10.138   2.480  10.860 -1.2866  0.2697 -0.7186
  803MOL0     C 8325  10.189   2.604  10.875 -0.2100 -0.6580 -0.0861
  803MOL0     C 8326  10.302   2.651  10.801  0.0617  0.3340 -0.7053
  803MOL0     C 8327  10.367   2.563  10.724 -1.1072 -0.1003  0.0042
  803MOL0     O 8328  10.494   2.588  10.687 -0.2132  0.2062  0.0044
  803MOL0     C 8329  10.533   2.726  10.658 -0.1476 -0.2795 -0.1639
  803MOL0     C 8330  10.651   2.711  10.560  0.4904 -0.5207  0.5205
  803MOL0     C 8331  10.710   2.833  10.493  0.0295 -0.3432 -0.6515
  803MOL0     C 8332  10.814   2.910  10.586 -0.3554  0.3129 -0.5168
  803MOL0     C 8333  10.934   2.820  10.618  1.2624  0.4321 -0.3429
  803MOL0     C 8334  11.044   2.764  10.631 -0.1251  0.2253  1.0362
  803MOL0     C 8335  10.314   2.437  10.707  0.4503 -0.2799  0.4267
  803MOL0     C 8336  10.189   2.398  10.757 -0.2025  0.4907  0.0768
  803MOL0     C 8337  10.139   2.262  10.714 -0.3885  0.1330  0.2496
  803MOL0     H 8338   9.828   2.186  10.758 -1.4510 -0.4742 -0.7520
  803MOL0     H 8339   9.649   2.063  10.812  1.1117  0.8105 -2.0627
  803MOL0     H 8340   9.360   2.108  10.795 -0.5784  1.8350  1.2809
  803MOL0     H 8341   9.408   1.960  10.894 -0.0643 -0.7179 -1.4880
  803MOL0     H 8342   9.164   1.994  10.860 -0.4398  1.9016 -1.5943
  803MOL0     H 8343   9.172   2.126  10.973 -0.5824  0.0723  0.2964
  803MOL0     H 8344   9.279   1.983  11.152 -2.0704 -4.5930  3.9931
  803MOL0     H 8345   9.282   1.852  11.030  0.8583  1.0155 -5.0478
  803MOL0     H 8346   9.029   2.009  11.130 -0.2275 -0.9457 -0.7613
  803MOL0     H 8347   9.038   1.843  11.050  0.5335 -0.4113  0.5146
  803MOL0     H 8348   9.172   1.769  11.265  0.8635  1.9924  1.5877
  803MOL0     H 8349   9.105   1.922  11.317  0.5118  0.8491 -1.4698
  803MOL0     H 8350   8.892   1.856  11.302  0.5783  1.2443  0.6485
  803MOL0     H 8351   8.931   1.709  11.208 -2.9558  3.0377 -1.3595
  803MOL0     H 8352   9.078   1.700  11.468 -0.9930  0.2420 -0.4593
  803MOL0     H 8353   8.953   1.580  11.416 -4.5121  0.8610 -0.8494
  803MOL0     H 8354   8.908   1.836  11.566  0.1867 -1.1360  2.5092
  803MOL0     H 8355   8.777   1.725  11.516 -0.8154  1.6862  1.2076
  803MOL0     H 8356   9.127   1.673  11.675  1.4462 -2.3483  0.1468
  803MOL0     H 8357   9.108   1.392  11.965  3.5005 -3.0463 -1.6233
  803MOL0     H 8358   9.228   1.440  11.870 -0.3187 -3.2357  3.7959
  803MOL0     H 8359   9.276   1.523  12.064  0.2683 -0.1849  0.6676
  803MOL0     H 8360   9.255   1.662  11.960  2.9155 -1.8743  0.2544
  803MOL0     H 8361   9.039   1.574  12.154  1.6537 -0.4505  1.1534
  803MOL0     H 8362   9.039   1.714  12.046 -0.9970  0.9641  1.1213
  803MOL0     H 8363   9.242   1.681  12.258 -0.2642 -0.0061  0.7433
  803MOL0     H 8364   9.084   1.781  12.264 -2.5250 -1.5506 -2.6400
  803MOL0     H 8365   9.333   2.081  12.038 -1.1107  0.1294  0.0878
  803MOL0     H 8366   9.403   2.273  12.182 -0.6969  2.1430  4.0899
  803MOL0     H 8367   9.638   2.294  12.729 -0.1780 -1.0167  3.3529
  803MOL0     H 8368   9.655   2.467  12.917  0.2685  1.6617 -0.9612
  803MOL0     H 8369   9.529   2.697  13.158  1.6736  7.0192  0.8073
  803MOL0     H 8370   9.648   2.607  13.054 -0.7857 -0.8667  1.3719
  803MOL0     H 8371   9.732   2.829  13.104  2.6414  1.4572 -3.2786
  803MOL0     H 8372   9.716   2.798  12.941  0.7364 -1.2592  1.6823
  803MOL0     H 8373   9.523   2.924  12.906  2.1238  0.2684 -1.1328
  803MOL0     H 8374   9.489   2.925  13.085  0.4532 -1.3343  0.4555
  803MOL0     H 8375   9.712   3.066  12.931  0.5755 -2.9156  0.8334
  803MOL0     H 8376   9.689   3.083  13.106  1.7042 -1.4373 -0.7611
  803MOL0     H 8377   9.443   3.155  13.062 -0.4847  1.4177 -0.0886
  803MOL0     H 8378   9.500   3.184  12.890  0.3862 -0.4362 -1.2656
  803MOL0     H 8379   9.637   3.302  13.127 -0.3480  0.5247  0.2510
  803MOL0     H 8380   9.670   3.341  12.964 -1.5608  1.5704 -1.1049
  803MOL0     H 8381   9.407   3.407  13.104  1.6181 -1.8761  2.2054
  803MOL0     H 8382   9.428   3.409  12.933  1.7755  0.9628 -1.0108
  803MOL0     H 8383   9.661   3.558  13.011 -0.3885  0.2152 -1.0182
  803MOL0     H 8384   9.512   3.638  12.970  4.4175  1.5396 -1.9290
  803MOL0     H 8385   9.299   2.648  12.779  2.6978  2.1792 -1.7664
  803MOL0     H 8386   9.268   2.479  12.615 -0.3230 -4.2631 -0.2268
  803MOL0     H 8387   9.334   2.036  12.541 -3.9661  0.1544 -0.2525
  803MOL0     H 8388   9.265   1.855  12.409 -1.1329  0.1652  0.6047
  803MOL0     H 8389   9.497   2.384  11.058  1.1844  1.1082  0.4701
  803MOL0     H 8390   9.704   2.529  10.988  2.2682 -0.6251  0.1716
  803MOL0     H 8391  10.135   2.679  10.933  0.2330 -1.0311  0.8373
  803MOL0     H 8392  10.350   2.744  10.828  1.7190 -0.9898  1.1979
  803MOL0     H 8393  10.567   2.772  10.752 -0.5644 -0.8250  0.2655
  803MOL0     H 8394  10.445   2.782  10.626 -0.8587 -0.0426  1.9986
  803MOL0     H 8395  10.602   2.649  10.485 -0.9465  1.3033 -0.1332
  803MOL0     H 8396  10.729   2.650  10.606 -0.0288 -2.0160 -0.4916
  803MOL0     H 8397  10.640   2.903  10.448  1.4935  1.9374  0.3948
  803MOL0     H 8398  10.756   2.794  10.402  0.8757  0.5985 -0.6456
  803MOL0     H 8399  10.845   3.000  10.532 -0.6114  1.4891  1.2070
  803MOL0     H 8400  10.770   2.951  10.676 -0.0996  0.0582 -0.2702
  803MOL0     H 8401  11.136   2.712  10.648  0.4679  1.8550  3.2296
  803MOL0     H 8402  10.356   2.379  10.625 -1.4148  1.0162 -1.5536
  803MOL0     H 8403  10.086   2.209  10.793 -1.8017 -0.1183 -0.8279
  803MOL0     H 8404  10.073   2.277  10.628  1.0304  0.6918 -0.7892
  803MOL0     H 8405  10.222   2.192  10.698 -0.3978 -0.6173  3.0713
  804MOL0     O 8406  10.984   3.780   8.304 -0.0797  0.0391  0.0661
  804MOL0     C 8407  11.003   3.870   8.377  0.3953 -0.1320 -0.3780
  804MOL0     O 8408  11.126   3.902   8.419 -0.8687 -0.4379 -0.3034
  804MOL0     C 8409  11.230   3.822   8.370 -0.3767 -0.1551 -0.0462
  804MOL0     C 8410  11.283   3.709   8.438 -0.2021  0.7689 -0.2912
  804MOL0     C 8411  11.385   3.641   8.368  0.1967 -0.0921 -1.1234
  804MOL0     C 8412  11.444   3.684   8.250  0.4428 -0.6882 -0.5014
  804MOL0     O 8413  11.553   3.621   8.205  0.9375 -0.6454 -0.8172
  804MOL0     C 8414  11.608   3.639   8.070  0.3269  0.5597 -0.3700
  804MOL0     C 8415  11.710   3.758   8.062  0.3403  0.3736  0.3095
  804MOL0     C 8416  11.831   3.699   7.982  0.1380 -0.2109  0.2387
  804MOL0     C 8417  11.809   3.650   7.838  0.8982 -1.5152  0.2459
  804MOL0     C 8418  11.955   3.638   7.769  0.0474 -0.4858 -0.3267
  804MOL0     C 8419  11.940   3.568   7.636 -0.0801  0.7169 -0.0293
  804MOL0     C 8420  12.085   3.546   7.584 -0.3571 -0.1412 -0.5319
  804MOL0     C 8421  12.093   3.482   7.445  0.6087  0.4448  0.4262
  804MOL0     N 8422  12.228   3.486   7.372  0.6845 -0.0805 -0.7415
  804MOL0     C 8423  12.337   3.418   7.422 -0.2763  0.0691  0.5558
  804MOL0     C 8424  12.440   3.452   7.343 -0.7003  0.2461  0.2225
  804MOL0     C 8425  12.576   3.395   7.338 -0.5169 -0.1842 -1.0332
  804MOL0     C 8426  12.595   3.256   7.298  0.0287  0.1664  0.1937
  804MOL0     C 8427  12.723   3.192   7.354 -0.7418 -0.4937  0.6481
  804MOL0     C 8428  12.863   3.251   7.305  0.7165 -0.5720 -0.0385
  804MOL0     O 8429  12.947   3.265   7.413 -0.0655 -0.9565 -0.7747
  804MOL0     C 8430  13.075   3.272   7.370  0.1336  0.1144  0.2516
  804MOL0     C 8431  13.156   3.155   7.376 -0.3530  0.3316 -0.1240
  804MOL0     C 8432  13.285   3.148   7.329  0.4533 -0.4659  0.5761
  804MOL0     C 8433  13.332   3.265   7.264 -0.0117 -0.4331 -0.6012
  804MOL0     C 8434  13.477   3.265   7.209  0.4108 -0.2918 -0.5521
  804MOL0     O 8435  13.556   3.157   7.241 -0.4131 -0.1648  0.0503
  804MOL0     C 8436  13.689   3.157   7.220  0.3143 -0.6474  0.9689
  804MOL0     C 8437  13.755   3.042   7.215 -0.8239  0.4553 -0.4203
  804MOL0     C 8438  13.899   3.042   7.211  0.0551 -1.0194 -0.8078
  804MOL0     C 8439  13.975   3.156   7.195  0.7108 -0.4242 -0.7666
  804MOL0     O 8440  14.108   3.148   7.167  0.2541 -0.0327 -0.1113
  804MOL0     C 8441  14.213   3.224   7.239  0.0743 -0.0782 -0.0050
  804MOL0     C 8442  14.337   3.218   7.150  0.1301 -0.7861 -0.3323
  804MOL0     C 8443  14.414   3.087   7.169  1.5322 -0.1682  0.3024
  804MOL0     C 8444  14.491   3.090   7.298 -0.3497  0.0966  0.1187
  804MOL0     C 8445  14.596   2.972   7.310  0.1531 -0.5292  0.6175
  804MOL0     C 8446  14.635   2.942   7.459 -0.0672 -0.4004 -0.3857
  804MOL0     C 8447  14.710   2.800   7.476 -0.2597  0.3882  0.3444
  804MOL0     C 8448  14.788   2.778   7.610  0.0133 -0.3356 -0.2051
  804MOL0    Cl 8449  14.677   2.769   7.742  0.5772  0.3074 -0.0123
  804MOL0     C 8450  13.905   3.273   7.221  0.4209  0.4554 -0.0496
  804MOL0     C 8451  13.770   3.280   7.222  0.4961 -0.3146 -0.1144
  804MOL0     O 8452  13.507   3.356   7.137  0.2630 -0.4287 -0.7002
  804MOL0     C 8453  13.249   3.381   7.245  0.5196 -0.2704  0.0625
  804MOL0     C 8454  13.116   3.375   7.292 -1.5299 -0.4423  0.9480
  804MOL0     N 8455  12.389   3.528   7.241 -0.3920 -0.0814  0.1124
  804MOL0     N 8456  12.264   3.546   7.255  0.8889  0.2841  0.5798
  804MOL0     C 8457  11.394   3.801   8.201  0.6541  0.1720  0.2544
  804MOL0     C 8458  11.292   3.864   8.255  0.0360 -0.8258  0.0002
  804MOL0     C 8459  10.887   3.944   8.440  0.7771 -0.4231  0.3107
  804MOL0     C 8460  10.926   4.056   8.522  0.4861  0.1437  0.7719
  804MOL0     C 8461  10.828   4.123   8.597  0.3523  0.3400  0.1245
  804MOL0     C 8462  10.688   4.085   8.598 -0.4138  0.1921  0.1657
  804MOL0     O 8463  10.602   4.151   8.679 -0.2735  0.2766  0.3979
  804MOL0     C 8464  10.468   4.105   8.688 -0.8542 -0.5648  0.9897
  804MOL0     C 8465  10.456   3.990   8.787  0.0255 -0.0110  0.2119
  804MOL0     C 8466  10.546   4.007   8.911  0.5901  0.2918 -0.4510
  804MOL0     C 8467  10.522   4.138   8.984  0.7880  0.2341 -0.4265
  804MOL0     C 8468  10.376   4.162   9.017  0.3664 -1.0571  0.2453
  804MOL0     C 8469  10.266   4.203   9.041 -0.6099 -0.8343 -0.1523
  804MOL0     C 8470  10.654   3.970   8.516  0.4492 -0.9671 -0.5172
  804MOL0     C 8471  10.748   3.916   8.432 -0.0036  0.9694  0.5737
  804MOL0     C 8472  10.691   3.802   8.347 -0.5736  0.4476  0.0181
  804MOL0     H 8473  11.245   3.675   8.533 -0.4714  2.7172  0.3460
  804MOL0     H 8474  11.423   3.558   8.426  0.2287  2.4204  2.7976
  804MOL0     H 8475  11.644   3.544   8.030 -0.3252 -0.2437  0.8842
  804MOL0     H 8476  11.526   3.660   8.001  0.8598  3.6301 -0.2405
  804MOL0     H 8477  11.730   3.802   8.160  0.9993  0.0465  0.3248
  804MOL0     H 8478  11.669   3.836   7.998  0.4575  0.5590  0.4592
  804MOL0     H 8479  11.870   3.619   8.046 -1.6650 -1.8019 -0.5694
  804MOL0     H 8480  11.905   3.779   7.981  0.7259 -0.6993  1.5353
  804MOL0     H 8481  11.747   3.560   7.835 -0.4360 -0.6398  0.4111
  804MOL0     H 8482  11.763   3.725   7.771  3.5669 -1.3740 -1.5723
  804MOL0     H 8483  12.006   3.734   7.755  0.0357 -0.6646 -1.7444
  804MOL0     H 8484  12.025   3.581   7.830  2.0068  1.3040 -0.7641
  804MOL0     H 8485  11.894   3.470   7.654 -1.3624  1.5035  1.1524
  804MOL0     H 8486  11.879   3.624   7.566  2.4432  0.0453 -2.9798
  804MOL0     H 8487  12.145   3.487   7.653  1.2931  1.8288 -0.1784
  804MOL0     H 8488  12.134   3.642   7.565  5.7588 -2.6272  0.2207
  804MOL0     H 8489  12.072   3.374   7.450 -1.8447  0.6740 -2.5841
  804MOL0     H 8490  12.015   3.527   7.384 -2.6190 -1.9859  2.3958
  804MOL0     H 8491  12.358   3.337   7.491 -0.8881 -2.1375 -1.6816
  804MOL0     H 8492  12.637   3.473   7.293 -3.8336  1.4840 -2.9814
  804MOL0     H 8493  12.604   3.393   7.444 -1.7277  0.2866 -0.6849
  804MOL0     H 8494  12.521   3.189   7.343  2.6351 -1.5441  2.2398
  804MOL0     H 8495  12.582   3.234   7.192  1.3631 -2.4944  0.5024
  804MOL0     H 8496  12.727   3.085   7.327 -1.1098 -1.8436  5.1737
  804MOL0     H 8497  12.724   3.203   7.463 -2.3282 -0.7648  0.7137
  804MOL0     H 8498  12.837   3.346   7.258 -3.1617 -1.2479  0.4546
  804MOL0     H 8499  12.897   3.182   7.227 -0.2460 -1.4440  0.2937
  804MOL0     H 8500  13.120   3.075   7.439 -0.1349  0.4579  0.1638
  804MOL0     H 8501  13.342   3.056   7.340  0.8529 -0.8208 -3.1765
  804MOL0     H 8502  13.709   2.944   7.216 -0.0448  0.0670  1.2576
  804MOL0     H 8503  13.961   2.953   7.217  1.5339 -0.3091 -3.5886
  804MOL0     H 8504  14.181   3.329   7.245 -0.8276 -0.3732  0.4143
  804MOL0     H 8505  14.238   3.181   7.336  0.7676 -2.0078 -0.9868
  804MOL0     H 8506  14.299   3.228   7.048 -1.6499 -2.5279  0.0870
  804MOL0     H 8507  14.410   3.296   7.168  0.1342 -0.4280 -1.8323
  804MOL0     H 8508  14.349   2.999   7.170 -0.4515  1.2212  1.7690
  804MOL0     H 8509  14.484   3.072   7.087  1.8441 -0.8798  0.6943
  804MOL0     H 8510  14.418   3.078   7.378 -0.1729  1.0875  0.4464
  804MOL0     H 8511  14.545   3.183   7.317  1.3233 -0.7064 -0.5013
  804MOL0     H 8512  14.695   2.989   7.268 -0.2734 -1.8208 -1.0127
  804MOL0     H 8513  14.569   2.882   7.254 -0.5093 -0.3762  0.6782
  804MOL0     H 8514  14.691   3.027   7.502  0.5250  0.4822 -2.7541
  804MOL0     H 8515  14.544   2.949   7.519  0.2576  1.5675 -0.0298
  804MOL0     H 8516  14.791   2.800   7.403  1.1932 -1.9965  1.8485
  804MOL0     H 8517  14.629   2.730   7.457  2.3734 -2.5720 -0.8211
  804MOL0     H 8518  14.829   2.678   7.597 -1.3739 -0.7606 -1.7736
  804MOL0     H 8519  14.852   2.861   7.641 -0.4986  0.4551 -1.1817
  804MOL0     H 8520  13.958   3.367   7.233 -0.9957  1.4965 -1.5014
  804MOL0     H 8521  13.723   3.377   7.234 -1.1877 -1.0455 -0.5173
  804MOL0     H 8522  13.287   3.465   7.186 -0.4179 -2.3643 -3.8932
  804MOL0     H 8523  13.060   3.466   7.271  2.1778  1.6785 -0.8886
  804MOL0     H 8524  11.438   3.842   8.111 -1.3416 -0.1240 -0.9394
  804MOL0     H 8525  11.248   3.942   8.193  0.5259 -0.4219  0.1524
  804MOL0     H 8526  11.028   4.091   8.534 -0.1353  2.1718  0.6645
  804MOL0     H 8527  10.864   4.205   8.657 -1.3356  1.6841 -0.6291
  804MOL0     H 8528  10.432   4.066   8.592 -2.3036  2.5199  0.1598
  804MOL0     H 8529  10.384   4.172   8.710 -2.4874 -1.8195 -1.0103
  804MOL0     H 8530  10.491   3.908   8.724  0.5708  0.5500 -0.2306
  804MOL0     H 8531  10.352   3.972   8.817  0.3128  0.3666  1.4707
  804MOL0     H 8532  10.650   4.006   8.875  0.1665  2.0616 -1.8259
  804MOL0     H 8533  10.542   3.927   8.986  1.5921  1.9075  1.4180
  804MOL0     H 8534  10.570   4.130   9.081 -1.8372  0.7105  0.9949
  804MOL0     H 8535  10.550   4.219   8.916  0.2268 -0.4852 -1.5509
  804MOL0     H 8536  10.170   4.241   9.070 -1.5182 -1.5978 -1.9745
  804MOL0     H 8537  10.552   3.932   8.525  0.0266  0.3320  0.6051
  804MOL0     H 8538  10.734   3.704   8.370  1.4506  1.3211  0.1772
  804MOL0     H 8539  10.583   3.786   8.356 -0.5779  0.3307 -0.2194
  804MOL0     H 8540  10.705   3.837   8.244 -1.8722  2.0348  0.3282
  805MOL0     O 8541  10.246   2.713   4.960 -0.8845  0.7991 -0.2409
  805MOL0     C 8542  10.184   2.809   4.987  0.3752 -0.6733 -0.0071
  805MOL0     O 8543  10.230   2.937   5.001 -0.2496 -0.5641  0.3647
  805MOL0     C 8544  10.360   2.982   4.990 -0.3120  0.0689 -0.4943
  805MOL0     C 8545  10.370   3.111   4.934 -0.2935 -0.3495 -0.4087
  805MOL0     C 8546  10.492   3.160   4.893  0.2491  0.1135  0.2973
  805MOL0     C 8547  10.594   3.077   4.930 -0.4009 -1.0940  0.3734
  805MOL0     O 8548  10.717   3.143   4.908 -0.3158  0.0763  0.4810
  805MOL0     C 8549  10.788   3.158   5.041 -0.3272 -0.0476  0.5568
  805MOL0     C 8550  10.862   3.286   5.065 -0.8513  0.5101  0.1019
  805MOL0     C 8551  10.974   3.307   4.949 -0.5454 -0.0841 -0.2470
  805MOL0     C 8552  11.050   3.430   4.981 -0.3011  0.4170  0.2758
  805MOL0     C 8553  11.183   3.440   4.916 -0.0581 -0.6023 -1.3254
  805MOL0     C 8554  11.238   3.581   4.945 -0.3731  1.0691 -0.6195
  805MOL0     C 8555  11.376   3.599   4.892  0.9081 -0.5180  0.0265
  805MOL0     C 8556  11.425   3.735   4.926  0.3614  0.6260 -0.4030
  805MOL0     N 8557  11.557   3.756   4.863 -0.3481 -0.2755 -0.3263
  805MOL0     C 8558  11.675   3.712   4.919  0.1428  0.3718 -0.3698
  805MOL0     C 8559  11.773   3.737   4.827  0.5403 -0.4978 -0.3661
  805MOL0     C 8560  11.923   3.699   4.845  0.7963  0.2331  0.7783
  805MOL0     C 8561  11.929   3.552   4.902  0.2140 -0.7747 -0.6041
  805MOL0     C 8562  11.900   3.438   4.804 -0.3946 -0.6393  0.4511
  805MOL0     C 8563  11.863   3.314   4.875 -0.4737  0.6699 -0.2908
  805MOL0     O 8564  11.727   3.336   4.924  0.1687 -0.2768  0.0300
  805MOL0     C 8565  11.627   3.256   4.877  0.5130 -0.3168  0.1106
  805MOL0     C 8566  11.541   3.300   4.777  0.1043  0.6621 -0.2825
  805MOL0     C 8567  11.441   3.219   4.725  0.1431 -0.8750 -0.8887
  805MOL0     C 8568  11.426   3.095   4.784 -1.1350 -0.7638  0.3956
  805MOL0     C 8569  11.321   3.008   4.728  0.2982  0.3644 -0.6767
  805MOL0     O 8570  11.243   2.935   4.814  0.8438 -0.1767  0.1134
  805MOL0     C 8571  11.137   2.846   4.785 -0.2292  0.1566  1.5712
  805MOL0     C 8572  11.081   2.826   4.653  0.7950  0.4181 -0.9367
  805MOL0     C 8573  10.948   2.777   4.645  0.5299  0.0403  0.0619
  805MOL0     C 8574  10.885   2.717   4.751  0.3748 -1.0231 -0.7856
  805MOL0     O 8575  10.775   2.630   4.754  0.0878 -0.5413  0.4038
  805MOL0     C 8576  10.674   2.659   4.657 -0.9369 -0.3788  0.5138
  805MOL0     C 8577  10.547   2.646   4.733 -1.3746  0.9686  0.0981
  805MOL0     C 8578  10.431   2.713   4.673 -0.3168  0.0886  0.2033
  805MOL0     C 8579  10.388   2.629   4.551  0.0461  0.7124 -0.4591
  805MOL0     C 8580  10.248   2.666   4.516  0.4526  0.2499  0.2457
  805MOL0     C 8581  10.141   2.665   4.622 -0.7264  0.0284 -0.2067
  805MOL0     C 8582  10.006   2.616   4.559 -0.1112 -0.2002 -0.5274
  805MOL0     C 8583   9.902   2.599   4.672  0.1641  0.0094  0.2133
  805MOL0    Cl 8584   9.739   2.559   4.607 -0.1862  0.2977 -0.1426
  805MOL0     C 8585  10.941   2.726   4.877 -0.1632  0.3875  0.3632
  805MOL0     C 8586  11.063   2.796   4.893  0.0227 -0.0642  0.9364
  805MOL0     O 8587  11.309   3.017   4.605  0.4936 -0.4540  0.1244
  805MOL0     C 8588  11.501   3.054   4.890 -0.0797  1.1241  0.1101
  805MOL0     C 8589  11.609   3.137   4.933 -0.2992 -0.0581 -0.7155
  805MOL0     N 8590  11.706   3.804   4.723 -1.1736  0.3017 -0.6523
  805MOL0     N 8591  11.580   3.803   4.740 -0.3400 -0.0723 -1.1374
  805MOL0     C 8592  10.593   2.953   4.992  0.9681  0.6845  0.2213
  805MOL0     C 8593  10.472   2.897   5.019 -0.0865  0.7295  0.0384
  805MOL0     C 8594  10.041   2.789   5.006  0.1551 -0.0365 -0.1071
  805MOL0     C 8595   9.950   2.897   5.000 -0.6283  0.6274  0.5066
  805MOL0     C 8596   9.811   2.879   5.013  0.5883 -0.2295 -1.1445
  805MOL0     C 8597   9.763   2.755   5.043 -1.5657 -0.7079  0.1294
  805MOL0     O 8598   9.631   2.733   5.073 -0.0279 -0.0382  1.0435
  805MOL0     C 8599   9.564   2.721   4.952 -0.0696 -0.2633  0.4276
  805MOL0     C 8600   9.452   2.827   4.939  0.1655 -0.0862 -1.1154
  805MOL0     C 8601   9.337   2.784   4.857 -0.1727 -1.2274  1.5152
  805MOL0     C 8602   9.382   2.787   4.709 -0.2587 -0.4202  0.0086
  805MOL0     C 8603   9.270   2.740   4.628 -0.0283 -0.1859 -0.1048
  805MOL0     C 8604   9.184   2.698   4.555  0.1180  0.5291  0.5516
  805MOL0     C 8605   9.850   2.644   5.059 -0.3322 -0.6497 -0.4236
  805MOL0     C 8606   9.985   2.659   5.028  0.5201  0.2733  0.5144
  805MOL0     C 8607  10.052   2.522   5.044  0.4027  0.4271  0.6833
  805MOL0     H 8608  10.281   3.168   4.908 -1.0265 -1.7858 -1.2171
  805MOL0     H 8609  10.499   3.265   4.866 -0.0136  0.4940  1.6219
  805MOL0     H 8610  10.719   3.153   5.126 -2.1006  0.0108 -0.8442
  805MOL0     H 8611  10.853   3.071   5.058 -1.1547 -1.0340 -1.1603
  805MOL0     H 8612  10.912   3.280   5.162 -0.5857  0.2931 -0.0505
  805MOL0     H 8613  10.786   3.366   5.063 -1.9179 -0.4539 -2.6299
  805MOL0     H 8614  10.927   3.301   4.850  0.3842 -0.5123 -0.6721
  805MOL0     H 8615  11.044   3.224   4.945 -0.3065  0.0576  0.7987
  805MOL0     H 8616  10.999   3.517   4.939 -0.4062 -0.0380 -0.5459
  805MOL0     H 8617  11.070   3.441   5.089 -0.7416  3.0186  0.1707
  805MOL0     H 8618  11.257   3.372   4.961 -1.4591 -1.1207  0.3060
  805MOL0     H 8619  11.177   3.422   4.808 -2.3852  2.2532 -1.7815
  805MOL0     H 8620  11.162   3.652   4.913 -2.4532  0.5569  2.6596
  805MOL0     H 8621  11.255   3.587   5.053 -4.9057 -1.5298  0.4999
  805MOL0     H 8622  11.362   3.579   4.786  1.6558  1.3339 -0.4457
  805MOL0     H 8623  11.445   3.529   4.941  0.7086 -1.5865 -1.1678
  805MOL0     H 8624  11.351   3.804   4.886 -0.0780 -0.5388 -1.6589
  805MOL0     H 8625  11.441   3.753   5.033  1.8948 -0.5762 -0.3903
  805MOL0     H 8626  11.690   3.652   5.009  4.2025  1.3185 -0.2341
  805MOL0     H 8627  11.964   3.713   4.744  1.9571  1.8346  1.4340
  805MOL0     H 8628  11.971   3.771   4.911  0.2008  1.0497  0.3375
  805MOL0     H 8629  12.028   3.537   4.946  0.0238 -0.0354  0.1088
  805MOL0     H 8630  11.863   3.547   4.988 -1.3451  1.7459 -1.5096
  805MOL0     H 8631  11.993   3.418   4.750 -0.8072  1.2905 -1.0755
  805MOL0     H 8632  11.829   3.471   4.727  1.5492 -0.3217 -1.2897
  805MOL0     H 8633  11.920   3.311   4.968 -1.5344  0.4747  0.3777
  805MOL0     H 8634  11.891   3.219   4.828  0.0128  1.3302 -1.3647
  805MOL0     H 8635  11.556   3.397   4.730  1.2399  0.2952 -0.7012
  805MOL0     H 8636  11.366   3.246   4.652 -1.8780  0.2442  1.4650
  805MOL0     H 8637  11.133   2.860   4.563 -0.2835 -0.0250 -1.7420
  805MOL0     H 8638  10.886   2.777   4.556 -1.3775  1.2851  1.3084
  805MOL0     H 8639  10.682   2.757   4.609 -0.1168 -1.7479 -2.3491
  805MOL0     H 8640  10.674   2.584   4.578  1.7762 -0.2608  0.3103
  805MOL0     H 8641  10.526   2.541   4.754  0.4368  1.2516  4.1793
  805MOL0     H 8642  10.575   2.698   4.825 -0.8074  2.1091 -0.6972
  805MOL0     H 8643  10.351   2.720   4.747 -0.5402  0.3571 -0.0637
  805MOL0     H 8644  10.474   2.807   4.637  2.2792 -0.2717  2.0756
  805MOL0     H 8645  10.380   2.522   4.575 -0.6713  1.6577  4.3742
  805MOL0     H 8646  10.452   2.649   4.464  2.0543  0.6460  0.9460
  805MOL0     H 8647  10.236   2.601   4.429  3.0133  3.0643 -2.4387
  805MOL0     H 8648  10.256   2.769   4.482  1.4284  0.9632  2.4274
  805MOL0     H 8649  10.171   2.591   4.696 -1.8633 -0.3496 -0.1063
  805MOL0     H 8650  10.133   2.764   4.668  0.5681 -0.7841  1.8635
  805MOL0     H 8651  10.017   2.513   4.524 -0.6222 -0.8860  1.1685
  805MOL0     H 8652   9.976   2.683   4.478  1.0545 -0.7771 -1.4590
  805MOL0     H 8653   9.929   2.533   4.755  2.1354 -1.7147 -1.6776
  805MOL0     H 8654   9.888   2.697   4.717  3.1709  0.2929  0.7245
  805MOL0     H 8655  10.905   2.676   4.966  1.4500 -3.9631 -1.1646
  805MOL0     H 8656  11.104   2.804   4.993  0.6387  2.2025  0.5541
  805MOL0     H 8657  11.486   2.957   4.935 -1.5512  1.4935  0.4888
  805MOL0     H 8658  11.669   3.102   5.016 -2.8447  1.0939  1.7883
  805MOL0     H 8659  10.684   2.898   5.012  0.1014 -1.4207 -1.2514
  805MOL0     H 8660  10.461   2.794   5.052 -0.1870  0.6681 -0.1849
  805MOL0     H 8661   9.972   2.997   4.965 -0.1610  1.6161  3.3677
  805MOL0     H 8662   9.753   2.970   5.003  0.2355 -0.0955  1.3964
  805MOL0     H 8663   9.531   2.617   4.946  1.2168 -0.6590  0.0279
  805MOL0     H 8664   9.639   2.722   4.873 -1.1484 -1.2929 -0.6471
  805MOL0     H 8665   9.487   2.927   4.911  0.3188  0.0302 -0.5058
  805MOL0     H 8666   9.411   2.829   5.040  0.8176 -0.2434 -0.8459
  805MOL0     H 8667   9.262   2.863   4.862  1.8486  1.1610 -1.7430
  805MOL0     H 8668   9.294   2.690   4.891 -0.9464 -1.8071 -0.8346
  805MOL0     H 8669   9.401   2.889   4.675 -1.0248 -0.2628  0.0261
  805MOL0     H 8670   9.469   2.722   4.702 -0.7211 -1.6904  3.7010
  805MOL0     H 8671   9.106   2.665   4.488 -0.9727 -0.1769  2.1062
  805MOL0     H 8672   9.813   2.548   5.092  0.4501 -0.3266  1.5290
  805MOL0     H 8673  10.155   2.523   5.079 -0.2222  0.6240  2.6343
  805MOL0     H 8674   9.992   2.455   5.107 -0.6521  0.1284 -0.5828
  805MOL0     H 8675  10.045   2.466   4.950  1.7298  0.3216  0.6288
  806MOL0     O 8676   6.696   1.169   7.430  0.3725 -0.1883  0.3463
  806MOL0     C 8677   6.629   1.186   7.530  0.4679 -1.1803  0.7597
  806MOL0     O 8678   6.630   1.106   7.641  0.2387  0.4253  0.2785
  806MOL0     C 8679   6.695   0.983   7.632  1.3375  0.2459 -0.4640
  806MOL0     C 8680   6.786   0.946   7.729  0.5823 -0.6178  0.4380
  806MOL0     C 8681   6.856   0.825   7.714  0.7632 -1.1123 -1.0120
  806MOL0     C 8682   6.836   0.731   7.621 -0.6241  0.2243 -0.4739
  806MOL0     O 8683   6.905   0.615   7.603  0.0030 -0.6685 -0.5747
  806MOL0     C 8684   6.905   0.535   7.722 -0.3139  0.1139 -0.0871
  806MOL0     C 8685   6.771   0.499   7.782  0.2221  0.3016 -1.3750
  806MOL0     C 8686   6.790   0.446   7.932 -0.2644 -0.6713 -0.5929
  806MOL0     C 8687   6.668   0.388   8.003 -0.0686  0.7101  0.0963
  806MOL0     C 8688   6.719   0.281   8.104 -0.1325 -0.4321 -0.7139
  806MOL0     C 8689   6.599   0.250   8.188 -0.1788 -0.5457 -0.3057
  806MOL0     C 8690   6.614   0.118   8.258 -0.2844 -0.0146 -0.3886
  806MOL0     C 8691   6.611  -0.002   8.169 -0.3073  0.3739  0.5230
  806MOL0     N 8692   6.630  -0.124   8.244  0.1954  0.3833  0.5046
  806MOL0     C 8693   6.552  -0.177   8.346  0.2405 -0.1305 -0.4826
  806MOL0     C 8694   6.630  -0.276   8.388  0.9868 -0.0509  0.3274
  806MOL0     C 8695   6.590  -0.372   8.494 -0.3170 -0.4179 -0.0132
  806MOL0     C 8696   6.494  -0.480   8.433 -0.8471  0.6186 -0.3846
  806MOL0     C 8697   6.498  -0.599   8.529 -0.3081 -0.1212  0.2606
  806MOL0     C 8698   6.408  -0.706   8.483 -0.4830  0.1554  0.3736
  806MOL0     O 8699   6.413  -0.819   8.570 -0.2722 -0.4504  0.0900
  806MOL0     C 8700   6.345  -0.933   8.549 -1.0583 -0.3573  0.0654
  806MOL0     C 8701   6.340  -1.018   8.651 -0.4129 -0.5731 -0.1257
  806MOL0     C 8702   6.263  -1.135   8.641 -0.1805 -0.5845  0.8256
  806MOL0     C 8703   6.197  -1.167   8.519  0.2668 -0.7950  0.4506
  806MOL0     C 8704   6.111  -1.282   8.505  0.0244  0.0565  0.1284
  806MOL0     O 8705   6.048  -1.310   8.383  0.0640  0.7372 -0.2057
  806MOL0     C 8706   5.952  -1.414   8.386 -0.6294 -1.0213  0.2014
  806MOL0     C 8707   5.995  -1.550   8.400  0.5725  0.4590  0.4306
  806MOL0     C 8708   5.893  -1.649   8.399  0.3639  0.2489  0.2922
  806MOL0     C 8709   5.758  -1.614   8.374 -0.6057 -0.2252  0.3247
  806MOL0     O 8710   5.663  -1.717   8.383 -0.7635 -0.0755  0.6394
  806MOL0     C 8711   5.543  -1.697   8.308 -0.0062  0.3810  0.1962
  806MOL0     C 8712   5.465  -1.824   8.292  0.2530 -0.7633 -0.1206
  806MOL0     C 8713   5.342  -1.808   8.201 -0.6317 -0.8428  1.0071
  806MOL0     C 8714   5.248  -1.932   8.196 -0.1901  0.0123 -0.4943
  806MOL0     C 8715   5.169  -1.928   8.064 -0.0579  0.0430  0.5839
  806MOL0     C 8716   5.074  -1.804   8.048 -0.8587  0.8361 -0.3669
  806MOL0     C 8717   4.987  -1.793   7.927 -0.1203  0.5092 -0.3011
  806MOL0     C 8718   5.058  -1.820   7.788  0.2899  0.1493 -0.5629
  806MOL0    Cl 8719   4.953  -1.715   7.675 -0.0355  0.4466 -0.0960
  806MOL0     C 8720   5.729  -1.481   8.337  0.2109  0.7318  0.2960
  806MOL0     C 8721   5.821  -1.385   8.348  0.4059  0.5779  0.0562
  806MOL0     O 8722   6.106  -1.348   8.606 -0.4276  0.2630 -0.3534
  806MOL0     C 8723   6.212  -1.076   8.420 -0.1340  0.1826 -0.0657
  806MOL0     C 8724   6.275  -0.956   8.431  0.2867 -0.1279 -0.1478
  806MOL0     N 8725   6.752  -0.286   8.329  0.3128 -0.1140 -0.2590
  806MOL0     N 8726   6.744  -0.192   8.241  0.1628  0.0171 -0.0037
  806MOL0     C 8727   6.736   0.761   7.532 -0.1289 -0.0912  0.4643
  806MOL0     C 8728   6.673   0.890   7.533  0.2308  0.9090 -0.4056
  806MOL0     C 8729   6.544   1.302   7.533 -0.5248  0.2457  0.4444
  806MOL0     C 8730   6.529   1.363   7.658 -0.1059 -0.2714  0.1315
  806MOL0     C 8731   6.438   1.471   7.675 -0.5224 -0.4425  0.5356
  806MOL0     C 8732   6.360   1.512   7.571 -0.1044 -0.5043  0.0902
  806MOL0     O 8733   6.276   1.620   7.588 -0.0804  0.3082  0.2833
  806MOL0     C 8734   6.246   1.709   7.473  0.0270 -0.2415 -0.2892
  806MOL0     C 8735   6.216   1.850   7.516 -0.3238  1.1429 -0.6126
  806MOL0     C 8736   6.141   1.936   7.408  0.0258 -0.4735  0.7453
  806MOL0     C 8737   5.986   1.925   7.427 -0.2609  1.3183  0.5775
  806MOL0     C 8738   5.936   1.796   7.375  0.6146  0.3290 -0.3282
  806MOL0     C 8739   5.904   1.693   7.319  0.2361 -0.7906  0.6031
  806MOL0     C 8740   6.374   1.456   7.451 -0.6261 -0.2605 -0.6790
  806MOL0     C 8741   6.462   1.351   7.421  0.0912 -0.7417 -0.8439
  806MOL0     C 8742   6.457   1.291   7.284 -0.6725  0.0823 -0.1017
  806MOL0     H 8743   6.802   1.018   7.808 -2.2461 -0.3048  0.8239
  806MOL0     H 8744   6.914   0.811   7.805 -0.3339  3.3183  0.6287
  806MOL0     H 8745   6.963   0.443   7.714  0.3032  0.1120  3.0100
  806MOL0     H 8746   6.966   0.580   7.801  0.9847 -2.8099  0.6963
  806MOL0     H 8747   6.733   0.423   7.713 -0.2317 -0.5197 -0.2369
  806MOL0     H 8748   6.702   0.583   7.795  1.0282  0.9640 -1.2757
  806MOL0     H 8749   6.826   0.525   7.997 -2.0466  0.1379 -0.5347
  806MOL0     H 8750   6.866   0.368   7.921 -1.4632 -2.1228  0.9225
  806MOL0     H 8751   6.602   0.456   8.056  0.0533  1.3341 -0.5333
  806MOL0     H 8752   6.617   0.329   7.926  0.3583 -0.8380  0.9549
  806MOL0     H 8753   6.763   0.197   8.049  0.5009 -1.7205  1.5959
  806MOL0     H 8754   6.805   0.321   8.159 -0.8534 -1.5809  1.3424
  806MOL0     H 8755   6.603   0.314   8.278  0.2154 -1.5945  0.4422
  806MOL0     H 8756   6.505   0.256   8.134 -0.2195 -1.0937 -0.3025
  806MOL0     H 8757   6.548   0.114   8.345 -0.7631  2.3025 -0.5780
  806MOL0     H 8758   6.713   0.116   8.304 -1.0336  0.1838  1.3181
  806MOL0     H 8759   6.514  -0.023   8.122 -0.4320 -2.4359  1.8125
  806MOL0     H 8760   6.682   0.018   8.089 -1.3725 -1.6124 -1.0171
  806MOL0     H 8761   6.451  -0.154   8.377 -0.1380 -0.4160 -1.4497
  806MOL0     H 8762   6.680  -0.418   8.535  0.5684 -0.1046 -1.5198
  806MOL0     H 8763   6.530  -0.319   8.569  0.0583 -2.3418  1.7141
  806MOL0     H 8764   6.394  -0.439   8.419 -0.7680  0.3145 -1.9374
  806MOL0     H 8765   6.529  -0.508   8.334 -0.9614 -0.7613 -0.0683
  806MOL0     H 8766   6.467  -0.555   8.624  0.8575  2.5488 -0.5072
  806MOL0     H 8767   6.595  -0.649   8.538 -0.4695 -0.3834  0.5881
  806MOL0     H 8768   6.433  -0.744   8.383 -0.2670 -0.6323  0.7135
  806MOL0     H 8769   6.314  -0.652   8.472 -0.5242  0.6362  2.7307
  806MOL0     H 8770   6.381  -0.995   8.749 -2.9689 -2.2267  1.4464
  806MOL0     H 8771   6.259  -1.194   8.732 -0.7119 -2.3908 -0.3171
  806MOL0     H 8772   6.099  -1.575   8.418  0.9822  1.6392 -0.1641
  806MOL0     H 8773   5.916  -1.753   8.421 -0.3793 -0.5613 -2.4314
  806MOL0     H 8774   5.485  -1.619   8.358  0.9932  0.4979  1.2268
  806MOL0     H 8775   5.568  -1.655   8.210  3.0109  0.2287  0.7971
  806MOL0     H 8776   5.525  -1.911   8.263  0.0396 -1.8506  2.4185
  806MOL0     H 8777   5.422  -1.843   8.391 -3.0687  0.7096 -1.1556
  806MOL0     H 8778   5.284  -1.725   8.244  2.0878  0.3022  2.7682
  806MOL0     H 8779   5.384  -1.776   8.105  2.1481 -3.1628  1.3174
  806MOL0     H 8780   5.184  -1.923   8.285  0.8633  0.7659  0.2103
  806MOL0     H 8781   5.297  -2.028   8.211  1.4650  0.8237 -0.5053
  806MOL0     H 8782   5.106  -2.017   8.055  0.1114 -0.0227 -0.0263
  806MOL0     H 8783   5.250  -1.922   7.991  0.6851 -2.4317  1.1178
  806MOL0     H 8784   5.002  -1.812   8.130 -0.7490 -1.6413 -0.4363
  806MOL0     H 8785   5.135  -1.715   8.064  0.8861 -0.3323 -0.2192
  806MOL0     H 8786   4.940  -1.694   7.928  0.2345  0.6793  0.2978
  806MOL0     H 8787   4.907  -1.867   7.940  0.6569 -0.3515 -0.3268
  806MOL0     H 8788   5.155  -1.769   7.785  1.1090 -1.3093  0.1312
  806MOL0     H 8789   5.080  -1.925   7.765  1.6107  0.1488  0.5975
  806MOL0     H 8790   5.626  -1.461   8.309 -0.8300 -2.1125  1.6975
  806MOL0     H 8791   5.787  -1.297   8.295 -0.1398 -0.6705 -1.7534
  806MOL0     H 8792   6.153  -1.100   8.332 -0.6660 -0.6398  0.5021
  806MOL0     H 8793   6.271  -0.867   8.370 -3.0527  1.4911  2.1303
  806MOL0     H 8794   6.716   0.691   7.451 -0.3320  0.1967  0.2623
  806MOL0     H 8795   6.593   0.904   7.461 -1.2079 -0.5130  0.8615
  806MOL0     H 8796   6.576   1.326   7.749  1.5707 -1.8820 -1.2796
  806MOL0     H 8797   6.440   1.515   7.774 -0.7387  1.0089 -0.0704
  806MOL0     H 8798   6.154   1.666   7.432 -0.3986 -0.8691  1.2329
  806MOL0     H 8799   6.323   1.718   7.396 -0.3644  1.4175 -0.5407
  806MOL0     H 8800   6.311   1.904   7.524  0.1907  0.6956 -3.0593
  806MOL0     H 8801   6.173   1.855   7.617  0.4931 -1.9509 -0.0112
  806MOL0     H 8802   6.168   1.917   7.304 -1.9802  0.7141 -0.0443
  806MOL0     H 8803   6.169   2.040   7.428 -0.5486  0.3068 -2.0940
  806MOL0     H 8804   5.957   1.949   7.530  0.2520  1.6945  0.6404
  806MOL0     H 8805   5.947   2.013   7.375 -1.7750  1.3335  1.6687
  806MOL0     H 8806   5.853   1.604   7.289 -1.0421 -1.1950  3.6313
  806MOL0     H 8807   6.325   1.486   7.359 -3.9549  0.4364  1.1588
  806MOL0     H 8808   6.357   1.292   7.239 -0.2887 -2.6671 -1.2109
  806MOL0     H 8809   6.518   1.347   7.213 -2.2884  3.4910  0.9640
  806MOL0     H 8810   6.477   1.184   7.283 -2.9811 -0.3922 -1.0386
  807MOL0     O 8811   4.776   9.896   6.414  0.3781 -0.8062  0.2618
  807MOL0     C 8812   4.745  10.015   6.451 -0.8165  0.5545 -0.0917
  807MOL0     O 8813   4.831  10.100   6.505 -0.7948 -0.2532  0.7279
  807MOL0     C 8814   4.968  10.076   6.518 -0.1686 -0.2053 -0.8596
  807MOL0     C 8815   5.050  10.108   6.416 -0.6031 -0.3798  0.3224
  807MOL0     C 8816   5.191  10.116   6.426  0.4530 -0.0226 -0.5451
  807MOL0     C 8817   5.249  10.090   6.545  0.3210  0.3811  0.0280
  807MOL0     O 8818   5.381  10.089   6.575  0.0455  0.0036  0.1057
  807MOL0     C 8819   5.487  10.134   6.484  0.5401  0.0025  0.2995
  807MOL0     C 8820   5.600  10.193   6.565  0.0855  0.7092  0.3992
  807MOL0     C 8821   5.728  10.215   6.488  0.2609 -0.1311 -0.7309
  807MOL0     C 8822   5.790  10.075   6.458 -0.2247 -0.1489  0.5216
  807MOL0     C 8823   5.948  10.070   6.428  0.1588  0.9081  0.4423
  807MOL0     C 8824   5.982  10.118   6.286  0.0808 -0.6214 -0.2556
  807MOL0     C 8825   6.136  10.117   6.269  0.0382 -0.4931  0.4452
  807MOL0     C 8826   6.204   9.987   6.215 -0.3151  0.2153  0.5897
  807MOL0     N 8827   6.165   9.959   6.075  0.1034  0.3120 -0.2208
  807MOL0     C 8828   6.195  10.048   5.972  0.4808  0.0338 -0.0855
  807MOL0     C 8829   6.143   9.989   5.865 -0.2097 -1.5738  0.2235
  807MOL0     C 8830   6.189  10.051   5.733 -0.1326 -0.0608  0.2809
  807MOL0     C 8831   6.207   9.955   5.619 -0.6494  0.0250 -1.1636
  807MOL0     C 8832   6.259  10.017   5.486  0.3089 -0.8228  1.2865
  807MOL0     C 8833   6.255   9.910   5.370 -1.1909  0.1314 -0.7678
  807MOL0     O 8834   6.328   9.793   5.412  0.1271 -0.3309  0.2983
  807MOL0     C 8835   6.462   9.810   5.440  0.0843 -0.0370  0.5651
  807MOL0     C 8836   6.559   9.894   5.371 -0.5725  0.2354  0.3011
  807MOL0     C 8837   6.696   9.899   5.399  0.7599  0.3260  0.3797
  807MOL0     C 8838   6.748   9.833   5.513  0.9371 -0.5698  0.2524
  807MOL0     C 8839   6.894   9.818   5.533 -0.3454  0.6813  0.7343
  807MOL0     O 8840   6.938   9.705   5.604  0.2342  0.5434 -0.1144
  807MOL0     C 8841   7.072   9.666   5.620  0.7376 -0.6670  0.0454
  807MOL0     C 8842   7.137   9.641   5.742 -1.0132  0.2993  0.6011
  807MOL0     C 8843   7.275   9.588   5.743  0.6533  0.1961 -0.1686
  807MOL0     C 8844   7.347   9.573   5.626 -1.1693  0.3742  0.8568
  807MOL0     O 8845   7.486   9.551   5.625 -0.3468  0.3529  0.3602
  807MOL0     C 8846   7.541   9.458   5.535 -0.0862  0.7242  0.9859
  807MOL0     C 8847   7.678   9.410   5.595  0.1587  0.2559  0.2510
  807MOL0     C 8848   7.770   9.533   5.602  0.8844 -0.0840  0.5294
  807MOL0     C 8849   7.920   9.503   5.614  0.6209  0.0135  0.4398
  807MOL0     C 8850   7.989   9.646   5.614  0.5582 -0.2106 -0.4441
  807MOL0     C 8851   8.132   9.660   5.666 -0.4760 -0.2381 -0.1601
  807MOL0     C 8852   8.169   9.599   5.799  0.1052  0.2542 -0.8906
  807MOL0     C 8853   8.303   9.649   5.866 -0.0329  0.1577 -0.7331
  807MOL0    Cl 8854   8.350   9.567   6.020  0.0450  0.1604 -0.0895
  807MOL0     C 8855   7.282   9.598   5.507 -0.5061 -0.8499  0.2700
  807MOL0     C 8856   7.143   9.636   5.503 -0.0737  0.6827  0.0742
  807MOL0     O 8857   6.966   9.907   5.490  0.2589 -0.7058  0.0052
  807MOL0     C 8858   6.658   9.755   5.583 -0.2373  0.6108  0.1549
  807MOL0     C 8859   6.525   9.740   5.541 -0.1504  0.8444  0.6138
  807MOL0     N 8860   6.070   9.876   5.899  0.1096 -1.0773  0.6525
  807MOL0     N 8861   6.076   9.871   6.025 -0.1448 -1.1334 -0.0517
  807MOL0     C 8862   5.169  10.054   6.655  0.8998  0.8524  0.3857
  807MOL0     C 8863   5.026  10.049   6.639  0.6359 -0.1851 -0.1923
  807MOL0     C 8864   4.605  10.072   6.405 -0.4439 -0.3448 -0.1326
  807MOL0     C 8865   4.585  10.212   6.413  0.7974  0.1966 -0.7014
  807MOL0     C 8866   4.462  10.270   6.395  0.2025  0.3459  0.5811
  807MOL0     C 8867   4.354  10.182   6.364 -0.1165  0.4988 -0.3032
  807MOL0     O 8868   4.227  10.227   6.345 -0.6802 -0.5238 -0.3118
  807MOL0     C 8869   4.199  10.368   6.360 -0.4307 -0.4745 -0.0076
  807MOL0     C 8870   4.047  10.397   6.341 -0.2987  0.1174 -0.1976
  807MOL0     C 8871   4.025  10.548   6.357  0.0093  0.3500 -0.7078
  807MOL0     C 8872   3.877  10.577   6.385 -0.3084 -0.6506  0.4927
  807MOL0     C 8873   3.787  10.537   6.283  0.3367  0.2004  0.8692
  807MOL0     C 8874   3.716  10.477   6.207 -0.0063 -1.6023  0.5150
  807MOL0     C 8875   4.370  10.048   6.341  0.0808  0.7682  0.7473
  807MOL0     C 8876   4.498   9.993   6.350  0.6303  0.2247 -0.5536
  807MOL0     C 8877   4.513   9.851   6.305 -0.5294  1.2094  0.4054
  807MOL0     H 8878   5.013  10.124   6.316  0.5168 -0.6963 -0.1517
  807MOL0     H 8879   5.250  10.158   6.345  1.7063  0.0872  0.3994
  807MOL0     H 8880   5.519  10.049   6.422  0.2245 -0.4672  0.7709
  807MOL0     H 8881   5.467  10.217   6.415 -3.7779 -1.1027 -0.0714
  807MOL0     H 8882   5.624  10.126   6.649 -1.6205 -0.1311  0.2618
  807MOL0     H 8883   5.569  10.292   6.600 -4.3065 -0.0511 -0.7711
  807MOL0     H 8884   5.791  10.265   6.562 -1.2245  0.3486  0.2283
  807MOL0     H 8885   5.721  10.291   6.410 -1.2072  0.5017 -0.0098
  807MOL0     H 8886   5.785  10.017   6.551  2.1612 -1.6610 -0.1866
  807MOL0     H 8887   5.732  10.025   6.380  0.7541  0.0168 -0.3415
  807MOL0     H 8888   6.008  10.111   6.510 -1.5237  1.2169  1.5928
  807MOL0     H 8889   5.980   9.966   6.427  0.1991  0.8603 -2.8952
  807MOL0     H 8890   5.934  10.064   6.204  1.2128  2.1898 -2.9858
  807MOL0     H 8891   5.934  10.216   6.275 -1.0221 -0.3609  4.6782
  807MOL0     H 8892   6.185  10.145   6.363 -2.1052  0.2407  1.4167
  807MOL0     H 8893   6.156  10.187   6.187  0.6658 -1.5271 -0.3101
  807MOL0     H 8894   6.313   9.989   6.224 -0.3599  0.1270  1.2029
  807MOL0     H 8895   6.170   9.903   6.276 -2.1806  1.1357  0.8811
  807MOL0     H 8896   6.262  10.133   5.986 -0.7115  0.9652  0.1578
  807MOL0     H 8897   6.101  10.109   5.704 -1.6312 -2.1338  0.5336
  807MOL0     H 8898   6.285  10.103   5.746  0.4343 -0.7124 -1.1725
  807MOL0     H 8899   6.280   9.880   5.650 -1.3903  0.3871  1.7577
  807MOL0     H 8900   6.114   9.906   5.588  0.1749 -1.2846 -1.6253
  807MOL0     H 8901   6.361  10.055   5.497 -0.6245  2.2529  0.1858
  807MOL0     H 8902   6.201  10.103   5.454 -0.0567 -1.8871 -1.1115
  807MOL0     H 8903   6.293   9.954   5.277 -1.0448 -3.3526 -2.4993
  807MOL0     H 8904   6.151   9.877   5.357 -1.6756  0.3951  1.9725
  807MOL0     H 8905   6.520   9.959   5.293  0.2572 -1.9513 -2.1165
  807MOL0     H 8906   6.767   9.964   5.350  1.3494 -0.2469  0.4574
  807MOL0     H 8907   7.096   9.667   5.839 -0.1564  0.3262  0.9567
  807MOL0     H 8908   7.312   9.545   5.836  1.9939 -1.1250 -1.2562
  807MOL0     H 8909   7.468   9.377   5.532 -0.5724  1.1456  1.3930
  807MOL0     H 8910   7.562   9.493   5.434 -3.9063  1.3025  0.2736
  807MOL0     H 8911   7.653   9.378   5.697 -4.1508  0.3513 -0.6022
  807MOL0     H 8912   7.731   9.332   5.540  1.4910 -0.3947  2.3260
  807MOL0     H 8913   7.766   9.607   5.522  2.7986  2.7881  2.8637
  807MOL0     H 8914   7.737   9.578   5.697 -0.1674  1.6234 -0.6001
  807MOL0     H 8915   7.960   9.444   5.531  4.0924  0.5229  1.5918
  807MOL0     H 8916   7.930   9.456   5.712 -1.1343 -0.1505  0.5749
  807MOL0     H 8917   7.929   9.713   5.677 -2.7426 -2.6923 -0.7021
  807MOL0     H 8918   7.986   9.680   5.510 -3.3638  2.5162  0.3573
  807MOL0     H 8919   8.204   9.634   5.588  1.2161 -0.3580  1.3941
  807MOL0     H 8920   8.148   9.767   5.673 -0.6683 -0.2041 -0.2185
  807MOL0     H 8921   8.169   9.492   5.780  1.3212  0.5069 -2.4981
  807MOL0     H 8922   8.099   9.625   5.880  1.5963  2.3586 -0.1697
  807MOL0     H 8923   8.386   9.642   5.795  1.0926  1.5405  0.4093
  807MOL0     H 8924   8.293   9.753   5.899 -1.2315 -0.6863  1.8541
  807MOL0     H 8925   7.341   9.604   5.416 -0.9090 -1.2477 -0.0230
  807MOL0     H 8926   7.093   9.653   5.408  1.4999 -0.3967 -0.9775
  807MOL0     H 8927   6.684   9.708   5.678  1.0651  0.5681 -0.1957
  807MOL0     H 8928   6.448   9.686   5.595 -1.5460  0.5881 -1.5069
  807MOL0     H 8929   5.217  10.038   6.751 -1.8559  0.7301  1.8373
  807MOL0     H 8930   4.960  10.035   6.724  1.9191 -0.6922  0.7453
  807MOL0     H 8931   4.660  10.281   6.448 -1.4980  2.3885  0.2598
  807MOL0     H 8932   4.436  10.374   6.413 -1.2722  0.3741 -1.3187
  807MOL0     H 8933   4.263  10.423   6.290 -0.5356  2.7542  2.2297
  807MOL0     H 8934   4.226  10.401   6.460 -2.6936 -0.9657  0.8345
  807MOL0     H 8935   3.992  10.348   6.422 -2.0771  2.2858 -0.0049
  807MOL0     H 8936   4.015  10.355   6.245 -0.6884  2.0562 -0.9484
  807MOL0     H 8937   4.059  10.607   6.271 -0.2797  0.5335 -0.6978
  807MOL0     H 8938   4.084  10.575   6.445  2.4455 -4.1632 -0.6102
  807MOL0     H 8939   3.852  10.525   6.478  2.8752 -0.3646  1.6259
  807MOL0     H 8940   3.874  10.685   6.407 -0.4236  0.2012 -3.1744
  807MOL0     H 8941   3.649  10.432   6.136  1.9723 -1.0544 -1.7758
  807MOL0     H 8942   4.283   9.985   6.325  0.6271 -0.2876  1.7627
  807MOL0     H 8943   4.602   9.854   6.242 -0.0959  0.8822  0.9862
  807MOL0     H 8944   4.522   9.783   6.391  1.3103 -0.2549 -0.8649
  807MOL0     H 8945   4.425   9.807   6.257 -0.2978  0.0237  1.0293
  808MOL0     O 8946   3.533   0.090   9.040 -0.0235  0.4287 -0.3986
  808MOL0     C 8947   3.479   0.001   9.107  0.2691 -0.7460  0.1911
  808MOL0     O 8948   3.497  -0.004   9.243 -0.4787  0.0856 -0.0111
  808MOL0     C 8949   3.622   0.018   9.301 -0.1577  0.3697  0.7267
  808MOL0     C 8950   3.739  -0.018   9.236  0.8667  0.2075  0.1072
  808MOL0     C 8951   3.862   0.011   9.304 -0.6349  0.9297  0.1777
  808MOL0     C 8952   3.870   0.059   9.436 -1.4924 -0.6784  0.5159
  808MOL0     O 8953   3.995   0.084   9.507  0.2369 -0.2515  0.2388
  808MOL0     C 8954   4.119   0.056   9.441 -0.3115 -0.0773  0.1365
  808MOL0     C 8955   4.231   0.047   9.547 -0.2426 -0.7200 -0.8569
  808MOL0     C 8956   4.249   0.184   9.597 -0.5738 -0.9910 -1.2190
  808MOL0     C 8957   4.366   0.181   9.707 -0.3740 -0.6109  0.3741
  808MOL0     C 8958   4.488   0.098   9.674 -0.1825  0.5771 -0.5185
  808MOL0     C 8959   4.564   0.178   9.567 -0.5322  0.9083 -0.9491
  808MOL0     C 8960   4.699   0.129   9.517 -0.6285  0.2306 -0.5126
  808MOL0     C 8961   4.802   0.137   9.631 -0.2766  0.1355  0.5580
  808MOL0     N 8962   4.933   0.083   9.593  0.0357  0.0954  1.3057
  808MOL0     C 8963   4.976  -0.051   9.592 -0.2044 -1.1742 -0.6231
  808MOL0     C 8964   5.103  -0.048   9.537 -0.3884 -0.0095 -0.6999
  808MOL0     C 8965   5.185  -0.163   9.498  0.3692 -0.4951  0.0272
  808MOL0     C 8966   5.240  -0.155   9.359 -0.0232 -0.4938 -0.6003
  808MOL0     C 8967   5.275  -0.300   9.309  0.7258  0.4219 -0.5828
  808MOL0     C 8968   5.349  -0.312   9.172 -0.3159  0.1987 -1.0585
  808MOL0     O 8969   5.321  -0.198   9.087 -0.6844  0.0796 -0.4053
  808MOL0     C 8970   5.380  -0.206   8.965 -0.3467 -0.3280 -0.3408
  808MOL0     C 8971   5.331  -0.281   8.858 -0.3062 -0.3826 -0.0399
  808MOL0     C 8972   5.379  -0.260   8.729  0.8554 -0.2590  0.3927
  808MOL0     C 8973   5.496  -0.188   8.705 -0.4535  0.2708 -1.3147
  808MOL0     C 8974   5.547  -0.169   8.573  0.0511  0.4419  0.3390
  808MOL0     O 8975   5.468  -0.204   8.467  0.2642  0.1493 -0.4547
  808MOL0     C 8976   5.512  -0.183   8.345  0.4255 -0.1383 -0.9764
  808MOL0     C 8977   5.439  -0.098   8.253 -0.8413 -1.1431 -0.8139
  808MOL0     C 8978   5.491  -0.084   8.123  0.2948 -0.1915 -0.4577
  808MOL0     C 8979   5.604  -0.146   8.079 -0.6613 -0.3259  0.0016
  808MOL0     O 8980   5.660  -0.134   7.954 -0.3336  0.7818  0.4951
  808MOL0     C 8981   5.623  -0.017   7.877 -0.5476 -1.0377 -0.3394
  808MOL0     C 8982   5.712  -0.007   7.752 -0.1161  0.1212 -0.3386
  808MOL0     C 8983   5.859   0.013   7.771  0.1847 -0.4534 -0.2685
  808MOL0     C 8984   5.930   0.003   7.638 -0.2873  0.4239 -0.6182
  808MOL0     C 8985   6.087  -0.023   7.657 -0.9245  0.5958 -0.3998
  808MOL0     C 8986   6.165   0.095   7.709 -0.4292 -0.3088 -0.2598
  808MOL0     C 8987   6.307   0.029   7.723 -0.6849 -0.5469  0.3538
  808MOL0     C 8988   6.412   0.134   7.755 -0.2518 -0.0843  0.8062
  808MOL0    Cl 8989   6.361   0.216   7.909  0.1306 -0.2687 -0.0832
  808MOL0     C 8990   5.662  -0.233   8.166 -0.0066 -0.9753  0.5225
  808MOL0     C 8991   5.627  -0.244   8.296  0.2402  0.4581  0.5862
  808MOL0     O 8992   5.644  -0.093   8.556 -0.2525 -0.0567  0.2668
  808MOL0     C 8993   5.551  -0.124   8.815  0.4546  0.6557 -0.7470
  808MOL0     C 8994   5.495  -0.130   8.937 -0.0156 -0.2959 -0.8182
  808MOL0     N 8995   5.140   0.087   9.533  0.5148 -0.1321  0.5779
  808MOL0     N 8996   5.037   0.162   9.566 -0.9137 -0.3353 -0.2525
  808MOL0     C 8997   3.750   0.083   9.505  0.4023 -0.0951  0.0179
  808MOL0     C 8998   3.629   0.077   9.432  0.0107  0.9157  1.0732
  808MOL0     C 8999   3.405  -0.106   9.020  0.5227 -0.5297 -0.4893
  808MOL0     C 9000   3.390  -0.078   8.882 -0.0087 -0.9473  0.7631
  808MOL0     C 9001   3.321  -0.171   8.800  0.3091 -0.0150  0.2934
  808MOL0     C 9002   3.277  -0.291   8.852  0.1115  0.4559  0.2752
  808MOL0     O 9003   3.193  -0.373   8.769 -0.6139  0.8208 -0.6545
  808MOL0     C 9004   3.165  -0.514   8.816  0.7293 -0.7033  0.0591
  808MOL0     C 9005   3.080  -0.591   8.717 -0.1863 -0.7490 -0.4302
  808MOL0     C 9006   3.181  -0.680   8.625  1.0610 -0.8779  0.4097
  808MOL0     C 9007   3.099  -0.780   8.539 -1.3257  0.6940 -1.1836
  808MOL0     C 9008   3.005  -0.716   8.443  0.3267  0.3672 -0.4977
  808MOL0     C 9009   2.929  -0.650   8.380  0.2044 -0.1648  0.8127
  808MOL0     C 9010   3.310  -0.322   8.985  0.5767 -0.5771 -0.3615
  808MOL0     C 9011   3.371  -0.237   9.074 -0.4686 -1.2275 -0.2780
  808MOL0     C 9012   3.384  -0.278   9.210 -0.5612 -0.0839 -0.3389
  808MOL0     H 9013   3.736  -0.072   9.142  1.1710 -1.4069  0.9881
  808MOL0     H 9014   3.949  -0.025   9.249 -0.7494 -3.5204  2.4987
  808MOL0     H 9015   4.110  -0.041   9.391 -2.2342 -0.6276  1.4434
  808MOL0     H 9016   4.144   0.137   9.372 -0.8125 -1.0680 -1.2504
  808MOL0     H 9017   4.321   0.026   9.488  0.4884 -0.0773  0.0084
  808MOL0     H 9018   4.204  -0.028   9.622 -0.2319 -1.5141 -1.6228
  808MOL0     H 9019   4.158   0.223   9.642  0.3276  0.6955 -0.7734
  808MOL0     H 9020   4.271   0.258   9.520  0.6759  0.2906  0.2848
  808MOL0     H 9021   4.406   0.279   9.733  0.0166 -1.1320  1.8077
  808MOL0     H 9022   4.317   0.146   9.798  1.3585  1.6671  2.3136
  808MOL0     H 9023   4.551   0.083   9.762 -0.8867 -1.9662 -0.3811
  808MOL0     H 9024   4.453  -0.002   9.647 -0.8887 -0.1714  2.7749
  808MOL0     H 9025   4.498   0.179   9.480  0.3522  0.6437 -1.6322
  808MOL0     H 9026   4.581   0.282   9.599 -1.0906  0.5703  0.5501
  808MOL0     H 9027   4.742   0.186   9.434 -0.1527  1.6985  0.7127
  808MOL0     H 9028   4.697   0.021   9.498 -1.1611 -0.0687  1.1061
  808MOL0     H 9029   4.817   0.240   9.663  0.3860  1.2434 -2.8478
  808MOL0     H 9030   4.769   0.090   9.724  1.4401  0.4862  1.3716
  808MOL0     H 9031   4.907  -0.135   9.604  0.7574 -1.5944  2.7693
  808MOL0     H 9032   5.270  -0.174   9.566  2.0377 -3.3069 -2.2938
  808MOL0     H 9033   5.122  -0.252   9.508  0.5909 -1.3554 -4.2475
  808MOL0     H 9034   5.172  -0.112   9.285 -0.4301 -3.5343 -2.1491
  808MOL0     H 9035   5.330  -0.092   9.363 -0.7988  0.8248 -2.3099
  808MOL0     H 9036   5.183  -0.358   9.301  1.1132 -0.0298 -2.1637
  808MOL0     H 9037   5.342  -0.343   9.384 -1.3378 -0.1209  1.0253
  808MOL0     H 9038   5.312  -0.394   9.110  1.3989  0.2449 -2.1869
  808MOL0     H 9039   5.452  -0.335   9.200 -0.5148  2.5254  2.3010
  808MOL0     H 9040   5.249  -0.350   8.878  0.1112 -0.7934  0.2617
  808MOL0     H 9041   5.317  -0.298   8.649  0.3174  2.8257 -0.8210
  808MOL0     H 9042   5.353  -0.037   8.278  0.6136  1.1731 -1.1904
  808MOL0     H 9043   5.441  -0.015   8.055  0.5516  0.7936  0.3290
  808MOL0     H 9044   5.518  -0.019   7.847 -0.7765 -0.1669  0.3710
  808MOL0     H 9045   5.640   0.076   7.932  2.8738 -0.3339 -2.2592
  808MOL0     H 9046   5.692  -0.094   7.689  3.6180 -0.4946 -0.8923
  808MOL0     H 9047   5.681   0.084   7.700  1.7312  2.1230  1.8183
  808MOL0     H 9048   5.885   0.111   7.813  0.9161 -0.0495 -1.6154
  808MOL0     H 9049   5.896  -0.063   7.840  0.5450 -1.3783 -1.4414
  808MOL0     H 9050   5.929   0.094   7.578  1.8048 -1.4855 -3.8495
  808MOL0     H 9051   5.895  -0.078   7.574  1.5039  0.0299 -1.1733
  808MOL0     H 9052   6.132  -0.041   7.559  2.7158  3.1433  0.5731
  808MOL0     H 9053   6.105  -0.109   7.723 -1.2914 -1.3347 -2.6924
  808MOL0     H 9054   6.173   0.184   7.647  2.0509 -0.0814  0.2617
  808MOL0     H 9055   6.136   0.135   7.807  2.3829 -0.7346  0.8565
  808MOL0     H 9056   6.336  -0.013   7.626  0.5911  2.6247 -0.7899
  808MOL0     H 9057   6.308  -0.046   7.802  2.4528  0.0345  0.9896
  808MOL0     H 9058   6.506   0.079   7.770  1.1263  2.1373  0.7317
  808MOL0     H 9059   6.419   0.210   7.677 -0.2137 -0.2248  0.6729
  808MOL0     H 9060   5.746  -0.290   8.128  0.5013  0.3689 -0.4576
  808MOL0     H 9061   5.673  -0.320   8.358 -1.9061 -1.8370 -0.4157
  808MOL0     H 9062   5.644  -0.069   8.806  1.6363 -1.2141 -0.3886
  808MOL0     H 9063   5.535  -0.062   9.012  1.0692 -0.9622 -0.7749
  808MOL0     H 9064   3.758   0.127   9.604  0.1058  1.1149 -0.4763
  808MOL0     H 9065   3.535   0.115   9.470 -0.3195  2.0680 -0.7424
  808MOL0     H 9066   3.426   0.009   8.828 -1.3589 -1.0417 -0.3460
  808MOL0     H 9067   3.304  -0.150   8.695  2.9684 -1.3525 -0.4944
  808MOL0     H 9068   3.103  -0.498   8.905 -1.8252 -2.3376 -1.3034
  808MOL0     H 9069   3.257  -0.567   8.843  1.4525 -0.2113 -1.3427
  808MOL0     H 9070   3.033  -0.524   8.645  0.4911 -2.3027 -2.4119
  808MOL0     H 9071   2.995  -0.641   8.763 -0.9212 -0.8750 -1.8693
  808MOL0     H 9072   3.241  -0.742   8.692  0.6222 -2.5518 -0.6598
  808MOL0     H 9073   3.244  -0.620   8.559  1.6686 -0.6591  1.1770
  808MOL0     H 9074   3.167  -0.849   8.488  1.0424  0.6501  1.7656
  808MOL0     H 9075   3.034  -0.835   8.606  0.7737 -0.5813 -0.0937
  808MOL0     H 9076   2.871  -0.586   8.317  0.3704  1.4679  2.2413
  808MOL0     H 9077   3.277  -0.416   9.029 -1.1594  0.8382  1.5875
  808MOL0     H 9078   3.486  -0.256   9.244 -0.6772 -1.1030  0.7186
  808MOL0     H 9079   3.320  -0.220   9.277 -0.8873 -0.2405 -0.5169
  808MOL0     H 9080   3.377  -0.385   9.227  1.7559 -0.1253  0.8885
  809MOL0     O 9081   3.740   0.365   7.257 -0.6164 -0.2675  0.4262
  809MOL0     C 9082   3.677   0.305   7.168  0.1563 -0.8231 -1.0630
  809MOL0     O 9083   3.725   0.287   7.035  0.4774 -0.4054 -0.6318
  809MOL0     C 9084   3.837   0.358   7.006  0.1770 -0.2279  0.1516
  809MOL0     C 9085   3.829   0.448   6.896 -0.0739  1.1336 -0.1447
  809MOL0     C 9086   3.950   0.499   6.851  0.7180  0.3068 -0.2991
  809MOL0     C 9087   4.074   0.477   6.916 -0.1539 -0.1199  0.0786
  809MOL0     O 9088   4.197   0.525   6.882 -0.0241  1.0513  0.1279
  809MOL0     C 9089   4.191   0.656   6.831  0.2631 -0.0366  0.3446
  809MOL0     C 9090   4.326   0.716   6.832 -0.4441  0.4377 -0.7609
  809MOL0     C 9091   4.334   0.821   6.720 -0.8688 -0.0286  0.0280
  809MOL0     C 9092   4.417   0.774   6.596  1.0826 -0.6662  0.1831
  809MOL0     C 9093   4.347   0.826   6.466 -0.0281  0.0584 -0.2335
  809MOL0     C 9094   4.407   0.773   6.341  0.4714  0.5468 -0.1950
  809MOL0     C 9095   4.564   0.794   6.338 -0.4775  0.3170 -0.2883
  809MOL0     C 9096   4.609   0.767   6.194  0.1393 -0.1898  0.6354
  809MOL0     N 9097   4.637   0.623   6.174  0.1099  0.2729 -0.8908
  809MOL0     C 9098   4.740   0.559   6.226  0.0781 -0.5072  0.2837
  809MOL0     C 9099   4.731   0.427   6.185 -0.7397 -0.8818 -0.0908
  809MOL0     C 9100   4.815   0.304   6.222  0.4489  0.6573 -0.1167
  809MOL0     C 9101   4.964   0.333   6.238 -0.2037  0.2420 -0.0751
  809MOL0     C 9102   5.046   0.393   6.118  0.0038  1.2785 -0.4054
  809MOL0     C 9103   5.202   0.401   6.132 -0.5935 -0.3246  0.6641
  809MOL0     O 9104   5.235   0.474   6.014 -0.1112  0.3035 -0.1366
  809MOL0     C 9105   5.368   0.502   6.000  0.7890 -0.0072 -0.5415
  809MOL0     C 9106   5.394   0.583   5.891 -0.2940  0.7070 -0.1686
  809MOL0     C 9107   5.528   0.641   5.883  0.6380 -0.6153 -0.1814
  809MOL0     C 9108   5.635   0.616   5.974 -0.1188 -1.7348 -0.6586
  809MOL0     C 9109   5.765   0.685   5.969  0.2407 -0.1498  0.0186
  809MOL0     O 9110   5.863   0.654   6.056  0.6872 -0.0616 -0.0632
  809MOL0     C 9111   5.983   0.727   6.066  0.2710  1.4331 -0.3636
  809MOL0     C 9112   6.089   0.661   6.018 -0.9619 -0.7569 -0.0106
  809MOL0     C 9113   6.215   0.727   5.997  0.1297  0.0354  0.5998
  809MOL0     C 9114   6.235   0.859   6.033 -0.1588 -0.3272 -0.4929
  809MOL0     O 9115   6.350   0.939   6.042  0.2566 -0.2524  0.2828
  809MOL0     C 9116   6.478   0.888   6.003  0.0165 -0.7989  0.2211
  809MOL0     C 9117   6.587   0.998   5.995 -0.0237 -0.0563  0.6537
  809MOL0     C 9118   6.727   0.953   5.946 -0.7545  0.9284  0.1922
  809MOL0     C 9119   6.804   0.840   6.026  0.7817 -0.4246  0.8243
  809MOL0     C 9120   6.916   0.770   5.950  0.4725 -0.0502  0.2220
  809MOL0     C 9121   7.033   0.864   5.923  0.8534  0.1382  0.4696
  809MOL0     C 9122   7.159   0.780   5.888 -0.0512  0.2336  0.5789
  809MOL0     C 9123   7.272   0.865   5.828 -0.1002  0.3895 -0.2229
  809MOL0    Cl 9124   7.386   0.914   5.961  0.3767  0.4118  0.7783
  809MOL0     C 9125   6.127   0.929   6.088 -0.8544  0.2328  0.0307
  809MOL0     C 9126   6.006   0.865   6.095 -0.3331 -0.4036 -0.4834
  809MOL0     O 9127   5.777   0.767   5.879  0.4701  0.1471  0.2499
  809MOL0     C 9128   5.600   0.520   6.079 -0.4161 -0.0550  0.3991
  809MOL0     C 9129   5.465   0.475   6.093  0.0259 -0.4932 -0.3951
  809MOL0     N 9130   4.619   0.422   6.113  0.5933  0.9557 -0.1299
  809MOL0     N 9131   4.563   0.539   6.109  0.6527  0.3998  0.0777
  809MOL0     C 9132   4.074   0.392   7.022  0.2638 -0.2629 -0.0064
  809MOL0     C 9133   3.958   0.329   7.067 -0.9366  0.7137  0.9702
  809MOL0     C 9134   3.558   0.242   7.195 -0.2466 -0.7025  0.1561
  809MOL0     C 9135   3.533   0.122   7.134 -0.6670 -0.5382 -0.1258
  809MOL0     C 9136   3.414   0.047   7.165  0.2193  0.8669  0.3577
  809MOL0     C 9137   3.311   0.095   7.246  0.0605 -0.0230  0.0364
  809MOL0     O 9138   3.200   0.018   7.281 -0.5559  0.0493 -0.0641
  809MOL0     C 9139   3.061   0.076   7.273 -0.6717 -0.6204 -1.0390
  809MOL0     C 9140   3.028   0.136   7.136  0.5533  0.2824  0.1735
  809MOL0     C 9141   2.885   0.194   7.118  0.1667 -0.4726 -0.4403
  809MOL0     C 9142   2.881   0.348   7.116  0.2041 -0.7034 -0.7091
  809MOL0     C 9143   2.740   0.401   7.128 -1.2283 -0.1539  0.4875
  809MOL0     C 9144   2.626   0.430   7.165 -0.1126 -0.0703  1.1450
  809MOL0     C 9145   3.334   0.225   7.301  0.6783  0.3198 -0.4214
  809MOL0     C 9146   3.451   0.301   7.276  0.2363 -0.7793 -0.5623
  809MOL0     C 9147   3.458   0.435   7.346 -0.0431  0.2204  0.4712
  809MOL0     H 9148   3.738   0.458   6.838 -1.7738 -3.7068  1.1399
  809MOL0     H 9149   3.949   0.566   6.766 -2.3572  0.1275 -0.5224
  809MOL0     H 9150   4.156   0.667   6.728  2.0046  2.9458 -0.0441
  809MOL0     H 9151   4.133   0.711   6.907  2.5598  2.1449  0.6405
  809MOL0     H 9152   4.408   0.645   6.825  0.9088  1.9351 -0.6145
  809MOL0     H 9153   4.341   0.765   6.929 -0.1767  1.9985 -1.5475
  809MOL0     H 9154   4.381   0.902   6.777 -1.1886  0.6989 -0.7235
  809MOL0     H 9155   4.240   0.863   6.682 -1.1374 -1.3415 -0.8081
  809MOL0     H 9156   4.517   0.814   6.611  0.3216  1.1332  0.8116
  809MOL0     H 9157   4.398   0.666   6.597 -2.8948 -0.1331  0.9548
  809MOL0     H 9158   4.240   0.814   6.446  0.3950 -1.6596 -1.6646
  809MOL0     H 9159   4.361   0.935   6.473 -0.7596  0.0832  1.3116
  809MOL0     H 9160   4.396   0.668   6.313  2.7318  0.4478 -0.9628
  809MOL0     H 9161   4.359   0.833   6.264 -3.5869 -1.9876  0.0774
  809MOL0     H 9162   4.616   0.729   6.409  0.5282  3.5503  2.2038
  809MOL0     H 9163   4.597   0.893   6.373 -1.0573 -0.1375  1.6886
  809MOL0     H 9164   4.541   0.802   6.116  0.7968  0.9082  0.5399
  809MOL0     H 9165   4.711   0.804   6.177 -0.0410 -0.0254 -0.1027
  809MOL0     H 9166   4.818   0.605   6.286 -0.2025  0.7120 -0.2591
  809MOL0     H 9167   4.769   0.248   6.303  1.5696 -1.7834 -1.0764
  809MOL0     H 9168   4.813   0.243   6.131 -3.2982  0.5858 -0.1459
  809MOL0     H 9169   4.973   0.393   6.329 -2.5554  1.1631 -0.3945
  809MOL0     H 9170   5.012   0.237   6.262  1.4936  0.9947 -0.3185
  809MOL0     H 9171   5.017   0.499   6.111  2.6098  2.0840 -0.1028
  809MOL0     H 9172   5.028   0.343   6.022 -1.8185  1.6629 -0.3044
  809MOL0     H 9173   5.248   0.302   6.139 -0.8168 -0.3529  2.2258
  809MOL0     H 9174   5.228   0.444   6.230 -1.4234  0.5891  0.5063
  809MOL0     H 9175   5.308   0.607   5.829 -1.0651 -2.4644 -0.5034
  809MOL0     H 9176   5.537   0.703   5.794  4.3898 -0.0338  0.4568
  809MOL0     H 9177   6.071   0.566   5.969  1.1694 -1.1005 -0.2450
  809MOL0     H 9178   6.297   0.667   5.960 -0.4057 -1.4006  1.6317
  809MOL0     H 9179   6.502   0.815   6.082  0.1614 -1.3757 -0.3485
  809MOL0     H 9180   6.456   0.846   5.905 -4.6106 -0.2723  0.8257
  809MOL0     H 9181   6.557   1.081   5.930 -1.5088 -1.1562 -0.1393
  809MOL0     H 9182   6.616   1.045   6.089  1.9821  0.9179 -0.3823
  809MOL0     H 9183   6.713   0.908   5.847 -0.4384 -1.2586  1.0865
  809MOL0     H 9184   6.795   1.036   5.927 -0.2487  0.9196  1.8677
  809MOL0     H 9185   6.724   0.765   6.032  1.2134 -0.9597  0.0396
  809MOL0     H 9186   6.842   0.872   6.124 -0.3401 -2.5314  2.0297
  809MOL0     H 9187   6.871   0.722   5.863 -2.3510  1.9716  0.4323
  809MOL0     H 9188   6.950   0.688   6.015  0.5512  1.2968  1.9579
  809MOL0     H 9189   7.011   0.928   5.837 -0.2935 -2.1765 -1.0768
  809MOL0     H 9190   7.051   0.944   5.995 -1.8668  3.2955 -1.9634
  809MOL0     H 9191   7.139   0.704   5.812 -1.4063  0.8893  0.2511
  809MOL0     H 9192   7.203   0.728   5.975  2.0472 -0.3731 -0.7586
  809MOL0     H 9193   7.325   0.804   5.754  1.5940  0.6600  0.7241
  809MOL0     H 9194   7.220   0.948   5.779 -0.4095 -0.4047 -1.2934
  809MOL0     H 9195   6.135   1.032   6.121  0.2478  0.0485  0.3905
  809MOL0     H 9196   5.932   0.925   6.148  1.9607  2.3790 -0.1877
  809MOL0     H 9197   5.667   0.495   6.161  0.0707 -0.3538 -0.0740
  809MOL0     H 9198   5.438   0.415   6.179  1.3408 -0.3694  0.1134
  809MOL0     H 9199   4.163   0.382   7.084 -1.2520 -2.3567  1.9867
  809MOL0     H 9200   3.964   0.256   7.147 -2.6724  1.5316  1.8974
  809MOL0     H 9201   3.608   0.076   7.070 -1.8326 -1.7773 -0.6263
  809MOL0     H 9202   3.382  -0.049   7.126  2.0426 -0.7077  2.4407
  809MOL0     H 9203   3.071   0.151   7.352 -0.6355  0.0559 -1.6635
  809MOL0     H 9204   2.985   0.001   7.295 -1.5324  0.0514 -1.6519
  809MOL0     H 9205   3.036   0.062   7.056 -2.9881  1.5267 -1.5428
  809MOL0     H 9206   3.103   0.208   7.104 -0.0322  1.0875  0.5842
  809MOL0     H 9207   2.817   0.157   7.195  0.4042  1.0543  0.5436
  809MOL0     H 9208   2.847   0.170   7.018  0.7070 -2.1478 -0.2774
  809MOL0     H 9209   2.934   0.391   7.201  1.6995 -0.3689 -1.7684
  809MOL0     H 9210   2.919   0.396   7.025  0.1183  2.0918  0.6403
  809MOL0     H 9211   2.524   0.455   7.187 -2.0414 -1.0086 -4.8265
  809MOL0     H 9212   3.264   0.264   7.375  2.7168 -0.1478  1.9021
  809MOL0     H 9213   3.356   0.474   7.353  0.0939  0.8643 -0.7702
  809MOL0     H 9214   3.502   0.424   7.445 -0.5393 -0.2535  0.6434
  809MOL0     H 9215   3.517   0.504   7.285 -0.1934  0.1742  0.2698
  810MOL0     O 9216   2.648  10.897   8.788  0.2523  0.5787 -1.0372
  810MOL0     C 9217   2.699  10.807   8.859  0.7146  0.0959  0.0635
  810MOL0     O 9218   2.684  10.674   8.835 -0.2986  0.2310  0.5514
  810MOL0     C 9219   2.615  10.637   8.726 -0.1239  0.6315 -0.0382
  810MOL0     C 9220   2.644  10.646   8.594  0.8946 -1.1121  0.0616
  810MOL0     C 9221   2.559  10.606   8.492  0.2049 -1.0121  0.2123
  810MOL0     C 9222   2.445  10.536   8.522 -0.1568  0.5953 -0.3649
  810MOL0     O 9223   2.377  10.487   8.414  0.2826 -0.1731 -0.4648
  810MOL0     C 9224   2.234  10.477   8.411 -1.0224  0.1327 -0.8434
  810MOL0     C 9225   2.199  10.395   8.292  0.6459  0.2090  0.5288
  810MOL0     C 9226   2.221  10.485   8.172  0.2750 -0.1333  0.6309
  810MOL0     C 9227   2.198  10.410   8.038  0.4996 -0.9820  0.1973
  810MOL0     C 9228   2.224  10.499   7.923  0.2155  0.2422  0.0290
  810MOL0     C 9229   2.126  10.466   7.809 -0.0646 -0.9407  0.6928
  810MOL0     C 9230   2.157  10.553   7.686 -0.1922  0.0952 -0.5632
  810MOL0     C 9231   2.038  10.550   7.584 -0.3289  0.9913 -0.6177
  810MOL0     N 9232   2.085  10.621   7.459  0.0743 -0.0613  0.3675
  810MOL0     C 9233   2.065  10.580   7.329  1.0921 -0.8661 -0.2980
  810MOL0     C 9234   2.125  10.673   7.263  0.3106 -0.2451  0.6125
  810MOL0     C 9235   2.120  10.692   7.112  0.6378  0.3059  0.1451
  810MOL0     C 9236   2.245  10.623   7.048 -0.5198  0.4940 -0.3716
  810MOL0     C 9237   2.226  10.475   7.012  0.7889 -0.1012  0.0373
  810MOL0     C 9238   2.363  10.411   6.965 -0.5759 -0.7683 -0.2457
  810MOL0     O 9239   2.358  10.279   7.008 -0.3451  0.0906 -0.3546
  810MOL0     C 9240   2.362  10.172   6.917  0.4132  0.0273 -1.0168
  810MOL0     C 9241   2.414  10.166   6.795 -0.5110 -0.9891  0.3421
  810MOL0     C 9242   2.414  10.044   6.718 -0.0126  0.0192 -0.4682
  810MOL0     C 9243   2.368   9.920   6.775 -0.7142  0.2553 -0.1062
  810MOL0     C 9244   2.389   9.788   6.704 -0.1451 -0.3105 -0.6709
  810MOL0     O 9245   2.457   9.799   6.579  0.2987 -0.5980 -0.0006
  810MOL0     C 9246   2.429   9.699   6.494 -0.3623 -1.0263  0.2149
  810MOL0     C 9247   2.317   9.701   6.404  0.0985  0.6862 -0.9408
  810MOL0     C 9248   2.303   9.608   6.298  0.3894 -0.2368  0.5126
  810MOL0     C 9249   2.397   9.513   6.273 -0.0421  0.2535  0.6744
  810MOL0     O 9250   2.397   9.435   6.159  0.0722 -0.4346  0.0765
  810MOL0     C 9251   2.514   9.352   6.124 -0.6634  0.4122 -0.8468
  810MOL0     C 9252   2.614   9.448   6.049 -0.1984  0.3539 -0.8435
  810MOL0     C 9253   2.743   9.377   6.019 -0.9615  1.2875  0.6525
  810MOL0     C 9254   2.841   9.384   6.139  0.2986  0.6102 -0.3637
  810MOL0     C 9255   2.983   9.336   6.115  0.2014  0.2799  0.4070
  810MOL0     C 9256   3.002   9.177   6.088  1.2009  0.0348 -0.1775
  810MOL0     C 9257   3.126   9.143   6.002  0.6071 -0.1031  0.3222
  810MOL0     C 9258   3.256   9.156   6.075 -0.6821  0.2611  0.0567
  810MOL0    Cl 9259   3.276   9.037   6.207  0.3343 -0.0952  0.4257
  810MOL0     C 9260   2.504   9.506   6.364  0.1254 -0.3871  0.6786
  810MOL0     C 9261   2.526   9.604   6.468 -0.4084  0.4835  0.7986
  810MOL0     O 9262   2.342   9.684   6.749  0.3581  0.2232 -0.3668
  810MOL0     C 9263   2.314   9.920   6.900  0.3528  0.0211 -0.4791
  810MOL0     C 9264   2.306  10.048   6.971 -0.2820  0.9277  0.4438
  810MOL0     N 9265   2.174  10.772   7.343  0.4373  0.6413 -0.4312
  810MOL0     N 9266   2.148  10.740   7.462 -0.4394 -0.7362 -1.0564
  810MOL0     C 9267   2.412  10.506   8.658 -0.3891 -0.3382  0.4113
  810MOL0     C 9268   2.496  10.564   8.756  0.4082  0.2389 -0.3926
  810MOL0     C 9269   2.794  10.851   8.965 -0.0980  0.5194 -0.6045
  810MOL0     C 9270   2.819  10.749   9.061  0.0031 -0.3451 -0.1891
  810MOL0     C 9271   2.916  10.780   9.159  0.3681  0.3872  0.2865
  810MOL0     C 9272   2.980  10.902   9.179 -0.3503  0.0969  0.0758
  810MOL0     O 9273   3.070  10.928   9.282  0.0781  0.2296 -0.1925
  810MOL0     C 9274   3.072  10.838   9.401  0.0936 -0.8990 -0.3861
  810MOL0     C 9275   3.101  10.930   9.512  0.1910 -0.3726 -0.1627
  810MOL0     C 9276   3.252  10.958   9.530  0.6037 -0.2920  0.5578
  810MOL0     C 9277   3.279  11.087   9.614  0.3881  0.2435  0.5642
  810MOL0     C 9278   3.418  11.119   9.643 -0.4483  0.0796  0.7534
  810MOL0     C 9279   3.530  11.119   9.685 -0.1905  0.0744 -0.1167
  810MOL0     C 9280   2.947  11.002   9.082 -0.7297  0.0098 -0.1007
  810MOL0     C 9281   2.850  10.977   8.979  0.0223  0.0337 -0.3260
  810MOL0     C 9282   2.833  11.089   8.882  0.1723  0.3395 -0.3129
  810MOL0     H 9283   2.734  10.685   8.548  0.1893  1.6218  0.8241
  810MOL0     H 9284   2.588  10.625   8.389  0.3093  0.0194  0.4280
  810MOL0     H 9285   2.192  10.441   8.505 -0.4239 -2.7001 -1.5533
  810MOL0     H 9286   2.201  10.580   8.398  1.0770  0.6990 -2.1447
  810MOL0     H 9287   2.095  10.360   8.287  0.6313  0.3478 -0.1317
  810MOL0     H 9288   2.268  10.311   8.275  0.3674  0.2879 -1.1190
  810MOL0     H 9289   2.319  10.533   8.180  0.0404  0.3343  0.6962
  810MOL0     H 9290   2.158  10.574   8.172  0.4524  0.0009  1.2768
  810MOL0     H 9291   2.258  10.320   8.023 -1.8880 -2.7769  0.9087
  810MOL0     H 9292   2.096  10.373   8.038 -0.6765  1.7449 -2.4965
  810MOL0     H 9293   2.223  10.606   7.947 -0.5861 -0.1123  1.7433
  810MOL0     H 9294   2.325  10.472   7.890  0.5623 -1.1572  2.0251
  810MOL0     H 9295   2.143  10.366   7.767 -2.9250 -1.9150  1.5941
  810MOL0     H 9296   2.023  10.480   7.843 -0.5933 -2.0789 -0.3421
  810MOL0     H 9297   2.240  10.499   7.639  0.2140 -0.2689  0.5375
  810MOL0     H 9298   2.181  10.657   7.708  1.0860 -0.6428  1.8226
  810MOL0     H 9299   1.997  10.450   7.568  1.3298  0.4699 -2.0543
  810MOL0     H 9300   1.950  10.602   7.622  0.0694  1.4246 -0.2790
  810MOL0     H 9301   2.000  10.496   7.305 -2.4385  0.8070  2.5544
  810MOL0     H 9302   2.028  10.664   7.060 -0.0651  3.5337 -0.5574
  810MOL0     H 9303   2.129  10.798   7.090  1.2543 -0.1704 -2.2200
  810MOL0     H 9304   2.264  10.682   6.957 -2.9468 -1.0366 -1.9756
  810MOL0     H 9305   2.327  10.635   7.119 -2.0347 -0.3359  1.5951
  810MOL0     H 9306   2.163  10.465   6.923  0.3502  0.7545  0.2420
  810MOL0     H 9307   2.194  10.424   7.103  1.7436 -0.5383  0.1423
  810MOL0     H 9308   2.442  10.474   7.007 -0.0180 -1.6280  0.0361
  810MOL0     H 9309   2.365  10.419   6.856 -1.7081  0.8401 -0.1733
  810MOL0     H 9310   2.455  10.258   6.753 -3.8755  1.3256  1.7410
  810MOL0     H 9311   2.444  10.043   6.614  1.2290 -1.3298 -0.1282
  810MOL0     H 9312   2.234   9.771   6.415  0.7768  1.7154 -2.0503
  810MOL0     H 9313   2.218   9.620   6.232  0.5880  1.6845  0.5504
  810MOL0     H 9314   2.556   9.305   6.213 -1.0687 -0.2761 -1.0080
  810MOL0     H 9315   2.480   9.273   6.056 -0.2089 -1.9202  1.4910
  810MOL0     H 9316   2.566   9.477   5.955 -0.9411 -2.7689 -1.5483
  810MOL0     H 9317   2.630   9.533   6.116 -1.6458 -1.2595  1.7373
  810MOL0     H 9318   2.733   9.269   6.008  1.7210  1.0480 -0.2305
  810MOL0     H 9319   2.790   9.416   5.928  0.7165 -1.2969  0.3149
  810MOL0     H 9320   2.799   9.327   6.223  1.3772  3.0586  2.0161
  810MOL0     H 9321   2.847   9.488   6.173  0.2454  0.2714  0.7185
  810MOL0     H 9322   3.042   9.367   6.201  0.7924  1.5272 -0.4242
  810MOL0     H 9323   3.015   9.384   6.022  1.2674 -5.0099 -2.3608
  810MOL0     H 9324   3.017   9.129   6.185  0.4157  0.8831  0.3843
  810MOL0     H 9325   2.910   9.134   6.047  0.8628 -1.0624  1.6350
  810MOL0     H 9326   3.133   9.219   5.923  0.3788 -1.1659 -0.7351
  810MOL0     H 9327   3.119   9.040   5.965  3.3920  0.0684 -0.9014
  810MOL0     H 9328   3.330   9.130   5.999 -1.5124  0.7024 -0.9246
  810MOL0     H 9329   3.280   9.252   6.121 -1.2036 -1.1624  3.6240
  810MOL0     H 9330   2.575   9.425   6.373  0.5337  0.0366  1.3797
  810MOL0     H 9331   2.611   9.614   6.534 -0.5443  4.7944  0.5872
  810MOL0     H 9332   2.285   9.822   6.938 -0.1312 -0.2244 -1.4441
  810MOL0     H 9333   2.261  10.056   7.069 -0.9372 -2.5388  0.5382
  810MOL0     H 9334   2.323  10.450   8.684 -1.4872  0.9886 -0.3598
  810MOL0     H 9335   2.461  10.543   8.857 -1.0845  3.3892 -0.1355
  810MOL0     H 9336   2.785  10.646   9.062 -1.1386 -0.0760  3.3838
  810MOL0     H 9337   2.944  10.690   9.214 -0.8821 -1.6230 -2.1550
  810MOL0     H 9338   3.145  10.756   9.400 -1.7719 -2.6468 -0.3211
  810MOL0     H 9339   2.973  10.793   9.413  0.1789 -1.6594 -2.2665
  810MOL0     H 9340   3.071  10.873   9.601  2.9836  0.8773  1.7094
  810MOL0     H 9341   3.057  11.029   9.502  3.0505  0.9660 -0.2796
  810MOL0     H 9342   3.308  10.973   9.437 -0.3318  3.7716  0.4641
  810MOL0     H 9343   3.282  10.862   9.574 -1.8856 -1.9733 -1.1163
  810MOL0     H 9344   3.235  11.170   9.558 -1.3642  0.2032  1.8085
  810MOL0     H 9345   3.241  11.082   9.716  1.7776  1.6022  1.1927
  810MOL0     H 9346   3.625  11.152   9.723 -1.0505  1.0535  1.2451
  810MOL0     H 9347   2.991  11.101   9.084 -0.1023 -0.2165 -1.6540
  810MOL0     H 9348   2.725  11.109   8.880 -0.0170 -0.6286 -0.1788
  810MOL0     H 9349   2.882  11.181   8.915 -2.9539  1.2104  2.4777
  810MOL0     H 9350   2.880  11.060   8.788  0.8414 -0.0059  0.1139
  811MOL0     O 9351  10.968   8.209   9.388  0.7480 -0.5299 -0.1749
  811MOL0     C 9352  11.074   8.152   9.352  0.0873 -0.9870  0.5683
  811MOL0     O 9353  11.104   8.113   9.221  0.9492 -0.4929 -0.5805
  811MOL0     C 9354  11.010   8.132   9.118 -0.3804  0.2569  0.3472
  811MOL0     C 9355  10.873   8.104   9.133 -0.1616 -0.2686  0.1005
  811MOL0     C 9356  10.792   8.128   9.019  0.0277  0.4021 -0.4439
  811MOL0     C 9357  10.840   8.158   8.890  0.3643 -0.0438  0.6815
  811MOL0     O 9358  10.762   8.176   8.782  0.3755 -0.3147  0.3004
  811MOL0     C 9359  10.644   8.085   8.781  0.0682  0.1683  0.3624
  811MOL0     C 9360  10.590   8.089   8.641  0.6896 -0.2693  1.0183
  811MOL0     C 9361  10.493   7.979   8.593 -0.1808 -0.3211  0.5414
  811MOL0     C 9362  10.398   8.023   8.482  0.5144  0.0050  0.0168
  811MOL0     C 9363  10.328   7.897   8.442  0.5477 -1.5802  0.0017
  811MOL0     C 9364  10.409   7.793   8.366 -0.4270 -1.2751 -0.3147
  811MOL0     C 9365  10.332   7.689   8.290  0.0785  0.6448 -0.5129
  811MOL0     C 9366  10.288   7.571   8.377  0.0120 -0.1274  0.0151
  811MOL0     N 9367  10.405   7.472   8.412  0.3931 -0.3601 -0.5589
  811MOL0     C 9368  10.475   7.403   8.318 -0.1958 -0.5373 -0.6089
  811MOL0     C 9369  10.543   7.308   8.381  0.4240 -0.1718  0.6560
  811MOL0     C 9370  10.618   7.184   8.325 -0.0632  0.4581  0.3390
  811MOL0     C 9371  10.705   7.208   8.207  0.0156  0.7757  0.0466
  811MOL0     C 9372  10.778   7.083   8.172 -0.0159 -0.6582 -0.3848
  811MOL0     C 9373  10.863   7.116   8.048 -0.3142  0.0985 -0.5812
  811MOL0     O 9374  10.959   7.011   8.023  0.4666 -0.3967 -0.2994
  811MOL0     C 9375  11.085   7.040   8.057 -0.4682 -0.2990 -0.7541
  811MOL0     C 9376  11.188   6.948   8.013  0.8260 -0.5953  0.0050
  811MOL0     C 9377  11.320   6.960   8.037 -0.6574 -0.7229  0.0400
  811MOL0     C 9378  11.362   7.064   8.134 -0.4990  0.1790  0.3926
  811MOL0     C 9379  11.502   7.087   8.175 -0.2525  0.7227 -0.1656
  811MOL0     O 9380  11.525   7.143   8.302 -0.0953 -0.4371 -0.6339
  811MOL0     C 9381  11.657   7.140   8.357 -0.2257 -0.4065  0.4662
  811MOL0     C 9382  11.765   7.206   8.298 -0.6930  0.4710  0.7093
  811MOL0     C 9383  11.899   7.199   8.337 -0.8604  1.0463  0.1362
  811MOL0     C 9384  11.932   7.108   8.442 -0.2529  0.6214 -0.2146
  811MOL0     O 9385  12.070   7.099   8.480  0.8293  0.2836 -0.3326
  811MOL0     C 9386  12.098   6.978   8.558 -0.5521  0.2487  0.0269
  811MOL0     C 9387  12.250   6.942   8.585  0.7353  0.3503  0.3840
  811MOL0     C 9388  12.315   7.044   8.674 -1.0566 -0.0472  0.2377
  811MOL0     C 9389  12.463   7.014   8.698  0.9270  0.3532  0.3410
  811MOL0     C 9390  12.535   7.106   8.804  0.0700 -1.0695 -0.2094
  811MOL0     C 9391  12.683   7.105   8.787 -0.7405  0.6933  0.6289
  811MOL0     C 9392  12.762   7.190   8.877 -0.8488 -0.8710 -0.0594
  811MOL0     C 9393  12.903   7.207   8.838  0.0933  0.7797 -0.9456
  811MOL0    Cl 9394  12.977   7.317   8.950  0.1492  0.2457 -0.4266
  811MOL0     C 9395  11.825   7.039   8.507 -0.2138 -0.0650 -0.0413
  811MOL0     C 9396  11.689   7.061   8.466 -0.6249  1.4888  0.3029
  811MOL0     O 9397  11.590   7.064   8.089  0.5853  0.0681  0.2958
  811MOL0     C 9398  11.269   7.155   8.184  1.0070  0.5819 -0.9545
  811MOL0     C 9399  11.135   7.140   8.144  0.2931  0.4035  0.1732
  811MOL0     N 9400  10.520   7.332   8.519  0.3840 -0.1755  0.3346
  811MOL0     N 9401  10.445   7.434   8.543 -0.8119 -0.3683  0.3336
  811MOL0     C 9402  10.978   8.190   8.882  0.5500  0.3051 -0.2161
  811MOL0     C 9403  11.061   8.179   8.998 -0.8093 -0.0516 -0.0148
  811MOL0     C 9404  11.169   8.133   9.468  0.2676 -0.5260  0.2052
  811MOL0     C 9405  11.302   8.115   9.430  0.8472  0.4073 -0.3360
  811MOL0     C 9406  11.404   8.116   9.524 -0.1020  0.1599  0.2453
  811MOL0     C 9407  11.372   8.122   9.663 -0.0346 -0.5957  0.4337
  811MOL0     O 9408  11.467   8.114   9.754  0.2011  0.1569 -0.3154
  811MOL0     C 9409  11.446   8.171   9.888  0.1807  0.2792  1.4168
  811MOL0     C 9410  11.571   8.195   9.971  0.0339  0.3929  0.7305
  811MOL0     C 9411  11.659   8.070   9.959 -0.4190 -0.4460 -0.5707
  811MOL0     C 9412  11.781   8.092  10.050 -0.1769  0.3672 -0.0930
  811MOL0     C 9413  11.860   8.220  10.045  0.2809  0.0448  0.4150
  811MOL0     C 9414  11.921   8.327  10.054  0.3699  0.0514  0.1211
  811MOL0     C 9415  11.238   8.132   9.701 -0.3239  0.3390  0.2153
  811MOL0     C 9416  11.138   8.146   9.603  0.1682  1.0010  0.0324
  811MOL0     C 9417  11.003   8.178   9.654  0.0657  0.6409  0.0871
  811MOL0     H 9418  10.839   8.060   9.226  0.5018 -1.0897 -0.0295
  811MOL0     H 9419  10.691   8.089   9.027 -0.3384  1.6573  1.8053
  811MOL0     H 9420  10.683   7.983   8.796 -0.4279 -0.1034 -0.1883
  811MOL0     H 9421  10.567   8.115   8.853  0.1116 -1.1668  1.0017
  811MOL0     H 9422  10.674   8.092   8.571  1.5176 -1.3188  1.9296
  811MOL0     H 9423  10.542   8.184   8.619  1.6115 -0.5719 -3.0410
  811MOL0     H 9424  10.438   7.937   8.678 -1.7938 -1.6962 -1.1025
  811MOL0     H 9425  10.562   7.901   8.560 -0.0247  0.9521 -2.4378
  811MOL0     H 9426  10.322   8.089   8.526 -0.5955 -1.1719 -0.0778
  811MOL0     H 9427  10.446   8.073   8.397  1.5992 -0.1027  0.5554
  811MOL0     H 9428  10.282   7.842   8.525 -4.0366 -0.2310 -1.3306
  811MOL0     H 9429  10.246   7.940   8.384  2.8026  1.9710 -0.8234
  811MOL0     H 9430  10.456   7.852   8.287 -2.0005 -2.5744 -2.3167
  811MOL0     H 9431  10.478   7.739   8.432  1.1221  0.3484 -0.5239
  811MOL0     H 9432  10.399   7.658   8.210  0.9800 -2.1169  1.1882
  811MOL0     H 9433  10.241   7.739   8.257  0.3535  0.3730 -1.6940
  811MOL0     H 9434  10.221   7.608   8.455 -2.2119 -0.9444 -1.4141
  811MOL0     H 9435  10.228   7.504   8.314 -0.4253  2.1819 -2.2197
  811MOL0     H 9436  10.457   7.392   8.211 -0.3974  0.6643 -0.7192
  811MOL0     H 9437  10.690   7.154   8.402 -0.0510  2.2967  1.0770
  811MOL0     H 9438  10.542   7.108   8.305  0.0224  0.6257 -0.6831
  811MOL0     H 9439  10.659   7.256   8.120 -2.2525  0.9687  1.2588
  811MOL0     H 9440  10.776   7.278   8.253 -1.1149 -0.0741  3.4026
  811MOL0     H 9441  10.694   7.016   8.152 -1.4599  1.4831 -1.8762
  811MOL0     H 9442  10.848   7.053   8.251  2.3624 -1.1249 -2.5163
  811MOL0     H 9443  10.916   7.211   8.059  1.4772 -0.9682  0.4803
  811MOL0     H 9444  10.788   7.133   7.969 -1.7701  1.4778  1.0033
  811MOL0     H 9445  11.152   6.879   7.937 -0.9909  3.5212 -3.2871
  811MOL0     H 9446  11.403   6.900   8.002  0.8626  0.4406  1.4991
  811MOL0     H 9447  11.748   7.272   8.213  2.7740 -2.0248 -2.1811
  811MOL0     H 9448  11.964   7.270   8.287  0.1890  0.5365  0.7255
  811MOL0     H 9449  12.047   6.973   8.655  0.7573  0.4227  0.7382
  811MOL0     H 9450  12.043   6.902   8.502 -0.9335  1.8641 -1.8764
  811MOL0     H 9451  12.246   6.842   8.630 -0.3780  0.2981  0.1893
  811MOL0     H 9452  12.291   6.923   8.485 -0.4585 -2.3996  0.3116
  811MOL0     H 9453  12.311   7.140   8.623  1.2894 -1.0978 -2.1292
  811MOL0     H 9454  12.261   7.053   8.769  1.8856 -0.2712  2.0703
  811MOL0     H 9455  12.518   7.016   8.603  1.2496 -2.5261  0.3728
  811MOL0     H 9456  12.472   6.907   8.723  1.1248 -0.4872 -2.8426
  811MOL0     H 9457  12.512   7.073   8.906  1.8312  0.6429  0.8034
  811MOL0     H 9458  12.499   7.209   8.795  0.0774 -1.0090  0.4299
  811MOL0     H 9459  12.709   7.000   8.804 -2.8448  0.2692  1.6332
  811MOL0     H 9460  12.712   7.135   8.686  0.7542 -0.5849  0.6420
  811MOL0     H 9461  12.744   7.148   8.977 -0.6484  1.4746  1.0331
  811MOL0     H 9462  12.724   7.291   8.893  1.1727  0.1361 -1.2259
  811MOL0     H 9463  12.951   7.109   8.847  0.9930  1.1783 -1.2531
  811MOL0     H 9464  12.925   7.244   8.737  0.4620  0.4556 -0.9873
  811MOL0     H 9465  11.845   6.971   8.590 -0.5561 -1.6582 -1.2102
  811MOL0     H 9466  11.603   7.001   8.496  0.2913  0.3660  0.7494
  811MOL0     H 9467  11.294   7.234   8.254  0.1167 -0.5832  0.7682
  811MOL0     H 9468  11.068   7.205   8.200  0.4230 -1.5383  2.7814
  811MOL0     H 9469  11.014   8.233   8.789  0.1004 -1.1634 -1.1010
  811MOL0     H 9470  11.168   8.200   8.995 -0.5926 -1.1766 -1.1863
  811MOL0     H 9471  11.337   8.112   9.327 -0.1936 -1.2337 -0.6823
  811MOL0     H 9472  11.509   8.093   9.508 -0.6364 -3.2756  0.9326
  811MOL0     H 9473  11.387   8.099   9.946  0.2977 -0.0532  1.1257
  811MOL0     H 9474  11.381   8.259   9.894 -2.3827 -1.5562  2.3995
  811MOL0     H 9475  11.528   8.215  10.070  1.2896  1.2261  1.1280
  811MOL0     H 9476  11.618   8.284   9.929  1.5060 -2.7691 -5.5719
  811MOL0     H 9477  11.698   8.069   9.857 -0.0218 -1.5708 -0.4237
  811MOL0     H 9478  11.610   7.973   9.974 -0.8857 -0.0605  0.4899
  811MOL0     H 9479  11.752   8.068  10.153  0.0369 -5.3387 -1.0482
  811MOL0     H 9480  11.856   8.019  10.020  0.3858  0.8419  0.1518
  811MOL0     H 9481  11.959   8.424  10.078 -1.2521  0.0395  3.1419
  811MOL0     H 9482  11.209   8.138   9.806 -2.4448 -0.9645 -0.2171
  811MOL0     H 9483  10.981   8.129   9.749  0.4894 -1.5479 -0.8926
  811MOL0     H 9484  10.985   8.286   9.649  0.0662  0.6059 -0.9056
  811MOL0     H 9485  10.937   8.124   9.585  1.1665  3.0281 -3.0778
  812MOL0     O 9486   7.531   6.689   5.409  0.4794 -0.6699 -0.3864
  812MOL0     C 9487   7.527   6.735   5.293  0.0682 -0.4047 -0.4960
  812MOL0     O 9488   7.629   6.813   5.236  0.9136 -0.1251 -0.1875
  812MOL0     C 9489   7.745   6.850   5.295  0.1123  0.7122 -0.5043
  812MOL0     C 9490   7.755   6.939   5.399  0.2783  0.0349 -0.4574
  812MOL0     C 9491   7.881   6.967   5.448 -0.0030 -0.2786  0.2419
  812MOL0     C 9492   7.999   6.908   5.391  0.7787  0.2256  0.5543
  812MOL0     O 9493   8.118   6.968   5.419 -0.4528  0.6513 -0.5435
  812MOL0     C 9494   8.179   6.923   5.539  0.0726 -0.1609 -0.1065
  812MOL0     C 9495   8.335   6.920   5.532  0.0385 -0.2423  0.3331
  812MOL0     C 9496   8.425   7.048   5.523  0.1224  0.2062  1.0703
  812MOL0     C 9497   8.563   7.033   5.571  0.4212 -0.3217  0.2192
  812MOL0     C 9498   8.646   7.149   5.515 -0.8279  0.6949 -0.3312
  812MOL0     C 9499   8.780   7.172   5.592 -0.6367  0.1846 -0.0826
  812MOL0     C 9500   8.876   7.055   5.589 -0.5385  0.4826  0.4419
  812MOL0     C 9501   8.968   7.035   5.471 -0.0685  0.4372  0.1057
  812MOL0     N 9502   9.056   7.139   5.437 -0.1564  0.2541 -0.2916
  812MOL0     C 9503   9.063   7.212   5.319 -0.4825 -1.4666 -0.2922
  812MOL0     C 9504   9.191   7.265   5.325  0.7104  0.1063  0.2585
  812MOL0     C 9505   9.231   7.358   5.215  0.7987  0.1413 -0.8089
  812MOL0     C 9506   9.166   7.495   5.240 -0.0913  0.0135  0.0157
  812MOL0     C 9507   9.177   7.580   5.112  0.7633  0.5640  0.5186
  812MOL0     C 9508   9.118   7.715   5.149  0.7889  0.5548 -0.8342
  812MOL0     O 9509   9.105   7.783   5.028  0.5759 -1.0378  0.2902
  812MOL0     C 9510   9.196   7.874   4.988 -0.0772 -0.2823  0.5637
  812MOL0     C 9511   9.161   7.952   4.877 -0.0903  0.5612 -0.3298
  812MOL0     C 9512   9.249   8.051   4.835 -0.2798  0.1676 -0.1410
  812MOL0     C 9513   9.377   8.068   4.892  0.2443  0.3712 -0.0652
  812MOL0     C 9514   9.474   8.177   4.850  0.4568 -0.0569 -0.5030
  812MOL0     O 9515   9.423   8.285   4.775 -0.4592  0.3328 -0.7368
  812MOL0     C 9516   9.509   8.381   4.723 -0.3070  0.2511  0.7590
  812MOL0     C 9517   9.549   8.368   4.592 -1.0597  0.0273 -0.1055
  812MOL0     C 9518   9.631   8.470   4.537  0.4152  0.0027 -0.0382
  812MOL0     C 9519   9.684   8.572   4.612  0.9876 -0.9545 -0.2433
  812MOL0     O 9520   9.760   8.678   4.575 -0.5603 -0.1220 -0.1060
  812MOL0     C 9521   9.788   8.675   4.440  0.9408 -0.9051 -0.3004
  812MOL0     C 9522   9.838   8.814   4.398  0.9232  0.2151  0.1300
  812MOL0     C 9523   9.836   8.836   4.246  0.7231 -0.7032  0.4546
  812MOL0     C 9524   9.901   8.970   4.216  0.2507 -0.2175  0.0492
  812MOL0     C 9525   9.907   8.993   4.066 -0.8943 -0.1858 -0.1822
  812MOL0     C 9526  10.006   9.102   4.016 -0.7553 -0.2570 -0.2129
  812MOL0     C 9527  10.156   9.075   4.051  0.3107 -0.2698 -0.2873
  812MOL0     C 9528  10.254   9.186   3.996  0.4594  0.0151 -0.1719
  812MOL0    Cl 9529  10.241   9.213   3.819 -0.0348 -0.1729  0.1899
  812MOL0     C 9530   9.637   8.594   4.743  0.7716  0.5189  0.3039
  812MOL0     C 9531   9.554   8.492   4.800 -0.7832 -1.3441  0.6157
  812MOL0     O 9532   9.584   8.175   4.894 -0.1636  0.5317 -0.6816
  812MOL0     C 9533   9.411   7.976   4.995  0.5153 -0.7274  0.2874
  812MOL0     C 9534   9.325   7.875   5.028 -0.1701  0.3451 -0.6646
  812MOL0     N 9535   9.255   7.243   5.450  0.5297  0.1072 -0.4064
  812MOL0     N 9536   9.162   7.178   5.519 -0.0038 -0.7596 -0.0197
  812MOL0     C 9537   7.982   6.824   5.279 -0.3553  0.6398  0.1335
  812MOL0     C 9538   7.852   6.791   5.234 -0.4625  0.8514 -0.1909
  812MOL0     C 9539   7.409   6.739   5.206  0.2409  0.5979  0.5198
  812MOL0     C 9540   7.440   6.728   5.067  0.2434  0.6018 -0.3454
  812MOL0     C 9541   7.335   6.717   4.974  0.6489 -0.3255 -0.7415
  812MOL0     C 9542   7.203   6.724   5.012  0.6762 -0.2539  0.6632
  812MOL0     O 9543   7.093   6.724   4.926 -0.0176  0.0361  0.4754
  812MOL0     C 9544   7.119   6.779   4.794  0.6774 -0.7077  0.5912
  812MOL0     C 9545   6.987   6.800   4.707 -0.2527 -0.2809  0.3575
  812MOL0     C 9546   7.019   6.898   4.599 -0.1389 -0.4709  0.0798
  812MOL0     C 9547   6.899   6.908   4.495 -0.7323 -0.1063  0.5894
  812MOL0     C 9548   6.952   6.983   4.380  0.1693 -0.7953 -0.2741
  812MOL0     C 9549   6.976   7.053   4.289 -1.1309  1.0622 -0.0594
  812MOL0     C 9550   7.170   6.738   5.146  0.2098  0.9219  1.1426
  812MOL0     C 9551   7.269   6.741   5.246 -0.8211 -0.2013 -0.6122
  812MOL0     C 9552   7.217   6.757   5.387 -0.1606 -0.2508 -0.4202
  812MOL0     H 9553   7.673   7.002   5.432  0.8424 -0.0101  1.1033
  812MOL0     H 9554   7.894   7.031   5.535  4.8272  0.5265 -0.7720
  812MOL0     H 9555   8.141   6.983   5.622 -4.4293 -1.0108 -1.3203
  812MOL0     H 9556   8.141   6.822   5.559  1.0111 -0.5846 -0.3956
  812MOL0     H 9557   8.367   6.862   5.445  0.3969  0.5448 -0.0601
  812MOL0     H 9558   8.381   6.875   5.620  2.5769 -0.0585 -0.8192
  812MOL0     H 9559   8.373   7.124   5.583 -0.9655 -0.8453  1.5097
  812MOL0     H 9560   8.416   7.088   5.422  0.1521  0.1597  1.0499
  812MOL0     H 9561   8.566   7.037   5.681  2.9962 -1.7668  0.2873
  812MOL0     H 9562   8.603   6.935   5.543  1.4352 -0.0292  0.6076
  812MOL0     H 9563   8.656   7.127   5.409 -0.3729  0.7115 -0.2936
  812MOL0     H 9564   8.594   7.245   5.529 -1.4641  0.1390  1.3749
  812MOL0     H 9565   8.824   7.258   5.541  0.9622 -0.6299 -0.1349
  812MOL0     H 9566   8.756   7.198   5.696  0.8834  0.9805  0.0979
  812MOL0     H 9567   8.826   6.959   5.608  0.9751  0.1135  3.0025
  812MOL0     H 9568   8.936   7.063   5.680 -1.6312 -0.3187  1.2665
  812MOL0     H 9569   9.018   6.942   5.499 -3.8625 -2.3534 -1.6320
  812MOL0     H 9570   8.904   7.016   5.385 -0.5391  1.7369  0.1351
  812MOL0     H 9571   8.991   7.220   5.239 -0.0946  0.3758 -0.5076
  812MOL0     H 9572   9.340   7.370   5.220  1.3033 -3.6233  1.3339
  812MOL0     H 9573   9.197   7.315   5.121 -2.6696  1.7827 -0.4353
  812MOL0     H 9574   9.059   7.486   5.257  0.2135 -0.4983  1.9862
  812MOL0     H 9575   9.213   7.550   5.322 -2.0547  0.3088  1.0019
  812MOL0     H 9576   9.129   7.524   5.031  2.0860  3.9238 -2.8944
  812MOL0     H 9577   9.283   7.580   5.088  0.7729  0.3020  0.5568
  812MOL0     H 9578   9.187   7.755   5.223  0.0599 -1.2895  0.9438
  812MOL0     H 9579   9.017   7.704   5.189  0.4900  0.8847 -1.4760
  812MOL0     H 9580   9.057   7.953   4.844 -0.7771 -1.4345  1.5047
  812MOL0     H 9581   9.227   8.100   4.741 -1.1494  0.3131  0.1291
  812MOL0     H 9582   9.502   8.291   4.532 -3.3341  1.2559  0.0028
  812MOL0     H 9583   9.667   8.464   4.434 -1.7420  2.5144 -1.0373
  812MOL0     H 9584   9.870   8.609   4.408  1.7781  0.5034 -1.1742
  812MOL0     H 9585   9.699   8.661   4.378 -1.3193 -1.6467  2.9030
  812MOL0     H 9586   9.776   8.884   4.456  0.7258 -1.9540  2.7239
  812MOL0     H 9587   9.941   8.829   4.431  1.1811  0.7407 -0.8800
  812MOL0     H 9588   9.889   8.755   4.193 -0.9861 -0.4528 -1.7746
  812MOL0     H 9589   9.732   8.830   4.211  0.6086  3.1079 -0.2682
  812MOL0     H 9590   9.999   8.973   4.264  1.0176  0.4166 -1.4960
  812MOL0     H 9591   9.849   9.053   4.266  2.7821 -0.0716  2.7036
  812MOL0     H 9592   9.805   9.024   4.046 -2.0508 -1.6271  2.8191
  812MOL0     H 9593   9.923   8.899   4.012  0.3003  1.1427 -2.2745
  812MOL0     H 9594  10.000   9.112   3.908  0.5943 -1.7950 -0.4790
  812MOL0     H 9595   9.980   9.198   4.062 -0.0240 -0.6268  1.0414
  812MOL0     H 9596  10.191   8.979   4.011  3.8846  1.0695 -0.8022
  812MOL0     H 9597  10.179   9.067   4.158  3.2420  0.4034 -0.7802
  812MOL0     H 9598  10.222   9.280   4.040 -4.6238 -2.2430  1.7382
  812MOL0     H 9599  10.353   9.158   4.035  1.8574  1.6122 -2.3320
  812MOL0     H 9600   9.662   8.681   4.803 -1.8926  0.6731  1.3290
  812MOL0     H 9601   9.516   8.497   4.902  1.3157 -1.8273  1.4955
  812MOL0     H 9602   9.499   7.996   5.055 -1.5455 -0.7074  3.4836
  812MOL0     H 9603   9.350   7.818   5.117 -2.3863  1.2151  0.6082
  812MOL0     H 9604   8.072   6.769   5.253 -1.5509 -2.4709  1.9132
  812MOL0     H 9605   7.845   6.721   5.151 -1.9066  0.1820  0.4688
  812MOL0     H 9606   7.543   6.731   5.033  0.3214  2.0128 -0.0486
  812MOL0     H 9607   7.355   6.726   4.868  0.0418  3.5449 -0.6675
  812MOL0     H 9608   7.191   6.730   4.727 -0.4625 -0.8854 -0.5372
  812MOL0     H 9609   7.165   6.877   4.808  4.2661 -1.6219 -3.0043
  812MOL0     H 9610   6.901   6.832   4.767  1.4913  1.1418  2.2434
  812MOL0     H 9611   6.965   6.702   4.663  1.2172 -0.7032  0.4978
  812MOL0     H 9612   7.118   6.874   4.559  0.7186  1.2597  1.0483
  812MOL0     H 9613   7.029   6.995   4.647  0.3669  1.1507 -3.0714
  812MOL0     H 9614   6.859   6.812   4.459 -2.1102  0.0336  1.6703
  812MOL0     H 9615   6.815   6.956   4.545 -2.7532 -2.0819 -0.7141
  812MOL0     H 9616   7.009   7.098   4.197 -0.8844 -2.0694 -1.6338
  812MOL0     H 9617   7.066   6.749   5.175  0.3867  0.8766  1.7996
  812MOL0     H 9618   7.272   6.682   5.445  0.8190 -0.3940 -1.4922
  812MOL0     H 9619   7.245   6.856   5.424 -0.0718 -0.5524  0.3386
  812MOL0     H 9620   7.109   6.744   5.400  0.2207 -1.9712  1.6626
  813MOL0     O 9621   9.534   7.571   8.795 -0.4629  0.2533  0.0197
  813MOL0     C 9622   9.466   7.578   8.896 -0.1997 -0.9147 -0.5309
  813MOL0     O 9623   9.493   7.632   9.015  0.1911  0.3368 -0.4908
  813MOL0     C 9624   9.618   7.633   9.070  0.5587  0.5073  0.4253
  813MOL0     C 9625   9.736   7.669   8.999 -0.2628 -0.8781 -0.7123
  813MOL0     C 9626   9.853   7.692   9.071 -0.1741 -0.0898  0.0518
  813MOL0     C 9627   9.868   7.674   9.210 -0.3089 -0.8764 -0.3352
  813MOL0     O 9628   9.996   7.682   9.260  0.2351 -0.1412  0.2249
  813MOL0     C 9629  10.006   7.646   9.394 -0.2928  0.7088 -0.6246
  813MOL0     C 9630  10.158   7.623   9.414 -0.5123  0.5392  0.4999
  813MOL0     C 9631  10.204   7.487   9.354  0.3956  0.1229 -0.0014
  813MOL0     C 9632  10.319   7.433   9.442 -0.3169  0.1894  0.4187
  813MOL0     C 9633  10.446   7.502   9.414  0.0066 -0.4995 -0.4659
  813MOL0     C 9634  10.548   7.418   9.492 -0.3604  0.1821 -1.2366
  813MOL0     C 9635  10.676   7.495   9.465  0.6065  0.5577 -0.0721
  813MOL0     C 9636  10.800   7.412   9.507  0.6718 -0.6813  0.7913
  813MOL0     N 9637  10.796   7.357   9.639 -0.2784 -0.2459 -0.0283
  813MOL0     C 9638  10.772   7.432   9.749 -0.0849  0.1968  0.0679
  813MOL0     C 9639  10.816   7.347   9.851  0.1616 -0.2243  0.1120
  813MOL0     C 9640  10.830   7.383   9.997 -0.8647 -0.0157 -0.3499
  813MOL0     C 9641  10.737   7.500  10.046 -0.1240 -0.0518 -0.7034
  813MOL0     C 9642  10.721   7.511  10.194  0.0977  0.4036 -0.4300
  813MOL0     C 9643  10.847   7.531  10.272 -0.0287 -1.1057 -0.3140
  813MOL0     O 9644  10.905   7.655  10.260 -0.3197  0.2000  0.3968
  813MOL0     C 9645  11.029   7.680  10.304 -0.1122 -0.0398  1.1187
  813MOL0     C 9646  11.088   7.799  10.272 -0.2149 -0.6656 -0.1912
  813MOL0     C 9647  11.219   7.833  10.311  0.0497 -0.2548  0.1506
  813MOL0     C 9648  11.299   7.738  10.379  0.2718  0.1608  0.3403
  813MOL0     C 9649  11.430   7.789  10.433  0.7142 -0.5203  0.8671
  813MOL0     O 9650  11.465   7.912  10.394  0.0190  0.1434  0.1661
  813MOL0     C 9651  11.574   7.977  10.451 -0.4108  1.1064 -0.6527
  813MOL0     C 9652  11.652   7.931  10.556 -1.6695  0.1502  0.1593
  813MOL0     C 9653  11.768   8.009  10.594  0.7108 -0.5526 -1.3384
  813MOL0     C 9654  11.819   8.110  10.516  0.6635  0.8928 -0.0092
  813MOL0     O 9655  11.937   8.173  10.565 -0.4297  0.5394 -0.1998
  813MOL0     C 9656  12.031   8.249  10.494  0.6326 -0.6140  0.2852
  813MOL0     C 9657  12.136   8.143  10.461  0.8536 -0.0974  0.0019
  813MOL0     C 9658  12.262   8.210  10.403 -0.5996  0.6436  0.0381
  813MOL0     C 9659  12.322   8.142  10.284  0.2917 -0.2488  0.2663
  813MOL0     C 9660  12.425   8.243  10.215  0.7263  0.2250 -0.0636
  813MOL0     C 9661  12.549   8.297  10.303 -0.4553  0.6105  0.2463
  813MOL0     C 9662  12.661   8.359  10.221  1.2840  0.1630  0.2527
  813MOL0     C 9663  12.783   8.362  10.311  0.4014  0.5043 -0.2241
  813MOL0    Cl 9664  12.759   8.431  10.475  0.2160  0.3494 -0.3197
  813MOL0     C 9665  11.748   8.143  10.400  0.3516  0.2126 -0.1531
  813MOL0     C 9666  11.626   8.080  10.375  0.0168  0.0461 -0.0578
  813MOL0     O 9667  11.479   7.718  10.518  0.7347  1.1244  0.2935
  813MOL0     C 9668  11.243   7.612  10.415 -0.5834 -1.5045 -0.5148
  813MOL0     C 9669  11.109   7.586  10.370 -0.0307  0.2411 -0.6976
  813MOL0     N 9670  10.843   7.225   9.806  1.2785  0.2915  0.0053
  813MOL0     N 9671  10.840   7.228   9.673  0.0040 -0.4559 -0.2439
  813MOL0     C 9672   9.753   7.646   9.281  1.0519  0.1308  0.3717
  813MOL0     C 9673   9.628   7.633   9.210  1.0171 -0.6477 -0.0811
  813MOL0     C 9674   9.336   7.523   8.886 -0.6129 -0.3298  0.3362
  813MOL0     C 9675   9.237   7.609   8.858  1.0115  0.1432  0.2959
  813MOL0     C 9676   9.102   7.562   8.847  0.1300 -0.0495  0.4674
  813MOL0     C 9677   9.072   7.429   8.865  0.1956  0.1899  0.3609
  813MOL0     O 9678   8.939   7.401   8.863 -0.0281 -0.2248 -0.7729
  813MOL0     C 9679   8.899   7.270   8.879  0.2117  0.4699 -0.5475
  813MOL0     C 9680   8.759   7.274   8.940  0.3707 -0.3011  0.9989
  813MOL0     C 9681   8.707   7.151   9.000 -0.0759  0.6548  0.1705
  813MOL0     C 9682   8.787   7.023   8.946  0.1629 -0.0607 -0.9500
  813MOL0     C 9683   8.894   6.979   9.043 -0.8553  0.3324 -0.8378
  813MOL0     C 9684   8.980   6.928   9.126  0.4106 -0.3496  0.4822
  813MOL0     C 9685   9.181   7.340   8.901 -0.6254  0.1336  0.1608
  813MOL0     C 9686   9.310   7.389   8.911  0.2096 -0.2609 -0.5103
  813MOL0     C 9687   9.424   7.306   8.966 -0.6315 -0.3354 -0.5925
  813MOL0     H 9688   9.726   7.691   8.893 -0.3860  2.0736 -0.1736
  813MOL0     H 9689   9.947   7.699   9.018  0.4511  0.8119  1.2307
  813MOL0     H 9690   9.976   7.734   9.451 -2.5204 -0.5602  0.2702
  813MOL0     H 9691   9.947   7.562   9.430 -1.0835  1.9874  1.2589
  813MOL0     H 9692  10.190   7.634   9.518  0.9105  0.3359  0.0984
  813MOL0     H 9693  10.219   7.697   9.361  3.0683 -0.0046  3.4616
  813MOL0     H 9694  10.227   7.509   9.249  1.1368  2.0126  0.5041
  813MOL0     H 9695  10.121   7.417   9.348 -1.5461  2.3810 -1.0796
  813MOL0     H 9696  10.306   7.448   9.550  1.5702  3.3189  0.3317
  813MOL0     H 9697  10.326   7.324   9.433  0.1330  0.1554  1.0904
  813MOL0     H 9698  10.474   7.507   9.308  0.3923  0.0664 -0.3441
  813MOL0     H 9699  10.436   7.606   9.449  1.9981 -1.1110  2.2507
  813MOL0     H 9700  10.521   7.416   9.598  2.3574 -2.3669 -0.4509
  813MOL0     H 9701  10.560   7.311   9.473  0.0476  0.1002 -0.5698
  813MOL0     H 9702  10.671   7.584   9.529 -1.1571  0.5465 -0.1407
  813MOL0     H 9703  10.686   7.522   9.360  2.2137  2.6845  0.5380
  813MOL0     H 9704  10.806   7.334   9.431 -0.4636 -1.8874  1.8843
  813MOL0     H 9705  10.896   7.461   9.488  0.8385 -0.8200  1.2483
  813MOL0     H 9706  10.719   7.525   9.758  0.4920  0.7001 -1.4000
  813MOL0     H 9707  10.823   7.290  10.055  1.5613 -3.2017 -4.6253
  813MOL0     H 9708  10.931   7.421  10.012  0.3679 -3.8081  2.4606
  813MOL0     H 9709  10.779   7.589   9.997 -0.9862  0.0313 -1.3139
  813MOL0     H 9710  10.639   7.482   9.999  0.7512 -0.9137 -2.3140
  813MOL0     H 9711  10.665   7.425  10.231 -2.4724  1.5612 -1.3983
  813MOL0     H 9712  10.660   7.600  10.212  0.7047  0.7794 -0.2153
  813MOL0     H 9713  10.920   7.452  10.252  0.0389 -0.6540 -2.0363
  813MOL0     H 9714  10.818   7.534  10.377 -0.4136 -0.4141 -0.4326
  813MOL0     H 9715  11.029   7.873  10.219 -0.6661  0.6781  2.0462
  813MOL0     H 9716  11.263   7.928  10.282  1.6626 -1.9387 -3.5816
  813MOL0     H 9717  11.618   7.845  10.614 -1.8171  0.4685  0.5471
  813MOL0     H 9718  11.820   7.995  10.688 -0.5439  2.1878 -0.1545
  813MOL0     H 9719  12.003   8.314  10.411  0.5049  0.4542  1.1368
  813MOL0     H 9720  12.059   8.318  10.574  0.4937  0.1917 -0.3544
  813MOL0     H 9721  12.146   8.067  10.539 -0.5290 -3.7613 -3.1122
  813MOL0     H 9722  12.094   8.079  10.383  1.0212 -0.0845 -0.0977
  813MOL0     H 9723  12.236   8.315  10.391 -2.6422  0.3178  1.1526
  813MOL0     H 9724  12.337   8.209  10.483 -0.9481 -2.1804  0.4262
  813MOL0     H 9725  12.239   8.120  10.216 -1.4214 -0.0679  2.1974
  813MOL0     H 9726  12.374   8.058  10.329  0.6940  0.2443  0.7314
  813MOL0     H 9727  12.368   8.330  10.183  0.7905  0.8297  1.3782
  813MOL0     H 9728  12.465   8.202  10.122  2.7881 -1.0328  1.2763
  813MOL0     H 9729  12.517   8.360  10.386 -0.6117 -0.0575  0.7022
  813MOL0     H 9730  12.578   8.202  10.350  1.9303  0.3507 -1.5538
  813MOL0     H 9731  12.624   8.459  10.196  1.2628  0.2245  0.5260
  813MOL0     H 9732  12.679   8.300  10.130  0.1175 -0.3945  0.3637
  813MOL0     H 9733  12.820   8.259  10.320 -1.4728 -0.0873  1.5797
  813MOL0     H 9734  12.863   8.428  10.277  0.0593  2.5635  2.5525
  813MOL0     H 9735  11.784   8.218  10.330  1.2643 -0.9177 -0.9397
  813MOL0     H 9736  11.576   8.119  10.286  1.1765  0.0937 -0.6989
  813MOL0     H 9737  11.297   7.556  10.491 -1.7660 -0.8000  0.9206
  813MOL0     H 9738  11.075   7.488  10.402 -1.0268  0.6979 -0.3299
  813MOL0     H 9739   9.738   7.640   9.389  1.1559  0.3056  0.3964
  813MOL0     H 9740   9.538   7.646   9.269 -0.8754 -0.9858 -2.7310
  813MOL0     H 9741   9.251   7.716   8.847  0.3937  0.3285  1.2128
  813MOL0     H 9742   9.034   7.644   8.823 -1.3576 -0.8931  1.5796
  813MOL0     H 9743   8.959   7.216   8.953 -2.0790 -0.1845  0.9100
  813MOL0     H 9744   8.894   7.221   8.781 -5.4589 -2.3739  0.7996
  813MOL0     H 9745   8.688   7.313   8.866  0.2794  2.2637  2.2954
  813MOL0     H 9746   8.751   7.353   9.016 -5.7183  0.1900  0.3429
  813MOL0     H 9747   8.602   7.135   8.975  0.1061 -0.4695  0.0589
  813MOL0     H 9748   8.725   7.159   9.108 -1.9245 -1.4855  0.7222
  813MOL0     H 9749   8.725   6.934   8.960  1.1005 -0.5927 -0.1072
  813MOL0     H 9750   8.812   7.026   8.839  2.5803 -1.3299 -0.4799
  813MOL0     H 9751   9.054   6.876   9.184 -0.2648 -0.9432  0.8411
  813MOL0     H 9752   9.164   7.237   8.929  2.1611 -0.7630 -1.0396
  813MOL0     H 9753   9.402   7.200   8.947 -2.4985 -0.3537  1.2852
  813MOL0     H 9754   9.524   7.330   8.930  0.7989 -3.9154  0.4764
  813MOL0     H 9755   9.421   7.330   9.073  0.9073 -0.2570 -0.5355
  814MOL0     O 9756   7.124   8.883   1.645 -0.2165 -0.8090 -0.1798
  814MOL0     C 9757   7.130   8.991   1.593 -0.1884 -0.8502  1.1661
  814MOL0     O 9758   7.025   9.061   1.549 -0.2764  0.6735 -0.2703
  814MOL0     C 9759   6.895   9.045   1.608  0.4511 -0.6853  0.0629
  814MOL0     C 9760   6.887   9.014   1.741 -0.0373 -0.1945 -0.8364
  814MOL0     C 9761   6.764   8.994   1.797  0.6930  0.3716  0.3106
  814MOL0     C 9762   6.647   8.999   1.721 -0.1127  0.0709 -0.0181
  814MOL0     O 9763   6.518   8.979   1.762  0.1731 -0.4272 -0.3729
  814MOL0     C 9764   6.490   8.897   1.877  0.2063  0.5693 -0.3678
  814MOL0     C 9765   6.467   8.760   1.838 -0.3727  1.4599  0.0755
  814MOL0     C 9766   6.592   8.692   1.780  0.7385  1.4924 -0.2462
  814MOL0     C 9767   6.563   8.532   1.781 -0.0696  0.4615 -0.9281
  814MOL0     C 9768   6.671   8.464   1.713  1.1353  0.5500 -0.1876
  814MOL0     C 9769   6.814   8.451   1.787  0.2236  0.4246  0.5764
  814MOL0     C 9770   6.916   8.383   1.691 -0.6203 -0.4833 -0.0742
  814MOL0     C 9771   7.057   8.413   1.736 -0.0283 -0.3568 -0.0680
  814MOL0     N 9772   7.105   8.346   1.858  0.7045  0.5470  0.7242
  814MOL0     C 9773   7.102   8.387   1.990 -0.7763  0.3628  0.2262
  814MOL0     C 9774   7.142   8.278   2.060 -0.6727  0.6066 -0.2070
  814MOL0     C 9775   7.168   8.269   2.210  0.2345 -0.1218  0.1865
  814MOL0     C 9776   7.260   8.389   2.253  0.4316 -0.4397 -0.1312
  814MOL0     C 9777   7.191   8.462   2.376  0.2772 -0.1429  0.4141
  814MOL0     C 9778   7.145   8.378   2.492 -0.0360 -0.2232  0.2457
  814MOL0     O 9779   7.252   8.312   2.559 -0.4063 -0.2463  0.2383
  814MOL0     C 9780   7.218   8.206   2.636  0.3276 -0.9363 -0.5729
  814MOL0     C 9781   7.112   8.205   2.727 -0.6713 -0.0443  0.2599
  814MOL0     C 9782   7.093   8.094   2.817  0.6275  0.7243  0.4588
  814MOL0     C 9783   7.165   7.973   2.792  0.8469 -0.2406  0.1131
  814MOL0     C 9784   7.143   7.851   2.870 -0.5593 -0.2758  0.4548
  814MOL0     O 9785   7.176   7.739   2.801 -0.2386  0.4314 -0.2982
  814MOL0     C 9786   7.163   7.612   2.851 -0.0632  0.8166  0.1004
  814MOL0     C 9787   7.040   7.567   2.903 -0.1975 -0.1392  0.2047
  814MOL0     C 9788   7.033   7.443   2.962  0.4909 -0.6147 -0.1880
  814MOL0     C 9789   7.142   7.357   2.968  0.2513  1.0413  1.3314
  814MOL0     O 9790   7.146   7.241   3.033  0.6072  0.4552 -0.8918
  814MOL0     C 9791   7.022   7.168   3.042  0.1335 -0.4325  0.4775
  814MOL0     C 9792   7.014   7.063   3.143  0.7314 -0.0923 -1.0340
  814MOL0     C 9793   7.130   6.971   3.126 -0.3296 -0.6787  0.7198
  814MOL0     C 9794   7.131   6.856   3.225 -0.0543 -0.0503 -0.8586
  814MOL0     C 9795   7.242   6.765   3.194 -0.9728 -0.5112 -0.2310
  814MOL0     C 9796   7.255   6.669   3.305 -0.1017 -0.5975 -1.3311
  814MOL0     C 9797   7.383   6.587   3.287 -0.6967  1.0709 -0.4772
  814MOL0     C 9798   7.418   6.525   3.424  0.3875 -0.4712  0.4891
  814MOL0    Cl 9799   7.298   6.407   3.476  0.2230  0.4857 -0.1109
  814MOL0     C 9800   7.257   7.407   2.912 -0.1568  0.6248  0.5933
  814MOL0     C 9801   7.267   7.530   2.847 -0.6829  0.7519 -0.4176
  814MOL0     O 9802   7.092   7.850   2.980  0.2395 -0.3347  0.0958
  814MOL0     C 9803   7.278   7.977   2.705  0.1688  0.4674  0.4861
  814MOL0     C 9804   7.301   8.095   2.631 -0.1866  0.2954 -0.2392
  814MOL0     N 9805   7.172   8.173   1.971 -0.2693  0.5469 -0.5901
  814MOL0     N 9806   7.148   8.222   1.851  0.0877  0.2741 -0.0205
  814MOL0     C 9807   6.658   9.023   1.584 -0.1019  0.3897  0.6098
  814MOL0     C 9808   6.779   9.052   1.527  0.1819  0.4872 -0.8630
  814MOL0     C 9809   7.265   9.045   1.571 -0.0780 -1.4821  0.4629
  814MOL0     C 9810   7.272   9.191   1.583  0.2187  0.5737  0.2006
  814MOL0     C 9811   7.392   9.262   1.564 -0.9334 -0.9726 -1.7048
  814MOL0     C 9812   7.516   9.198   1.544 -0.1032  1.2560  1.2164
  814MOL0     O 9813   7.635   9.260   1.523  0.2036 -0.5648  0.6145
  814MOL0     C 9814   7.648   9.407   1.545  0.3471 -0.9168 -0.6116
  814MOL0     C 9815   7.793   9.446   1.528 -0.9426  0.2910  0.2591
  814MOL0     C 9816   7.890   9.381   1.623 -0.0698  0.5864  0.5052
  814MOL0     C 9817   7.863   9.418   1.772  0.0428 -0.2116 -0.0815
  814MOL0     C 9818   7.860   9.566   1.789  0.0590 -0.0427 -0.7422
  814MOL0     C 9819   7.851   9.684   1.799  0.6462 -1.1116  0.2819
  814MOL0     C 9820   7.511   9.060   1.548 -0.1114 -0.3355  0.4222
  814MOL0     C 9821   7.394   8.981   1.557  0.0197  0.2476 -0.3403
  814MOL0     C 9822   7.396   8.829   1.557 -1.6825  0.5203 -0.9634
  814MOL0     H 9823   6.981   8.997   1.793  1.1985  1.9499 -2.2318
  814MOL0     H 9824   6.768   8.994   1.906  0.0649  0.9407  0.3381
  814MOL0     H 9825   6.567   8.914   1.952 -1.3382 -2.3911  2.0890
  814MOL0     H 9826   6.391   8.930   1.910  0.2318 -0.7016  1.0754
  814MOL0     H 9827   6.401   8.751   1.751  0.5597 -0.6995 -0.4844
  814MOL0     H 9828   6.421   8.700   1.918 -0.8353  0.0736 -1.1796
  814MOL0     H 9829   6.667   8.717   1.856 -0.2551  2.0452  0.5646
  814MOL0     H 9830   6.626   8.728   1.682 -0.2431 -0.3920 -1.3454
  814MOL0     H 9831   6.558   8.486   1.880  0.0455 -1.3239 -1.6945
  814MOL0     H 9832   6.478   8.498   1.719  0.1060 -1.0239 -0.4014
  814MOL0     H 9833   6.638   8.360   1.700  0.0619  0.7540  0.7419
  814MOL0     H 9834   6.681   8.518   1.618 -1.6318  1.2242 -0.1695
  814MOL0     H 9835   6.847   8.549   1.821  2.7801 -0.4501  0.8575
  814MOL0     H 9836   6.798   8.400   1.882 -0.6328  1.4120  0.9832
  814MOL0     H 9837   6.909   8.409   1.585  0.2932 -0.5330 -0.1519
  814MOL0     H 9838   6.902   8.274   1.688 -1.8015 -0.3805  1.0404
  814MOL0     H 9839   7.125   8.399   1.651 -2.5577 -0.4124 -2.2135
  814MOL0     H 9840   7.060   8.522   1.746 -0.8483 -0.4015  0.7794
  814MOL0     H 9841   7.071   8.483   2.030  1.5487  0.9962  0.6673
  814MOL0     H 9842   7.074   8.271   2.266 -0.5538 -0.9495 -1.0589
  814MOL0     H 9843   7.209   8.170   2.232  0.9212  0.5131  1.9383
  814MOL0     H 9844   7.355   8.345   2.285  1.6668 -0.9148 -4.0380
  814MOL0     H 9845   7.285   8.464   2.178 -0.1742 -1.3858 -1.3151
  814MOL0     H 9846   7.114   8.518   2.322  0.8279 -1.2492 -1.6467
  814MOL0     H 9847   7.265   8.533   2.414 -1.1070  0.2924  2.4537
  814MOL0     H 9848   7.060   8.317   2.460 -0.4746  1.1165 -1.3113
  814MOL0     H 9849   7.103   8.443   2.570  0.7985 -0.0377  0.5481
  814MOL0     H 9850   7.062   8.300   2.743 -0.9889 -0.1830  0.1022
  814MOL0     H 9851   7.013   8.097   2.890 -0.6719 -3.3211 -0.5005
  814MOL0     H 9852   6.954   7.632   2.894 -0.5080 -0.6054 -0.2520
  814MOL0     H 9853   6.936   7.427   3.008 -0.1030  1.1953 -0.7462
  814MOL0     H 9854   6.937   7.236   3.055  0.8685  0.3437  1.4070
  814MOL0     H 9855   7.010   7.112   2.949 -0.5825 -1.2387  1.0420
  814MOL0     H 9856   7.008   7.101   3.246 -2.5482 -1.4987 -0.5858
  814MOL0     H 9857   6.923   7.006   3.122 -0.3156  0.5775  1.3241
  814MOL0     H 9858   7.136   6.928   3.026 -2.6497 -0.5292  0.4722
  814MOL0     H 9859   7.220   7.033   3.141  0.5132 -1.6988 -0.0118
  814MOL0     H 9860   7.038   6.799   3.230  0.3521 -0.6475  0.2966
  814MOL0     H 9861   7.153   6.892   3.326  1.5151 -1.9093 -0.4736
  814MOL0     H 9862   7.331   6.827   3.180 -1.4298 -0.3663 -2.9711
  814MOL0     H 9863   7.225   6.717   3.098  2.2103 -1.0726 -0.6172
  814MOL0     H 9864   7.256   6.719   3.403 -0.0209 -2.3211 -0.4065
  814MOL0     H 9865   7.167   6.605   3.317 -0.1618 -0.3086 -0.0929
  814MOL0     H 9866   7.474   6.638   3.254 -0.6709  0.5039 -1.3254
  814MOL0     H 9867   7.376   6.509   3.211 -3.9282 -0.0540  0.7948
  814MOL0     H 9868   7.521   6.490   3.429  0.8395  0.9208  1.5325
  814MOL0     H 9869   7.417   6.614   3.487 -2.4752 -0.3498  0.4274
  814MOL0     H 9870   7.344   7.345   2.929 -0.0598  0.4845 -0.3678
  814MOL0     H 9871   7.368   7.555   2.816 -0.2659  2.0898  1.7569
  814MOL0     H 9872   7.348   7.900   2.675  1.1412  1.5749 -0.1630
  814MOL0     H 9873   7.390   8.104   2.569 -1.3839  1.8649 -1.8315
  814MOL0     H 9874   6.566   9.042   1.529 -1.1744  0.6724  2.4086
  814MOL0     H 9875   6.790   9.075   1.421  2.0398 -0.9102 -1.0133
  814MOL0     H 9876   7.186   9.255   1.599 -0.3095 -0.0909  0.0225
  814MOL0     H 9877   7.383   9.370   1.560 -1.5281 -0.8890  0.4949
  814MOL0     H 9878   7.627   9.438   1.648 -2.0830  0.5121 -1.4727
  814MOL0     H 9879   7.581   9.459   1.475 -0.8819 -0.6148  0.7436
  814MOL0     H 9880   7.817   9.552   1.519  0.0305 -0.0833 -2.3914
  814MOL0     H 9881   7.823   9.403   1.432  0.1155 -1.9785  1.5156
  814MOL0     H 9882   7.992   9.402   1.592  0.4245  2.5805  3.1461
  814MOL0     H 9883   7.892   9.272   1.618 -0.1387  0.5978  0.2202
  814MOL0     H 9884   7.768   9.372   1.802 -0.3746 -0.8435 -2.2006
  814MOL0     H 9885   7.941   9.372   1.833 -0.8694 -1.4772  0.1823
  814MOL0     H 9886   7.823   9.788   1.800  0.4939 -1.1290 -0.7662
  814MOL0     H 9887   7.606   9.009   1.539  0.4704  0.4127  1.9246
  814MOL0     H 9888   7.495   8.795   1.525  1.2370  2.1755  4.8581
  814MOL0     H 9889   7.381   8.785   1.656 -3.8743 -0.2751 -1.5884
  814MOL0     H 9890   7.318   8.789   1.492 -1.0819 -0.6611 -1.0041
  815MOL0     O 9891   6.585   8.436   7.955 -0.2411  0.4352 -0.3225
  815MOL0     C 9892   6.702   8.417   7.911  0.5888  0.6170  0.3254
  815MOL0     O 9893   6.796   8.516   7.899  0.4284  0.7524 -0.1519
  815MOL0     C 9894   6.751   8.640   7.937  0.0582 -0.3277  0.1580
  815MOL0     C 9895   6.710   8.714   7.827 -1.0747  0.1271 -0.2052
  815MOL0     C 9896   6.651   8.839   7.848  0.1188  0.1580 -0.5736
  815MOL0     C 9897   6.638   8.889   7.979 -0.5537  0.7869 -0.2376
  815MOL0     O 9898   6.570   9.005   8.021 -0.5088  0.3112 -0.2801
  815MOL0     C 9899   6.540   9.102   7.926  0.0902  0.4639  0.3583
  815MOL0     C 9900   6.659   9.194   7.890  0.1872 -0.0130  0.6960
  815MOL0     C 9901   6.741   9.252   8.002  1.3755 -0.3751 -0.9659
  815MOL0     C 9902   6.849   9.349   7.952 -0.0039  0.6912 -0.7182
  815MOL0     C 9903   6.961   9.397   8.053 -0.2468  0.6779 -0.4005
  815MOL0     C 9904   7.060   9.290   8.092 -0.6137 -0.6742  0.9313
  815MOL0     C 9905   7.161   9.352   8.195  0.4964 -0.3506  0.4761
  815MOL0     C 9906   7.307   9.318   8.170 -0.8100 -0.4406  0.5890
  815MOL0     N 9907   7.387   9.352   8.303 -0.0384 -0.3848 -0.3691
  815MOL0     C 9908   7.391   9.282   8.419  0.4232  0.4568  0.2073
  815MOL0     C 9909   7.477   9.357   8.495  0.7542  0.0102  1.1754
  815MOL0     C 9910   7.532   9.309   8.630  0.1501  0.4384 -0.3303
  815MOL0     C 9911   7.619   9.418   8.696  0.8834 -0.1039  0.4297
  815MOL0     C 9912   7.634   9.397   8.847 -0.4107  0.0730  0.4289
  815MOL0     C 9913   7.744   9.303   8.874 -0.2396  0.3971 -0.3759
  815MOL0     O 9914   7.743   9.267   9.011  1.3330 -0.0338 -0.3171
  815MOL0     C 9915   7.869   9.291   9.059 -0.4829 -0.3096 -0.0318
  815MOL0     C 9916   7.962   9.185   9.084  0.6913 -0.1668 -0.1634
  815MOL0     C 9917   8.089   9.207   9.140  0.3432 -0.5211  0.6359
  815MOL0     C 9918   8.130   9.343   9.167 -0.2837 -0.5850 -0.9577
  815MOL0     C 9919   8.255   9.380   9.239 -0.3854  0.0926  1.0852
  815MOL0     O 9920   8.338   9.273   9.271  0.3140 -0.1460 -0.7612
  815MOL0     C 9921   8.435   9.308   9.357  0.2086  0.0722 -0.4305
  815MOL0     C 9922   8.427   9.321   9.500  0.2068  0.1871 -0.2310
  815MOL0     C 9923   8.535   9.374   9.577  0.6043 -0.2075  0.5751
  815MOL0     C 9924   8.644   9.436   9.503 -0.6018 -0.8919 -0.0981
  815MOL0     O 9925   8.738   9.515   9.561 -0.4777 -0.2430  0.3117
  815MOL0     C 9926   8.726   9.573   9.690 -0.7179  0.1235  0.6582
  815MOL0     C 9927   8.860   9.646   9.723  0.0774 -0.0418 -0.2411
  815MOL0     C 9928   8.862   9.731   9.846 -0.6444 -0.0881 -0.6247
  815MOL0     C 9929   8.771   9.857   9.830 -0.0416 -0.5768 -0.6579
  815MOL0     C 9930   8.791   9.944   9.957 -0.4766  0.0654 -0.8538
  815MOL0     C 9931   8.728  10.080   9.937  0.5452  0.7820  0.6501
  815MOL0     C 9932   8.760  10.184  10.043  0.4539  0.7944  0.8579
  815MOL0     C 9933   8.750  10.333   9.983  0.0312  0.3910  0.3188
  815MOL0    Cl 9934   8.886  10.366   9.863  0.2474  0.3460  0.1949
  815MOL0     C 9935   8.656   9.406   9.369 -0.3132  0.4510  0.5059
  815MOL0     C 9936   8.561   9.342   9.299 -0.2481  0.0099  0.5199
  815MOL0     O 9937   8.283   9.499   9.265 -0.0705 -0.3428  0.2708
  815MOL0     C 9938   8.041   9.448   9.132  0.7689  0.6601 -0.6271
  815MOL0     C 9939   7.911   9.429   9.088 -0.2123  0.3357  0.1531
  815MOL0     N 9940   7.520   9.475   8.420  0.7509  0.3147 -0.3601
  815MOL0     N 9941   7.464   9.466   8.304  0.2531 -0.2301  0.4395
  815MOL0     C 9942   6.690   8.816   8.087  0.9452  0.0096  1.6838
  815MOL0     C 9943   6.739   8.686   8.065 -0.3888 -0.8250 -0.1787
  815MOL0     C 9944   6.751   8.280   7.884 -0.6345 -0.2139  0.2247
  815MOL0     C 9945   6.887   8.263   7.889 -0.2336  0.3832  0.3087
  815MOL0     C 9946   6.941   8.130   7.871  0.0993 -0.7790 -0.8321
  815MOL0     C 9947   6.853   8.023   7.858 -0.0593 -0.7834  0.4194
  815MOL0     O 9948   6.923   7.904   7.857  0.1929  0.0353 -0.5147
  815MOL0     C 9949   6.837   7.790   7.860 -0.0179  0.0830  0.3279
  815MOL0     C 9950   6.810   7.759   7.715  0.8098  0.5013 -0.1925
  815MOL0     C 9951   6.719   7.638   7.695 -0.1318  0.2827  0.6577
  815MOL0     C 9952   6.636   7.649   7.565 -0.1961  0.1536 -0.3450
  815MOL0     C 9953   6.561   7.526   7.545 -0.4487  0.4692  0.2897
  815MOL0     C 9954   6.487   7.429   7.531 -0.4433  0.1286 -0.0985
  815MOL0     C 9955   6.717   8.040   7.846  0.5104  0.1572  0.4163
  815MOL0     C 9956   6.663   8.172   7.862 -0.5775 -0.2817  0.5481
  815MOL0     C 9957   6.514   8.192   7.845  0.2817  0.0034 -0.3460
  815MOL0     H 9958   6.741   8.678   7.729  1.5579 -0.7889  0.8707
  815MOL0     H 9959   6.623   8.899   7.763  1.1105 -0.2565 -1.2079
  815MOL0     H 9960   6.496   9.056   7.837  0.1207  0.3320  0.4102
  815MOL0     H 9961   6.461   9.163   7.971 -0.8749 -0.0322 -0.5910
  815MOL0     H 9962   6.616   9.280   7.838 -0.0011  1.1501  2.6650
  815MOL0     H 9963   6.733   9.150   7.822  0.6822  0.4507  0.9280
  815MOL0     H 9964   6.772   9.169   8.066  0.1578  1.3461  2.0906
  815MOL0     H 9965   6.663   9.306   8.057 -2.7514 -2.3946 -4.1779
  815MOL0     H 9966   6.893   9.315   7.858  1.3384  0.8582 -0.1840
  815MOL0     H 9967   6.799   9.440   7.917  2.1361  1.4941 -1.8644
  815MOL0     H 9968   7.000   9.490   8.011 -4.7589  3.5060  0.9568
  815MOL0     H 9969   6.902   9.429   8.138 -0.1977 -0.4404  0.0679
  815MOL0     H 9970   7.004   9.209   8.138 -1.7349 -0.4569 -0.0031
  815MOL0     H 9971   7.115   9.250   8.007 -1.6986  0.0362 -0.1483
  815MOL0     H 9972   7.136   9.323   8.298  4.0790  0.3938  1.7205
  815MOL0     H 9973   7.173   9.460   8.195  2.5904 -0.5328 -0.3487
  815MOL0     H 9974   7.316   9.210   8.157 -0.1477 -0.3382  0.1820
  815MOL0     H 9975   7.337   9.376   8.083 -1.3100 -2.7353 -1.2020
  815MOL0     H 9976   7.367   9.179   8.447 -0.1574  0.1436 -1.3345
  815MOL0     H 9977   7.445   9.269   8.683  0.3383 -3.2680 -2.4581
  815MOL0     H 9978   7.586   9.216   8.610 -2.1040 -0.8171 -0.8806
  815MOL0     H 9979   7.719   9.422   8.652  0.8087  2.7981  0.3882
  815MOL0     H 9980   7.572   9.516   8.689 -1.5648 -1.0063  2.4732
  815MOL0     H 9981   7.541   9.355   8.886  1.2107 -0.8783  3.6278
  815MOL0     H 9982   7.655   9.489   8.903  0.3081 -1.8911  3.6440
  815MOL0     H 9983   7.832   9.352   8.831 -1.2054 -0.2530 -3.3727
  815MOL0     H 9984   7.732   9.216   8.808  0.9631 -1.7492  2.0707
  815MOL0     H 9985   7.944   9.078   9.074 -1.8128  0.0240  1.5137
  815MOL0     H 9986   8.144   9.118   9.168  0.6813 -0.4367  0.2415
  815MOL0     H 9987   8.331   9.294   9.544 -1.1220  3.0785 -1.1425
  815MOL0     H 9988   8.525   9.382   9.685 -0.0350  0.8176  0.4584
  815MOL0     H 9989   8.643   9.645   9.693 -0.0820  1.1130 -2.2946
  815MOL0     H 9990   8.710   9.506   9.775 -1.3243 -0.2876  0.2301
  815MOL0     H 9991   8.940   9.572   9.728 -0.7804 -0.8882  2.1077
  815MOL0     H 9992   8.879   9.713   9.638  0.6816  0.5853  0.3810
  815MOL0     H 9993   8.814   9.677   9.928 -0.3257 -1.4003 -1.2800
  815MOL0     H 9994   8.966   9.757   9.867 -0.9896  1.1751 -0.3706
  815MOL0     H 9995   8.664   9.836   9.820  0.0431 -0.9810 -0.7345
  815MOL0     H 9996   8.799   9.918   9.744 -1.1945  1.5861  0.4349
  815MOL0     H 9997   8.900   9.951   9.964 -0.3756  0.9241 -2.7650
  815MOL0     H 9998   8.744   9.888  10.039  0.3435 -1.1714 -1.1944
  815MOL0     H 9999   8.748  10.128   9.841 -1.9213 -0.1142 -0.3947
  815MOL0     H10000   8.620  10.064   9.944  0.1174  0.5804 -3.6909
  815MOL0     H10001   8.863  10.159  10.072  0.8940 -0.0219 -1.2042
  815MOL0     H10002   8.694  10.172  10.129  0.8465 -0.5296  1.0036
  815MOL0     H10003   8.650  10.353   9.943  0.7904 -0.1374 -2.0081
  815MOL0     H10004   8.758  10.401  10.068 -2.5862  3.1397 -1.4548
  815MOL0     H10005   8.745   9.444   9.319  1.0275 -1.5695  1.2262
  815MOL0     H10006   8.582   9.344   9.193  1.3497  0.2263  0.8124
  815MOL0     H10007   8.069   9.549   9.160  0.8546  0.5495 -0.3036
  815MOL0     H10008   7.835   9.504   9.066  0.3714  0.0950 -3.1554
  815MOL0     H10009   6.669   8.851   8.188 -0.1449 -1.0003  1.8422
  815MOL0     H10010   6.744   8.620   8.151 -0.1371 -0.6109 -0.0280
  815MOL0     H10011   6.958   8.344   7.905  1.2199 -0.9975  1.2016
  815MOL0     H10012   7.049   8.123   7.873  0.2620  1.3292 -0.6557
  815MOL0     H10013   6.743   7.804   7.914 -1.1642  0.7643 -1.7181
  815MOL0     H10014   6.891   7.707   7.907  1.5622 -0.2324 -1.8747
  815MOL0     H10015   6.903   7.746   7.660  1.8706 -1.7298  1.9646
  815MOL0     H10016   6.766   7.850   7.672  4.8778  1.3944 -3.0790
  815MOL0     H10017   6.662   7.632   7.788  0.3948  0.7144  1.0152
  815MOL0     H10018   6.785   7.550   7.693 -1.0413 -0.3943 -0.0655
  815MOL0     H10019   6.559   7.726   7.573 -0.4160 -0.0715 -0.2986
  815MOL0     H10020   6.700   7.664   7.477  0.5344 -0.6340  0.0456
  815MOL0     H10021   6.430   7.339   7.517 -0.1016 -0.2046  0.5645
  815MOL0     H10022   6.641   7.963   7.840  1.1988 -0.6064  1.3433
  815MOL0     H10023   6.466   8.250   7.924 -1.8073 -1.5561 -0.3845
  815MOL0     H10024   6.492   8.238   7.748  2.2595  3.0835  0.4950
  815MOL0     H10025   6.455   8.101   7.852  0.1278  0.2418  3.6323
  816MOL0     O10026   2.794   2.383   2.415 -0.6379  0.2878  0.3899
  816MOL0     C10027   2.869   2.328   2.494  0.6917 -0.3640 -0.2900
  816MOL0     O10028   2.985   2.378   2.540  0.0368 -0.1650  0.1888
  816MOL0     C10029   3.048   2.480   2.474 -0.0113  0.2964 -0.5209
  816MOL0     C10030   3.135   2.467   2.367 -0.2909  0.3273 -0.2480
  816MOL0     C10031   3.208   2.581   2.315 -0.8727 -0.2130 -0.0022
  816MOL0     C10032   3.177   2.707   2.364 -0.2408  1.0335  0.6653
  816MOL0     O10033   3.226   2.825   2.313  0.4032 -0.3223 -0.4079
  816MOL0     C10034   3.325   2.828   2.222 -0.8197  0.1429 -0.1990
  816MOL0     C10035   3.379   2.964   2.197  0.2599  0.4961 -0.4563
  816MOL0     C10036   3.404   3.038   2.336 -0.5376 -0.8764  0.7295
  816MOL0     C10037   3.508   2.978   2.430  0.0212  0.3988  0.4812
  816MOL0     C10038   3.643   2.965   2.371  0.1782  0.7235  0.1004
  816MOL0     C10039   3.750   2.918   2.460 -0.4579 -0.0951 -0.5484
  816MOL0     C10040   3.885   2.963   2.397  1.5802 -0.5067 -1.2312
  816MOL0     C10041   3.922   3.108   2.437 -0.3463 -0.2133 -0.1639
  816MOL0     N10042   4.045   3.124   2.517  0.7986  0.4332 -0.1697
  816MOL0     C10043   4.175   3.157   2.479  0.4337  0.1931  0.1983
  816MOL0     C10044   4.244   3.165   2.592 -0.8727 -0.0624 -0.7184
  816MOL0     C10045   4.395   3.185   2.604  0.2481 -0.3260  0.2503
  816MOL0     C10046   4.441   3.213   2.744  0.1009  0.3146 -0.4197
  816MOL0     C10047   4.581   3.259   2.766 -0.3903 -0.2425  0.8399
  816MOL0     C10048   4.610   3.286   2.915  1.6248 -0.6210  0.5773
  816MOL0     O10049   4.659   3.170   2.983 -0.1089 -0.3669 -0.6795
  816MOL0     C10050   4.787   3.131   2.977  1.0583  0.5390  0.2286
  816MOL0     C10051   4.826   3.044   3.078  0.2120  0.6008 -0.6352
  816MOL0     C10052   4.962   3.006   3.091  0.2534 -0.1596  0.3822
  816MOL0     C10053   5.058   3.044   2.992  0.0443  0.2687 -0.9316
  816MOL0     C10054   5.194   2.996   3.010  0.0928  0.1971  0.7024
  816MOL0     O10055   5.287   3.055   2.926 -0.0824 -0.4410  0.4089
  816MOL0     C10056   5.425   3.044   2.943 -0.2956 -0.1699  1.0150
  816MOL0     C10057   5.489   3.137   2.860  0.2822  0.4746  0.3394
  816MOL0     C10058   5.628   3.142   2.840 -0.8406 -0.2258  0.0845
  816MOL0     C10059   5.703   3.036   2.903 -0.8508 -0.2433  0.9003
  816MOL0     O10060   5.836   3.004   2.858  0.2872 -1.0827 -0.1064
  816MOL0     C10061   5.861   3.036   2.720  0.0115  0.2236  0.0005
  816MOL0     C10062   5.987   2.977   2.676  0.5123 -0.3224  0.2437
  816MOL0     C10063   5.974   2.824   2.704  0.0903 -1.1728  0.3111
  816MOL0     C10064   6.105   2.750   2.669 -0.4130  0.3534 -0.9398
  816MOL0     C10065   6.078   2.598   2.704 -0.4010  0.1853 -0.3674
  816MOL0     C10066   6.191   2.503   2.694  0.2258  1.2242  0.0932
  816MOL0     C10067   6.324   2.547   2.757  1.0479  0.7788 -0.3208
  816MOL0     C10068   6.324   2.535   2.912 -0.0724  0.2445 -0.1003
  816MOL0    Cl10069   6.489   2.565   2.977  0.6779  0.0216  0.3719
  816MOL0     C10070   5.643   2.938   2.985  0.1051 -0.4849  0.3947
  816MOL0     C10071   5.502   2.943   3.003  0.6460 -0.1270 -0.0370
  816MOL0     O10072   5.214   2.903   3.083  0.2354  0.3112  0.3666
  816MOL0     C10073   5.004   3.114   2.879  0.0305  0.4911  0.1455
  816MOL0     C10074   4.875   3.165   2.875  0.4736 -1.2128  1.0757
  816MOL0     N10075   4.165   3.130   2.693 -0.1510 -0.3309 -0.9070
  816MOL0     N10076   4.048   3.102   2.651  0.2322  0.5119 -0.2742
  816MOL0     C10077   3.096   2.717   2.473  0.4838  0.4372 -0.4168
  816MOL0     C10078   3.032   2.604   2.530  0.4472 -0.6543 -0.3837
  816MOL0     C10079   2.823   2.206   2.564  0.0260 -0.4787 -0.2555
  816MOL0     C10080   2.906   2.147   2.662 -0.9265 -0.2985  0.0823
  816MOL0     C10081   2.883   2.024   2.715 -0.5583  0.1720 -0.1303
  816MOL0     C10082   2.777   1.947   2.670 -0.0808 -0.2795  0.1468
  816MOL0     O10083   2.752   1.836   2.746 -0.2079  0.3140  0.2279
  816MOL0     C10084   2.629   1.760   2.720  0.0469  0.3800  0.3641
  816MOL0     C10085   2.647   1.612   2.750  0.0288 -0.3899 -0.2798
  816MOL0     C10086   2.692   1.581   2.889  0.2896 -0.0628  0.8026
  816MOL0     C10087   2.743   1.446   2.904  0.6284  0.3964 -0.3489
  816MOL0     C10088   2.632   1.348   2.926  0.6922  0.7908 -0.7783
  816MOL0     C10089   2.535   1.273   2.930  0.8171 -0.4507 -0.1154
  816MOL0     C10090   2.689   2.004   2.572 -0.1739 -1.6007 -1.1058
  816MOL0     C10091   2.714   2.129   2.511  0.2369  0.0141  0.4207
  816MOL0     C10092   2.610   2.176   2.408  0.6805  0.8858 -0.3019
  816MOL0     H10093   3.151   2.373   2.316  1.5031  1.3483 -1.6838
  816MOL0     H10094   3.288   2.577   2.242 -1.8583  3.5007 -1.5435
  816MOL0     H10095   3.417   2.776   2.250  1.4147  3.2311 -1.2662
  816MOL0     H10096   3.284   2.787   2.129 -1.4428  4.5282 -2.1081
  816MOL0     H10097   3.297   3.012   2.142 -1.0305  1.8867  2.4832
  816MOL0     H10098   3.471   2.965   2.138 -0.7943 -0.2198 -2.1850
  816MOL0     H10099   3.309   3.051   2.389 -0.6608  2.0942 -0.0632
  816MOL0     H10100   3.440   3.137   2.307 -0.2791 -0.9326  0.8535
  816MOL0     H10101   3.509   3.022   2.530 -0.1689 -1.9031  1.5579
  816MOL0     H10102   3.468   2.877   2.443  0.6923 -0.4226 -2.8262
  816MOL0     H10103   3.632   2.884   2.298  2.1975  2.4568 -2.2796
  816MOL0     H10104   3.675   3.052   2.314  4.2213 -0.6706 -0.0577
  816MOL0     H10105   3.738   2.967   2.557  0.3281 -0.0321 -0.4784
  816MOL0     H10106   3.756   2.810   2.480  0.0844  0.2056  1.0257
  816MOL0     H10107   3.880   2.953   2.288 -1.0174  1.0154 -1.3457
  816MOL0     H10108   3.968   2.903   2.434  1.6667  1.6695  2.6299
  816MOL0     H10109   3.926   3.166   2.344 -2.7588  0.8246  0.3221
  816MOL0     H10110   3.840   3.154   2.492 -2.6036 -3.7873 -0.2208
  816MOL0     H10111   4.206   3.186   2.379 -1.6953  0.6729 -0.3715
  816MOL0     H10112   4.454   3.103   2.563  0.9198  0.1408  0.2581
  816MOL0     H10113   4.423   3.276   2.549 -0.4638  0.2123  0.7544
  816MOL0     H10114   4.373   3.290   2.781  0.6387  1.8176 -2.4483
  816MOL0     H10115   4.428   3.123   2.806  0.8983  1.1228  0.9586
  816MOL0     H10116   4.592   3.347   2.702 -0.0905 -0.3493  0.7457
  816MOL0     H10117   4.644   3.178   2.728 -2.7537 -1.4933 -0.7063
  816MOL0     H10118   4.523   3.327   2.968  0.9992  0.4026 -1.1468
  816MOL0     H10119   4.682   3.367   2.931  1.3451 -0.7733  3.0337
  816MOL0     H10120   4.757   3.019   3.158  0.1658 -2.7713 -1.5511
  816MOL0     H10121   5.009   2.952   3.173  0.4658  0.4657  0.6753
  816MOL0     H10122   5.428   3.202   2.799 -2.2838 -0.0679  2.1791
  816MOL0     H10123   5.671   3.205   2.762  2.3071 -0.7796  1.2394
  816MOL0     H10124   5.776   2.987   2.670  0.1684 -0.1197  0.0708
  816MOL0     H10125   5.858   3.142   2.692  0.5093 -0.1631 -1.5928
  816MOL0     H10126   6.008   2.988   2.569  0.4108  0.4639  0.2994
  816MOL0     H10127   6.071   3.025   2.727 -0.4086  1.1204  0.4564
  816MOL0     H10128   5.946   2.806   2.808 -2.4913 -1.7195 -0.3947
  816MOL0     H10129   5.891   2.783   2.645 -0.7546 -2.7119  2.4245
  816MOL0     H10130   6.181   2.797   2.732  0.1920 -2.6715  0.8175
  816MOL0     H10131   6.135   2.750   2.564  4.6387  1.1646  0.2742
  816MOL0     H10132   5.990   2.562   2.650 -0.0037 -1.5601  0.0832
  816MOL0     H10133   6.035   2.596   2.804 -0.1793 -1.4196 -0.2766
  816MOL0     H10134   6.152   2.409   2.736 -0.0172  1.7891  1.1643
  816MOL0     H10135   6.210   2.490   2.587  0.7420 -0.3796  0.3427
  816MOL0     H10136   6.359   2.643   2.716 -0.8416  0.5632 -2.6373
  816MOL0     H10137   6.404   2.482   2.721  0.7566  0.5975 -0.6383
  816MOL0     H10138   6.267   2.604   2.975  1.8384  2.8957 -1.1217
  816MOL0     H10139   6.296   2.432   2.939  2.2929 -0.9881 -2.0088
  816MOL0     H10140   5.702   2.855   3.022  2.3344  1.7613  2.2835
  816MOL0     H10141   5.450   2.859   3.047 -2.5556  2.1701  0.9325
  816MOL0     H10142   5.084   3.132   2.807 -0.8346  1.8245 -0.5045
  816MOL0     H10143   4.861   3.252   2.811 -1.4166 -2.4628 -0.3174
  816MOL0     H10144   3.066   2.817   2.502 -0.5576  0.1943 -0.5966
  816MOL0     H10145   2.955   2.622   2.604  1.1112  2.4286 -0.3062
  816MOL0     H10146   2.997   2.196   2.692 -0.3807 -1.8985  1.1751
  816MOL0     H10147   2.936   1.974   2.796 -3.2637 -2.7837  0.0263
  816MOL0     H10148   2.594   1.778   2.617 -2.4567 -0.8721  0.9094
  816MOL0     H10149   2.545   1.800   2.777 -0.9321  0.0727 -0.8215
  816MOL0     H10150   2.723   1.583   2.677  1.3300  1.0527  0.4248
  816MOL0     H10151   2.551   1.570   2.718 -2.0075  3.4853  0.0617
  816MOL0     H10152   2.609   1.613   2.952 -2.3290  3.2530 -3.7451
  816MOL0     H10153   2.770   1.652   2.918 -1.4689  2.3115  0.0457
  816MOL0     H10154   2.806   1.399   2.828  0.6324  0.3191 -0.2981
  816MOL0     H10155   2.799   1.446   2.998  0.0171 -0.4979  0.0296
  816MOL0     H10156   2.449   1.210   2.940  0.9616 -0.6826 -0.3195
  816MOL0     H10157   2.612   1.944   2.526  1.4469 -2.9220 -2.1995
  816MOL0     H10158   2.644   2.165   2.304 -0.3617  1.3415 -0.7001
  816MOL0     H10159   2.513   2.131   2.427  1.3518 -0.5094 -0.0889
  816MOL0     H10160   2.589   2.282   2.425  0.7669  0.9452 -0.5639
  817MOL0     O10161   4.524  10.650   4.805  0.6512  0.0519  0.4232
  817MOL0     C10162   4.474  10.549   4.854  0.1755  0.5035  0.2300
  817MOL0     O10163   4.536  10.430   4.887  0.1959 -0.3436 -0.3536
  817MOL0     C10164   4.675  10.427   4.881 -0.4289 -0.4496 -0.5145
  817MOL0     C10165   4.741  10.372   4.773 -0.1944 -0.1874 -0.2641
  817MOL0     C10166   4.880  10.364   4.770  0.6183  0.3113 -0.8398
  817MOL0     C10167   4.955  10.413   4.886 -0.1872 -0.6517  0.3570
  817MOL0     O10168   5.091  10.414   4.909  0.0190 -0.2176  0.0758
  817MOL0     C10169   5.171  10.364   4.808 -0.0427 -0.2473  0.3266
  817MOL0     C10170   5.316  10.416   4.827 -0.0343 -0.7563 -0.3614
  817MOL0     C10171   5.327  10.574   4.808  0.6694  0.6666 -0.1788
  817MOL0     C10172   5.474  10.620   4.835  0.5517  0.5581  0.3170
  817MOL0     C10173   5.565  10.562   4.715  0.1588  0.3688 -0.0841
  817MOL0     C10174   5.695  10.647   4.708 -1.3839  0.0802  0.7289
  817MOL0     C10175   5.793  10.566   4.622  0.8156  0.1348  0.1405
  817MOL0     C10176   5.909  10.650   4.570  0.6173 -0.3410  0.0256
  817MOL0     N10177   5.874  10.710   4.441  0.5569 -0.3084 -0.2371
  817MOL0     C10178   5.857  10.641   4.323  0.5095 -0.0196 -0.4070
  817MOL0     C10179   5.787  10.727   4.247 -0.6473 -0.0071  0.7401
  817MOL0     C10180   5.745  10.700   4.107  0.9949  0.3344 -0.2840
  817MOL0     C10181   5.790  10.814   4.009  0.3451 -0.8961  0.4389
  817MOL0     C10182   5.926  10.790   3.952 -0.0493  0.3681  0.2308
  817MOL0     C10183   5.974  10.906   3.881  0.3678 -0.1840  0.5331
  817MOL0     O10184   6.101  10.861   3.823 -0.4283 -0.6778  0.0339
  817MOL0     C10185   6.186  10.954   3.773 -0.8502  0.2499 -0.6694
  817MOL0     C10186   6.154  11.085   3.726 -0.0609 -0.3041  0.1878
  817MOL0     C10187   6.258  11.172   3.684  0.2196 -0.1842 -0.7702
  817MOL0     C10188   6.395  11.137   3.694  0.6133  0.1775  0.2747
  817MOL0     C10189   6.493  11.226   3.640 -1.0635 -0.2256  0.7720
  817MOL0     O10190   6.452  11.362   3.625 -0.2657 -0.5345 -0.0360
  817MOL0     C10191   6.522  11.435   3.534 -0.4459 -0.5860  0.4835
  817MOL0     C10192   6.509  11.409   3.395 -0.0765 -0.2221  0.3361
  817MOL0     C10193   6.577  11.483   3.299  0.4840 -0.5452  0.6175
  817MOL0     C10194   6.660  11.584   3.340 -0.1104  0.4049 -0.0035
  817MOL0     O10195   6.723  11.659   3.237  0.2037  0.1801  0.2225
  817MOL0     C10196   6.845  11.724   3.268  0.5175  0.6328  0.1635
  817MOL0     C10197   6.914  11.778   3.138  0.7387  0.4692 -0.3429
  817MOL0     C10198   6.970  11.678   3.028  0.5511  0.1942 -0.1328
  817MOL0     C10199   7.048  11.569   3.098 -0.5121  0.8167 -0.5601
  817MOL0     C10200   7.116  11.479   2.997 -0.0779  0.4923  1.1523
  817MOL0     C10201   6.999  11.393   2.932  0.0326 -0.2948  0.4872
  817MOL0     C10202   7.056  11.291   2.834 -0.2458 -0.0034 -0.2464
  817MOL0     C10203   6.949  11.222   2.754  0.4014 -0.2058 -0.1078
  817MOL0    Cl10204   6.815  11.141   2.849  0.2349 -0.3925 -0.3678
  817MOL0     C10205   6.676  11.610   3.480  0.0720 -0.2542  0.1652
  817MOL0     C10206   6.607  11.534   3.577 -0.5567  1.3278  0.3458
  817MOL0     O10207   6.602  11.175   3.603  0.5005 -0.9475  0.2826
  817MOL0     C10208   6.424  11.010   3.726 -0.6184  0.1198 -0.2811
  817MOL0     C10209   6.323  10.917   3.762 -0.3833  0.1688 -0.4633
  817MOL0     N10210   5.762  10.838   4.320 -0.3338  0.3753  0.1591
  817MOL0     N10211   5.811  10.828   4.435 -0.1757 -0.3085 -0.6737
  817MOL0     C10212   4.884  10.470   4.996  0.3714 -0.2733  0.5867
  817MOL0     C10213   4.742  10.472   5.000 -0.8218  0.6345  0.3788
  817MOL0     C10214   4.326  10.561   4.870 -0.2697  0.6195  0.4550
  817MOL0     C10215   4.255  10.623   4.770  0.1667  0.8805  0.6034
  817MOL0     C10216   4.116  10.622   4.784 -1.0592 -0.8809  0.1900
  817MOL0     C10217   4.048  10.572   4.900 -0.4531 -0.2950  0.5933
  817MOL0     O10218   3.913  10.549   4.914  0.1711 -0.3379 -0.5883
  817MOL0     C10219   3.867  10.650   4.997 -0.5970  0.0948  0.8789
  817MOL0     C10220   3.721  10.662   4.994 -0.3876 -0.1307  0.2038
  817MOL0     C10221   3.683  10.718   4.857 -1.3757  0.0198  0.0520
  817MOL0     C10222   3.543  10.795   4.844  0.0984  0.2358 -0.3227
  817MOL0     C10223   3.500  10.814   4.705  0.2390  0.8700 -0.9370
  817MOL0     C10224   3.453  10.860   4.608 -0.1431  0.6607  0.1833
  817MOL0     C10225   4.127  10.522   5.005 -0.5290 -0.0232  0.0204
  817MOL0     C10226   4.269  10.519   4.989  1.2132 -0.0794 -0.1822
  817MOL0     C10227   4.348  10.449   5.101  0.5932 -0.0171  0.2388
  817MOL0     H10228   4.690  10.335   4.684 -0.8183  0.6330 -0.2615
  817MOL0     H10229   4.915  10.333   4.672 -2.4026 -0.5559 -1.7517
  817MOL0     H10230   5.161  10.255   4.801 -1.2926 -0.1111 -0.2553
  817MOL0     H10231   5.131  10.402   4.714  1.1907 -1.5774 -0.7839
  817MOL0     H10232   5.379  10.372   4.750  0.5976  0.3055 -0.4729
  817MOL0     H10233   5.349  10.394   4.929 -0.2639  1.9582  0.3936
  817MOL0     H10234   5.255  10.626   4.872 -3.1604 -4.1081 -0.0061
  817MOL0     H10235   5.293  10.602   4.708 -3.6829 -2.5803  0.0827
  817MOL0     H10236   5.472  10.730   4.836 -1.5726  0.5702  2.2240
  817MOL0     H10237   5.515  10.590   4.932  2.7388  1.0916 -0.3753
  817MOL0     H10238   5.586  10.455   4.722  2.3763  0.6904 -0.7745
  817MOL0     H10239   5.505  10.573   4.624 -1.1793 -3.4231  0.1703
  817MOL0     H10240   5.680  10.745   4.661 -1.2035 -0.3715 -0.2906
  817MOL0     H10241   5.725  10.659   4.813 -0.0754 -0.8086  0.4903
  817MOL0     H10242   5.733  10.535   4.536  0.7138 -0.9264  0.5848
  817MOL0     H10243   5.827  10.470   4.662  5.5499  2.5191  2.6902
  817MOL0     H10244   5.952  10.714   4.648  0.0243  2.7671 -2.0256
  817MOL0     H10245   5.983  10.573   4.547 -1.0311 -2.0311  0.0661
  817MOL0     H10246   5.893  10.544   4.288 -1.8035 -0.1569 -2.6994
  817MOL0     H10247   5.774  10.598   4.079 -1.7516 -0.7816  0.5413
  817MOL0     H10248   5.637  10.681   4.114  1.6120 -4.6313 -0.4107
  817MOL0     H10249   5.715  10.837   3.933  1.2789  2.5069  0.4064
  817MOL0     H10250   5.801  10.908   4.063  0.0107 -0.3868 -0.3635
  817MOL0     H10251   5.934  10.699   3.891  2.2200  0.2998  0.5218
  817MOL0     H10252   6.000  10.788   4.034  0.2510  1.5110 -0.0051
  817MOL0     H10253   5.991  10.996   3.941 -0.2733 -1.9396  3.5377
  817MOL0     H10254   5.906  10.915   3.795  0.7590 -1.3855  0.0792
  817MOL0     H10255   6.056  11.125   3.747  0.1887 -1.5857  4.9400
  817MOL0     H10256   6.233  11.278   3.677  0.5922  0.1630  1.9130
  817MOL0     H10257   6.440  11.336   3.353 -1.2894 -0.1328  2.0666
  817MOL0     H10258   6.566  11.461   3.193 -0.7776 -0.9085  0.8038
  817MOL0     H10259   6.833  11.810   3.335  2.3469 -0.9147  2.6298
  817MOL0     H10260   6.913  11.652   3.315  1.1736  1.9020  1.2287
  817MOL0     H10261   6.839  11.844   3.093  1.5032  1.4844 -0.1611
  817MOL0     H10262   6.996  11.843   3.169 -1.6880  2.8220  1.5853
  817MOL0     H10263   6.886  11.650   2.965  1.3801 -0.4212 -0.9778
  817MOL0     H10264   7.045  11.738   2.975 -0.8551  3.9374  1.7167
  817MOL0     H10265   6.986  11.512   3.168  0.1720  0.7096 -0.0240
  817MOL0     H10266   7.132  11.613   3.152 -0.6034  2.0296 -1.3678
  817MOL0     H10267   7.183  11.420   3.060 -0.0069  1.3824  1.9226
  817MOL0     H10268   7.168  11.530   2.916  0.7950  0.9584  1.9969
  817MOL0     H10269   6.933  11.352   3.010 -0.0766  3.2080  2.4354
  817MOL0     H10270   6.935  11.457   2.871  1.2326  0.7786  0.3183
  817MOL0     H10271   7.119  11.216   2.884  0.2129 -1.1980 -2.4764
  817MOL0     H10272   7.132  11.342   2.775 -0.1764  0.0256 -0.1326
  817MOL0     H10273   6.904  11.296   2.687  0.5621 -1.4693 -1.6732
  817MOL0     H10274   6.993  11.139   2.697  2.3212  1.0633 -0.5821
  817MOL0     H10275   6.759  11.672   3.509 -0.7472  0.6802  0.5738
  817MOL0     H10276   6.625  11.552   3.683  0.9674 -2.6295  0.9354
  817MOL0     H10277   6.527  10.977   3.733 -0.1718  1.6087  0.4258
  817MOL0     H10278   6.346  10.812   3.771  2.1787  0.7617  0.8377
  817MOL0     H10279   4.940  10.503   5.083  0.9406 -0.9724  0.4911
  817MOL0     H10280   4.697  10.518   5.088 -0.6210  0.2269  0.7003
  817MOL0     H10281   4.308  10.677   4.692  0.8519  3.2551  2.6028
  817MOL0     H10282   4.049  10.653   4.704  0.1750 -0.4745 -0.7009
  817MOL0     H10283   3.911  10.747   4.974 -2.0338  0.3583 -0.9864
  817MOL0     H10284   3.885  10.615   5.099 -3.0978  0.3128  1.4796
  817MOL0     H10285   3.690  10.734   5.071 -1.7956 -1.2671  0.7477
  817MOL0     H10286   3.682  10.562   5.015  0.3693 -0.3350  0.6923
  817MOL0     H10287   3.689  10.625   4.799  0.1396  0.0593  0.0963
  817MOL0     H10288   3.760  10.793   4.836 -0.7509 -0.7357 -0.3733
  817MOL0     H10289   3.466  10.738   4.896 -0.7991  0.9214 -0.8917
  817MOL0     H10290   3.544  10.886   4.905  1.8332  0.4749 -0.6442
  817MOL0     H10291   3.402  10.893   4.519 -2.2589 -1.3702  0.5522
  817MOL0     H10292   4.073  10.489   5.094 -1.7566  3.8229  0.8946
  817MOL0     H10293   4.280  10.426   5.184  1.3207 -0.8038  0.6361
  817MOL0     H10294   4.395  10.356   5.068  2.5632  1.5591 -1.7606
  817MOL0     H10295   4.432  10.508   5.138 -0.5951  0.1391  2.9537
  818MOL0     O10296   7.817   5.022   7.104  0.6332  0.4624 -0.1223
  818MOL0     C10297   7.724   4.958   7.063  0.4354  0.1447 -0.0432
  818MOL0     O10298   7.661   4.846   7.129 -0.1069 -0.8700  0.1626
  818MOL0     C10299   7.738   4.779   7.212 -0.5130  1.2021 -0.9647
  818MOL0     C10300   7.867   4.722   7.181  0.2958  0.0045  0.6443
  818MOL0     C10301   7.942   4.661   7.276 -0.0083 -0.4214  0.2344
  818MOL0     C10302   7.893   4.641   7.407 -0.0318  0.1326  0.4454
  818MOL0     O10303   7.975   4.570   7.487  0.1476 -0.0088 -0.1809
  818MOL0     C10304   7.920   4.531   7.613 -0.0712  0.1133  0.4490
  818MOL0     C10305   8.009   4.416   7.666 -0.4886  0.2107 -0.3800
  818MOL0     C10306   8.147   4.459   7.728  0.1175  0.3846 -0.2259
  818MOL0     C10307   8.254   4.346   7.740  0.3335 -0.4447 -0.1067
  818MOL0     C10308   8.351   4.380   7.851 -1.1498 -0.1269 -0.0683
  818MOL0     C10309   8.495   4.321   7.820  0.7030  0.3718 -0.2259
  818MOL0     C10310   8.506   4.163   7.825  0.0441 -0.3108  0.5750
  818MOL0     C10311   8.651   4.129   7.853 -0.0548  0.0490  0.6903
  818MOL0     N10312   8.722   4.110   7.724  0.4293 -0.5001  0.1289
  818MOL0     C10313   8.727   3.988   7.655 -1.2245 -0.6367  0.0111
  818MOL0     C10314   8.784   4.018   7.532  0.2652 -0.6559 -0.3739
  818MOL0     C10315   8.800   3.923   7.419  0.3958  0.5695 -0.5072
  818MOL0     C10316   8.871   3.807   7.489 -0.8325  0.4960 -0.1579
  818MOL0     C10317   8.918   3.703   7.383 -0.0589 -0.3539  0.0484
  818MOL0     C10318   8.989   3.583   7.422  0.1947 -0.2682  0.8712
  818MOL0     O10319   8.900   3.488   7.481  0.5552 -0.0660 -0.4498
  818MOL0     C10320   8.961   3.383   7.530  0.1996  0.4507  0.4522
  818MOL0     C10321   8.878   3.264   7.532 -0.7222  0.1501 -0.9804
  818MOL0     C10322   8.929   3.146   7.579 -0.4209  0.1512 -0.3151
  818MOL0     C10323   9.054   3.138   7.641  0.2630 -0.1916 -0.1644
  818MOL0     C10324   9.103   3.015   7.709  0.0285 -0.6830 -0.1820
  818MOL0     O10325   9.240   2.997   7.713 -0.0614 -0.1187  0.1346
  818MOL0     C10326   9.296   2.866   7.734  0.2606  0.5789  0.2236
  818MOL0     C10327   9.276   2.791   7.854  0.7183  0.4355  0.5823
  818MOL0     C10328   9.314   2.655   7.877 -0.6302 -0.2171 -0.4671
  818MOL0     C10329   9.404   2.604   7.785  0.4631 -0.1641 -0.0765
  818MOL0     O10330   9.471   2.487   7.807  0.3592 -0.1067 -0.2444
  818MOL0     C10331   9.610   2.488   7.760 -0.2277  0.4742  0.1486
  818MOL0     C10332   9.704   2.377   7.827 -0.2811 -0.6928 -0.1179
  818MOL0     C10333   9.839   2.374   7.749 -0.0898  0.3860  0.3607
  818MOL0     C10334   9.946   2.283   7.809  0.4229  0.1197  0.6461
  818MOL0     C10335  10.061   2.271   7.717  0.4173 -0.3353 -0.5145
  818MOL0     C10336  10.177   2.183   7.780  0.7334 -0.0247 -0.0817
  818MOL0     C10337  10.280   2.135   7.683 -0.3051  0.4664 -0.7151
  818MOL0     C10338  10.393   2.237   7.665 -0.2897  0.0543 -0.1128
  818MOL0    Cl10339  10.531   2.173   7.582  0.2643  0.1962  0.1594
  818MOL0     C10340   9.438   2.680   7.672  0.0256  0.1052  0.3005
  818MOL0     C10341   9.382   2.808   7.649  0.3530  0.6075 -0.0788
  818MOL0     O10342   9.016   2.943   7.758 -0.0696 -0.4376  0.1505
  818MOL0     C10343   9.136   3.251   7.647  0.4686  0.0698  0.3744
  818MOL0     C10344   9.091   3.373   7.594 -0.2547  0.0376 -0.9464
  818MOL0     N10345   8.814   4.150   7.524  0.3242  0.0193  0.8178
  818MOL0     N10346   8.764   4.208   7.628  0.4773 -0.7348  0.5994
  818MOL0     C10347   7.765   4.690   7.443  0.1134 -0.2481  0.0477
  818MOL0     C10348   7.697   4.769   7.348  0.0784  0.4939 -0.7563
  818MOL0     C10349   7.656   4.997   6.934  0.0346  0.1251 -0.6501
  818MOL0     C10350   7.555   4.904   6.880 -0.2939 -0.6081  0.1433
  818MOL0     C10351   7.497   4.936   6.748 -0.7917 -0.1196 -0.3228
  818MOL0     C10352   7.538   5.046   6.675  0.3198  0.3886 -1.3457
  818MOL0     O10353   7.483   5.066   6.550 -0.1051 -0.0801 -0.0277
  818MOL0     C10354   7.366   5.165   6.551  0.3232  0.8875  0.0524
  818MOL0     C10355   7.249   5.083   6.474 -0.0112 -0.2989  0.7081
  818MOL0     C10356   7.134   5.174   6.453 -0.7052  1.0756 -0.6427
  818MOL0     C10357   7.129   5.244   6.330 -0.2470  0.1064  1.0824
  818MOL0     C10358   6.999   5.322   6.320  0.0621  0.3907  0.4237
  818MOL0     C10359   6.892   5.384   6.324  0.2682 -0.4730  0.9022
  818MOL0     C10360   7.616   5.140   6.744 -0.0318 -0.6453 -0.5203
  818MOL0     C10361   7.679   5.116   6.868 -0.1185 -0.1728  0.1084
  818MOL0     C10362   7.767   5.222   6.920 -0.9587  0.0783  0.1266
  818MOL0     H10363   7.908   4.737   7.082 -0.1417  1.4673  0.6534
  818MOL0     H10364   8.048   4.647   7.263  0.0362  2.0085 -5.0543
  818MOL0     H10365   7.925   4.609   7.690  1.8068 -0.6975  1.1937
  818MOL0     H10366   7.815   4.500   7.610 -0.3442  1.0317 -1.8278
  818MOL0     H10367   8.027   4.342   7.587 -3.5707  0.2509 -1.2666
  818MOL0     H10368   7.963   4.371   7.754  1.3381  0.8430  0.9533
  818MOL0     H10369   8.123   4.502   7.826  1.1784 -0.1142  0.2676
  818MOL0     H10370   8.195   4.534   7.665  0.0068  3.1287  2.7012
  818MOL0     H10371   8.215   4.251   7.777  0.5597 -0.3135  0.4769
  818MOL0     H10372   8.308   4.352   7.646 -1.9982  1.2757 -1.4288
  818MOL0     H10373   8.380   4.485   7.856  1.6014 -0.8243  0.6176
  818MOL0     H10374   8.319   4.341   7.948 -1.3539 -0.5726 -0.3131
  818MOL0     H10375   8.536   4.353   7.724  5.0060 -1.1324  0.9082
  818MOL0     H10376   8.566   4.360   7.893  0.2738  1.4045 -0.3424
  818MOL0     H10377   8.457   4.127   7.735 -2.0177  2.0960  0.6351
  818MOL0     H10378   8.452   4.109   7.904  1.2782 -0.8588  1.0776
  818MOL0     H10379   8.696   4.205   7.918 -0.5895  0.5236  0.5091
  818MOL0     H10380   8.664   4.030   7.898  1.4579 -0.8354 -1.4922
  818MOL0     H10381   8.689   3.891   7.687  1.6249 -1.3122  1.7310
  818MOL0     H10382   8.701   3.897   7.381 -0.1940  1.4299  0.4015
  818MOL0     H10383   8.859   3.956   7.333 -0.8087  1.4741 -1.0092
  818MOL0     H10384   8.946   3.848   7.558 -0.0078  1.6308 -1.6751
  818MOL0     H10385   8.798   3.758   7.554 -2.6750  2.9373 -0.2225
  818MOL0     H10386   8.987   3.760   7.320 -0.3252  1.6159  1.4389
  818MOL0     H10387   8.827   3.677   7.328 -0.2878  1.4742 -0.5306
  818MOL0     H10388   9.071   3.608   7.489  0.6843 -0.1421  0.2269
  818MOL0     H10389   9.042   3.532   7.341 -1.5508  0.7971 -1.0491
  818MOL0     H10390   8.777   3.253   7.491 -1.4657 -0.1997  0.8628
  818MOL0     H10391   8.866   3.058   7.572 -4.7609  2.9310 -0.0352
  818MOL0     H10392   9.209   2.834   7.928  0.3626  0.9557 -0.0329
  818MOL0     H10393   9.284   2.606   7.969 -2.7545  1.1451 -0.3546
  818MOL0     H10394   9.617   2.465   7.653 -0.0171 -2.5348  0.7150
  818MOL0     H10395   9.649   2.590   7.769 -1.8336  1.0611  0.8117
  818MOL0     H10396   9.725   2.406   7.930  4.9161 -0.4050 -0.9991
  818MOL0     H10397   9.663   2.276   7.816 -1.8898 -0.0788 -0.0972
  818MOL0     H10398   9.816   2.337   7.649  1.8098  0.8629 -0.2975
  818MOL0     H10399   9.868   2.479   7.741 -1.0801  0.9154  2.7352
  818MOL0     H10400   9.899   2.185   7.828 -1.8631  0.4605 -2.4607
  818MOL0     H10401   9.990   2.331   7.896  3.4774 -0.0950 -0.6639
  818MOL0     H10402  10.106   2.369   7.696  0.6069 -0.4360 -0.5823
  818MOL0     H10403  10.032   2.223   7.623 -0.8367 -0.4134 -0.1023
  818MOL0     H10404  10.225   2.246   7.855 -2.8725  2.1145  0.6128
  818MOL0     H10405  10.128   2.109   7.845 -0.6014  0.8661 -0.0459
  818MOL0     H10406  10.234   2.133   7.584  0.4997  0.7787 -1.1013
  818MOL0     H10407  10.317   2.038   7.717 -0.4301  0.8418  0.5405
  818MOL0     H10408  10.353   2.326   7.615 -0.4134  0.6781  1.0682
  818MOL0     H10409  10.422   2.272   7.765  0.8993 -0.8144 -0.1343
  818MOL0     H10410   9.508   2.638   7.600  1.1748 -0.2712  1.5693
  818MOL0     H10411   9.400   2.865   7.559 -0.7049  1.3893  0.1871
  818MOL0     H10412   9.228   3.235   7.703 -0.0566 -2.7394  0.5347
  818MOL0     H10413   9.158   3.458   7.601  0.3767 -0.5937  1.5082
  818MOL0     H10414   7.715   4.675   7.538  0.0973  1.1772  0.2814
  818MOL0     H10415   7.608   4.818   7.385 -1.1551 -3.5247  2.3492
  818MOL0     H10416   7.526   4.814   6.935 -2.5572 -0.7363 -1.1351
  818MOL0     H10417   7.425   4.864   6.709 -0.3783 -0.0429 -1.2513
  818MOL0     H10418   7.399   5.256   6.500 -0.8453  0.5825 -1.3191
  818MOL0     H10419   7.338   5.190   6.653 -1.2043  0.1063 -0.1389
  818MOL0     H10420   7.213   5.012   6.549 -1.4930 -1.6003 -1.1405
  818MOL0     H10421   7.283   5.024   6.389 -2.0540 -2.6825  1.4322
  818MOL0     H10422   7.119   5.240   6.539  0.9447  2.4636 -1.3568
  818MOL0     H10423   7.048   5.107   6.456  0.6439 -0.7255 -0.1200
  818MOL0     H10424   7.211   5.317   6.335 -1.8044  1.8539  4.8316
  818MOL0     H10425   7.134   5.181   6.240  0.8242 -1.5745  2.2609
  818MOL0     H10426   6.812   5.454   6.314  1.9064  1.2710 -0.8831
  818MOL0     H10427   7.625   5.230   6.685 -1.9418 -0.3983 -0.5099
  818MOL0     H10428   7.726   5.323   6.904  1.4540  1.3746  1.5439
  818MOL0     H10429   7.777   5.223   7.029  2.1709  1.4548 -0.0641
  818MOL0     H10430   7.863   5.205   6.872 -1.0351 -0.8431  0.2901
  819MOL0     O10431   9.732   1.492   5.325 -0.5138  0.2763  0.5472
  819MOL0     C10432   9.731   1.390   5.255  0.5470  0.8262 -1.1036
  819MOL0     O10433   9.833   1.352   5.171  0.7324 -0.1189 -0.7582
  819MOL0     C10434   9.923   1.451   5.136  0.6301 -0.5552  0.1004
  819MOL0     C10435  10.053   1.472   5.191  0.2067 -0.7970  0.3894
  819MOL0     C10436  10.151   1.555   5.131 -0.0400  1.0318 -0.2433
  819MOL0     C10437  10.117   1.628   5.015 -0.6741 -0.2633  0.3811
  819MOL0     O10438  10.195   1.711   4.942  0.0422  0.4293 -0.0054
  819MOL0     C10439  10.319   1.662   4.897  0.1513 -0.3285 -0.9251
  819MOL0     C10440  10.431   1.680   4.994  0.0840 -0.1346 -0.1910
  819MOL0     C10441  10.444   1.826   5.043 -0.1889  0.0604 -0.2612
  819MOL0     C10442  10.583   1.860   5.095 -0.1933 -0.3426 -0.8441
  819MOL0     C10443  10.637   1.998   5.066 -0.1839 -0.2525 -0.5711
  819MOL0     C10444  10.650   2.034   4.918  0.9466  0.3518 -0.7075
  819MOL0     C10445  10.724   2.176   4.901 -0.0343 -0.0799 -1.1201
  819MOL0     C10446  10.707   2.233   4.754  0.1182 -0.5070 -1.0587
  819MOL0     N10447  10.831   2.253   4.683  0.3338 -0.0793 -0.2775
  819MOL0     C10448  10.924   2.348   4.711  0.2165  0.0184  0.1471
  819MOL0     C10449  11.035   2.301   4.644  0.5051  0.5154  0.5915
  819MOL0     C10450  11.163   2.383   4.646 -0.5325  0.9880  0.4422
  819MOL0     C10451  11.233   2.421   4.517  0.3419  0.1303 -1.1026
  819MOL0     C10452  11.170   2.533   4.440 -0.2017 -0.6733 -0.0302
  819MOL0     C10453  11.024   2.523   4.387 -0.2232  0.4497 -0.6733
  819MOL0     O10454  10.989   2.650   4.330  0.0212  0.5983 -0.1003
  819MOL0     C10455  10.869   2.675   4.282  0.2117  0.0497  0.0887
  819MOL0     C10456  10.847   2.793   4.220  0.0527 -0.5821  0.5038
  819MOL0     C10457  10.725   2.829   4.167  0.4076 -0.1938  0.4884
  819MOL0     C10458  10.620   2.739   4.175  1.0819  0.0140  0.2217
  819MOL0     C10459  10.489   2.777   4.125 -0.0253 -0.1266  0.0097
  819MOL0     O10460  10.478   2.910   4.099  0.5548 -0.3511 -0.4814
  819MOL0     C10461  10.356   2.951   4.058 -0.2892 -0.7589  1.3596
  819MOL0     C10462  10.251   2.968   4.146 -0.0471 -1.1414 -0.7926
  819MOL0     C10463  10.132   3.031   4.107 -0.3181  0.5238 -0.1063
  819MOL0     C10464  10.131   3.092   3.983  0.1965 -0.6892 -0.4223
  819MOL0     O10465  10.016   3.153   3.951 -0.7297 -0.3162 -0.1527
  819MOL0     C10466   9.962   3.127   3.820 -0.2687 -0.0770 -0.6525
  819MOL0     C10467   9.839   3.223   3.808 -0.2123  0.0213 -0.3263
  819MOL0     C10468   9.880   3.370   3.790 -0.6131 -0.5450  0.5068
  819MOL0     C10469   9.770   3.476   3.805 -0.4443  0.2767 -0.2276
  819MOL0     C10470   9.636   3.424   3.747 -0.4995 -0.3675  0.9824
  819MOL0     C10471   9.630   3.408   3.593  0.0709 -0.1656  0.4882
  819MOL0     C10472   9.499   3.337   3.544 -0.1990  0.3116  0.4330
  819MOL0     C10473   9.395   3.444   3.505  0.5104 -0.0762  0.3125
  819MOL0    Cl10474   9.333   3.529   3.643  0.5081 -0.2441 -0.1110
  819MOL0     C10475  10.241   3.086   3.900 -0.3621 -0.1226  0.3010
  819MOL0     C10476  10.347   3.011   3.929 -0.0835 -0.2670 -0.1532
  819MOL0     O10477  10.399   2.697   4.120  0.0367  0.3917 -0.1609
  819MOL0     C10478  10.645   2.616   4.237 -0.5596  0.2783 -0.9945
  819MOL0     C10479  10.766   2.579   4.293 -0.1023 -0.3112  0.1491
  819MOL0     N10480  11.007   2.179   4.582  0.4361 -0.1049 -0.3193
  819MOL0     N10481  10.882   2.163   4.608  0.3814  0.4508 -1.0400
  819MOL0     C10482   9.983   1.617   4.959 -1.1673  0.4003  0.8007
  819MOL0     C10483   9.887   1.533   5.021  0.1989 -0.4297  0.5783
  819MOL0     C10484   9.612   1.293   5.265  0.5537 -0.5337  0.0110
  819MOL0     C10485   9.614   1.172   5.332  0.1242  0.4726 -0.1359
  819MOL0     C10486   9.509   1.087   5.356 -0.9295 -0.6208 -0.7460
  819MOL0     C10487   9.382   1.122   5.307  0.4253  0.4230 -0.3505
  819MOL0     O10488   9.268   1.039   5.315 -0.8631 -0.6164 -0.2763
  819MOL0     C10489   9.248   0.939   5.417  0.4490  0.0384  0.0687
  819MOL0     C10490   9.201   1.007   5.549 -0.1990  0.3397  0.4190
  819MOL0     C10491   9.232   0.918   5.670 -0.7613 -0.0191  0.6475
  819MOL0     C10492   9.161   0.781   5.685  0.6815  0.5998 -0.3260
  819MOL0     C10493   9.015   0.789   5.691 -0.0723  0.3673 -0.9896
  819MOL0     C10494   8.895   0.814   5.708  0.3113  0.9012 -0.0148
  819MOL0     C10495   9.375   1.236   5.234  0.5508 -1.0687 -0.5060
  819MOL0     C10496   9.483   1.333   5.216 -0.0281 -0.4640 -1.0946
  819MOL0     C10497   9.464   1.463   5.143  0.8014  0.0509 -0.0893
  819MOL0     H10498  10.074   1.414   5.280 -0.7683 -0.6761  0.7098
  819MOL0     H10499  10.243   1.550   5.188 -0.5562 -4.5973  0.6551
  819MOL0     H10500  10.305   1.556   4.876  0.5888 -0.5455 -0.1063
  819MOL0     H10501  10.356   1.712   4.806 -1.1565  1.9453 -0.2994
  819MOL0     H10502  10.519   1.647   4.938  0.5362 -1.1775  1.0881
  819MOL0     H10503  10.416   1.610   5.076  0.1007  0.0726 -0.0077
  819MOL0     H10504  10.353   1.857   5.095 -0.1438  0.2567 -0.2973
  819MOL0     H10505  10.439   1.883   4.949  3.7038  1.4434  0.1865
  819MOL0     H10506  10.590   1.860   5.204  0.2414  0.1324 -0.8657
  819MOL0     H10507  10.655   1.788   5.054  1.4373  0.8814 -0.2532
  819MOL0     H10508  10.579   2.070   5.124  0.1323 -1.6002  1.5158
  819MOL0     H10509  10.740   1.997   5.103 -0.9611 -0.6033  1.7135
  819MOL0     H10510  10.715   1.962   4.867  0.2487  0.3538 -1.6111
  819MOL0     H10511  10.553   2.044   4.869 -0.5296 -3.3209  1.0499
  819MOL0     H10512  10.830   2.181   4.929 -0.4565  0.8800  0.4122
  819MOL0     H10513  10.667   2.245   4.963  0.3467 -0.1047 -0.7333
  819MOL0     H10514  10.641   2.173   4.691  1.1280 -1.0847 -1.5865
  819MOL0     H10515  10.655   2.329   4.760 -1.6996 -1.4544 -0.7785
  819MOL0     H10516  10.921   2.432   4.779 -4.3481 -2.1419  3.1607
  819MOL0     H10517  11.145   2.483   4.688  4.5407  1.8727  1.1940
  819MOL0     H10518  11.241   2.341   4.711  1.5398  0.6309 -2.1258
  819MOL0     H10519  11.335   2.445   4.548  0.3219  0.4626 -1.2825
  819MOL0     H10520  11.255   2.333   4.456  1.6981  0.7648 -1.5701
  819MOL0     H10521  11.229   2.560   4.352 -0.4143  2.3083  0.6598
  819MOL0     H10522  11.163   2.618   4.508 -1.8740 -0.9533  0.1820
  819MOL0     H10523  10.957   2.493   4.468  0.3535 -0.2955 -0.4619
  819MOL0     H10524  11.024   2.444   4.311 -0.1946 -1.6459  1.4071
  819MOL0     H10525  10.927   2.865   4.205  0.2942 -0.8077  0.7022
  819MOL0     H10526  10.714   2.923   4.114  0.3477  0.8982  2.3710
  819MOL0     H10527  10.274   2.926   4.244  1.6295  0.1373 -0.5936
  819MOL0     H10528  10.047   3.032   4.174 -1.3498 -0.3321 -1.3730
  819MOL0     H10529  10.037   3.168   3.752  2.1881 -1.1317  1.2493
  819MOL0     H10530   9.949   3.019   3.811  0.5609 -0.2540  0.1806
  819MOL0     H10531   9.787   3.185   3.719  0.3982 -2.4085  0.2814
  819MOL0     H10532   9.772   3.208   3.892  0.5715  0.6568  0.4286
  819MOL0     H10533   9.953   3.400   3.866  1.1819 -1.0361 -0.9382
  819MOL0     H10534   9.924   3.381   3.690 -0.1824 -1.9559  0.5100
  819MOL0     H10535   9.803   3.562   3.745  1.2767 -0.3941 -0.2877
  819MOL0     H10536   9.767   3.510   3.909  2.1297 -2.7498  0.9782
  819MOL0     H10537   9.551   3.483   3.783  0.8414  3.3711 -1.3649
  819MOL0     H10538   9.622   3.324   3.789  1.5649 -0.7526  0.8622
  819MOL0     H10539   9.633   3.503   3.538 -0.2018 -0.1850  0.4355
  819MOL0     H10540   9.712   3.345   3.557 -0.3532  1.2121 -3.3409
  819MOL0     H10541   9.457   3.275   3.624 -1.4476 -0.6901 -0.9489
  819MOL0     H10542   9.510   3.260   3.468 -0.8538  1.7149 -1.1386
  819MOL0     H10543   9.448   3.508   3.433 -0.8599 -1.0600 -1.6808
  819MOL0     H10544   9.310   3.396   3.455  0.5757  0.7563 -0.6506
  819MOL0     H10545  10.220   3.143   3.809 -3.9582  2.0347  2.2443
  819MOL0     H10546  10.428   3.001   3.857 -0.7125 -0.2853 -0.8742
  819MOL0     H10547  10.568   2.543   4.261 -0.6738  0.9815  0.9582
  819MOL0     H10548  10.779   2.483   4.341 -0.7423 -1.6894 -2.2931
  819MOL0     H10549   9.984   1.674   4.866 -0.7070  0.8597  1.0852
  819MOL0     H10550   9.790   1.527   4.972  1.0037  0.7460 -1.2738
  819MOL0     H10551   9.712   1.133   5.359  0.1633  1.6598  1.6081
  819MOL0     H10552   9.517   0.996   5.415 -0.0244 -1.3291 -1.9233
  819MOL0     H10553   9.335   0.874   5.429 -1.2597 -2.3019  0.6666
  819MOL0     H10554   9.174   0.869   5.376 -0.0088 -0.0056  0.9423
  819MOL0     H10555   9.093   1.018   5.538 -0.1735 -0.0516 -0.3045
  819MOL0     H10556   9.253   1.102   5.563  0.8469  0.0784 -1.3526
  819MOL0     H10557   9.199   0.978   5.756  0.3286  2.8925 -0.8008
  819MOL0     H10558   9.341   0.917   5.671 -0.7537 -1.8247  0.6466
  819MOL0     H10559   9.186   0.722   5.597  2.4713  3.0818 -1.6171
  819MOL0     H10560   9.192   0.728   5.775  1.5784  0.4465 -0.7121
  819MOL0     H10561   8.793   0.847   5.702 -0.7454 -2.2180 -3.2355
  819MOL0     H10562   9.274   1.257   5.201  1.3498 -0.6413 -2.8917
  819MOL0     H10563   9.512   1.536   5.208  1.2835  2.1490 -2.6315
  819MOL0     H10564   9.518   1.467   5.048 -3.2206  1.7704 -2.5962
  819MOL0     H10565   9.356   1.483   5.136  0.2729 -1.5311  2.3484
  820MOL0     O10566   4.515   1.061   9.268 -0.3439  0.2916  0.3010
  820MOL0     C10567   4.471   1.011   9.164  0.2116 -0.6897  0.4224
  820MOL0     O10568   4.548   0.964   9.065 -0.7519  0.1977  0.1735
  820MOL0     C10569   4.681   0.986   9.064  0.1622  0.5841  0.5355
  820MOL0     C10570   4.727   1.121   9.081 -0.1474 -0.0049 -0.6110
  820MOL0     C10571   4.860   1.142   9.044  0.9899 -0.5917 -0.7580
  820MOL0     C10572   4.951   1.043   9.013  0.3364  0.3647 -0.1300
  820MOL0     O10573   5.074   1.089   8.998 -0.4702 -0.6034 -0.1846
  820MOL0     C10574   5.179   0.999   9.017  0.1631  0.0481 -0.7599
  820MOL0     C10575   5.290   1.088   9.066  0.1511  0.4495 -0.9114
  820MOL0     C10576   5.420   1.026   9.054 -0.8674  0.7103 -0.0805
  820MOL0     C10577   5.539   1.125   9.096  0.1908 -1.1056 -1.1841
  820MOL0     C10578   5.671   1.083   9.018 -0.8106 -0.9955 -0.0248
  820MOL0     C10579   5.800   1.139   9.097  0.3921  0.4506  0.1657
  820MOL0     C10580   5.933   1.144   9.016  0.6229 -0.3110  0.3965
  820MOL0     C10581   6.053   1.196   9.106 -0.1745  0.3621  0.0527
  820MOL0     N10582   6.151   1.280   9.034  0.6402 -1.0459 -0.3163
  820MOL0     C10583   6.233   1.233   8.929 -0.5281 -0.1092 -0.2463
  820MOL0     C10584   6.326   1.334   8.912 -0.3312  0.0179  0.9398
  820MOL0     C10585   6.436   1.345   8.817  0.3460  0.1375  0.2390
  820MOL0     C10586   6.558   1.255   8.852 -0.4437  0.6724 -0.4174
  820MOL0     C10587   6.616   1.289   8.993 -0.4359  0.3569 -0.4653
  820MOL0     C10588   6.753   1.221   9.017  0.6044  0.0160 -0.4116
  820MOL0     O10589   6.853   1.321   9.053 -0.3581  0.3544  0.1256
  820MOL0     C10590   6.985   1.273   9.083  1.5671 -0.7392  0.5607
  820MOL0     C10591   7.024   1.138   9.091  0.1130  0.0309  1.4377
  820MOL0     C10592   7.160   1.106   9.127 -0.0387 -0.4550  0.4261
  820MOL0     C10593   7.247   1.207   9.155 -0.6810 -0.5003  0.1764
  820MOL0     C10594   7.390   1.175   9.172  0.0517  0.2472 -0.8302
  820MOL0     O10595   7.427   1.048   9.196  0.4364 -0.0366  0.3868
  820MOL0     C10596   7.561   1.023   9.176  1.1708 -0.1754 -0.1738
  820MOL0     C10597   7.601   0.927   9.078  0.3674 -0.2573  1.1068
  820MOL0     C10598   7.737   0.904   9.052  0.3738  0.3975  0.3365
  820MOL0     C10599   7.843   0.953   9.124  0.0600 -0.0226  0.5106
  820MOL0     O10600   7.976   0.918   9.091  0.3457 -0.2107  0.3789
  820MOL0     C10601   8.083   0.936   9.183  0.0979 -0.3116 -0.1024
  820MOL0     C10602   8.204   0.845   9.161 -0.3147  0.1504  0.0762
  820MOL0     C10603   8.260   0.791   9.288  0.2807  0.7279 -0.0748
  820MOL0     C10604   8.375   0.688   9.283 -0.5258  0.2224 -0.7406
  820MOL0     C10605   8.405   0.625   9.426 -0.1276  0.5540  0.6529
  820MOL0     C10606   8.495   0.508   9.389 -0.1513 -0.6830 -0.2978
  820MOL0     C10607   8.541   0.436   9.520  0.3990  0.2719  0.6379
  820MOL0     C10608   8.639   0.321   9.483  1.1184 -0.4226  0.5485
  820MOL0    Cl10609   8.796   0.399   9.425 -0.0327  0.5322  0.1201
  820MOL0     C10610   7.802   1.036   9.230 -0.0118 -0.9365  0.5527
  820MOL0     C10611   7.666   1.072   9.254  0.5130 -0.6309  0.6569
  820MOL0     O10612   7.463   1.271   9.165  0.1276  0.5544  0.2272
  820MOL0     C10613   7.203   1.339   9.156  0.1323  0.1077 -0.0603
  820MOL0     C10614   7.074   1.370   9.116  0.4312  0.2571 -0.0556
  820MOL0     N10615   6.296   1.436   8.999  0.2211  0.0796 -0.2189
  820MOL0     N10616   6.186   1.411   9.066 -0.1461 -0.1485  0.2667
  820MOL0     C10617   4.905   0.910   9.022 -0.2365 -0.2992 -0.1889
  820MOL0     C10618   4.769   0.881   9.050 -0.3671 -0.8261 -0.0895
  820MOL0     C10619   4.323   0.998   9.139 -0.7578  0.2628  0.0568
  820MOL0     C10620   4.275   0.897   9.055 -0.7976 -0.1957  0.2409
  820MOL0     C10621   4.139   0.879   9.034 -0.6492  0.1673 -0.8755
  820MOL0     C10622   4.047   0.970   9.078 -0.2605 -0.2833 -0.6032
  820MOL0     O10623   3.913   0.968   9.065  0.4926 -0.0604 -0.5407
  820MOL0     C10624   3.863   0.881   8.957 -0.4111  0.0946  0.0984
  820MOL0     C10625   3.711   0.899   8.947  0.2922 -0.8906  0.1952
  820MOL0     C10626   3.622   0.817   8.851  0.3940  0.8144 -1.0210
  820MOL0     C10627   3.486   0.864   8.862  0.5247 -0.0940  0.8991
  820MOL0     C10628   3.399   0.805   8.761 -0.5050 -0.6563 -0.1027
  820MOL0     C10629   3.330   0.739   8.686 -0.9489  0.1835  0.0737
  820MOL0     C10630   4.098   1.076   9.159 -0.1270 -0.6908  0.4806
  820MOL0     C10631   4.234   1.096   9.187  0.0526 -0.3697  0.0113
  820MOL0     C10632   4.270   1.219   9.269  0.9359 -0.2613 -0.1880
  820MOL0     H10633   4.653   1.199   9.097  0.6280  0.1582  3.2198
  820MOL0     H10634   4.893   1.245   9.046 -1.1700  0.1474 -0.0202
  820MOL0     H10635   5.155   0.927   9.096  0.6282  1.4263  0.6781
  820MOL0     H10636   5.220   0.956   8.925  2.8528  0.6820  0.0635
  820MOL0     H10637   5.278   1.125   9.169 -1.6952  1.5226 -1.4590
  820MOL0     H10638   5.290   1.192   9.032 -0.9378  1.4761  1.8545
  820MOL0     H10639   5.441   0.988   8.954  0.7491 -0.4053  0.6521
  820MOL0     H10640   5.424   0.930   9.107 -0.5738 -1.6626 -4.0418
  820MOL0     H10641   5.530   1.233   9.081  0.2659 -1.0914 -1.1307
  820MOL0     H10642   5.557   1.094   9.200  2.1175 -3.1831 -2.0337
  820MOL0     H10643   5.687   0.975   9.005  0.3097 -0.9865  1.1200
  820MOL0     H10644   5.684   1.125   8.917 -0.4882 -0.2782  0.3125
  820MOL0     H10645   5.780   1.235   9.146  5.0629  0.3348  2.8233
  820MOL0     H10646   5.816   1.065   9.176  0.8284  0.3899  0.0226
  820MOL0     H10647   5.917   1.223   8.942  0.8576 -0.4718  0.1744
  820MOL0     H10648   5.954   1.054   8.958  0.2325  1.4685 -2.7145
  820MOL0     H10649   6.032   1.257   9.195 -0.6575 -0.7693  0.7291
  820MOL0     H10650   6.094   1.102   9.141 -0.1071  0.8155  1.2454
  820MOL0     H10651   6.218   1.148   8.863  2.2444 -0.4688 -0.5345
  820MOL0     H10652   6.390   1.308   8.724  1.1622 -2.7469  0.8997
  820MOL0     H10653   6.475   1.447   8.812 -1.1847  0.6927 -1.6498
  820MOL0     H10654   6.537   1.149   8.864 -3.6329  1.2742  0.0227
  820MOL0     H10655   6.633   1.258   8.772 -0.4556 -0.7122 -0.5005
  820MOL0     H10656   6.548   1.259   9.074 -2.1732 -1.8625 -2.6034
  820MOL0     H10657   6.634   1.395   9.013  0.2090 -0.0156  1.0757
  820MOL0     H10658   6.779   1.166   8.926 -3.0257 -2.2211 -0.3076
  820MOL0     H10659   6.749   1.145   9.096 -0.8184  0.3846 -0.0967
  820MOL0     H10660   6.950   1.064   9.065 -1.7568  2.5541 -0.9499
  820MOL0     H10661   7.185   1.000   9.134  0.2727 -0.3828  0.4088
  820MOL0     H10662   7.527   0.861   9.033  2.4932 -0.9655 -1.6420
  820MOL0     H10663   7.764   0.827   8.982 -2.3363  0.3233 -0.7725
  820MOL0     H10664   8.117   1.039   9.192 -4.8179  1.6006 -0.3675
  820MOL0     H10665   8.039   0.927   9.283  0.8041 -2.0487  0.0945
  820MOL0     H10666   8.185   0.754   9.103 -0.7441  0.9498 -1.0790
  820MOL0     H10667   8.288   0.895   9.112  0.5839 -1.2444  0.1395
  820MOL0     H10668   8.269   0.860   9.373 -0.7077  0.4123  0.2982
  820MOL0     H10669   8.181   0.726   9.324  1.5004 -1.1500 -0.6626
  820MOL0     H10670   8.460   0.748   9.246 -2.1616  3.3576  0.2154
  820MOL0     H10671   8.354   0.603   9.218 -0.8714 -0.5588  0.3843
  820MOL0     H10672   8.324   0.585   9.488 -0.5817  2.6106  1.4448
  820MOL0     H10673   8.452   0.702   9.488 -2.5477  2.8430 -0.1546
  820MOL0     H10674   8.441   0.436   9.327  1.6732 -1.1643 -1.4243
  820MOL0     H10675   8.582   0.547   9.336 -1.5822  1.3196 -1.3357
  820MOL0     H10676   8.447   0.401   9.565  0.7452 -0.1343  1.0535
  820MOL0     H10677   8.595   0.501   9.589  1.9632 -0.3971  0.0671
  820MOL0     H10678   8.642   0.260   9.573 -1.3693 -0.8854  0.3972
  820MOL0     H10679   8.594   0.259   9.404  1.2107 -0.4304  0.5024
  820MOL0     H10680   7.878   1.071   9.298  0.2387 -1.4260  0.5307
  820MOL0     H10681   7.636   1.140   9.333 -2.6342 -0.6233 -0.4016
  820MOL0     H10682   7.282   1.407   9.186  0.8833 -0.4835 -0.6465
  820MOL0     H10683   7.048   1.475   9.108  1.2570  0.3620 -1.9743
  820MOL0     H10684   4.976   0.827   9.018 -0.3049 -0.3668 -0.0151
  820MOL0     H10685   4.744   0.776   9.060  1.4318 -1.0914  2.6204
  820MOL0     H10686   4.342   0.830   9.002 -0.4226  1.3821 -1.3834
  820MOL0     H10687   4.105   0.786   8.988  0.1413  0.2094 -1.5654
  820MOL0     H10688   3.882   0.773   8.960  0.0847  0.1979  1.4516
  820MOL0     H10689   3.920   0.919   8.872  1.3152  1.2516  1.6764
  820MOL0     H10690   3.697   1.005   8.925  1.1707 -0.9324 -0.6224
  820MOL0     H10691   3.670   0.882   9.047 -0.2983 -1.3164 -0.1131
  820MOL0     H10692   3.630   0.711   8.876 -1.7919  1.1542  1.5814
  820MOL0     H10693   3.651   0.832   8.747  0.0443  2.1214 -0.9527
  820MOL0     H10694   3.440   0.832   8.956 -1.4842 -1.6714 -0.5266
  820MOL0     H10695   3.465   0.971   8.860 -0.2993 -0.2418  1.5286
  820MOL0     H10696   3.276   0.690   8.608  1.5199 -4.6418  0.9721
  820MOL0     H10697   4.031   1.153   9.195  1.2551  0.3962  0.7792
  820MOL0     H10698   4.196   1.295   9.240 -0.0694 -1.5762 -1.1841
  820MOL0     H10699   4.257   1.184   9.372  0.2441  0.5882  0.0275
  820MOL0     H10700   4.368   1.253   9.236  0.1408  0.9804 -1.4045
  821MOL0     O10701   2.124   9.012   6.733 -0.8049  1.5270 -0.2522
  821MOL0     C10702   2.137   9.123   6.770 -0.0964 -0.0888  0.0814
  821MOL0     O10703   2.039   9.209   6.813  0.1539 -0.5170 -0.2589
  821MOL0     C10704   1.912   9.157   6.826  0.2590 -0.2905  0.1556
  821MOL0     C10705   1.881   9.064   6.918 -0.8084  0.1716 -0.4835
  821MOL0     C10706   1.750   9.025   6.926  0.3005  0.7931  0.1216
  821MOL0     C10707   1.642   9.077   6.848 -0.3290  0.0472 -0.5091
  821MOL0     O10708   1.511   9.032   6.859 -0.2282 -0.7114 -0.4747
  821MOL0     C10709   1.454   9.028   6.994 -0.2319  0.5783 -0.5173
  821MOL0     C10710   1.303   9.002   6.998 -0.4803 -0.1490 -0.1483
  821MOL0     C10711   1.263   9.066   7.136  0.7897 -0.5923  0.1280
  821MOL0     C10712   1.118   9.024   7.170 -0.5680 -0.0190 -0.4922
  821MOL0     C10713   1.103   8.884   7.232 -0.1471  0.3008 -0.7031
  821MOL0     C10714   1.151   8.888   7.377 -0.0386 -0.6496  0.0067
  821MOL0     C10715   1.097   8.762   7.448  0.0705  0.5600  0.5780
  821MOL0     C10716   0.990   8.797   7.549  0.7287  0.5659 -0.4247
  821MOL0     N10717   0.851   8.805   7.495 -0.4233  0.0820  0.4788
  821MOL0     C10718   0.778   8.698   7.442  0.0500  1.0362 -0.4691
  821MOL0     C10719   0.659   8.758   7.401 -0.3435  0.0399 -0.4182
  821MOL0     C10720   0.557   8.678   7.337  0.1391  0.0230  0.2485
  821MOL0     C10721   0.523   8.746   7.204 -0.3947 -0.0915  0.3261
  821MOL0     C10722   0.635   8.731   7.101 -0.0634  0.5447  0.3902
  821MOL0     C10723   0.590   8.796   6.969 -0.5278  1.2895 -0.5521
  821MOL0     O10724   0.551   8.934   6.978  0.1312 -0.4396 -0.3285
  821MOL0     C10725   0.650   9.027   6.949  0.8594 -0.5473  0.1597
  821MOL0     C10726   0.788   8.998   6.924  0.8943  0.0103  0.0623
  821MOL0     C10727   0.880   9.103   6.887  0.0733  0.0689  0.1037
  821MOL0     C10728   0.837   9.243   6.872 -0.5518  1.1189 -0.6484
  821MOL0     C10729   0.922   9.346   6.819  0.4700 -0.2721  0.0380
  821MOL0     O10730   1.043   9.298   6.770  0.1963 -0.2649  0.1821
  821MOL0     C10731   1.137   9.393   6.741 -0.1606  0.7379 -0.5775
  821MOL0     C10732   1.102   9.490   6.645 -0.5546 -0.1165  0.0795
  821MOL0     C10733   1.200   9.593   6.609  0.2149  0.1071  0.0669
  821MOL0     C10734   1.331   9.589   6.664  0.9602 -0.0716  0.7667
  821MOL0     O10735   1.433   9.681   6.635 -0.2233  0.2178  0.6287
  821MOL0     C10736   1.408   9.808   6.701  0.2173 -0.4471 -0.0645
  821MOL0     C10737   1.553   9.863   6.727 -0.1077  0.2204 -0.3439
  821MOL0     C10738   1.544   9.982   6.830  0.4886 -0.6173  0.2631
  821MOL0     C10739   1.682  10.049   6.859 -0.4407 -0.9114 -0.3443
  821MOL0     C10740   1.675  10.185   6.935 -0.2494  0.1587  0.3359
  821MOL0     C10741   1.817  10.241   6.944 -0.4171 -0.2735 -0.8724
  821MOL0     C10742   1.910  10.182   7.050 -0.3015  0.6571  0.1901
  821MOL0     C10743   1.852  10.188   7.186  0.4305  0.2453 -0.5174
  821MOL0    Cl10744   1.804  10.370   7.226 -0.0193  0.1239 -0.1889
  821MOL0     C10745   1.365   9.491   6.749 -0.2258  0.1866 -0.8080
  821MOL0     C10746   1.270   9.388   6.786 -0.4795 -0.7200  0.0863
  821MOL0     O10747   0.889   9.462   6.835 -0.3060 -0.2950  0.3496
  821MOL0     C10748   0.705   9.266   6.907 -0.9280  0.1717  0.0689
  821MOL0     C10749   0.619   9.166   6.952 -0.1342  0.4019 -0.6141
  821MOL0     N10750   0.669   8.894   7.428  1.0021 -0.2639  0.1707
  821MOL0     N10751   0.777   8.919   7.490 -0.0156 -0.0631  0.1930
  821MOL0     C10752   1.671   9.178   6.755 -1.1233 -0.1258 -0.3484
  821MOL0     C10753   1.806   9.217   6.746 -0.3924  0.6259  0.3041
  821MOL0     C10754   2.276   9.157   6.766 -0.7486  0.4671 -0.8798
  821MOL0     C10755   2.368   9.071   6.818 -0.0260  0.0901  0.1775
  821MOL0     C10756   2.499   9.119   6.826 -0.1935  0.5157 -0.1285
  821MOL0     C10757   2.533   9.245   6.787  0.1986 -0.3306  0.8629
  821MOL0     O10758   2.646   9.315   6.812  0.5715  0.4357 -0.4900
  821MOL0     C10759   2.757   9.257   6.879  0.3165  0.2904  0.3815
  821MOL0     C10760   2.739   9.234   7.024  0.3165 -0.1766 -0.0279
  821MOL0     C10761   2.704   9.358   7.112 -0.6954  0.5992  0.2730
  821MOL0     C10762   2.828   9.443   7.146  0.0580  0.6411 -0.3947
  821MOL0     C10763   2.897   9.403   7.270  0.1775  0.4167 -0.0971
  821MOL0     C10764   2.971   9.389   7.370  0.7935 -0.6295 -0.3710
  821MOL0     C10765   2.439   9.325   6.716 -0.6632  0.7377 -1.0504
  821MOL0     C10766   2.305   9.277   6.704 -0.1951 -0.9587  0.0375
  821MOL0     C10767   2.215   9.373   6.628 -0.4711  0.3156 -0.8399
  821MOL0     H10768   1.948   9.018   6.990 -0.0700  1.7119 -0.1691
  821MOL0     H10769   1.727   8.956   7.006  2.9213  0.2656  0.5194
  821MOL0     H10770   1.503   8.960   7.064  0.8922  1.7225 -0.1536
  821MOL0     H10771   1.466   9.129   7.036  0.9116  0.5646 -0.8069
  821MOL0     H10772   1.275   8.896   7.004  0.8706 -0.4548  1.6554
  821MOL0     H10773   1.255   9.048   6.911  2.2295  1.1023 -1.0839
  821MOL0     H10774   1.260   9.174   7.119  0.8735 -0.8769 -1.9044
  821MOL0     H10775   1.333   9.044   7.217  1.6485  0.9224 -0.1683
  821MOL0     H10776   1.072   9.100   7.233 -0.0371 -1.0951  1.2665
  821MOL0     H10777   1.062   9.033   7.076 -0.1206 -2.0122 -1.0095
  821MOL0     H10778   0.996   8.866   7.232  0.1175 -1.5406 -2.2271
  821MOL0     H10779   1.153   8.803   7.178 -0.7271 -0.3990 -0.1915
  821MOL0     H10780   1.259   8.898   7.387 -0.2354  0.3941  1.5080
  821MOL0     H10781   1.112   8.976   7.430 -0.5681 -0.4410 -0.7086
  821MOL0     H10782   1.181   8.721   7.504 -1.9361 -0.1481  3.2770
  821MOL0     H10783   1.053   8.682   7.389  1.3789 -0.3781  0.8321
  821MOL0     H10784   0.987   8.712   7.619  1.4187 -1.6139 -2.8776
  821MOL0     H10785   1.011   8.885   7.610  1.7114  0.2516 -0.2768
  821MOL0     H10786   0.806   8.594   7.439 -1.5987  0.5522 -0.1066
  821MOL0     H10787   0.584   8.575   7.313 -2.1303 -0.9807  1.6661
  821MOL0     H10788   0.471   8.675   7.405 -1.3708  2.3633 -1.4278
  821MOL0     H10789   0.425   8.717   7.164 -0.2757  1.6205 -1.3441
  821MOL0     H10790   0.509   8.853   7.220  2.0187  0.4644 -0.8438
  821MOL0     H10791   0.669   8.631   7.075  0.3755  1.6267 -3.8346
  821MOL0     H10792   0.717   8.781   7.153 -0.1211  0.7255  0.3086
  821MOL0     H10793   0.512   8.736   6.921 -0.0371  0.9089 -0.8845
  821MOL0     H10794   0.666   8.783   6.891 -0.7995 -0.9086 -0.5095
  821MOL0     H10795   0.833   8.899   6.931 -1.5228 -1.0533  2.1263
  821MOL0     H10796   0.982   9.068   6.875  1.3375  2.0435  3.4583
  821MOL0     H10797   1.005   9.488   6.597  0.1268  1.3756 -1.4755
  821MOL0     H10798   1.155   9.656   6.534 -1.5073 -2.1748 -0.9481
  821MOL0     H10799   1.343   9.868   6.636  0.3332  1.2653  1.3067
  821MOL0     H10800   1.352   9.798   6.794  0.3953  0.8077  0.1968
  821MOL0     H10801   1.604   9.777   6.771 -2.1383 -2.2522 -2.4672
  821MOL0     H10802   1.600   9.907   6.638  1.2054  1.7159  1.0247
  821MOL0     H10803   1.484  10.061   6.784  1.6808  0.7587  0.9940
  821MOL0     H10804   1.495   9.949   6.922 -0.4993  0.9667  0.3554
  821MOL0     H10805   1.736  10.075   6.768 -1.0082  0.5872 -0.2862
  821MOL0     H10806   1.752   9.985   6.913  2.0115  1.3664 -0.5904
  821MOL0     H10807   1.631  10.169   7.033  0.0226  2.3479  0.8702
  821MOL0     H10808   1.609  10.258   6.887 -1.2799 -0.0432  1.3998
  821MOL0     H10809   1.871  10.227   6.850  1.1129  2.2341 -0.4405
  821MOL0     H10810   1.812  10.349   6.959  0.1571  0.1880 -3.4929
  821MOL0     H10811   1.999  10.247   7.052 -0.5964  1.2246 -2.3624
  821MOL0     H10812   1.941  10.080   7.026  0.3149 -0.0066  3.3051
  821MOL0     H10813   1.768  10.121   7.205 -0.4628  1.4806  0.0490
  821MOL0     H10814   1.932  10.169   7.258  0.0614  0.6627  0.0135
  821MOL0     H10815   1.469   9.469   6.772 -0.1625 -0.9466 -2.0559
  821MOL0     H10816   1.305   9.313   6.857 -1.8976 -0.7289  0.8158
  821MOL0     H10817   0.656   9.362   6.909 -0.3768  0.4792 -0.6529
  821MOL0     H10818   0.520   9.206   6.970 -0.0032  0.9860 -1.1852
  821MOL0     H10819   1.597   9.237   6.703 -0.0905  2.1532  0.6563
  821MOL0     H10820   1.838   9.301   6.685 -2.2665  0.5152 -0.9352
  821MOL0     H10821   2.349   8.975   6.866  2.8526 -0.4867  0.3164
  821MOL0     H10822   2.571   9.062   6.884  2.2002  4.0006  0.5944
  821MOL0     H10823   2.850   9.306   6.851  0.1696  1.1432  1.3396
  821MOL0     H10824   2.777   9.159   6.836  2.4798 -0.3594  2.6563
  821MOL0     H10825   2.830   9.183   7.057  0.9986  0.1581 -1.3084
  821MOL0     H10826   2.654   9.165   7.030  1.1491 -1.3278 -0.9347
  821MOL0     H10827   2.667   9.318   7.207 -1.9410 -2.0623 -1.2019
  821MOL0     H10828   2.622   9.410   7.062  0.6593  0.2295 -2.5160
  821MOL0     H10829   2.904   9.424   7.068  0.2117  2.1963 -0.6519
  821MOL0     H10830   2.794   9.547   7.152  0.0257  0.6888 -1.2773
  821MOL0     H10831   3.017   9.390   7.466  1.3470  2.3554 -0.5854
  821MOL0     H10832   2.468   9.419   6.670  1.1487  0.2395 -1.0147
  821MOL0     H10833   2.187   9.455   6.695 -0.1129 -1.0867  1.1136
  821MOL0     H10834   2.259   9.407   6.534  2.3869  0.1183  0.3261
  821MOL0     H10835   2.121   9.326   6.598 -1.5659  1.2000  1.0490
  822MOL0     O10836  10.770   4.235   1.614 -0.2877 -0.4934 -1.1763
  822MOL0     C10837  10.804   4.268   1.507 -0.1993 -0.2302  0.4814
  822MOL0     O10838  10.854   4.182   1.409  0.3181 -0.0949 -0.1382
  822MOL0     C10839  10.915   4.061   1.449 -0.6792 -0.7230 -0.1700
  822MOL0     C10840  10.923   3.959   1.355 -0.2993 -0.1506 -0.5105
  822MOL0     C10841  11.005   3.844   1.380  0.1286 -0.2552  0.8508
  822MOL0     C10842  11.065   3.826   1.500  0.2446 -0.0447 -0.3006
  822MOL0     O10843  11.164   3.733   1.507 -0.7335  0.0227  0.2072
  822MOL0     C10844  11.176   3.635   1.622 -0.6499 -0.6706 -0.5489
  822MOL0     C10845  11.308   3.563   1.599  0.8195 -0.1589  0.5718
  822MOL0     C10846  11.329   3.449   1.689  0.2106 -0.3902 -0.2054
  822MOL0     C10847  11.478   3.436   1.693  0.3826 -0.2837 -0.5488
  822MOL0     C10848  11.516   3.337   1.797  0.2888 -0.4215 -0.3397
  822MOL0     C10849  11.527   3.198   1.730  0.6622 -0.0556 -0.2970
  822MOL0     C10850  11.557   3.081   1.830 -0.2880  0.7046 -0.9271
  822MOL0     C10851  11.561   2.955   1.754 -0.3387 -0.7743 -0.6316
  822MOL0     N10852  11.684   2.935   1.678 -0.4166  0.4901 -0.0695
  822MOL0     C10853  11.694   2.975   1.549  0.1076  0.2823 -0.6947
  822MOL0     C10854  11.816   2.937   1.511  0.6213  0.1310  0.8411
  822MOL0     C10855  11.861   2.928   1.364 -0.9642 -0.0079 -0.7063
  822MOL0     C10856  11.914   3.057   1.308 -0.1241 -0.8354 -0.4521
  822MOL0     C10857  11.954   3.070   1.156  0.2653 -0.4976 -0.2964
  822MOL0     C10858  12.002   3.210   1.119 -0.0374  0.3996 -0.4258
  822MOL0     O10859  12.094   3.260   1.220  0.1948  0.8297 -0.3042
  822MOL0     C10860  12.156   3.382   1.216 -0.2912  0.1374  0.6415
  822MOL0     C10861  12.142   3.479   1.119 -0.0067 -0.3997  0.7755
  822MOL0     C10862  12.191   3.608   1.126  0.5586  0.0228  0.4142
  822MOL0     C10863  12.252   3.637   1.250  0.3923  0.7467 -0.0379
  822MOL0     C10864  12.296   3.779   1.270 -0.4324 -0.3710  0.2492
  822MOL0     O10865  12.240   3.884   1.193  0.4110 -0.5181 -0.3126
  822MOL0     C10866  12.297   4.007   1.168  0.1026  0.2116 -1.1771
  822MOL0     C10867  12.214   4.094   1.098 -0.8415 -0.5160 -0.1695
  822MOL0     C10868  12.270   4.220   1.058  0.2324  0.5822  0.2783
  822MOL0     C10869  12.402   4.266   1.101  1.2954 -0.0512  0.2444
  822MOL0     O10870  12.450   4.396   1.104 -0.1913 -0.2010  0.5508
  822MOL0     C10871  12.386   4.499   1.022 -0.3374  0.0974 -0.2036
  822MOL0     C10872  12.424   4.651   1.023  0.2590  0.3448 -0.5460
  822MOL0     C10873  12.563   4.703   1.074 -0.0446  0.5392 -0.1037
  822MOL0     C10874  12.681   4.662   0.975 -0.1450  0.5578 -0.8071
  822MOL0     C10875  12.817   4.636   1.038  0.1657  1.1288 -0.5525
  822MOL0     C10876  12.922   4.652   0.933 -0.6830 -0.9691 -0.8098
  822MOL0     C10877  13.064   4.643   1.004  0.5080  0.5094 -0.0886
  822MOL0     C10878  13.170   4.703   0.912 -0.2287 -0.1739 -0.7051
  822MOL0    Cl10879  13.322   4.680   1.015  0.0808 -0.3039  0.0740
  822MOL0     C10880  12.478   4.173   1.170  0.2962  0.5434  0.6816
  822MOL0     C10881  12.431   4.048   1.199  1.1649 -0.7494 -0.8257
  822MOL0     O10882  12.382   3.800   1.352 -0.3368  0.1977 -0.0202
  822MOL0     C10883  12.277   3.552   1.349  0.9106  0.5136  0.5533
  822MOL0     C10884  12.236   3.419   1.326  0.1455  0.1385 -0.5423
  822MOL0     N10885  11.878   2.872   1.620 -0.1108  0.5923 -0.0529
  822MOL0     N10886  11.797   2.875   1.722 -0.1811  0.2408  0.1327
  822MOL0     C10887  11.060   3.919   1.593  0.0979  0.3936 -0.4682
  822MOL0     C10888  10.986   4.034   1.572  0.5654 -0.7310  0.1702
  822MOL0     C10889  10.778   4.405   1.458  0.0928 -0.2852 -0.7211
  822MOL0     C10890  10.831   4.444   1.331  0.6454  0.1567 -0.2069
  822MOL0     C10891  10.809   4.573   1.284  0.9337  0.2275 -0.4320
  822MOL0     C10892  10.731   4.664   1.362 -0.2998 -0.3803  0.3866
  822MOL0     O10893  10.728   4.784   1.305 -0.4852 -0.5338 -0.1841
  822MOL0     C10894  10.646   4.886   1.370 -0.1195 -0.3609 -0.1572
  822MOL0     C10895  10.639   5.009   1.285  0.4390 -1.0052 -1.4426
  822MOL0     C10896  10.585   5.133   1.366  0.2582 -0.2822  0.5031
  822MOL0     C10897  10.572   5.245   1.264 -0.2695 -0.4699 -0.5167
  822MOL0     C10898  10.534   5.364   1.334  0.2357  0.4004  0.3552
  822MOL0     C10899  10.494   5.468   1.389  0.1291 -0.1479  0.3976
  822MOL0     C10900  10.694   4.639   1.490  1.4252 -0.6018 -0.3902
  822MOL0     C10901  10.713   4.507   1.539  0.5962  0.1573 -0.2798
  822MOL0     C10902  10.635   4.481   1.672 -0.3021 -0.4596 -0.1944
  822MOL0     H10903  10.874   3.979   1.261 -0.2788  3.3494  0.1141
  822MOL0     H10904  11.005   3.771   1.300 -3.4228  1.4503 -0.9016
  822MOL0     H10905  11.188   3.686   1.718  1.3438  1.9098 -2.0108
  822MOL0     H10906  11.095   3.562   1.626 -2.7286  1.2611 -3.5974
  822MOL0     H10907  11.382   3.643   1.603 -0.1464  0.7076  2.7972
  822MOL0     H10908  11.304   3.519   1.499  1.2107 -0.5919  0.7397
  822MOL0     H10909  11.285   3.356   1.651  0.2549 -1.7828  2.8990
  822MOL0     H10910  11.281   3.460   1.786  0.1499  2.1231 -0.4578
  822MOL0     H10911  11.508   3.409   1.591 -3.7442  0.8937 -2.2609
  822MOL0     H10912  11.525   3.532   1.717 -0.3511 -0.5160  2.1405
  822MOL0     H10913  11.618   3.362   1.828 -0.0847  2.1763 -1.0225
  822MOL0     H10914  11.456   3.338   1.888  0.3580  1.8765 -0.2724
  822MOL0     H10915  11.432   3.170   1.684  1.6132 -1.0284 -1.7572
  822MOL0     H10916  11.605   3.194   1.653  0.4848  0.5215 -0.5190
  822MOL0     H10917  11.481   3.078   1.908  0.1400  1.0234 -0.4886
  822MOL0     H10918  11.659   3.098   1.867  0.4380 -2.4630 -1.1365
  822MOL0     H10919  11.574   2.877   1.830  3.9864  0.9677  0.7301
  822MOL0     H10920  11.471   2.946   1.693 -0.3341 -0.3348 -0.7039
  822MOL0     H10921  11.620   3.027   1.489 -0.4607 -0.7770 -0.9429
  822MOL0     H10922  11.935   2.848   1.363 -1.0907 -0.1501  0.3171
  822MOL0     H10923  11.781   2.901   1.295 -0.9264  2.2383 -1.7376
  822MOL0     H10924  11.863   3.149   1.338  0.3285 -0.4046 -0.9654
  822MOL0     H10925  12.013   3.072   1.354  0.7532 -0.0396 -2.4840
  822MOL0     H10926  11.871   3.051   1.086  1.7844 -0.6444 -2.1448
  822MOL0     H10927  12.032   2.996   1.135  2.0232  0.7861  1.3678
  822MOL0     H10928  11.921   3.284   1.130 -1.1563 -1.0079  1.6129
  822MOL0     H10929  12.037   3.207   1.016  0.7990 -2.3656 -0.1360
  822MOL0     H10930  12.087   3.446   1.032  2.4053 -1.7003 -0.3657
  822MOL0     H10931  12.173   3.684   1.051 -0.2436  1.7606  2.2447
  822MOL0     H10932  12.112   4.076   1.067 -2.0145 -1.4181  3.6893
  822MOL0     H10933  12.207   4.296   1.014 -1.3073 -1.3085 -0.9482
  822MOL0     H10934  12.364   4.466   0.920 -1.7722  0.1535  0.0676
  822MOL0     H10935  12.288   4.498   1.071 -0.8402  3.0424 -0.9554
  822MOL0     H10936  12.411   4.690   0.922  2.2635 -0.8879 -1.3528
  822MOL0     H10937  12.352   4.689   1.096 -0.8654 -0.5571 -1.1489
  822MOL0     H10938  12.563   4.812   1.071  1.6575  0.5715 -0.5284
  822MOL0     H10939  12.595   4.667   1.172  0.5568 -1.9062 -1.1190
  822MOL0     H10940  12.697   4.747   0.909  0.8337 -0.7137 -2.2682
  822MOL0     H10941  12.652   4.579   0.909 -2.2453  1.3497 -0.9475
  822MOL0     H10942  12.814   4.538   1.086 -1.9251  1.7579  0.7503
  822MOL0     H10943  12.820   4.704   1.124 -0.2761  0.3325  0.1019
  822MOL0     H10944  12.917   4.577   0.853 -2.8419  0.2877 -1.9355
  822MOL0     H10945  12.912   4.749   0.884  4.4526  0.1948 -0.0353
  822MOL0     H10946  13.091   4.540   1.028  3.3412  1.3636  0.7547
  822MOL0     H10947  13.047   4.710   1.089 -2.4088 -0.2502  0.0389
  822MOL0     H10948  13.189   4.662   0.813 -1.4683  2.2681 -2.0386
  822MOL0     H10949  13.143   4.809   0.912  1.5281  0.4846  3.2861
  822MOL0     H10950  12.573   4.195   1.216  0.0114  1.4262  0.8706
  822MOL0     H10951  12.494   3.979   1.255 -2.2735 -2.0247  1.8052
  822MOL0     H10952  12.318   3.596   1.440  1.0425  1.5276  0.0145
  822MOL0     H10953  12.250   3.335   1.394  1.9372  1.4869  0.8709
  822MOL0     H10954  11.103   3.918   1.693  0.0456  0.1640 -0.4455
  822MOL0     H10955  10.988   4.117   1.642  2.3146  2.4774 -3.2545
  822MOL0     H10956  10.890   4.377   1.269  3.1830  2.6288 -0.6518
  822MOL0     H10957  10.834   4.601   1.183 -2.6348 -0.3287 -1.6180
  822MOL0     H10958  10.693   4.909   1.466 -1.3085 -0.6111  0.5168
  822MOL0     H10959  10.544   4.847   1.384 -0.6193  0.4852 -1.2667
  822MOL0     H10960  10.581   4.984   1.196  0.9529  0.4831 -2.2374
  822MOL0     H10961  10.743   5.038   1.263  0.6540 -2.0788 -1.9240
  822MOL0     H10962  10.655   5.151   1.449 -2.0111  2.5392  1.9773
  822MOL0     H10963  10.492   5.122   1.423  0.1309  2.8216  1.0798
  822MOL0     H10964  10.664   5.271   1.210 -0.9145  0.5488 -1.1528
  822MOL0     H10965  10.503   5.220   1.184 -0.9128 -2.1784  0.5221
  822MOL0     H10966  10.470   5.554   1.449  0.0689 -0.5717  0.9876
  822MOL0     H10967  10.649   4.715   1.553 -1.4873  1.3116 -4.3394
  822MOL0     H10968  10.675   4.531   1.760 -3.1396 -1.6423  1.9491
  822MOL0     H10969  10.533   4.519   1.665 -0.2338  0.3322  2.2492
  822MOL0     H10970  10.630   4.377   1.707  1.0800 -1.0146 -1.5189
  823MOL0     O10971   3.150   9.126   9.415 -0.3574 -0.0897 -0.4914
  823MOL0     C10972   3.196   9.035   9.349  0.2901  0.9220  0.0442
  823MOL0     O10973   3.322   8.994   9.344 -0.0096 -0.5515  0.1467
  823MOL0     C10974   3.405   9.078   9.417 -0.1253 -0.4684 -0.0140
  823MOL0     C10975   3.403   9.078   9.557  0.3009  0.2358  0.1144
  823MOL0     C10976   3.483   9.157   9.639  0.3234 -0.9808  0.0464
  823MOL0     C10977   3.570   9.252   9.577 -0.1467 -0.7309  0.4234
  823MOL0     O10978   3.655   9.337   9.651  1.0884 -0.8954  0.0082
  823MOL0     C10979   3.702   9.287   9.774 -0.0195 -1.0268  0.1135
  823MOL0     C10980   3.811   9.379   9.822  0.5844 -1.7186  0.2150
  823MOL0     C10981   3.945   9.340   9.783  0.0159  0.2497 -0.6284
  823MOL0     C10982   3.960   9.293   9.640 -0.0037 -0.1436  0.4460
  823MOL0     C10983   4.102   9.258   9.602  0.1741  0.2579  0.2555
  823MOL0     C10984   4.209   9.371   9.628  0.2238  0.5647  0.5963
  823MOL0     C10985   4.357   9.330   9.583  0.4866 -0.9384 -0.2219
  823MOL0     C10986   4.458   9.451   9.590  1.1753  0.2709 -0.0082
  823MOL0     N10987   4.594   9.408   9.560  0.3234  0.5633  0.1380
  823MOL0     C10988   4.668   9.328   9.646 -0.0938  0.1572 -0.5669
  823MOL0     C10989   4.794   9.328   9.586 -0.2481  0.6804  0.2551
  823MOL0     C10990   4.917   9.272   9.657  0.1131  0.2475  0.1955
  823MOL0     C10991   5.010   9.195   9.561 -0.1541  1.0063  0.1464
  823MOL0     C10992   5.146   9.187   9.609  0.4269 -0.1332 -0.8398
  823MOL0     C10993   5.165   9.065   9.697  0.3196 -0.0812 -1.3552
  823MOL0     O10994   5.195   8.951   9.611 -0.1699  0.2689 -0.5164
  823MOL0     C10995   5.179   8.824   9.663  0.4960  0.6300 -0.0577
  823MOL0     C10996   5.057   8.774   9.704  0.8988  1.0610 -0.2351
  823MOL0     C10997   5.060   8.644   9.767 -0.8395  0.4839  0.8751
  823MOL0     C10998   5.184   8.571   9.785 -0.2485  0.2167 -0.4307
  823MOL0     C10999   5.186   8.448   9.875 -0.7618  0.2635 -0.0486
  823MOL0     O11000   5.072   8.406   9.940  0.2085 -0.3938  0.3498
  823MOL0     C11001   5.073   8.284  10.000  0.3509 -0.1131 -0.8654
  823MOL0     C11002   5.119   8.178   9.925  0.5633 -0.7849  1.0964
  823MOL0     C11003   5.088   8.046   9.973 -0.2124 -0.4216  0.3521
  823MOL0     C11004   4.997   8.025  10.078 -0.1460  0.2307 -0.1275
  823MOL0     O11005   4.943   7.900  10.109  0.4129 -0.1771  0.7845
  823MOL0     C11006   4.998   7.783  10.048 -0.5800 -0.9134 -0.0136
  823MOL0     C11007   4.913   7.673  10.095  0.0022 -0.2954 -0.3568
  823MOL0     C11008   4.975   7.542  10.049 -0.0949  0.7149 -0.8927
  823MOL0     C11009   4.934   7.424  10.136 -0.9857 -0.2831  0.2734
  823MOL0     C11010   4.998   7.294  10.069  0.2868 -0.6728 -0.5695
  823MOL0     C11011   5.154   7.285  10.076 -0.1908  0.5272  0.2067
  823MOL0     C11012   5.230   7.211   9.960 -0.5335 -0.2342 -0.1848
  823MOL0     C11013   5.208   7.063   9.969 -0.2949  0.0100 -0.3580
  823MOL0    Cl11014   5.258   7.012  10.134 -0.0897 -0.3060  0.2081
  823MOL0     C11015   4.957   8.129  10.156  0.3384  0.6901  0.6909
  823MOL0     C11016   4.999   8.257  10.117  1.0417  1.2385 -0.0389
  823MOL0     O11017   5.296   8.390   9.895  0.5119  0.4024  0.0343
  823MOL0     C11018   5.300   8.631   9.741 -0.1023  0.3172  0.9779
  823MOL0     C11019   5.300   8.758   9.688  0.7811  0.0526  0.7422
  823MOL0     N11020   4.788   9.403   9.471  0.6457 -0.3095 -0.2187
  823MOL0     N11021   4.668   9.444   9.456  0.4693  0.3348 -0.1878
  823MOL0     C11022   3.568   9.261   9.433 -0.1312  0.9364  0.6311
  823MOL0     C11023   3.488   9.176   9.357 -0.4179  0.9663 -0.2843
  823MOL0     C11024   3.079   8.971   9.272 -0.6410  0.6100 -0.4359
  823MOL0     C11025   2.953   9.022   9.269  0.6795 -0.1301 -0.0086
  823MOL0     C11026   2.839   8.966   9.198  0.4582  0.0553  0.2942
  823MOL0     C11027   2.859   8.851   9.117  0.4716  0.4439  0.3219
  823MOL0     O11028   2.763   8.791   9.043  1.0937 -0.5157 -0.0456
  823MOL0     C11029   2.627   8.848   9.024  0.2895  0.1538 -0.1440
  823MOL0     C11030   2.544   8.810   9.156  0.5462 -0.5072 -0.4682
  823MOL0     C11031   2.547   8.668   9.181 -0.3794  0.3402 -0.7098
  823MOL0     C11032   2.459   8.628   9.308  0.1622 -0.0526 -0.0427
  823MOL0     C11033   2.501   8.707   9.426 -0.4657  0.3172 -0.0748
  823MOL0     C11034   2.528   8.782   9.515  0.1520 -0.0307 -0.4188
  823MOL0     C11035   2.986   8.794   9.114 -0.9682 -0.4121  0.0293
  823MOL0     C11036   3.097   8.862   9.181 -0.8993  0.9550 -0.3444
  823MOL0     C11037   3.232   8.797   9.152  0.7425  0.0423  0.3046
  823MOL0     H11038   3.319   9.019   9.591 -1.0948  1.4534 -1.0572
  823MOL0     H11039   3.470   9.151   9.746  3.6145 -1.4391  0.5194
  823MOL0     H11040   3.622   9.293   9.848 -1.3001 -3.2118 -1.0256
  823MOL0     H11041   3.729   9.183   9.751 -0.9058 -1.2872  0.2193
  823MOL0     H11042   3.807   9.375   9.931 -1.6796 -0.4639  0.2333
  823MOL0     H11043   3.784   9.481   9.792  0.3712 -2.4379 -2.2426
  823MOL0     H11044   3.991   9.273   9.857 -2.0868 -0.4776  0.1082
  823MOL0     H11045   4.000   9.434   9.795 -0.9571  0.5665  2.1430
  823MOL0     H11046   3.908   9.200   9.614  1.8340 -1.0066 -0.3066
  823MOL0     H11047   3.922   9.375   9.580 -0.7507 -1.2838 -0.6880
  823MOL0     H11048   4.135   9.167   9.653 -0.1343 -0.5369 -0.9334
  823MOL0     H11049   4.098   9.235   9.495 -4.1576 -2.8307  0.7986
  823MOL0     H11050   4.181   9.464   9.578  0.8060 -0.3894 -1.6136
  823MOL0     H11051   4.215   9.398   9.734 -0.0494 -0.2147  0.8149
  823MOL0     H11052   4.348   9.302   9.478 -0.6023  1.3324 -0.7897
  823MOL0     H11053   4.395   9.260   9.658  0.5736  1.3571  2.0055
  823MOL0     H11054   4.415   9.532   9.529 -0.2800 -0.3145  0.2009
  823MOL0     H11055   4.460   9.501   9.687  1.3838 -0.6517  0.4724
  823MOL0     H11056   4.645   9.287   9.744  3.3511  0.4305  0.4716
  823MOL0     H11057   4.968   9.362   9.691  0.9031  0.2128 -0.8349
  823MOL0     H11058   4.887   9.201   9.734 -2.0903 -0.4767 -1.2214
  823MOL0     H11059   4.973   9.099   9.524 -0.6416 -0.0303  3.0866
  823MOL0     H11060   5.009   9.248   9.465 -2.0594 -2.0673 -1.6961
  823MOL0     H11061   5.165   9.275   9.672 -0.2379 -1.2743  1.0123
  823MOL0     H11062   5.217   9.191   9.525  1.1845 -0.6306 -0.2383
  823MOL0     H11063   5.077   9.043   9.759  1.3893 -1.6988 -0.3439
  823MOL0     H11064   5.244   9.087   9.769 -2.4630 -0.3048  2.0187
  823MOL0     H11065   4.972   8.839   9.690  0.1514 -0.1947 -1.8236
  823MOL0     H11066   4.964   8.605   9.802 -0.5784  1.8395  3.3188
  823MOL0     H11067   5.167   8.187   9.828 -0.9401 -0.7205  0.3163
  823MOL0     H11068   5.119   7.960   9.914 -0.1178 -0.9691  1.1843
  823MOL0     H11069   5.010   7.792   9.939 -1.9969 -0.3258 -0.1528
  823MOL0     H11070   5.096   7.754  10.087 -0.7973  0.6160  1.7882
  823MOL0     H11071   4.913   7.680  10.204  1.1202 -3.0186 -0.1128
  823MOL0     H11072   4.808   7.675  10.064 -0.7029 -0.3627  1.8355
  823MOL0     H11073   4.952   7.532   9.943 -0.7026  0.3169 -0.7321
  823MOL0     H11074   5.083   7.555  10.062  0.0231 -0.8462 -0.0891
  823MOL0     H11075   4.825   7.416  10.145 -1.0940 -2.1475 -1.7613
  823MOL0     H11076   4.979   7.421  10.235 -0.1587  0.4061 -0.0777
  823MOL0     H11077   4.971   7.289   9.963  3.1794 -0.2815 -1.4167
  823MOL0     H11078   4.963   7.210  10.130 -0.7991  1.6883  2.2601
  823MOL0     H11079   5.194   7.387  10.079  1.5354 -0.0950 -0.4898
  823MOL0     H11080   5.178   7.252  10.178 -0.1859  0.8664  0.3178
  823MOL0     H11081   5.333   7.229   9.991 -1.2339  2.4837  0.8308
  823MOL0     H11082   5.197   7.245   9.862  1.8846 -2.2211 -1.8015
  823MOL0     H11083   5.105   7.037   9.943 -0.9044 -0.2583  2.0780
  823MOL0     H11084   5.272   7.007   9.900 -2.9542 -2.1230 -1.2783
  823MOL0     H11085   4.887   8.111  10.237 -1.0197  0.3788 -0.5157
  823MOL0     H11086   4.950   8.331  10.180 -1.9628  0.3983 -1.1746
  823MOL0     H11087   5.396   8.580   9.749 -1.7926 -3.4284 -0.7159
  823MOL0     H11088   5.396   8.787   9.647 -1.0078  0.3585 -3.8205
  823MOL0     H11089   3.631   9.337   9.389 -0.1167  0.1752 -0.7302
  823MOL0     H11090   3.484   9.179   9.249 -0.2298 -0.2923 -0.3374
  823MOL0     H11091   2.926   9.117   9.314 -0.9143  0.0795 -1.3051
  823MOL0     H11092   2.741   9.013   9.203  2.1567  4.3035 -1.6915
  823MOL0     H11093   2.587   8.797   8.935  1.0257 -0.7647  0.0319
  823MOL0     H11094   2.619   8.956   9.009  1.6116  0.4083  0.7675
  823MOL0     H11095   2.442   8.847   9.153  1.1964  1.4435 -0.1003
  823MOL0     H11096   2.595   8.868   9.234 -1.0958  1.6870 -0.9201
  823MOL0     H11097   2.648   8.629   9.198 -0.8701 -1.5033 -1.7770
  823MOL0     H11098   2.520   8.609   9.093  4.2094  0.7885 -2.7206
  823MOL0     H11099   2.351   8.630   9.289 -0.6731 -0.6009  3.8276
  823MOL0     H11100   2.475   8.520   9.321 -1.4336 -0.4297 -0.9638
  823MOL0     H11101   2.548   8.841   9.603 -0.4849  1.0596 -0.9858
  823MOL0     H11102   3.003   8.724   9.033 -0.8690  1.6625 -1.8374
  823MOL0     H11103   3.317   8.866   9.144  2.4175 -1.9977 -0.2716
  823MOL0     H11104   3.248   8.736   9.241 -0.2743 -0.5454  0.1006
  823MOL0     H11105   3.239   8.737   9.061  2.1211 -0.1345  0.5058
  824MOL0     O11106   3.058   5.528   0.947 -0.2105 -0.7525  0.3964
  824MOL0     C11107   2.976   5.502   1.029 -0.2956  0.9722  0.4269
  824MOL0     O11108   2.984   5.523   1.165  0.5747  0.8804 -1.2828
  824MOL0     C11109   3.093   5.597   1.226  0.1441  1.2910  0.1932
  824MOL0     C11110   3.109   5.573   1.357  0.5380 -0.3102 -0.6326
  824MOL0     C11111   3.225   5.628   1.426 -0.6084 -0.1617  0.0682
  824MOL0     C11112   3.302   5.734   1.367 -0.2062  0.3655  0.6859
  824MOL0     O11113   3.387   5.808   1.452  0.2410  0.0323 -0.1009
  824MOL0     C11114   3.486   5.892   1.391 -0.4577 -0.0184  0.1081
  824MOL0     C11115   3.573   5.950   1.495  0.0624  0.0703 -1.4072
  824MOL0     C11116   3.684   6.037   1.437 -0.4397  0.9831  0.4031
  824MOL0     C11117   3.650   6.178   1.392  0.6516  1.4578  0.0830
  824MOL0     C11118   3.739   6.274   1.465 -0.1766 -0.6306 -0.4696
  824MOL0     C11119   3.693   6.415   1.433 -0.1974 -0.0012 -0.2495
  824MOL0     C11120   3.574   6.464   1.523  0.1814  0.3680 -0.5645
  824MOL0     C11121   3.502   6.590   1.459 -0.9446  0.2750 -0.0728
  824MOL0     N11122   3.602   6.691   1.416 -0.5189  0.1411  0.1702
  824MOL0     C11123   3.641   6.713   1.281 -0.4805  0.7923  0.0322
  824MOL0     C11124   3.750   6.789   1.291  0.8122 -0.3538 -0.0900
  824MOL0     C11125   3.839   6.839   1.173  0.9499  0.0593  0.1562
  824MOL0     C11126   3.894   6.725   1.089 -0.5932  0.2956  0.6891
  824MOL0     C11127   3.970   6.629   1.177  0.9762  1.4650 -0.5760
  824MOL0     C11128   4.096   6.694   1.238 -0.1179 -0.6334  0.7420
  824MOL0     O11129   4.187   6.595   1.284 -0.0570  0.4968 -0.3291
  824MOL0     C11130   4.298   6.634   1.353  0.2600 -0.9520  0.1884
  824MOL0     C11131   4.351   6.767   1.358 -0.0894  0.1243  0.2481
  824MOL0     C11132   4.450   6.785   1.450 -0.2059 -0.5231  0.7274
  824MOL0     C11133   4.502   6.681   1.534 -0.2073  0.1828 -0.6470
  824MOL0     C11134   4.597   6.712   1.649  0.6954 -0.1975  0.8280
  824MOL0     O11135   4.639   6.605   1.727  0.7405  0.1349  0.4600
  824MOL0     C11136   4.712   6.636   1.837 -0.1829 -0.2427  0.4092
  824MOL0     C11137   4.687   6.739   1.919 -0.4214  1.1137  0.5453
  824MOL0     C11138   4.768   6.785   2.022 -0.0653  0.0416  0.2412
  824MOL0     C11139   4.880   6.703   2.054  0.6411 -0.7224 -0.3398
  824MOL0     O11140   4.950   6.737   2.172  0.3611  0.1690  0.4292
  824MOL0     C11141   5.002   6.631   2.248 -0.1530 -0.0578  0.7689
  824MOL0     C11142   5.061   6.677   2.378 -0.1532 -0.1790  0.6127
  824MOL0     C11143   5.146   6.557   2.430 -0.4351  0.5300 -0.1922
  824MOL0     C11144   5.201   6.592   2.570 -0.5548  0.1292 -0.6360
  824MOL0     C11145   5.253   6.470   2.643 -0.7695 -0.8837  0.1233
  824MOL0     C11146   5.406   6.476   2.658  0.1591 -0.0287  1.1713
  824MOL0     C11147   5.463   6.379   2.766  0.7185 -0.2136  0.7736
  824MOL0     C11148   5.448   6.236   2.732 -0.8470  0.9084 -0.0862
  824MOL0    Cl11149   5.563   6.189   2.596 -0.0289 -0.0439  0.6397
  824MOL0     C11150   4.904   6.594   1.976  0.6363  0.0834  0.7575
  824MOL0     C11151   4.818   6.557   1.871  0.5362 -0.4599 -0.2140
  824MOL0     O11152   4.620   6.834   1.661 -0.2881 -1.3051 -0.3979
  824MOL0     C11153   4.445   6.551   1.520 -0.8791  0.2436  0.4622
  824MOL0     C11154   4.351   6.527   1.426  0.0121  0.0232  0.3841
  824MOL0     N11155   3.778   6.808   1.429  0.2254  0.7080 -1.0180
  824MOL0     N11156   3.689   6.748   1.498  0.9238 -0.2118 -0.3225
  824MOL0     C11157   3.276   5.766   1.235  0.2176 -0.2165  0.5844
  824MOL0     C11158   3.181   5.684   1.165 -0.7116  0.1536 -0.2166
  824MOL0     C11159   2.856   5.413   0.993 -0.0101  0.4256  0.5588
  824MOL0     C11160   2.749   5.413   1.085  0.2025  0.5929  0.0901
  824MOL0     C11161   2.626   5.346   1.059 -0.8758 -1.0143  0.4467
  824MOL0     C11162   2.605   5.289   0.937 -0.8374  0.0557 -0.2614
  824MOL0     O11163   2.483   5.233   0.909 -0.5629  0.4211 -0.7562
  824MOL0     C11164   2.419   5.256   0.783 -0.0696 -0.3393 -0.3446
  824MOL0     C11165   2.408   5.130   0.687  0.0544  0.7209  0.8006
  824MOL0     C11166   2.336   5.154   0.547 -0.0605 -0.3092  0.1410
  824MOL0     C11167   2.395   5.260   0.457  0.4235  0.2284 -0.4155
  824MOL0     C11168   2.317   5.290   0.336  0.4780 -0.3945 -0.3586
  824MOL0     C11169   2.250   5.324   0.240  0.2407 -0.1682  0.3402
  824MOL0     C11170   2.709   5.297   0.844 -0.6680 -0.2800  0.3400
  824MOL0     C11171   2.830   5.346   0.865  0.6283  0.3229 -0.8424
  824MOL0     C11172   2.940   5.342   0.762 -0.6779 -0.9739 -0.1985
  824MOL0     H11173   3.053   5.507   1.421  2.5408 -0.1387  1.3918
  824MOL0     H11174   3.243   5.600   1.529 -0.4724 -0.4528 -0.0347
  824MOL0     H11175   3.552   5.846   1.317  2.1925  0.3708  2.0538
  824MOL0     H11176   3.443   5.981   1.345 -2.6419 -2.0505 -2.0600
  824MOL0     H11177   3.617   5.881   1.567 -2.3582 -1.4044 -1.2326
  824MOL0     H11178   3.497   5.999   1.558  1.6237  0.0703  0.5562
  824MOL0     H11179   3.720   5.988   1.346  1.8743  0.9082  1.3018
  824MOL0     H11180   3.765   6.033   1.510 -1.0883  1.4656  1.1720
  824MOL0     H11181   3.671   6.187   1.285  0.6174  0.8905  0.0211
  824MOL0     H11182   3.546   6.208   1.406 -0.0269  1.0696 -3.2654
  824MOL0     H11183   3.728   6.268   1.574 -0.0313  4.0348  0.0102
  824MOL0     H11184   3.844   6.266   1.435  0.4018  1.6219  0.7030
  824MOL0     H11185   3.769   6.483   1.474  0.5636 -2.1554  2.2146
  824MOL0     H11186   3.692   6.429   1.324 -0.0610  1.7027 -0.0563
  824MOL0     H11187   3.616   6.481   1.623 -1.4571 -2.5131  0.7385
  824MOL0     H11188   3.500   6.385   1.535  1.0642 -0.9336 -3.0144
  824MOL0     H11189   3.444   6.544   1.378  1.5420 -3.9406  0.2646
  824MOL0     H11190   3.429   6.625   1.533  0.3611  0.2571  1.2507
  824MOL0     H11191   3.586   6.672   1.197 -2.5053  0.8673  1.2671
  824MOL0     H11192   3.767   6.894   1.111 -1.7768 -0.0138  2.9581
  824MOL0     H11193   3.917   6.910   1.202  0.6096 -0.8014  3.5490
  824MOL0     H11194   3.806   6.681   1.042 -1.6721  1.2291  1.7717
  824MOL0     H11195   3.963   6.760   1.012 -1.0019 -1.9214 -0.7687
  824MOL0     H11196   4.008   6.544   1.120  0.4849 -0.3569  1.6721
  824MOL0     H11197   3.910   6.587   1.258  3.4784  0.0500  0.6566
  824MOL0     H11198   4.071   6.755   1.325  3.4391 -3.6665  4.3678
  824MOL0     H11199   4.140   6.751   1.156 -2.7199  1.8729  0.9446
  824MOL0     H11200   4.298   6.848   1.308 -3.5231 -2.5673 -0.8699
  824MOL0     H11201   4.484   6.887   1.464 -3.3251  0.9124 -0.8914
  824MOL0     H11202   4.600   6.802   1.900 -1.0254  0.1095 -0.0672
  824MOL0     H11203   4.743   6.869   2.085  1.6178 -1.5830  3.3389
  824MOL0     H11204   4.936   6.549   2.276 -1.4035  0.8827  0.6503
  824MOL0     H11205   5.080   6.596   2.180  1.8086  3.6322  0.8449
  824MOL0     H11206   5.132   6.760   2.365  0.0954 -0.2305  1.5457
  824MOL0     H11207   4.975   6.710   2.437 -1.0544  1.7528 -1.5932
  824MOL0     H11208   5.085   6.472   2.461  1.1556 -0.7964 -0.5330
  824MOL0     H11209   5.224   6.524   2.361 -2.4344  1.0105 -2.8141
  824MOL0     H11210   5.130   6.640   2.638 -1.0653 -0.5183 -0.7069
  824MOL0     H11211   5.282   6.666   2.560  0.5537 -0.6751  1.6412
  824MOL0     H11212   5.243   6.374   2.591  0.5265 -0.8901 -0.1400
  824MOL0     H11213   5.201   6.463   2.740 -0.6606  2.3436  0.5110
  824MOL0     H11214   5.450   6.453   2.561  2.6131 -0.4940  2.3338
  824MOL0     H11215   5.433   6.580   2.677  0.2386  0.5523 -1.7094
  824MOL0     H11216   5.415   6.394   2.863 -1.9911  2.5842 -0.8169
  824MOL0     H11217   5.568   6.408   2.783  0.0545  0.8135  3.6659
  824MOL0     H11218   5.478   6.177   2.819  2.5709  2.3033 -0.1642
  824MOL0     H11219   5.343   6.217   2.710 -1.8817  1.9153  3.3563
  824MOL0     H11220   4.986   6.525   1.991  1.7261  0.7505 -1.5965
  824MOL0     H11221   4.841   6.473   1.807 -0.3598 -0.5441 -0.4419
  824MOL0     H11222   4.482   6.470   1.581 -0.2334  1.7279  2.1212
  824MOL0     H11223   4.292   6.438   1.411 -0.9268  0.6232  0.4507
  824MOL0     H11224   3.325   5.842   1.176 -0.3073  1.0962  1.7970
  824MOL0     H11225   3.168   5.707   1.060 -2.4130  2.0001  0.3284
  824MOL0     H11226   2.764   5.456   1.183 -0.0576  0.7326  0.0703
  824MOL0     H11227   2.554   5.342   1.140  1.9095  2.0886  3.3774
  824MOL0     H11228   2.481   5.336   0.742  2.2859 -0.2753  2.9758
  824MOL0     H11229   2.318   5.296   0.796 -0.9668 -2.5768  0.0013
  824MOL0     H11230   2.344   5.064   0.747  1.1447  1.7073  3.1722
  824MOL0     H11231   2.500   5.072   0.672  0.2757  0.6897  2.1558
  824MOL0     H11232   2.230   5.181   0.556 -0.8084 -2.3632 -1.6249
  824MOL0     H11233   2.334   5.059   0.494 -0.8223 -0.6227  0.7013
  824MOL0     H11234   2.396   5.352   0.516 -1.0316 -1.2957  2.2124
  824MOL0     H11235   2.492   5.223   0.423  0.3545  0.4121 -0.8187
  824MOL0     H11236   2.191   5.354   0.156  0.9222  1.3814  0.3866
  824MOL0     H11237   2.695   5.244   0.750  0.7084  1.4186 -0.8957
  824MOL0     H11238   2.910   5.282   0.675 -1.4017 -1.3922  0.3236
  824MOL0     H11239   2.946   5.443   0.720 -0.7076 -1.1717 -0.6958
  824MOL0     H11240   3.029   5.296   0.807  0.0527  0.3718 -0.2412
  825MOL0     O11241   6.385   2.958   0.014  0.1016 -0.5714  0.0820
  825MOL0     C11242   6.426   2.853   0.060  0.4839  0.0095 -0.4981
  825MOL0     O11243   6.518   2.764   0.008 -0.1615  0.7783 -0.3693
  825MOL0     C11244   6.578   2.795  -0.113  0.2088 -0.5443 -0.9309
  825MOL0     C11245   6.501   2.785  -0.229 -0.2844  0.2899 -0.4311
  825MOL0     C11246   6.560   2.821  -0.350  0.0998 -0.0533  0.4044
  825MOL0     C11247   6.703   2.859  -0.348  0.4932  0.1139  0.3754
  825MOL0     O11248   6.772   2.904  -0.459  0.2332  0.6218 -0.2290
  825MOL0     C11249   6.705   2.896  -0.586 -0.0952 -0.0236  0.3488
  825MOL0     C11250   6.802   2.942  -0.695 -0.2086  0.8181 -0.1374
  825MOL0     C11251   6.821   3.093  -0.697 -0.8951 -0.0427 -0.3871
  825MOL0     C11252   6.717   3.166  -0.784  0.0598  0.7124  0.2658
  825MOL0     C11253   6.761   3.294  -0.861 -1.0613 -0.5601  0.0918
  825MOL0     C11254   6.855   3.268  -0.982  0.8994 -0.1753  0.1846
  825MOL0     C11255   6.792   3.177  -1.086  0.1942  0.4513  0.4139
  825MOL0     C11256   6.666   3.217  -1.155  0.8498 -0.0361  0.2427
  825MOL0     N11257   6.691   3.354  -1.199  0.7057  0.6920 -0.0407
  825MOL0     C11258   6.731   3.400  -1.332 -0.1653  0.3293 -0.3689
  825MOL0     C11259   6.710   3.538  -1.329  0.9305 -0.3777 -0.7004
  825MOL0     C11260   6.726   3.638  -1.445  0.6734 -0.0279  1.1641
  825MOL0     C11261   6.875   3.649  -1.481 -0.2097 -0.5022 -0.6286
  825MOL0     C11262   6.901   3.562  -1.604  0.0912 -0.2917  0.0538
  825MOL0     C11263   7.038   3.589  -1.655 -0.2225  0.3993 -0.4419
  825MOL0     O11264   7.049   3.718  -1.701  0.8684 -0.1153 -0.8258
  825MOL0     C11265   7.184   3.761  -1.700  0.8836  0.2681  0.1810
  825MOL0     C11266   7.210   3.870  -1.627 -0.1062  0.3434 -0.8226
  825MOL0     C11267   7.336   3.928  -1.611 -1.3206 -0.2644  0.1584
  825MOL0     C11268   7.448   3.871  -1.674 -0.4806 -1.3173 -1.4624
  825MOL0     C11269   7.590   3.930  -1.654  0.3283  0.6839 -0.7498
  825MOL0     O11270   7.692   3.844  -1.684 -0.0729 -0.6360  0.6545
  825MOL0     C11271   7.816   3.884  -1.648  0.1356 -1.2008 -0.2741
  825MOL0     C11272   7.870   3.884  -1.525 -0.5283 -0.4244 -0.8822
  825MOL0     C11273   8.018   3.885  -1.514 -0.3283 -1.4303 -0.2288
  825MOL0     C11274   8.099   3.906  -1.627  0.7759  0.1204  0.0989
  825MOL0     O11275   8.236   3.905  -1.624 -0.0345 -0.0768 -0.7929
  825MOL0     C11276   8.306   3.963  -1.510  0.8033 -0.6009 -0.0580
  825MOL0     C11277   8.399   3.851  -1.455  0.6256 -0.9646  0.7765
  825MOL0     C11278   8.321   3.726  -1.406 -0.2892  0.8555 -0.2855
  825MOL0     C11279   8.425   3.619  -1.357 -0.3869 -0.6180  0.1050
  825MOL0     C11280   8.433   3.619  -1.204 -0.6769 -0.5135  0.6169
  825MOL0     C11281   8.563   3.546  -1.157  0.2038  0.1594 -0.2941
  825MOL0     C11282   8.554   3.398  -1.169 -0.2958 -0.5500  0.5775
  825MOL0     C11283   8.659   3.319  -1.091 -0.2364 -0.7353  0.1286
  825MOL0    Cl11284   8.718   3.165  -1.155  0.4568 -0.3367  0.4983
  825MOL0     C11285   8.033   3.903  -1.746 -0.6002 -0.3659 -0.6183
  825MOL0     C11286   7.900   3.889  -1.758 -0.2057  0.5892 -0.1129
  825MOL0     O11287   7.600   4.043  -1.606  0.8065 -0.2510  0.3418
  825MOL0     C11288   7.420   3.756  -1.753  0.3476  0.0632 -0.1391
  825MOL0     C11289   7.287   3.705  -1.774 -0.9761 -0.4701  0.6207
  825MOL0     N11290   6.643   3.571  -1.215 -0.9490  0.2661  0.1840
  825MOL0     N11291   6.640   3.462  -1.132  0.0077 -0.5438  0.2476
  825MOL0     C11292   6.776   2.852  -0.232 -1.1276  0.8379 -1.0448
  825MOL0     C11293   6.718   2.823  -0.111 -0.4721 -0.2097  0.9123
  825MOL0     C11294   6.364   2.824   0.190 -0.0811  1.0711  1.2917
  825MOL0     C11295   6.453   2.764   0.279 -0.5049 -0.1521 -1.5318
  825MOL0     C11296   6.397   2.724   0.401 -0.0840  0.6571  0.1862
  825MOL0     C11297   6.275   2.751   0.444  0.5117  0.2961  0.7046
  825MOL0     O11298   6.230   2.739   0.574  0.3392  0.7155 -0.1764
  825MOL0     C11299   6.223   2.607   0.631 -0.2576  0.4314 -1.0749
  825MOL0     C11300   6.081   2.567   0.662  0.0627  0.4021 -0.5099
  825MOL0     C11301   5.984   2.564   0.541  0.9419 -0.3259  0.7751
  825MOL0     C11302   6.029   2.471   0.420  0.0181  0.1715  0.5233
  825MOL0     C11303   5.913   2.440   0.333 -0.6035 -0.1128  1.5017
  825MOL0     C11304   5.814   2.415   0.275  0.5218 -0.5788  0.1091
  825MOL0     C11305   6.190   2.814   0.355 -0.5663  0.5620  0.3196
  825MOL0     C11306   6.228   2.842   0.224  0.0286  1.3820 -1.2600
  825MOL0     C11307   6.124   2.893   0.138 -0.5725 -0.4737 -0.2163
  825MOL0     H11308   6.396   2.759  -0.218 -0.6696  2.0995  0.4895
  825MOL0     H11309   6.490   2.803  -0.430 -1.1107 -1.9832  1.8114
  825MOL0     H11310   6.669   2.795  -0.606 -3.3348  1.4714 -2.7088
  825MOL0     H11311   6.612   2.955  -0.582  0.6770  1.2610  0.1168
  825MOL0     H11312   6.776   2.912  -0.797 -1.6123  2.5668 -0.3400
  825MOL0     H11313   6.894   2.883  -0.683 -0.8457 -0.0967  0.3639
  825MOL0     H11314   6.920   3.113  -0.739  0.7938  0.5645  3.4228
  825MOL0     H11315   6.827   3.132  -0.595 -2.4567  1.3784 -0.7966
  825MOL0     H11316   6.671   3.094  -0.852  1.9871 -2.8508  2.4779
  825MOL0     H11317   6.637   3.204  -0.718 -1.2051  0.3209 -0.9837
  825MOL0     H11318   6.670   3.333  -0.908 -1.1742 -1.1444 -0.1844
  825MOL0     H11319   6.799   3.378  -0.801  0.8868 -2.2290  1.3172
  825MOL0     H11320   6.887   3.362  -1.026  4.0441 -0.8138  0.8164
  825MOL0     H11321   6.942   3.221  -0.935  0.4972 -2.6757 -1.3990
  825MOL0     H11322   6.779   3.077  -1.044 -0.1236  0.9450  1.5407
  825MOL0     H11323   6.855   3.178  -1.175  1.6743  3.1992  1.3714
  825MOL0     H11324   6.647   3.143  -1.234 -0.2714  0.6133 -0.1247
  825MOL0     H11325   6.577   3.202  -1.093  1.4984 -1.0884  0.9418
  825MOL0     H11326   6.771   3.340  -1.412 -0.5958 -0.9174  0.3154
  825MOL0     H11327   6.658   3.599  -1.520  1.3016  0.3579  0.3835
  825MOL0     H11328   6.695   3.736  -1.409 -1.4104 -0.3444  0.3320
  825MOL0     H11329   6.896   3.753  -1.507  1.0941 -0.7943 -0.8075
  825MOL0     H11330   6.945   3.631  -1.400 -0.1847 -0.7055 -0.6940
  825MOL0     H11331   6.831   3.593  -1.682 -0.9256 -0.9366  0.7027
  825MOL0     H11332   6.884   3.459  -1.573  1.7569  0.2675  3.4220
  825MOL0     H11333   7.058   3.515  -1.733  0.2429 -1.0390  0.9704
  825MOL0     H11334   7.108   3.561  -1.575  0.7928  0.5855 -1.2465
  825MOL0     H11335   7.125   3.925  -1.587 -0.5620 -1.5085  0.8762
  825MOL0     H11336   7.354   4.016  -1.550 -0.7241 -1.1375  1.2886
  825MOL0     H11337   7.815   3.853  -1.437 -0.9394 -2.7749 -1.8929
  825MOL0     H11338   8.059   3.880  -1.414  1.6667 -0.3150 -0.9294
  825MOL0     H11339   8.338   4.058  -1.554 -2.7539  0.5186 -0.5143
  825MOL0     H11340   8.230   3.993  -1.438 -2.1836 -2.6366 -2.1473
  825MOL0     H11341   8.464   3.816  -1.535  0.3281 -2.9345  1.3239
  825MOL0     H11342   8.465   3.893  -1.378 -2.2594 -0.0894  2.9709
  825MOL0     H11343   8.248   3.751  -1.328  1.2031  2.8147  0.5679
  825MOL0     H11344   8.272   3.669  -1.485  0.2614 -1.4480  0.9539
  825MOL0     H11345   8.519   3.639  -1.410 -2.8679  1.1519 -4.1354
  825MOL0     H11346   8.400   3.519  -1.394  3.5710 -1.2478 -1.3954
  825MOL0     H11347   8.348   3.578  -1.150 -0.8472 -1.5851 -0.4242
  825MOL0     H11348   8.437   3.723  -1.171  1.6258 -0.4873  0.4214
  825MOL0     H11349   8.648   3.565  -1.224 -0.1202 -0.0573 -0.7723
  825MOL0     H11350   8.583   3.562  -1.051 -0.2277 -3.5438  0.4494
  825MOL0     H11351   8.550   3.346  -1.266  2.4467 -0.0845  0.1340
  825MOL0     H11352   8.458   3.376  -1.123 -1.3838 -0.6080 -1.5856
  825MOL0     H11353   8.750   3.379  -1.091 -0.1052 -0.8523 -2.1039
  825MOL0     H11354   8.613   3.302  -0.993 -2.1505 -0.0144 -0.5892
  825MOL0     H11355   8.094   3.904  -1.836 -0.1712 -2.1078 -0.3914
  825MOL0     H11356   7.862   3.894  -1.860  0.3141  0.2156 -0.3298
  825MOL0     H11357   7.492   3.698  -1.810 -2.3580  0.3092 -4.1361
  825MOL0     H11358   7.280   3.619  -1.839  2.0114 -1.5031  1.5025
  825MOL0     H11359   6.884   2.859  -0.230 -1.1297  1.3139  2.0617
  825MOL0     H11360   6.768   2.810  -0.015 -0.5190 -0.8067  0.8578
  825MOL0     H11361   6.557   2.748   0.251 -0.5340 -0.2609 -1.5788
  825MOL0     H11362   6.457   2.679   0.480 -2.7486 -0.4082  1.7441
  825MOL0     H11363   6.282   2.609   0.723  0.8386  3.6640 -1.7438
  825MOL0     H11364   6.278   2.529   0.575 -0.5007 -0.0554 -0.6408
  825MOL0     H11365   6.047   2.631   0.744  1.0502 -0.1706  0.3841
  825MOL0     H11366   6.071   2.474   0.718  1.5494  1.8182  2.3312
  825MOL0     H11367   5.981   2.666   0.500 -1.3045  0.5563  2.8495
  825MOL0     H11368   5.887   2.530   0.579  1.2614  1.2886  3.2960
  825MOL0     H11369   6.112   2.513   0.362 -0.4602  0.8872  0.3405
  825MOL0     H11370   6.058   2.380   0.472  1.4669  0.4875  0.3080
  825MOL0     H11371   5.717   2.384   0.244  1.1043 -1.8405 -0.5244
  825MOL0     H11372   6.094   2.854   0.387 -0.7042 -0.6617  1.5621
  825MOL0     H11373   6.142   2.849   0.040 -0.2719  1.2661 -0.9803
  825MOL0     H11374   6.021   2.867   0.162 -1.3196 -0.0650 -2.7039
  825MOL0     H11375   6.132   3.001   0.119 -2.5213 -0.3612 -0.6091
  826MOL0     O11376   7.960   6.736   1.793 -0.2401 -0.2165  0.0653
  826MOL0     C11377   7.841   6.739   1.760  0.3921 -0.8439  0.6021
  826MOL0     O11378   7.733   6.811   1.823 -0.6168 -0.2423  0.1142
  826MOL0     C11379   7.741   6.833   1.955  0.0273  0.1867 -0.1653
  826MOL0     C11380   7.838   6.787   2.043 -0.0560 -0.4492 -1.4473
  826MOL0     C11381   7.836   6.818   2.180 -0.8220 -0.2275  1.1557
  826MOL0     C11382   7.733   6.891   2.236  0.0972  0.1241 -0.2063
  826MOL0     O11383   7.732   6.926   2.370  0.1036 -0.0574 -0.0428
  826MOL0     C11384   7.655   7.043   2.418 -0.2381  0.3784 -0.2406
  826MOL0     C11385   7.731   7.180   2.390  0.5464  0.2639  0.5302
  826MOL0     C11386   7.637   7.302   2.359 -0.1540  0.8942 -0.8681
  826MOL0     C11387   7.584   7.293   2.219  0.3429 -0.0611  0.8839
  826MOL0     C11388   7.486   7.410   2.185  0.3976  0.1518  0.2707
  826MOL0     C11389   7.444   7.398   2.035 -0.9346  0.7451  0.0052
  826MOL0     C11390   7.364   7.521   1.991 -0.4201 -0.1690  0.7898
  826MOL0     C11391   7.333   7.505   1.839 -0.0198 -0.7617  0.0877
  826MOL0     N11392   7.248   7.387   1.811  0.3535 -0.1476  0.5942
  826MOL0     C11393   7.116   7.374   1.859 -0.0208 -1.1094 -1.2535
  826MOL0     C11394   7.085   7.247   1.838  0.7057  0.2532 -0.3314
  826MOL0     C11395   6.953   7.180   1.866  0.4635  0.6539 -0.2575
  826MOL0     C11396   6.909   7.127   1.734 -0.8570 -0.1397  0.5251
  826MOL0     C11397   6.772   7.056   1.747 -0.3088  0.2897  0.4651
  826MOL0     C11398   6.660   7.154   1.759 -1.3176  0.2053 -0.2346
  826MOL0     O11399   6.652   7.200   1.893 -0.2201  0.0302 -0.7044
  826MOL0     C11400   6.577   7.314   1.916  0.3457  0.4155 -1.2930
  826MOL0     C11401   6.648   7.434   1.936 -0.7212 -1.0420 -0.5412
  826MOL0     C11402   6.574   7.552   1.956 -1.2333  0.6832  0.3214
  826MOL0     C11403   6.434   7.549   1.960  0.2062 -0.1060 -0.9338
  826MOL0     C11404   6.346   7.658   2.001  0.4380  0.0864  0.4183
  826MOL0     O11405   6.215   7.629   2.044 -0.0829 -0.0974  0.8820
  826MOL0     C11406   6.180   7.624   2.178  0.7720  0.0548  0.0925
  826MOL0     C11407   6.265   7.616   2.282  0.2053 -0.3631 -0.6406
  826MOL0     C11408   6.222   7.580   2.409 -0.5637 -0.3590  0.4620
  826MOL0     C11409   6.089   7.547   2.434 -0.8088  0.0730 -0.4339
  826MOL0     O11410   6.032   7.522   2.562  0.2347  0.3883  0.2521
  826MOL0     C11411   6.122   7.482   2.667 -0.1970  0.7955  1.1591
  826MOL0     C11412   6.037   7.454   2.789  0.7379  0.5444 -0.9102
  826MOL0     C11413   6.119   7.405   2.910  0.2913 -0.0157 -0.4401
  826MOL0     C11414   6.031   7.363   3.037  0.0635  0.2442  0.3384
  826MOL0     C11415   6.110   7.331   3.161 -0.3941  0.0032 -0.0101
  826MOL0     C11416   6.209   7.443   3.199 -0.0460 -0.0606 -0.8771
  826MOL0     C11417   6.356   7.417   3.139  0.6624 -0.3386  0.0770
  826MOL0     C11418   6.420   7.308   3.210 -0.4125 -0.0330 -0.5328
  826MOL0    Cl11419   6.596   7.316   3.174  0.0926 -0.1956  0.4350
  826MOL0     C11420   6.004   7.547   2.322 -0.3665 -0.1876 -1.2601
  826MOL0     C11421   6.051   7.589   2.198  0.4969 -0.1718 -0.6426
  826MOL0     O11422   6.388   7.774   1.990 -0.3780  0.3155 -0.3059
  826MOL0     C11423   6.366   7.438   1.921  0.0797 -0.0663 -0.2712
  826MOL0     C11424   6.440   7.321   1.899  0.8052  0.2519  0.3991
  826MOL0     N11425   7.203   7.187   1.782 -0.2824 -0.4335 -0.1730
  826MOL0     N11426   7.297   7.272   1.764  0.3422 -0.2497  0.2211
  826MOL0     C11427   7.625   6.926   2.151 -0.3629 -0.8980  1.2426
  826MOL0     C11428   7.634   6.897   2.013 -0.4720 -0.6180  0.2379
  826MOL0     C11429   7.809   6.662   1.637 -0.8149  0.1099  0.4684
  826MOL0     C11430   7.865   6.533   1.627  0.4905 -0.1847 -0.1890
  826MOL0     C11431   7.840   6.436   1.525 -0.1725 -0.3391 -0.1680
  826MOL0     C11432   7.740   6.466   1.438 -0.0692 -0.2519 -0.1925
  826MOL0     O11433   7.695   6.386   1.338 -0.1714 -0.0310  0.1714
  826MOL0     C11434   7.766   6.259   1.308  0.5579 -0.9106 -0.1045
  826MOL0     C11435   7.699   6.178   1.185 -0.6160  0.7852 -0.0734
  826MOL0     C11436   7.687   6.255   1.056 -1.1178 -0.2735  0.1957
  826MOL0     C11437   7.682   6.164   0.931 -0.0541  0.4501 -0.1061
  826MOL0     C11438   7.796   6.079   0.891 -0.1359  0.2385 -0.1058
  826MOL0     C11439   7.884   5.998   0.863 -0.0249 -0.3394  0.0192
  826MOL0     C11440   7.672   6.592   1.443 -0.5808  0.3492 -0.1178
  826MOL0     C11441   7.720   6.692   1.532  0.1003 -0.3748 -0.0706
  826MOL0     C11442   7.644   6.823   1.536 -0.1374 -0.0364 -0.5488
  826MOL0     H11443   7.910   6.712   2.013  0.2151 -0.9544  0.3478
  826MOL0     H11444   7.921   6.791   2.242  2.0157  2.3390 -1.2873
  826MOL0     H11445   7.554   7.049   2.378 -0.2923  1.7140  0.0595
  826MOL0     H11446   7.643   7.031   2.526 -0.4180  0.2404 -0.2756
  826MOL0     H11447   7.802   7.168   2.308  0.8301  2.7786  0.3336
  826MOL0     H11448   7.801   7.206   2.470  1.2425 -0.0734  0.0414
  826MOL0     H11449   7.702   7.389   2.363  3.5774 -1.6846  0.8641
  826MOL0     H11450   7.553   7.295   2.428  2.4721 -5.3832  2.5357
  826MOL0     H11451   7.671   7.292   2.152 -0.2335 -4.4890 -0.0607
  826MOL0     H11452   7.544   7.193   2.200  3.3824 -1.6734  2.2787
  826MOL0     H11453   7.403   7.390   2.254 -1.0811 -0.6133 -1.6401
  826MOL0     H11454   7.527   7.509   2.206  0.8603 -0.3505  1.9593
  826MOL0     H11455   7.534   7.385   1.973  0.2094  2.6484  1.1338
  826MOL0     H11456   7.384   7.308   2.027  0.0727  0.1123 -0.7708
  826MOL0     H11457   7.423   7.614   1.994 -3.0490  1.6386 -0.0206
  826MOL0     H11458   7.277   7.542   2.054 -1.1130  0.9719 -0.4998
  826MOL0     H11459   7.296   7.590   1.781  3.5826  2.2129  1.6444
  826MOL0     H11460   7.430   7.488   1.791  1.7702  1.2518  2.6867
  826MOL0     H11461   7.066   7.460   1.902  1.7857 -0.1931 -0.8757
  826MOL0     H11462   6.958   7.103   1.944 -3.4492  2.0553  1.6179
  826MOL0     H11463   6.883   7.258   1.897 -1.4567 -1.1240  0.0513
  826MOL0     H11464   6.906   7.207   1.660 -2.9865  0.0321  0.7443
  826MOL0     H11465   6.977   7.049   1.699 -1.5204  0.5068 -2.4283
  826MOL0     H11466   6.762   6.978   1.823 -1.3091  0.0434  0.0928
  826MOL0     H11467   6.760   7.012   1.648  1.2894 -0.5003  0.5850
  826MOL0     H11468   6.560   7.116   1.739 -1.4314  1.2785 -1.9308
  826MOL0     H11469   6.695   7.233   1.692  2.1186  0.1770  1.2957
  826MOL0     H11470   6.752   7.443   1.965 -1.3525 -0.0405  1.6295
  826MOL0     H11471   6.625   7.638   1.999  1.8631 -1.3331  1.0180
  826MOL0     H11472   6.373   7.609   2.274  0.0205 -1.0941 -3.7748
  826MOL0     H11473   6.304   7.577   2.481  0.6494  0.8206 -0.7794
  826MOL0     H11474   6.180   7.392   2.640 -1.2093  0.0813  1.3076
  826MOL0     H11475   6.177   7.570   2.701 -1.2861  2.0238 -0.1099
  826MOL0     H11476   5.990   7.547   2.823 -0.9322  0.0888 -1.8431
  826MOL0     H11477   5.957   7.381   2.774 -0.3549  1.3897  0.5407
  826MOL0     H11478   6.179   7.323   2.869  2.2666  2.0300 -1.9418
  826MOL0     H11479   6.187   7.479   2.952 -0.9085  0.6486  0.4060
  826MOL0     H11480   5.970   7.279   3.002  1.0421  0.1764 -1.3142
  826MOL0     H11481   5.966   7.449   3.056 -0.6755 -0.7736  2.9356
  826MOL0     H11482   6.157   7.234   3.147 -1.5943 -0.4237 -1.3323
  826MOL0     H11483   6.040   7.313   3.244  1.1002  3.1278  2.1417
  826MOL0     H11484   6.166   7.540   3.169 -0.3200 -0.9228 -3.5230
  826MOL0     H11485   6.208   7.459   3.308 -0.9186  0.5220 -0.9536
  826MOL0     H11486   6.416   7.508   3.152 -3.0165  1.9935  2.9356
  826MOL0     H11487   6.355   7.395   3.031 -1.2618 -1.6583  0.3211
  826MOL0     H11488   6.400   7.304   3.317  0.6215 -0.5044 -0.3535
  826MOL0     H11489   6.388   7.209   3.176  0.3979 -0.4175 -0.2066
  826MOL0     H11490   5.899   7.522   2.336  0.0077 -1.1912 -0.0890
  826MOL0     H11491   5.989   7.580   2.109  2.7813 -1.0912 -2.2553
  826MOL0     H11492   6.262   7.421   1.899 -0.7850  1.8000  1.9454
  826MOL0     H11493   6.397   7.228   1.864  3.1373 -1.4650  1.7938
  826MOL0     H11494   7.545   6.991   2.184  1.0169  0.3483  2.2490
  826MOL0     H11495   7.554   6.928   1.947  2.3362 -0.1270 -3.2335
  826MOL0     H11496   7.940   6.507   1.702 -1.8867 -1.2525  1.9730
  826MOL0     H11497   7.898   6.346   1.543  0.2725  0.5908  4.3008
  826MOL0     H11498   7.769   6.188   1.391 -0.7138 -1.3102 -0.3658
  826MOL0     H11499   7.871   6.281   1.287  0.1824  0.3169 -0.7539
  826MOL0     H11500   7.597   6.152   1.216 -0.5105  2.8864  2.3864
  826MOL0     H11501   7.753   6.083   1.181 -3.3223 -0.7960 -3.2580
  826MOL0     H11502   7.775   6.319   1.048 -2.1381  0.9146 -2.9615
  826MOL0     H11503   7.599   6.320   1.057 -1.1428 -0.2936 -0.4227
  826MOL0     H11504   7.589   6.107   0.937  0.7842 -1.0239 -0.6009
  826MOL0     H11505   7.663   6.238   0.853 -3.8189  1.2953  1.4166
  826MOL0     H11506   7.950   5.915   0.850  1.5253  0.5814  1.5832
  826MOL0     H11507   7.602   6.613   1.363  0.1979  0.2712 -0.8284
  826MOL0     H11508   7.630   6.852   1.432  0.2751  1.6924 -0.1547
  826MOL0     H11509   7.549   6.808   1.590  1.4628  1.2151  2.8972
  826MOL0     H11510   7.706   6.896   1.588 -1.4486  0.5465  0.2791
  827MOL0     O11511   9.506   5.657   9.991  0.0551  0.1687  0.6861
  827MOL0     C11512   9.432   5.695  10.081 -0.1917  0.3174 -0.8594
  827MOL0     O11513   9.464   5.718  10.213  0.5226 -0.7781 -0.0457
  827MOL0     C11514   9.590   5.700  10.257 -0.3115  0.7804  0.3338
  827MOL0     C11515   9.697   5.794  10.258 -0.0127 -0.7922 -0.6919
  827MOL0     C11516   9.824   5.755  10.310  0.4046  1.4811 -0.7092
  827MOL0     C11517   9.833   5.623  10.361  0.7963  0.5489 -0.0565
  827MOL0     O11518   9.951   5.579  10.412  0.7088  0.2857  0.7755
  827MOL0     C11519  10.024   5.511  10.317 -0.2516  0.2225  0.1556
  827MOL0     C11520  10.118   5.428  10.398 -0.2830  0.6441  0.4693
  827MOL0     C11521  10.241   5.355  10.316 -0.2961  0.0201 -0.0647
  827MOL0     C11522  10.184   5.238  10.229 -0.1669 -0.5775  0.5133
  827MOL0     C11523  10.293   5.145  10.168 -0.3216 -0.1700  0.1644
  827MOL0     C11524  10.340   5.030  10.258  0.6221 -0.6815 -0.0482
  827MOL0     C11525  10.477   4.966  10.214  0.6114  0.0297 -1.1403
  827MOL0     C11526  10.596   5.066  10.247  0.7716 -1.5123  0.0043
  827MOL0     N11527  10.727   4.992  10.243 -0.0916  0.2989 -0.5975
  827MOL0     C11528  10.791   4.954  10.131  0.6728  0.4791  0.2662
  827MOL0     C11529  10.883   4.862  10.171 -1.2878  0.1144  0.3087
  827MOL0     C11530  10.987   4.784  10.090 -0.6486 -0.7866  0.1172
  827MOL0     C11531  11.107   4.867  10.039  0.1614  0.3938  0.1564
  827MOL0     C11532  11.241   4.793  10.025 -0.3554  0.0778  1.2055
  827MOL0     C11533  11.352   4.874   9.963 -1.1190 -0.5052 -0.0716
  827MOL0     O11534  11.449   4.775   9.930 -0.2766 -0.3437  0.6769
  827MOL0     C11535  11.568   4.816   9.872 -0.0605 -0.3287  0.3207
  827MOL0     C11536  11.599   4.950   9.862  0.3441 -0.6310 -0.1818
  827MOL0     C11537  11.712   4.997   9.788 -0.2460 -0.5114 -0.2970
  827MOL0     C11538  11.797   4.905   9.736 -0.2363 -0.3370  0.1515
  827MOL0     C11539  11.924   4.936   9.662  0.0927 -0.9582 -0.4483
  827MOL0     O11540  11.991   4.833   9.593 -0.1713 -0.9298  0.3145
  827MOL0     C11541  12.119   4.858   9.545  0.0444 -0.2330  0.3087
  827MOL0     C11542  12.232   4.790   9.592  0.6564 -0.1616  0.3896
  827MOL0     C11543  12.353   4.795   9.525 -0.4388  0.3599 -0.9787
  827MOL0     C11544  12.377   4.878   9.415  0.3295 -0.4319 -0.2045
  827MOL0     O11545  12.491   4.884   9.343 -0.0744 -0.3830 -0.0386
  827MOL0     C11546  12.612   4.905   9.426  0.4943  0.0122 -1.1337
  827MOL0     C11547  12.637   5.055   9.465  0.0905  0.4164  0.0574
  827MOL0     C11548  12.626   5.137   9.336 -0.0583 -0.0293  0.5019
  827MOL0     C11549  12.661   5.282   9.364 -0.0772 -0.3443 -0.0720
  827MOL0     C11550  12.671   5.379   9.246  0.6727 -0.4339  0.0813
  827MOL0     C11551  12.761   5.503   9.269 -0.6799 -0.5250  0.9798
  827MOL0     C11552  12.808   5.571   9.135 -0.0917  0.3653 -0.1623
  827MOL0     C11553  12.928   5.654   9.145 -0.0154  0.1955 -0.8343
  827MOL0    Cl11554  13.063   5.553   9.212  0.4393  0.1087  0.2905
  827MOL0     C11555  12.272   4.955   9.371 -0.3854 -0.4949 -0.0852
  827MOL0     C11556  12.138   4.938   9.425 -0.5126 -0.0663  0.2829
  827MOL0     O11557  11.964   5.057   9.660  0.1135  0.4109 -0.0338
  827MOL0     C11558  11.771   4.771   9.756 -0.8050  0.3874 -0.2391
  827MOL0     C11559  11.660   4.731   9.828 -1.1212 -0.3159 -0.8564
  827MOL0     N11560  10.883   4.846  10.304  0.6137  1.1551 -0.7987
  827MOL0     N11561  10.772   4.914  10.340 -0.5026 -0.1245 -0.2362
  827MOL0     C11562   9.727   5.525  10.356  0.2796  0.5730 -0.1925
  827MOL0     C11563   9.603   5.573  10.303 -0.7907  0.8786 -0.3227
  827MOL0     C11564   9.290   5.738  10.058  0.1591 -0.1863  0.5017
  827MOL0     C11565   9.247   5.866  10.103 -0.4620  0.4567  0.7913
  827MOL0     C11566   9.118   5.919  10.074 -0.2862 -0.7225 -0.1211
  827MOL0     C11567   9.019   5.848  10.008  0.7110  0.9924 -0.8808
  827MOL0     O11568   8.882   5.876   9.990 -0.0079 -0.1042 -0.1076
  827MOL0     C11569   8.826   5.998  10.037  0.8429  0.5218  0.8065
  827MOL0     C11570   8.677   6.017  10.001  0.0823  1.2932 -0.9129
  827MOL0     C11571   8.596   5.909  10.075  0.2348 -0.4678  0.7498
  827MOL0     C11572   8.489   5.854   9.981  0.0335 -0.0546  1.4566
  827MOL0     C11573   8.422   5.740  10.045 -0.2975  0.1739  0.1324
  827MOL0     C11574   8.358   5.642  10.086 -1.4875  0.0004  0.0166
  827MOL0     C11575   9.063   5.718   9.969 -1.2461  0.3805  0.5750
  827MOL0     C11576   9.194   5.669   9.982  0.8386 -0.4479 -1.1609
  827MOL0     C11577   9.236   5.531   9.920 -0.6251 -0.5178  0.4893
  827MOL0     H11578   9.684   5.892  10.213  2.8427  0.2252  0.4672
  827MOL0     H11579   9.917   5.803  10.339  0.4816 -0.5327  3.0762
  827MOL0     H11580   9.964   5.448  10.252  1.3954  3.1281 -4.7023
  827MOL0     H11581  10.080   5.579  10.252  3.2031 -2.0935  0.4567
  827MOL0     H11582  10.067   5.351  10.457  2.7613 -2.3573 -0.4576
  827MOL0     H11583  10.183   5.482  10.466  1.6235 -3.0598  1.8568
  827MOL0     H11584  10.303   5.308  10.392 -0.4808  0.4667  0.3698
  827MOL0     H11585  10.293   5.432  10.259 -1.5043  2.0388  1.4271
  827MOL0     H11586  10.110   5.178  10.283 -0.0147 -4.1441 -2.7741
  827MOL0     H11587  10.140   5.288  10.142  2.8686  0.7260 -0.4192
  827MOL0     H11588  10.252   5.098  10.079 -0.3030  4.1655 -2.4211
  827MOL0     H11589  10.378   5.213  10.151 -1.4779  2.7889  4.4952
  827MOL0     H11590  10.346   5.070  10.360  1.4392 -2.6844  0.7251
  827MOL0     H11591  10.265   4.950  10.260  1.2779 -1.4315 -2.3608
  827MOL0     H11592  10.478   4.940  10.108 -0.1082  2.4815 -1.8219
  827MOL0     H11593  10.488   4.881  10.281 -0.0498  1.4588  0.8642
  827MOL0     H11594  10.605   5.146  10.172  1.0181 -2.8437 -1.4372
  827MOL0     H11595  10.569   5.105  10.346 -3.0804  2.2821 -2.1811
  827MOL0     H11596  10.767   4.985  10.030 -1.0181 -1.4364  0.0299
  827MOL0     H11597  11.023   4.714  10.165 -2.5094 -0.2378  1.5895
  827MOL0     H11598  10.939   4.734  10.006 -0.2282 -2.2634  0.7375
  827MOL0     H11599  11.090   4.918   9.944  0.6572  0.6327  0.1888
  827MOL0     H11600  11.115   4.940  10.120 -5.5013 -0.5018  1.9601
  827MOL0     H11601  11.219   4.699   9.973 -1.1902 -0.5587  2.6417
  827MOL0     H11602  11.283   4.756  10.120  2.5123  0.7531  0.2965
  827MOL0     H11603  11.385   4.954  10.030  0.4581 -1.0970 -0.1076
  827MOL0     H11604  11.324   4.930   9.873 -0.1405  0.9284  0.4694
  827MOL0     H11605  11.530   5.027   9.896 -1.5152 -2.2818 -0.0603
  827MOL0     H11606  11.731   5.104   9.779  0.9784 -0.3373  2.9820
  827MOL0     H11607  12.213   4.711   9.663 -1.1168  0.7468  1.0054
  827MOL0     H11608  12.433   4.730   9.559 -1.3031  0.7977  2.2265
  827MOL0     H11609  12.622   4.852   9.521  0.5419  0.3502 -0.9483
  827MOL0     H11610  12.692   4.858   9.368 -1.8918 -2.6159 -2.5628
  827MOL0     H11611  12.564   5.098   9.535 -0.3910  2.5779 -1.6805
  827MOL0     H11612  12.736   5.060   9.511 -0.7883 -2.0187  2.5493
  827MOL0     H11613  12.688   5.095   9.256 -2.2904 -0.5671 -1.0279
  827MOL0     H11614  12.525   5.136   9.294  1.6142  0.3277 -4.1309
  827MOL0     H11615  12.761   5.275   9.408  0.6982  2.2242 -1.2123
  827MOL0     H11616  12.594   5.324   9.439  1.7883  0.1581  1.3814
  827MOL0     H11617  12.569   5.412   9.225 -0.1320 -0.6405  3.1671
  827MOL0     H11618  12.713   5.327   9.159 -0.2337  1.3797 -1.5201
  827MOL0     H11619  12.709   5.584   9.321 -1.1568 -1.9809  2.8618
  827MOL0     H11620  12.843   5.482   9.338 -0.1578 -0.8063  0.2947
  827MOL0     H11621  12.734   5.646   9.103 -1.2995 -1.1869 -1.1789
  827MOL0     H11622  12.827   5.491   9.063 -1.0397 -1.3078  1.3482
  827MOL0     H11623  12.944   5.704   9.050 -1.8928  1.2830 -0.6291
  827MOL0     H11624  12.909   5.735   9.217  1.0963 -2.1252  2.3139
  827MOL0     H11625  12.297   5.010   9.281  0.4697 -0.3679  0.2257
  827MOL0     H11626  12.061   4.994   9.375 -1.4307 -0.8651  0.7750
  827MOL0     H11627  11.844   4.698   9.722  0.2630 -0.0108  2.6679
  827MOL0     H11628  11.655   4.622   9.825 -0.8579 -0.5721  3.2343
  827MOL0     H11629   9.745   5.433  10.410  2.5250  1.0875  0.0532
  827MOL0     H11630   9.517   5.507  10.298  1.3286 -2.2186  0.6698
  827MOL0     H11631   9.311   5.933  10.159  1.0102 -1.8344  2.0001
  827MOL0     H11632   9.094   6.020  10.107  0.8377 -0.4625 -0.0530
  827MOL0     H11633   8.883   6.077   9.986 -0.3195 -0.4598 -2.2762
  827MOL0     H11634   8.842   5.998  10.145  2.1661  3.6798  0.7345
  827MOL0     H11635   8.664   5.998   9.894 -1.2117 -1.9807 -0.3086
  827MOL0     H11636   8.633   6.116  10.014 -1.2183  0.9401 -2.2737
  827MOL0     H11637   8.552   5.957  10.163 -0.4405  1.3168 -0.5102
  827MOL0     H11638   8.664   5.835  10.117  0.6943  0.2455  1.2881
  827MOL0     H11639   8.423   5.938   9.955  2.4986  1.0326 -2.0629
  827MOL0     H11640   8.523   5.830   9.880 -0.2204 -4.1657  2.1926
  827MOL0     H11641   8.304   5.568  10.142 -0.2515 -1.6111 -0.8277
  827MOL0     H11642   8.984   5.665   9.916 -0.5661 -0.2548  0.1807
  827MOL0     H11643   9.282   5.543   9.822  1.4367  1.2372  1.5695
  827MOL0     H11644   9.312   5.485   9.984 -1.6976 -1.0236  1.4439
  827MOL0     H11645   9.150   5.465   9.917  0.1511 -1.5143 -0.1912
  828MOL0     O11646  10.723   8.455   1.312 -0.4755  0.1582  0.6895
  828MOL0     C11647  10.847   8.431   1.293 -0.0254  0.7926 -0.6118
  828MOL0     O11648  10.896   8.385   1.175 -1.0906 -0.1467  0.2011
  828MOL0     C11649  10.827   8.406   1.050 -0.1938  0.2174  0.4083
  828MOL0     C11650  10.875   8.500   0.960 -0.5692  0.4112  0.4675
  828MOL0     C11651  10.800   8.539   0.851 -0.2573 -0.9774  0.1717
  828MOL0     C11652  10.674   8.492   0.829  0.4779 -0.2388 -0.8458
  828MOL0     O11653  10.618   8.543   0.719  0.7916 -0.5067  0.1408
  828MOL0     C11654  10.479   8.548   0.690 -0.2364 -0.1144  0.1254
  828MOL0     C11655  10.444   8.664   0.598 -0.6757 -0.2759 -0.4264
  828MOL0     C11656  10.396   8.783   0.674 -0.5958  0.7947  1.0881
  828MOL0     C11657  10.288   8.854   0.598  0.5211  0.9026 -0.1802
  828MOL0     C11658  10.139   8.809   0.637  0.0889 -0.1143  0.3614
  828MOL0     C11659  10.033   8.875   0.547 -0.5294  0.8082  0.1064
  828MOL0     C11660   9.904   8.819   0.588 -0.9803 -0.1335 -0.0099
  828MOL0     C11661   9.806   8.850   0.484  0.1160  0.5023  0.2011
  828MOL0     N11662   9.681   8.791   0.510  0.1158  0.4410  0.1645
  828MOL0     C11663   9.583   8.860   0.575 -0.9847 -0.7324 -0.7045
  828MOL0     C11664   9.470   8.811   0.535  0.6685  0.5844 -1.0992
  828MOL0     C11665   9.341   8.851   0.577  0.3339  0.6738  0.1889
  828MOL0     C11666   9.324   8.800   0.723  0.0247  0.2717  0.1090
  828MOL0     C11667   9.182   8.817   0.772  0.0311 -0.0911 -0.2409
  828MOL0     C11668   9.090   8.715   0.710 -0.4453  0.6871  0.9963
  828MOL0     O11669   8.965   8.729   0.764  0.8024 -1.0274 -0.6084
  828MOL0     C11670   8.856   8.751   0.688  0.2893  0.3309  0.3708
  828MOL0     C11671   8.756   8.831   0.728  1.0095 -0.1841  0.3810
  828MOL0     C11672   8.640   8.845   0.651 -0.0232 -0.4609  0.4214
  828MOL0     C11673   8.637   8.786   0.521 -0.1903 -0.1387 -0.5204
  828MOL0     C11674   8.527   8.821   0.433 -0.1956 -0.7026 -0.5002
  828MOL0     O11675   8.412   8.868   0.496  0.5199  0.9640  0.3243
  828MOL0     C11676   8.310   8.926   0.419 -0.4105  0.5914 -0.2673
  828MOL0     C11677   8.255   8.863   0.315 -0.8181  0.1081  0.4237
  828MOL0     C11678   8.148   8.909   0.242  0.1750  0.3227  0.2117
  828MOL0     C11679   8.085   9.031   0.276 -0.8994 -0.4289 -0.3402
  828MOL0     O11680   8.006   9.108   0.193 -0.7237  0.4587  0.0018
  828MOL0     C11681   7.938   9.054   0.081 -0.2102 -0.2846  0.0629
  828MOL0     C11682   7.812   8.966   0.104 -0.1180  0.1808  0.0875
  828MOL0     C11683   7.701   9.044   0.172 -0.1402  0.5224 -0.7188
  828MOL0     C11684   7.566   8.974   0.152 -0.1825  0.5136 -0.0496
  828MOL0     C11685   7.452   9.047   0.231  0.1753 -0.8733  0.9355
  828MOL0     C11686   7.316   8.998   0.192  0.3995  0.0307 -0.2050
  828MOL0     C11687   7.214   9.043   0.293 -0.2879  0.8024  0.4574
  828MOL0     C11688   7.073   9.017   0.238  0.1269  0.5525 -0.3440
  828MOL0    Cl11689   6.949   9.060   0.359  0.3634  0.0980  0.3264
  828MOL0     C11690   8.135   9.097   0.399 -0.5863 -0.2035 -0.2117
  828MOL0     C11691   8.247   9.037   0.474 -0.0591 -0.0547  0.6717
  828MOL0     O11692   8.550   8.834   0.316 -0.5444 -0.6230  0.0931
  828MOL0     C11693   8.734   8.690   0.488 -0.0763  0.9328 -1.0118
  828MOL0     C11694   8.847   8.670   0.575  1.4175  0.1340  0.0430
  828MOL0     N11695   9.492   8.697   0.462 -0.1816  0.3194 -0.0436
  828MOL0     N11696   9.620   8.689   0.450 -0.8730  0.0692  0.0682
  828MOL0     C11697  10.615   8.400   0.919 -0.7586  0.1120 -0.2429
  828MOL0     C11698  10.692   8.366   1.032 -0.3010  0.2825  0.9839
  828MOL0     C11699  10.946   8.467   1.395  0.1478  0.0189 -0.1539
  828MOL0     C11700  11.072   8.511   1.357  0.1479  1.4752  1.1292
  828MOL0     C11701  11.162   8.563   1.445 -0.4339 -0.8570 -0.6807
  828MOL0     C11702  11.137   8.562   1.583 -0.4065  1.1972  0.1529
  828MOL0     O11703  11.216   8.591   1.691 -0.5136  0.2056  0.5990
  828MOL0     C11704  11.355   8.623   1.658  0.4298  0.0023  0.0225
  828MOL0     C11705  11.425   8.648   1.790  0.9512 -1.1593  0.0020
  828MOL0     C11706  11.562   8.724   1.770 -0.2933  0.7360 -0.1314
  828MOL0     C11707  11.542   8.848   1.673  0.4172  0.2624 -0.2717
  828MOL0     C11708  11.629   8.962   1.705 -0.3762  0.1111 -0.4459
  828MOL0     C11709  11.696   9.058   1.732 -0.3180  0.0097 -0.0903
  828MOL0     C11710  11.021   8.497   1.624 -0.8479  0.2433  0.7060
  828MOL0     C11711  10.915   8.458   1.536  0.4235 -0.0011 -0.5163
  828MOL0     C11712  10.790   8.418   1.615  0.4103  0.5157  0.2108
  828MOL0     H11713  10.970   8.549   0.980 -1.0796  1.1405  1.1813
  828MOL0     H11714  10.836   8.616   0.783 -2.5820  0.3861  0.3799
  828MOL0     H11715  10.467   8.448   0.648  0.4388 -0.1959  0.1160
  828MOL0     H11716  10.415   8.550   0.779 -2.0813 -1.2939 -1.1057
  828MOL0     H11717  10.362   8.636   0.531 -1.1544 -1.7332  0.7003
  828MOL0     H11718  10.527   8.704   0.541 -3.0962  1.1549 -3.2005
  828MOL0     H11719  10.484   8.847   0.685 -0.8341  1.5268 -0.8113
  828MOL0     H11720  10.349   8.764   0.771 -0.2696 -0.6767  0.9819
  828MOL0     H11721  10.290   8.960   0.623 -1.5436  1.7946 -3.3228
  828MOL0     H11722  10.314   8.849   0.492  0.7353 -0.7755 -0.0777
  828MOL0     H11723  10.125   8.700   0.636 -1.1878  0.0297 -0.4292
  828MOL0     H11724  10.114   8.844   0.737  1.4741 -2.2645  1.5423
  828MOL0     H11725  10.031   8.984   0.561 -0.8332  0.9973 -1.2200
  828MOL0     H11726  10.071   8.855   0.447  1.5917  1.9903  0.6005
  828MOL0     H11727   9.870   8.860   0.684  2.8551  2.0281  0.6381
  828MOL0     H11728   9.921   8.713   0.611 -1.2973 -0.2844 -0.4603
  828MOL0     H11729   9.792   8.958   0.480 -1.2369  0.3703  0.6156
  828MOL0     H11730   9.838   8.802   0.391  2.0281  0.0558  1.0387
  828MOL0     H11731   9.594   8.950   0.636 -0.8999 -0.9863 -0.3397
  828MOL0     H11732   9.337   8.960   0.577  0.5997  0.7218  2.4494
  828MOL0     H11733   9.266   8.816   0.505  0.7738  0.0414  0.0336
  828MOL0     H11734   9.351   8.694   0.728  0.0147  0.0163 -2.9665
  828MOL0     H11735   9.394   8.855   0.785 -1.1722  0.2276  1.5516
  828MOL0     H11736   9.134   8.913   0.752 -1.6467 -0.2333  2.6891
  828MOL0     H11737   9.201   8.801   0.878  3.9334  1.4268 -0.5647
  828MOL0     H11738   9.127   8.614   0.727  0.3196  0.8805  0.5550
  828MOL0     H11739   9.097   8.746   0.605  0.7592 -0.0011  0.8510
  828MOL0     H11740   8.765   8.891   0.818  1.6968 -0.1001  0.2668
  828MOL0     H11741   8.569   8.924   0.671  2.1584  1.7412 -0.0132
  828MOL0     H11742   8.305   8.775   0.277  0.6084  1.7989 -1.8924
  828MOL0     H11743   8.126   8.849   0.155  0.4753  0.5754 -0.0406
  828MOL0     H11744   7.898   9.139   0.024  0.9195  1.1329  1.2892
  828MOL0     H11745   8.016   9.007   0.020  1.2782  0.7945  1.0579
  828MOL0     H11746   7.766   8.919   0.016 -1.4610  0.2962  0.6908
  828MOL0     H11747   7.839   8.889   0.176  1.1067  1.4249  0.9912
  828MOL0     H11748   7.727   9.048   0.278 -0.8454 -0.5146 -0.4987
  828MOL0     H11749   7.694   9.146   0.134  1.3229  2.6414  3.9361
  828MOL0     H11750   7.567   8.869   0.181  2.8914  0.0530 -1.3824
  828MOL0     H11751   7.539   8.971   0.046  0.0119 -0.5847 -0.0814
  828MOL0     H11752   7.462   9.152   0.201  4.1654 -1.6599 -1.1696
  828MOL0     H11753   7.468   9.047   0.340  0.4148  1.4501  0.9474
  828MOL0     H11754   7.285   9.034   0.093 -1.5684 -0.6186  0.1356
  828MOL0     H11755   7.322   8.890   0.174  0.3096 -0.3387  1.7770
  828MOL0     H11756   7.234   9.148   0.319  2.4253  0.6767 -0.7701
  828MOL0     H11757   7.220   8.976   0.378 -1.8196  1.6292  1.2668
  828MOL0     H11758   7.074   9.062   0.139  1.1483  0.4537 -0.3833
  828MOL0     H11759   7.074   8.909   0.220 -0.1372  0.0371  2.2163
  828MOL0     H11760   8.093   9.187   0.442 -1.6238 -1.1927  0.9085
  828MOL0     H11761   8.286   9.080   0.565 -0.1921 -0.3424  0.8657
  828MOL0     H11762   8.743   8.645   0.390 -2.7228 -1.4321 -0.3109
  828MOL0     H11763   8.915   8.589   0.549 -0.2063 -1.4078  0.4231
  828MOL0     H11764  10.511   8.376   0.902 -1.5509  2.6177  0.6310
  828MOL0     H11765  10.651   8.309   1.115  0.6995 -3.5855 -0.9428
  828MOL0     H11766  11.103   8.499   1.254  0.1763 -2.5065  1.4215
  828MOL0     H11767  11.252   8.592   1.393 -1.3672 -0.4188 -2.1115
  828MOL0     H11768  11.340   8.707   1.590 -0.4081 -0.6569 -0.6283
  828MOL0     H11769  11.398   8.537   1.606  0.1571  0.5533 -1.1259
  828MOL0     H11770  11.447   8.547   1.825  0.5502 -1.7177 -1.3093
  828MOL0     H11771  11.365   8.692   1.870  1.3434 -1.0614  0.2481
  828MOL0     H11772  11.639   8.659   1.729 -1.0095 -2.2786  2.8237
  828MOL0     H11773  11.610   8.750   1.864  3.1294 -2.7618 -0.6720
  828MOL0     H11774  11.546   8.817   1.568  1.3640 -1.7694  0.3142
  828MOL0     H11775  11.439   8.879   1.695  0.3875 -0.4520  0.6655
  828MOL0     H11776  11.770   9.135   1.743 -1.0861  0.9481 -1.2766
  828MOL0     H11777  11.006   8.497   1.732 -2.3974 -1.1351  0.5294
  828MOL0     H11778  10.725   8.377   1.537 -2.0222  2.3988  1.1154
  828MOL0     H11779  10.809   8.346   1.695  1.4748  2.7724  2.1045
  828MOL0     H11780  10.736   8.503   1.659 -1.2567 -0.0502 -0.6503
  829MOL0     O11781   7.562   6.545   8.667  1.3808  0.1842 -0.0671
  829MOL0     C11782   7.494   6.491   8.580 -0.5576  0.1059  0.4084
  829MOL0     O11783   7.545   6.413   8.473  0.4531  0.1756  0.0034
  829MOL0     C11784   7.679   6.386   8.465 -0.1961 -0.0352  0.1652
  829MOL0     C11785   7.765   6.495   8.435 -0.0998 -0.5131 -0.3432
  829MOL0     C11786   7.903   6.493   8.428 -0.2696 -0.4111  0.1457
  829MOL0     C11787   7.957   6.364   8.430 -0.7347  0.3617 -0.6639
  829MOL0     O11788   8.088   6.344   8.406  0.0755  0.2448  0.9008
  829MOL0     C11789   8.176   6.413   8.493  0.0903  1.0807  0.2691
  829MOL0     C11790   8.297   6.323   8.541  0.3682  0.1611  0.5963
  829MOL0     C11791   8.236   6.184   8.600  0.0965 -0.9801  0.3865
  829MOL0     C11792   8.167   6.205   8.736  0.2153 -0.5038  0.0680
  829MOL0     C11793   8.158   6.066   8.801 -0.3238 -0.7470  0.4779
  829MOL0     C11794   8.123   6.059   8.952 -0.3716 -0.4556 -0.1619
  829MOL0     C11795   8.135   5.918   9.001  0.1204 -0.3683 -0.0181
  829MOL0     C11796   8.084   5.897   9.149  0.3417 -0.5209  0.5237
  829MOL0     N11797   8.149   5.785   9.218  0.1491 -0.8836  0.5786
  829MOL0     C11798   8.126   5.651   9.193  0.0907  0.3371  0.9482
  829MOL0     C11799   8.216   5.587   9.265 -1.3080  1.4955  0.3107
  829MOL0     C11800   8.227   5.439   9.262 -0.2280  0.2646  1.3456
  829MOL0     C11801   8.091   5.373   9.286 -1.8589  0.7796  0.0690
  829MOL0     C11802   8.114   5.237   9.350  0.5865  0.1343  0.5875
  829MOL0     C11803   7.990   5.197   9.421  0.1402 -0.7827 -0.1911
  829MOL0     O11804   7.881   5.190   9.329  0.4782 -1.0234  0.1299
  829MOL0     C11805   7.768   5.114   9.353 -0.0318 -0.2148  0.2276
  829MOL0     C11806   7.739   5.046   9.474  0.0899 -0.3917 -0.4573
  829MOL0     C11807   7.616   4.984   9.496 -0.4977  0.7383 -1.4589
  829MOL0     C11808   7.518   5.000   9.396  0.2891 -0.3185 -0.8034
  829MOL0     C11809   7.386   4.933   9.409 -0.0481 -0.1712 -0.5924
  829MOL0     O11810   7.329   4.918   9.540  0.1360 -0.2280 -0.3315
  829MOL0     C11811   7.193   4.891   9.541  0.0988  0.0923  1.0200
  829MOL0     C11812   7.140   4.770   9.591 -0.5398  0.3787  1.5943
  829MOL0     C11813   7.001   4.757   9.612 -0.1405 -0.3869 -0.0961
  829MOL0     C11814   6.913   4.858   9.569 -0.0702  0.2275  0.2849
  829MOL0     O11815   6.775   4.822   9.578 -0.1903 -0.5695 -0.3932
  829MOL0     C11816   6.685   4.863   9.474 -0.6093  0.3523 -0.3089
  829MOL0     C11817   6.700   4.773   9.354 -0.0433 -0.0618  0.8530
  829MOL0     C11818   6.607   4.816   9.239  0.6622  0.3344 -0.3064
  829MOL0     C11819   6.590   4.707   9.127 -0.6920  0.9175 -0.3053
  829MOL0     C11820   6.705   4.702   9.022 -0.2972 -0.7939 -0.2787
  829MOL0     C11821   6.678   4.603   8.910 -0.8335 -1.3039 -1.0729
  829MOL0     C11822   6.574   4.652   8.805 -0.1136 -0.2540 -0.2417
  829MOL0     C11823   6.515   4.533   8.723  0.7046 -0.4824  0.1300
  829MOL0    Cl11824   6.657   4.461   8.639  0.1926 -0.3837  0.3532
  829MOL0     C11825   6.968   4.971   9.510 -0.0640  1.1028 -0.1011
  829MOL0     C11826   7.106   4.993   9.503 -0.1609  0.2940 -0.1578
  829MOL0     O11827   7.341   4.894   9.307 -1.0256  0.0296  0.3710
  829MOL0     C11828   7.546   5.065   9.274  0.3736  0.1900 -0.2087
  829MOL0     C11829   7.673   5.123   9.251 -0.1333  0.4731 -1.0244
  829MOL0     N11830   8.290   5.685   9.336 -0.0151 -0.4437 -0.3299
  829MOL0     N11831   8.246   5.800   9.310  0.2878 -0.0348 -0.6540
  829MOL0     C11832   7.883   6.252   8.474  0.2672  0.0376 -0.4655
  829MOL0     C11833   7.745   6.262   8.489 -0.0665  0.5422 -0.9287
  829MOL0     C11834   7.348   6.492   8.594 -0.1032 -0.3525  0.4462
  829MOL0     C11835   7.273   6.453   8.481  0.8407 -0.0899  0.7149
  829MOL0     C11836   7.138   6.457   8.461  0.1532  0.5897  0.0057
  829MOL0     C11837   7.066   6.493   8.573 -0.4013 -0.3041 -0.4848
  829MOL0     O11838   6.929   6.483   8.556 -0.0195 -0.0802 -0.8970
  829MOL0     C11839   6.843   6.574   8.623  0.1384 -0.2708  0.7450
  829MOL0     C11840   6.707   6.576   8.545  0.6087 -0.7334 -0.3885
  829MOL0     C11841   6.714   6.666   8.408  0.4775 -0.0266 -0.1104
  829MOL0     C11842   6.838   6.660   8.333 -0.5549 -0.0655  0.4941
  829MOL0     C11843   6.832   6.707   8.189  0.5630 -0.5513  0.2221
  829MOL0     C11844   6.819   6.750   8.077 -0.5266  0.0658 -0.2784
  829MOL0     C11845   7.131   6.531   8.694  0.5651  1.0279  0.3914
  829MOL0     C11846   7.277   6.531   8.700  0.3766 -0.3209 -0.4042
  829MOL0     C11847   7.337   6.580   8.834  0.9705 -0.0675  0.3942
  829MOL0     H11848   7.712   6.590   8.429  0.1278 -0.4512 -1.9840
  829MOL0     H11849   7.972   6.572   8.399 -0.8079  0.8714  2.1674
  829MOL0     H11850   8.228   6.492   8.439  1.4137  0.9327  1.2607
  829MOL0     H11851   8.128   6.460   8.579 -1.6846  1.7289 -1.0277
  829MOL0     H11852   8.356   6.382   8.612 -1.6187  0.9491  1.6743
  829MOL0     H11853   8.363   6.299   8.457  0.0856 -1.0043  0.6808
  829MOL0     H11854   8.331   6.133   8.618  1.6871  2.0362  1.3453
  829MOL0     H11855   8.168   6.134   8.531 -2.9862  1.8489  1.0848
  829MOL0     H11856   8.233   6.266   8.798 -0.2306 -1.2868  1.3619
  829MOL0     H11857   8.063   6.237   8.723 -0.4452 -1.9730  1.4348
  829MOL0     H11858   8.085   6.006   8.747 -1.5196  0.5234  0.6388
  829MOL0     H11859   8.258   6.025   8.781  1.0306  3.3297 -2.2724
  829MOL0     H11860   8.200   6.110   9.009 -0.3913  0.6483 -1.0776
  829MOL0     H11861   8.032   6.111   8.982  0.0132 -0.1101  0.4101
  829MOL0     H11862   8.236   5.878   8.986 -1.1890 -4.9352  1.4707
  829MOL0     H11863   8.071   5.857   8.937  1.9317 -2.9176  0.4214
  829MOL0     H11864   8.106   5.991   9.201 -1.5113  0.5703 -0.5310
  829MOL0     H11865   7.976   5.887   9.157 -0.0250  2.9640  1.7766
  829MOL0     H11866   8.052   5.612   9.124  0.0271  1.5338  0.3207
  829MOL0     H11867   8.264   5.400   9.166 -2.3662  2.0014 -0.2835
  829MOL0     H11868   8.300   5.413   9.339  1.5062 -0.2606 -0.3794
  829MOL0     H11869   8.036   5.430   9.362 -0.8298  0.0135  1.4426
  829MOL0     H11870   8.025   5.371   9.200  0.6832 -1.8918 -2.0193
  829MOL0     H11871   8.199   5.233   9.418 -0.9395 -0.4344  2.5775
  829MOL0     H11872   8.131   5.171   9.264 -1.9171  0.7111 -0.4377
  829MOL0     H11873   7.961   5.270   9.497  0.2332 -0.0617 -0.8409
  829MOL0     H11874   7.998   5.094   9.457  1.8021 -0.0906  1.6116
  829MOL0     H11875   7.815   5.034   9.550 -0.8014 -0.4897  0.4359
  829MOL0     H11876   7.587   4.914   9.574  0.1849  0.5161 -1.4013
  829MOL0     H11877   7.214   4.695   9.615 -0.3277  0.0001 -0.1289
  829MOL0     H11878   6.959   4.667   9.656 -0.5640 -1.5689 -2.7064
  829MOL0     H11879   6.577   4.862   9.494 -0.5858 -2.7222  0.0673
  829MOL0     H11880   6.704   4.969   9.452  1.4688  0.2070  0.5796
  829MOL0     H11881   6.801   4.760   9.315 -0.0369  4.2871 -1.2724
  829MOL0     H11882   6.661   4.677   9.389 -3.6694  0.8259 -0.3076
  829MOL0     H11883   6.509   4.815   9.288  2.9635 -0.2618  4.9984
  829MOL0     H11884   6.631   4.920   9.213  1.1253  0.3892  0.3120
  829MOL0     H11885   6.490   4.718   9.086 -0.4109  0.4482 -1.1599
  829MOL0     H11886   6.598   4.609   9.176 -0.7394 -0.1408 -2.3012
  829MOL0     H11887   6.794   4.677   9.082 -1.2820 -3.9366  0.0687
  829MOL0     H11888   6.724   4.805   8.989  1.3286 -0.1922  2.1585
  829MOL0     H11889   6.775   4.584   8.862  0.7224  1.0312  0.9047
  829MOL0     H11890   6.644   4.506   8.946  0.6706 -0.9413  1.6128
  829MOL0     H11891   6.616   4.723   8.733 -2.7242  2.5381  0.7584
  829MOL0     H11892   6.485   4.699   8.847 -0.3372 -0.3220 -0.6329
  829MOL0     H11893   6.454   4.467   8.786  0.3645 -0.6799 -0.3986
  829MOL0     H11894   6.441   4.566   8.650  1.9204 -0.5296 -1.1598
  829MOL0     H11895   6.910   5.058   9.478 -1.4405  0.8879  1.6216
  829MOL0     H11896   7.146   5.088   9.470  1.7135 -0.2396  0.4618
  829MOL0     H11897   7.471   5.063   9.196 -0.1294  0.2198  0.2628
  829MOL0     H11898   7.693   5.163   9.152  3.4957 -3.4282 -2.1631
  829MOL0     H11899   7.944   6.164   8.487  0.6105  0.4926  1.3736
  829MOL0     H11900   7.680   6.178   8.512 -1.7137  1.3254 -2.5290
  829MOL0     H11901   7.320   6.419   8.389  3.9422 -1.8000  2.7539
  829MOL0     H11902   7.097   6.429   8.364 -0.9203 -0.3332  0.6907
  829MOL0     H11903   6.879   6.677   8.617 -0.5141 -0.0605  0.3506
  829MOL0     H11904   6.853   6.531   8.724 -1.7726 -4.2654 -0.5652
  829MOL0     H11905   6.644   6.630   8.617  0.0880 -0.9840 -0.6504
  829MOL0     H11906   6.658   6.482   8.517  0.2664 -0.2859 -1.3329
  829MOL0     H11907   6.692   6.772   8.420 -2.6872 -0.3112 -2.1394
  829MOL0     H11908   6.625   6.632   8.355  0.1713 -1.3900  1.2045
  829MOL0     H11909   6.918   6.710   8.390 -0.9792 -2.0026  2.9666
  829MOL0     H11910   6.865   6.555   8.321 -0.9100 -0.2404  1.1957
  829MOL0     H11911   6.809   6.769   7.972  0.7352 -0.3919 -0.4934
  829MOL0     H11912   7.086   6.557   8.789  1.9105  1.4991  0.9173
  829MOL0     H11913   7.428   6.524   8.855  2.7001  2.9421  1.6265
  829MOL0     H11914   7.374   6.683   8.824  1.4620 -0.1216  1.5320
  829MOL0     H11915   7.264   6.577   8.915 -1.2921 -0.4079 -1.5554
  830MOL0     O11916   5.298   4.895   8.262 -0.1964  1.4160  0.3332
  830MOL0     C11917   5.247   4.969   8.348  0.7725  0.3599  0.6934
  830MOL0     O11918   5.318   5.054   8.433 -0.5641 -0.6857 -0.4150
  830MOL0     C11919   5.452   5.034   8.428  0.0732 -0.3824 -0.1782
  830MOL0     C11920   5.504   4.909   8.457 -0.1574  0.0647  0.2440
  830MOL0     C11921   5.646   4.894   8.462  0.0552 -0.4983  0.1470
  830MOL0     C11922   5.730   5.002   8.437 -0.6701  0.2154 -0.7855
  830MOL0     O11923   5.869   4.975   8.444 -0.5515 -0.3336  0.2334
  830MOL0     C11924   5.964   5.087   8.454 -0.3755  0.6650  0.1115
  830MOL0     C11925   6.097   5.040   8.489  0.2215 -0.1397  0.2410
  830MOL0     C11926   6.213   5.138   8.506  0.1491 -0.4264 -0.2463
  830MOL0     C11927   6.284   5.170   8.385 -0.4658  0.4130  0.3277
  830MOL0     C11928   6.418   5.248   8.418 -0.1833  0.0240 -1.0786
  830MOL0     C11929   6.529   5.236   8.325  0.2329  0.2368  0.2780
  830MOL0     C11930   6.609   5.108   8.334  0.2949  1.2558  0.2640
  830MOL0     C11931   6.693   5.087   8.207  0.2415  0.5206  0.3859
  830MOL0     N11932   6.815   5.182   8.208 -0.1217 -0.1046  0.8133
  830MOL0     C11933   6.907   5.198   8.310  0.3819 -0.2949 -0.6394
  830MOL0     C11934   6.982   5.303   8.274 -0.8091 -0.8416 -0.9481
  830MOL0     C11935   7.099   5.360   8.354  0.0178  0.0622  0.3539
  830MOL0     C11936   7.130   5.500   8.317 -0.0375 -0.0014 -0.4574
  830MOL0     C11937   7.267   5.560   8.357 -0.0555  0.4817  0.8105
  830MOL0     C11938   7.297   5.558   8.503 -0.2101 -0.7139  0.2660
  830MOL0     O11939   7.331   5.427   8.540 -0.1355 -0.5557  0.6545
  830MOL0     C11940   7.455   5.378   8.522  0.2191  0.4067  0.1437
  830MOL0     C11941   7.467   5.239   8.548  0.2190  0.1231 -0.0856
  830MOL0     C11942   7.591   5.179   8.544  0.3075  0.9755  0.2357
  830MOL0     C11943   7.700   5.249   8.501  1.0264 -0.3759 -0.1654
  830MOL0     C11944   7.824   5.172   8.490 -0.0874 -0.4005 -0.2389
  830MOL0     O11945   7.911   5.216   8.397  0.1924 -0.0709  0.2889
  830MOL0     C11946   8.035   5.160   8.399  0.4335  0.3790 -0.6099
  830MOL0     C11947   8.057   5.043   8.325 -0.4631 -0.8961 -0.8662
  830MOL0     C11948   8.177   4.979   8.323  0.5085 -0.3808  0.6317
  830MOL0     C11949   8.286   5.037   8.383 -0.1809  0.1613  0.0987
  830MOL0     O11950   8.407   4.980   8.361 -0.2740  1.1309 -0.0712
  830MOL0     C11951   8.522   5.065   8.326 -0.1809 -0.1741  0.3894
  830MOL0     C11952   8.639   4.973   8.291  0.3676  0.0250 -0.3859
  830MOL0     C11953   8.767   5.050   8.250  0.3659  0.4111 -0.5465
  830MOL0     C11954   8.858   5.093   8.368 -0.2734 -0.7739  0.7840
  830MOL0     C11955   8.994   5.129   8.312 -0.4126  0.2355  0.2036
  830MOL0     C11956   9.098   5.149   8.418  0.0767 -0.3463 -0.8119
  830MOL0     C11957   9.053   5.272   8.502  0.1882  0.7824 -0.9765
  830MOL0     C11958   9.160   5.334   8.602  0.2978 -1.3193  0.2931
  830MOL0    Cl11959   9.089   5.468   8.707  0.0155 -0.2356  0.2165
  830MOL0     C11960   8.271   5.146   8.460 -0.0862 -0.6490  0.4582
  830MOL0     C11961   8.152   5.211   8.468  0.6276  1.1517 -0.3527
  830MOL0     O11962   7.840   5.088   8.578 -0.8295 -0.2883  0.2448
  830MOL0     C11963   7.691   5.386   8.477 -0.2502 -0.1679 -0.6045
  830MOL0     C11964   7.566   5.449   8.487 -0.6952 -0.7522  0.1658
  830MOL0     N11965   6.924   5.356   8.162 -0.1661  1.1733  0.9031
  830MOL0     N11966   6.827   5.283   8.123  0.8449 -0.7763  0.9297
  830MOL0     C11967   5.671   5.121   8.396 -1.2090 -0.4895 -0.8081
  830MOL0     C11968   5.533   5.140   8.397 -0.3360 -0.2482 -0.3636
  830MOL0     C11969   5.094   4.968   8.351 -0.8407  1.2907  0.2611
  830MOL0     C11970   5.031   4.855   8.296  0.1511  0.7541 -0.1573
  830MOL0     C11971   4.894   4.842   8.297  0.0054 -0.1698  0.4055
  830MOL0     C11972   4.810   4.940   8.362 -0.6863  0.6229  0.6486
  830MOL0     O11973   4.666   4.934   8.359  1.0250  0.4693  0.3723
  830MOL0     C11974   4.605   4.891   8.240  0.3732 -0.2165  0.3036
  830MOL0     C11975   4.524   4.766   8.286 -0.3205 -1.0496  0.3305
  830MOL0     C11976   4.396   4.805   8.366 -0.8577  0.3465 -0.3642
  830MOL0     C11977   4.346   4.680   8.439  1.1790  0.7360 -0.2559
  830MOL0     C11978   4.301   4.570   8.348 -0.5259 -0.8000 -0.5891
  830MOL0     C11979   4.235   4.492   8.286 -0.6024 -0.6911  0.3933
  830MOL0     C11980   4.870   5.059   8.409  0.2734  0.6156  0.2431
  830MOL0     C11981   5.012   5.071   8.408 -0.1034  0.2032 -0.1359
  830MOL0     C11982   5.069   5.183   8.488  0.8888 -0.4614 -0.0244
  830MOL0     H11983   5.456   4.812   8.469 -1.9808  0.8182 -0.4608
  830MOL0     H11984   5.685   4.796   8.484  0.3056 -0.5366 -0.4470
  830MOL0     H11985   5.973   5.131   8.354 -2.5307  1.6294  0.2784
  830MOL0     H11986   5.928   5.168   8.518  2.7238  0.7110  1.9918
  830MOL0     H11987   6.133   4.967   8.415  2.6780  0.1100  1.0821
  830MOL0     H11988   6.100   4.979   8.579  3.3859 -1.3794 -0.5715
  830MOL0     H11989   6.278   5.081   8.573 -1.2797 -0.4853  1.1629
  830MOL0     H11990   6.198   5.236   8.551  0.6103 -0.6326  0.3600
  830MOL0     H11991   6.311   5.077   8.333 -0.4957  2.1182 -3.0495
  830MOL0     H11992   6.228   5.225   8.308  2.0644  1.8156 -0.6411
  830MOL0     H11993   6.389   5.353   8.424 -1.6540 -0.4599  2.1532
  830MOL0     H11994   6.453   5.218   8.517 -2.5108  0.2527 -0.1108
  830MOL0     H11995   6.510   5.266   8.222 -1.8897 -0.3716  0.4347
  830MOL0     H11996   6.598   5.315   8.354  0.7244 -0.2925  0.5650
  830MOL0     H11997   6.542   5.022   8.343  0.5849  0.8036 -1.4998
  830MOL0     H11998   6.679   5.107   8.418 -0.3039  1.9851  0.7790
  830MOL0     H11999   6.739   4.988   8.204  0.4448  0.5816  1.3882
  830MOL0     H12000   6.629   5.100   8.118  0.7793 -1.2823 -0.3100
  830MOL0     H12001   6.910   5.135   8.397  2.4581 -1.4354 -1.4738
  830MOL0     H12002   7.070   5.345   8.458 -0.2990  1.0978  0.4193
  830MOL0     H12003   7.184   5.294   8.335 -0.5911 -0.6109 -0.0884
  830MOL0     H12004   7.114   5.518   8.210  0.5728 -1.6298 -0.8521
  830MOL0     H12005   7.055   5.563   8.366  0.8429  0.4951  0.2899
  830MOL0     H12006   7.274   5.661   8.315  1.3466  0.5478  1.1487
  830MOL0     H12007   7.339   5.497   8.304 -2.0423 -3.3162  2.2492
  830MOL0     H12008   7.207   5.603   8.546 -1.7149  1.5235 -4.5419
  830MOL0     H12009   7.379   5.627   8.530  0.0013 -0.9399  0.2040
  830MOL0     H12010   7.371   5.189   8.559  1.0621 -1.7164 -0.6700
  830MOL0     H12011   7.598   5.077   8.581  0.3291  0.1544 -1.9185
  830MOL0     H12012   7.978   5.001   8.263  0.9204 -3.1536 -1.2244
  830MOL0     H12013   8.209   4.897   8.260  1.5939 -0.5471  1.3673
  830MOL0     H12014   8.484   5.118   8.238  0.2048  1.6193  1.2532
  830MOL0     H12015   8.548   5.145   8.397  0.2176  0.7017 -0.7139
  830MOL0     H12016   8.653   4.912   8.381 -2.0958  1.2583  0.9666
  830MOL0     H12017   8.600   4.909   8.211 -1.7857  0.0092  0.5952
  830MOL0     H12018   8.813   4.970   8.192 -2.2556 -1.9802  0.4186
  830MOL0     H12019   8.745   5.135   8.186  2.0020  0.6224 -0.8692
  830MOL0     H12020   8.874   5.013   8.441  0.3492 -2.6676 -1.3407
  830MOL0     H12021   8.814   5.179   8.420 -0.2567  1.1197 -2.1592
  830MOL0     H12022   9.003   5.219   8.250  4.3205  1.3684  2.0910
  830MOL0     H12023   9.030   5.040   8.259  2.6538  1.1366  0.5726
  830MOL0     H12024   9.090   5.057   8.476  1.0753  0.9146  1.4569
  830MOL0     H12025   9.202   5.166   8.390  0.3837  1.2206  1.0980
  830MOL0     H12026   8.961   5.244   8.553 -0.9197  0.7336 -2.9047
  830MOL0     H12027   9.038   5.349   8.425 -1.3876  1.4622 -0.0462
  830MOL0     H12028   9.197   5.253   8.666 -0.4641  0.9116  3.8203
  830MOL0     H12029   9.249   5.372   8.552 -0.9054 -0.0486 -0.9960
  830MOL0     H12030   8.347   5.178   8.531 -1.4078  0.9160  1.2311
  830MOL0     H12031   8.145   5.299   8.532  0.3059 -0.4246  1.8723
  830MOL0     H12032   7.782   5.438   8.451  0.5442 -0.9855  0.4505
  830MOL0     H12033   7.561   5.555   8.465  0.7699 -0.8617 -0.8636
  830MOL0     H12034   5.729   5.208   8.367  0.6442 -0.8364  1.5395
  830MOL0     H12035   5.493   5.235   8.364  1.0410 -0.0493 -1.5250
  830MOL0     H12036   5.096   4.777   8.257 -0.1498 -2.2881  4.5445
  830MOL0     H12037   4.850   4.755   8.249  0.2879  1.2751 -2.7526
  830MOL0     H12038   4.673   4.867   8.158 -2.0442 -2.2140 -1.2517
  830MOL0     H12039   4.527   4.963   8.213  0.7072 -0.2317 -0.7178
  830MOL0     H12040   4.586   4.695   8.342 -0.1487 -0.7361  0.5403
  830MOL0     H12041   4.491   4.710   8.198 -1.0102 -0.4770  0.2161
  830MOL0     H12042   4.325   4.845   8.294 -1.8300 -1.9932 -0.7666
  830MOL0     H12043   4.425   4.885   8.436  1.2770 -0.1064 -0.6581
  830MOL0     H12044   4.411   4.640   8.517 -0.9264 -0.1005  1.1649
  830MOL0     H12045   4.262   4.718   8.498  0.6599  0.8692 -1.0653
  830MOL0     H12046   4.183   4.411   8.240  0.1372 -0.6607 -0.5216
  830MOL0     H12047   4.816   5.149   8.437  0.4351  1.2324 -1.3078
  830MOL0     H12048   5.122   5.140   8.574 -0.7678 -2.2349  0.1847
  830MOL0     H12049   5.145   5.233   8.427  1.1691  1.7079  1.9634
  830MOL0     H12050   4.988   5.247   8.524 -1.6191 -3.8810  0.9136
  831MOL0     O12051   3.702   7.113   8.861 -0.1898  0.3728 -0.1409
  831MOL0     C12052   3.653   7.137   8.751 -0.5163 -0.1709  0.6187
  831MOL0     O12053   3.724   7.160   8.632 -0.3449 -0.5039  0.2242
  831MOL0     C12054   3.863   7.154   8.623  0.2958  0.2890 -0.0750
  831MOL0     C12055   3.913   7.126   8.489  0.4345  0.2586 -0.3198
  831MOL0     C12056   4.047   7.134   8.455 -0.6608 -0.6851  0.0980
  831MOL0     C12057   4.139   7.169   8.558  0.0263  0.0722  0.0162
  831MOL0     O12058   4.276   7.174   8.534  0.5881 -0.6053  0.4508
  831MOL0     C12059   4.368   7.208   8.646  0.1070  0.5939  0.0910
  831MOL0     C12060   4.507   7.218   8.579 -0.2572 -1.1671 -1.0343
  831MOL0     C12061   4.607   7.260   8.678  0.3736 -0.1025 -0.0145
  831MOL0     C12062   4.746   7.241   8.614  0.4286  0.2217 -0.8806
  831MOL0     C12063   4.851   7.340   8.667  0.6856 -0.2882  1.7241
  831MOL0     C12064   4.988   7.314   8.598  0.1400 -0.4107 -0.2196
  831MOL0     C12065   5.088   7.420   8.629 -1.0354  0.6462 -0.7637
  831MOL0     C12066   5.089   7.540   8.536  0.2597 -0.5834  1.2106
  831MOL0     N12067   5.150   7.514   8.400  0.1634 -0.7070  1.0373
  831MOL0     C12068   5.212   7.622   8.318 -1.3450  0.3190 -0.5308
  831MOL0     C12069   5.245   7.551   8.206  0.2382 -0.7551 -0.0631
  831MOL0     C12070   5.304   7.614   8.090 -0.4355  0.6705 -0.8557
  831MOL0     C12071   5.456   7.641   8.094  0.7246  0.6444  0.4179
  831MOL0     C12072   5.533   7.501   8.099  0.1177  0.9479  0.6363
  831MOL0     C12073   5.671   7.521   8.158 -0.4302  0.0265  0.4072
  831MOL0     O12074   5.678   7.504   8.298 -0.5713 -0.3142 -0.1129
  831MOL0     C12075   5.806   7.481   8.342 -0.1679 -0.2052  0.1850
  831MOL0     C12076   5.843   7.357   8.395  0.2230  0.4634  0.3007
  831MOL0     C12077   5.973   7.330   8.458  0.9398  0.8229  0.1635
  831MOL0     C12078   6.063   7.437   8.479  0.0827  0.5945  0.2608
  831MOL0     C12079   6.185   7.428   8.562  0.5547 -0.7393 -0.5030
  831MOL0     O12080   6.252   7.546   8.608  0.1225  0.0064  0.6676
  831MOL0     C12081   6.374   7.536   8.664 -0.3590  0.7862  0.0086
  831MOL0     C12082   6.399   7.506   8.801 -0.0851  0.5285 -0.0844
  831MOL0     C12083   6.528   7.498   8.847 -0.8754 -0.7962  0.0665
  831MOL0     C12084   6.639   7.537   8.769  1.0866  0.5686 -0.4073
  831MOL0     O12085   6.759   7.541   8.830 -1.0309  0.1928 -0.1026
  831MOL0     C12086   6.856   7.466   8.762  0.1417  0.3720 -0.0367
  831MOL0     C12087   6.992   7.468   8.838  1.0643  0.2899  0.0688
  831MOL0     C12088   7.027   7.606   8.867 -0.3360 -0.1398 -0.3562
  831MOL0     C12089   7.006   7.635   9.014  0.2590  0.2772  0.4668
  831MOL0     C12090   7.021   7.787   9.048  0.4912 -0.7619 -0.1379
  831MOL0     C12091   7.058   7.820   9.198  0.2306  0.9295 -0.0414
  831MOL0     C12092   7.093   7.965   9.238 -0.7287  0.1322 -0.1213
  831MOL0     C12093   7.094   7.986   9.384 -0.2951  0.0829  0.2174
  831MOL0    Cl12094   6.934   7.932   9.461  0.1339 -0.2953  0.3852
  831MOL0     C12095   6.612   7.551   8.629  0.0187 -0.4731  0.4674
  831MOL0     C12096   6.477   7.559   8.583 -0.2627 -0.5560  0.4582
  831MOL0     O12097   6.230   7.315   8.589 -0.2197  0.8529  0.0704
  831MOL0     C12098   6.027   7.560   8.421  0.1894  0.3267 -0.8096
  831MOL0     C12099   5.906   7.577   8.350 -0.1659 -0.5487  0.6562
  831MOL0     N12100   5.193   7.426   8.209 -0.8061  0.0878  0.1466
  831MOL0     N12101   5.139   7.400   8.325  0.6623  0.2358  0.2324
  831MOL0     C12102   4.090   7.187   8.691 -0.6825 -0.3457 -0.0846
  831MOL0     C12103   3.957   7.188   8.720 -0.2291  1.4688 -0.8164
  831MOL0     C12104   3.503   7.156   8.736  0.4173  0.2839 -0.7772
  831MOL0     C12105   3.453   7.187   8.604 -0.2462  0.0440  0.0283
  831MOL0     C12106   3.316   7.203   8.567 -0.4772  0.0957  0.0133
  831MOL0     C12107   3.218   7.180   8.670  1.0754 -0.7300  0.2217
  831MOL0     O12108   3.090   7.219   8.671 -0.0226  0.5352 -0.3100
  831MOL0     C12109   3.067   7.357   8.650  0.7851  0.4899  0.3886
  831MOL0     C12110   2.924   7.395   8.633  0.8918 -0.4960 -0.4743
  831MOL0     C12111   2.851   7.289   8.565  0.2625 -0.1356  0.1268
  831MOL0     C12112   2.864   7.282   8.411 -0.8564  0.4644 -0.0878
  831MOL0     C12113   2.993   7.328   8.355 -0.6070  0.0282  0.2343
  831MOL0     C12114   3.100   7.357   8.304  0.1379 -1.3024  0.5479
  831MOL0     C12115   3.267   7.147   8.801  0.2193 -0.0083 -0.0720
  831MOL0     C12116   3.402   7.128   8.835  0.3743 -1.1365 -0.1666
  831MOL0     C12117   3.435   7.094   8.973 -0.0201  0.4830 -0.1478
  831MOL0     H12118   3.833   7.098   8.421 -2.1249 -0.4922  2.7672
  831MOL0     H12119   4.090   7.113   8.357 -2.1239 -1.2214 -0.4626
  831MOL0     H12120   4.348   7.304   8.695 -0.7668 -0.1264  1.1972
  831MOL0     H12121   4.376   7.131   8.723 -0.4599  0.0357 -0.4008
  831MOL0     H12122   4.509   7.290   8.496  3.2287 -1.7388 -1.6220
  831MOL0     H12123   4.531   7.115   8.549  0.2772 -1.6279  0.8737
  831MOL0     H12124   4.590   7.218   8.778 -0.8925  1.0460  0.2794
  831MOL0     H12125   4.587   7.368   8.674  1.6855  0.1926 -4.6336
  831MOL0     H12126   4.780   7.138   8.627  0.9187  0.3234 -1.3228
  831MOL0     H12127   4.741   7.254   8.505  1.0907 -1.2214 -1.0954
  831MOL0     H12128   4.814   7.439   8.638  2.1537 -0.4880 -1.2041
  831MOL0     H12129   4.858   7.333   8.776 -0.2928 -0.3502  1.7882
  831MOL0     H12130   5.019   7.213   8.627 -2.3171 -0.8786  1.0448
  831MOL0     H12131   4.970   7.314   8.490  1.3569 -0.1825 -0.4378
  831MOL0     H12132   5.191   7.385   8.629 -0.4711  2.2037 -0.9727
  831MOL0     H12133   5.071   7.475   8.722  0.2259  1.2260 -0.8479
  831MOL0     H12134   4.987   7.577   8.525  0.6657  0.6855  1.5638
  831MOL0     H12135   5.132   7.619   8.599 -0.3038  0.1848  0.6476
  831MOL0     H12136   5.219   7.730   8.331  1.9018  0.1921 -0.5494
  831MOL0     H12137   5.276   7.546   8.008  1.4548 -1.4310  0.1179
  831MOL0     H12138   5.258   7.712   8.094  1.0556  1.3720  0.1004
  831MOL0     H12139   5.482   7.701   8.007  2.4674  2.8914  2.3292
  831MOL0     H12140   5.480   7.700   8.183  0.9132  0.2209  0.6498
  831MOL0     H12141   5.551   7.458   8.000 -1.4002  0.8566  0.3692
  831MOL0     H12142   5.490   7.419   8.157  2.3220  0.1880  1.2943
  831MOL0     H12143   5.709   7.616   8.119  0.9751 -0.5814  0.2367
  831MOL0     H12144   5.724   7.437   8.112 -1.5451 -0.1954 -0.5026
  831MOL0     H12145   5.771   7.280   8.371 -1.2002  1.4508  1.2463
  831MOL0     H12146   5.992   7.229   8.492  2.1375 -1.5894 -6.2237
  831MOL0     H12147   6.322   7.470   8.867  0.4261  0.5673  0.5419
  831MOL0     H12148   6.563   7.466   8.945  1.3360 -0.1632 -0.4499
  831MOL0     H12149   6.818   7.364   8.755  0.6711  0.2109 -0.6964
  831MOL0     H12150   6.884   7.506   8.664 -0.7552  0.5903 -0.2128
  831MOL0     H12151   6.968   7.406   8.925 -0.7352  0.1834 -0.4442
  831MOL0     H12152   7.072   7.418   8.783  1.8291 -0.7843  2.0579
  831MOL0     H12153   7.128   7.636   8.836  0.5383 -2.4824  0.0232
  831MOL0     H12154   6.960   7.671   8.809 -2.1398 -0.3208  1.4477
  831MOL0     H12155   7.068   7.572   9.079  1.7120  1.3753  0.1985
  831MOL0     H12156   6.902   7.616   9.040  0.4237 -0.1187  0.8487
  831MOL0     H12157   6.926   7.839   9.032  0.9320  0.7730  1.8949
  831MOL0     H12158   7.099   7.820   8.980  0.6534  2.2155  1.3337
  831MOL0     H12159   6.990   7.775   9.271  0.0290 -0.6841 -1.1625
  831MOL0     H12160   7.153   7.771   9.220  1.1459  2.2410 -0.9424
  831MOL0     H12161   7.024   8.038   9.194 -1.6783 -1.8450 -2.1040
  831MOL0     H12162   7.188   7.978   9.187 -1.2136 -1.9723 -1.6655
  831MOL0     H12163   7.179   7.939   9.434 -0.7327 -0.1072  0.7972
  831MOL0     H12164   7.111   8.093   9.403 -0.0252 -0.1406  1.2900
  831MOL0     H12165   6.689   7.567   8.554  1.3365 -4.7992  0.6341
  831MOL0     H12166   6.461   7.595   8.482 -0.2993 -1.6619  0.0563
  831MOL0     H12167   6.097   7.642   8.433 -1.4195  1.5878  0.3266
  831MOL0     H12168   5.888   7.672   8.302 -0.6280 -0.6413  0.6420
  831MOL0     H12169   4.151   7.235   8.767 -0.8556  0.0650 -0.2029
  831MOL0     H12170   3.923   7.223   8.817  0.6206  0.3594 -0.0939
  831MOL0     H12171   3.534   7.204   8.534 -0.2591 -1.3307 -0.3477
  831MOL0     H12172   3.286   7.231   8.467 -0.5093 -1.7193 -0.5152
  831MOL0     H12173   3.130   7.399   8.571 -2.3443 -2.2044 -4.0223
  831MOL0     H12174   3.088   7.407   8.745 -3.2154  1.2073  1.0655
  831MOL0     H12175   2.922   7.489   8.577  0.1722 -0.4759 -0.4243
  831MOL0     H12176   2.883   7.424   8.731  4.8376  1.7518  0.7445
  831MOL0     H12177   2.744   7.306   8.583 -0.6577 -4.3062 -0.4853
  831MOL0     H12178   2.877   7.195   8.613 -0.4623 -0.0529  0.7142
  831MOL0     H12179   2.845   7.183   8.369 -1.1202 -0.1807  1.4517
  831MOL0     H12180   2.789   7.344   8.362 -2.0758 -0.5639  0.4249
  831MOL0     H12181   3.191   7.391   8.259 -1.6076  1.7732 -0.9377
  831MOL0     H12182   3.199   7.139   8.885  1.8130  0.3057  1.2925
  831MOL0     H12183   3.345   7.093   9.034  0.5649  0.6519  0.7400
  831MOL0     H12184   3.469   6.990   8.970 -0.6402  0.0989  2.8536
  831MOL0     H12185   3.507   7.158   9.025  1.2735  2.6666 -4.2037
  832MOL0     O12186  10.276   0.224   1.971 -0.7001 -0.3347 -0.0850
  832MOL0     C12187  10.186   0.303   1.956 -0.3932  0.0564  0.0954
  832MOL0     O12188  10.192   0.436   1.988  0.1093  0.6914  0.3557
  832MOL0     C12189  10.305   0.476   2.063 -0.2048 -0.2845 -0.0806
  832MOL0     C12190  10.426   0.513   2.009  0.1946  0.1437 -0.0456
  832MOL0     C12191  10.546   0.535   2.089  0.7048 -0.3851 -0.4565
  832MOL0     C12192  10.526   0.551   2.223 -0.9898 -0.6111 -0.0842
  832MOL0     O12193  10.629   0.589   2.302  0.0994 -0.5327  0.0348
  832MOL0     C12194  10.740   0.675   2.263  0.8802  0.4184  0.7117
  832MOL0     C12195  10.848   0.674   2.371  0.5695 -0.3134 -0.6785
  832MOL0     C12196  10.949   0.788   2.344 -0.4296 -0.7657 -0.8831
  832MOL0     C12197  11.070   0.791   2.452  0.0664 -0.5988  0.2720
  832MOL0     C12198  11.199   0.726   2.398  0.1451  0.9700 -0.0816
  832MOL0     C12199  11.320   0.706   2.500 -0.2909 -0.4930 -0.6612
  832MOL0     C12200  11.377   0.849   2.538  0.1766  0.4727  0.8771
  832MOL0     C12201  11.526   0.838   2.566  0.5515  0.2903  0.2751
  832MOL0     N12202  11.542   0.797   2.703 -0.7374  0.6163 -0.4275
  832MOL0     C12203  11.552   0.882   2.810  0.7498 -0.2063 -0.2418
  832MOL0     C12204  11.583   0.804   2.919  0.1982 -1.1631  0.2844
  832MOL0     C12205  11.564   0.850   3.063 -0.1689  0.0607  0.0871
  832MOL0     C12206  11.666   0.764   3.153 -0.7684 -0.2601  0.2726
  832MOL0     C12207  11.660   0.798   3.312 -0.0762  0.7371  1.2165
  832MOL0     C12208  11.522   0.787   3.377  0.0953 -0.3466 -0.3999
  832MOL0     O12209  11.476   0.654   3.351  0.4247  0.3071  0.1397
  832MOL0     C12210  11.363   0.614   3.421  0.1533  0.4213 -0.3728
  832MOL0     C12211  11.302   0.690   3.520 -0.0609 -0.3318  0.1537
  832MOL0     C12212  11.189   0.641   3.582  0.7056 -0.2020  0.1025
  832MOL0     C12213  11.138   0.518   3.558  0.5732 -1.0040  0.3727
  832MOL0     C12214  11.016   0.472   3.625  1.1685 -0.9294  0.9190
  832MOL0     O12215  10.982   0.533   3.739 -0.2313 -0.0998  0.1449
  832MOL0     C12216  10.881   0.496   3.831  0.6831  0.4047 -0.1848
  832MOL0     C12217  10.846   0.586   3.934 -0.2921 -0.1178 -0.4973
  832MOL0     C12218  10.735   0.560   4.010 -0.0491  0.3163  0.1387
  832MOL0     C12219  10.669   0.434   3.998 -0.1423  0.9632 -0.5612
  832MOL0     O12220  10.551   0.424   4.069  0.0228 -0.4294  0.2523
  832MOL0     C12221  10.438   0.411   3.991 -0.0366 -0.1978  0.2024
  832MOL0     C12222  10.322   0.449   4.088 -0.0235  0.0447  0.9750
  832MOL0     C12223  10.271   0.343   4.190  0.1001 -0.2139  0.4604
  832MOL0     C12224  10.243   0.203   4.139 -0.6015 -0.8378  0.9467
  832MOL0     C12225  10.174   0.130   4.245  0.8233  0.2667 -0.6734
  832MOL0     C12226  10.129  -0.007   4.210  1.1409  1.0112  0.7243
  832MOL0     C12227  10.082  -0.047   4.068  0.1105 -0.4560  1.3925
  832MOL0     C12228   9.929  -0.033   4.056  0.2608 -0.5483  0.2239
  832MOL0    Cl12229   9.879   0.135   4.034 -0.1786 -0.1194 -0.3320
  832MOL0     C12230  10.714   0.333   3.910  0.9538  0.0088 -0.1388
  832MOL0     C12231  10.819   0.370   3.827  1.5851  1.1561 -0.0316
  832MOL0     O12232  10.953   0.385   3.568 -0.1582 -0.3979 -0.1071
  832MOL0     C12233  11.209   0.442   3.468  0.0247  0.2863  0.2883
  832MOL0     C12234  11.313   0.492   3.391  0.5827 -0.0851 -0.8573
  832MOL0     N12235  11.596   0.680   2.870 -0.2801 -0.6059  0.0261
  832MOL0     N12236  11.570   0.665   2.740 -0.2806 -0.3430 -0.4712
  832MOL0     C12237  10.402   0.527   2.278  0.4252 -0.3742  1.0758
  832MOL0     C12238  10.293   0.499   2.197 -0.3051  0.0370  0.5973
  832MOL0     C12239  10.074   0.250   1.868 -0.2583 -0.1773  0.5334
  832MOL0     C12240  10.028   0.119   1.877  0.2854  0.2998 -0.3641
  832MOL0     C12241   9.923   0.067   1.801 -0.9052 -0.5023 -0.3088
  832MOL0     C12242   9.861   0.149   1.713  0.2191  0.8357  0.7315
  832MOL0     O12243   9.760   0.086   1.635 -1.0828  0.0680  0.4195
  832MOL0     C12244   9.676   0.184   1.564  0.0909 -0.2805 -0.1444
  832MOL0     C12245   9.559   0.101   1.496 -0.5985 -0.6515 -0.7727
  832MOL0     C12246   9.600   0.020   1.376 -0.6321  0.5836  0.9829
  832MOL0     C12247   9.493  -0.087   1.346  0.5949  0.3630 -0.2074
  832MOL0     C12248   9.543  -0.184   1.245 -0.6422  0.7199 -0.2334
  832MOL0     C12249   9.607  -0.247   1.163  0.8393  0.5662  1.0154
  832MOL0     C12250   9.903   0.279   1.695  0.0750  0.2378  0.7605
  832MOL0     C12251  10.008   0.335   1.773  1.5258 -0.8111  0.6066
  832MOL0     C12252  10.041   0.480   1.743  0.4860  0.1513  0.8653
  832MOL0     H12253  10.436   0.495   1.902  2.6534  1.6708 -0.1407
  832MOL0     H12254  10.638   0.553   2.035  2.0653  3.0827  2.5518
  832MOL0     H12255  10.790   0.640   2.172 -0.7911  0.1626 -0.1445
  832MOL0     H12256  10.699   0.769   2.224  0.3795  0.0646  0.3852
  832MOL0     H12257  10.894   0.575   2.363 -1.3833 -1.3520  0.1881
  832MOL0     H12258  10.806   0.695   2.470 -2.1950  2.0928 -2.2178
  832MOL0     H12259  10.900   0.885   2.338 -1.0866 -0.9179  1.1238
  832MOL0     H12260  11.007   0.759   2.255 -0.8122 -2.1951 -0.6984
  832MOL0     H12261  11.097   0.894   2.478  1.6052 -1.2103  1.2243
  832MOL0     H12262  11.045   0.748   2.549 -3.3702 -1.4489 -0.8448
  832MOL0     H12263  11.161   0.627   2.371 -1.0308  1.6281 -0.9361
  832MOL0     H12264  11.235   0.771   2.305  2.7388  0.4176  0.5731
  832MOL0     H12265  11.279   0.659   2.589 -0.0780  2.4630  1.1270
  832MOL0     H12266  11.393   0.649   2.442 -2.2920 -3.5975 -0.3101
  832MOL0     H12267  11.327   0.875   2.632  1.5377 -0.6298  1.9602
  832MOL0     H12268  11.354   0.921   2.459 -1.5712 -1.5704 -0.6009
  832MOL0     H12269  11.569   0.760   2.503 -0.6260  0.7078 -1.0954
  832MOL0     H12270  11.582   0.929   2.543  1.0352 -0.1512 -0.3125
  832MOL0     H12271  11.525   0.987   2.815 -4.3092 -1.1890 -1.5943
  832MOL0     H12272  11.599   0.954   3.072  3.2611 -1.0918  1.9408
  832MOL0     H12273  11.459   0.846   3.092 -0.0011  1.9464  1.1587
  832MOL0     H12274  11.643   0.657   3.143 -0.3508 -0.2586 -0.7471
  832MOL0     H12275  11.767   0.786   3.118 -1.8462  0.5546 -2.5817
  832MOL0     H12276  11.695   0.899   3.334  2.2929 -0.0447  1.2968
  832MOL0     H12277  11.720   0.726   3.368 -1.0425 -1.8621 -0.9034
  832MOL0     H12278  11.447   0.859   3.344  0.4031 -0.4437 -1.3414
  832MOL0     H12279  11.537   0.789   3.486 -1.6370 -1.1086 -0.1208
  832MOL0     H12280  11.343   0.787   3.547 -0.3579  0.6170 -2.4773
  832MOL0     H12281  11.151   0.681   3.675 -0.3687 -1.7703  0.3756
  832MOL0     H12282  10.903   0.674   3.962 -2.0352  0.0294  3.1283
  832MOL0     H12283  10.692   0.635   4.075 -0.3174  0.5936 -0.3474
  832MOL0     H12284  10.436   0.485   3.910  2.0170 -0.7337 -0.3844
  832MOL0     H12285  10.425   0.310   3.950  1.0556 -1.4502  2.7561
  832MOL0     H12286  10.349   0.538   4.146  0.8586 -0.6349  1.6333
  832MOL0     H12287  10.237   0.471   4.022  1.7031 -1.1353 -1.8414
  832MOL0     H12288  10.353   0.328   4.262  2.1409  1.7448 -1.2947
  832MOL0     H12289  10.172   0.379   4.220 -0.7665 -2.3355  0.2937
  832MOL0     H12290  10.339   0.154   4.121  0.7954  2.2372 -0.7727
  832MOL0     H12291  10.188   0.220   4.047  0.1294 -0.2107  0.6134
  832MOL0     H12292  10.083   0.187   4.266  2.2292  2.4980 -0.2938
  832MOL0     H12293  10.236   0.122   4.335  0.1551 -0.8490 -0.2969
  832MOL0     H12294  10.219  -0.068   4.228  2.3503  2.8738  1.2988
  832MOL0     H12295  10.057  -0.051   4.279  1.1586  0.0235  0.1372
  832MOL0     H12296  10.092  -0.154   4.051 -1.4637 -0.5375  0.7936
  832MOL0     H12297  10.121   0.017   3.988  0.2800 -1.4016  0.7124
  832MOL0     H12298   9.897  -0.083   3.964 -0.5029  0.5041 -0.1000
  832MOL0     H12299   9.881  -0.077   4.144 -3.2963  0.4678 -1.0201
  832MOL0     H12300  10.662   0.241   3.887  1.1303 -0.1302  0.0227
  832MOL0     H12301  10.842   0.292   3.755 -1.4331  1.1535 -1.1128
  832MOL0     H12302  11.175   0.343   3.439 -2.1088  1.1742 -0.4953
  832MOL0     H12303  11.358   0.422   3.321 -2.3860 -3.6920  0.4986
  832MOL0     H12304  10.391   0.546   2.384 -2.3790  1.5689  0.5490
  832MOL0     H12305  10.199   0.473   2.245 -0.5815 -1.5016 -0.7070
  832MOL0     H12306  10.082   0.061   1.951  3.3915 -0.0045 -2.6606
  832MOL0     H12307   9.892  -0.037   1.803  0.2150 -0.8675  2.3085
  832MOL0     H12308   9.734   0.224   1.480  0.1318 -1.7589 -0.8436
  832MOL0     H12309   9.649   0.263   1.635  1.7029  0.0972  0.1033
  832MOL0     H12310   9.478   0.171   1.473  0.9269  1.0617 -1.2373
  832MOL0     H12311   9.534   0.022   1.567  0.6103 -3.0215 -2.8104
  832MOL0     H12312   9.699  -0.025   1.388 -0.2032  1.1808 -0.1718
  832MOL0     H12313   9.609   0.085   1.289  2.3430 -0.7004  0.2034
  832MOL0     H12314   9.446  -0.135   1.433  0.4272 -1.1428 -1.0980
  832MOL0     H12315   9.407  -0.035   1.304  0.7911 -0.3649 -1.5450
  832MOL0     H12316   9.671  -0.290   1.088 -0.0192  0.7128  0.1789
  832MOL0     H12317   9.855   0.340   1.619  0.9897 -1.8469 -1.6377
  832MOL0     H12318  10.045   0.488   1.634  1.4541 -1.3507  0.7639
  832MOL0     H12319   9.965   0.547   1.785 -0.0446 -0.0184  0.1820
  832MOL0     H12320  10.139   0.510   1.780  0.8644 -1.1701  0.9951
  833MOL0     O12321   9.656   0.371   1.206  0.3133  0.1772  0.3068
  833MOL0     C12322   9.726   0.338   1.105 -1.1729  0.2068  0.4235
  833MOL0     O12323   9.677   0.264   1.004  0.1703  0.5084  0.5851
  833MOL0     C12324   9.549   0.209   0.984  1.0368 -0.7938  0.1625
  833MOL0     C12325   9.516   0.171   0.850  0.3915  1.1453  0.2233
  833MOL0     C12326   9.398   0.105   0.822 -0.4239 -0.5803 -0.6394
  833MOL0     C12327   9.296   0.091   0.916  0.2712 -0.6451  0.2365
  833MOL0     O12328   9.178   0.039   0.874 -0.1262 -0.3474 -0.4590
  833MOL0     C12329   9.122  -0.068   0.960 -0.0763 -0.2462  0.6559
  833MOL0     C12330   9.207  -0.193   0.939 -0.0171  0.3147 -0.6409
  833MOL0     C12331   9.146  -0.326   0.974  0.2892 -0.3344 -0.3338
  833MOL0     C12332   9.209  -0.426   0.878 -0.6484 -0.0691  0.7686
  833MOL0     C12333   9.330  -0.481   0.947  0.2247 -0.1989  0.4436
  833MOL0     C12334   9.378  -0.596   0.855 -0.2362 -0.1428 -0.4252
  833MOL0     C12335   9.487  -0.687   0.937  0.5566 -0.5070  0.7405
  833MOL0     C12336   9.573  -0.762   0.841 -0.8802  0.0755 -0.5606
  833MOL0     N12337   9.714  -0.785   0.890  0.8073 -1.0991 -1.0148
  833MOL0     C12338   9.804  -0.689   0.910 -0.0192 -0.3181  0.2905
  833MOL0     C12339   9.909  -0.752   0.965 -0.9668  0.6159  0.4223
  833MOL0     C12340  10.030  -0.683   1.011 -0.1632 -1.4596  0.3746
  833MOL0     C12341  10.116  -0.617   0.904  0.0429  0.2988  0.2537
  833MOL0     C12342  10.228  -0.541   0.970  0.4872  1.1378 -0.6506
  833MOL0     C12343  10.313  -0.473   0.864  0.1789 -0.1125  0.7009
  833MOL0     O12344  10.424  -0.409   0.922  0.6206 -0.1848  0.2721
  833MOL0     C12345  10.456  -0.291   0.857 -0.1149 -0.4525  0.0142
  833MOL0     C12346  10.475  -0.183   0.944 -0.5619  1.0671  0.0083
  833MOL0     C12347  10.533  -0.061   0.890  0.1161  0.2052 -0.0019
  833MOL0     C12348  10.569  -0.063   0.748  0.3655 -0.0498  0.7770
  833MOL0     C12349  10.622   0.065   0.690 -0.2180  1.0977 -0.4673
  833MOL0     O12350  10.638   0.059   0.556 -0.2601  0.4265  0.4810
  833MOL0     C12351  10.688   0.166   0.477  0.0084 -0.4382 -0.2603
  833MOL0     C12352  10.640   0.180   0.349 -0.2459  0.3222 -0.0847
  833MOL0     C12353  10.678   0.293   0.265 -1.1802 -0.1432  0.0031
  833MOL0     C12354  10.770   0.391   0.311  0.2365 -0.7048 -0.8522
  833MOL0     O12355  10.798   0.503   0.239  0.2608  0.2553  0.1936
  833MOL0     C12356  10.917   0.574   0.276  0.0612 -1.1793  0.1084
  833MOL0     C12357  10.952   0.699   0.187  0.2584 -0.7810  0.2024
  833MOL0     C12358  10.980   0.675   0.036  0.4070 -0.8869  0.1473
  833MOL0     C12359  11.050   0.792  -0.032  0.1503 -0.2437  0.7264
  833MOL0     C12360  11.064   0.755  -0.184  0.1797 -0.2611  0.5708
  833MOL0     C12361  11.128   0.867  -0.259  0.2933  0.4723  0.0645
  833MOL0     C12362  11.038   0.948  -0.351  0.2636 -0.1101 -0.0550
  833MOL0     C12363  11.087   1.092  -0.382 -0.2513 -0.9045 -0.1070
  833MOL0    Cl12364  11.257   1.096  -0.450  0.0557 -0.2296 -0.0026
  833MOL0     C12365  10.832   0.354   0.430 -0.1368 -0.1717 -0.1668
  833MOL0     C12366  10.795   0.250   0.520 -0.2746  0.2303 -0.2280
  833MOL0     O12367  10.651   0.158   0.767  0.2039 -0.0313 -0.1906
  833MOL0     C12368  10.556  -0.173   0.660  0.0578  0.3815 -0.0586
  833MOL0     C12369  10.489  -0.286   0.716 -0.2767  0.0243 -0.7574
  833MOL0     N12370   9.874  -0.889   0.983  0.4453 -0.4715  1.1267
  833MOL0     N12371   9.752  -0.900   0.947 -0.0233 -0.1357 -0.3739
  833MOL0     C12372   9.326   0.125   1.049 -0.5183 -0.1304  0.4271
  833MOL0     C12373   9.450   0.191   1.088 -0.4002 -0.5392 -0.1643
  833MOL0     C12374   9.865   0.392   1.086  0.5670 -0.9247  0.0760
  833MOL0     C12375   9.911   0.403   0.948 -0.4471 -0.0412  0.2130
  833MOL0     C12376  10.041   0.457   0.929  0.4833 -0.3708  0.5487
  833MOL0     C12377  10.119   0.511   1.036  0.2696 -0.4345  0.6139
  833MOL0     O12378  10.231   0.581   1.011  0.3568  0.3914  0.4935
  833MOL0     C12379  10.290   0.553   0.885  0.1557 -0.2300 -1.0322
  833MOL0     C12380  10.416   0.613   0.875  0.3028  0.2922  0.7372
  833MOL0     C12381  10.516   0.566   0.978  0.4424  0.2840  0.1014
  833MOL0     C12382  10.561   0.416   0.977  0.6263  0.7509 -0.6205
  833MOL0     C12383  10.461   0.340   1.045  0.3670  0.0912 -1.5708
  833MOL0     C12384  10.408   0.254   1.115  0.6199 -1.0220 -0.0174
  833MOL0     C12385  10.075   0.500   1.167 -0.5647  0.3783  0.4844
  833MOL0     C12386   9.945   0.442   1.192 -0.5482  0.8041  0.4691
  833MOL0     C12387   9.895   0.455   1.330 -0.6613 -0.3289  0.7333
  833MOL0     H12388   9.596   0.164   0.778 -0.3581 -2.9660 -0.4331
  833MOL0     H12389   9.384   0.070   0.720  2.1990  0.5078 -1.4545
  833MOL0     H12390   9.108  -0.044   1.066 -1.1748  1.0916  0.2442
  833MOL0     H12391   9.022  -0.088   0.922 -1.0727  0.2269  2.8631
  833MOL0     H12392   9.292  -0.183   1.007  0.1993  2.0991 -1.1109
  833MOL0     H12393   9.242  -0.181   0.836 -1.1315  1.7153 -0.8994
  833MOL0     H12394   9.036  -0.324   0.977  0.2468 -2.2180  1.4635
  833MOL0     H12395   9.166  -0.351   1.078 -0.5069 -0.0452 -0.0982
  833MOL0     H12396   9.139  -0.509   0.864 -1.4664  0.5524  1.1079
  833MOL0     H12397   9.245  -0.390   0.781  0.9789 -5.4266 -0.9954
  833MOL0     H12398   9.397  -0.398   0.974 -2.4634  2.1727  0.3481
  833MOL0     H12399   9.303  -0.519   1.046  1.7246  0.0016  0.9511
  833MOL0     H12400   9.299  -0.665   0.825 -0.2922  0.4049 -1.5924
  833MOL0     H12401   9.419  -0.556   0.762 -1.2967  0.0347 -0.8375
  833MOL0     H12402   9.432  -0.759   0.997  1.8316 -2.7649 -0.6656
  833MOL0     H12403   9.557  -0.627   0.996 -1.1226  1.6447  0.6595
  833MOL0     H12404   9.529  -0.861   0.835  0.6421 -0.5279 -3.0657
  833MOL0     H12405   9.577  -0.703   0.749 -2.4113  0.8694 -0.1506
  833MOL0     H12406   9.791  -0.585   0.881  0.8844 -0.1001  0.6265
  833MOL0     H12407  10.006  -0.604   1.082  1.1912  1.8944 -2.6170
  833MOL0     H12408  10.088  -0.761   1.062 -0.3208  0.5378  3.9117
  833MOL0     H12409  10.153  -0.694   0.835 -0.7792  2.2003 -2.5006
  833MOL0     H12410  10.054  -0.550   0.844 -1.4666 -3.6851 -3.0946
  833MOL0     H12411  10.286  -0.617   1.022 -0.5379 -2.4273 -4.1703
  833MOL0     H12412  10.197  -0.464   1.041  0.2254  1.9227 -1.5872
  833MOL0     H12413  10.251  -0.400   0.812  0.4147  0.8314  1.7156
  833MOL0     H12414  10.341  -0.551   0.792 -4.2021 -1.6748  0.3680
  833MOL0     H12415  10.448  -0.196   1.048 -2.7100 -1.3495 -0.7499
  833MOL0     H12416  10.543   0.014   0.968 -1.7600 -1.2684  1.7822
  833MOL0     H12417  10.558   0.121   0.309 -0.0998 -0.6006  0.9183
  833MOL0     H12418  10.616   0.320   0.180 -1.3719  3.8724  1.2120
  833MOL0     H12419  10.914   0.615   0.377  0.5052 -2.2099  0.5540
  833MOL0     H12420  11.002   0.505   0.276  0.0461 -1.2296  1.5086
  833MOL0     H12421  10.864   0.764   0.188  0.2557 -0.7832  0.1480
  833MOL0     H12422  11.036   0.760   0.224 -0.8934  0.9559  0.0569
  833MOL0     H12423  11.039   0.584   0.021  0.4048 -1.5323  3.3978
  833MOL0     H12424  10.883   0.669  -0.014 -0.4866  0.0429  1.6880
  833MOL0     H12425  11.145   0.807   0.021 -1.5930 -0.3672  4.1577
  833MOL0     H12426  10.985   0.877  -0.012 -2.1492 -1.4088 -1.2714
  833MOL0     H12427  10.965   0.733  -0.224  0.1671 -0.0044  0.4542
  833MOL0     H12428  11.134   0.671  -0.190  0.7176  0.1960  0.3291
  833MOL0     H12429  11.183   0.935  -0.193 -2.7633  4.2145 -0.8845
  833MOL0     H12430  11.203   0.811  -0.316 -1.2861  0.4872 -2.1669
  833MOL0     H12431  10.939   0.958  -0.306  0.2344 -0.1290 -0.1139
  833MOL0     H12432  11.030   0.881  -0.438 -1.5814  1.0286 -0.8275
  833MOL0     H12433  11.014   1.131  -0.453 -1.3663 -0.1859  1.3759
  833MOL0     H12434  11.084   1.141  -0.284 -2.3901 -2.0059  0.4320
  833MOL0     H12435  10.924   0.405   0.457 -0.0002  1.3840 -3.1466
  833MOL0     H12436  10.850   0.231   0.612  0.4177 -2.2847 -1.0687
  833MOL0     H12437  10.592  -0.179   0.558  0.5076  1.0965  0.0501
  833MOL0     H12438  10.481  -0.379   0.661 -0.8161  0.6928 -1.8189
  833MOL0     H12439   9.247   0.113   1.122 -1.1101  0.5929 -0.0867
  833MOL0     H12440   9.458   0.207   1.195 -1.5147 -4.2734  0.6079
  833MOL0     H12441   9.851   0.371   0.863  1.2184 -1.4538 -0.4687
  833MOL0     H12442  10.073   0.450   0.825 -0.1441 -1.1541  0.3894
  833MOL0     H12443  10.223   0.593   0.808 -3.1807  1.4598  2.4396
  833MOL0     H12444  10.291   0.445   0.869  1.2290 -0.4485  0.3218
  833MOL0     H12445  10.408   0.722   0.881  0.8909  0.4865 -1.2966
  833MOL0     H12446  10.461   0.591   0.778 -0.7780  0.3265  0.2048
  833MOL0     H12447  10.489   0.609   1.075 -1.8705 -0.8937  0.0525
  833MOL0     H12448  10.602   0.630   0.958 -2.3405  4.1484 -0.5748
  833MOL0     H12449  10.563   0.395   0.870  1.0279  1.8027 -0.8288
  833MOL0     H12450  10.658   0.392   1.021  2.2563  0.8046 -3.9018
  833MOL0     H12451  10.374   0.170   1.172 -1.6269  1.0311  1.8912
  833MOL0     H12452  10.127   0.542   1.252  2.3196 -0.1630 -0.9148
  833MOL0     H12453   9.800   0.510   1.337  0.0309  0.8450  1.2573
  833MOL0     H12454   9.875   0.356   1.371 -0.2155 -0.2357  1.1902
  833MOL0     H12455   9.959   0.516   1.394  0.1775  0.6621 -0.9799
  834MOL0     O12456   7.313   3.852   9.017  0.3997  0.1116 -0.5870
  834MOL0     C12457   7.292   3.767   9.104 -0.5209  0.1592  0.5154
  834MOL0     O12458   7.391   3.706   9.179  0.5915 -0.1945 -0.0219
  834MOL0     C12459   7.529   3.737   9.168 -0.0810  0.2952  0.7746
  834MOL0     C12460   7.595   3.838   9.090 -0.2473  0.6140  0.6386
  834MOL0     C12461   7.727   3.862   9.106 -1.0448 -1.0435 -0.6494
  834MOL0     C12462   7.809   3.785   9.191 -0.5315 -0.1371 -0.3453
  834MOL0     O12463   7.949   3.785   9.200  0.2473 -0.1535 -0.1148
  834MOL0     C12464   7.984   3.920   9.222 -1.2769 -0.6099  0.6762
  834MOL0     C12465   8.128   3.920   9.289  0.6922 -0.0702 -0.0964
  834MOL0     C12466   8.224   3.882   9.179 -1.0892  0.1235  1.4764
  834MOL0     C12467   8.361   3.842   9.247  0.0718 -0.7558 -1.3717
  834MOL0     C12468   8.472   3.789   9.162 -0.6203 -0.5058  0.9929
  834MOL0     C12469   8.561   3.903   9.104  0.0490  0.0926  0.6407
  834MOL0     C12470   8.671   3.829   9.023 -0.1616 -0.3940 -0.5318
  834MOL0     C12471   8.788   3.768   9.105  0.0580 -0.6499 -0.4253
  834MOL0     N12472   8.897   3.723   9.014 -0.5722  0.2995 -0.6051
  834MOL0     C12473   8.985   3.791   8.932 -0.1178 -0.0602  0.4944
  834MOL0     C12474   9.076   3.698   8.897 -0.7638 -0.2471 -0.3148
  834MOL0     C12475   9.191   3.719   8.805  0.9256  0.5917  0.5854
  834MOL0     C12476   9.324   3.673   8.873 -0.5387  0.5454 -0.0994
  834MOL0     C12477   9.457   3.718   8.803  0.3764 -0.3232 -0.4272
  834MOL0     C12478   9.577   3.636   8.841  0.2047  0.0764 -0.2181
  834MOL0     O12479   9.678   3.657   8.739  0.3324  0.3311 -0.2662
  834MOL0     C12480   9.785   3.575   8.725  0.6328  0.7296 -0.1436
  834MOL0     C12481   9.827   3.549   8.602 -0.1003  0.0923 -0.0049
  834MOL0     C12482   9.934   3.465   8.567 -0.0608 -1.0643 -0.6251
  834MOL0     C12483  10.001   3.397   8.667  0.1761  0.1833 -0.3458
  834MOL0     C12484  10.112   3.303   8.643 -0.1629  0.2683  0.0356
  834MOL0     O12485  10.139   3.261   8.519 -0.0210 -0.0318  0.0079
  834MOL0     C12486  10.242   3.173   8.501 -0.4043  0.9293 -0.2088
  834MOL0     C12487  10.221   3.055   8.422  0.3831  0.0496  1.1449
  834MOL0     C12488  10.331   2.973   8.385  1.2073  0.0936 -0.3217
  834MOL0     C12489  10.461   2.996   8.427 -0.3586 -1.0805 -0.1375
  834MOL0     O12490  10.552   2.911   8.382  0.4458 -0.1236 -0.3013
  834MOL0     C12491  10.681   2.963   8.352  0.6107 -0.8229 -0.1954
  834MOL0     C12492  10.736   2.849   8.257  0.2942 -0.0632  0.3007
  834MOL0     C12493  10.892   2.870   8.230 -0.0478 -0.4366  0.1765
  834MOL0     C12494  10.927   2.812   8.100  0.2746  0.2669  0.1556
  834MOL0     C12495  11.081   2.795   8.090 -0.2484 -0.2471  0.8724
  834MOL0     C12496  11.107   2.664   8.017 -0.5063 -0.1662 -0.6202
  834MOL0     C12497  11.256   2.637   7.995  0.3315  0.0369 -0.0094
  834MOL0     C12498  11.277   2.560   7.872  0.4489 -0.3319  0.3754
  834MOL0    Cl12499  11.443   2.554   7.825  0.1522 -0.0498 -0.1924
  834MOL0     C12500  10.478   3.107   8.515  0.1456  0.3430  0.1981
  834MOL0     C12501  10.370   3.193   8.542 -0.6381 -0.0858 -0.3662
  834MOL0     O12502  10.185   3.274   8.743  0.0830  0.6581  0.2904
  834MOL0     C12503   9.950   3.411   8.795 -0.6889 -0.1464  0.6145
  834MOL0     C12504   9.848   3.498   8.827 -1.0667  0.0641  0.0283
  834MOL0     N12505   9.039   3.578   8.943  0.0040  0.1807 -0.3339
  834MOL0     N12506   8.934   3.595   9.019 -0.3594  0.4225  0.1561
  834MOL0     C12507   7.750   3.682   9.264 -0.4221 -0.2451 -0.1196
  834MOL0     C12508   7.607   3.656   9.248 -0.5083  0.9214 -0.0500
  834MOL0     C12509   7.160   3.708   9.140 -0.1866 -0.1446 -0.3667
  834MOL0     C12510   7.157   3.614   9.244 -0.0509 -1.1281  0.0922
  834MOL0     C12511   7.038   3.555   9.280  1.0032  0.1412  0.3918
  834MOL0     C12512   6.920   3.577   9.222  0.5026 -0.5309  0.8518
  834MOL0     O12513   6.803   3.513   9.255 -0.0245  0.1537 -0.4598
  834MOL0     C12514   6.676   3.560   9.210 -0.4874  0.5629  0.5639
  834MOL0     C12515   6.567   3.474   9.287  0.0644 -0.6021 -0.7578
  834MOL0     C12516   6.572   3.500   9.437 -0.6993 -0.8333 -0.0062
  834MOL0     C12517   6.473   3.389   9.489 -0.3699 -0.1550 -0.7124
  834MOL0     C12518   6.498   3.353   9.628  0.4225 -0.6425  0.3490
  834MOL0     C12519   6.511   3.316   9.743  0.0722 -0.6445  0.0465
  834MOL0     C12520   6.919   3.672   9.118 -0.0238 -0.4341 -0.0187
  834MOL0     C12521   7.034   3.734   9.081  0.4596  0.3996  1.3814
  834MOL0     C12522   7.030   3.815   8.948 -0.3151 -0.0160 -1.1059
  834MOL0     H12523   7.539   3.903   9.024 -0.1481 -0.5183 -0.6120
  834MOL0     H12524   7.780   3.941   9.054 -0.2692  0.5713  2.3980
  834MOL0     H12525   7.981   3.966   9.122 -3.0251 -2.5143 -0.2307
  834MOL0     H12526   7.920   3.980   9.287  1.1820  0.2999  2.4173
  834MOL0     H12527   8.130   3.858   9.379 -1.0515  1.7899  1.3039
  834MOL0     H12528   8.152   4.019   9.330 -3.0174  0.3459  1.4943
  834MOL0     H12529   8.243   3.972   9.120 -1.5252 -0.6301  0.1254
  834MOL0     H12530   8.180   3.800   9.121 -1.7919  0.1214  1.9963
  834MOL0     H12531   8.394   3.922   9.315 -1.1666  0.6149 -2.3211
  834MOL0     H12532   8.340   3.756   9.311 -1.0638  1.5201  1.5653
  834MOL0     H12533   8.537   3.741   9.236  0.1419  3.1612  2.9379
  834MOL0     H12534   8.443   3.713   9.089  0.5976  1.1187 -1.3252
  834MOL0     H12535   8.491   3.962   9.045  1.0738  0.1945 -0.5149
  834MOL0     H12536   8.595   3.976   9.177  1.1862  2.5567 -2.1554
  834MOL0     H12537   8.712   3.909   8.961  0.7278  0.6962  1.3604
  834MOL0     H12538   8.630   3.761   8.947  1.3350 -0.1590 -1.6072
  834MOL0     H12539   8.827   3.841   9.176 -2.4769 -3.8548  4.7978
  834MOL0     H12540   8.749   3.681   9.159 -0.6982 -0.5587 -0.8168
  834MOL0     H12541   8.969   3.893   8.898 -0.9140 -0.7714 -1.3531
  834MOL0     H12542   9.176   3.658   8.716 -0.6852 -0.5561  1.5819
  834MOL0     H12543   9.195   3.824   8.779  0.6221  0.3943 -0.2738
  834MOL0     H12544   9.343   3.704   8.977  2.8371  0.5475 -0.5868
  834MOL0     H12545   9.322   3.565   8.891 -0.9923  0.6203  0.3124
  834MOL0     H12546   9.493   3.817   8.832  0.3283 -0.4348  0.0262
  834MOL0     H12547   9.441   3.713   8.695 -0.8874  1.9954 -0.4053
  834MOL0     H12548   9.549   3.530   8.843 -1.4461  0.4821 -0.6434
  834MOL0     H12549   9.624   3.654   8.938  0.4360 -2.1235  0.1449
  834MOL0     H12550   9.775   3.603   8.523  2.2044  0.2011 -1.5586
  834MOL0     H12551   9.960   3.460   8.461  0.1250 -0.3639 -0.6173
  834MOL0     H12552  10.120   3.035   8.389  1.2244 -2.2316 -0.3608
  834MOL0     H12553  10.302   2.892   8.319  2.0341 -0.6245  0.1742
  834MOL0     H12554  10.673   3.054   8.291 -1.1725 -0.2695  0.7765
  834MOL0     H12555  10.747   2.969   8.438 -0.6653 -2.2725  0.9387
  834MOL0     H12556  10.731   2.759   8.319  1.0640 -1.2499 -1.2768
  834MOL0     H12557  10.680   2.846   8.162 -0.0562  1.4445  0.4390
  834MOL0     H12558  10.912   2.978   8.231 -1.5705 -0.1309  0.5573
  834MOL0     H12559  10.944   2.816   8.309  4.2897  2.0350 -0.7056
  834MOL0     H12560  10.892   2.856   8.006  0.1910 -3.3027 -1.6371
  834MOL0     H12561  10.894   2.708   8.096  1.1441 -0.0824  1.4654
  834MOL0     H12562  11.112   2.770   8.192  0.7350 -2.8587  0.0299
  834MOL0     H12563  11.134   2.885   8.056 -1.1528  0.2954  0.8570
  834MOL0     H12564  11.063   2.581   8.074 -1.9458  0.0206 -1.4150
  834MOL0     H12565  11.045   2.675   7.928 -1.0170  0.2127 -0.2252
  834MOL0     H12566  11.304   2.586   8.080  2.6594  1.5244 -0.3392
  834MOL0     H12567  11.306   2.733   7.983  0.5609 -0.1976 -0.9799
  834MOL0     H12568  11.230   2.464   7.891  0.0347 -0.3701 -0.7591
  834MOL0     H12569  11.222   2.606   7.790  0.1265  0.0547  0.8041
  834MOL0     H12570  10.580   3.133   8.542  0.5479  0.7057 -1.5270
  834MOL0     H12571  10.396   3.281   8.599  3.4042  1.0314 -3.4412
  834MOL0     H12572   9.999   3.386   8.889 -0.9171  2.2975  1.4516
  834MOL0     H12573   9.844   3.529   8.931  2.3741 -0.7352  0.5312
  834MOL0     H12574   7.804   3.613   9.328 -0.2639  1.6860  2.0094
  834MOL0     H12575   7.576   3.575   9.314 -1.8833  2.6071  1.5104
  834MOL0     H12576   7.239   3.584   9.308 -0.9128 -2.4642  0.6236
  834MOL0     H12577   7.023   3.494   9.369 -0.7524  2.5809  1.8693
  834MOL0     H12578   6.666   3.549   9.101  0.5020 -3.8086  0.7223
  834MOL0     H12579   6.657   3.662   9.244 -3.4039 -0.1283  1.3484
  834MOL0     H12580   6.598   3.369   9.288 -0.8751 -0.8878  0.2523
  834MOL0     H12581   6.471   3.484   9.235 -0.1581  3.6104  0.0708
  834MOL0     H12582   6.549   3.605   9.459  2.8042  0.5048 -1.9621
  834MOL0     H12583   6.670   3.468   9.475  0.4222 -0.8333 -2.6781
  834MOL0     H12584   6.372   3.430   9.497 -0.3635  0.0631 -1.6216
  834MOL0     H12585   6.478   3.296   9.431  2.7506 -2.2522  2.4546
  834MOL0     H12586   6.515   3.287   9.846 -0.1905  0.9794  0.5487
  834MOL0     H12587   6.838   3.681   9.046  0.9678  0.7884 -1.0142
  834MOL0     H12588   7.090   3.761   8.874  3.0594  0.0325  1.3445
  834MOL0     H12589   6.926   3.830   8.917  0.3146  1.4644 -2.6693
  834MOL0     H12590   7.086   3.907   8.968  1.9170 -1.7542  1.5118
  835MOL0     O12591   9.274  11.013   7.161 -0.2775  0.5508 -0.5062
  835MOL0     C12592   9.257  10.934   7.254  0.2713 -0.6043  0.7164
  835MOL0     O12593   9.276  10.803   7.256 -0.3443 -0.0001  0.0896
  835MOL0     C12594   9.340  10.731   7.163 -1.2686  0.1065  0.4688
  835MOL0     C12595   9.269  10.629   7.103 -0.6714  0.0926 -0.3587
  835MOL0     C12596   9.338  10.529   7.019  0.5836  0.2078 -0.7841
  835MOL0     C12597   9.484  10.539   6.995  0.2105 -0.7205 -0.2732
  835MOL0     O12598   9.552  10.453   6.915 -0.5351 -0.3522 -0.1318
  835MOL0     C12599   9.620  10.520   6.812  0.9674 -0.5213 -0.6153
  835MOL0     C12600   9.676  10.425   6.704 -0.2796  0.3672 -1.1056
  835MOL0     C12601   9.806  10.372   6.762 -1.1278 -0.3931 -0.2377
  835MOL0     C12602   9.918  10.478   6.761  0.0424  0.6955  0.0397
  835MOL0     C12603  10.051  10.431   6.813  0.1189 -0.2026  0.7419
  835MOL0     C12604  10.123  10.551   6.874  0.2070  0.6008 -0.4042
  835MOL0     C12605  10.266  10.510   6.918 -0.4011  1.1390 -0.0147
  835MOL0     C12606  10.331  10.611   7.008 -0.3449  0.1430  0.4761
  835MOL0     N12607  10.473  10.598   7.043  0.2085  0.2341 -0.1849
  835MOL0     C12608  10.526  10.628   7.165  0.5563 -0.6223  0.0167
  835MOL0     C12609  10.655  10.585   7.159  0.4136  0.6215 -0.7141
  835MOL0     C12610  10.754  10.616   7.265 -0.1875  0.4465 -0.8372
  835MOL0     C12611  10.740  10.555   7.402 -0.1926  0.6675 -0.1246
  835MOL0     C12612  10.863  10.468   7.442 -0.3826 -0.2151  0.6022
  835MOL0     C12613  10.984  10.550   7.479  0.1025 -0.6603  0.1169
  835MOL0     O12614  11.077  10.449   7.522  0.3259  0.1617 -0.2075
  835MOL0     C12615  11.194  10.493   7.589  0.7922 -0.2216  0.3858
  835MOL0     C12616  11.242  10.621   7.587 -0.6316 -0.0446 -0.6423
  835MOL0     C12617  11.359  10.653   7.655 -0.1241  0.2031  0.5063
  835MOL0     C12618  11.437  10.554   7.713  0.9814  0.1462 -0.2824
  835MOL0     C12619  11.574  10.565   7.771 -0.8558 -0.5679 -0.1766
  835MOL0     O12620  11.642  10.464   7.826  0.0510 -0.4117 -0.6015
  835MOL0     C12621  11.771  10.483   7.866 -0.4507  0.2219  0.2761
  835MOL0     C12622  11.805  10.479   8.000 -0.5409  0.4539 -0.1488
  835MOL0     C12623  11.936  10.482   8.052  0.0252  0.3850 -0.3143
  835MOL0     C12624  12.035  10.479   7.961  0.0444  0.1963 -0.1597
  835MOL0     O12625  12.173  10.485   7.990 -0.1780 -0.1752 -0.2350
  835MOL0     C12626  12.216  10.491   8.128  0.0662 -0.3337 -1.0808
  835MOL0     C12627  12.368  10.477   8.125  0.0441 -0.0155 -0.6275
  835MOL0     C12628  12.434  10.505   8.263  0.6495  0.1773  0.0644
  835MOL0     C12629  12.587  10.465   8.247  0.7491  0.2563 -0.0963
  835MOL0     C12630  12.655  10.450   8.385 -0.1098 -0.6150 -0.5568
  835MOL0     C12631  12.811  10.422   8.373 -0.0445 -0.5308  0.4849
  835MOL0     C12632  12.849  10.289   8.311  0.6000  0.3298 -0.5599
  835MOL0     C12633  12.998  10.274   8.316 -0.6041 -0.1496 -0.0074
  835MOL0    Cl12634  13.040  10.132   8.207  0.4384  0.2715 -0.1317
  835MOL0     C12635  12.010  10.482   7.820  0.2955 -0.5656 -0.1880
  835MOL0     C12636  11.876  10.479   7.773 -0.6372 -0.6150  0.3231
  835MOL0     O12637  11.615  10.679   7.771 -0.3341 -0.0732 -0.3207
  835MOL0     C12638  11.390  10.424   7.706 -0.1725  0.1675  0.6128
  835MOL0     C12639  11.266  10.392   7.652  0.1759 -0.4627  0.5859
  835MOL0     N12640  10.670  10.528   7.033 -0.2829 -0.5841 -0.3760
  835MOL0     N12641  10.567  10.541   6.962  0.0086 -0.8236 -0.1210
  835MOL0     C12642   9.548  10.647   7.057 -0.3376 -1.0112  0.6787
  835MOL0     C12643   9.479  10.738   7.138 -0.5993  0.1939 -0.9233
  835MOL0     C12644   9.180  10.997   7.362  0.0379 -0.2475  0.0389
  835MOL0     C12645   9.135  10.897   7.445 -0.1962 -0.8313 -0.1380
  835MOL0     C12646   9.079  10.934   7.570 -0.6066 -0.1103  0.5492
  835MOL0     C12647   9.067  11.062   7.608 -0.0382 -0.3442  0.1743
  835MOL0     O12648   9.011  11.101   7.722  0.0273 -0.1988 -0.9021
  835MOL0     C12649   8.880  11.043   7.748 -0.4884  0.1526  0.0159
  835MOL0     C12650   8.793  11.154   7.807 -0.3954 -0.5028  0.3056
  835MOL0     C12651   8.654  11.092   7.829 -0.0442  0.3064 -0.2255
  835MOL0     C12652   8.573  11.171   7.928  0.0102 -0.5857 -0.2695
  835MOL0     C12653   8.636  11.200   8.057 -0.1793  1.4165 -0.5810
  835MOL0     C12654   8.696  11.210   8.162  0.2223 -0.2163 -0.2151
  835MOL0     C12655   9.099  11.162   7.517  0.4267 -0.1783  0.3274
  835MOL0     C12656   9.157  11.132   7.395  0.5311  0.0663 -0.2477
  835MOL0     C12657   9.190  11.245   7.301  0.7185 -0.1861  0.0111
  835MOL0     H12658   9.161  10.636   7.096 -0.7458 -0.5748  0.0158
  835MOL0     H12659   9.282  10.455   6.962  1.4660  0.3822 -1.9084
  835MOL0     H12660   9.540  10.585   6.775 -1.5104 -0.3336  4.2813
  835MOL0     H12661   9.693  10.595   6.845  0.0281  0.6983 -1.1798
  835MOL0     H12662   9.696  10.483   6.613  1.0662 -0.2232 -1.2105
  835MOL0     H12663   9.598  10.352   6.682 -1.3974  1.7935 -2.1470
  835MOL0     H12664   9.832  10.290   6.694 -0.7996  0.5817 -1.3245
  835MOL0     H12665   9.793  10.324   6.859 -1.9652 -2.1632 -1.1726
  835MOL0     H12666   9.942  10.517   6.661 -2.2919  1.5238 -0.2631
  835MOL0     H12667   9.898  10.560   6.831  0.8541  1.0237 -0.0989
  835MOL0     H12668  10.035  10.346   6.880  0.3077  0.9185  2.2514
  835MOL0     H12669  10.106  10.398   6.724  1.3432  0.2986  1.2929
  835MOL0     H12670  10.143  10.628   6.800  3.3824  0.6180  0.3024
  835MOL0     H12671  10.063  10.588   6.958 -1.9883  1.2783 -2.1603
  835MOL0     H12672  10.330  10.497   6.830  0.8207  0.9391  0.8844
  835MOL0     H12673  10.261  10.413   6.967  1.0594  2.2148  2.4703
  835MOL0     H12674  10.329  10.700   6.945 -1.9841  2.0222  2.9903
  835MOL0     H12675  10.267  10.620   7.096  0.9195  0.7314  1.3648
  835MOL0     H12676  10.480  10.683   7.247  0.4070 -1.6384  0.6338
  835MOL0     H12677  10.850  10.589   7.222 -0.8355 -3.6194 -0.1352
  835MOL0     H12678  10.743  10.724   7.281 -0.7134  0.5283 -1.6839
  835MOL0     H12679  10.728  10.618   7.490 -3.0622 -2.3917  1.9217
  835MOL0     H12680  10.655  10.486   7.402  0.2144  0.1563  0.1046
  835MOL0     H12681  10.899  10.416   7.353 -0.1035  2.5071 -0.9948
  835MOL0     H12682  10.834  10.398   7.521  1.5342 -1.3052  0.3896
  835MOL0     H12683  10.959  10.612   7.566  0.2706  0.2719 -0.4808
  835MOL0     H12684  11.024  10.617   7.402  0.9457  0.9939  1.9024
  835MOL0     H12685  11.196  10.706   7.538  1.3940  1.1463 -0.5902
  835MOL0     H12686  11.392  10.757   7.654  0.5230  0.0079  1.0556
  835MOL0     H12687  11.713  10.477   8.057 -0.8735  1.2719 -0.6426
  835MOL0     H12688  11.950  10.504   8.157 -3.0373 -0.7735  0.4327
  835MOL0     H12689  12.194  10.589   8.171  0.1082 -0.2541 -1.2397
  835MOL0     H12690  12.173  10.408   8.185 -0.0925 -1.0423 -2.2180
  835MOL0     H12691  12.387  10.370   8.111  1.0697  0.0844 -0.1300
  835MOL0     H12692  12.410  10.535   8.042 -2.2219  2.6103 -0.0552
  835MOL0     H12693  12.405  10.608   8.288  0.6573 -0.0625  1.0924
  835MOL0     H12694  12.390  10.439   8.338  0.1534  2.1350  1.6002
  835MOL0     H12695  12.650  10.543   8.204  2.2098 -0.3587  0.8134
  835MOL0     H12696  12.604  10.371   8.193 -1.6443 -0.1370 -0.2689
  835MOL0     H12697  12.614  10.367   8.442  1.7439  0.1640  2.1019
  835MOL0     H12698  12.630  10.541   8.440 -2.0678 -1.1558 -0.4714
  835MOL0     H12699  12.852  10.501   8.309 -0.3551 -1.5823 -1.0695
  835MOL0     H12700  12.862  10.434   8.469 -0.7891 -0.5891  0.8973
  835MOL0     H12701  12.811  10.282   8.209 -2.4709 -1.3696  0.5740
  835MOL0     H12702  12.809  10.204   8.366  0.2138  0.4857 -0.5940
  835MOL0     H12703  13.051  10.351   8.260  1.0136 -1.9004 -1.0332
  835MOL0     H12704  13.042  10.269   8.416 -0.3600  0.8664 -0.0550
  835MOL0     H12705  12.096  10.477   7.754 -1.0478 -3.6480 -1.9072
  835MOL0     H12706  11.862  10.470   7.665  1.1607 -5.2187  0.2490
  835MOL0     H12707  11.449  10.343   7.748 -0.3268 -1.0748 -1.3852
  835MOL0     H12708  11.223  10.294   7.668 -1.5911  0.0286 -0.8310
  835MOL0     H12709   9.655  10.666   7.052 -0.9679  3.1623 -2.4602
  835MOL0     H12710   9.538  10.813   7.189  1.2263 -0.9552 -1.2359
  835MOL0     H12711   9.139  10.790   7.432 -1.5134 -1.0967  1.2701
  835MOL0     H12712   9.059  10.849   7.635 -0.0857 -1.0894 -0.5396
  835MOL0     H12713   8.895  10.972   7.830  0.2073 -0.1532 -0.3704
  835MOL0     H12714   8.846  10.980   7.665  1.0534  2.0031 -2.1337
  835MOL0     H12715   8.793  11.246   7.748  1.1304  0.4721  1.7317
  835MOL0     H12716   8.850  11.181   7.896  0.9248 -0.0846 -0.6466
  835MOL0     H12717   8.663  10.990   7.866  1.2256  0.6532  0.4654
  835MOL0     H12718   8.591  11.096   7.740 -0.1663  3.3794 -0.1154
  835MOL0     H12719   8.557  11.274   7.895 -3.9586 -0.1268  2.4082
  835MOL0     H12720   8.472  11.131   7.941  0.7542 -2.2278  0.7529
  835MOL0     H12721   8.732  11.219   8.263 -1.4062  0.6943  0.3253
  835MOL0     H12722   9.094  11.265   7.549  0.3527 -0.9354  3.0456
  835MOL0     H12723   9.297  11.250   7.280  0.9845 -2.1231  0.7090
  835MOL0     H12724   9.134  11.233   7.208  0.4361 -0.1701  0.1772
  835MOL0     H12725   9.157  11.334   7.356 -1.4740 -1.1734  0.4306
  836MOL0     O12726   6.467   9.530   8.840 -1.0172  0.1077 -0.7606
  836MOL0     C12727   6.392   9.517   8.936  0.9170  0.6880  0.4321
  836MOL0     O12728   6.420   9.447   9.052  0.6921  0.2045  0.3307
  836MOL0     C12729   6.554   9.424   9.091 -0.2015 -0.4298  0.8006
  836MOL0     C12730   6.647   9.361   9.008  0.0599  0.3052 -0.1234
  836MOL0     C12731   6.784   9.328   9.055  0.9170 -0.7263  0.5320
  836MOL0     C12732   6.818   9.371   9.186  0.0733  0.2413  0.0881
  836MOL0     O12733   6.940   9.344   9.238 -0.8097 -0.2312 -0.2773
  836MOL0     C12734   7.055   9.373   9.158 -0.2454 -0.2160 -0.2617
  836MOL0     C12735   7.166   9.333   9.251  0.3971  0.1571  0.0193
  836MOL0     C12736   7.300   9.374   9.193  0.3217 -0.3222 -0.8222
  836MOL0     C12737   7.410   9.356   9.295 -0.4833  0.8972 -0.7010
  836MOL0     C12738   7.526   9.444   9.269 -0.1144  0.8174  0.0964
  836MOL0     C12739   7.649   9.399   9.344 -0.4240 -0.6080  0.1761
  836MOL0     C12740   7.743   9.507   9.397  0.1517  0.3642  0.4944
  836MOL0     C12741   7.874   9.448   9.453 -0.3290 -0.6091 -0.0324
  836MOL0     N12742   7.927   9.539   9.555 -1.1514  0.3753  0.6094
  836MOL0     C12743   8.062   9.537   9.587 -0.5450 -0.2088 -0.8774
  836MOL0     C12744   8.075   9.649   9.673  0.9051 -0.0348  0.0461
  836MOL0     C12745   8.210   9.700   9.714 -0.1170  0.5795  0.5156
  836MOL0     C12746   8.294   9.708   9.592 -0.0098 -1.4879 -0.3754
  836MOL0     C12747   8.400   9.813   9.607 -0.1819  0.0256  0.5789
  836MOL0     C12748   8.486   9.821   9.474 -0.0031  0.6817  0.2972
  836MOL0     O12749   8.591   9.921   9.474  0.2491 -0.0947 -0.2414
  836MOL0     C12750   8.719   9.901   9.439 -1.0679 -0.1500 -0.5769
  836MOL0     C12751   8.816   9.995   9.471  0.7667  0.1204  0.1314
  836MOL0     C12752   8.950   9.981   9.427 -1.0089 -0.0252 -0.2217
  836MOL0     C12753   8.985   9.857   9.360 -0.0312  0.2024  0.2145
  836MOL0     C12754   9.121   9.834   9.304  0.1401  0.3441 -0.5136
  836MOL0     O12755   9.140   9.731   9.218  0.0777 -0.2043 -0.2771
  836MOL0     C12756   9.257   9.707   9.148  0.3735 -0.2508 -0.0144
  836MOL0     C12757   9.233   9.610   9.059 -1.1845  0.3157 -0.0953
  836MOL0     C12758   9.341   9.575   8.972  0.5815  0.2175 -0.1400
  836MOL0     C12759   9.455   9.646   8.964  1.1766  0.1744  0.5146
  836MOL0     O12760   9.554   9.603   8.875  0.5215 -0.1435 -0.3907
  836MOL0     C12761   9.674   9.667   8.872  0.7571 -0.0208  0.1358
  836MOL0     C12762   9.757   9.618   8.751  0.1701 -0.4140 -0.2857
  836MOL0     C12763   9.709   9.677   8.614 -0.0125 -0.0433 -1.0033
  836MOL0     C12764   9.562   9.652   8.575 -0.6230 -1.7089  0.3497
  836MOL0     C12765   9.542   9.689   8.428 -0.0918 -0.1042  0.2545
  836MOL0     C12766   9.402   9.694   8.380 -0.7707 -1.4270  0.2506
  836MOL0     C12767   9.368   9.799   8.272  0.9982  0.1055  0.9133
  836MOL0     C12768   9.241   9.777   8.188 -0.8691 -0.3691 -0.2421
  836MOL0    Cl12769   9.103   9.716   8.279 -0.1364 -0.2106 -0.2004
  836MOL0     C12770   9.479   9.753   9.052  0.7983 -0.2821 -0.3453
  836MOL0     C12771   9.379   9.778   9.149  0.2127  0.3928  0.0139
  836MOL0     O12772   9.198   9.921   9.325 -0.1301  0.1680  0.3989
  836MOL0     C12773   8.885   9.762   9.333  0.1892  0.5779 -0.2408
  836MOL0     C12774   8.756   9.782   9.366  1.2269 -0.5749 -0.0034
  836MOL0     N12775   7.950   9.708   9.690  0.1654 -0.1479 -0.3435
  836MOL0     N12776   7.873   9.644   9.612  0.0717  0.0162 -0.3514
  836MOL0     C12777   6.723   9.449   9.262 -0.6483  0.2843  0.0769
  836MOL0     C12778   6.594   9.473   9.208 -0.3187  0.3376  0.5960
  836MOL0     C12779   6.245   9.550   8.914 -0.8106  0.4523  0.4392
  836MOL0     C12780   6.177   9.583   9.031 -1.6186  0.5793 -0.8702
  836MOL0     C12781   6.044   9.618   9.031  0.0577  0.8988 -0.6950
  836MOL0     C12782   5.972   9.622   8.918  0.4555 -0.6389  0.5671
  836MOL0     O12783   5.832   9.641   8.923 -0.7213  0.5523  0.0507
  836MOL0     C12784   5.773   9.718   8.813 -0.4299 -0.6747  0.0911
  836MOL0     C12785   5.621   9.719   8.835  0.0751 -0.0328 -0.0726
  836MOL0     C12786   5.554   9.586   8.871  0.8826 -0.7805  0.6611
  836MOL0     C12787   5.395   9.581   8.864 -0.1230  0.1154  0.4399
  836MOL0     C12788   5.352   9.544   8.732  0.6736  0.1359  0.3585
  836MOL0     C12789   5.308   9.520   8.628 -1.0499  1.4991  1.1055
  836MOL0     C12790   6.037   9.599   8.796 -0.4288  0.5457 -0.3455
  836MOL0     C12791   6.177   9.559   8.791 -0.3133  0.2005  0.8059
  836MOL0     C12792   6.240   9.547   8.651  0.7183  0.0195 -0.6951
  836MOL0     H12793   6.623   9.333   8.906  4.2731 -0.7658 -1.0012
  836MOL0     H12794   6.854   9.270   8.995  0.1623 -1.2266  0.1163
  836MOL0     H12795   7.060   9.325   9.059 -4.3374 -0.7588 -0.3495
  836MOL0     H12796   7.066   9.480   9.139  0.4032  0.3787  2.9302
  836MOL0     H12797   7.168   9.223   9.255  3.4389  0.1375 -0.3874
  836MOL0     H12798   7.159   9.367   9.354 -1.8216  0.3365 -0.1298
  836MOL0     H12799   7.300   9.481   9.169  1.5208  0.0659  0.7633
  836MOL0     H12800   7.317   9.320   9.100  0.6755  0.3801 -1.1740
  836MOL0     H12801   7.383   9.384   9.398  2.2395 -1.8988  0.9289
  836MOL0     H12802   7.442   9.252   9.301 -2.7575  0.0867 -1.6132
  836MOL0     H12803   7.564   9.432   9.167  3.2802 -0.6831  1.3968
  836MOL0     H12804   7.508   9.551   9.283  1.2472  1.1606 -0.5847
  836MOL0     H12805   7.617   9.356   9.440 -2.0390 -1.6798 -0.8050
  836MOL0     H12806   7.713   9.325   9.296  1.9924  1.4242  0.1133
  836MOL0     H12807   7.688   9.557   9.478 -2.0331 -2.1946  0.7373
  836MOL0     H12808   7.765   9.571   9.312  3.1049 -1.4390 -0.2585
  836MOL0     H12809   7.862   9.342   9.477 -0.2392 -1.0088 -1.6623
  836MOL0     H12810   7.938   9.455   9.365  0.8496  1.0314  0.9093
  836MOL0     H12811   8.144   9.480   9.544  1.1417  0.4684  1.2825
  836MOL0     H12812   8.195   9.802   9.751 -2.8403  1.5119 -2.6584
  836MOL0     H12813   8.249   9.628   9.787 -3.5156 -1.1089  0.8732
  836MOL0     H12814   8.337   9.611   9.566  3.8418  0.1646 -0.8148
  836MOL0     H12815   8.230   9.730   9.506 -3.2723 -1.8013  1.7873
  836MOL0     H12816   8.465   9.801   9.694 -1.1859  0.1118  1.3548
  836MOL0     H12817   8.358   9.912   9.625  0.0891  1.0959 -3.6555
  836MOL0     H12818   8.424   9.840   9.386 -0.7570 -0.4359  0.5622
  836MOL0     H12819   8.522   9.719   9.454 -0.8262 -0.1190  2.6050
  836MOL0     H12820   8.788  10.078   9.535  0.0995  0.5354 -0.6824
  836MOL0     H12821   9.024  10.055   9.459 -3.2909  0.7673  3.9393
  836MOL0     H12822   9.140   9.553   9.055 -0.5572 -1.0873  2.7214
  836MOL0     H12823   9.326   9.483   8.916  3.7452  0.0558 -0.9316
  836MOL0     H12824   9.656   9.774   8.860  2.0503  0.1324 -0.5793
  836MOL0     H12825   9.731   9.651   8.964 -0.0571  1.1828  0.8756
  836MOL0     H12826   9.859   9.654   8.765 -0.7586  1.9888  0.7458
  836MOL0     H12827   9.758   9.509   8.742 -1.0412 -0.5435  0.8441
  836MOL0     H12828   9.727   9.783   8.634  1.8847 -0.3049 -1.1482
  836MOL0     H12829   9.774   9.653   8.529  0.4729  0.0541 -0.6659
  836MOL0     H12830   9.496   9.702   8.646  0.4258  0.4478 -0.1186
  836MOL0     H12831   9.536   9.546   8.584 -1.0462 -1.4402  3.4543
  836MOL0     H12832   9.586   9.607   8.371  2.4035  2.8648 -2.4323
  836MOL0     H12833   9.593   9.782   8.400 -1.2130  0.7485  0.9134
  836MOL0     H12834   9.383   9.600   8.328  3.4760 -0.5141 -3.5086
  836MOL0     H12835   9.335   9.709   8.466  2.8550 -1.5360  3.3450
  836MOL0     H12836   9.451   9.807   8.201 -0.1588 -0.8879 -0.6058
  836MOL0     H12837   9.360   9.901   8.310  2.7669  1.4975 -2.0593
  836MOL0     H12838   9.215   9.867   8.131  1.5611  1.5244  1.3877
  836MOL0     H12839   9.265   9.703   8.112 -0.9655  0.2523 -0.8891
  836MOL0     H12840   9.574   9.805   9.049  1.6756 -1.7866 -0.0465
  836MOL0     H12841   9.397   9.857   9.221 -1.7169 -0.5438  1.6375
  836MOL0     H12842   8.903   9.662   9.295 -1.4816 -0.2413  0.9976
  836MOL0     H12843   8.687   9.701   9.346  2.0054 -0.8727 -1.6140
  836MOL0     H12844   6.734   9.470   9.367  0.6255 -0.3467  0.0993
  836MOL0     H12845   6.524   9.532   9.266  1.6852  1.0204  2.4455
  836MOL0     H12846   6.227   9.592   9.127  0.3749  0.2603 -1.8375
  836MOL0     H12847   5.996   9.651   9.123  0.0878 -0.5277 -0.1399
  836MOL0     H12848   5.805   9.671   8.719 -1.3315  1.7269 -1.5184
  836MOL0     H12849   5.801   9.824   8.811 -2.5005 -0.0950 -0.0383
  836MOL0     H12850   5.570   9.770   8.753 -1.9584 -0.3505  0.9445
  836MOL0     H12851   5.604   9.790   8.917 -2.2502  0.7639 -1.1490
  836MOL0     H12852   5.585   9.572   8.975  3.3728 -0.2417  0.0591
  836MOL0     H12853   5.594   9.493   8.829 -1.6629 -0.2692 -3.3913
  836MOL0     H12854   5.369   9.509   8.942 -0.2712 -0.9565 -0.5738
  836MOL0     H12855   5.348   9.677   8.889 -0.7904 -0.7245  2.6929
  836MOL0     H12856   5.279   9.487   8.530  0.1112  1.0346  0.9100
  836MOL0     H12857   5.983   9.586   8.703  1.2032 -0.3872 -1.2008
  836MOL0     H12858   6.286   9.448   8.643 -1.7321 -1.8568  4.1753
  836MOL0     H12859   6.170   9.558   8.568  2.8106  1.2421 -2.4163
  836MOL0     H12860   6.312   9.629   8.637  0.0536  0.8111  0.3640
  837MOL0     O12861   8.383   4.925  10.944 -0.2497  0.1153 -0.5856
  837MOL0     C12862   8.479   4.906  10.872 -0.2273  0.2095  0.2434
  837MOL0     O12863   8.566   4.999  10.844  0.1977 -0.0230 -0.5528
  837MOL0     C12864   8.560   5.127  10.885  0.3799 -0.4115  0.2989
  837MOL0     C12865   8.457   5.205  10.829 -0.1319  0.9362 -0.2596
  837MOL0     C12866   8.427   5.332  10.875  0.2856  1.7321  0.4310
  837MOL0     C12867   8.512   5.393  10.966 -0.0208  1.0400  0.6065
  837MOL0     O12868   8.492   5.515  11.006  0.5924 -0.1457 -0.0845
  837MOL0     C12869   8.368   5.585  10.998  0.3707 -0.0262  0.6798
  837MOL0     C12870   8.362   5.679  11.118  0.4240 -0.0944  0.4856
  837MOL0     C12871   8.240   5.766  11.103  0.2216 -0.4162  0.5230
  837MOL0     C12872   8.222   5.864  11.218  0.0085 -0.0120 -0.1155
  837MOL0     C12873   8.103   5.962  11.204  0.2799 -0.4242  0.4703
  837MOL0     C12874   8.114   6.073  11.306  0.1946  0.2768 -0.5990
  837MOL0     C12875   8.002   6.180  11.289  0.8325  0.4897 -0.3853
  837MOL0     C12876   7.993   6.281  11.405 -0.0501  0.0161  0.3517
  837MOL0     N12877   8.121   6.355  11.416 -0.4378 -0.7309 -0.3270
  837MOL0     C12878   8.168   6.403  11.538 -0.2626  0.6500 -0.2161
  837MOL0     C12879   8.262   6.492  11.501  0.1189  0.6410 -0.1191
  837MOL0     C12880   8.332   6.582  11.588  0.4678 -0.8587  0.2686
  837MOL0     C12881   8.458   6.544  11.659 -0.1548 -0.6079  0.2814
  837MOL0     C12882   8.460   6.406  11.740  0.9200 -0.4735  0.0502
  837MOL0     C12883   8.615   6.373  11.762 -0.0592  0.1815  0.1634
  837MOL0     O12884   8.676   6.489  11.829 -0.3453 -0.6441  0.3599
  837MOL0     C12885   8.810   6.497  11.861  0.7208 -0.0205  0.5984
  837MOL0     C12886   8.903   6.444  11.765 -0.0468 -0.3353 -0.1638
  837MOL0     C12887   9.039   6.463  11.787 -0.3526  0.2743 -0.2756
  837MOL0     C12888   9.082   6.534  11.907 -0.2642 -0.3713  0.7080
  837MOL0     C12889   9.222   6.561  11.937  0.3763 -0.6724  0.2455
  837MOL0     O12890   9.243   6.591  12.073 -0.6720 -0.4868  0.4791
  837MOL0     C12891   9.379   6.621  12.099  1.1160  0.1626  0.6904
  837MOL0     C12892   9.426   6.752  12.093  0.2512  0.8366 -0.5043
  837MOL0     C12893   9.560   6.775  12.114  0.5644  0.2122  0.1050
  837MOL0     C12894   9.649   6.675  12.155 -0.0780  1.0741 -0.2206
  837MOL0     O12895   9.788   6.697  12.155  0.2088  0.5091  0.6609
  837MOL0     C12896   9.879   6.599  12.206  0.3205  0.1436  1.2628
  837MOL0     C12897  10.004   6.685  12.206 -0.2484 -0.1854  0.6744
  837MOL0     C12898  10.126   6.595  12.225  1.3370 -0.5437  0.3182
  837MOL0     C12899  10.123   6.515  12.355 -0.1680 -0.1779 -0.0836
  837MOL0     C12900  10.268   6.475  12.386 -1.2094 -0.4412 -0.2966
  837MOL0     C12901  10.322   6.563  12.511  0.0732 -0.1951 -0.2136
  837MOL0     C12902  10.257   6.519  12.638 -0.1220  0.3391 -0.6591
  837MOL0     C12903  10.319   6.582  12.762  0.8506 -0.5556  0.0747
  837MOL0    Cl12904  10.439   6.483  12.830  0.0264  0.0108 -0.0593
  837MOL0     C12905   9.592   6.551  12.181 -0.4688  0.4614  0.2276
  837MOL0     C12906   9.463   6.525  12.140 -0.3109 -0.2252 -0.6509
  837MOL0     O12907   9.302   6.521  11.853 -0.1587 -0.5214 -0.3193
  837MOL0     C12908   8.983   6.584  12.003 -0.1850  1.0718 -0.2980
  837MOL0     C12909   8.854   6.577  11.964 -0.0988  0.0586 -0.0436
  837MOL0     N12910   8.276   6.492  11.365  0.0581 -0.2192 -0.2173
  837MOL0     N12911   8.186   6.415  11.312 -0.5750 -0.1972 -0.0867
  837MOL0     C12912   8.637   5.325  10.995  0.0803 -0.3803 -0.2840
  837MOL0     C12913   8.658   5.191  10.960 -0.1016  0.4545 -0.1274
  837MOL0     C12914   8.490   4.768  10.804  0.3916 -0.4048 -0.0344
  837MOL0     C12915   8.582   4.775  10.700 -0.0754  0.8695  0.1212
  837MOL0     C12916   8.608   4.657  10.639 -0.5883  0.4928 -0.2241
  837MOL0     C12917   8.544   4.532  10.670  0.6659  0.3371  0.7033
  837MOL0     O12918   8.569   4.406  10.613 -0.1387 -0.4417 -0.2310
  837MOL0     C12919   8.666   4.393  10.503 -0.4917  0.1423  0.1830
  837MOL0     C12920   8.645   4.264  10.439  0.2280  0.7229  0.7444
  837MOL0     C12921   8.656   4.149  10.536  0.1653 -0.0140  0.5714
  837MOL0     C12922   8.660   4.015  10.457  1.0336  0.1922  0.6072
  837MOL0     C12923   8.542   4.005  10.367  0.1001 -0.4740 -0.2025
  837MOL0     C12924   8.450   4.011  10.293  0.3304 -0.1785  0.2853
  837MOL0     C12925   8.455   4.539  10.779  0.8688  0.0832 -1.0331
  837MOL0     C12926   8.423   4.654  10.850  0.9266 -0.2871 -0.9206
  837MOL0     C12927   8.330   4.653  10.964 -0.6510  0.8497 -0.3290
  837MOL0     H12928   8.391   5.162  10.755  2.1148 -1.5528 -0.9698
  837MOL0     H12929   8.334   5.371  10.835 -0.6049 -1.9748 -1.6458
  837MOL0     H12930   8.365   5.633  10.900 -1.7592 -0.6834  0.3547
  837MOL0     H12931   8.277   5.525  11.007 -0.2790  0.7848 -0.2821
  837MOL0     H12932   8.453   5.739  11.121  0.5534 -0.3170  2.0884
  837MOL0     H12933   8.347   5.628  11.213 -2.7290  0.4771  0.4260
  837MOL0     H12934   8.151   5.701  11.103  1.5697 -2.3466 -0.3615
  837MOL0     H12935   8.246   5.817  11.006  1.5972 -0.6834  0.4600
  837MOL0     H12936   8.224   5.805  11.310  5.1731 -0.8716 -0.4750
  837MOL0     H12937   8.313   5.918  11.247 -0.2442 -2.2985  6.7214
  837MOL0     H12938   8.123   6.009  11.107 -1.7609  1.0194  0.6885
  837MOL0     H12939   8.005   5.913  11.193 -0.5157  1.5294 -2.5078
  837MOL0     H12940   8.101   6.032  11.407 -1.9065 -1.6377 -1.5424
  837MOL0     H12941   8.207   6.127  11.286 -0.4300  0.7275 -2.5464
  837MOL0     H12942   7.907   6.126  11.294  2.2393 -2.1593 -0.3114
  837MOL0     H12943   8.011   6.220  11.188 -0.2190  3.4246  0.5836
  837MOL0     H12944   7.914   6.340  11.356  0.1665 -0.5316 -0.6829
  837MOL0     H12945   7.958   6.251  11.504  0.9851  1.7711  1.3077
  837MOL0     H12946   8.141   6.372  11.639  0.5935 -1.8800 -0.7071
  837MOL0     H12947   8.354   6.672  11.532  3.9488 -1.8799 -0.2333
  837MOL0     H12948   8.253   6.616  11.656 -1.1570 -0.3746 -1.7511
  837MOL0     H12949   8.541   6.549  11.588 -0.2368 -2.0448  0.0482
  837MOL0     H12950   8.461   6.623  11.734 -2.8447  1.7449 -1.8561
  837MOL0     H12951   8.408   6.325  11.687 -1.0301 -0.6458  2.0691
  837MOL0     H12952   8.409   6.419  11.835 -0.7053  1.1977 -0.9795
  837MOL0     H12953   8.669   6.358  11.667  3.0889  0.7511  1.7286
  837MOL0     H12954   8.625   6.285  11.826  2.3789  0.2083 -0.0633
  837MOL0     H12955   8.872   6.415  11.666  1.6723  0.0733 -0.8670
  837MOL0     H12956   9.108   6.437  11.707 -0.2145 -0.5289  0.0950
  837MOL0     H12957   9.357   6.832  12.069 -1.2228 -0.5164 -0.9567
  837MOL0     H12958   9.603   6.871  12.088 -0.4962  0.9470  0.9870
  837MOL0     H12959   9.845   6.557  12.301 -0.8270  0.0073  0.8087
  837MOL0     H12960   9.890   6.514  12.138  5.3501  1.3587  0.1578
  837MOL0     H12961  10.017   6.728  12.106 -2.3830 -0.5283  0.2024
  837MOL0     H12962   9.994   6.768  12.277  3.6378  1.9210 -0.8599
  837MOL0     H12963  10.146   6.534  12.136  1.1829 -0.8065  0.4645
  837MOL0     H12964  10.206   6.668  12.239  0.4140  1.2504 -2.6925
  837MOL0     H12965  10.057   6.428  12.348  0.7460 -0.7672 -1.6572
  837MOL0     H12966  10.078   6.579  12.432 -1.7869 -2.5819  1.0964
  837MOL0     H12967  10.352   6.485  12.317 -0.1152  0.1854  1.0660
  837MOL0     H12968  10.272   6.372  12.422  1.4922  0.0753  1.1675
  837MOL0     H12969  10.430   6.546  12.516 -0.2907 -3.0567 -0.6830
  837MOL0     H12970  10.298   6.670  12.501  0.4809 -0.1312 -0.5548
  837MOL0     H12971  10.272   6.411  12.650 -2.4707  0.1647  1.4137
  837MOL0     H12972  10.150   6.540  12.638 -0.5843 -1.7558 -0.7106
  837MOL0     H12973  10.376   6.674  12.748  3.1565 -1.6534  1.5947
  837MOL0     H12974  10.239   6.603  12.834 -0.7177 -2.4513 -1.0209
  837MOL0     H12975   9.652   6.478  12.234  2.3915  1.2301 -1.7236
  837MOL0     H12976   9.408   6.432  12.154 -0.8727 -0.6361 -4.3583
  837MOL0     H12977   8.997   6.633  12.098 -2.5197 -1.1061  1.2980
  837MOL0     H12978   8.771   6.616  12.023 -2.3154 -4.9341  0.6841
  837MOL0     H12979   8.705   5.380  11.059 -0.4259  0.9229 -0.8369
  837MOL0     H12980   8.751   5.139  10.983 -0.1913  0.4508  0.2452
  837MOL0     H12981   8.633   4.860  10.655  1.9728 -0.0131  0.6692
  837MOL0     H12982   8.683   4.664  10.561  0.6066  3.2563  1.0399
  837MOL0     H12983   8.764   4.389  10.552 -1.9156  1.4259  3.4514
  837MOL0     H12984   8.666   4.468  10.424  2.1000  0.3103  0.2595
  837MOL0     H12985   8.714   4.250  10.355 -0.4591 -0.5438  0.3435
  837MOL0     H12986   8.539   4.271  10.411 -0.0650  1.5791  1.9969
  837MOL0     H12987   8.565   4.148  10.598  0.4720 -1.5306  1.0581
  837MOL0     H12988   8.746   4.158  10.597  1.3469 -1.8238 -0.8076
  837MOL0     H12989   8.754   4.004  10.402  0.5780 -0.0555 -0.1262
  837MOL0     H12990   8.657   3.931  10.527  0.3711 -2.4917 -2.4195
  837MOL0     H12991   8.367   3.985  10.231 -0.4974  1.7770  0.5002
  837MOL0     H12992   8.411   4.444  10.809 -1.0234  1.8009  2.2171
  837MOL0     H12993   8.377   4.660  11.063 -2.5365  1.0101  0.5852
  837MOL0     H12994   8.250   4.726  10.953 -0.7800  0.3535 -3.6907
  837MOL0     H12995   8.280   4.556  10.973  0.8054  0.0812 -0.0983
  838MOL0     O12996   2.726   7.264   3.289  0.3534  0.2818  0.2746
  838MOL0     C12997   2.637   7.247   3.211  0.6703 -0.0050  1.4410
  838MOL0     O12998   2.616   7.318   3.100 -0.1259 -0.6084  0.4826
  838MOL0     C12999   2.715   7.406   3.052 -0.1092 -0.7612 -0.0953
  838MOL0     C13000   2.727   7.531   3.106  1.0163 -1.0027 -0.3026
  838MOL0     C13001   2.826   7.623   3.074  0.3211  0.1281 -0.1927
  838MOL0     C13002   2.911   7.591   2.962 -0.1211  0.7049 -0.0372
  838MOL0     O13003   3.029   7.663   2.934  0.4161  0.0710 -0.5091
  838MOL0     C13004   3.058   7.779   3.011  0.7155  0.1083 -0.0855
  838MOL0     C13005   3.164   7.857   2.936 -0.5705 -0.4771 -1.0738
  838MOL0     C13006   3.311   7.807   2.932 -0.3186 -0.9494  0.1220
  838MOL0     C13007   3.413   7.920   2.922 -0.1092 -0.3865  0.3313
  838MOL0     C13008   3.410   8.018   3.038  0.4893  0.0148 -0.6474
  838MOL0     C13009   3.548   8.089   3.048 -0.1628 -0.2150 -0.2527
  838MOL0     C13010   3.555   8.190   3.161 -0.3714  0.3015 -0.4972
  838MOL0     C13011   3.697   8.261   3.146 -0.6570 -0.0780 -0.2213
  838MOL0     N13012   3.715   8.367   3.237 -0.3769 -0.6750  0.2159
  838MOL0     C13013   3.631   8.469   3.256 -0.1791 -1.2996  0.5786
  838MOL0     C13014   3.680   8.542   3.354  0.4691  0.0647 -0.5994
  838MOL0     C13015   3.630   8.673   3.413  0.3459 -0.8283 -0.2916
  838MOL0     C13016   3.474   8.684   3.416 -0.5458  0.1603 -0.0137
  838MOL0     C13017   3.414   8.622   3.537 -0.9718 -0.0799  0.1163
  838MOL0     C13018   3.282   8.548   3.518  0.7796  0.1974 -0.9466
  838MOL0     O13019   3.312   8.409   3.483  0.3657  0.0100 -0.0920
  838MOL0     C13020   3.217   8.322   3.442 -0.5225  0.0582 -0.1308
  838MOL0     C13021   3.265   8.201   3.378 -0.4778  0.1011 -0.4849
  838MOL0     C13022   3.172   8.094   3.354 -0.2186  0.1686  0.2431
  838MOL0     C13023   3.032   8.112   3.382  0.5517 -0.1757 -0.5887
  838MOL0     C13024   2.940   8.006   3.353  0.0552 -1.0456 -0.4004
  838MOL0     O13025   2.813   8.030   3.372 -0.0430 -0.4395  0.2929
  838MOL0     C13026   2.722   7.953   3.302 -0.2406  0.6525 -0.4252
  838MOL0     C13027   2.681   7.978   3.174 -0.6101 -1.3192  0.1996
  838MOL0     C13028   2.580   7.895   3.113 -0.2196 -1.4411 -0.1833
  838MOL0     C13029   2.531   7.791   3.186 -0.6476  0.2921 -0.2093
  838MOL0     O13030   2.437   7.709   3.147  0.2418  0.1328  0.2016
  838MOL0     C13031   2.384   7.701   3.008 -0.2201 -0.6029  0.1433
  838MOL0     C13032   2.239   7.648   3.031  0.0946 -0.1081  0.5850
  838MOL0     C13033   2.237   7.503   3.075  0.4740 -0.5473  0.3135
  838MOL0     C13034   2.098   7.441   3.044 -0.0741  0.4690 -0.1607
  838MOL0     C13035   2.082   7.294   3.106  0.2883 -0.4851 -0.0557
  838MOL0     C13036   1.934   7.250   3.110  0.5335 -0.4076 -0.4728
  838MOL0     C13037   1.841   7.331   3.198  0.2963 -0.3331  0.6295
  838MOL0     C13038   1.694   7.310   3.152  0.0366 -0.0126  0.2219
  838MOL0    Cl13039   1.636   7.138   3.140  0.6086 -0.0710 -0.4933
  838MOL0     C13040   2.572   7.766   3.315 -0.4150 -0.9115 -0.3381
  838MOL0     C13041   2.669   7.846   3.379 -0.1908 -0.1768  0.0774
  838MOL0     O13042   2.987   7.901   3.312 -0.1617 -0.0526 -0.3295
  838MOL0     C13043   2.986   8.236   3.435 -0.0827 -0.4164 -0.0781
  838MOL0     C13044   3.084   8.339   3.472  0.5250  0.1635 -0.3436
  838MOL0     N13045   3.802   8.483   3.399  0.2017  0.1179  0.3196
  838MOL0     N13046   3.827   8.388   3.314  0.1597  0.5064 -0.3347
  838MOL0     C13047   2.893   7.474   2.898 -0.0133  0.5690  0.7671
  838MOL0     C13048   2.800   7.377   2.934  0.3778  0.8152 -1.5365
  838MOL0     C13049   2.540   7.136   3.243 -0.7691  0.5075 -0.0424
  838MOL0     C13050   2.419   7.142   3.173  0.6935  0.2352 -0.8433
  838MOL0     C13051   2.318   7.054   3.206 -0.1696  0.0805 -0.9446
  838MOL0     C13052   2.343   6.948   3.288 -0.3106 -0.3166  0.8693
  838MOL0     O13053   2.239   6.856   3.286  0.7835  0.3400 -0.9011
  838MOL0     C13054   2.277   6.721   3.294  0.5376  0.2932 -1.1332
  838MOL0     C13055   2.145   6.638   3.261 -0.4997  0.2841 -0.1169
  838MOL0     C13056   2.050   6.651   3.379  0.3989  0.2267  0.3078
  838MOL0     C13057   1.930   6.560   3.380 -0.4387 -0.4767 -0.2580
  838MOL0     C13058   1.842   6.585   3.254 -1.4972 -0.1879 -0.3774
  838MOL0     C13059   1.782   6.588   3.150  0.2102 -0.5463  0.1712
  838MOL0     C13060   2.460   6.939   3.356  0.2724 -0.1050 -1.0400
  838MOL0     C13061   2.550   7.039   3.345  0.0671 -0.7818 -0.1633
  838MOL0     C13062   2.670   7.024   3.439  0.3264  0.3205  0.0065
  838MOL0     H13063   2.643   7.551   3.171  1.3928  2.8418 -0.7744
  838MOL0     H13064   2.846   7.713   3.133 -0.0306  0.1864 -0.1632
  838MOL0     H13065   2.971   7.844   3.021 -0.3124 -1.2830  0.3655
  838MOL0     H13066   3.099   7.745   3.107  0.7915 -1.3512 -0.6069
  838MOL0     H13067   3.165   7.951   2.991 -0.1932 -0.9195 -0.3047
  838MOL0     H13068   3.123   7.877   2.837  1.4171 -1.3678 -2.1334
  838MOL0     H13069   3.331   7.759   2.836  1.3000 -1.8576  0.8832
  838MOL0     H13070   3.335   7.738   3.013  0.3233 -1.9809 -0.9287
  838MOL0     H13071   3.514   7.883   2.902  0.1964  0.1995  0.7795
  838MOL0     H13072   3.391   7.983   2.835 -1.4635  0.4740  1.2576
  838MOL0     H13073   3.329   8.087   3.013  2.1227  2.0765 -0.4744
  838MOL0     H13074   3.399   7.956   3.128  0.2922  1.2757  0.2281
  838MOL0     H13075   3.623   8.011   3.062  1.4085  1.6447  2.6851
  838MOL0     H13076   3.565   8.146   2.956 -1.7475  0.9191  0.1120
  838MOL0     H13077   3.564   8.124   3.248  0.8339  2.3112  0.9958
  838MOL0     H13078   3.467   8.255   3.162 -2.9920 -2.9356  2.2180
  838MOL0     H13079   3.767   8.185   3.181  3.1361  2.4663 -1.6214
  838MOL0     H13080   3.713   8.286   3.040 -1.1514  0.4600 -0.1741
  838MOL0     H13081   3.543   8.491   3.196 -0.0241  1.4456  1.2367
  838MOL0     H13082   3.671   8.681   3.515 -0.6313  0.2244  0.0355
  838MOL0     H13083   3.672   8.759   3.362 -0.8567  0.8905  1.4743
  838MOL0     H13084   3.441   8.788   3.429 -2.1377 -0.5577  2.3191
  838MOL0     H13085   3.424   8.645   3.327  0.2703 -0.2725 -0.2931
  838MOL0     H13086   3.406   8.696   3.617 -1.2667 -2.1262  2.0930
  838MOL0     H13087   3.475   8.545   3.584 -0.1486  0.3685 -0.2063
  838MOL0     H13088   3.227   8.577   3.428 -1.5562  0.4112  0.4646
  838MOL0     H13089   3.217   8.558   3.605  2.3429  0.2169  0.2536
  838MOL0     H13090   3.372   8.185   3.367 -0.5786 -0.2643 -0.9448
  838MOL0     H13091   3.218   7.998   3.330  2.0353  0.5924  2.4476
  838MOL0     H13092   2.710   8.070   3.126  0.3429 -2.7773 -2.1674
  838MOL0     H13093   2.540   7.935   3.021  1.7909 -0.9601 -0.9136
  838MOL0     H13094   2.380   7.800   2.963  2.2887 -0.3426  0.3784
  838MOL0     H13095   2.449   7.636   2.948  2.2905  2.6677 -0.9378
  838MOL0     H13096   2.181   7.716   3.093 -1.5869 -1.0000  0.0557
  838MOL0     H13097   2.184   7.654   2.936 -0.4174  0.8575  0.9362
  838MOL0     H13098   2.319   7.450   3.026  0.0644 -0.6648 -0.2547
  838MOL0     H13099   2.255   7.496   3.183 -0.0648  0.3061  0.4693
  838MOL0     H13100   2.088   7.439   2.935  0.6610 -0.2010 -0.2273
  838MOL0     H13101   2.017   7.504   3.080 -1.7167 -0.9790 -1.1653
  838MOL0     H13102   2.114   7.307   3.210  4.8580  2.1799 -1.4971
  838MOL0     H13103   2.146   7.228   3.046 -0.4430  0.9989 -2.5647
  838MOL0     H13104   1.897   7.246   3.007  0.2031  1.0785 -0.4304
  838MOL0     H13105   1.932   7.147   3.148 -1.0028 -0.8879 -1.7383
  838MOL0     H13106   1.859   7.439   3.196 -0.0333 -0.2837  0.3235
  838MOL0     H13107   1.848   7.314   3.306  0.3243  5.8132  1.9884
  838MOL0     H13108   1.625   7.372   3.210 -1.0638 -1.7625  0.8616
  838MOL0     H13109   1.679   7.359   3.055 -3.3297 -0.1648  0.5241
  838MOL0     H13110   2.550   7.673   3.367  4.5953 -2.1073  0.1591
  838MOL0     H13111   2.709   7.839   3.480  0.8952  3.0501 -0.0272
  838MOL0     H13112   2.882   8.259   3.450  0.6973  3.2883  0.5914
  838MOL0     H13113   3.031   8.427   3.508  0.2859  0.4164 -1.3007
  838MOL0     H13114   2.949   7.434   2.814 -3.6161 -3.7609  0.0625
  838MOL0     H13115   2.782   7.279   2.893 -4.4972 -0.3107  2.3357
  838MOL0     H13116   2.397   7.215   3.096 -1.5588 -0.7191 -1.1924
  838MOL0     H13117   2.226   7.065   3.150 -0.4187  0.3029 -0.4981
  838MOL0     H13118   2.311   6.703   3.397  1.5492 -1.7954 -1.7728
  838MOL0     H13119   2.359   6.700   3.226  0.1410  1.1073 -1.8781
  838MOL0     H13120   2.156   6.532   3.238 -2.9960  0.0325 -0.4333
  838MOL0     H13121   2.097   6.681   3.173 -0.4791  0.6562  0.0545
  838MOL0     H13122   2.020   6.756   3.389 -3.1162 -0.4283 -1.7722
  838MOL0     H13123   2.106   6.628   3.470  0.2728 -0.8048  0.1360
  838MOL0     H13124   1.980   6.462   3.380  1.5864  0.4896  1.5424
  838MOL0     H13125   1.892   6.569   3.482  2.3531  0.0030  0.8206
  838MOL0     H13126   1.719   6.575   3.064 -1.3071 -1.4006  1.3371
  838MOL0     H13127   2.486   6.862   3.428  1.3041  1.9561  0.9387
  838MOL0     H13128   2.676   7.115   3.499  0.9788  1.1656 -1.3053
  838MOL0     H13129   2.657   6.948   3.517  0.4044  0.8422  0.5395
  838MOL0     H13130   2.764   7.009   3.384  0.6659 -0.0086  0.6572
  839MOL0     O13131   3.007   5.867   4.907  0.1453 -0.3298 -0.3805
  839MOL0     C13132   2.936   5.956   4.962 -0.4240  0.3256 -0.2599
  839MOL0     O13133   2.947   6.098   4.942  0.5855 -0.6889  0.5946
  839MOL0     C13134   3.058   6.141   4.869  0.2626  1.1080  0.2347
  839MOL0     C13135   3.051   6.144   4.730 -0.7150  0.4703  0.2767
  839MOL0     C13136   3.162   6.182   4.653 -0.2066  0.0166  0.0528
  839MOL0     C13137   3.280   6.219   4.711 -0.6794  0.1327 -0.6323
  839MOL0     O13138   3.396   6.265   4.644 -0.0492  0.1632  0.0013
  839MOL0     C13139   3.392   6.294   4.506 -0.2952 -1.0977 -0.3442
  839MOL0     C13140   3.394   6.170   4.408 -0.1021 -0.8633 -0.2725
  839MOL0     C13141   3.537   6.104   4.419 -0.5262  0.0349  0.0206
  839MOL0     C13142   3.642   6.190   4.346 -0.0176 -0.1509  0.2571
  839MOL0     C13143   3.766   6.099   4.322 -0.5250 -0.3539 -0.5920
  839MOL0     C13144   3.870   6.176   4.244  0.0189  0.4980  0.8592
  839MOL0     C13145   3.949   6.279   4.314 -0.2940 -1.0585 -0.8723
  839MOL0     C13146   4.045   6.347   4.231  0.0137  0.4030  0.3678
  839MOL0     N13147   4.169   6.264   4.207 -0.0674  0.1814 -0.2933
  839MOL0     C13148   4.273   6.241   4.293  0.3535  0.3881 -0.6297
  839MOL0     C13149   4.367   6.192   4.214 -0.5194  0.8020 -0.0784
  839MOL0     C13150   4.507   6.164   4.261 -0.1102  1.2970 -0.4526
  839MOL0     C13151   4.577   6.291   4.314 -0.6655 -0.1277 -0.1387
  839MOL0     C13152   4.732   6.269   4.316 -1.1478  0.2765  0.3476
  839MOL0     C13153   4.812   6.318   4.193 -0.2707 -0.1184 -0.7616
  839MOL0     O13154   4.832   6.457   4.199 -0.5566 -0.7089 -0.4682
  839MOL0     C13155   4.957   6.491   4.168  0.0161 -1.0160 -0.6734
  839MOL0     C13156   5.005   6.459   4.043  0.1469  0.5534  0.3927
  839MOL0     C13157   5.124   6.501   4.004 -1.3920 -0.1554  0.1231
  839MOL0     C13158   5.207   6.582   4.085  0.3856  0.9075 -0.6406
  839MOL0     C13159   5.340   6.631   4.044  0.6481  0.6263 -1.2358
  839MOL0     O13160   5.375   6.751   4.102  0.5562  0.0908  0.8616
  839MOL0     C13161   5.480   6.830   4.060  0.9125  0.4016 -1.2463
  839MOL0     C13162   5.451   6.953   3.998 -0.0366  0.5353 -0.1635
  839MOL0     C13163   5.555   7.033   3.967  0.2254  0.0719  0.7347
  839MOL0     C13164   5.687   6.994   3.996  1.1623  0.9614 -1.1451
  839MOL0     O13165   5.795   7.076   3.961 -0.3274  0.6035  0.4914
  839MOL0     C13166   5.781   7.205   3.905 -0.4031  1.3675  0.7568
  839MOL0     C13167   5.923   7.243   3.857  0.5101 -0.1263 -0.1464
  839MOL0     C13168   6.018   7.269   3.973  0.1090  0.2695  0.3357
  839MOL0     C13169   6.168   7.285   3.933  0.7817  0.2548  0.1834
  839MOL0     C13170   6.271   7.274   4.046 -0.4967  0.0189  0.4157
  839MOL0     C13171   6.259   7.366   4.168  0.0663  0.5530  0.4337
  839MOL0     C13172   6.237   7.514   4.140 -0.7920  0.7206 -0.1008
  839MOL0     C13173   6.311   7.601   4.238 -0.0107  0.0808 -0.1901
  839MOL0    Cl13174   6.291   7.771   4.190  0.7350  0.5024  0.2954
  839MOL0     C13175   5.709   6.880   4.078  0.1852 -0.1471 -0.0573
  839MOL0     C13176   5.610   6.786   4.093 -0.2962 -0.4586 -0.1871
  839MOL0     O13177   5.394   6.574   3.948 -0.3355 -0.2046 -0.2723
  839MOL0     C13178   5.158   6.622   4.210 -0.4658  0.0865 -1.3245
  839MOL0     C13179   5.030   6.577   4.252 -0.4083  0.3241 -0.4253
  839MOL0     N13180   4.326   6.186   4.088 -0.2674 -0.0006 -0.0249
  839MOL0     N13181   4.210   6.228   4.083 -0.2189  0.1144  0.2066
  839MOL0     C13182   3.284   6.225   4.855  0.6129 -0.5868  1.1560
  839MOL0     C13183   3.182   6.172   4.934  0.3613 -0.3914  0.5610
  839MOL0     C13184   2.821   5.904   5.042 -0.5089  0.1037  0.7519
  839MOL0     C13185   2.797   5.970   5.163 -0.4122 -0.7926 -0.5161
  839MOL0     C13186   2.694   5.940   5.252 -0.1037  0.4229  0.9143
  839MOL0     C13187   2.612   5.831   5.216  0.4736 -0.3500  0.1094
  839MOL0     O13188   2.516   5.800   5.311  0.0095  0.3292 -0.4796
  839MOL0     C13189   2.410   5.711   5.273  0.4560 -0.4429  1.4770
  839MOL0     C13190   2.274   5.753   5.350 -0.3527  0.8090  0.3879
  839MOL0     C13191   2.235   5.903   5.346  0.5046 -0.4843 -0.1730
  839MOL0     C13192   2.188   5.943   5.215  0.7684  0.3653  0.5631
  839MOL0     C13193   2.061   5.883   5.162 -0.3955 -1.2363  0.0284
  839MOL0     C13194   1.965   5.831   5.121  0.5219 -0.1917 -0.7076
  839MOL0     C13195   2.629   5.769   5.094  0.7272  0.6159  0.0267
  839MOL0     C13196   2.736   5.805   4.998 -0.3508  0.6941 -0.0663
  839MOL0     C13197   2.736   5.745   4.859 -0.4578 -0.3341 -0.5188
  839MOL0     H13198   2.953   6.112   4.696 -0.1530 -0.5775 -0.3812
  839MOL0     H13199   3.141   6.185   4.547 -0.9208  1.9924  0.2179
  839MOL0     H13200   3.304   6.347   4.468  1.3533  1.9526 -0.2918
  839MOL0     H13201   3.474   6.365   4.490 -1.0761  0.2185  1.2257
  839MOL0     H13202   3.385   6.201   4.304  1.3760  2.5274  0.4703
  839MOL0     H13203   3.313   6.104   4.440 -0.5707 -0.2863 -0.2338
  839MOL0     H13204   3.527   6.004   4.377 -2.1172  1.0364 -2.1750
  839MOL0     H13205   3.560   6.099   4.526 -3.8072  0.7044  0.8513
  839MOL0     H13206   3.600   6.231   4.254 -0.3517 -0.5135  0.2450
  839MOL0     H13207   3.666   6.278   4.407  2.1280  2.2853 -3.6693
  839MOL0     H13208   3.803   6.070   4.421  0.4717  1.2708 -0.4540
  839MOL0     H13209   3.739   6.004   4.275  0.3251 -1.3633  0.8505
  839MOL0     H13210   3.943   6.106   4.204  2.3380  1.9886  2.2522
  839MOL0     H13211   3.820   6.226   4.161 -0.3977  1.3411  1.5966
  839MOL0     H13212   4.001   6.235   4.399 -2.1475  0.0390  0.9105
  839MOL0     H13213   3.882   6.358   4.350  1.8154 -0.4633  2.1122
  839MOL0     H13214   3.995   6.367   4.136 -0.2561  1.7428  0.7722
  839MOL0     H13215   4.067   6.443   4.279  1.8154 -1.0595  2.7140
  839MOL0     H13216   4.294   6.266   4.397 -0.8745 -1.3866  0.0931
  839MOL0     H13217   4.497   6.093   4.343  0.2384  2.2750  0.4573
  839MOL0     H13218   4.564   6.117   4.181 -3.0849 -1.3777 -1.2122
  839MOL0     H13219   4.560   6.379   4.251  0.5870  1.0108  1.0485
  839MOL0     H13220   4.547   6.315   4.417 -3.5081  0.2228 -0.9707
  839MOL0     H13221   4.751   6.165   4.347 -1.7230 -0.0990 -0.5239
  839MOL0     H13222   4.765   6.335   4.397 -0.7093 -3.1413  3.2064
  839MOL0     H13223   4.761   6.297   4.098 -1.4266 -0.1881 -0.1405
  839MOL0     H13224   4.907   6.263   4.192  0.5013  1.1712 -1.6674
  839MOL0     H13225   4.947   6.405   3.968  2.2975 -1.8770  0.3475
  839MOL0     H13226   5.161   6.473   3.906 -2.7954  2.4598 -1.2824
  839MOL0     H13227   5.353   6.989   3.967  1.0581  1.1752 -3.2943
  839MOL0     H13228   5.535   7.117   3.901 -1.4822 -1.6820 -1.1600
  839MOL0     H13229   5.719   7.204   3.815  1.1711  0.3083 -0.3686
  839MOL0     H13230   5.742   7.281   3.973 -1.2440  2.2944 -0.7149
  839MOL0     H13231   5.951   7.160   3.792  1.7131  0.6078 -0.5990
  839MOL0     H13232   5.908   7.334   3.798  0.5869 -0.7919 -1.2225
  839MOL0     H13233   5.969   7.353   4.022 -0.3631  0.3448 -0.2523
  839MOL0     H13234   6.015   7.184   4.042 -1.5103 -1.3270 -1.5719
  839MOL0     H13235   6.163   7.383   3.884 -2.6324 -0.7925 -1.8759
  839MOL0     H13236   6.182   7.207   3.858 -1.2609 -0.3016  0.3281
  839MOL0     H13237   6.367   7.276   3.995 -1.8811 -0.3038 -2.3854
  839MOL0     H13238   6.270   7.174   4.091  2.4489 -0.7324 -0.9290
  839MOL0     H13239   6.161   7.335   4.203 -0.4123  2.0293  0.4373
  839MOL0     H13240   6.343   7.351   4.236  0.0618 -0.5278  0.2284
  839MOL0     H13241   6.132   7.533   4.161  0.2584  2.7328  4.4262
  839MOL0     H13242   6.269   7.546   4.040  0.9989 -2.6437 -0.7399
  839MOL0     H13243   6.287   7.584   4.344  0.9161 -2.1615 -0.2798
  839MOL0     H13244   6.417   7.575   4.232  0.6089  2.3629  0.0058
  839MOL0     H13245   5.810   6.859   4.111 -0.5306 -2.2194  1.0276
  839MOL0     H13246   5.625   6.684   4.126  0.9893 -0.4000 -0.5301
  839MOL0     H13247   5.222   6.690   4.265 -1.9954  1.8179 -1.5698
  839MOL0     H13248   4.990   6.623   4.342 -0.1268  1.6010 -0.9298
  839MOL0     H13249   3.366   6.273   4.908  4.1270 -4.7288 -0.0094
  839MOL0     H13250   3.190   6.155   5.041  0.4140 -0.5124  0.5386
  839MOL0     H13251   2.868   6.048   5.190  2.0925 -2.2563 -2.3785
  839MOL0     H13252   2.680   6.001   5.340  0.5976  1.8484  0.0737
  839MOL0     H13253   2.435   5.605   5.280  1.5022 -0.7192 -3.1514
  839MOL0     H13254   2.385   5.725   5.167  5.4147  2.2830  0.3550
  839MOL0     H13255   2.288   5.725   5.455  0.4807 -0.4856 -0.0434
  839MOL0     H13256   2.192   5.691   5.312 -0.3798  1.9565 -1.5072
  839MOL0     H13257   2.325   5.960   5.369  1.6623 -2.7941  1.5539
  839MOL0     H13258   2.177   5.944   5.430 -1.5510 -0.2321 -1.6343
  839MOL0     H13259   2.178   6.051   5.225  1.6333  0.4704  0.3638
  839MOL0     H13260   2.267   5.925   5.142  1.0446  1.4526  0.5835
  839MOL0     H13261   1.871   5.784   5.102  0.9997 -0.9099 -1.3713
  839MOL0     H13262   2.567   5.686   5.059  0.9100  1.1056 -1.5318
  839MOL0     H13263   2.749   5.825   4.786  0.8942 -1.6163 -1.7349
  839MOL0     H13264   2.821   5.679   4.842 -0.6136 -0.6021 -0.2742
  839MOL0     H13265   2.647   5.685   4.841 -0.1432 -1.4302  1.2880
  840MOL0     O13266   2.847   2.698   2.827 -0.0418  0.8711  0.7228
  840MOL0     C13267   2.791   2.792   2.881  0.5990 -0.2973 -0.7326
  840MOL0     O13268   2.855   2.886   2.945 -0.7575 -0.1087 -0.4439
  840MOL0     C13269   2.960   2.848   3.018 -0.8064  0.4739 -0.5557
  840MOL0     C13270   2.942   2.837   3.160 -0.0375  0.8503  0.4418
  840MOL0     C13271   3.050   2.800   3.234 -0.7985  0.1947  0.3417
  840MOL0     C13272   3.175   2.771   3.177  0.9001  0.3710 -0.3177
  840MOL0     O13273   3.283   2.734   3.254  0.4302  0.0297  1.1494
  840MOL0     C13274   3.374   2.644   3.192 -0.5873 -1.0629 -0.5168
  840MOL0     C13275   3.420   2.539   3.277  0.6073  0.2080 -0.2068
  840MOL0     C13276   3.313   2.437   3.308 -0.2579  0.7381 -0.4327
  840MOL0     C13277   3.242   2.473   3.444  0.1164 -0.1133 -0.2990
  840MOL0     C13278   3.225   2.356   3.538  0.0005  0.6980  0.5960
  840MOL0     C13279   3.158   2.237   3.484  0.1254  0.1078  0.7433
  840MOL0     C13280   3.145   2.141   3.603 -0.0574  0.2378  0.0965
  840MOL0     C13281   2.995   2.123   3.653  0.3213  1.0741 -0.3548
  840MOL0     N13282   2.904   2.095   3.539  0.4730  0.2431  0.3895
  840MOL0     C13283   2.774   2.155   3.529 -0.6436  0.0486 -0.3674
  840MOL0     C13284   2.706   2.095   3.429 -0.1275  0.1205  0.9101
  840MOL0     C13285   2.570   2.125   3.392  0.7522  0.4525  1.5311
  840MOL0     C13286   2.533   2.072   3.247 -0.0212  0.0606  0.0857
  840MOL0     C13287   2.460   1.948   3.226  0.4460 -0.1436  0.1242
  840MOL0     C13288   2.475   1.906   3.077  0.1119  0.1758 -0.1661
  840MOL0     O13289   2.414   1.776   3.063  0.1105 -0.1463  0.1090
  840MOL0     C13290   2.283   1.764   3.026  0.2889  0.0650 -0.4316
  840MOL0     C13291   2.178   1.857   3.036 -1.2417 -0.3600 -0.9906
  840MOL0     C13292   2.043   1.822   3.031 -0.6314 -0.4000 -0.3479
  840MOL0     C13293   2.015   1.691   2.994  0.2709 -0.0948 -0.4789
  840MOL0     C13294   1.871   1.648   2.977  0.3270 -0.0451  0.7874
  840MOL0     O13295   1.770   1.713   3.053  0.4421 -0.0659  0.8017
  840MOL0     C13296   1.633   1.699   3.037  0.3908  1.0202  0.3010
  840MOL0     C13297   1.558   1.798   3.098  0.0215  0.6939 -0.4761
  840MOL0     C13298   1.421   1.795   3.082 -0.2739  0.1594  1.1196
  840MOL0     C13299   1.358   1.701   3.006  0.5025 -0.0563  0.5939
  840MOL0     O13300   1.218   1.696   2.994  0.3556 -0.1549 -0.5596
  840MOL0     C13301   1.125   1.745   3.097 -0.2540  0.5953  0.4092
  840MOL0     C13302   1.002   1.787   3.013 -0.4735  0.1525  0.3325
  840MOL0     C13303   0.909   1.877   3.097 -0.0411  0.5231  0.4093
  840MOL0     C13304   0.805   1.927   2.995  0.4168 -0.7804  0.4712
  840MOL0     C13305   0.716   2.032   3.066 -0.2967  0.2299  0.4568
  840MOL0     C13306   0.578   1.977   3.107  0.1129 -0.6771  0.3992
  840MOL0     C13307   0.484   1.926   3.002 -0.2037  0.5130  0.4385
  840MOL0     C13308   0.417   2.030   2.935  0.6250 -0.1456 -0.3153
  840MOL0    Cl13309   0.343   2.152   3.035  0.3345  0.3693 -0.2972
  840MOL0     C13310   1.435   1.599   2.952 -0.1328  0.2843 -0.1378
  840MOL0     C13311   1.573   1.602   2.960  0.5939  0.0901  0.3486
  840MOL0     O13312   1.857   1.559   2.886  0.2325 -0.2033 -0.5310
  840MOL0     C13313   2.119   1.600   2.986 -0.0843  0.8113  0.0877
  840MOL0     C13314   2.251   1.634   2.999  0.8170  0.0092 -1.2196
  840MOL0     N13315   2.803   2.004   3.365 -0.8355  0.4408  0.3462
  840MOL0     N13316   2.912   2.010   3.430  0.6207 -0.9697  0.1835
  840MOL0     C13317   3.189   2.791   3.037  0.7652 -0.0059 -0.5372
  840MOL0     C13318   3.079   2.820   2.958  0.0071  0.2765  0.4684
  840MOL0     C13319   2.656   2.835   2.833  0.0721  0.6036  0.1973
  840MOL0     C13320   2.586   2.923   2.920  0.9468  0.5130 -1.3083
  840MOL0     C13321   2.456   2.948   2.888 -1.2309  0.1217 -0.1920
  840MOL0     C13322   2.393   2.914   2.767 -0.6263  0.5798 -0.2313
  840MOL0     O13323   2.261   2.955   2.742  0.4743 -0.2612  0.5199
  840MOL0     C13324   2.261   3.096   2.708 -0.0040  0.1936 -0.2206
  840MOL0     C13325   2.130   3.119   2.642  0.0716 -0.6745  0.7820
  840MOL0     C13326   2.083   3.263   2.645 -0.2573 -0.4305 -0.4511
  840MOL0     C13327   1.968   3.293   2.538 -0.1477 -0.3007 -1.3697
  840MOL0     C13328   1.895   3.416   2.577 -0.4753 -0.0035 -0.6866
  840MOL0     C13329   1.837   3.524   2.598  0.7423  1.4570 -0.3452
  840MOL0     C13330   2.459   2.830   2.685  0.4354  0.2881 -0.0414
  840MOL0     C13331   2.593   2.779   2.714 -0.5154 -0.9339 -0.5128
  840MOL0     C13332   2.640   2.677   2.611  0.1287  0.4226  0.1817
  840MOL0     H13333   2.856   2.870   3.219 -1.2647 -0.2483 -0.6722
  840MOL0     H13334   3.048   2.797   3.342  0.8982 -2.0986  0.3783
  840MOL0     H13335   3.328   2.596   3.106 -0.4748  1.0055 -1.8021
  840MOL0     H13336   3.463   2.700   3.164 -1.9232  1.5655  0.1730
  840MOL0     H13337   3.462   2.576   3.370 -1.8705  1.2033  0.6125
  840MOL0     H13338   3.501   2.484   3.228  0.9120  0.3130  0.1832
  840MOL0     H13339   3.350   2.335   3.317  0.7037  1.1883  1.4099
  840MOL0     H13340   3.243   2.450   3.226  0.1074  3.0627 -0.4577
  840MOL0     H13341   3.288   2.561   3.490 -2.1234  0.0056  1.9601
  840MOL0     H13342   3.142   2.502   3.413  1.0072  1.2321 -2.0379
  840MOL0     H13343   3.321   2.315   3.572 -0.5386 -1.5414 -0.3822
  840MOL0     H13344   3.178   2.396   3.628  0.7408  0.9865  0.8616
  840MOL0     H13345   3.065   2.269   3.437  0.1010  2.1157  2.0063
  840MOL0     H13346   3.222   2.187   3.412  1.2786 -1.1586  2.5650
  840MOL0     H13347   3.209   2.178   3.683  1.9538 -1.3118 -0.6798
  840MOL0     H13348   3.183   2.043   3.571  0.3483 -0.4948  2.6306
  840MOL0     H13349   2.982   2.041   3.723 -1.3648  1.1549 -0.5124
  840MOL0     H13350   2.953   2.203   3.715  1.0563  0.0312  1.5381
  840MOL0     H13351   2.731   2.233   3.592  0.7261  0.4682  0.0884
  840MOL0     H13352   2.495   2.091   3.464 -0.5226  0.3386  0.2092
  840MOL0     H13353   2.562   2.234   3.391  0.6286  0.4425  1.3469
  840MOL0     H13354   2.466   2.147   3.204 -1.9840 -1.7759 -0.2863
  840MOL0     H13355   2.621   2.068   3.183  0.6460 -2.9793  1.0166
  840MOL0     H13356   2.356   1.974   3.246  1.0882  2.3406  0.5717
  840MOL0     H13357   2.487   1.866   3.294 -1.5176  0.5329  1.8243
  840MOL0     H13358   2.578   1.889   3.045  0.4590  0.7042  0.6208
  840MOL0     H13359   2.441   1.988   3.013 -1.2560  0.0443  0.3676
  840MOL0     H13360   2.196   1.962   3.058 -0.4651 -0.9425  1.4793
  840MOL0     H13361   1.961   1.888   3.054  0.2881  0.1722  1.5118
  840MOL0     H13362   1.612   1.882   3.141 -0.9951  0.4841  1.3157
  840MOL0     H13363   1.365   1.875   3.129 -0.2531 -0.3014  1.9611
  840MOL0     H13364   1.084   1.665   3.160 -4.0382  1.4687 -0.7298
  840MOL0     H13365   1.172   1.817   3.164  3.0252  0.3255 -1.4008
  840MOL0     H13366   1.037   1.839   2.923 -0.6845  1.4516  0.9828
  840MOL0     H13367   0.948   1.699   2.977  0.5464  0.9938 -3.7225
  840MOL0     H13368   0.867   1.818   3.178  2.4155  0.3346  1.6331
  840MOL0     H13369   0.968   1.961   3.133  0.1171  1.1916 -1.2941
  840MOL0     H13370   0.743   1.843   2.964 -1.2926  0.7558 -0.4596
  840MOL0     H13371   0.841   1.979   2.906 -2.5734 -0.2061 -0.5085
  840MOL0     H13372   0.703   2.121   3.002 -2.4706 -1.0853 -1.0593
  840MOL0     H13373   0.769   2.070   3.154 -0.5569 -1.3510  1.3152
  840MOL0     H13374   0.586   1.903   3.187 -1.9107  1.4018  2.7022
  840MOL0     H13375   0.533   2.064   3.157 -0.0535 -0.3081 -0.3728
  840MOL0     H13376   0.405   1.868   3.050 -0.5564  2.1129  1.8707
  840MOL0     H13377   0.541   1.855   2.941  0.7058 -2.5066  4.4048
  840MOL0     H13378   0.488   2.060   2.857  0.0566 -2.0144 -1.6487
  840MOL0     H13379   0.331   1.983   2.886  0.1996 -0.3186  0.5935
  840MOL0     H13380   1.393   1.515   2.897  1.9774 -0.0310 -1.3849
  840MOL0     H13381   1.629   1.522   2.913 -0.6936 -1.2149  0.9811
  840MOL0     H13382   2.098   1.495   2.967  1.4839  0.2109  1.4428
  840MOL0     H13383   2.325   1.555   2.987  4.2829  2.5260  1.5876
  840MOL0     H13384   3.284   2.773   2.988  0.1082  2.4918 -2.9741
  840MOL0     H13385   3.063   2.832   2.851 -4.1875  1.6886  1.0678
  840MOL0     H13386   2.617   2.972   3.012 -0.2483 -1.1359  0.0102
  840MOL0     H13387   2.405   2.994   2.972  1.7443 -3.8453  4.3639
  840MOL0     H13388   2.341   3.126   2.639 -1.1781  1.9580 -0.8609
  840MOL0     H13389   2.255   3.159   2.797  1.2205  2.5972 -1.7398
  840MOL0     H13390   2.059   3.055   2.696 -0.7384 -0.1673  0.3380
  840MOL0     H13391   2.134   3.087   2.537  2.5960 -1.5496  1.0669
  840MOL0     H13392   2.169   3.330   2.636 -0.0836 -0.7795 -1.5664
  840MOL0     H13393   2.047   3.273   2.747 -1.2391  2.5459 -0.9898
  840MOL0     H13394   2.014   3.314   2.440  0.6837  0.1536 -0.8961
  840MOL0     H13395   1.893   3.213   2.538  1.4872 -1.9030 -1.3859
  840MOL0     H13396   1.797   3.616   2.636 -0.8554  0.0367  1.6052
  840MOL0     H13397   2.404   2.785   2.603 -0.9004  0.3734  0.7934
  840MOL0     H13398   2.589   2.688   2.515 -2.4488  4.5035  1.7961
  840MOL0     H13399   2.747   2.689   2.593 -0.1330  2.5961 -0.0802
  840MOL0     H13400   2.633   2.580   2.661 -3.1061  1.6165  2.3486
  841MOL0     O13401   5.233  11.322   0.301 -0.3054  0.3879  0.0928
  841MOL0     C13402   5.146  11.382   0.371 -0.2246  0.2565 -1.1561
  841MOL0     O13403   5.165  11.410   0.498 -0.2092 -0.9825  0.0342
  841MOL0     C13404   5.279  11.407   0.561  0.3767  0.7543  0.4659
  841MOL0     C13405   5.384  11.492   0.529 -0.3030 -1.1708 -0.5166
  841MOL0     C13406   5.502  11.482   0.610  0.3418  0.6507  0.0123
  841MOL0     C13407   5.519  11.377   0.701 -0.0988 -0.1636 -0.7839
  841MOL0     O13408   5.642  11.360   0.752 -0.2945  0.4940 -0.1891
  841MOL0     C13409   5.653  11.339   0.895 -0.1029  0.5320 -0.6186
  841MOL0     C13410   5.787  11.267   0.910 -0.4314 -0.4920 -1.1597
  841MOL0     C13411   5.901  11.371   0.889 -0.0484  0.4938 -0.4260
  841MOL0     C13412   6.033  11.298   0.872  0.8148  0.6303 -0.7091
  841MOL0     C13413   6.143  11.393   0.847 -0.6711  0.3486 -0.3773
  841MOL0     C13414   6.133  11.437   0.703 -0.3141  0.1740 -0.0051
  841MOL0     C13415   6.251  11.534   0.687 -1.1026 -0.2537  0.2908
  841MOL0     C13416   6.389  11.460   0.661 -1.0371 -1.0277  0.6333
  841MOL0     N13417   6.490  11.561   0.650 -0.4188 -0.1996 -0.5912
  841MOL0     C13418   6.558  11.627   0.756 -0.5332  0.3413  0.1436
  841MOL0     C13419   6.662  11.686   0.698 -0.1014 -0.1778 -0.3580
  841MOL0     C13420   6.755  11.777   0.772  0.1648  0.0820  0.0295
  841MOL0     C13421   6.817  11.725   0.895 -0.3167 -0.0337 -0.3616
  841MOL0     C13422   6.925  11.830   0.944  0.1643 -0.0243  0.0999
  841MOL0     C13423   6.993  11.799   1.083  0.2562  0.7995  0.1454
  841MOL0     O13424   7.063  11.670   1.071  0.3098 -0.3676 -0.2934
  841MOL0     C13425   7.181  11.661   1.002 -0.3064  0.6667 -0.5044
  841MOL0     C13426   7.299  11.692   1.073  0.5183 -0.1699  0.7577
  841MOL0     C13427   7.426  11.682   1.004 -0.2033  0.9934 -0.6599
  841MOL0     C13428   7.430  11.622   0.874 -0.0744  0.6713 -0.7230
  841MOL0     C13429   7.559  11.592   0.813  0.1061 -1.2213 -0.2180
  841MOL0     O13430   7.576  11.596   0.681  0.0155  0.3310  0.7900
  841MOL0     C13431   7.702  11.577   0.628 -0.2081  0.6784  0.3496
  841MOL0     C13432   7.784  11.680   0.587 -0.0871  0.3561  0.3860
  841MOL0     C13433   7.911  11.644   0.545 -0.2902 -0.4731 -0.7225
  841MOL0     C13434   7.964  11.515   0.535 -0.2248  0.4771 -0.1734
  841MOL0     O13435   8.093  11.483   0.498 -0.3894 -0.5284 -0.0807
  841MOL0     C13436   8.166  11.565   0.410  0.6771  0.1449 -0.7040
  841MOL0     C13437   8.258  11.495   0.317  0.3627 -0.8729  1.2143
  841MOL0     C13438   8.191  11.398   0.224  0.0255  0.0788  0.2539
  841MOL0     C13439   8.282  11.350   0.113 -0.3328 -0.3294  0.0151
  841MOL0     C13440   8.221  11.243   0.021  0.8633 -0.2131  1.0227
  841MOL0     C13441   8.325  11.213  -0.092 -0.4253 -0.0510  0.0805
  841MOL0     C13442   8.274  11.142  -0.216 -0.2104  0.7949  0.9047
  841MOL0     C13443   8.159  11.200  -0.293 -1.5531  0.0267  0.4652
  841MOL0    Cl13444   8.005  11.158  -0.218 -0.1795 -0.1246 -0.3189
  841MOL0     C13445   7.869  11.415   0.562 -0.2143  0.3588 -0.6497
  841MOL0     C13446   7.744  11.441   0.614 -0.0866 -0.1214  0.0837
  841MOL0     O13447   7.647  11.574   0.895  0.2400 -0.1199  0.2598
  841MOL0     C13448   7.313  11.602   0.807 -0.7479 -0.2397  0.8781
  841MOL0     C13449   7.189  11.630   0.864 -0.1142  0.5329 -0.4438
  841MOL0     N13450   6.675  11.648   0.568 -0.2456  0.1635  0.7285
  841MOL0     N13451   6.568  11.580   0.540  0.1116 -0.5230 -0.5170
  841MOL0     C13452   5.410  11.291   0.738 -0.8013 -0.5328  0.2188
  841MOL0     C13453   5.289  11.314   0.672  0.9761  0.0195  1.1109
  841MOL0     C13454   5.028  11.441   0.299  0.2433 -0.0183 -0.5351
  841MOL0     C13455   4.969  11.368   0.188  1.0229  0.4563 -0.6621
  841MOL0     C13456   4.847  11.409   0.136  0.6302  0.3283 -0.1275
  841MOL0     C13457   4.784  11.521   0.189  0.1534  0.3111 -0.0957
  841MOL0     O13458   4.668  11.564   0.130 -0.5083 -0.1036  0.1525
  841MOL0     C13459   4.541  11.516   0.185 -0.7550  0.3796  0.6803
  841MOL0     C13460   4.430  11.624   0.165  0.0928 -0.0477  0.2869
  841MOL0     C13461   4.385  11.657   0.023  0.9116 -0.2244 -0.9927
  841MOL0     C13462   4.262  11.743   0.017 -0.2994  0.7275 -0.1715
  841MOL0     C13463   4.239  11.784  -0.121  0.4563 -0.7324 -1.0202
  841MOL0     C13464   4.224  11.838  -0.232  0.0003 -0.4495 -0.0710
  841MOL0     C13465   4.845  11.591   0.293  0.4561 -0.4406 -0.2172
  841MOL0     C13466   4.964  11.557   0.351  0.0183 -0.2831 -0.6237
  841MOL0     C13467   5.031  11.655   0.449 -0.2838  0.0085  0.6552
  841MOL0     H13468   5.374  11.574   0.459 -0.4806  0.5023  1.3539
  841MOL0     H13469   5.579  11.558   0.594 -1.9908  3.2614  0.4528
  841MOL0     H13470   5.635  11.431   0.951 -2.4841  0.0459 -0.4970
  841MOL0     H13471   5.577  11.272   0.934  1.2200  0.6274  2.4131
  841MOL0     H13472   5.793  11.181   0.842  1.1888 -1.9023  0.6564
  841MOL0     H13473   5.786  11.223   1.010  3.1377 -1.1765 -1.3036
  841MOL0     H13474   5.898  11.439   0.974  0.0176 -3.4772  3.0631
  841MOL0     H13475   5.887  11.433   0.800 -1.5134 -0.9427 -1.2376
  841MOL0     H13476   6.064  11.235   0.956  0.1188 -2.0774 -2.3466
  841MOL0     H13477   6.023  11.216   0.800 -0.3032 -2.8257  3.0469
  841MOL0     H13478   6.126  11.476   0.916 -0.5588  0.7950 -0.8828
  841MOL0     H13479   6.240  11.348   0.870  1.5649  4.6521 -0.4511
  841MOL0     H13480   6.135  11.353   0.634 -0.3322 -0.5561  0.8642
  841MOL0     H13481   6.046  11.496   0.670  0.4341  1.5759  0.4281
  841MOL0     H13482   6.263  11.614   0.761  0.0436  2.1612 -2.3170
  841MOL0     H13483   6.239  11.589   0.593  0.0295 -0.2776  0.1097
  841MOL0     H13484   6.412  11.402   0.751  0.5292 -0.1036  0.8571
  841MOL0     H13485   6.385  11.388   0.578  1.4907 -0.1948 -0.3088
  841MOL0     H13486   6.521  11.630   0.858 -0.4826 -1.1541  0.2196
  841MOL0     H13487   6.834  11.807   0.703  0.7066 -1.2885  0.0116
  841MOL0     H13488   6.704  11.872   0.785  0.8314  0.9297 -2.8518
  841MOL0     H13489   6.740  11.707   0.970 -0.6682 -0.3151 -0.7840
  841MOL0     H13490   6.862  11.628   0.874  0.1476  0.3954 -1.4167
  841MOL0     H13491   6.867  11.922   0.950 -2.5456 -1.6574  0.6233
  841MOL0     H13492   7.004  11.848   0.870  2.6272  2.3554  3.0234
  841MOL0     H13493   6.931  11.801   1.174  1.5291  0.6238  1.0524
  841MOL0     H13494   7.072  11.872   1.101 -0.4890  1.2087  2.1098
  841MOL0     H13495   7.292  11.710   1.180 -3.1132  0.9558  0.4618
  841MOL0     H13496   7.521  11.703   1.053  1.3523 -0.0780 -2.9997
  841MOL0     H13497   7.751  11.783   0.597 -2.6893 -0.5768  2.3642
  841MOL0     H13498   7.978  11.724   0.515  1.6298 -2.7863 -3.0487
  841MOL0     H13499   8.093  11.627   0.357  0.2082  0.2146  0.0115
  841MOL0     H13500   8.224  11.632   0.473  1.5714 -2.2479  1.1491
  841MOL0     H13501   8.286  11.574   0.246 -2.7137  0.6152  1.4646
  841MOL0     H13502   8.342  11.449   0.369  0.1702 -2.8190 -0.0749
  841MOL0     H13503   8.159  11.311   0.282  0.0956 -0.3258 -0.3114
  841MOL0     H13504   8.109  11.456   0.181  0.3833  0.2481 -0.2040
  841MOL0     H13505   8.374  11.316   0.161  0.5534 -0.6814 -1.8543
  841MOL0     H13506   8.300  11.444   0.060 -2.4813  0.8111  1.1575
  841MOL0     H13507   8.124  11.279  -0.016  1.2595 -0.6450 -0.5387
  841MOL0     H13508   8.203  11.153   0.080 -0.0277  0.0678  1.1935
  841MOL0     H13509   8.371  11.305  -0.128  0.8972 -0.5384  0.4463
  841MOL0     H13510   8.408  11.157  -0.048 -1.1892 -0.5389  0.9349
  841MOL0     H13511   8.251  11.035  -0.209 -0.9316  0.7595 -1.3298
  841MOL0     H13512   8.354  11.146  -0.290 -2.4052  2.2130 -1.5470
  841MOL0     H13513   8.172  11.309  -0.302  2.7694 -0.3608 -0.0140
  841MOL0     H13514   8.150  11.153  -0.391 -4.0683  0.5125  0.3987
  841MOL0     H13515   7.896  11.310   0.555 -3.6013 -0.8511  1.6809
  841MOL0     H13516   7.688  11.358   0.657 -1.2193  1.2793  1.3903
  841MOL0     H13517   7.330  11.570   0.705  5.5137  1.5797  0.9380
  841MOL0     H13518   7.092  11.599   0.827  0.1550 -1.0713  0.1007
  841MOL0     H13519   5.427  11.198   0.792  0.1787 -0.9091 -0.6985
  841MOL0     H13520   5.203  11.252   0.696  0.5174 -0.2689 -1.0226
  841MOL0     H13521   5.010  11.280   0.138 -2.7320 -3.0924  1.8415
  841MOL0     H13522   4.794  11.353   0.060  1.8552 -1.1101  0.0173
  841MOL0     H13523   4.563  11.488   0.288  3.7104 -0.6448 -0.3495
  841MOL0     H13524   4.520  11.429   0.121  1.5212  1.4867 -1.7729
  841MOL0     H13525   4.463  11.702   0.235 -0.6641 -0.6180  1.3168
  841MOL0     H13526   4.335  11.595   0.212 -0.1035  1.3120  0.7791
  841MOL0     H13527   4.382  11.574  -0.049  1.1926 -0.8816 -0.2585
  841MOL0     H13528   4.470  11.717  -0.012  1.9539 -0.7866  0.4911
  841MOL0     H13529   4.181  11.684   0.061  3.0293 -2.1170  2.7170
  841MOL0     H13530   4.272  11.835   0.074 -0.4683  0.5293  0.1845
  841MOL0     H13531   4.200  11.871  -0.331  2.7715 -1.5961 -1.2505
  841MOL0     H13532   4.802  11.683   0.331  1.6569 -0.6521  1.7883
  841MOL0     H13533   4.979  11.746   0.479 -0.3885 -0.6504  2.5744
  841MOL0     H13534   5.045  11.606   0.545 -0.7049 -1.1625  0.1432
  841MOL0     H13535   5.131  11.674   0.408 -0.1296  0.2099  1.1203
  842MOL0     O13536   3.938   6.744   3.448  0.1232 -0.4392  0.2437
  842MOL0     C13537   3.974   6.666   3.364 -0.7869  0.3614  0.0457
  842MOL0     O13538   4.065   6.702   3.259  0.1223 -0.9536  1.2709
  842MOL0     C13539   4.086   6.831   3.218  0.8483  0.5603  0.4518
  842MOL0     C13540   4.096   6.934   3.306 -0.4805 -0.0590  0.2302
  842MOL0     C13541   4.114   7.069   3.262  0.6631  0.0868 -0.9048
  842MOL0     C13542   4.134   7.095   3.127  0.0677  1.3144 -0.6933
  842MOL0     O13543   4.152   7.229   3.109  0.3599 -1.1903 -0.1388
  842MOL0     C13544   4.195   7.274   2.982  0.1236 -0.6882  0.8513
  842MOL0     C13545   4.223   7.420   3.011  0.0673 -0.3018  0.2584
  842MOL0     C13546   4.346   7.442   3.104 -0.6607  0.1300 -0.0849
  842MOL0     C13547   4.397   7.586   3.120 -0.3450  0.3802  0.1072
  842MOL0     C13548   4.543   7.592   3.180 -0.4666 -0.4715  0.8158
  842MOL0     C13549   4.597   7.739   3.180  0.3537 -0.8055  0.6473
  842MOL0     C13550   4.747   7.756   3.186  0.3003 -0.0486  0.1579
  842MOL0     C13551   4.801   7.690   3.316  0.2460 -0.5445  0.0402
  842MOL0     N13552   4.740   7.745   3.431  0.8987 -0.8164  0.3902
  842MOL0     C13553   4.772   7.867   3.488  0.1449  0.1540  0.3919
  842MOL0     C13554   4.687   7.879   3.594  0.0813 -0.9752 -0.4841
  842MOL0     C13555   4.689   7.986   3.700  1.0431  0.2208  1.2484
  842MOL0     C13556   4.827   8.019   3.749 -0.2397 -0.5203 -0.3832
  842MOL0     C13557   4.868   8.160   3.695 -0.7941 -0.1500 -0.0525
  842MOL0     C13558   5.016   8.175   3.714 -0.1435  0.9670 -0.3522
  842MOL0     O13559   5.049   8.170   3.850  0.3838 -0.3832  0.2417
  842MOL0     C13560   5.175   8.213   3.884 -0.1416  0.5756 -1.2062
  842MOL0     C13561   5.207   8.212   4.022 -0.4054 -0.0414 -0.4095
  842MOL0     C13562   5.325   8.266   4.073 -0.1230 -0.0611  0.4765
  842MOL0     C13563   5.421   8.329   3.986 -0.0470 -0.8507  0.3734
  842MOL0     C13564   5.552   8.384   4.022  0.6444  0.4687  0.2189
  842MOL0     O13565   5.608   8.482   3.945  1.2205 -0.1272  0.2990
  842MOL0     C13566   5.743   8.506   3.951 -0.0759 -0.4066 -0.4446
  842MOL0     C13567   5.841   8.425   4.011  0.1219  0.1523  0.6515
  842MOL0     C13568   5.977   8.461   4.012  0.0709  0.2351 -0.2007
  842MOL0     C13569   6.010   8.580   3.949 -1.3722  0.1479 -0.2023
  842MOL0     O13570   6.137   8.637   3.957  0.8012  0.4308  0.6049
  842MOL0     C13571   6.245   8.578   4.034 -0.6157 -0.0308 -0.9888
  842MOL0     C13572   6.366   8.676   4.041 -0.8143 -0.2499 -0.5013
  842MOL0     C13573   6.414   8.697   3.909 -0.5283  0.0138  0.2243
  842MOL0     C13574   6.553   8.766   3.907 -0.4686  0.1915  0.0878
  842MOL0     C13575   6.584   8.813   3.758 -0.6262 -0.5512  0.3302
  842MOL0     C13576   6.686   8.929   3.730  0.0316 -0.8619  0.2530
  842MOL0     C13577   6.826   8.884   3.770  0.5971  0.7620  0.2641
  842MOL0     C13578   6.936   8.968   3.697 -0.0762 -0.0299  0.3497
  842MOL0    Cl13579   7.104   8.884   3.700  0.1373 -0.2894  0.1846
  842MOL0     C13580   5.918   8.663   3.891 -0.2843 -0.5552 -0.2241
  842MOL0     C13581   5.792   8.624   3.897 -0.2270  0.0775 -1.3923
  842MOL0     O13582   5.584   8.352   4.136  0.1443 -0.3111  0.1113
  842MOL0     C13583   5.383   8.337   3.853  0.2949 -0.0210 -0.6715
  842MOL0     C13584   5.266   8.279   3.805  0.4050 -0.9393  0.5718
  842MOL0     N13585   4.602   7.774   3.593 -0.3057  0.3897  0.0429
  842MOL0     N13586   4.640   7.690   3.499 -0.3066  0.2551 -0.1446
  842MOL0     C13587   4.135   6.990   3.028 -0.2887 -0.2460 -0.5014
  842MOL0     C13588   4.104   6.860   3.082  0.2184  0.2830  0.2881
  842MOL0     C13589   3.916   6.532   3.371 -0.1105  0.0778  0.7494
  842MOL0     C13590   3.790   6.521   3.430  0.3928  0.0982 -0.0034
  842MOL0     C13591   3.734   6.402   3.459 -0.3982  0.1380 -0.3479
  842MOL0     C13592   3.788   6.283   3.405 -0.0748  0.0434  0.1567
  842MOL0     O13593   3.703   6.169   3.409 -0.7097 -0.5161  0.3642
  842MOL0     C13594   3.752   6.054   3.331 -0.6088  0.8970  0.1226
  842MOL0     C13595   3.679   5.929   3.363  1.3518  0.7933  0.6260
  842MOL0     C13596   3.525   5.960   3.317 -0.2259  0.6126 -0.4234
  842MOL0     C13597   3.455   5.852   3.234  1.0654 -0.6747 -0.0815
  842MOL0     C13598   3.318   5.893   3.212  1.1725 -0.1448 -0.1702
  842MOL0     C13599   3.194   5.924   3.212 -0.3444  0.7614  0.2653
  842MOL0     C13600   3.924   6.292   3.351  0.1832  0.4115 -0.6119
  842MOL0     C13601   3.988   6.414   3.340 -0.1291  0.1018 -0.3750
  842MOL0     C13602   4.124   6.416   3.277  0.6710 -0.2368 -0.4036
  842MOL0     H13603   4.106   6.920   3.413  3.6478  0.1712  0.0319
  842MOL0     H13604   4.108   7.148   3.336  1.7885 -1.7984  1.3098
  842MOL0     H13605   4.286   7.221   2.953 -0.0380 -0.7462  0.4475
  842MOL0     H13606   4.114   7.248   2.913 -0.4179  0.3121  1.0896
  842MOL0     H13607   4.135   7.470   3.052  0.4350  0.9662 -0.4115
  842MOL0     H13608   4.244   7.462   2.912  0.7417  0.8079  0.8455
  842MOL0     H13609   4.420   7.381   3.052  0.1202 -1.1807  2.4101
  842MOL0     H13610   4.330   7.413   3.208 -2.9906 -1.7811 -0.8738
  842MOL0     H13611   4.394   7.640   3.025  0.7803 -1.0366 -0.7824
  842MOL0     H13612   4.322   7.647   3.172 -3.0623 -0.1849 -2.8168
  842MOL0     H13613   4.545   7.555   3.283  0.2032 -0.6208  0.7551
  842MOL0     H13614   4.607   7.528   3.119 -2.3424 -1.1127 -0.5682
  842MOL0     H13615   4.564   7.793   3.091  1.8245  0.2891  0.7299
  842MOL0     H13616   4.561   7.794   3.267  3.2212 -0.0179  1.4479
  842MOL0     H13617   4.770   7.862   3.176 -0.1790  0.5299  3.6555
  842MOL0     H13618   4.782   7.705   3.096 -4.9264  1.1395 -2.9755
  842MOL0     H13619   4.791   7.581   3.308  4.4178 -0.9728 -2.4037
  842MOL0     H13620   4.909   7.696   3.334 -0.0753  1.4803  1.6963
  842MOL0     H13621   4.848   7.941   3.464  0.5962  0.3211  2.1946
  842MOL0     H13622   4.634   8.068   3.654 -0.1522  0.2562  2.6726
  842MOL0     H13623   4.629   7.958   3.788 -0.6841 -1.7447 -0.4499
  842MOL0     H13624   4.839   8.015   3.858  0.0963  1.0795 -0.3459
  842MOL0     H13625   4.897   7.945   3.709  2.7112  2.1466 -0.5125
  842MOL0     H13626   4.815   8.232   3.759 -0.2312 -0.1689  0.4433
  842MOL0     H13627   4.831   8.176   3.594 -3.6575 -1.5427  0.6387
  842MOL0     H13628   5.042   8.267   3.662 -0.4592  0.5569 -1.2604
  842MOL0     H13629   5.066   8.093   3.661  1.3659  0.4409  1.7529
  842MOL0     H13630   5.136   8.155   4.083 -0.0016 -1.4648 -1.2096
  842MOL0     H13631   5.335   8.264   4.181 -3.3300  0.6602  0.8899
  842MOL0     H13632   5.801   8.332   4.052 -2.0694 -0.8332 -3.2080
  842MOL0     H13633   6.051   8.395   4.056 -1.4231 -0.5873  1.1495
  842MOL0     H13634   6.220   8.572   4.141  2.5448  5.3775  0.4895
  842MOL0     H13635   6.279   8.485   3.989 -0.4427 -0.2734 -0.3746
  842MOL0     H13636   6.336   8.773   4.082  0.5175  0.3651 -0.9054
  842MOL0     H13637   6.447   8.635   4.102 -2.5323  2.1241  3.8688
  842MOL0     H13638   6.422   8.604   3.851  0.5720  0.1883  0.0830
  842MOL0     H13639   6.344   8.759   3.853 -0.1532  0.0588 -0.2013
  842MOL0     H13640   6.628   8.701   3.951  1.8583  0.9426 -2.4834
  842MOL0     H13641   6.544   8.857   3.966  2.1154 -0.1518  1.1337
  842MOL0     H13642   6.491   8.859   3.723 -1.0513 -0.3514  1.6547
  842MOL0     H13643   6.608   8.730   3.692  0.7902 -1.2326  1.6321
  842MOL0     H13644   6.687   8.938   3.621 -0.6130  0.4986  0.3369
  842MOL0     H13645   6.660   9.027   3.770  1.0226  1.1354 -3.5327
  842MOL0     H13646   6.848   8.780   3.743 -4.9991 -1.1896  1.8641
  842MOL0     H13647   6.835   8.893   3.879  0.5512 -0.2533  0.3612
  842MOL0     H13648   6.918   8.984   3.590  1.7195  1.4983  0.2375
  842MOL0     H13649   6.946   9.063   3.751 -1.5013 -0.4782  1.4798
  842MOL0     H13650   5.943   8.765   3.864 -0.2684 -0.3964  0.3806
  842MOL0     H13651   5.706   8.681   3.862 -2.6827 -3.1766 -1.0254
  842MOL0     H13652   5.452   8.381   3.781 -0.7663  0.7683 -1.2517
  842MOL0     H13653   5.249   8.271   3.698  0.4350  1.2262  0.3525
  842MOL0     H13654   4.154   7.017   2.925 -2.5042 -0.1143 -0.9261
  842MOL0     H13655   4.113   6.778   3.013  3.1236  0.8289 -0.1022
  842MOL0     H13656   3.745   6.610   3.472  1.9861  0.6446  0.6515
  842MOL0     H13657   3.646   6.386   3.520 -2.8347 -0.0007 -3.6168
  842MOL0     H13658   3.856   6.033   3.355 -1.2270 -2.7176  0.2250
  842MOL0     H13659   3.747   6.077   3.224 -1.3432 -1.6176 -0.4715
  842MOL0     H13660   3.692   5.900   3.468  1.6453  0.6473  0.5485
  842MOL0     H13661   3.728   5.855   3.300  1.3213  2.7173 -1.7798
  842MOL0     H13662   3.517   6.049   3.253 -2.3040  1.6230  1.1029
  842MOL0     H13663   3.469   5.985   3.408  0.3351 -0.1490  0.1459
  842MOL0     H13664   3.509   5.821   3.144 -0.0526 -2.0767 -0.3259
  842MOL0     H13665   3.447   5.765   3.300  1.8248  0.6740  1.8668
  842MOL0     H13666   3.089   5.940   3.215 -0.6095  0.1092 -2.7120
  842MOL0     H13667   3.981   6.207   3.315  0.4455  0.9509 -1.4828
  842MOL0     H13668   4.176   6.505   3.313 -1.5920  0.8617  0.3097
  842MOL0     H13669   4.188   6.330   3.302  3.4538  1.4514 -1.2508
  842MOL0     H13670   4.109   6.423   3.169  0.8121 -3.0443 -0.6856
  843MOL0     O13671   1.597   0.445   6.649  0.0263 -0.0890  0.2124
  843MOL0     C13672   1.671   0.398   6.569 -0.7120  0.3567  0.3694
  843MOL0     O13673   1.715   0.468   6.462  0.6426  0.2317  0.2823
  843MOL0     C13674   1.662   0.585   6.419  0.2506  0.6488 -0.7250
  843MOL0     C13675   1.746   0.697   6.408 -0.0679 -0.5648  0.7290
  843MOL0     C13676   1.686   0.821   6.356 -0.7885 -0.1386  0.6007
  843MOL0     C13677   1.553   0.835   6.333 -0.5246 -0.1105  0.0636
  843MOL0     O13678   1.517   0.956   6.281  0.1659 -0.3466  0.1442
  843MOL0     C13679   1.409   1.021   6.350  0.1386  0.7506 -0.3684
  843MOL0     C13680   1.437   1.156   6.419 -0.8806  0.4065 -1.1091
  843MOL0     C13681   1.521   1.269   6.346  0.4056 -0.0319  0.7681
  843MOL0     C13682   1.450   1.326   6.224  0.3391 -0.5519  0.5851
  843MOL0     C13683   1.515   1.457   6.161  0.5394 -0.0632  0.1343
  843MOL0     C13684   1.419   1.518   6.054 -0.0551 -0.2444  0.1889
  843MOL0     C13685   1.459   1.660   6.006 -0.2418  0.2840 -0.7376
  843MOL0     C13686   1.409   1.764   6.111  0.9650  0.6737  0.5138
  843MOL0     N13687   1.463   1.900   6.086  0.2966 -0.6276  0.8946
  843MOL0     C13688   1.447   1.980   5.975 -0.1812 -0.5309  0.5914
  843MOL0     C13689   1.530   2.088   6.004 -0.3784 -0.0029  0.1012
  843MOL0     C13690   1.531   2.221   5.934 -0.1697  0.2432  0.1003
  843MOL0     C13691   1.601   2.208   5.792  0.9145 -0.1155 -0.2295
  843MOL0     C13692   1.575   2.333   5.701 -0.2307  0.3191  0.4267
  843MOL0     C13693   1.703   2.410   5.667  0.0870  0.0498  1.3810
  843MOL0     O13694   1.816   2.329   5.624 -0.4657 -0.1685  0.1631
  843MOL0     C13695   1.934   2.397   5.632 -0.3666 -0.2376  0.7683
  843MOL0     C13696   2.047   2.322   5.649 -0.2365  0.0495  0.9118
  843MOL0     C13697   2.170   2.383   5.665 -0.1248  0.8805 -1.4599
  843MOL0     C13698   2.184   2.528   5.664  0.3681  0.8141 -0.0230
  843MOL0     C13699   2.314   2.589   5.682  0.4390 -0.1896  0.3346
  843MOL0     O13700   2.429   2.503   5.685 -0.7748  0.0301 -0.0121
  843MOL0     C13701   2.549   2.565   5.722  0.5362  0.1899  0.5669
  843MOL0     C13702   2.563   2.631   5.842 -0.9000 -0.1937  0.1461
  843MOL0     C13703   2.691   2.697   5.865  0.1006  0.0698 -0.1516
  843MOL0     C13704   2.807   2.652   5.809 -0.4719 -0.0543  0.2324
  843MOL0     O13705   2.927   2.693   5.857 -0.5639 -0.3994  0.7197
  843MOL0     C13706   3.031   2.736   5.764  1.0427  0.6992 -0.2793
  843MOL0     C13707   3.106   2.858   5.828 -0.0618  0.1517 -0.0020
  843MOL0     C13708   3.030   2.996   5.830 -0.3600 -0.5468 -0.1135
  843MOL0     C13709   3.131   3.096   5.881  0.0544 -0.5710 -1.0459
  843MOL0     C13710   3.076   3.215   5.964 -0.2407 -0.5913  0.2009
  843MOL0     C13711   2.960   3.296   5.889 -0.1107  0.5199  0.1367
  843MOL0     C13712   2.853   3.373   5.981 -0.5403  1.6052  0.8017
  843MOL0     C13713   2.919   3.474   6.067  0.1523 -1.5477 -0.4172
  843MOL0    Cl13714   2.818   3.518   6.208 -0.3527  0.0676  0.0021
  843MOL0     C13715   2.790   2.557   5.705  0.4137 -0.4865  0.2304
  843MOL0     C13716   2.666   2.532   5.652  0.0911 -0.1380 -0.1992
  843MOL0     O13717   2.317   2.704   5.708  0.6319  0.0854  0.5217
  843MOL0     C13718   2.068   2.603   5.645 -0.7085  0.0335 -0.7130
  843MOL0     C13719   1.946   2.543   5.630  0.3394  0.6692 -0.8929
  843MOL0     N13720   1.615   2.050   6.102 -0.6449  0.7543 -0.0946
  843MOL0     N13721   1.561   1.947   6.161 -0.5051  0.0240 -0.8722
  843MOL0     C13722   1.472   0.719   6.344 -0.1124  0.3365 -1.1806
  843MOL0     C13723   1.525   0.598   6.390 -0.4131  0.2974 -0.1847
  843MOL0     C13724   1.718   0.266   6.589 -0.5958  0.2362 -0.0592
  843MOL0     C13725   1.700   0.166   6.490  0.7453 -0.2771  0.0431
  843MOL0     C13726   1.735   0.028   6.515 -0.2763 -0.8252  1.0055
  843MOL0     C13727   1.799  -0.009   6.632 -0.2710 -0.1142  0.7801
  843MOL0     O13728   1.849  -0.127   6.662  0.5265  0.9896 -0.4244
  843MOL0     C13729   1.812  -0.248   6.588 -0.1734  0.1700 -0.6078
  843MOL0     C13730   1.659  -0.269   6.609 -0.0991 -0.4930  0.5389
  843MOL0     C13731   1.630  -0.304   6.756 -0.5438 -0.0173 -1.2256
  843MOL0     C13732   1.486  -0.256   6.791 -0.4769  0.0681  0.4145
  843MOL0     C13733   1.495  -0.109   6.806  0.1662  0.8860  0.6337
  843MOL0     C13734   1.501   0.010   6.799 -0.0646  0.0665 -0.4473
  843MOL0     C13735   1.826   0.090   6.732 -0.1277  0.0877 -0.0780
  843MOL0     C13736   1.781   0.224   6.717 -0.7866  0.2066  1.0257
  843MOL0     C13737   1.836   0.328   6.819 -0.7505  0.4890 -0.3387
  843MOL0     H13738   1.851   0.688   6.431 -0.3229 -1.4249  1.6144
  843MOL0     H13739   1.744   0.913   6.344  0.4384 -0.7568  1.4850
  843MOL0     H13740   1.326   1.041   6.281  0.9532 -0.0911 -1.6424
  843MOL0     H13741   1.375   0.944   6.420  2.1970 -2.2394 -2.4309
  843MOL0     H13742   1.485   1.132   6.515 -3.5930  1.7580  0.7431
  843MOL0     H13743   1.343   1.203   6.451 -0.6072  1.4313 -1.7673
  843MOL0     H13744   1.620   1.237   6.311 -0.2029 -1.1301 -0.0180
  843MOL0     H13745   1.537   1.357   6.410 -1.5402 -0.0937  1.3887
  843MOL0     H13746   1.451   1.253   6.143  1.8438 -0.2068  0.2704
  843MOL0     H13747   1.346   1.339   6.256  0.1160  0.6843 -0.5481
  843MOL0     H13748   1.523   1.526   6.245 -4.0565 -1.7221  2.2905
  843MOL0     H13749   1.608   1.423   6.116 -0.6533 -1.2364 -1.5646
  843MOL0     H13750   1.422   1.462   5.960 -1.8435  0.3503 -0.2620
  843MOL0     H13751   1.318   1.510   6.095 -0.4207  2.1743 -0.0779
  843MOL0     H13752   1.403   1.681   5.914  1.2344  1.6674 -1.3619
  843MOL0     H13753   1.566   1.672   5.989  0.1080  0.3111  1.2542
  843MOL0     H13754   1.299   1.760   6.107  0.8498 -0.5942  2.9640
  843MOL0     H13755   1.427   1.723   6.211  0.5786 -2.6608 -0.6677
  843MOL0     H13756   1.382   1.979   5.889  0.3210  0.9743  0.1654
  843MOL0     H13757   1.429   2.259   5.922  0.7434  2.7961 -0.2899
  843MOL0     H13758   1.579   2.302   5.989  0.3314  3.4348 -4.4008
  843MOL0     H13759   1.708   2.202   5.814  0.3004 -0.6836  3.1186
  843MOL0     H13760   1.571   2.115   5.745  0.1379  0.0952 -0.1689
  843MOL0     H13761   1.495   2.394   5.743 -0.4403  0.9754 -0.8668
  843MOL0     H13762   1.534   2.288   5.610 -0.9096 -1.3170  1.4850
  843MOL0     H13763   1.726   2.466   5.759 -0.4812 -0.0760  1.6043
  843MOL0     H13764   1.679   2.482   5.589  0.4216 -0.9509  0.3302
  843MOL0     H13765   2.042   2.214   5.644 -0.5447  0.1113 -0.3400
  843MOL0     H13766   2.256   2.319   5.680 -0.4872  0.6486 -0.2681
  843MOL0     H13767   2.486   2.650   5.916 -2.2650 -2.9211 -0.4619
  843MOL0     H13768   2.699   2.770   5.945 -1.9257 -1.6820  1.7999
  843MOL0     H13769   3.109   2.661   5.748  2.0673  1.1272  2.2091
  843MOL0     H13770   2.977   2.771   5.676  1.5123  1.7663 -0.1648
  843MOL0     H13771   3.135   2.834   5.931 -2.7514  0.1260  0.8557
  843MOL0     H13772   3.180   2.881   5.752  0.6262  1.5705  1.0444
  843MOL0     H13773   2.992   3.018   5.730 -2.2347 -0.3539  0.5996
  843MOL0     H13774   2.942   3.006   5.895 -1.2505 -2.5119 -0.9334
  843MOL0     H13775   3.190   3.131   5.795 -0.3143 -1.4156 -1.6663
  843MOL0     H13776   3.194   3.035   5.946 -2.9765 -2.2682  0.4955
  843MOL0     H13777   3.159   3.277   5.999 -1.8198  3.0433 -1.9593
  843MOL0     H13778   3.025   3.166   6.048  1.1352 -0.3509  1.2245
  843MOL0     H13779   3.006   3.359   5.813 -0.4600 -1.0747 -1.4496
  843MOL0     H13780   2.908   3.222   5.827 -2.2898  3.5011 -1.8658
  843MOL0     H13781   2.805   3.306   6.053  3.6156  0.1292  2.4764
  843MOL0     H13782   2.788   3.423   5.909  1.1829 -0.5185 -2.4913
  843MOL0     H13783   3.012   3.435   6.109 -0.2760 -1.6017  0.5216
  843MOL0     H13784   2.939   3.563   6.007 -1.2836 -2.3032 -2.1195
  843MOL0     H13785   2.878   2.508   5.664 -0.0717 -0.8455 -0.3921
  843MOL0     H13786   2.653   2.459   5.573 -2.4283  0.1026 -0.0821
  843MOL0     H13787   2.064   2.712   5.643  0.1163  0.1572  1.4102
  843MOL0     H13788   1.862   2.604   5.600 -0.1739  0.4478  0.0597
  843MOL0     H13789   1.365   0.726   6.329 -1.4533 -1.8744  4.6700
  843MOL0     H13790   1.460   0.511   6.397 -0.0900  0.1086  0.5189
  843MOL0     H13791   1.661   0.186   6.391  1.8321 -0.7857 -0.5112
  843MOL0     H13792   1.712  -0.038   6.432 -0.6850 -0.4925  0.8476
  843MOL0     H13793   1.864  -0.337   6.624  0.4318  1.6356  2.3936
  843MOL0     H13794   1.843  -0.235   6.484 -0.0386 -1.7313 -0.8294
  843MOL0     H13795   1.626  -0.352   6.546  1.2907  0.5007 -1.5964
  843MOL0     H13796   1.609  -0.178   6.576  2.1174 -0.3655 -2.9738
  843MOL0     H13797   1.704  -0.251   6.817 -0.1111  1.7950 -3.2391
  843MOL0     H13798   1.642  -0.411   6.775  1.2413  0.0116 -2.0196
  843MOL0     H13799   1.412  -0.279   6.714  1.0077  2.2583 -1.7863
  843MOL0     H13800   1.447  -0.292   6.887 -1.8854 -1.4240 -0.6537
  843MOL0     H13801   1.504   0.115   6.777 -1.8270  0.5732  1.4442
  843MOL0     H13802   1.871   0.045   6.819 -2.9162 -3.3670 -0.1860
  843MOL0     H13803   1.945   0.334   6.826 -0.6615 -1.8104  2.0281
  843MOL0     H13804   1.796   0.429   6.803  0.8882  1.0973 -0.7992
  843MOL0     H13805   1.799   0.301   6.919  0.9250  0.7870  0.4025
  844MOL0     O13806   3.346   3.450   5.771  0.4726 -0.2524  0.1099
  844MOL0     C13807   3.395   3.563   5.756  0.2130 -0.1127 -0.1621
  844MOL0     O13808   3.496   3.591   5.670  0.3573 -0.1015  0.1634
  844MOL0     C13809   3.568   3.486   5.620  0.3518  0.7358  0.3732
  844MOL0     C13810   3.509   3.366   5.559 -0.3429 -1.0513  0.1967
  844MOL0     C13811   3.586   3.260   5.524 -0.1688  0.0910  0.0636
  844MOL0     C13812   3.722   3.259   5.543  1.4875 -0.3787 -0.0469
  844MOL0     O13813   3.792   3.146   5.517  0.4334 -0.1491 -1.0179
  844MOL0     C13814   3.729   3.030   5.458  0.2432  0.0818  0.0308
  844MOL0     C13815   3.850   2.939   5.418  0.1911 -0.1929  0.2121
  844MOL0     C13816   3.920   2.995   5.301  0.7952  0.4033  0.1307
  844MOL0     C13817   4.034   2.901   5.265  1.1240  0.1414 -0.1093
  844MOL0     C13818   4.106   2.940   5.139 -0.6724  0.4683  0.6221
  844MOL0     C13819   4.180   3.078   5.154 -0.1319  0.1015 -0.2824
  844MOL0     C13820   4.314   3.066   5.077 -0.1345 -0.8486  0.1231
  844MOL0     C13821   4.402   3.180   5.127 -0.3924 -0.1706 -0.3129
  844MOL0     N13822   4.520   3.212   5.045  0.2909 -0.0784  0.1631
  844MOL0     C13823   4.513   3.249   4.916  0.7621 -0.2457  0.5974
  844MOL0     C13824   4.637   3.279   4.874 -0.8302  0.5436 -0.0325
  844MOL0     C13825   4.678   3.338   4.746  0.0010 -0.5158  0.7331
  844MOL0     C13826   4.640   3.490   4.740  0.4785 -0.0430  0.2254
  844MOL0     C13827   4.754   3.571   4.802 -0.3353 -0.4719 -0.2390
  844MOL0     C13828   4.711   3.702   4.866  0.5045 -0.5223 -0.5146
  844MOL0     O13829   4.609   3.663   4.964  0.1829 -0.6088 -0.6190
  844MOL0     C13830   4.499   3.739   4.995  0.5795 -0.2658 -0.1272
  844MOL0     C13831   4.471   3.864   4.934  0.3694  0.9502 -0.2910
  844MOL0     C13832   4.346   3.930   4.967  0.4422 -0.0647 -0.7188
  844MOL0     C13833   4.251   3.863   5.051 -0.5183 -0.1382  0.2138
  844MOL0     C13834   4.114   3.916   5.073  0.0352  0.2824 -0.7576
  844MOL0     O13835   4.076   4.028   5.005  0.4641  0.8045 -0.0302
  844MOL0     C13836   3.954   4.092   5.032 -1.2406 -0.2496  0.5418
  844MOL0     C13837   3.836   4.044   4.975 -0.9450  0.2523 -0.1645
  844MOL0     C13838   3.712   4.084   5.034 -0.2997 -0.0254  0.6156
  844MOL0     C13839   3.711   4.183   5.130 -0.5933 -0.0919  0.4426
  844MOL0     O13840   3.600   4.230   5.196  0.5664  0.0790  0.3582
  844MOL0     C13841   3.488   4.141   5.208 -0.1188  0.6331  0.5494
  844MOL0     C13842   3.422   4.190   5.332  0.4772  1.0102  0.4300
  844MOL0     C13843   3.302   4.094   5.364 -1.2537  0.2109 -1.0230
  844MOL0     C13844   3.252   4.135   5.507  0.3272 -0.9603  0.5521
  844MOL0     C13845   3.118   4.065   5.541 -0.1695  0.6456  0.5622
  844MOL0     C13846   3.118   3.914   5.536  0.4300  0.6386 -0.7284
  844MOL0     C13847   3.000   3.848   5.609 -0.3987  0.6886 -0.2244
  844MOL0     C13848   2.996   3.706   5.573 -0.2331  0.5961 -0.0534
  844MOL0    Cl13849   2.879   3.612   5.688 -0.1466 -0.3045  0.3051
  844MOL0     C13850   3.824   4.251   5.164 -0.3498 -0.3543  0.6381
  844MOL0     C13851   3.950   4.197   5.125  0.0381  0.2664 -0.5800
  844MOL0     O13852   4.041   3.847   5.147 -0.3141 -0.7474  0.0924
  844MOL0     C13853   4.285   3.747   5.116 -0.6054  0.2513 -0.0320
  844MOL0     C13854   4.409   3.682   5.081  0.2680  0.2848  0.0343
  844MOL0     N13855   4.717   3.248   4.986  0.3112  0.1084  0.3797
  844MOL0     N13856   4.650   3.202   5.085 -0.2907 -0.5048 -0.2059
  844MOL0     C13857   3.790   3.373   5.606 -0.4254 -0.1953 -0.0687
  844MOL0     C13858   3.705   3.484   5.631  0.1077 -0.7424  1.2958
  844MOL0     C13859   3.337   3.680   5.826 -0.6090  0.3420 -0.8973
  844MOL0     C13860   3.221   3.657   5.915  0.4832 -0.1604 -0.6430
  844MOL0     C13861   3.166   3.767   5.988  0.2834 -0.1435 -1.6679
  844MOL0     C13862   3.187   3.897   5.951  0.2384 -0.0843 -0.5094
  844MOL0     O13863   3.105   4.004   6.001  1.3691  0.4585  0.2097
  844MOL0     C13864   3.007   3.988   6.102  0.5104  0.9506 -0.3639
  844MOL0     C13865   2.874   3.949   6.040 -0.0403 -0.4959  0.3996
  844MOL0     C13866   2.758   3.901   6.138  0.1248 -0.5796  0.7497
  844MOL0     C13867   2.689   4.025   6.188  0.0334 -0.4017 -0.2092
  844MOL0     C13868   2.570   3.992   6.270  0.9863  0.0143 -0.2988
  844MOL0     C13869   2.457   3.983   6.314 -0.7956 -0.4882  0.5973
  844MOL0     C13870   3.291   3.924   5.859  0.9904  0.2118  0.3759
  844MOL0     C13871   3.372   3.818   5.813 -0.8010 -0.3770 -0.8344
  844MOL0     C13872   3.490   3.863   5.731 -0.1924 -0.0687 -0.3424
  844MOL0     H13873   3.401   3.370   5.542 -0.4345  0.4467  0.9647
  844MOL0     H13874   3.534   3.169   5.494  0.6013 -0.5605  0.6510
  844MOL0     H13875   3.664   2.985   5.533 -2.3393  2.6378 -0.5126
  844MOL0     H13876   3.684   3.055   5.361  2.9565 -0.2330 -1.4413
  844MOL0     H13877   3.810   2.845   5.380 -1.9444  0.7467 -0.0115
  844MOL0     H13878   3.915   2.932   5.506 -1.0076  0.2905  1.1793
  844MOL0     H13879   3.959   3.090   5.338  0.1960  0.2373  1.2120
  844MOL0     H13880   3.848   3.010   5.220  1.1134 -2.5356 -0.8417
  844MOL0     H13881   4.099   2.901   5.353 -0.8669 -1.8433  1.4849
  844MOL0     H13882   3.985   2.804   5.251 -2.6251  1.6464  1.1750
  844MOL0     H13883   4.183   2.863   5.135 -1.9107 -0.7695 -0.1197
  844MOL0     H13884   4.045   2.929   5.049  2.8633  3.0652 -2.4063
  844MOL0     H13885   4.117   3.157   5.112 -0.7799  2.1315  3.9370
  844MOL0     H13886   4.202   3.107   5.257  0.6766  0.8107 -0.6381
  844MOL0     H13887   4.293   3.056   4.970 -0.0369 -0.4926  0.0696
  844MOL0     H13888   4.372   2.977   5.099  1.0969 -0.0356  0.2750
  844MOL0     H13889   4.339   3.269   5.140 -1.9547 -1.6393  3.3255
  844MOL0     H13890   4.423   3.158   5.232 -1.0447  0.6925  0.0162
  844MOL0     H13891   4.426   3.253   4.851  1.9243 -1.8736 -1.1454
  844MOL0     H13892   4.787   3.326   4.744  0.1516  0.0733  2.8307
  844MOL0     H13893   4.639   3.284   4.659 -0.5906 -3.1454  2.5035
  844MOL0     H13894   4.625   3.537   4.642 -0.5685  0.4186  0.5918
  844MOL0     H13895   4.551   3.502   4.802 -0.9616 -3.7495 -0.8745
  844MOL0     H13896   4.824   3.599   4.724  1.0941 -0.6024  0.9497
  844MOL0     H13897   4.811   3.519   4.880  1.3998  3.1357  1.1803
  844MOL0     H13898   4.665   3.762   4.787 -2.1001  1.1845  2.0787
  844MOL0     H13899   4.795   3.756   4.911 -1.0234  0.5432  1.2189
  844MOL0     H13900   4.550   3.906   4.872  0.1444 -0.1428 -1.3559
  844MOL0     H13901   4.330   4.028   4.925  1.2001  0.9634  1.2450
  844MOL0     H13902   3.832   3.962   4.904  0.0543 -0.2931  0.3946
  844MOL0     H13903   3.613   4.054   5.001 -0.3091  0.4777  0.1699
  844MOL0     H13904   3.428   4.158   5.118  1.8492 -1.7447 -1.3659
  844MOL0     H13905   3.516   4.036   5.219  0.0409  0.4346 -1.4271
  844MOL0     H13906   3.484   4.170   5.420 -3.4419 -0.4871  3.1667
  844MOL0     H13907   3.390   4.294   5.323 -2.0468  0.3400  0.7031
  844MOL0     H13908   3.222   4.098   5.290  0.3300  1.8752 -2.7623
  844MOL0     H13909   3.329   3.988   5.370 -0.9498  0.3469  1.0046
  844MOL0     H13910   3.235   4.243   5.507  1.8419 -0.7084  0.4178
  844MOL0     H13911   3.329   4.114   5.581  1.4912 -0.6654 -0.5457
  844MOL0     H13912   3.039   4.100   5.474  0.0664 -0.1554 -0.1634
  844MOL0     H13913   3.092   4.101   5.641  2.8872 -1.4913  2.3062
  844MOL0     H13914   3.117   3.888   5.430  2.3244 -2.0788 -0.1787
  844MOL0     H13915   3.211   3.881   5.585  0.8179  0.0445 -1.8330
  844MOL0     H13916   2.909   3.904   5.587  1.4300  2.9137 -2.7034
  844MOL0     H13917   3.011   3.857   5.718 -0.7232 -0.5048 -0.0722
  844MOL0     H13918   2.965   3.696   5.469 -0.9318  2.8114 -0.1095
  844MOL0     H13919   3.095   3.663   5.588 -0.9461 -1.5747 -1.2326
  844MOL0     H13920   3.814   4.338   5.228 -1.8602 -0.1965  0.2152
  844MOL0     H13921   4.047   4.236   5.156 -0.0398  0.6798 -0.8434
  844MOL0     H13922   4.210   3.686   5.166  1.4400 -0.8242  1.8438
  844MOL0     H13923   4.445   3.594   5.133  1.9743 -0.1407 -1.7442
  844MOL0     H13924   3.895   3.393   5.624 -0.8704 -0.6224  3.7042
  844MOL0     H13925   3.760   3.568   5.673  3.0442 -2.4066  1.0664
  844MOL0     H13926   3.179   3.558   5.927  2.0780 -0.6551  1.3390
  844MOL0     H13927   3.098   3.737   6.067 -2.5521  4.7970 -1.8335
  844MOL0     H13928   2.991   4.084   6.151  0.6845  1.3778 -1.1322
  844MOL0     H13929   3.042   3.915   6.176  0.4489  1.3078  0.0254
  844MOL0     H13930   2.892   3.871   5.965 -1.4629  0.2941 -0.8221
  844MOL0     H13931   2.850   4.036   5.978  2.6049 -0.7168 -1.0978
  844MOL0     H13932   2.784   3.840   6.224 -0.2487  0.5088  1.6576
  844MOL0     H13933   2.678   3.845   6.089 -2.2742  0.9232  2.6913
  844MOL0     H13934   2.756   4.086   6.249 -4.2051  2.7806  1.7380
  844MOL0     H13935   2.660   4.081   6.099 -1.9674 -0.8237  0.1306
  844MOL0     H13936   2.354   3.962   6.335 -1.4084 -1.0834 -2.5334
  844MOL0     H13937   3.303   4.027   5.827  1.3441 -0.6043 -2.3505
  844MOL0     H13938   3.488   3.824   5.629  0.7171  2.2688 -1.3230
  844MOL0     H13939   3.476   3.970   5.711 -4.5930 -0.2401  0.8989
  844MOL0     H13940   3.584   3.840   5.783  0.2307  2.4037  0.1275
  845MOL0     O13941   2.137   3.187   2.248  0.2346 -0.3335  0.6492
  845MOL0     C13942   2.094   3.188   2.131  0.0410  0.1867 -0.4469
  845MOL0     O13943   2.163   3.170   2.028 -0.5566 -0.7987  0.4704
  845MOL0     C13944   2.299   3.145   2.035 -0.3438  0.1254 -0.1637
  845MOL0     C13945   2.349   3.051   1.945 -0.3533  0.9070  1.2472
  845MOL0     C13946   2.485   3.035   1.935  0.0510 -0.1691  0.4384
  845MOL0     C13947   2.571   3.104   2.014  0.1298  0.3580 -0.5116
  845MOL0     O13948   2.704   3.072   2.011 -0.8254  0.0198  0.1850
  845MOL0     C13949   2.800   3.129   2.098 -0.2002 -0.3074  0.9025
  845MOL0     C13950   2.864   3.262   2.057 -0.2402  0.1363 -0.3929
  845MOL0     C13951   3.013   3.284   2.101  0.1908  0.5282 -0.3681
  845MOL0     C13952   3.009   3.335   2.251  0.0594 -0.5706 -0.4842
  845MOL0     C13953   3.149   3.347   2.304 -0.7068 -0.9818  0.1200
  845MOL0     C13954   3.136   3.368   2.459 -0.0693  0.4121  0.0528
  845MOL0     C13955   3.061   3.500   2.509 -0.8925  0.1566 -0.4741
  845MOL0     C13956   3.101   3.536   2.650  0.1817  0.1356  0.1884
  845MOL0     N13957   3.023   3.649   2.695  0.8849  1.0499  0.3775
  845MOL0     C13958   3.051   3.782   2.676 -0.0993  0.5791 -0.7571
  845MOL0     C13959   2.932   3.845   2.705 -0.7638  0.3198  0.1043
  845MOL0     C13960   2.912   3.987   2.691  0.0754 -0.0753  0.8331
  845MOL0     C13961   2.769   4.014   2.646  1.4526 -0.6255 -0.5511
  845MOL0     C13962   2.742   4.004   2.494  0.6321 -0.3718  0.0255
  845MOL0     C13963   2.766   3.867   2.436 -0.6246  0.1396  0.3051
  845MOL0     O13964   2.689   3.858   2.317  0.4642 -0.3325 -0.2397
  845MOL0     C13965   2.713   3.775   2.210 -0.9575  0.2090  0.0419
  845MOL0     C13966   2.612   3.782   2.116 -0.0423  0.0527 -1.3258
  845MOL0     C13967   2.616   3.697   2.008 -0.6686 -0.3221 -0.1450
  845MOL0     C13968   2.736   3.618   1.987 -0.1843 -0.3216  0.0384
  845MOL0     C13969   2.742   3.537   1.866  0.2941  0.1011  0.0526
  845MOL0     O13970   2.619   3.504   1.819  0.1489 -0.1013 -0.6143
  845MOL0     C13971   2.628   3.456   1.687  0.8003  0.5473  0.1409
  845MOL0     C13972   2.648   3.545   1.585  0.0083 -0.5943  0.2282
  845MOL0     C13973   2.657   3.497   1.451  0.5591  0.4858  0.0758
  845MOL0     C13974   2.640   3.363   1.424 -1.0165 -0.3396  0.4022
  845MOL0     O13975   2.653   3.324   1.295 -0.0963  1.3595  0.2839
  845MOL0     C13976   2.525   3.312   1.232 -0.2730 -0.6631  0.2820
  845MOL0     C13977   2.459   3.178   1.235 -0.2049 -1.1736  0.6900
  845MOL0     C13978   2.533   3.062   1.179  0.0209  0.2777  0.6667
  845MOL0     C13979   2.454   2.932   1.157 -0.5192 -0.3967  1.3638
  845MOL0     C13980   2.542   2.805   1.125  0.3643 -0.7585 -0.2339
  845MOL0     C13981   2.456   2.680   1.115  0.2453  0.5690  0.0963
  845MOL0     C13982   2.335   2.687   1.007 -0.5550  0.2274  0.1444
  845MOL0     C13983   2.242   2.567   1.007  0.0113 -0.6363  0.8855
  845MOL0    Cl13984   2.076   2.607   1.073  0.0473  0.1733  0.3032
  845MOL0     C13985   2.620   3.278   1.521 -0.3508  0.2795  0.1756
  845MOL0     C13986   2.620   3.315   1.657  1.4860 -0.8449  0.4876
  845MOL0     O13987   2.849   3.533   1.806  0.1149 -0.5780  0.5658
  845MOL0     C13988   2.837   3.623   2.079  0.0630  0.7820 -0.3166
  845MOL0     C13989   2.827   3.699   2.188  0.3198 -0.0285  0.1296
  845MOL0     N13990   2.834   3.750   2.743 -1.3476  0.4963 -0.4373
  845MOL0     N13991   2.888   3.636   2.714  0.1877  0.3148  0.1248
  845MOL0     C13992   2.518   3.207   2.104 -0.3480  1.4532  0.5923
  845MOL0     C13993   2.384   3.232   2.103 -0.0638  0.4940 -0.9702
  845MOL0     C13994   1.943   3.174   2.108 -0.1998  1.0775 -0.6950
  845MOL0     C13995   1.867   3.162   2.217 -0.5513 -0.2626  0.1289
  845MOL0     C13996   1.731   3.141   2.207  0.0518 -0.0462  0.0896
  845MOL0     C13997   1.662   3.129   2.082  0.3369 -0.1522 -0.1700
  845MOL0     O13998   1.532   3.101   2.077  0.9863 -0.1067  0.4289
  845MOL0     C13999   1.473   3.085   1.944  0.2914  0.2901 -0.4293
  845MOL0     C14000   1.327   3.034   1.951 -0.5202  0.2755 -0.2444
  845MOL0     C14001   1.227   3.121   2.030 -0.8765  0.0890  0.3142
  845MOL0     C14002   1.086   3.050   2.014 -0.4630 -1.7003 -0.4353
  845MOL0     C14003   0.981   3.152   2.034  0.3723  0.1682 -0.2913
  845MOL0     C14004   0.883   3.229   2.043 -0.9260  0.7193  0.5189
  845MOL0     C14005   1.745   3.149   1.965  0.4509  0.7679 -0.5049
  845MOL0     C14006   1.882   3.161   1.977 -0.2872 -0.8901  0.1470
  845MOL0     C14007   1.965   3.179   1.852  0.0101 -0.3957 -0.4867
  845MOL0     H14008   2.274   2.987   1.899 -0.8156  1.7413  0.8027
  845MOL0     H14009   2.528   2.973   1.857  2.5565  1.8252  0.1387
  845MOL0     H14010   2.762   3.146   2.199 -1.0157 -2.3515  0.9785
  845MOL0     H14011   2.871   3.048   2.118  0.3592  0.4483  2.1160
  845MOL0     H14012   2.803   3.348   2.088 -2.4024 -1.5963  0.3775
  845MOL0     H14013   2.864   3.266   1.948 -1.9361 -1.5324 -0.4916
  845MOL0     H14014   3.058   3.365   2.043  0.0752  0.0690 -1.1004
  845MOL0     H14015   3.067   3.189   2.090 -0.9475 -0.0071 -1.4323
  845MOL0     H14016   2.961   3.432   2.241  0.7096  0.1941  2.6720
  845MOL0     H14017   2.944   3.272   2.312  0.2393  0.4910  0.8344
  845MOL0     H14018   3.213   3.262   2.277 -0.9363 -3.0696  4.9952
  845MOL0     H14019   3.197   3.433   2.257 -0.6123 -0.2603  1.4997
  845MOL0     H14020   3.077   3.293   2.512  0.9675  0.0623  0.7432
  845MOL0     H14021   3.241   3.374   2.489  0.3321  1.5707 -1.4710
  845MOL0     H14022   2.955   3.474   2.515 -0.9723  0.6648  0.8244
  845MOL0     H14023   3.064   3.588   2.445 -2.0171  1.0333  0.6269
  845MOL0     H14024   3.079   3.447   2.710 -3.8951 -0.8438 -2.3857
  845MOL0     H14025   3.208   3.556   2.654 -0.0684  1.9102 -0.9339
  845MOL0     H14026   3.148   3.818   2.644  0.8850 -1.4400 -0.2007
  845MOL0     H14027   2.916   4.027   2.793  2.2487 -1.6230  1.4100
  845MOL0     H14028   2.982   4.030   2.619 -1.2345 -1.8762 -1.6707
  845MOL0     H14029   2.690   3.968   2.706 -0.4033  2.0242 -0.7583
  845MOL0     H14030   2.740   4.118   2.664 -3.2566 -1.4521 -2.0117
  845MOL0     H14031   2.808   4.075   2.445  1.8375 -0.4408  1.4789
  845MOL0     H14032   2.639   4.036   2.477  0.3733 -1.4503 -0.5653
  845MOL0     H14033   2.741   3.781   2.499 -2.3663  0.5492  0.2011
  845MOL0     H14034   2.871   3.866   2.404 -1.4857  0.4576 -2.8829
  845MOL0     H14035   2.535   3.855   2.139  0.6361 -0.1590  2.1031
  845MOL0     H14036   2.549   3.700   1.923 -1.1345 -0.1116  0.2259
  845MOL0     H14037   2.643   3.653   1.583  2.3858 -0.4113 -2.0051
  845MOL0     H14038   2.682   3.560   1.366  0.1348  0.2554 -0.2195
  845MOL0     H14039   2.461   3.388   1.278 -2.2400 -3.4493  2.4705
  845MOL0     H14040   2.552   3.342   1.130 -1.5066 -1.4571 -0.2981
  845MOL0     H14041   2.438   3.158   1.340 -0.3875  0.2068  0.9257
  845MOL0     H14042   2.368   3.195   1.177 -0.8230 -0.6379  1.7971
  845MOL0     H14043   2.580   3.097   1.086 -2.2236  1.6841 -0.0031
  845MOL0     H14044   2.616   3.045   1.249 -0.2490 -2.3138  0.4481
  845MOL0     H14045   2.398   2.954   1.066  4.0332 -1.5850 -2.0710
  845MOL0     H14046   2.383   2.917   1.240 -1.4470 -0.7595  0.5284
  845MOL0     H14047   2.622   2.788   1.197  0.4092 -2.9876 -0.7433
  845MOL0     H14048   2.574   2.832   1.025 -2.8526 -3.4196 -2.1972
  845MOL0     H14049   2.508   2.584   1.106 -0.7087 -0.0270  0.7742
  845MOL0     H14050   2.409   2.667   1.213 -0.2449 -2.3408 -0.4287
  845MOL0     H14051   2.389   2.685   0.912  2.0541  0.8286  1.5329
  845MOL0     H14052   2.278   2.778   1.028  1.6297  1.9017 -0.7743
  845MOL0     H14053   2.229   2.533   0.904 -2.9512  0.7479  0.6876
  845MOL0     H14054   2.290   2.494   1.072  0.3368 -2.3077 -1.1157
  845MOL0     H14055   2.617   3.172   1.496 -3.3230 -0.3367  2.6406
  845MOL0     H14056   2.620   3.247   1.742  0.0262 -1.4425  0.0325
  845MOL0     H14057   2.928   3.565   2.068 -1.1755 -1.3216  0.0695
  845MOL0     H14058   2.916   3.701   2.249  0.4617  0.8203 -0.0868
  845MOL0     H14059   2.587   3.255   2.173 -0.2788  2.3964 -0.1223
  845MOL0     H14060   2.342   3.317   2.157 -1.8349 -0.6166 -0.5224
  845MOL0     H14061   1.903   3.159   2.320  2.3492 -1.7611 -0.8402
  845MOL0     H14062   1.679   3.125   2.301  0.1408 -0.6860  0.0335
  845MOL0     H14063   1.531   3.014   1.884 -2.2333 -4.4656  2.1667
  845MOL0     H14064   1.467   3.184   1.899  1.2029  0.5393 -0.0229
  845MOL0     H14065   1.332   2.933   1.994  1.5560  0.5159  0.1685
  845MOL0     H14066   1.277   3.016   1.855  0.5340 -0.1183 -0.7297
  845MOL0     H14067   1.221   3.224   1.994 -0.9997 -0.3611 -1.0014
  845MOL0     H14068   1.258   3.134   2.134 -0.5755  1.1132  0.1126
  845MOL0     H14069   1.071   3.009   1.914  2.4873  3.0437 -3.2356
  845MOL0     H14070   1.094   2.971   2.090 -0.4613  0.5720  2.1057
  845MOL0     H14071   0.811   3.309   2.047 -0.0867  1.4657  3.7105
  845MOL0     H14072   1.710   3.171   1.865  1.5209 -0.2007 -1.1257
  845MOL0     H14073   2.047   3.108   1.845  2.1511  1.9938 -1.0817
  845MOL0     H14074   1.915   3.156   1.758  1.9291 -3.3729 -0.9043
  845MOL0     H14075   2.010   3.278   1.861  0.1921 -0.3923 -1.3763
  846MOL0     O14076   9.952   6.743   6.688  0.6900  0.0015 -0.3553
  846MOL0     C14077   9.834   6.728   6.704  0.0985  0.5664  0.2753
  846MOL0     O14078   9.765   6.687   6.822 -0.4625  0.4304  0.9197
  846MOL0     C14079   9.839   6.636   6.925 -0.6144  0.0198 -0.3697
  846MOL0     C14080   9.962   6.574   6.910  0.7309  0.2661  0.7451
  846MOL0     C14081  10.041   6.551   7.022 -0.6148 -0.6702  0.5304
  846MOL0     C14082   9.992   6.585   7.156 -0.6714  0.1141 -0.3228
  846MOL0     O14083  10.074   6.551   7.264 -0.2875  0.6762  0.1231
  846MOL0     C14084  10.026   6.585   7.392  0.6681 -0.1207 -0.2622
  846MOL0     C14085  10.131   6.560   7.502 -0.2771  0.7235  0.0266
  846MOL0     C14086  10.244   6.658   7.509  0.1763  0.4568 -0.3753
  846MOL0     C14087  10.364   6.618   7.591 -0.3416 -0.3882 -0.1666
  846MOL0     C14088  10.460   6.736   7.605  0.5127  0.0547  0.5428
  846MOL0     C14089  10.593   6.699   7.671  0.1585 -0.4663  0.3588
  846MOL0     C14090  10.696   6.825   7.692  0.6222  0.6885 -0.4498
  846MOL0     C14091  10.690   6.879   7.838 -0.2139 -0.0165 -0.0140
  846MOL0     N14092  10.562   6.928   7.897  0.1305 -0.4227  0.1270
  846MOL0     C14093  10.463   6.847   7.952  1.0372  0.9488 -0.1663
  846MOL0     C14094  10.379   6.933   8.014 -0.4378 -1.5943 -0.1372
  846MOL0     C14095  10.234   6.915   8.068 -0.6363  0.6449  0.1625
  846MOL0     C14096  10.130   6.965   7.973  0.0942 -0.5041 -0.8761
  846MOL0     C14097   9.998   6.932   8.033  0.2062  0.0572 -0.2518
  846MOL0     C14098   9.887   6.985   7.946  0.1736 -0.0160  0.3366
  846MOL0     O14099   9.768   6.985   8.020  0.4873 -0.8230 -0.1939
  846MOL0     C14100   9.655   7.041   7.946 -1.1399 -0.4808  1.0238
  846MOL0     C14101   9.555   7.096   8.021 -0.0561 -1.1765  0.1401
  846MOL0     C14102   9.432   7.139   7.961 -1.2621 -0.5860  0.0921
  846MOL0     C14103   9.413   7.115   7.825  1.3841  0.0612  0.0398
  846MOL0     C14104   9.287   7.168   7.762 -1.3811 -0.2094  0.0326
  846MOL0     O14105   9.198   7.237   7.838 -0.4815  0.5528 -0.0036
  846MOL0     C14106   9.066   7.240   7.803  0.0926  0.5903  0.7828
  846MOL0     C14107   8.994   7.363   7.781 -1.0108 -0.9250 -0.1165
  846MOL0     C14108   8.862   7.360   7.735  0.0466  0.0816  0.5412
  846MOL0     C14109   8.793   7.248   7.724 -0.0349  0.6986  0.6727
  846MOL0     O14110   8.663   7.252   7.678  0.7634  0.1128  0.0706
  846MOL0     C14111   8.570   7.169   7.744  0.4803 -0.2656  0.2878
  846MOL0     C14112   8.425   7.194   7.706  0.3637 -0.1937 -0.5582
  846MOL0     C14113   8.350   7.305   7.775 -0.6220 -0.5535  0.3292
  846MOL0     C14114   8.199   7.321   7.731 -0.7298  0.8535 -0.2346
  846MOL0     C14115   8.133   7.427   7.809 -0.1000 -0.5808 -0.0588
  846MOL0     C14116   7.991   7.461   7.750  0.6801 -0.3136 -0.0059
  846MOL0     C14117   7.908   7.568   7.836 -0.7576  0.5034 -0.4306
  846MOL0     C14118   7.774   7.581   7.772  0.4099 -0.0393  0.2740
  846MOL0    Cl14119   7.730   7.749   7.795  0.2538 -0.3515 -0.0209
  846MOL0     C14120   8.844   7.130   7.763 -0.5972  0.4292  0.3876
  846MOL0     C14121   8.982   7.126   7.790  0.3316  0.9483  0.2810
  846MOL0     O14122   9.266   7.130   7.649  0.1361 -0.2196  0.7716
  846MOL0     C14123   9.514   7.051   7.751  0.2433  0.3648 -0.1012
  846MOL0     C14124   9.634   7.022   7.801  0.1425 -0.4916  0.2851
  846MOL0     N14125  10.434   7.064   7.993 -0.6804  0.1785 -0.1968
  846MOL0     N14126  10.538   7.061   7.929 -0.5471  0.0787  0.2053
  846MOL0     C14127   9.860   6.636   7.159 -0.0745 -0.5288 -0.7254
  846MOL0     C14128   9.784   6.651   7.051  0.3230 -0.0873 -0.2141
  846MOL0     C14129   9.758   6.756   6.581  0.0776 -0.2868 -0.2225
  846MOL0     C14130   9.630   6.690   6.575 -0.2891 -0.1311 -0.5796
  846MOL0     C14131   9.552   6.721   6.464 -0.0361  0.7954 -0.2933
  846MOL0     C14132   9.582   6.802   6.361 -0.3682  0.8815 -0.0560
  846MOL0     O14133   9.492   6.813   6.260  0.3837 -0.1215 -0.5569
  846MOL0     C14134   9.507   6.913   6.150 -0.0269 -0.0895 -0.9324
  846MOL0     C14135   9.389   6.910   6.058 -0.0315  0.2694 -0.1200
  846MOL0     C14136   9.399   7.022   5.957  0.2866 -0.4046  0.2629
  846MOL0     C14137   9.270   7.029   5.862 -0.4534 -0.8958  0.7266
  846MOL0     C14138   9.162   7.121   5.911 -0.4169 -0.1553 -0.2114
  846MOL0     C14139   9.081   7.201   5.957 -0.0141 -0.3080  0.1940
  846MOL0     C14140   9.703   6.864   6.365 -0.4844  0.4559  0.7820
  846MOL0     C14141   9.792   6.846   6.473 -0.7807  0.2812 -1.2805
  846MOL0     C14142   9.916   6.929   6.467 -0.4740  0.0740  0.2949
  846MOL0     H14143   9.995   6.543   6.811 -0.2789 -2.4069  1.1760
  846MOL0     H14144  10.126   6.485   7.011 -2.2341 -2.4800 -2.1568
  846MOL0     H14145   9.999   6.691   7.388 -1.9569 -0.5690  2.1409
  846MOL0     H14146   9.937   6.528   7.418  1.6487 -1.6137 -0.0106
  846MOL0     H14147  10.174   6.461   7.486 -2.0916  0.0407 -0.9365
  846MOL0     H14148  10.081   6.556   7.600  0.4201 -1.8909  0.3412
  846MOL0     H14149  10.209   6.752   7.553 -0.3233 -0.5232  1.4231
  846MOL0     H14150  10.297   6.675   7.414 -1.2986 -0.2798 -1.3697
  846MOL0     H14151  10.332   6.594   7.693 -2.7437  5.7885  0.9193
  846MOL0     H14152  10.402   6.532   7.534 -1.2999 -2.3845  2.0072
  846MOL0     H14153  10.477   6.773   7.504 -0.9796  2.7392  1.1728
  846MOL0     H14154  10.416   6.814   7.669 -1.8775 -1.0956  0.3912
  846MOL0     H14155  10.588   6.648   7.768  0.5142 -0.6247  0.2961
  846MOL0     H14156  10.646   6.630   7.606  1.4250 -0.5609  1.4469
  846MOL0     H14157  10.653   6.896   7.620 -1.1346  1.6737  1.4881
  846MOL0     H14158  10.797   6.793   7.664  0.2980  0.7073 -1.7099
  846MOL0     H14159  10.729   6.810   7.915 -1.4365  3.5193  4.2007
  846MOL0     H14160  10.768   6.955   7.830  0.6232 -0.8513 -0.0222
  846MOL0     H14161  10.436   6.743   7.935 -0.6198  1.4757 -0.8958
  846MOL0     H14162  10.228   6.806   8.075 -0.0106  0.7486  3.9394
  846MOL0     H14163  10.225   6.957   8.168 -1.0571 -1.5972  1.1335
  846MOL0     H14164  10.136   7.073   7.987 -3.9587 -0.1585 -0.6113
  846MOL0     H14165  10.144   6.944   7.867 -1.3743 -0.2755 -1.1315
  846MOL0     H14166   9.986   6.966   8.137  1.3414  1.0662 -0.4365
  846MOL0     H14167   9.975   6.825   8.034 -0.8800  0.2479  1.8965
  846MOL0     H14168   9.875   6.912   7.865  1.8335 -1.2343  1.1385
  846MOL0     H14169   9.902   7.084   7.902 -0.3692  0.6990  1.7005
  846MOL0     H14170   9.564   7.112   8.128 -0.4041 -0.2880  0.0456
  846MOL0     H14171   9.361   7.192   8.023 -0.4726  0.2415  0.3130
  846MOL0     H14172   9.053   7.454   7.786 -0.6280 -1.1577 -0.3752
  846MOL0     H14173   8.818   7.458   7.722 -4.7450 -1.6101  1.7045
  846MOL0     H14174   8.585   7.072   7.695  0.9620 -0.5986  1.0676
  846MOL0     H14175   8.592   7.159   7.851 -1.1478  2.8813  1.0327
  846MOL0     H14176   8.432   7.215   7.599 -2.1380 -1.0884 -0.9559
  846MOL0     H14177   8.364   7.104   7.719 -0.1847  0.3896  1.1412
  846MOL0     H14178   8.337   7.287   7.882 -1.7664 -0.9252  0.1455
  846MOL0     H14179   8.405   7.399   7.764  0.0788 -1.0337 -0.3340
  846MOL0     H14180   8.147   7.226   7.751  0.4365  0.2967  0.2115
  846MOL0     H14181   8.195   7.342   7.624  0.8530  0.1143 -0.4654
  846MOL0     H14182   8.178   7.526   7.793 -1.8738  0.2612 -0.0244
  846MOL0     H14183   8.133   7.402   7.916 -0.0754 -1.3387 -0.2304
  846MOL0     H14184   7.981   7.493   7.646 -2.4493 -2.9129 -0.6635
  846MOL0     H14185   7.930   7.371   7.744 -0.8280  0.7624 -2.1470
  846MOL0     H14186   7.963   7.661   7.854  1.1443 -0.9443  1.8612
  846MOL0     H14187   7.896   7.534   7.939 -0.9107  0.6175 -0.4114
  846MOL0     H14188   7.769   7.552   7.667  5.1907  0.3261 -0.2522
  846MOL0     H14189   7.703   7.517   7.825 -3.1356  1.9702 -1.6685
  846MOL0     H14190   8.778   7.044   7.768 -1.5702  1.1049 -0.3645
  846MOL0     H14191   9.024   7.027   7.803 -2.5815 -0.5140 -0.5493
  846MOL0     H14192   9.492   7.012   7.652  1.5227 -2.7208  0.7176
  846MOL0     H14193   9.704   6.962   7.744  0.6216 -0.1172  0.4764
  846MOL0     H14194   9.813   6.642   7.257 -0.0993  2.7557 -0.8298
  846MOL0     H14195   9.681   6.685   7.050  0.0532 -0.6379  2.4404
  846MOL0     H14196   9.587   6.635   6.658 -2.0395  2.7144  0.5158
  846MOL0     H14197   9.450   6.684   6.464 -0.9738  3.2024 -0.4642
  846MOL0     H14198   9.598   6.893   6.093 -0.9019 -0.3645 -2.2755
  846MOL0     H14199   9.524   7.007   6.203 -0.5500 -1.7225  2.3872
  846MOL0     H14200   9.290   6.916   6.104 -0.4339  0.0660 -0.9438
  846MOL0     H14201   9.387   6.819   5.998 -2.2448 -0.6351  1.2005
  846MOL0     H14202   9.488   7.019   5.894 -0.9429 -0.2340 -1.5521
  846MOL0     H14203   9.397   7.119   6.006 -1.6063  0.5662 -1.5770
  846MOL0     H14204   9.302   7.059   5.762  3.3707  2.2861  2.6437
  846MOL0     H14205   9.224   6.930   5.857 -0.7273 -0.8703  2.4002
  846MOL0     H14206   9.025   7.273   6.014 -0.1130  1.0871 -1.5436
  846MOL0     H14207   9.737   6.922   6.280  1.0804 -0.9449  0.3905
  846MOL0     H14208   9.905   7.018   6.404 -1.5856  0.3695  0.8787
  846MOL0     H14209   9.931   6.975   6.565 -1.4953 -0.2533  0.6205
  846MOL0     H14210  10.006   6.871   6.443  0.0383  0.7460  0.5645
  847MOL0     O14211   8.631   2.560   7.209  0.3506 -0.5506 -0.1334
  847MOL0     C14212   8.662   2.637   7.297 -0.6328  0.4542 -1.1254
  847MOL0     O14213   8.739   2.610   7.410  0.0827  0.3027 -0.8615
  847MOL0     C14214   8.814   2.490   7.423 -0.5944  0.7015 -0.2480
  847MOL0     C14215   8.947   2.506   7.470  0.7402 -0.5314  0.0369
  847MOL0     C14216   9.035   2.401   7.478  0.5802 -0.2136  0.6783
  847MOL0     C14217   8.993   2.267   7.445 -0.4874 -0.5792 -0.3660
  847MOL0     O14218   9.055   2.144   7.436 -0.1832 -1.0772  0.4670
  847MOL0     C14219   9.200   2.162   7.410 -0.1160  0.3537  0.0604
  847MOL0     C14220   9.266   2.168   7.549 -0.6533  0.0424 -0.3212
  847MOL0     C14221   9.417   2.191   7.543 -0.2971  0.2613 -0.4008
  847MOL0     C14222   9.484   2.049   7.591  0.6932 -0.2236  0.3612
  847MOL0     C14223   9.637   2.055   7.549  0.1910  0.2079 -0.2764
  847MOL0     C14224   9.708   1.964   7.647  0.2029  0.2556  0.2298
  847MOL0     C14225   9.862   1.953   7.602 -0.1614 -1.1079  0.0389
  847MOL0     C14226   9.905   1.808   7.612 -0.1889 -0.1309  0.2574
  847MOL0     N14227  10.051   1.804   7.580  0.2640 -0.1824 -0.0374
  847MOL0     C14228  10.102   1.827   7.450 -0.6042 -0.7570  0.1139
  847MOL0     C14229  10.231   1.801   7.460 -0.4523  0.7801 -0.9404
  847MOL0     C14230  10.335   1.786   7.360  0.0631  0.3448 -0.0329
  847MOL0     C14231  10.393   1.921   7.339  0.3758 -0.2815 -0.5430
  847MOL0     C14232  10.505   1.911   7.242 -0.8426 -0.1769 -0.1555
  847MOL0     C14233  10.614   2.009   7.290  0.1791 -0.7171 -0.4437
  847MOL0     O14234  10.709   2.013   7.187  0.1693  0.0491  0.1582
  847MOL0     C14235  10.825   2.073   7.215 -0.3387  1.0063 -0.6394
  847MOL0     C14236  10.847   2.155   7.326 -0.3656  0.2697 -0.5712
  847MOL0     C14237  10.986   2.210   7.338  0.4118 -0.0853 -0.2512
  847MOL0     C14238  11.088   2.177   7.247  0.0750  0.2352  0.1773
  847MOL0     C14239  11.215   2.242   7.263 -0.4625  0.0531 -0.9518
  847MOL0     O14240  11.217   2.359   7.353 -0.9462  0.7003  0.1704
  847MOL0     C14241  11.322   2.449   7.350  0.3882 -0.2989  0.5678
  847MOL0     C14242  11.377   2.495   7.227 -0.4232  0.7660  0.4627
  847MOL0     C14243  11.492   2.574   7.225  0.0594  0.8054 -1.0367
  847MOL0     C14244  11.542   2.611   7.351  0.3686 -0.6358  0.1762
  847MOL0     O14245  11.642   2.695   7.360 -0.3243  0.6064  0.5925
  847MOL0     C14246  11.710   2.755   7.242  1.2168 -0.5310 -0.1173
  847MOL0     C14247  11.839   2.829   7.284  0.9588 -0.0260  0.4272
  847MOL0     C14248  11.883   2.933   7.181  0.4527  0.4587  0.5349
  847MOL0     C14249  12.022   2.984   7.212  0.1964  0.0806 -0.7336
  847MOL0     C14250  12.079   3.072   7.092 -0.4808 -0.1921 -0.1282
  847MOL0     C14251  11.998   3.189   7.046 -0.6850 -0.6720 -0.5859
  847MOL0     C14252  11.970   3.289   7.159 -0.2218  0.1610  0.3512
  847MOL0     C14253  11.910   3.411   7.102 -0.5150  0.0201 -0.3416
  847MOL0    Cl14254  12.017   3.481   6.980  0.1528  0.1154  0.0151
  847MOL0     C14255  11.492   2.564   7.476  0.2685  1.2660  0.1531
  847MOL0     C14256  11.378   2.484   7.471 -0.3922  0.0252 -0.2693
  847MOL0     O14257  11.309   2.206   7.204 -0.0873  0.3967 -0.4950
  847MOL0     C14258  11.060   2.093   7.136  0.6088  0.5914  0.0218
  847MOL0     C14259  10.926   2.051   7.123  0.4142  0.8222  0.8780
  847MOL0     N14260  10.260   1.781   7.596 -0.8416  0.2189  0.7077
  847MOL0     N14261  10.155   1.787   7.661  0.5634  0.4835 -0.5867
  847MOL0     C14262   8.852   2.248   7.408 -0.2311 -0.4542 -0.5044
  847MOL0     C14263   8.769   2.357   7.397  0.0103 -0.0869 -1.1078
  847MOL0     C14264   8.602   2.771   7.302 -0.2756  0.4598  0.6587
  847MOL0     C14265   8.562   2.822   7.425  0.1270 -0.5629 -1.0029
  847MOL0     C14266   8.531   2.955   7.438  1.0429 -0.0235  1.1411
  847MOL0     C14267   8.511   3.033   7.317  0.1541 -0.0618 -0.0520
  847MOL0     O14268   8.493   3.164   7.348  0.4850 -0.4204  0.5579
  847MOL0     C14269   8.376   3.193   7.434 -0.0445  0.0670 -0.3492
  847MOL0     C14270   8.293   3.288   7.350 -0.1919 -0.0384  0.8433
  847MOL0     C14271   8.158   3.329   7.401  1.2101 -0.5430 -0.3594
  847MOL0     C14272   8.075   3.212   7.453  0.4163 -0.1161  0.1015
  847MOL0     C14273   7.934   3.265   7.489 -0.0088 -0.3833  1.4861
  847MOL0     C14274   7.818   3.307   7.516  0.0435  0.1787  0.0377
  847MOL0     C14275   8.541   2.985   7.191  0.0702 -0.1362 -0.0826
  847MOL0     C14276   8.588   2.849   7.183 -0.2427 -1.9195 -0.4392
  847MOL0     C14277   8.613   2.806   7.038  0.3069 -0.0484 -0.1861
  847MOL0     H14278   8.983   2.603   7.500  2.9932 -0.7855 -1.5546
  847MOL0     H14279   9.138   2.410   7.512  0.6504 -1.3925  0.8089
  847MOL0     H14280   9.237   2.067   7.370 -0.5875  0.8498 -1.5993
  847MOL0     H14281   9.225   2.247   7.347 -0.7374  2.4250  2.4467
  847MOL0     H14282   9.247   2.073   7.601  1.8973 -0.3003  0.1203
  847MOL0     H14283   9.214   2.247   7.605 -1.5066 -0.3729 -0.4990
  847MOL0     H14284   9.452   2.269   7.612  1.1119 -0.3237 -0.4103
  847MOL0     H14285   9.448   2.218   7.442 -1.1563  1.8360 -0.2756
  847MOL0     H14286   9.463   2.035   7.698 -1.4956  1.0977  0.1780
  847MOL0     H14287   9.456   1.966   7.525  2.0492  0.7306 -1.4878
  847MOL0     H14288   9.655   2.022   7.446 -2.2271 -0.7710 -0.4668
  847MOL0     H14289   9.676   2.156   7.543 -1.7216  0.9679 -0.5685
  847MOL0     H14290   9.689   2.000   7.748 -1.6225 -0.8589  0.3273
  847MOL0     H14291   9.654   1.869   7.638  0.6020  0.2261 -2.8438
  847MOL0     H14292   9.931   2.003   7.670  1.4792 -2.4283 -0.5889
  847MOL0     H14293   9.868   1.994   7.501 -3.1684  0.5485  0.4042
  847MOL0     H14294   9.902   1.774   7.716  0.4603  0.2133  0.3968
  847MOL0     H14295   9.854   1.743   7.540  2.7211  0.7784 -2.9210
  847MOL0     H14296  10.045   1.864   7.366 -1.3770  1.4860  1.5361
  847MOL0     H14297  10.417   1.724   7.396  0.7388  1.0705 -0.2790
  847MOL0     H14298  10.292   1.741   7.270 -1.1950 -1.1827  1.2770
  847MOL0     H14299  10.319   1.990   7.298  1.2177  1.8203  1.3139
  847MOL0     H14300  10.421   1.957   7.438 -0.2384 -1.5559  0.1198
  847MOL0     H14301  10.465   1.929   7.141 -2.9764 -0.7411  0.5308
  847MOL0     H14302  10.556   1.815   7.235  2.3722  1.4401 -1.1202
  847MOL0     H14303  10.657   1.972   7.384 -0.5843 -0.7056 -0.0805
  847MOL0     H14304  10.570   2.108   7.305  0.9345 -0.4860  0.2930
  847MOL0     H14305  10.763   2.183   7.388 -0.0258 -0.2574  0.1345
  847MOL0     H14306  11.010   2.268   7.426 -0.2303  1.1038 -0.8351
  847MOL0     H14307  11.331   2.475   7.130 -1.3854  0.8298  0.9042
  847MOL0     H14308  11.536   2.613   7.133 -0.1649  1.1589 -0.9964
  847MOL0     H14309  11.754   2.671   7.188  3.6466 -0.8611  2.1436
  847MOL0     H14310  11.631   2.806   7.186  0.0841 -0.9592  1.0144
  847MOL0     H14311  11.829   2.885   7.378  1.0586  0.4037  0.1829
  847MOL0     H14312  11.919   2.756   7.301 -0.4823 -2.3859 -2.2080
  847MOL0     H14313  11.897   2.879   7.087  1.9574  2.3054 -0.3642
  847MOL0     H14314  11.818   3.016   7.152  2.7962  1.2367 -3.0565
  847MOL0     H14315  12.086   2.898   7.231 -0.4128  0.1785  2.3073
  847MOL0     H14316  12.029   3.041   7.305  3.5838 -3.4461  1.5075
  847MOL0     H14317  12.098   2.996   7.015 -0.1623 -0.2104 -0.0322
  847MOL0     H14318  12.178   3.103   7.125 -0.2174 -0.1992 -0.8946
  847MOL0     H14319  12.068   3.235   6.975  0.0734 -2.6710 -1.2117
  847MOL0     H14320  11.909   3.169   6.986 -2.0231 -0.2077  1.1661
  847MOL0     H14321  12.063   3.320   7.208  1.7005 -4.2681 -0.0297
  847MOL0     H14322  11.903   3.228   7.222 -1.3773 -2.6865 -3.2556
  847MOL0     H14323  11.823   3.378   7.044 -2.7088  3.4606  0.6941
  847MOL0     H14324  11.875   3.485   7.174  2.2246  1.4398 -0.3584
  847MOL0     H14325  11.545   2.566   7.570  1.0281  0.1890 -0.2388
  847MOL0     H14326  11.332   2.445   7.561 -0.7598  2.5958  0.7518
  847MOL0     H14327  11.124   2.058   7.055  2.3063 -0.7792  1.8647
  847MOL0     H14328  10.898   1.986   7.041 -0.0975 -2.0002  3.1394
  847MOL0     H14329   8.827   2.149   7.370 -1.6964 -0.1233 -0.4382
  847MOL0     H14330   8.678   2.331   7.344 -0.1734 -1.3061 -0.2423
  847MOL0     H14331   8.573   2.760   7.513 -1.2923  1.7914  0.9551
  847MOL0     H14332   8.525   3.000   7.536 -1.7371  3.7526 -0.5488
  847MOL0     H14333   8.405   3.232   7.531 -0.4918 -1.9314  0.6328
  847MOL0     H14334   8.323   3.100   7.459  0.8795  0.1103  1.9372
  847MOL0     H14335   8.269   3.237   7.257  2.0454  2.2824 -1.1871
  847MOL0     H14336   8.358   3.373   7.328 -0.3385  0.3629  1.8879
  847MOL0     H14337   8.104   3.385   7.324  1.1362 -0.0138  0.0721
  847MOL0     H14338   8.171   3.411   7.471  3.7240  0.9086 -2.3612
  847MOL0     H14339   8.078   3.127   7.384 -3.2238  0.5652 -1.1103
  847MOL0     H14340   8.118   3.185   7.550 -0.1499 -0.1180  0.3581
  847MOL0     H14341   7.719   3.335   7.547  0.4914  0.0423  1.6606
  847MOL0     H14342   8.527   3.052   7.106  0.9901 -1.8625 -1.6669
  847MOL0     H14343   8.720   2.795   7.018  0.4426  1.0928 -0.1630
  847MOL0     H14344   8.550   2.720   7.011 -3.8804  2.5023  0.4349
  847MOL0     H14345   8.589   2.882   6.963  2.6305  1.7010  0.7196
  848MOL0     O14346  11.167  10.208   9.277  0.2652 -0.0581  0.0448
  848MOL0     C14347  11.149  10.099   9.331 -0.0097 -0.0718  0.0912
  848MOL0     O14348  11.237  10.041   9.424 -0.4037 -0.3476 -0.0970
  848MOL0     C14349  11.360  10.103   9.447 -0.0456 -0.1600 -0.3648
  848MOL0     C14350  11.374  10.222   9.521 -0.3629  0.0507 -0.3278
  848MOL0     C14351  11.498  10.267   9.561  0.1019  0.0879  0.0777
  848MOL0     C14352  11.611  10.208   9.512 -0.5951  0.1992  0.6829
  848MOL0     O14353  11.727  10.256   9.564  0.1944 -0.1880  1.1953
  848MOL0     C14354  11.828  10.289   9.457  0.2419 -0.2625 -0.0379
  848MOL0     C14355  11.971  10.250   9.500 -0.0396 -0.4151 -0.6991
  848MOL0     C14356  11.977  10.094   9.524 -0.1314 -0.6432 -0.4087
  848MOL0     C14357  12.118  10.052   9.571  1.0741 -0.8257  0.5618
  848MOL0     C14358  12.114   9.907   9.625 -0.6225  0.2789  0.2915
  848MOL0     C14359  12.125   9.794   9.512 -0.6852 -1.2446 -0.1897
  848MOL0     C14360  12.074   9.660   9.563 -0.6121 -0.0601 -0.2199
  848MOL0     C14361  12.103   9.547   9.470 -0.0628  0.0148 -0.3287
  848MOL0     N14362  12.050   9.573   9.330  0.0925 -0.6035  0.7642
  848MOL0     C14363  11.946   9.503   9.273  0.3200 -0.1297  0.4959
  848MOL0     C14364  11.959   9.524   9.143 -0.4337 -0.3748  0.7148
  848MOL0     C14365  11.866   9.465   9.041 -0.8257  0.9704 -0.1460
  848MOL0     C14366  11.737   9.538   9.041  0.0703 -0.2435 -0.6784
  848MOL0     C14367  11.751   9.676   8.978  0.1700 -0.0108  0.0006
  848MOL0     C14368  11.806   9.669   8.832  0.6582  0.3966  0.4535
  848MOL0     O14369  11.763   9.546   8.762  0.1327  0.3916 -0.2551
  848MOL0     C14370  11.631   9.544   8.719  0.0735  0.3676 -0.0261
  848MOL0     C14371  11.600   9.430   8.654 -0.2580 -0.2844  0.0478
  848MOL0     C14372  11.480   9.421   8.585  0.8857 -0.1802 -0.5488
  848MOL0     C14373  11.371   9.516   8.593 -0.8874  0.3149  0.4735
  848MOL0     C14374  11.234   9.470   8.539 -1.0179  0.2530 -0.3939
  848MOL0     O14375  11.130   9.530   8.593 -1.0947  0.1992  0.5633
  848MOL0     C14376  11.005   9.493   8.549 -0.1190  0.7475  0.0626
  848MOL0     C14377  10.922   9.424   8.647 -1.0378  1.4812  1.1497
  848MOL0     C14378  10.804   9.358   8.608  0.1461 -0.3318  0.0898
  848MOL0     C14379  10.746   9.387   8.477 -0.5280 -0.2163 -0.3131
  848MOL0     O14380  10.621   9.348   8.429 -0.2523  0.5225  0.3109
  848MOL0     C14381  10.528   9.279   8.509 -1.0430 -0.2494  0.0589
  848MOL0     C14382  10.381   9.316   8.472 -1.0108 -0.2563 -0.7828
  848MOL0     C14383  10.331   9.442   8.523  0.5478 -0.5889 -0.0045
  848MOL0     C14384  10.179   9.478   8.495 -1.4105  0.7344 -0.0937
  848MOL0     C14385  10.105   9.360   8.440  0.5512  0.1559 -0.5670
  848MOL0     C14386   9.980   9.400   8.371  0.1117 -0.7579 -0.7537
  848MOL0     C14387   9.900   9.300   8.288 -0.8980  1.0657 -0.3052
  848MOL0     C14388   9.756   9.343   8.273  0.0938 -0.0098  0.2510
  848MOL0    Cl14389   9.673   9.312   8.422 -0.0977  0.2035  0.1363
  848MOL0     C14390  10.819   9.472   8.393 -0.6686  0.3600 -0.0826
  848MOL0     C14391  10.947   9.524   8.423 -0.1573  0.0243  0.5144
  848MOL0     O14392  11.233   9.389   8.442 -0.3733 -0.1630 -0.6361
  848MOL0     C14393  11.406   9.622   8.677  0.2518 -0.8872  0.3541
  848MOL0     C14394  11.533   9.639   8.731 -0.2464  0.3932  0.6021
  848MOL0     N14395  12.065   9.616   9.119 -0.7326 -0.4517 -0.5008
  848MOL0     N14396  12.124   9.635   9.229 -0.0554 -0.0666 -0.7466
  848MOL0     C14397  11.605  10.089   9.447  1.0053  0.4113  0.3817
  848MOL0     C14398  11.481  10.042   9.405  0.0735  0.8276  0.4284
  848MOL0     C14399  11.024  10.020   9.305 -0.3587 -0.6081  0.1604
  848MOL0     C14400  11.025   9.879   9.324 -0.2113  0.2205  0.8457
  848MOL0     C14401  10.913   9.805   9.292 -0.2613  0.6361  0.3918
  848MOL0     C14402  10.788   9.867   9.266 -0.1697 -0.2120 -0.6285
  848MOL0     O14403  10.671   9.801   9.234 -0.3371  0.7509 -0.4168
  848MOL0     C14404  10.687   9.661   9.199 -0.4909  0.0070  0.0445
  848MOL0     C14405  10.563   9.599   9.158 -0.0965  0.9973  0.1842
  848MOL0     C14406  10.519   9.636   9.013 -0.1309  0.5323  0.1718
  848MOL0     C14407  10.611   9.573   8.898 -0.6103 -0.6746 -0.0112
  848MOL0     C14408  10.640   9.428   8.929 -0.1847 -0.6481  1.1355
  848MOL0     C14409  10.678   9.320   8.961  0.0431 -0.7571 -0.7884
  848MOL0     C14410  10.784  10.004   9.251 -0.2249  0.4520 -0.4609
  848MOL0     C14411  10.897  10.085   9.269 -0.9899  0.2375 -0.8959
  848MOL0     C14412  10.881  10.242   9.272  0.2035 -0.1083  0.2821
  848MOL0     H14413  11.287  10.272   9.563  0.9351  1.1179  1.2014
  848MOL0     H14414  11.529  10.344   9.630  0.8019 -2.0798  2.3058
  848MOL0     H14415  11.801  10.244   9.360 -2.5642  3.3676 -1.1648
  848MOL0     H14416  11.823  10.398   9.447 -0.9241 -0.3800 -0.9593
  848MOL0     H14417  11.999  10.307   9.589  0.9715  1.1033 -1.9503
  848MOL0     H14418  12.038  10.281   9.419  1.6937 -0.3112  0.7157
  848MOL0     H14419  11.946  10.043   9.432  1.0067 -2.6158  0.2469
  848MOL0     H14420  11.903  10.069   9.600 -1.3293  2.5001 -0.3914
  848MOL0     H14421  12.203  10.066   9.504 -0.5542 -0.4891 -1.5424
  848MOL0     H14422  12.141  10.113   9.659  1.7771 -1.4297  0.8045
  848MOL0     H14423  12.191   9.903   9.703 -0.5660  2.4867  0.4026
  848MOL0     H14424  12.019   9.884   9.675 -0.3151 -1.0915  0.2895
  848MOL0     H14425  12.055   9.830   9.436 -0.0909  2.4427  0.8045
  848MOL0     H14426  12.223   9.784   9.464  0.5100  1.2809  1.5039
  848MOL0     H14427  11.967   9.677   9.579 -0.3453 -0.4930  2.5979
  848MOL0     H14428  12.119   9.641   9.661 -1.2268 -1.3427 -0.1702
  848MOL0     H14429  12.212   9.542   9.478 -0.1427 -0.7451  0.3587
  848MOL0     H14430  12.054   9.455   9.500  0.2741 -0.5932 -1.5753
  848MOL0     H14431  11.888   9.438   9.338  2.3493 -1.5430  1.0000
  848MOL0     H14432  11.918   9.455   8.945 -3.2400  1.6000 -1.6091
  848MOL0     H14433  11.839   9.361   9.063 -5.2926  1.9639 -0.0340
  848MOL0     H14434  11.662   9.476   8.991  1.4133 -2.2331 -0.3352
  848MOL0     H14435  11.692   9.547   9.140 -1.2681  1.8416 -1.4152
  848MOL0     H14436  11.813   9.742   9.039  0.9381 -0.2488 -0.5115
  848MOL0     H14437  11.657   9.731   8.972 -0.1044 -0.0732  2.4054
  848MOL0     H14438  11.915   9.661   8.831  0.5717 -1.5615 -1.0641
  848MOL0     H14439  11.781   9.764   8.785  0.2481  0.6884  1.2538
  848MOL0     H14440  11.664   9.345   8.633 -2.8925 -1.5882 -3.7260
  848MOL0     H14441  11.462   9.337   8.520  2.8918 -0.6489 -0.5573
  848MOL0     H14442  10.958   9.413   8.749  2.7883  1.4488 -0.0299
  848MOL0     H14443  10.753   9.299   8.684  0.9594 -2.4193 -0.9299
  848MOL0     H14444  10.551   9.172   8.502  1.2434 -0.0426  2.4818
  848MOL0     H14445  10.545   9.320   8.610 -2.0708  1.8313 -0.5576
  848MOL0     H14446  10.369   9.314   8.364  0.0026 -0.2451 -0.9067
  848MOL0     H14447  10.316   9.246   8.525 -4.4433  1.2080 -2.7679
  848MOL0     H14448  10.352   9.475   8.626 -1.0940  1.2187 -0.1903
  848MOL0     H14449  10.382   9.515   8.459  2.6603 -1.4948  0.5540
  848MOL0     H14450  10.182   9.550   8.412 -1.5832  2.6859  1.5260
  848MOL0     H14451  10.134   9.518   8.586  0.4641  0.0974  1.1693
  848MOL0     H14452  10.075   9.290   8.518 -0.0225  1.1061  0.0857
  848MOL0     H14453  10.162   9.308   8.362 -2.4124 -1.3267 -1.8947
  848MOL0     H14454   9.918   9.456   8.441 -0.4623 -2.4459  0.1590
  848MOL0     H14455  10.015   9.472   8.297 -1.8246  0.0269 -0.9704
  848MOL0     H14456   9.907   9.199   8.330  0.5917  0.4913 -1.8339
  848MOL0     H14457   9.948   9.294   8.190  0.1801 -1.6922  0.2773
  848MOL0     H14458   9.757   9.445   8.234  1.3091 -0.0084  0.2617
  848MOL0     H14459   9.711   9.284   8.193  1.6811 -0.8570 -0.0479
  848MOL0     H14460  10.773   9.492   8.297 -3.4488 -0.2617  1.0255
  848MOL0     H14461  11.012   9.573   8.351 -0.8743  0.8113  0.3924
  848MOL0     H14462  11.330   9.696   8.699  1.7600  0.9776 -0.4332
  848MOL0     H14463  11.554   9.734   8.778 -3.2860  0.5125  1.9763
  848MOL0     H14464  11.682  10.018   9.421  1.1253  1.3832 -2.2142
  848MOL0     H14465  11.468   9.955   9.342 -2.0001  0.8695  0.7050
  848MOL0     H14466  11.115   9.826   9.353 -0.5014  0.2872  1.8935
  848MOL0     H14467  10.928   9.698   9.285  0.1006  0.7532 -1.1308
  848MOL0     H14468  10.720   9.608   9.289 -1.0278 -2.0633 -0.9209
  848MOL0     H14469  10.762   9.648   9.120  1.6115  2.2425  1.4761
  848MOL0     H14470  10.477   9.616   9.223 -1.6096  0.5192 -1.5808
  848MOL0     H14471  10.569   9.491   9.173 -1.1759  0.8409 -0.3941
  848MOL0     H14472  10.517   9.745   8.996  2.0608  0.6742  0.5967
  848MOL0     H14473  10.414   9.607   9.001 -0.4655  1.8034 -0.1408
  848MOL0     H14474  10.568   9.584   8.798  2.0228  3.2917 -0.9536
  848MOL0     H14475  10.703   9.630   8.914 -1.6304  0.3230  3.0727
  848MOL0     H14476  10.707   9.224   8.999  0.4441  0.5540  2.6150
  848MOL0     H14477  10.689  10.047   9.221 -0.5230 -0.4647 -0.8460
  848MOL0     H14478  10.774  10.255   9.292 -0.1214  0.0914 -1.4080
  848MOL0     H14479  10.938  10.297   9.348 -0.6055  1.2666 -0.0710
  848MOL0     H14480  10.895  10.282   9.171 -1.1896  2.1885  0.8972
  849MOL0     O14481   9.671   1.980   9.276 -0.7020 -0.7227  0.4538
  849MOL0     C14482   9.679   2.076   9.194 -0.5030  0.2431 -0.2896
  849MOL0     O14483   9.791   2.162   9.182 -0.4919 -0.1608 -0.9768
  849MOL0     C14484   9.899   2.139   9.259 -0.1888  0.2698 -0.3292
  849MOL0     C14485   9.981   2.031   9.245  0.2933  0.2096 -0.8000
  849MOL0     C14486  10.097   2.009   9.328  0.0878 -0.5618 -0.2628
  849MOL0     C14487  10.142   2.098   9.425 -0.0453 -0.4707  0.2427
  849MOL0     O14488  10.256   2.073   9.495 -0.5728 -0.7422  0.7330
  849MOL0     C14489  10.335   2.178   9.550  1.7024  0.5768  0.3647
  849MOL0     C14490  10.435   2.227   9.441  0.9313 -0.1760 -0.0542
  849MOL0     C14491  10.547   2.130   9.407 -0.0569  0.3594  0.4597
  849MOL0     C14492  10.608   2.186   9.277  0.4151 -0.4365 -0.8784
  849MOL0     C14493  10.763   2.148   9.275 -0.5451  0.7236 -0.1355
  849MOL0     C14494  10.773   2.000   9.271 -0.5226 -0.0450  0.4956
  849MOL0     C14495  10.907   1.956   9.203  1.0589 -1.0295 -0.0595
  849MOL0     C14496  11.031   1.991   9.290 -0.2333  0.6989 -0.9187
  849MOL0     N14497  11.043   1.885   9.386 -0.2735  0.6767  0.4250
  849MOL0     C14498  11.104   1.762   9.353  0.8706  0.1415  0.4683
  849MOL0     C14499  11.122   1.702   9.478 -0.1197  0.8065 -0.0661
  849MOL0     C14500  11.188   1.574   9.473  0.0966  0.3056  0.7197
  849MOL0     C14501  11.343   1.569   9.521 -1.1933  0.1425  0.3773
  849MOL0     C14502  11.402   1.700   9.569 -0.6971  0.5258 -0.3920
  849MOL0     C14503  11.559   1.695   9.548 -0.3820  0.4023  0.1004
  849MOL0     O14504  11.594   1.688   9.413 -0.1151  0.4350  0.1229
  849MOL0     C14505  11.695   1.771   9.370 -0.2478 -0.2469 -0.1914
  849MOL0     C14506  11.789   1.714   9.285 -0.6160  0.6631  0.0511
  849MOL0     C14507  11.900   1.787   9.241  0.8868  0.3689  0.1037
  849MOL0     C14508  11.920   1.921   9.282 -0.0903  0.2050 -0.3730
  849MOL0     C14509  12.044   1.999   9.242  0.2234  0.2778 -0.4732
  849MOL0     O14510  12.132   1.925   9.172 -0.5287 -0.1861 -0.0853
  849MOL0     C14511  12.253   1.975   9.128 -0.1410  0.7256  0.0774
  849MOL0     C14512  12.366   2.024   9.194  1.3134  0.6718 -0.4834
  849MOL0     C14513  12.476   2.074   9.130 -0.4389 -0.6013 -0.8115
  849MOL0     C14514  12.476   2.079   8.989 -0.4226 -0.3625 -0.4677
  849MOL0     O14515  12.589   2.134   8.937 -0.9026  0.1797 -0.1801
  849MOL0     C14516  12.641   2.079   8.812 -0.1604 -0.9496  0.4814
  849MOL0     C14517  12.793   2.129   8.811  0.5671  0.2960  0.2012
  849MOL0     C14518  12.875   2.107   8.939  0.0098  0.4425  0.0809
  849MOL0     C14519  13.009   2.171   8.923 -0.0551 -1.1198  0.2271
  849MOL0     C14520  13.116   2.106   9.008 -0.8400 -0.9327  0.2801
  849MOL0     C14521  13.251   2.171   8.972 -0.2792 -0.1878 -0.3873
  849MOL0     C14522  13.362   2.143   9.071 -0.4484 -0.8569 -0.5708
  849MOL0     C14523  13.479   2.242   9.046 -0.0406 -0.9093  0.1413
  849MOL0    Cl14524  13.634   2.168   9.132  0.0129 -0.1781 -0.1387
  849MOL0     C14525  12.384   2.015   8.911 -0.7307  0.6300 -0.4294
  849MOL0     C14526  12.271   1.959   8.983  0.6196 -0.3937  0.4885
  849MOL0     O14527  12.057   2.115   9.285 -0.0071 -0.3290  0.7594
  849MOL0     C14528  11.818   1.975   9.363  0.1143 -1.4251 -0.3253
  849MOL0     C14529  11.711   1.905   9.411 -0.4178 -0.1245 -0.7915
  849MOL0     N14530  11.059   1.776   9.574 -0.4606  0.8596  0.7856
  849MOL0     N14531  11.022   1.884   9.521 -0.5948 -1.2939 -0.9404
  849MOL0     C14532  10.059   2.212   9.432 -0.7458 -0.4927  0.0971
  849MOL0     C14533   9.943   2.230   9.352  0.3639 -0.5577 -0.2839
  849MOL0     C14534   9.560   2.114   9.106 -0.6182  0.3972 -0.3742
  849MOL0     C14535   9.544   2.245   9.069  0.3741 -0.1964  0.4313
  849MOL0     C14536   9.430   2.286   8.998 -0.2471  0.5222 -0.0206
  849MOL0     C14537   9.331   2.196   8.950 -0.3203 -0.0122 -0.3432
  849MOL0     O14538   9.226   2.249   8.880  0.4470  0.0099  0.4576
  849MOL0     C14539   9.101   2.179   8.864 -0.0093 -0.5211  0.4358
  849MOL0     C14540   9.020   2.290   8.782  0.1175  0.2504 -0.6652
  849MOL0     C14541   8.915   2.228   8.690  0.1366  0.9638  0.0317
  849MOL0     C14542   8.853   2.342   8.591  0.2868  0.3770 -0.2881
  849MOL0     C14543   8.816   2.461   8.654 -0.5092  0.2430  0.1399
  849MOL0     C14544   8.792   2.560   8.720  0.1624 -0.2589  0.2363
  849MOL0     C14545   9.347   2.064   8.977 -0.1071  0.5965 -0.1841
  849MOL0     C14546   9.457   2.023   9.057  0.5507 -0.0289 -0.0029
  849MOL0     C14547   9.469   1.878   9.092 -0.7102 -0.4931  0.2837
  849MOL0     H14548   9.934   1.967   9.171 -0.1946 -0.0697 -0.2632
  849MOL0     H14549  10.159   1.920   9.332  2.3310  0.9326  3.3420
  849MOL0     H14550  10.279   2.268   9.579  0.3249 -0.2185  0.2544
  849MOL0     H14551  10.395   2.138   9.632  2.0654 -1.0899 -0.6644
  849MOL0     H14552  10.489   2.315   9.476  0.3159 -0.3556  1.4371
  849MOL0     H14553  10.381   2.255   9.350  0.7602  0.8096  0.3358
  849MOL0     H14554  10.509   2.029   9.392  3.5153 -0.9906 -0.5966
  849MOL0     H14555  10.627   2.135   9.482  0.5802  1.4163 -0.2766
  849MOL0     H14556  10.566   2.143   9.186 -0.3226 -1.3033 -0.1535
  849MOL0     H14557  10.602   2.293   9.255  0.4349 -0.4784 -1.0895
  849MOL0     H14558  10.807   2.194   9.186 -1.5006 -3.9634 -3.3694
  849MOL0     H14559  10.821   2.192   9.358  2.9713  0.3204 -2.1586
  849MOL0     H14560  10.775   1.963   9.374 -0.7214 -1.7716 -0.0876
  849MOL0     H14561  10.690   1.954   9.216 -1.7697 -0.7409  2.8348
  849MOL0     H14562  10.912   2.010   9.108 -2.1915 -1.6936 -0.7368
  849MOL0     H14563  10.895   1.849   9.183 -2.3778 -0.7228 -0.2602
  849MOL0     H14564  11.124   2.012   9.237 -0.6600  3.1888 -0.7941
  849MOL0     H14565  11.000   2.080   9.344 -1.8615 -0.4255  0.0836
  849MOL0     H14566  11.117   1.733   9.249  2.5606 -2.0360  1.2143
  849MOL0     H14567  11.134   1.515   9.547  0.0766  0.4561  0.8241
  849MOL0     H14568  11.197   1.536   9.370  1.4553 -1.5507  1.4649
  849MOL0     H14569  11.346   1.497   9.604  1.0864 -0.9755 -0.5850
  849MOL0     H14570  11.412   1.525   9.449  0.9340  2.3618  0.9577
  849MOL0     H14571  11.382   1.730   9.672 -0.9853  2.0503 -0.8655
  849MOL0     H14572  11.361   1.787   9.516  0.7786 -0.3562 -3.1749
  849MOL0     H14573  11.593   1.606   9.601 -0.6378 -1.2340 -2.2978
  849MOL0     H14574  11.585   1.790   9.595  3.9450 -1.7102  2.5130
  849MOL0     H14575  11.775   1.614   9.245  5.2813 -0.7231  0.5151
  849MOL0     H14576  11.977   1.739   9.181 -0.6893  2.1251 -3.6796
  849MOL0     H14577  12.356   2.034   9.302  0.0165 -0.5220 -0.4684
  849MOL0     H14578  12.559   2.102   9.195 -0.4627 -3.4118  0.5967
  849MOL0     H14579  12.646   1.970   8.812  1.3185 -0.9393 -1.8378
  849MOL0     H14580  12.591   2.116   8.722  0.6852 -1.4628 -0.2117
  849MOL0     H14581  12.830   2.073   8.725 -3.1763  0.6588 -1.8545
  849MOL0     H14582  12.797   2.233   8.777 -0.7358 -0.8431 -4.1002
  849MOL0     H14583  12.828   2.162   9.021  1.8036  1.1802  0.6677
  849MOL0     H14584  12.882   2.002   8.967  1.7692 -0.0949 -2.0931
  849MOL0     H14585  13.008   2.275   8.956  1.1068 -0.3952 -1.8118
  849MOL0     H14586  13.049   2.160   8.821 -0.5487 -2.2780  0.1429
  849MOL0     H14587  13.106   1.999   8.990  0.2614 -1.3393  1.8502
  849MOL0     H14588  13.100   2.131   9.114 -0.0488  1.3570 -0.0748
  849MOL0     H14589  13.302   2.139   8.881  1.8341  3.1429 -0.5137
  849MOL0     H14590  13.245   2.279   8.960  0.3257 -0.2746 -1.6837
  849MOL0     H14591  13.390   2.038   9.052 -0.5362 -0.5369 -2.7188
  849MOL0     H14592  13.329   2.153   9.174 -2.6912  0.8923 -1.3783
  849MOL0     H14593  13.505   2.232   8.940 -2.4581  0.8119 -0.6853
  849MOL0     H14594  13.455   2.347   9.065  1.0365 -0.6767  0.2937
  849MOL0     H14595  12.391   2.013   8.803 -0.7470  2.0392 -0.4736
  849MOL0     H14596  12.216   1.894   8.916  1.9980 -0.9689 -0.1263
  849MOL0     H14597  11.838   2.070   9.411  1.0569 -1.2115 -1.1302
  849MOL0     H14598  11.656   1.952   9.492 -2.1301 -2.7858 -0.2769
  849MOL0     H14599  10.081   2.290   9.505  0.7577 -1.4096  0.6696
  849MOL0     H14600   9.880   2.317   9.371  0.8086 -0.1940 -0.4682
  849MOL0     H14601   9.620   2.312   9.106  2.9183 -3.7745  2.3237
  849MOL0     H14602   9.412   2.393   8.983  3.6243  1.1671 -1.0388
  849MOL0     H14603   9.058   2.155   8.962 -0.6519  1.7073  0.7569
  849MOL0     H14604   9.115   2.086   8.808 -1.3202  0.4981 -1.6929
  849MOL0     H14605   9.091   2.332   8.710 -1.9097  3.8298 -0.7805
  849MOL0     H14606   8.986   2.373   8.843  0.4191 -0.4665  0.5184
  849MOL0     H14607   8.834   2.178   8.743 -1.2883  0.7331 -2.2077
  849MOL0     H14608   8.962   2.150   8.629 -1.7667 -3.6945  3.8375
  849MOL0     H14609   8.917   2.344   8.502  3.3603  5.2085  1.6438
  849MOL0     H14610   8.758   2.295   8.564 -0.0337 -0.3355  1.8496
  849MOL0     H14611   8.788   2.657   8.765 -1.1465  0.5113 -1.4237
  849MOL0     H14612   9.287   1.985   8.935  1.1623 -1.9278  2.3809
  849MOL0     H14613   9.443   1.850   9.195 -0.3146 -0.8056  0.3042
  849MOL0     H14614   9.423   1.810   9.020  1.9275  1.8639 -4.0715
  849MOL0     H14615   9.575   1.851   9.082  0.5195  1.3904  5.1445
  850MOL0     O14616   1.466   1.091   1.612  0.6243 -0.7885  1.0572
  850MOL0     C14617   1.406   1.128   1.514 -0.3117 -0.2399  0.5447
  850MOL0     O14618   1.404   1.252   1.459 -0.6425 -0.0057  0.4962
  850MOL0     C14619   1.491   1.352   1.479  0.1987  1.1135  0.7880
  850MOL0     C14620   1.452   1.477   1.437  1.0089  0.6593  0.1515
  850MOL0     C14621   1.532   1.585   1.460 -0.1527  0.0699  0.5979
  850MOL0     C14622   1.665   1.580   1.510 -0.8770 -0.0733  0.3791
  850MOL0     O14623   1.742   1.695   1.518  0.1011  0.9355  0.6138
  850MOL0     C14624   1.673   1.807   1.574 -0.4207  0.2904  0.2690
  850MOL0     C14625   1.759   1.864   1.686  0.1607  0.8942  1.2874
  850MOL0     C14626   1.896   1.911   1.656 -0.6815 -0.4642 -0.4629
  850MOL0     C14627   1.916   2.012   1.533  0.3252  0.2602 -0.4757
  850MOL0     C14628   1.875   2.161   1.580  0.2653  0.5570  0.1315
  850MOL0     C14629   1.985   2.215   1.671 -0.4288 -0.1988  0.3414
  850MOL0     C14630   1.962   2.359   1.726  0.2172 -0.1320 -0.4159
  850MOL0     C14631   2.052   2.413   1.844 -0.6652  0.1221 -0.2777
  850MOL0     N14632   2.095   2.551   1.830  0.3674 -0.2769  0.1718
  850MOL0     C14633   2.007   2.656   1.793  0.6703  0.9457  0.4269
  850MOL0     C14634   2.087   2.759   1.756  0.1841 -0.8784 -0.3358
  850MOL0     C14635   2.063   2.882   1.673 -0.6675  0.7414  0.3879
  850MOL0     C14636   2.081   2.868   1.514  1.0725  0.1424  0.2451
  850MOL0     C14637   1.978   2.777   1.453  0.0838  0.4176  0.1548
  850MOL0     C14638   1.832   2.818   1.481  0.4044  0.3869 -0.4241
  850MOL0     O14639   1.771   2.744   1.586  0.6644  0.0814  0.2029
  850MOL0     C14640   1.724   2.619   1.561 -0.5112  0.1541 -0.0239
  850MOL0     C14641   1.752   2.552   1.436 -0.7469  0.8962  0.1841
  850MOL0     C14642   1.694   2.426   1.416 -0.2372  0.0315  0.4045
  850MOL0     C14643   1.599   2.375   1.506 -0.1624  0.3377 -0.1512
  850MOL0     C14644   1.544   2.232   1.490 -0.8002  0.5322  1.1984
  850MOL0     O14645   1.438   2.200   1.550  0.4484  0.2842 -0.2142
  850MOL0     C14646   1.404   2.076   1.551  0.0868 -0.6518  0.0850
  850MOL0     C14647   1.411   2.009   1.671  0.5002  1.1560 -0.4366
  850MOL0     C14648   1.356   1.880   1.683 -0.6368 -0.9894 -0.2852
  850MOL0     C14649   1.291   1.825   1.575  0.8069 -0.8963  0.1122
  850MOL0     O14650   1.231   1.706   1.569  0.7044 -0.1217 -0.8492
  850MOL0     C14651   1.224   1.625   1.684  0.0632  0.0020 -0.4299
  850MOL0     C14652   1.140   1.498   1.654 -0.1925 -0.3209 -0.0114
  850MOL0     C14653   1.153   1.396   1.767 -0.3027 -0.1527 -0.0397
  850MOL0     C14654   1.090   1.271   1.725 -0.8636  0.0852 -0.7551
  850MOL0     C14655   1.076   1.175   1.837  0.8083  0.6842  0.5504
  850MOL0     C14656   1.026   1.043   1.778 -0.8718 -0.0919  0.5086
  850MOL0     C14657   1.018   0.931   1.878 -0.3962 -0.2840 -0.6591
  850MOL0     C14658   0.969   0.810   1.804 -0.4524  0.3446 -0.2511
  850MOL0    Cl14659   0.852   0.705   1.896  0.0268 -0.4172 -0.2247
  850MOL0     C14660   1.277   1.895   1.455  0.3427 -0.7069 -0.3777
  850MOL0     C14661   1.338   2.022   1.449 -0.5748 -0.3381  0.4023
  850MOL0     O14662   1.593   2.172   1.394 -0.8835 -0.2310 -0.9344
  850MOL0     C14663   1.586   2.440   1.626 -0.4534 -0.0511  0.3638
  850MOL0     C14664   1.646   2.563   1.651  0.7751 -0.1135  0.4822
  850MOL0     N14665   2.222   2.722   1.785 -0.5437 -0.2107 -0.3522
  850MOL0     N14666   2.221   2.601   1.828  0.2408 -0.2468  0.3187
  850MOL0     C14667   1.704   1.452   1.550  0.6917  0.5657  0.2121
  850MOL0     C14668   1.616   1.341   1.547 -0.5140  0.5534  0.2796
  850MOL0     C14669   1.325   1.023   1.442 -0.1340 -0.6555 -1.1783
  850MOL0     C14670   1.198   1.051   1.394 -0.0368  0.4832  0.5385
  850MOL0     C14671   1.121   0.953   1.319  0.4642 -0.4337  0.3365
  850MOL0     C14672   1.165   0.828   1.302 -0.2750  0.2323  0.3749
  850MOL0     O14673   1.110   0.728   1.217  0.2556 -0.3623 -0.0957
  850MOL0     C14674   0.972   0.735   1.194 -0.3180 -0.6126 -0.0805
  850MOL0     C14675   0.947   0.817   1.065 -0.7233 -0.3296  0.5699
  850MOL0     C14676   0.798   0.826   1.035 -0.8783  0.3954  0.2756
  850MOL0     C14677   0.764   0.702   0.945 -0.3937 -0.0091 -0.2013
  850MOL0     C14678   0.624   0.715   0.914 -0.1517 -0.4410 -0.7098
  850MOL0     C14679   0.509   0.742   0.882  0.2906  0.5215 -0.0752
  850MOL0     C14680   1.286   0.788   1.353 -0.4614  0.0781  0.5284
  850MOL0     C14681   1.375   0.883   1.411 -0.4288  0.5876  0.4005
  850MOL0     C14682   1.524   0.855   1.447  0.9415  0.1085 -0.2074
  850MOL0     H14683   1.360   1.490   1.381  2.3045 -1.0116 -2.6046
  850MOL0     H14684   1.512   1.681   1.414 -0.7279  0.1613  1.0161
  850MOL0     H14685   1.652   1.881   1.497 -2.1354  1.8599  2.1199
  850MOL0     H14686   1.587   1.772   1.632 -0.8127 -0.5910 -0.8315
  850MOL0     H14687   1.787   1.787   1.758 -2.4928 -0.2118  1.2366
  850MOL0     H14688   1.699   1.937   1.741 -2.2390 -0.7962  1.0685
  850MOL0     H14689   1.957   1.820   1.645 -2.4615 -1.7395 -0.2494
  850MOL0     H14690   1.918   1.966   1.748  0.5178 -0.2430 -0.8650
  850MOL0     H14691   2.019   2.021   1.499  0.9056  0.4866  1.2519
  850MOL0     H14692   1.855   1.980   1.448  1.4344 -0.8240 -0.8764
  850MOL0     H14693   1.876   2.220   1.488  0.6824  0.5762  0.1489
  850MOL0     H14694   1.777   2.170   1.628  0.5904 -1.4544  1.2654
  850MOL0     H14695   2.005   2.142   1.749  1.0001  0.7681  0.9136
  850MOL0     H14696   2.078   2.218   1.613 -0.5871 -2.7254 -0.1358
  850MOL0     H14697   1.860   2.375   1.761  0.3498 -1.7479  0.8107
  850MOL0     H14698   1.966   2.417   1.634 -0.9352 -0.7671 -0.8960
  850MOL0     H14699   2.002   2.393   1.939  0.1627  1.1132  0.3929
  850MOL0     H14700   2.148   2.361   1.851  0.1640  1.5329 -0.6927
  850MOL0     H14701   1.899   2.655   1.781  0.7339 -1.3374 -0.5815
  850MOL0     H14702   1.964   2.922   1.695 -0.4822  1.1902  0.3992
  850MOL0     H14703   2.127   2.967   1.696 -0.4591  1.4534 -2.4942
  850MOL0     H14704   2.064   2.968   1.473 -0.0755  0.6188  1.7816
  850MOL0     H14705   2.181   2.834   1.487 -0.0117 -1.6694 -1.8603
  850MOL0     H14706   1.993   2.680   1.502 -0.1275  0.9428  1.2998
  850MOL0     H14707   2.008   2.774   1.348 -0.3054 -3.2012  0.0118
  850MOL0     H14708   1.764   2.807   1.396 -0.8974 -0.2076  0.6482
  850MOL0     H14709   1.821   2.925   1.504 -0.2533  0.0823  0.7736
  850MOL0     H14710   1.821   2.581   1.357  1.6241  0.7098  2.0369
  850MOL0     H14711   1.724   2.374   1.326  1.3209 -0.9722  1.4622
  850MOL0     H14712   1.449   2.079   1.744  0.9747  0.1991  0.2582
  850MOL0     H14713   1.370   1.833   1.780  4.4031 -0.1816 -0.3525
  850MOL0     H14714   1.328   1.590   1.690  0.9253  1.1316 -4.8091
  850MOL0     H14715   1.187   1.668   1.777 -0.0474  0.8972 -0.8732
  850MOL0     H14716   1.034   1.521   1.640  0.0474  3.2417  2.7000
  850MOL0     H14717   1.187   1.465   1.561 -0.7944  1.3988 -0.9551
  850MOL0     H14718   1.260   1.379   1.784 -0.1571  1.9203  1.5697
  850MOL0     H14719   1.118   1.433   1.864  1.0254 -4.8157  2.4891
  850MOL0     H14720   1.151   1.238   1.641 -1.5936  0.7936 -1.5922
  850MOL0     H14721   0.986   1.297   1.701 -1.0187 -1.1710 -1.5500
  850MOL0     H14722   1.011   1.217   1.914 -0.3900 -1.7846  0.9871
  850MOL0     H14723   1.170   1.163   1.891  1.6928  0.7777 -0.9114
  850MOL0     H14724   0.928   1.068   1.735  1.2962  2.7193 -3.5518
  850MOL0     H14725   1.090   1.014   1.694  0.3779  0.4306  1.2606
  850MOL0     H14726   0.953   0.953   1.963  2.3902  1.1946  1.2559
  850MOL0     H14727   1.117   0.915   1.922 -1.0845 -1.1824  0.6292
  850MOL0     H14728   0.915   0.839   1.714 -3.1725  0.4734  1.2823
  850MOL0     H14729   1.055   0.747   1.781 -0.2943  0.6005 -0.3623
  850MOL0     H14730   1.230   1.860   1.363  0.7420 -1.8769 -0.1544
  850MOL0     H14731   1.319   2.090   1.366  0.2230  0.6054  0.9712
  850MOL0     H14732   1.533   2.391   1.707  0.1989 -0.1581  0.7290
  850MOL0     H14733   1.623   2.615   1.743 -1.3828  2.8704 -1.5566
  850MOL0     H14734   1.809   1.451   1.580  0.7713  1.6726  0.0412
  850MOL0     H14735   1.646   1.247   1.592  2.4793  1.3932  0.2284
  850MOL0     H14736   1.158   1.149   1.418  0.3911  0.9571 -0.6050
  850MOL0     H14737   1.033   0.987   1.267  0.2326 -3.6119 -1.6105
  850MOL0     H14738   0.926   0.761   1.290  0.4186 -0.8336  0.3447
  850MOL0     H14739   0.943   0.633   1.171 -3.7927  0.4354 -0.8904
  850MOL0     H14740   1.000   0.763   0.986 -1.6771  1.5786 -1.4728
  850MOL0     H14741   0.984   0.919   1.074 -0.1446 -0.6593  2.3674
  850MOL0     H14742   0.770   0.910   0.971  0.0260  0.0962 -0.5407
  850MOL0     H14743   0.741   0.814   1.128  2.4152 -1.1689  2.2579
  850MOL0     H14744   0.828   0.706   0.856 -0.8350  1.5599 -0.4804
  850MOL0     H14745   0.775   0.609   1.002 -2.2935 -0.6169 -0.7291
  850MOL0     H14746   0.416   0.775   0.840 -0.5431  1.0849  2.0824
  850MOL0     H14747   1.320   0.687   1.333  0.8759  0.7186 -0.5476
  850MOL0     H14748   1.537   0.861   1.555 -0.2721 -1.5297  0.0677
  850MOL0     H14749   1.557   0.760   1.404  1.9949  0.9609 -1.4078
  850MOL0     H14750   1.578   0.939   1.402  0.4347  0.7816  0.4222
  851MOL0     O14751   2.008   5.076   5.142  0.0097  0.8786  1.0079
  851MOL0     C14752   1.948   5.129   5.232 -0.6633 -0.5626  0.4017
  851MOL0     O14753   2.004   5.222   5.322  0.3020 -0.0716 -0.1068
  851MOL0     C14754   2.140   5.226   5.319 -0.7254 -0.6402 -0.2850
  851MOL0     C14755   2.198   5.298   5.213  0.1817  0.5605 -0.5882
  851MOL0     C14756   2.335   5.300   5.195 -0.0241 -0.5277 -0.1870
  851MOL0     C14757   2.426   5.244   5.292  0.3195  0.4287 -0.2659
  851MOL0     O14758   2.565   5.240   5.270  0.2931 -0.2985  0.3825
  851MOL0     C14759   2.633   5.308   5.371  0.5315  0.4412  0.4199
  851MOL0     C14760   2.790   5.282   5.351 -0.0975  0.6633 -1.9069
  851MOL0     C14761   2.846   5.335   5.224 -0.0688 -0.0013  0.8250
  851MOL0     C14762   3.004   5.321   5.201 -0.1282 -0.0190 -0.5753
  851MOL0     C14763   3.052   5.379   5.069  0.2642 -0.3383 -0.2140
  851MOL0     C14764   3.073   5.526   5.067 -0.5898 -0.0415 -0.6861
  851MOL0     C14765   3.164   5.576   4.954 -0.0542  0.9857  0.4077
  851MOL0     C14766   3.111   5.541   4.825 -0.2831 -0.1805 -0.1685
  851MOL0     N14767   3.199   5.578   4.716  0.5718  0.1760  0.8626
  851MOL0     C14768   3.243   5.707   4.698 -0.2486 -0.1231  0.1985
  851MOL0     C14769   3.347   5.707   4.619 -0.6889 -0.2412 -0.6414
  851MOL0     C14770   3.429   5.831   4.582  0.4461  0.2498 -0.2240
  851MOL0     C14771   3.571   5.818   4.622 -0.2474 -0.1305 -0.5526
  851MOL0     C14772   3.584   5.827   4.774 -0.9224 -0.1679 -0.4242
  851MOL0     C14773   3.732   5.853   4.812  0.7333  0.3241 -0.0606
  851MOL0     O14774   3.782   5.981   4.777  0.2010 -0.2044 -0.3569
  851MOL0     C14775   3.912   6.012   4.767 -0.4220 -0.5205  0.2890
  851MOL0     C14776   3.944   6.151   4.732 -1.5252  0.6158 -0.1671
  851MOL0     C14777   4.075   6.191   4.723  0.2776  0.3938  0.1912
  851MOL0     C14778   4.179   6.092   4.721  0.5130 -0.8170  0.1083
  851MOL0     C14779   4.321   6.122   4.695 -0.6094 -0.2493  0.6534
  851MOL0     O14780   4.411   6.019   4.695 -0.7903 -1.0644 -0.0284
  851MOL0     C14781   4.535   6.045   4.743 -1.6726 -0.4960  0.1115
  851MOL0     C14782   4.548   6.087   4.872  0.1630  0.1531  0.5252
  851MOL0     C14783   4.674   6.136   4.915 -0.0282 -0.4350  0.2023
  851MOL0     C14784   4.783   6.140   4.830 -0.5848  0.7535  0.0462
  851MOL0     O14785   4.912   6.178   4.850 -0.6534  0.4643 -0.1144
  851MOL0     C14786   4.929   6.283   4.947 -0.2334  0.2158  0.4739
  851MOL0     C14787   4.981   6.221   5.067 -1.2473 -0.2238  0.1137
  851MOL0     C14788   5.108   6.145   5.059 -0.4633 -0.3498 -0.1196
  851MOL0     C14789   5.238   6.200   4.997 -0.9540 -0.8125  0.1361
  851MOL0     C14790   5.304   6.108   4.882 -0.2810  0.4775  0.0350
  851MOL0     C14791   5.408   6.017   4.954  0.1879  0.4824 -0.2169
  851MOL0     C14792   5.456   5.899   4.865  0.5365 -0.0380 -0.1196
  851MOL0     C14793   5.579   5.837   4.915 -0.0142 -0.4470  0.0085
  851MOL0    Cl14794   5.534   5.736   5.058  0.1257 -0.0127 -0.3314
  851MOL0     C14795   4.764   6.102   4.700 -1.0692  1.0928 -0.1939
  851MOL0     C14796   4.638   6.057   4.652  0.1127  0.2175  0.5153
  851MOL0     O14797   4.342   6.242   4.682  0.7370  0.0058 -1.1592
  851MOL0     C14798   4.144   5.958   4.764  0.8590 -0.0398 -0.3537
  851MOL0     C14799   4.011   5.915   4.789  0.1886  0.2930  0.2119
  851MOL0     N14800   3.351   5.578   4.574 -0.1874 -0.0749  0.2960
  851MOL0     N14801   3.263   5.499   4.625  0.0878  0.8541 -0.6941
  851MOL0     C14802   2.358   5.177   5.401 -0.9961  0.2762  0.0819
  851MOL0     C14803   2.226   5.171   5.414  0.6283 -0.4269 -0.2871
  851MOL0     C14804   1.807   5.108   5.247 -0.3076  0.1209  0.1352
  851MOL0     C14805   1.730   5.215   5.289  0.5206  0.8450 -1.3906
  851MOL0     C14806   1.587   5.201   5.308 -0.0492 -0.7780  0.4239
  851MOL0     C14807   1.517   5.084   5.270  0.3718  0.0266  0.6774
  851MOL0     O14808   1.380   5.058   5.281  0.1920 -0.0466  0.4984
  851MOL0     C14809   1.295   5.158   5.341 -0.3968  0.4166  0.4129
  851MOL0     C14810   1.249   5.285   5.262  0.2122 -0.2097 -0.4405
  851MOL0     C14811   1.174   5.265   5.121 -0.5001 -0.3176 -0.7285
  851MOL0     C14812   1.114   5.395   5.085  0.1703  0.2803 -0.0131
  851MOL0     C14813   1.019   5.368   4.975  0.0048 -0.3730  0.4193
  851MOL0     C14814   0.939   5.380   4.886 -0.2878  0.2270 -0.2202
  851MOL0     C14815   1.599   4.981   5.217 -0.1714 -0.4343 -0.3989
  851MOL0     C14816   1.746   4.985   5.204  0.0679 -1.2224 -0.8308
  851MOL0     C14817   1.815   4.863   5.157 -0.7533  0.4812 -0.4914
  851MOL0     H14818   2.131   5.350   5.146  0.2733  0.9197 -0.4016
  851MOL0     H14819   2.374   5.347   5.105  0.3868  0.4019  0.4483
  851MOL0     H14820   2.608   5.414   5.364 -1.2487 -0.0584 -1.5968
  851MOL0     H14821   2.606   5.280   5.474  1.3201 -1.3748  0.1660
  851MOL0     H14822   2.823   5.179   5.366 -2.2819 -0.0088 -1.3441
  851MOL0     H14823   2.822   5.334   5.442 -0.9851  0.4660 -1.4661
  851MOL0     H14824   2.820   5.441   5.225 -1.5579 -0.3481  0.9627
  851MOL0     H14825   2.791   5.290   5.141  0.7210  0.7671 -0.1454
  851MOL0     H14826   3.049   5.370   5.288 -2.9965 -1.0245  1.6509
  851MOL0     H14827   3.025   5.213   5.200  0.0578 -0.0026 -2.6332
  851MOL0     H14828   3.150   5.335   5.050  0.6605  0.3531  0.2191
  851MOL0     H14829   2.978   5.344   4.997 -0.6810 -0.8640  0.9596
  851MOL0     H14830   2.979   5.579   5.079 -0.2118  0.0553  3.3194
  851MOL0     H14831   3.128   5.551   5.158 -1.1309  1.4955 -0.7670
  851MOL0     H14832   3.262   5.528   4.960  0.3047  1.8531  1.9703
  851MOL0     H14833   3.171   5.685   4.954 -0.6784  1.0525 -1.1138
  851MOL0     H14834   3.087   5.435   4.811  0.3984 -0.1739 -1.4831
  851MOL0     H14835   3.018   5.594   4.807 -2.2146 -2.9314  1.0042
  851MOL0     H14836   3.210   5.787   4.764  1.4211 -2.3872  4.1234
  851MOL0     H14837   3.417   5.855   4.476 -0.3016  0.3441 -0.1234
  851MOL0     H14838   3.390   5.923   4.626 -0.0297  0.0461 -0.2116
  851MOL0     H14839   3.616   5.726   4.585  2.6659  1.2156 -0.6022
  851MOL0     H14840   3.633   5.895   4.574  2.3013 -1.1795  0.8771
  851MOL0     H14841   3.557   5.732   4.820 -1.4265 -0.7961 -1.9806
  851MOL0     H14842   3.518   5.909   4.804  0.3831  0.5371  0.6594
  851MOL0     H14843   3.784   5.773   4.758 -0.6755 -2.5304  2.5352
  851MOL0     H14844   3.743   5.848   4.920  1.7921  2.0706 -0.0380
  851MOL0     H14845   3.869   6.230   4.727  0.0959  2.4277  1.9197
  851MOL0     H14846   4.097   6.295   4.703 -2.1023  0.7338 -1.0054
  851MOL0     H14847   4.462   6.094   4.938  0.5807 -3.6396  1.6808
  851MOL0     H14848   4.698   6.170   5.015  0.9280  1.8070 -0.7295
  851MOL0     H14849   5.007   6.352   4.911 -0.9862 -0.6620 -3.2668
  851MOL0     H14850   4.841   6.342   4.972 -0.7792  0.3802 -1.6777
  851MOL0     H14851   4.989   6.294   5.148 -2.0082 -1.2140  1.1023
  851MOL0     H14852   4.905   6.148   5.096  0.3390 -1.8885  0.2417
  851MOL0     H14853   5.143   6.133   5.162  2.7717  0.9182 -0.9486
  851MOL0     H14854   5.090   6.043   5.024  0.5998 -1.4313  2.2693
  851MOL0     H14855   5.310   6.228   5.074  2.1120  1.2952 -3.2337
  851MOL0     H14856   5.217   6.299   4.956  0.8512  0.1785  1.4555
  851MOL0     H14857   5.359   6.170   4.811 -0.9666 -0.0519 -0.9787
  851MOL0     H14858   5.233   6.046   4.828  1.0965 -0.1438 -1.1199
  851MOL0     H14859   5.490   6.069   5.004 -0.7845  1.9327 -0.0691
  851MOL0     H14860   5.343   5.973   5.030  0.4054 -2.9103 -1.8084
  851MOL0     H14861   5.467   5.929   4.760  1.0048 -2.2632 -0.7641
  851MOL0     H14862   5.383   5.817   4.860  1.6991 -1.1683  0.7386
  851MOL0     H14863   5.609   5.763   4.840 -2.4771 -1.9680  0.4005
  851MOL0     H14864   5.657   5.910   4.936  0.1707 -0.9820  1.2716
  851MOL0     H14865   4.850   6.103   4.635 -1.9055 -1.0832 -1.4511
  851MOL0     H14866   4.614   6.043   4.547  1.0414  2.2312 -0.0308
  851MOL0     H14867   4.224   5.885   4.776  0.7400 -0.2126 -0.6053
  851MOL0     H14868   3.999   5.818   4.836  1.0363 -0.1954 -0.5370
  851MOL0     H14869   2.409   5.123   5.479 -1.0677  2.8861  2.0907
  851MOL0     H14870   2.188   5.106   5.492  1.2836 -0.9565 -0.3937
  851MOL0     H14871   1.769   5.314   5.311  0.3165  0.3225  1.8272
  851MOL0     H14872   1.542   5.294   5.340  2.5427  1.1027 -1.0986
  851MOL0     H14873   1.325   5.200   5.438  1.1646 -0.1742  0.2212
  851MOL0     H14874   1.205   5.108   5.378 -0.8897  3.1499  3.2762
  851MOL0     H14875   1.334   5.345   5.228 -0.1544  0.3022 -0.4662
  851MOL0     H14876   1.191   5.343   5.333 -0.4723 -3.1429  1.5949
  851MOL0     H14877   1.095   5.189   5.124 -1.3285  0.2797 -3.9520
  851MOL0     H14878   1.243   5.242   5.039  1.5335 -1.7279  1.2642
  851MOL0     H14879   1.055   5.433   5.169  2.6965  0.6856  1.6597
  851MOL0     H14880   1.198   5.461   5.063  1.4594 -0.0260  3.4809
  851MOL0     H14881   0.867   5.407   4.811  0.6346  0.7987 -0.9327
  851MOL0     H14882   1.552   4.891   5.179  0.4457 -1.5263  1.2890
  851MOL0     H14883   1.840   4.875   5.052 -3.1878 -1.7060 -1.4422
  851MOL0     H14884   1.909   4.839   5.207 -0.1743  3.1475 -0.2000
  851MOL0     H14885   1.756   4.770   5.162 -1.3539  0.9095  1.4675
  852MOL0     O14886   9.832  11.056   0.813  0.5292  0.4273  0.0998
  852MOL0     C14887   9.761  11.149   0.760  0.7823 -0.3476  0.0918
  852MOL0     O14888   9.770  11.290   0.788 -1.4933 -0.0384  0.8630
  852MOL0     C14889   9.855  11.312   0.891  0.0915  0.3249 -0.5684
  852MOL0     C14890   9.808  11.378   1.003 -0.4369  0.7371  0.6966
  852MOL0     C14891   9.885  11.407   1.116 -0.0289 -0.1961 -0.6050
  852MOL0     C14892  10.023  11.394   1.112 -1.2219 -0.1513  0.4799
  852MOL0     O14893  10.109  11.436   1.211  0.0756 -0.2346  0.2400
  852MOL0     C14894  10.062  11.430   1.342  0.1543  0.1264  0.1966
  852MOL0     C14895  10.169  11.461   1.448  0.1243  0.6053  0.0581
  852MOL0     C14896  10.204  11.602   1.440 -0.5765 -0.2420  0.1678
  852MOL0     C14897  10.335  11.633   1.524 -0.4628 -0.1423 -0.3036
  852MOL0     C14898  10.366  11.777   1.528 -0.5423  0.2546  0.2666
  852MOL0     C14899  10.522  11.800   1.541  0.4451 -0.5225 -0.2934
  852MOL0     C14900  10.608  11.751   1.430 -0.7253 -0.3692  0.6815
  852MOL0     C14901  10.750  11.801   1.461  0.4689 -0.1531  0.8822
  852MOL0     N14902  10.841  11.794   1.345  0.5356  1.2675  0.4184
  852MOL0     C14903  10.819  11.725   1.231 -0.0951 -0.0422 -0.0932
  852MOL0     C14904  10.928  11.754   1.161 -0.4174 -0.5811  0.4719
  852MOL0     C14905  10.963  11.699   1.022  0.2910 -1.0654 -0.3673
  852MOL0     C14906  11.107  11.668   1.006 -0.7093  0.3935 -0.3275
  852MOL0     C14907  11.148  11.635   0.858  0.0467  0.3645  0.7025
  852MOL0     C14908  11.100  11.494   0.825  0.1552  0.8903  0.7347
  852MOL0     O14909  11.039  11.497   0.690  0.0350  0.7068 -0.1097
  852MOL0     C14910  10.977  11.379   0.655 -0.3248  0.3922 -0.4787
  852MOL0     C14911  10.933  11.275   0.747 -0.2255  0.0377 -0.6861
  852MOL0     C14912  10.868  11.162   0.701 -0.1756  0.0085 -0.1471
  852MOL0     C14913  10.859  11.137   0.563  0.4164 -0.2945 -0.1374
  852MOL0     C14914  10.794  11.013   0.519  0.2206 -0.8609 -0.0155
  852MOL0     O14915  10.789  10.923   0.612  0.6318  0.6692 -0.1830
  852MOL0     C14916  10.740  10.802   0.582  0.9786 -0.7326  0.1606
  852MOL0     C14917  10.775  10.727   0.466  0.1132  0.3574 -0.0646
  852MOL0     C14918  10.693  10.615   0.438 -0.1154  0.6276  0.4970
  852MOL0     C14919  10.595  10.567   0.534 -0.4313  0.1251  0.1815
  852MOL0     O14920  10.536  10.448   0.518  0.4917  0.2686  0.1813
  852MOL0     C14921  10.617  10.327   0.507  0.0466 -0.0288  0.2960
  852MOL0     C14922  10.524  10.205   0.504  0.9724 -0.3708  0.6837
  852MOL0     C14923  10.444  10.211   0.372 -1.1704 -0.5227 -0.5551
  852MOL0     C14924  10.339  10.109   0.350  0.2138 -0.1660 -0.2817
  852MOL0     C14925  10.302  10.121   0.207  0.0742 -0.2847 -0.1350
  852MOL0     C14926  10.188  10.019   0.168  0.1282 -0.4930 -0.6426
  852MOL0     C14927  10.178  10.018   0.016  0.2781  0.0537  1.3479
  852MOL0     C14928  10.139  10.159  -0.041 -0.7021  0.9791  0.2888
  852MOL0    Cl14929   9.988  10.202   0.038  0.3388  0.7082  0.0740
  852MOL0     C14930  10.568  10.641   0.642 -0.7735 -0.6694  0.7506
  852MOL0     C14931  10.639  10.759   0.670 -0.1188 -0.4143  0.0971
  852MOL0     O14932  10.769  10.999   0.402 -0.0801  0.1327  0.2180
  852MOL0     C14933  10.906  11.237   0.474 -0.1049 -0.3234  0.3711
  852MOL0     C14934  10.969  11.355   0.518  0.3026 -0.1896 -0.2188
  852MOL0     N14935  11.000  11.854   1.223  0.4185  0.4104  0.7949
  852MOL0     N14936  10.957  11.871   1.339 -0.6360 -0.6273  0.4773
  852MOL0     C14937  10.077  11.340   0.991  0.2647  0.0618 -0.6669
  852MOL0     C14938   9.993  11.289   0.890  0.3360 -0.6575 -0.6441
  852MOL0     C14939   9.664  11.122   0.655 -0.5358  0.9431  0.0434
  852MOL0     C14940   9.540  11.174   0.668 -0.3503 -0.2289  1.0330
  852MOL0     C14941   9.445  11.137   0.575 -0.2081 -0.5172 -0.2695
  852MOL0     C14942   9.471  11.066   0.458  0.5649 -0.4882  0.7412
  852MOL0     O14943   9.375  11.042   0.355  0.3211 -0.4849 -0.6453
  852MOL0     C14944   9.400  10.943   0.244  0.3165  0.0607 -0.4409
  852MOL0     C14945   9.500  10.981   0.128 -0.7614 -0.5911 -0.4165
  852MOL0     C14946   9.535  10.864   0.034  0.1773 -0.2326 -0.7546
  852MOL0     C14947   9.418  10.829  -0.059  0.1060  0.2243 -0.9572
  852MOL0     C14948   9.372  10.934  -0.148 -0.2153 -0.3560  0.0343
  852MOL0     C14949   9.345  11.015  -0.233  0.4662 -0.4351  0.2951
  852MOL0     C14950   9.593  10.996   0.460  0.4931 -0.0796 -0.5045
  852MOL0     C14951   9.693  11.019   0.557 -0.3209  0.3057  0.4402
  852MOL0     C14952   9.829  10.945   0.533  0.8897 -0.6062 -0.8887
  852MOL0     H14953   9.707  11.416   1.021 -0.3669  2.1763 -1.6028
  852MOL0     H14954   9.838  11.453   1.202 -0.1578 -2.9877  0.9441
  852MOL0     H14955   9.985  11.507   1.340  0.4855  0.4753 -2.2222
  852MOL0     H14956  10.013  11.333   1.356 -6.6445  2.7325 -1.6570
  852MOL0     H14957  10.258  11.398   1.446 -0.3534 -0.1526  1.3904
  852MOL0     H14958  10.132  11.439   1.549  3.9900  1.7536  1.9129
  852MOL0     H14959  10.125  11.662   1.486  0.3256  1.2357 -0.1618
  852MOL0     H14960  10.218  11.644   1.340 -1.8251  0.5207  0.2998
  852MOL0     H14961  10.335  11.595   1.627 -2.1346 -0.9230 -0.5638
  852MOL0     H14962  10.411  11.580   1.465 -0.5377  0.0907 -0.6139
  852MOL0     H14963  10.335  11.816   1.430 -1.7429  1.6702  1.1707
  852MOL0     H14964  10.305  11.828   1.603  0.2477  1.6698 -0.0173
  852MOL0     H14965  10.537  11.904   1.573 -0.0608 -1.4972  3.6485
  852MOL0     H14966  10.554  11.747   1.631  1.4620  0.1246 -0.2520
  852MOL0     H14967  10.579  11.793   1.333  4.0824  1.2108 -0.3537
  852MOL0     H14968  10.603  11.642   1.429 -1.0033 -0.3570 -0.4393
  852MOL0     H14969  10.758  11.904   1.499 -2.5184  0.8232 -0.8155
  852MOL0     H14970  10.798  11.748   1.545  0.4476 -0.0536  0.9576
  852MOL0     H14971  10.756  11.640   1.209  0.8400 -0.2526 -2.2106
  852MOL0     H14972  10.899  11.612   1.001 -0.5952 -0.8370  1.2416
  852MOL0     H14973  10.937  11.775   0.947  2.5973  2.5801  2.2424
  852MOL0     H14974  11.166  11.750   1.048  0.6870 -0.2862 -0.8861
  852MOL0     H14975  11.134  11.584   1.070  0.0435  0.8847  0.0143
  852MOL0     H14976  11.256  11.642   0.839  0.2690  0.2949  1.8936
  852MOL0     H14977  11.097  11.704   0.790  0.8935 -0.1455 -0.4796
  852MOL0     H14978  11.040  11.464   0.912  2.6933  4.2463  3.9903
  852MOL0     H14979  11.184  11.424   0.819 -1.4618 -1.1179  0.5784
  852MOL0     H14980  10.939  11.284   0.855  0.9748  2.1980 -0.8901
  852MOL0     H14981  10.826  11.098   0.778  2.3570 -0.0019  1.3240
  852MOL0     H14982  10.855  10.764   0.404 -0.0803 -1.1832 -1.3060
  852MOL0     H14983  10.719  10.563   0.346  1.4153  1.8343  0.1960
  852MOL0     H14984  10.689  10.329   0.424  1.5200 -0.9974  1.4819
  852MOL0     H14985  10.673  10.305   0.599 -2.4897  0.0341  1.9486
  852MOL0     H14986  10.588  10.116   0.506  1.0474 -0.4764 -2.3763
  852MOL0     H14987  10.447  10.212   0.582 -0.3647  0.8444 -0.6595
  852MOL0     H14988  10.402  10.310   0.353 -2.1304 -1.2732 -2.7367
  852MOL0     H14989  10.520  10.210   0.293  1.2908  0.9025  1.6245
  852MOL0     H14990  10.254  10.135   0.413 -1.5141  0.2689 -2.6414
  852MOL0     H14991  10.381  10.014   0.384 -1.7045  0.2267  3.7796
  852MOL0     H14992  10.389  10.094   0.146 -0.8086  0.5100 -1.7989
  852MOL0     H14993  10.284  10.227   0.186  1.4232 -0.4211 -2.2504
  852MOL0     H14994  10.212   9.919   0.206  1.2221  0.8719  2.7019
  852MOL0     H14995  10.092  10.053   0.207  0.5614  1.4052 -1.1324
  852MOL0     H14996  10.093   9.951  -0.002 -0.5318  1.6744 -1.3421
  852MOL0     H14997  10.271   9.977  -0.022 -1.8982  0.3005 -5.5660
  852MOL0     H14998  10.217  10.221   0.003  0.8495  0.2026 -1.2365
  852MOL0     H14999  10.135  10.150  -0.150  3.3851  1.3991 -0.0402
  852MOL0     H15000  10.490  10.601   0.706  0.4983 -2.1829  1.4256
  852MOL0     H15001  10.618  10.819   0.758 -0.9126 -1.4179  0.6080
  852MOL0     H15002  10.876  11.227   0.370  2.7419 -0.4291 -0.5252
  852MOL0     H15003  11.009  11.437   0.459  0.5383  1.1013  1.6507
  852MOL0     H15004  10.186  11.339   0.986  0.4049  2.2597  0.8304
  852MOL0     H15005  10.039  11.243   0.804 -0.8499 -1.0589 -1.0817
  852MOL0     H15006   9.510  11.240   0.748 -1.5900  1.8236 -1.0085
  852MOL0     H15007   9.346  11.180   0.573 -0.7047 -1.6150 -2.8952
  852MOL0     H15008   9.305  10.938   0.190  1.3249  1.2842 -2.4277
  852MOL0     H15009   9.417  10.844   0.287 -0.3805  0.1949  0.1714
  852MOL0     H15010   9.590  11.014   0.182 -0.1516  1.8186 -2.6958
  852MOL0     H15011   9.465  11.054   0.054  0.7881 -0.4932 -1.0889
  852MOL0     H15012   9.566  10.777   0.092  0.8745 -0.1021 -0.9239
  852MOL0     H15013   9.619  10.900  -0.026  0.1021  0.8619 -0.2225
  852MOL0     H15014   9.453  10.749  -0.125  2.6559  1.1032 -0.7980
  852MOL0     H15015   9.339  10.786   0.003  2.9154 -1.6855  1.5763
  852MOL0     H15016   9.327  11.083  -0.314  0.5443 -0.8893 -0.1105
  852MOL0     H15017   9.618  10.928   0.379 -2.0377  0.3459 -1.7440
  852MOL0     H15018   9.902  10.984   0.461  1.4550 -2.1551 -1.2045
  852MOL0     H15019   9.883  10.942   0.628 -1.5587 -1.1130  0.5476
  852MOL0     H15020   9.796  10.844   0.508 -1.0486 -0.9636  2.5935
  853MOL0     O15021   3.782   7.445   9.707 -0.5677  0.2596 -0.4940
  853MOL0     C15022   3.815   7.546   9.769  0.2465 -0.3432 -0.6498
  853MOL0     O15023   3.913   7.632   9.730 -1.0243  0.6901 -0.1988
  853MOL0     C15024   3.989   7.609   9.617  0.9461  0.2122  0.7526
  853MOL0     C15025   4.110   7.549   9.634  0.5255  0.1027 -0.1823
  853MOL0     C15026   4.186   7.520   9.524  0.8499 -0.0258 -0.6132
  853MOL0     C15027   4.147   7.545   9.393  0.8796  0.7475  0.2138
  853MOL0     O15028   4.246   7.521   9.300 -0.5222  0.3945 -0.2000
  853MOL0     C15029   4.221   7.511   9.159 -0.6813 -0.2262  0.0192
  853MOL0     C15030   4.345   7.563   9.082  0.1991  1.1291 -0.6811
  853MOL0     C15031   4.322   7.580   8.927  0.0103  0.4530 -0.0116
  853MOL0     C15032   4.451   7.626   8.880 -0.1082  0.8811 -0.2309
  853MOL0     C15033   4.441   7.656   8.730 -0.4825 -0.0455  0.0499
  853MOL0     C15034   4.572   7.722   8.680 -0.9474  0.2488  0.5173
  853MOL0     C15035   4.540   7.834   8.578 -0.9403 -0.2207 -0.0939
  853MOL0     C15036   4.554   7.983   8.633 -0.2505  0.9534  0.3043
  853MOL0     N15037   4.527   8.086   8.531  0.0600  0.6470  1.2010
  853MOL0     C15038   4.502   8.216   8.562 -0.4695 -0.0614 -0.2731
  853MOL0     C15039   4.489   8.277   8.437 -0.0969  0.1069  0.0443
  853MOL0     C15040   4.455   8.420   8.400 -0.8405 -0.2382 -0.0784
  853MOL0     C15041   4.336   8.492   8.459 -0.3123  0.5802  0.1589
  853MOL0     C15042   4.328   8.476   8.613 -0.1258 -0.1865 -0.3346
  853MOL0     C15043   4.231   8.591   8.659  0.6294  0.0800  0.5954
  853MOL0     O15044   4.103   8.600   8.588 -0.6053 -0.0362 -0.1169
  853MOL0     C15045   4.014   8.506   8.596  0.3190  0.4724 -0.0640
  853MOL0     C15046   3.990   8.422   8.706  0.5407 -0.7565 -0.1615
  853MOL0     C15047   3.876   8.330   8.708 -0.1093  0.8884  0.4180
  853MOL0     C15048   3.786   8.331   8.599  0.4117  0.2017 -0.1411
  853MOL0     C15049   3.653   8.269   8.609 -0.0499 -0.0062  0.3559
  853MOL0     O15050   3.583   8.255   8.501  0.3315 -0.1282 -0.7336
  853MOL0     C15051   3.447   8.247   8.503 -0.3882 -0.1929 -1.0384
  853MOL0     C15052   3.359   8.302   8.598 -0.0116  0.4679 -0.2999
  853MOL0     C15053   3.222   8.271   8.591 -0.0162  0.6762  0.3258
  853MOL0     C15054   3.172   8.198   8.487  0.4239  0.2391 -0.2156
  853MOL0     O15055   3.037   8.168   8.492 -0.1482 -0.0303 -0.0182
  853MOL0     C15056   2.978   8.089   8.387 -0.5130  0.0285 -0.5254
  853MOL0     C15057   2.842   8.039   8.440  0.2393  0.9248 -0.2682
  853MOL0     C15058   2.761   7.942   8.359  0.2964  0.0495 -0.0312
  853MOL0     C15059   2.810   7.790   8.358  0.8064 -1.1316 -0.3334
  853MOL0     C15060   2.856   7.739   8.229  0.8316 -0.3680 -0.1450
  853MOL0     C15061   2.979   7.807   8.174 -0.2642 -0.4015 -0.0083
  853MOL0     C15062   3.018   7.750   8.043 -1.1748  0.1603  1.5230
  853MOL0     C15063   3.172   7.768   8.026  0.9804 -0.3121 -0.4539
  853MOL0    Cl15064   3.274   7.688   8.152  0.7287 -0.1206  0.2841
  853MOL0     C15065   3.264   8.139   8.397 -0.0844 -0.4001 -0.0210
  853MOL0     C15066   3.400   8.171   8.405  0.7051  0.3588  0.2339
  853MOL0     O15067   3.618   8.253   8.720 -0.3674 -0.1648  0.5244
  853MOL0     C15068   3.805   8.415   8.487 -0.2136  0.5881  0.0187
  853MOL0     C15069   3.916   8.494   8.485 -0.2642 -0.0775 -0.2282
  853MOL0     N15070   4.498   8.186   8.343  0.4873 -0.2253  0.5232
  853MOL0     N15071   4.528   8.071   8.392  0.5204 -0.0970 -0.2176
  853MOL0     C15072   4.015   7.602   9.373 -0.4792 -0.2603  1.4500
  853MOL0     C15073   3.939   7.619   9.482 -0.1836 -0.5819 -0.1041
  853MOL0     C15074   3.722   7.591   9.879  0.3344 -0.2995 -0.8097
  853MOL0     C15075   3.734   7.730   9.920  0.2541 -0.6408 -0.3542
  853MOL0     C15076   3.663   7.784  10.029  0.3997 -0.0089 -1.0080
  853MOL0     C15077   3.576   7.703  10.103  0.0239  0.5273 -1.7642
  853MOL0     O15078   3.521   7.768  10.216  0.0790 -0.1901  0.2812
  853MOL0     C15079   3.466   7.694  10.322 -0.0665  0.1973  0.3004
  853MOL0     C15080   3.395   7.785  10.422  0.5699 -0.2342 -0.9687
  853MOL0     C15081   3.342   7.716  10.553  0.1258  0.0449 -0.2737
  853MOL0     C15082   3.216   7.632  10.527  0.0880  0.6296 -0.1525
  853MOL0     C15083   3.152   7.584  10.647 -0.0542  0.6940 -0.1774
  853MOL0     C15084   3.109   7.560  10.758  0.0079 -0.3670 -0.3850
  853MOL0     C15085   3.572   7.568  10.066 -0.7516 -0.3550 -0.5325
  853MOL0     C15086   3.639   7.509   9.960  0.2423  0.0482  0.1998
  853MOL0     C15087   3.618   7.362   9.935 -0.6739 -1.0152 -0.6831
  853MOL0     H15088   4.154   7.532   9.732 -1.9688 -1.4177  0.7619
  853MOL0     H15089   4.276   7.463   9.539  0.5613 -0.2593  0.2748
  853MOL0     H15090   4.189   7.408   9.138  0.5120 -0.3422 -1.3789
  853MOL0     H15091   4.138   7.572   9.122 -1.1168 -1.0355 -0.3635
  853MOL0     H15092   4.411   7.479   9.107 -1.0859  0.2178 -0.2101
  853MOL0     H15093   4.385   7.658   9.120  3.2158  1.2849 -3.7939
  853MOL0     H15094   4.246   7.655   8.900 -1.6804 -2.2250 -3.3586
  853MOL0     H15095   4.295   7.486   8.879  4.6422 -0.7151 -0.7379
  853MOL0     H15096   4.480   7.714   8.938 -0.9048  0.2967  1.0904
  853MOL0     H15097   4.519   7.543   8.902 -0.6349 -0.1787 -2.3152
  853MOL0     H15098   4.409   7.569   8.672 -0.0966 -0.7745  0.9145
  853MOL0     H15099   4.359   7.727   8.714 -2.0565 -2.0548 -1.1833
  853MOL0     H15100   4.636   7.768   8.756 -1.2312  0.7926  0.4339
  853MOL0     H15101   4.621   7.637   8.632 -3.7666 -1.0738 -0.2108
  853MOL0     H15102   4.444   7.809   8.531  1.3289 -4.0175 -3.2660
  853MOL0     H15103   4.621   7.832   8.506 -1.1767  2.4927 -0.5319
  853MOL0     H15104   4.483   7.985   8.716  0.0902 -0.2358  0.6311
  853MOL0     H15105   4.653   7.999   8.677  0.1300  0.6784 -0.4291
  853MOL0     H15106   4.511   8.263   8.659  0.6286 -0.5134 -0.1371
  853MOL0     H15107   4.547   8.471   8.431 -0.0406 -1.2895 -0.6645
  853MOL0     H15108   4.459   8.428   8.291  1.1148  0.6192  0.0075
  853MOL0     H15109   4.340   8.600   8.441 -2.6686  1.4850  3.8852
  853MOL0     H15110   4.244   8.452   8.415  0.3502 -1.4463  0.5069
  853MOL0     H15111   4.426   8.478   8.661 -0.9431  0.8880  1.3802
  853MOL0     H15112   4.283   8.381   8.643  0.2657 -0.1832  0.2682
  853MOL0     H15113   4.274   8.688   8.636  1.2584  0.0988  1.7506
  853MOL0     H15114   4.218   8.581   8.767 -0.3887 -1.1490  0.3854
  853MOL0     H15115   4.057   8.422   8.790 -0.6095  1.8489  0.8872
  853MOL0     H15116   3.848   8.275   8.798 -2.5328  0.7278 -0.3794
  853MOL0     H15117   3.385   8.368   8.679  1.2346  0.9546 -1.0627
  853MOL0     H15118   3.162   8.302   8.676 -1.3639  0.9025 -0.6802
  853MOL0     H15119   2.975   8.137   8.288 -0.4184  2.4003  0.5381
  853MOL0     H15120   3.042   8.001   8.374  0.6472  0.7668 -0.0291
  853MOL0     H15121   2.865   7.989   8.535 -1.4763  1.9690  0.7541
  853MOL0     H15122   2.785   8.129   8.465  0.5398  1.4125 -1.2794
  853MOL0     H15123   2.652   7.937   8.360  0.3456 -3.1990 -0.7861
  853MOL0     H15124   2.770   7.986   8.259 -2.2456  1.7066  0.3665
  853MOL0     H15125   2.731   7.727   8.400 -0.1586 -0.0292 -0.4280
  853MOL0     H15126   2.890   7.783   8.432 -0.8893 -5.4466  1.3998
  853MOL0     H15127   2.780   7.742   8.150  0.9223 -0.9419 -0.2556
  853MOL0     H15128   2.877   7.634   8.253 -1.4541 -0.8342  0.0393
  853MOL0     H15129   2.977   7.916   8.184  2.8228 -0.1286 -1.2377
  853MOL0     H15130   3.055   7.779   8.248  0.6361 -0.7280 -1.0239
  853MOL0     H15131   2.972   7.803   7.959  0.4810 -0.5228  0.1199
  853MOL0     H15132   2.981   7.649   8.026 -0.3480  0.1194 -0.2576
  853MOL0     H15133   3.198   7.721   7.930  0.1106  1.0156 -1.3724
  853MOL0     H15134   3.194   7.875   8.023  1.0789 -0.1655  2.6311
  853MOL0     H15135   3.250   8.060   8.324  5.1574 -1.3338 -0.4428
  853MOL0     H15136   3.468   8.129   8.332  1.1294  0.3913  0.6125
  853MOL0     H15137   3.746   8.424   8.396  0.2687  2.4617 -0.1605
  853MOL0     H15138   3.937   8.571   8.411  0.7041  3.1276  3.0649
  853MOL0     H15139   3.984   7.628   9.272  0.3334 -2.8778  0.4432
  853MOL0     H15140   3.842   7.667   9.468 -0.0460 -1.0471 -3.2870
  853MOL0     H15141   3.805   7.797   9.874 -0.2256  0.5129  0.5469
  853MOL0     H15142   3.673   7.889  10.053 -1.5815 -0.0178  0.0968
  853MOL0     H15143   3.550   7.646  10.372 -0.9483 -1.8815 -0.1175
  853MOL0     H15144   3.403   7.610  10.291  0.4975 -1.3032  2.9435
  853MOL0     H15145   3.317   7.839  10.368  1.0619  0.7271 -0.7366
  853MOL0     H15146   3.458   7.872  10.441  2.1201 -0.3619 -4.7316
  853MOL0     H15147   3.302   7.794  10.618  0.0601  2.2458 -2.7819
  853MOL0     H15148   3.422   7.655  10.595  0.2324 -0.5011 -1.2480
  853MOL0     H15149   3.140   7.693  10.477  0.1603  1.8151  1.1352
  853MOL0     H15150   3.254   7.558  10.457  2.6269  0.1903  1.5699
  853MOL0     H15151   3.068   7.541  10.855 -1.4791 -0.5507 -1.0281
  853MOL0     H15152   3.515   7.504  10.132 -0.6286  1.7458  1.7449
  853MOL0     H15153   3.705   7.307   9.973  0.4979  1.2774  0.0802
  853MOL0     H15154   3.527   7.331   9.988  0.2762 -1.1953  0.9075
  853MOL0     H15155   3.599   7.330   9.833 -0.5654 -1.5406 -0.5427
  854MOL0     O15156   7.041   0.749  10.494 -0.0392  0.1063  0.1077
  854MOL0     C15157   7.009   0.776  10.612  0.0855  0.1734  0.2346
  854MOL0     O15158   7.081   0.847  10.705 -0.1558 -0.1108  0.4628
  854MOL0     C15159   7.213   0.878  10.700 -0.3686  0.0372  1.1736
  854MOL0     C15160   7.306   0.798  10.618  0.3698  0.1990  0.1182
  854MOL0     C15161   7.436   0.840  10.606  0.1067  0.8072 -0.3031
  854MOL0     C15162   7.474   0.947  10.682 -1.2102 -0.9652 -1.0526
  854MOL0     O15163   7.608   0.984  10.674 -0.7183  0.4865 -0.1377
  854MOL0     C15164   7.673   1.080  10.763 -0.4462  0.4964 -0.4320
  854MOL0     C15165   7.701   1.021  10.900 -0.3772  0.5159 -0.1085
  854MOL0     C15166   7.595   1.052  10.999  0.0061  0.0697  0.1188
  854MOL0     C15167   7.643   1.011  11.140  0.3940 -0.1007 -0.1154
  854MOL0     C15168   7.580   1.090  11.260 -0.0838 -0.4535  0.1125
  854MOL0     C15169   7.625   1.239  11.271  0.3888 -0.1805 -0.2185
  854MOL0     C15170   7.540   1.315  11.383  0.3403 -0.5258  0.5598
  854MOL0     C15171   7.602   1.440  11.449  0.7683 -0.3507 -0.1951
  854MOL0     N15172   7.634   1.545  11.358 -0.0054 -0.2814 -0.1033
  854MOL0     C15173   7.562   1.593  11.256  0.1979 -1.2706  0.1741
  854MOL0     C15174   7.617   1.712  11.222  0.4717 -0.0129 -0.0717
  854MOL0     C15175   7.560   1.799  11.117  0.4659  0.9339 -0.8815
  854MOL0     C15176   7.663   1.892  11.052  0.1022  0.0215  0.7287
  854MOL0     C15177   7.590   1.975  10.957  0.3805 -0.3310  0.0991
  854MOL0     C15178   7.678   2.045  10.857 -0.4181  0.5995 -0.6626
  854MOL0     O15179   7.737   1.947  10.765 -0.0437  0.7288  0.0380
  854MOL0     C15180   7.811   1.998  10.652  0.4235  0.1544 -0.0721
  854MOL0     C15181   7.824   2.136  10.633 -0.4845 -1.1528 -0.4204
  854MOL0     C15182   7.884   2.188  10.519 -0.3237  0.4076 -0.3699
  854MOL0     C15183   7.934   2.101  10.424  0.6956  0.7326 -0.3121
  854MOL0     C15184   7.990   2.139  10.302 -0.1744 -0.4504  0.7165
  854MOL0     O15185   8.074   2.060  10.244 -0.3696  0.1002  0.3651
  854MOL0     C15186   8.134   2.086  10.124 -0.1509 -0.5486  0.8595
  854MOL0     C15187   8.071   2.137  10.008  0.5959  0.8553 -0.2026
  854MOL0     C15188   8.134   2.141   9.884  0.0331  0.4198  0.6151
  854MOL0     C15189   8.264   2.087   9.867  0.0248  1.0156 -0.6723
  854MOL0     O15190   8.314   2.077   9.737 -0.5451 -0.1323 -0.4206
  854MOL0     C15191   8.402   2.188   9.694  0.7756  1.0267  0.4414
  854MOL0     C15192   8.547   2.147   9.702 -0.2060 -0.7126  0.0135
  854MOL0     C15193   8.603   2.097   9.563  0.3701  0.0064  0.3856
  854MOL0     C15194   8.763   2.087   9.566  0.3191  0.8558  0.1179
  854MOL0     C15195   8.809   2.054   9.426  0.0794 -0.0944 -0.2112
  854MOL0     C15196   8.962   2.025   9.419  0.5612 -0.4735  0.4521
  854MOL0     C15197   8.989   1.969   9.270 -0.0215  0.0328 -1.2260
  854MOL0     C15198   9.139   1.914   9.264 -0.4064 -0.3136 -0.1792
  854MOL0    Cl15199   9.268   2.034   9.323  0.2837  0.3735  0.0661
  854MOL0     C15200   8.334   2.045   9.983  0.9394 -0.2453 -0.5165
  854MOL0     C15201   8.275   2.053  10.111  0.3586  1.0211 -0.1352
  854MOL0     O15202   7.955   2.249  10.262  1.1110 -0.7063 -0.1355
  854MOL0     C15203   7.915   1.963  10.442 -0.5096  1.1821  0.7372
  854MOL0     C15204   7.857   1.918  10.552 -0.5863  0.6194  0.9570
  854MOL0     N15205   7.713   1.743  11.319  0.1141 -0.3644  0.0517
  854MOL0     N15206   7.730   1.638  11.398  0.3039  0.0137  0.9766
  854MOL0     C15207   7.386   1.022  10.759 -0.0852  0.0078  0.6301
  854MOL0     C15208   7.251   0.979  10.782  0.3025 -1.0731  0.9462
  854MOL0     C15209   6.870   0.731  10.658 -0.4324  0.1571  0.6528
  854MOL0     C15210   6.755   0.757  10.587  0.4498  0.8549 -0.1567
  854MOL0     C15211   6.625   0.735  10.632 -0.6095 -0.5406 -0.3260
  854MOL0     C15212   6.608   0.683  10.758 -0.8154  0.4091  0.5943
  854MOL0     O15213   6.484   0.660  10.816 -1.0752 -0.3951  0.5663
  854MOL0     C15214   6.363   0.691  10.738  1.2426  0.1292  0.5137
  854MOL0     C15215   6.237   0.652  10.799 -0.3161 -0.5184  0.3808
  854MOL0     C15216   6.199   0.500  10.770 -0.5998  0.4566 -1.1345
  854MOL0     C15217   6.056   0.471  10.778  0.6119  0.4471 -0.5974
  854MOL0     C15218   5.996   0.457  10.646  0.3636  0.7206  0.2385
  854MOL0     C15219   5.949   0.446  10.531  0.4673 -1.2235  0.2120
  854MOL0     C15220   6.719   0.643  10.831 -0.4358 -0.3826 -0.2014
  854MOL0     C15221   6.848   0.671  10.787 -0.8652 -0.3617  0.8485
  854MOL0     C15222   6.964   0.635  10.883  0.5496 -0.0576 -0.0661
  854MOL0     H15223   7.268   0.709  10.568 -2.1419  1.3980 -0.2659
  854MOL0     H15224   7.513   0.790  10.548 -1.2825 -0.6776 -0.9158
  854MOL0     H15225   7.761   1.102  10.703 -0.4179  1.7390  0.0360
  854MOL0     H15226   7.615   1.173  10.770 -2.1967 -0.6259  1.2438
  854MOL0     H15227   7.792   1.071  10.933  1.4034 -0.6026 -2.8831
  854MOL0     H15228   7.713   0.913  10.890  0.2304  0.5455  0.2889
  854MOL0     H15229   7.510   0.988  10.975  0.8397 -1.4244  1.0053
  854MOL0     H15230   7.581   1.160  10.999  3.9543  1.0034  5.3015
  854MOL0     H15231   7.611   0.910  11.167  1.9888 -0.4022  0.7705
  854MOL0     H15232   7.752   1.004  11.148  0.3900 -1.1971 -0.8494
  854MOL0     H15233   7.472   1.097  11.246 -0.4569 -2.9798  1.3254
  854MOL0     H15234   7.606   1.051  11.359  1.0245  1.3160  0.5698
  854MOL0     H15235   7.733   1.251  11.287  0.2389  0.0442  0.7248
  854MOL0     H15236   7.597   1.287  11.177  0.8186 -1.0842 -0.8250
  854MOL0     H15237   7.520   1.267  11.479 -2.5504  3.1668  2.0735
  854MOL0     H15238   7.447   1.351  11.339  0.3998 -0.7627  0.2477
  854MOL0     H15239   7.530   1.470  11.526 -0.4011 -0.9455 -1.0228
  854MOL0     H15240   7.696   1.420  11.501  0.7914 -0.0571 -0.1220
  854MOL0     H15241   7.474   1.554  11.207 -0.4883  0.1184  0.2605
  854MOL0     H15242   7.510   1.736  11.043  0.8392 -0.1750 -0.2193
  854MOL0     H15243   7.492   1.865  11.172  0.6275  1.0967 -0.8747
  854MOL0     H15244   7.734   1.944  11.116  0.3558 -0.4722  0.8584
  854MOL0     H15245   7.730   1.822  11.001 -0.9206 -1.4817  1.3635
  854MOL0     H15246   7.527   2.049  11.008  2.9255  3.6985 -2.0397
  854MOL0     H15247   7.528   1.903  10.902 -0.8205  0.6397  0.1533
  854MOL0     H15248   7.753   2.104  10.911 -0.7437  1.2126 -0.8770
  854MOL0     H15249   7.622   2.123  10.805  0.2215  0.2826 -1.8798
  854MOL0     H15250   7.804   2.214  10.707  0.6029 -0.2780 -1.0179
  854MOL0     H15251   7.893   2.296  10.511  0.9893  0.2422 -1.4613
  854MOL0     H15252   7.967   2.167  10.012  0.4975  0.4103  0.6873
  854MOL0     H15253   8.073   2.151   9.795 -2.1441 -2.8644  1.5558
  854MOL0     H15254   8.385   2.220   9.591  4.3105 -1.1999 -1.0327
  854MOL0     H15255   8.376   2.273   9.757  0.0945 -0.6359  2.5342
  854MOL0     H15256   8.603   2.235   9.735 -1.0508 -0.4276  0.7216
  854MOL0     H15257   8.564   2.065   9.773 -0.5475 -1.6110 -0.9167
  854MOL0     H15258   8.573   1.995   9.536  0.8090 -0.5666  1.9223
  854MOL0     H15259   8.582   2.176   9.490  5.3034  0.9762 -0.3555
  854MOL0     H15260   8.802   2.014   9.638  0.3805  0.0327 -0.7334
  854MOL0     H15261   8.793   2.187   9.597  0.4826  0.3312  1.7644
  854MOL0     H15262   8.786   2.138   9.359  3.2387 -0.5098 -1.9791
  854MOL0     H15263   8.758   1.963   9.394  1.6573 -0.6598 -1.2491
  854MOL0     H15264   9.026   2.106   9.455 -2.9539  2.4136  0.8070
  854MOL0     H15265   8.974   1.938   9.485  1.7946 -2.1879 -1.8895
  854MOL0     H15266   8.988   2.059   9.208  1.8773 -0.7834 -2.5393
  854MOL0     H15267   8.918   1.895   9.232 -1.3794  0.6005  0.0849
  854MOL0     H15268   9.150   1.827   9.330  2.4499  0.3510  0.3366
  854MOL0     H15269   9.158   1.877   9.162  2.6937  0.3310  0.0843
  854MOL0     H15270   8.435   2.011   9.963  1.0957 -0.9932  1.3950
  854MOL0     H15271   8.337   2.042  10.200 -0.6780  0.1198  0.5137
  854MOL0     H15272   7.951   1.891  10.369 -1.9903  2.2882 -1.1808
  854MOL0     H15273   7.839   1.812  10.570  0.9189  0.6311  2.8905
  854MOL0     H15274   7.431   1.114  10.797  1.2368 -0.3511 -0.0266
  854MOL0     H15275   7.177   1.026  10.846 -1.4387 -0.0710 -1.6270
  854MOL0     H15276   6.765   0.800  10.488  1.2339  0.5468 -0.2174
  854MOL0     H15277   6.539   0.777  10.581  0.6717  2.4339 -0.3034
  854MOL0     H15278   6.371   0.638  10.643  2.8081  1.4125 -0.1113
  854MOL0     H15279   6.356   0.799  10.723  0.7412  0.3185  1.9336
  854MOL0     H15280   6.162   0.721  10.758 -0.2957  0.4984  1.9644
  854MOL0     H15281   6.261   0.670  10.904  2.0847  0.3188 -0.2486
  854MOL0     H15282   6.256   0.447  10.847 -0.1769  0.9204 -1.1211
  854MOL0     H15283   6.231   0.465  10.671  1.5856 -1.4260  0.1402
  854MOL0     H15284   6.039   0.368  10.812 -4.1380  0.6602 -1.5592
  854MOL0     H15285   5.993   0.536  10.840  0.1091  1.0052 -1.6658
  854MOL0     H15286   5.895   0.450  10.438  1.6281  0.5883 -0.4313
  854MOL0     H15287   6.691   0.630  10.935 -0.4978 -1.4888 -0.3371
  854MOL0     H15288   6.958   0.528  10.906  0.3572  0.2144  1.2461
  854MOL0     H15289   7.055   0.627  10.823  0.4105 -2.5458 -0.0444
  854MOL0     H15290   6.969   0.699  10.971  2.0769 -0.0155 -0.1499
  855MOL0     O15291   1.769   8.949   8.151 -0.4380  0.1056  0.0745
  855MOL0     C15292   1.793   8.957   8.269 -0.6761 -0.1453 -0.0328
  855MOL0     O15293   1.707   8.924   8.369  0.0488 -0.1811 -0.2178
  855MOL0     C15294   1.584   8.864   8.337 -0.8521  0.4053 -0.1813
  855MOL0     C15295   1.566   8.769   8.238  1.1735  0.9560  0.0216
  855MOL0     C15296   1.437   8.708   8.224 -0.1305 -0.0206  0.3662
  855MOL0     C15297   1.325   8.760   8.294  0.1454  0.2737  0.1065
  855MOL0     O15298   1.207   8.686   8.289 -0.6194 -0.0290 -0.4141
  855MOL0     C15299   1.100   8.739   8.368 -0.1845 -0.1295 -0.1468
  855MOL0     C15300   0.982   8.657   8.321 -0.2959  0.0803 -0.1058
  855MOL0     C15301   0.853   8.699   8.388 -0.0400  0.1739 -0.7165
  855MOL0     C15302   0.723   8.623   8.340  0.7967 -0.4744  0.3388
  855MOL0     C15303   0.600   8.629   8.437  0.0460  0.2587 -0.6152
  855MOL0     C15304   0.529   8.772   8.432 -0.4840 -0.3545  0.4469
  855MOL0     C15305   0.448   8.777   8.564 -0.6320  0.3308  0.7063
  855MOL0     C15306   0.417   8.918   8.613  0.0949 -0.2712 -0.5337
  855MOL0     N15307   0.326   8.988   8.527  0.4223 -0.9263  0.3519
  855MOL0     C15308   0.191   8.974   8.509  0.3327 -0.3706 -0.5183
  855MOL0     C15309   0.156   9.070   8.424  0.3446 -0.0375 -0.3015
  855MOL0     C15310   0.024   9.089   8.359  0.4298  1.1204  0.1118
  855MOL0     C15311   0.033   9.032   8.207  0.4362 -0.4045 -0.5114
  855MOL0     C15312   0.091   8.881   8.194  0.4332 -0.9381 -0.7868
  855MOL0     C15313   0.081   8.820   8.054 -0.8783  0.0404 -0.1599
  855MOL0     O15314   0.078   8.678   8.065  0.3861  0.2024  0.6597
  855MOL0     C15315   0.186   8.594   8.085  1.0722 -0.8194 -0.3744
  855MOL0     C15316   0.322   8.631   8.071 -0.3786 -0.0401  0.1612
  855MOL0     C15317   0.420   8.534   8.109  0.0169 -0.9084  0.1033
  855MOL0     C15318   0.387   8.403   8.142 -0.2629  0.0532 -0.2552
  855MOL0     C15319   0.498   8.308   8.169 -0.0082 -0.3362  0.3371
  855MOL0     O15320   0.483   8.212   8.257  0.4509 -0.9612  0.6456
  855MOL0     C15321   0.581   8.152   8.322  0.0753  0.3727 -1.1984
  855MOL0     C15322   0.586   8.012   8.357  0.1309 -0.0133  0.4239
  855MOL0     C15323   0.693   7.956   8.435 -0.3678  0.1737 -0.6681
  855MOL0     C15324   0.793   8.045   8.471  0.6736 -0.7195 -0.2334
  855MOL0     O15325   0.900   8.007   8.549 -0.3763 -0.3855 -0.0698
  855MOL0     C15326   0.984   7.916   8.485  1.2396  0.1094 -0.6062
  855MOL0     C15327   1.111   7.928   8.556 -0.1086 -1.1596 -0.2865
  855MOL0     C15328   1.220   7.837   8.495 -0.6653 -0.0821  0.1833
  855MOL0     C15329   1.360   7.916   8.485  0.3555  0.7833 -0.0568
  855MOL0     C15330   1.474   7.838   8.415 -0.1660 -0.3665 -0.0272
  855MOL0     C15331   1.469   7.856   8.262 -0.3638  0.4187  0.0512
  855MOL0     C15332   1.574   7.760   8.195  0.0981 -0.1719  0.1154
  855MOL0     C15333   1.674   7.850   8.122  0.1992 -0.4007 -0.8183
  855MOL0    Cl15334   1.588   7.951   7.994  0.4284  0.0032 -0.1732
  855MOL0     C15335   0.783   8.179   8.448  0.3030 -0.4406 -1.2687
  855MOL0     C15336   0.689   8.228   8.361 -0.6947 -0.8357  0.2938
  855MOL0     O15337   0.599   8.334   8.112 -0.6852 -0.3694  0.0912
  855MOL0     C15338   0.252   8.369   8.140 -0.8906  0.1966 -0.3620
  855MOL0     C15339   0.152   8.463   8.112  0.5378 -0.2522  0.2309
  855MOL0     N15340   0.277   9.148   8.393  0.2421 -0.4960 -0.4034
  855MOL0     N15341   0.375   9.092   8.448 -0.3149 -0.3477 -0.9869
  855MOL0     C15342   1.343   8.866   8.383 -0.4385  0.4514 -0.2339
  855MOL0     C15343   1.469   8.915   8.408 -0.0758  0.9044 -0.3362
  855MOL0     C15344   1.932   8.997   8.310  0.6779  0.9521 -0.5535
  855MOL0     C15345   2.028   9.024   8.210 -0.2215  0.0826  0.1944
  855MOL0     C15346   2.159   9.069   8.242 -0.2700  0.0831 -0.3476
  855MOL0     C15347   2.200   9.093   8.371 -0.1209 -0.7364 -0.7443
  855MOL0     O15348   2.315   9.151   8.421 -0.4599  0.3880 -0.0952
  855MOL0     C15349   2.408   9.200   8.328 -0.5639 -0.3965 -0.4010
  855MOL0     C15350   2.543   9.250   8.393  0.0971  0.0928 -0.1191
  855MOL0     C15351   2.595   9.130   8.474  0.4161  0.1555 -0.2723
  855MOL0     C15352   2.732   9.142   8.522  0.2081  0.5254 -0.1572
  855MOL0     C15353   2.766   9.044   8.627  0.1015 -0.8838 -0.0449
  855MOL0     C15354   2.778   8.968   8.725 -0.6342  0.4852 -0.0236
  855MOL0     C15355   2.107   9.062   8.466 -0.5193 -0.2879 -0.2257
  855MOL0     C15356   1.984   9.013   8.446  0.4586  1.0151 -0.4592
  855MOL0     C15357   1.900   8.981   8.563 -0.9719 -0.8893  0.1858
  855MOL0     H15358   1.656   8.717   8.207  0.0647 -0.7600 -0.4836
  855MOL0     H15359   1.424   8.636   8.144  0.3021  2.0077 -1.6708
  855MOL0     H15360   1.117   8.734   8.475 -0.4252 -1.8887 -0.1617
  855MOL0     H15361   1.069   8.841   8.342 -0.8180 -0.6020 -1.3395
  855MOL0     H15362   0.999   8.552   8.347  1.4911  1.1338  3.8414
  855MOL0     H15363   0.960   8.664   8.214 -1.5504 -0.1534  0.1190
  855MOL0     H15364   0.831   8.806   8.379 -2.3037 -0.1958 -0.3978
  855MOL0     H15365   0.881   8.676   8.490 -2.2085 -2.9037 -0.6689
  855MOL0     H15366   0.689   8.667   8.246  0.9289  0.9217  0.9182
  855MOL0     H15367   0.744   8.517   8.325 -0.7933 -0.9829  1.3651
  855MOL0     H15368   0.530   8.547   8.417 -1.1550  0.9177  0.7581
  855MOL0     H15369   0.646   8.612   8.535 -0.2899 -2.0636 -0.7900
  855MOL0     H15370   0.599   8.856   8.442 -0.2358 -0.5297  0.1911
  855MOL0     H15371   0.463   8.789   8.346  0.7628 -0.9649 -0.6667
  855MOL0     H15372   0.486   8.708   8.640  2.6375 -0.9732 -1.8487
  855MOL0     H15373   0.351   8.735   8.536 -1.2781  2.3905 -0.2985
  855MOL0     H15374   0.372   8.896   8.710 -4.3824 -2.4308 -2.8080
  855MOL0     H15375   0.512   8.971   8.625 -0.9275  1.6525 -0.6815
  855MOL0     H15376   0.126   8.892   8.534 -1.0761  0.8980  0.1039
  855MOL0     H15377  -0.053   9.031   8.412  0.9802  0.2749  0.0098
  855MOL0     H15378  -0.006   9.194   8.364 -0.8764  0.7727  4.8549
  855MOL0     H15379  -0.070   9.038   8.171 -0.1976 -2.8728  0.6505
  855MOL0     H15380   0.100   9.097   8.151 -0.3016 -0.4981 -1.5241
  855MOL0     H15381   0.018   8.830   8.258 -1.3892  1.2820 -0.9462
  855MOL0     H15382   0.190   8.864   8.238  1.0287  0.7939 -1.3461
  855MOL0     H15383   0.168   8.859   8.001 -1.2776  2.2546  0.6756
  855MOL0     H15384   0.001   8.862   7.993  0.5374  1.8345 -0.9028
  855MOL0     H15385   0.359   8.731   8.052  0.0216 -0.0155  0.9986
  855MOL0     H15386   0.525   8.562   8.112  0.7643 -3.2638 -1.5923
  855MOL0     H15387   0.507   7.942   8.332  0.9596 -1.4739  1.7238
  855MOL0     H15388   0.696   7.849   8.450 -1.2247 -0.1027 -2.3213
  855MOL0     H15389   0.927   7.822   8.489  1.1328  0.1929  1.8892
  855MOL0     H15390   0.997   7.943   8.380  1.0399 -0.9571 -0.9200
  855MOL0     H15391   1.141   8.032   8.539 -0.0882 -1.5284 -2.9395
  855MOL0     H15392   1.104   7.916   8.664  0.9190 -1.7966 -0.2783
  855MOL0     H15393   1.229   7.747   8.556  2.4233 -0.4428 -0.5935
  855MOL0     H15394   1.197   7.798   8.395 -1.1838 -0.9629  0.6369
  855MOL0     H15395   1.390   7.924   8.590  0.8971 -2.3455  0.1499
  855MOL0     H15396   1.350   8.016   8.443  2.9307  1.2717  0.3461
  855MOL0     H15397   1.475   7.732   8.443  1.3470  0.0178  1.5264
  855MOL0     H15398   1.568   7.877   8.454  1.1104 -1.2062 -2.0914
  855MOL0     H15399   1.364   7.842   8.235 -0.6351  0.0917  1.2317
  855MOL0     H15400   1.496   7.960   8.241  2.0522 -0.3876 -1.1453
  855MOL0     H15401   1.525   7.691   8.125 -1.4981 -0.3105  1.3135
  855MOL0     H15402   1.617   7.697   8.273 -3.1871  0.3324  2.5146
  855MOL0     H15403   1.717   7.914   8.200 -0.9661 -1.5064  0.7966
  855MOL0     H15404   1.753   7.790   8.076 -0.9923 -0.7919 -2.4579
  855MOL0     H15405   0.862   8.241   8.489 -1.4509 -0.5207  2.6833
  855MOL0     H15406   0.691   8.334   8.340 -0.2910 -0.2903  2.7820
  855MOL0     H15407   0.222   8.267   8.163  0.2207 -0.0708 -0.0036
  855MOL0     H15408   0.050   8.430   8.129 -0.0508  1.2694 -0.2022
  855MOL0     H15409   1.264   8.908   8.444 -0.1258  0.0618  0.4509
  855MOL0     H15410   1.486   8.994   8.481  1.1147  0.8788 -0.5618
  855MOL0     H15411   2.004   9.024   8.104  3.5035 -2.5990 -0.8441
  855MOL0     H15412   2.219   9.120   8.167 -0.0283  0.5316  0.1406
  855MOL0     H15413   2.369   9.287   8.273  1.0718  1.4508  1.2162
  855MOL0     H15414   2.429   9.120   8.256 -2.0226  0.3554 -1.7363
  855MOL0     H15415   2.528   9.337   8.457 -1.0091 -1.5369  1.9470
  855MOL0     H15416   2.620   9.264   8.317  2.6223  2.2111  2.6419
  855MOL0     H15417   2.572   9.037   8.421  0.9520 -1.3028  1.9288
  855MOL0     H15418   2.529   9.128   8.561 -1.7347  1.4449 -1.7658
  855MOL0     H15419   2.805   9.134   8.441  0.7180  1.2712  0.2159
  855MOL0     H15420   2.751   9.241   8.566 -0.3286  0.2632  0.6935
  855MOL0     H15421   2.783   8.897   8.805  0.7752 -0.7205 -1.1269
  855MOL0     H15422   2.148   9.078   8.565  0.7953 -0.8136 -0.6564
  855MOL0     H15423   1.962   9.020   8.645  0.3924  1.4391 -1.8049
  855MOL0     H15424   1.801   9.028   8.558 -1.3914 -1.8369 -0.8170
  855MOL0     H15425   1.906   8.873   8.578  2.1543 -0.7165  0.9198
  856MOL0     O15426  10.594   1.879   2.059  0.0340  0.3134  0.2473
  856MOL0     C15427  10.643   1.922   2.160 -0.7113  1.6018  0.1011
  856MOL0     O15428  10.755   1.982   2.160 -0.2362  0.0856  0.8163
  856MOL0     C15429  10.845   1.972   2.056 -0.1807  0.1212  0.1096
  856MOL0     C15430  10.943   2.064   2.051 -0.3796  0.3218  0.2781
  856MOL0     C15431  11.052   2.065   1.967  0.8491  0.0780  0.3752
  856MOL0     C15432  11.069   1.952   1.888  0.3014 -0.1079 -0.0699
  856MOL0     O15433  11.182   1.941   1.816 -0.1009  0.6944 -0.5430
  856MOL0     C15434  11.221   1.814   1.749 -0.2637 -1.2834  1.1583
  856MOL0     C15435  11.355   1.811   1.677 -0.8001 -0.0055 -0.5174
  856MOL0     C15436  11.395   1.940   1.593  0.9772  0.1054 -0.1059
  856MOL0     C15437  11.517   1.914   1.510 -0.2093  0.0544 -0.3532
  856MOL0     C15438  11.567   2.025   1.421  0.7309  0.0870  0.1868
  856MOL0     C15439  11.683   1.978   1.323  0.2419  0.1377  0.2131
  856MOL0     C15440  11.730   2.103   1.248  0.4447  0.4525  0.4984
  856MOL0     C15441  11.633   2.145   1.138 -1.3784  0.7104 -0.1735
  856MOL0     N15442  11.698   2.259   1.065  0.2015 -0.0130  0.3569
  856MOL0     C15443  11.687   2.395   1.100 -0.4929 -0.4021 -0.0538
  856MOL0     C15444  11.771   2.462   1.022  0.4316  0.0278 -0.3486
  856MOL0     C15445  11.771   2.618   1.032 -0.1959  0.5776  0.1221
  856MOL0     C15446  11.862   2.682   0.927  0.2051 -0.1474  0.1998
  856MOL0     C15447  12.019   2.684   0.963 -0.1776  1.0966 -0.2025
  856MOL0     C15448  12.098   2.699   0.830  0.4890 -0.6227 -0.5084
  856MOL0     O15449  12.059   2.822   0.774  0.0045 -0.2173  0.6953
  856MOL0     C15450  12.128   2.940   0.803  0.5971  0.1079  0.1847
  856MOL0     C15451  12.096   3.050   0.718 -0.2123  0.5623  0.1065
  856MOL0     C15452  12.152   3.179   0.738  0.3760  0.2881 -0.2163
  856MOL0     C15453  12.247   3.196   0.838 -0.3681  0.2540  0.4612
  856MOL0     C15454  12.312   3.329   0.841 -0.0889 -0.1164  0.3113
  856MOL0     O15455  12.426   3.345   0.923  0.7294  0.0775  0.1043
  856MOL0     C15456  12.501   3.460   0.931 -0.5182 -0.3647  1.2075
  856MOL0     C15457  12.581   3.491   0.817  0.1213  0.0837  0.1789
  856MOL0     C15458  12.670   3.602   0.819  0.0479  0.0721 -0.5506
  856MOL0     C15459  12.665   3.692   0.936  0.4890  0.0869  0.0805
  856MOL0     O15460  12.741   3.811   0.948  0.0102 -0.1787  0.5237
  856MOL0     C15461  12.830   3.845   0.844 -0.4202 -0.2726  0.4036
  856MOL0     C15462  12.909   3.981   0.862 -0.8328  0.0265 -0.3788
  856MOL0     C15463  13.020   3.954   0.971 -1.5014 -0.4896 -0.3913
  856MOL0     C15464  13.122   4.068   0.975  0.5974  0.2597  0.6318
  856MOL0     C15465  13.240   4.035   1.065 -0.0277 -1.3403 -0.1068
  856MOL0     C15466  13.299   4.174   1.124  0.1602  0.9270 -0.8204
  856MOL0     C15467  13.412   4.146   1.211  0.0414  0.1818  1.4067
  856MOL0     C15468  13.513   4.260   1.218  0.5866 -0.2914  0.1497
  856MOL0    Cl15469  13.471   4.376   1.336 -0.0983  0.1230  0.0314
  856MOL0     C15470  12.588   3.648   1.046 -0.7408 -0.2003  0.1232
  856MOL0     C15471  12.498   3.534   1.044  0.6085 -0.0184 -0.4172
  856MOL0     O15472  12.252   3.419   0.786  0.3243 -0.4891 -0.2075
  856MOL0     C15473  12.286   3.084   0.921  0.7300 -0.1580  0.1594
  856MOL0     C15474  12.221   2.962   0.901 -0.5634 -0.0714 -0.3205
  856MOL0     N15475  11.842   2.373   0.939 -0.2323 -0.7779  0.1878
  856MOL0     N15476  11.805   2.253   0.972  0.0263  0.1537  0.2515
  856MOL0     C15477  10.967   1.848   1.893  0.6564  0.2075 -0.5783
  856MOL0     C15478  10.854   1.857   1.970 -0.4662 -0.2294  0.1380
  856MOL0     C15479  10.588   1.893   2.297  1.4839  0.5908  0.0610
  856MOL0     C15480  10.670   1.932   2.407  0.5312 -0.5154 -0.8248
  856MOL0     C15481  10.626   1.918   2.537  1.0276  0.2406 -0.0922
  856MOL0     C15482  10.498   1.859   2.568  0.6729  0.0926  0.6979
  856MOL0     O15483  10.450   1.834   2.695 -0.9225  0.4635 -0.3071
  856MOL0     C15484  10.417   1.953   2.775 -0.4881 -0.0553 -0.8423
  856MOL0     C15485  10.316   2.048   2.700 -0.6309 -0.1314 -0.1814
  856MOL0     C15486  10.173   1.997   2.708  1.1967 -0.3660 -0.4018
  856MOL0     C15487  10.077   2.084   2.627  0.4994 -0.1103 -0.4537
  856MOL0     C15488  10.077   2.040   2.492 -0.4306  0.0941  0.0507
  856MOL0     C15489  10.076   2.002   2.379  0.8983 -0.9789 -0.3764
  856MOL0     C15490  10.423   1.816   2.452 -0.3386 -0.4097  0.2385
  856MOL0     C15491  10.457   1.840   2.321 -0.6157 -0.0218 -0.1147
  856MOL0     C15492  10.359   1.800   2.209  0.3827 -0.7041 -0.7768
  856MOL0     H15493  10.925   2.144   2.122  1.2506  0.7659  0.2502
  856MOL0     H15494  11.131   2.139   1.961  1.9614 -1.0500  0.7247
  856MOL0     H15495  11.208   1.728   1.817  0.4542 -1.8760  0.5606
  856MOL0     H15496  11.147   1.804   1.669  0.4793  1.0994  0.0974
  856MOL0     H15497  11.365   1.722   1.615  4.2934 -0.1252  0.0332
  856MOL0     H15498  11.432   1.801   1.754  0.8438  2.2444 -1.7265
  856MOL0     H15499  11.415   2.030   1.651  0.5709 -0.0523  0.2848
  856MOL0     H15500  11.312   1.968   1.528 -0.3024 -2.1496  0.4501
  856MOL0     H15501  11.605   1.888   1.569 -0.2621 -0.0578 -0.3231
  856MOL0     H15502  11.486   1.835   1.440 -0.3416 -1.5461  1.4330
  856MOL0     H15503  11.485   2.059   1.357  1.8556 -3.2136 -3.3632
  856MOL0     H15504  11.600   2.098   1.495  2.7872  0.6144 -1.1496
  856MOL0     H15505  11.770   1.940   1.378 -0.5723  0.8167  2.0364
  856MOL0     H15506  11.641   1.906   1.252  1.3423 -0.1198 -0.2001
  856MOL0     H15507  11.824   2.079   1.196 -2.3889 -1.5297 -4.3545
  856MOL0     H15508  11.741   2.187   1.318  0.4433  1.7342 -0.9789
  856MOL0     H15509  11.616   2.058   1.073 -0.7489 -0.6056  1.3776
  856MOL0     H15510  11.533   2.166   1.178 -2.1341 -0.7903 -1.1625
  856MOL0     H15511  11.616   2.435   1.171 -1.0451 -1.5438  0.0734
  856MOL0     H15512  11.667   2.646   1.014 -0.0118  0.2964 -1.4672
  856MOL0     H15513  11.795   2.646   1.135  2.5426 -1.1596  0.0441
  856MOL0     H15514  11.837   2.626   0.837 -0.8502  0.4942  0.0728
  856MOL0     H15515  11.836   2.787   0.907 -2.2388 -0.9561 -1.2146
  856MOL0     H15516  12.059   2.595   1.011  0.4212  0.3962 -1.9212
  856MOL0     H15517  12.033   2.763   1.037 -1.6553 -0.2762  1.6226
  856MOL0     H15518  12.062   2.627   0.757 -2.6006  1.0253 -0.7813
  856MOL0     H15519  12.206   2.694   0.846  0.5438 -0.6113 -0.8691
  856MOL0     H15520  12.022   3.035   0.641  0.2184 -1.8762  0.0953
  856MOL0     H15521  12.132   3.256   0.665 -1.0774 -1.5407 -1.8208
  856MOL0     H15522  12.562   3.430   0.729 -1.3009  3.3152 -1.9679
  856MOL0     H15523  12.739   3.629   0.740  1.4705 -0.9437  0.3123
  856MOL0     H15524  12.889   3.756   0.821 -2.1358 -1.8279  1.6785
  856MOL0     H15525  12.775   3.850   0.750  4.0557 -0.1135 -2.5191
  856MOL0     H15526  12.951   4.008   0.764 -0.9834  0.1833 -0.4006
  856MOL0     H15527  12.838   4.061   0.885 -2.0439 -0.4257 -2.2602
  856MOL0     H15528  12.985   3.957   1.075 -1.6559  1.0217 -0.4704
  856MOL0     H15529  13.062   3.856   0.947 -0.0263 -0.1712  0.6941
  856MOL0     H15530  13.078   4.160   1.015 -0.8492 -0.7994  1.5406
  856MOL0     H15531  13.157   4.087   0.873 -1.4237 -1.0199 -0.3478
  856MOL0     H15532  13.316   3.972   1.017 -0.1951 -2.1318  0.6382
  856MOL0     H15533  13.206   3.977   1.152 -1.1362  2.0043  1.8579
  856MOL0     H15534  13.337   4.238   1.044  3.2640 -0.5426 -0.6933
  856MOL0     H15535  13.227   4.232   1.183  0.5488 -1.6508  2.4865
  856MOL0     H15536  13.456   4.052   1.175 -1.2840 -0.0007  0.1417
  856MOL0     H15537  13.374   4.126   1.311 -0.3432 -0.8059  1.0822
  856MOL0     H15538  13.617   4.229   1.227  0.4140 -1.3383 -1.2058
  856MOL0     H15539  13.511   4.319   1.126  0.8629 -1.4540 -0.6146
  856MOL0     H15540  12.608   3.715   1.130 -0.4759  0.8216 -0.7329
  856MOL0     H15541  12.447   3.497   1.132 -0.0835  1.0728 -0.3290
  856MOL0     H15542  12.356   3.093   1.003 -0.9137 -1.6210  1.8136
  856MOL0     H15543  12.249   2.879   0.964 -5.1596 -0.9411  0.9355
  856MOL0     H15544  10.975   1.758   1.833  0.3828  0.1326 -0.5000
  856MOL0     H15545  10.796   1.766   1.970  0.7752 -1.0611  1.4299
  856MOL0     H15546  10.768   1.977   2.400 -0.7359  2.2728 -2.9618
  856MOL0     H15547  10.693   1.932   2.621 -0.0262 -1.3975  1.0636
  856MOL0     H15548  10.510   2.009   2.792 -1.3167  1.3643 -0.8837
  856MOL0     H15549  10.380   1.921   2.873 -1.6393 -0.5742 -1.4266
  856MOL0     H15550  10.342   2.061   2.595 -3.2347  0.4554 -0.8244
  856MOL0     H15551  10.318   2.145   2.751 -2.1503  0.4693 -1.1981
  856MOL0     H15552  10.150   1.981   2.814 -0.7698 -0.4755 -0.8066
  856MOL0     H15553  10.162   1.897   2.665 -5.2910 -1.0694  1.7967
  856MOL0     H15554   9.972   2.075   2.654  0.7197 -1.5628 -0.0244
  856MOL0     H15555  10.107   2.189   2.634  0.2360  0.1093 -2.1030
  856MOL0     H15556  10.069   1.991   2.273 -2.2597 -0.1496 -0.3427
  856MOL0     H15557  10.343   1.745   2.473  1.0679 -1.7525  1.2058
  856MOL0     H15558  10.309   1.884   2.160  1.2104  0.2936  0.0222
  856MOL0     H15559  10.402   1.743   2.126 -2.1804 -1.3963 -1.7294
  856MOL0     H15560  10.282   1.739   2.257  0.2845  0.3028  0.3931
  857MOL0     O15561   8.743   0.600  10.136  0.4254 -0.0843 -0.0293
  857MOL0     C15562   8.641   0.537  10.112 -0.1778 -0.0368 -0.1533
  857MOL0     O15563   8.610   0.419  10.172 -0.1756  1.2387 -0.9189
  857MOL0     C15564   8.696   0.360  10.266 -0.2711 -0.3175 -0.5114
  857MOL0     C15565   8.723   0.224  10.271  1.0061 -0.3116  0.1130
  857MOL0     C15566   8.810   0.169  10.371 -1.1428  0.5243 -0.4333
  857MOL0     C15567   8.874   0.256  10.462 -0.0344  0.6778 -0.0210
  857MOL0     O15568   8.957   0.204  10.559 -0.4548 -0.9740 -0.5353
  857MOL0     C15569   8.896   0.197  10.693  0.3523  0.7842 -0.0533
  857MOL0     C15570   8.967   0.112  10.794  0.1753 -0.5800 -0.8356
  857MOL0     C15571   9.092   0.184  10.853  1.2021 -0.6541 -0.0512
  857MOL0     C15572   9.152   0.083  10.960 -0.4334 -0.4860  0.2617
  857MOL0     C15573   9.260   0.146  11.052 -0.6744 -0.6737  0.2863
  857MOL0     C15574   9.382   0.203  10.965 -0.5015  0.0986 -0.5521
  857MOL0     C15575   9.506   0.228  11.052  0.8707  1.2531  0.6763
  857MOL0     C15576   9.616   0.283  10.962 -0.3487 -1.0759  1.2373
  857MOL0     N15577   9.740   0.308  11.026  0.5008 -0.4403 -0.4507
  857MOL0     C15578   9.846   0.222  11.014 -0.4334 -1.8876 -0.3023
  857MOL0     C15579   9.936   0.283  11.093  0.8197 -0.4373 -0.5090
  857MOL0     C15580  10.076   0.230  11.122 -0.5297 -0.3276 -0.3883
  857MOL0     C15581  10.069   0.099  11.210  0.5165  0.7088  0.2937
  857MOL0     C15582   9.989   0.107  11.347  0.5221  0.8932  0.1983
  857MOL0     C15583  10.037   0.229  11.428 -0.1044 -0.6576  0.5004
  857MOL0     O15584  10.181   0.242  11.429 -0.3834 -0.5810 -0.4707
  857MOL0     C15585  10.243   0.336  11.508  0.8152 -0.4843  0.0540
  857MOL0     C15586  10.239   0.477  11.482 -0.3346 -0.7285 -0.4943
  857MOL0     C15587  10.303   0.564  11.570  0.0275 -0.4343 -0.3548
  857MOL0     C15588  10.367   0.520  11.684 -0.0836  0.3817  0.0319
  857MOL0     C15589  10.424   0.614  11.779 -0.0757  0.3885 -0.0881
  857MOL0     O15590  10.456   0.739  11.740  0.0881  0.2333  0.7098
  857MOL0     C15591  10.490   0.835  11.832  0.0272 -0.1302  0.1708
  857MOL0     C15592  10.396   0.932  11.843 -0.5757  0.0597  0.5132
  857MOL0     C15593  10.412   1.029  11.947 -0.4774  0.4143 -0.4010
  857MOL0     C15594  10.527   1.021  12.027  0.4784 -0.9236  0.3462
  857MOL0     O15595  10.543   1.111  12.130 -0.1564  0.5071  1.1389
  857MOL0     C15596  10.520   1.247  12.100  0.4747 -1.0228  0.2343
  857MOL0     C15597  10.417   1.297  12.200 -0.0275 -0.1834 -0.3137
  857MOL0     C15598  10.480   1.342  12.334 -0.2499  0.3568  0.3722
  857MOL0     C15599  10.400   1.411  12.452 -0.2424 -0.0227 -0.5417
  857MOL0     C15600  10.489   1.464  12.564  0.8571 -0.3418 -0.5595
  857MOL0     C15601  10.390   1.515  12.679 -0.2493  0.3908 -0.5358
  857MOL0     C15602  10.304   1.400  12.749 -0.1535 -0.1446  0.3827
  857MOL0     C15603  10.159   1.444  12.779 -0.5610  0.2378  0.4443
  857MOL0    Cl15604  10.042   1.307  12.771  0.2701 -0.2928  0.1745
  857MOL0     C15605  10.620   0.924  12.010  0.1109 -0.1044 -0.2659
  857MOL0     C15606  10.602   0.827  11.912 -1.2463  0.2387 -0.4725
  857MOL0     O15607  10.435   0.568  11.891 -0.5042  0.0602 -0.4883
  857MOL0     C15608  10.361   0.378  11.711 -0.6757  0.1054  0.3825
  857MOL0     C15609  10.303   0.291  11.625  0.2437  0.1235 -0.3622
  857MOL0     N15610   9.892   0.400  11.150 -0.0970  0.0041 -0.3972
  857MOL0     N15611   9.770   0.412  11.109  0.3529 -0.6337 -0.4101
  857MOL0     C15612   8.851   0.388  10.454 -0.4826  0.2996 -0.3290
  857MOL0     C15613   8.762   0.442  10.360 -0.7973  0.0664 -0.8152
  857MOL0     C15614   8.541   0.593  10.007 -0.4184 -0.4416 -0.8523
  857MOL0     C15615   8.430   0.518   9.982 -0.3768 -0.0128 -0.7120
  857MOL0     C15616   8.338   0.564   9.896  0.0510  0.5813  0.7822
  857MOL0     C15617   8.345   0.687   9.834 -0.3160 -0.0173  0.7294
  857MOL0     O15618   8.240   0.711   9.759 -1.3440  0.2443 -0.0341
  857MOL0     C15619   8.208   0.848   9.737 -0.2744  0.1623  0.3106
  857MOL0     C15620   8.074   0.846   9.675  0.3271 -0.0768 -0.0943
  857MOL0     C15621   8.048   0.986   9.606  0.9408 -0.5290  0.8423
  857MOL0     C15622   7.899   1.021   9.578  0.3737 -0.5715 -0.5136
  857MOL0     C15623   7.825   0.908   9.519  0.7261  1.0417 -1.2207
  857MOL0     C15624   7.771   0.800   9.488  0.3219  0.0480  0.0255
  857MOL0     C15625   8.464   0.763   9.855 -0.0132  0.7372 -0.2026
  857MOL0     C15626   8.562   0.713   9.945 -0.0646  0.0879  0.6254
  857MOL0     C15627   8.684   0.799   9.977  0.1382  0.3288 -0.5251
  857MOL0     H15628   8.689   0.158  10.192  1.9914 -0.9757  0.2221
  857MOL0     H15629   8.833   0.064  10.383 -1.1914  0.4397 -1.0239
  857MOL0     H15630   8.923   0.295  10.733 -0.8589  0.8118  0.7558
  857MOL0     H15631   8.787   0.185  10.697  0.0644  2.3454 -1.6439
  857MOL0     H15632   9.003   0.024  10.739  0.3716 -0.4163 -0.9725
  857MOL0     H15633   8.897   0.085  10.873  0.7573 -0.8024 -0.3944
  857MOL0     H15634   9.059   0.274  10.904  2.6133 -0.8404  1.2652
  857MOL0     H15635   9.168   0.201  10.776 -0.7378  1.7236 -1.5827
  857MOL0     H15636   9.072   0.039  11.020 -1.3069  0.1568 -0.4068
  857MOL0     H15637   9.196  -0.008  10.918  0.4805 -1.3906  2.9797
  857MOL0     H15638   9.221   0.225  11.118 -0.5445 -1.0027  0.7549
  857MOL0     H15639   9.303   0.075  11.122  2.5053 -0.0986 -0.9095
  857MOL0     H15640   9.402   0.147  10.873 -1.5408  1.1149 -1.4320
  857MOL0     H15641   9.351   0.305  10.943 -0.1396  0.0901 -1.1333
  857MOL0     H15642   9.534   0.129  11.089 -0.6277  1.7680  3.4975
  857MOL0     H15643   9.495   0.295  11.138  4.9020  0.1630  2.2991
  857MOL0     H15644   9.614   0.221  10.872 -2.1849 -0.2873  0.6919
  857MOL0     H15645   9.587   0.380  10.921  0.5507 -0.5611  1.7697
  857MOL0     H15646   9.852   0.122  10.971 -1.5288 -1.7439 -0.8153
  857MOL0     H15647  10.117   0.200  11.025  1.1284  2.0404 -0.5228
  857MOL0     H15648  10.144   0.301  11.169  0.0932 -0.5083 -0.9888
  857MOL0     H15649  10.027   0.013  11.158  0.0123  0.8187  0.5157
  857MOL0     H15650  10.174   0.081  11.237 -0.0571 -1.1159  1.4377
  857MOL0     H15651   9.992   0.012  11.400 -0.6418  0.5748 -0.2891
  857MOL0     H15652   9.883   0.126  11.327 -0.5400 -4.6430 -1.0933
  857MOL0     H15653  10.016   0.205  11.533  1.7345 -1.6305  0.6973
  857MOL0     H15654   9.993   0.325  11.401 -0.0397 -0.4783  1.0187
  857MOL0     H15655  10.187   0.515  11.395  0.5319 -1.5875 -1.4047
  857MOL0     H15656  10.302   0.672  11.562  0.5430 -0.0702  2.9772
  857MOL0     H15657  10.306   0.915  11.783 -0.1046 -2.8333  0.4433
  857MOL0     H15658  10.341   1.108  11.970 -0.6709 -0.2332  1.4068
  857MOL0     H15659  10.612   1.304  12.112 -2.4310  4.8017 -1.6540
  857MOL0     H15660  10.497   1.259  11.994 -0.6628 -0.5542  0.5196
  857MOL0     H15661  10.362   1.382  12.158 -3.9075 -1.3109  2.0115
  857MOL0     H15662  10.335   1.231  12.228 -0.7793  0.5867 -0.6516
  857MOL0     H15663  10.531   1.252  12.371  2.0303  1.5956  0.4033
  857MOL0     H15664  10.555   1.412  12.295  0.6665 -1.3727 -1.1232
  857MOL0     H15665  10.335   1.330  12.485  1.9158 -0.4558  3.2167
  857MOL0     H15666  10.348   1.499  12.413 -0.8354  0.3152  0.9810
  857MOL0     H15667  10.566   1.531  12.524  1.9378 -2.1559 -1.6933
  857MOL0     H15668  10.549   1.382  12.606  2.4122  1.0464  0.0452
  857MOL0     H15669  10.452   1.561  12.756  2.8632  1.5568 -3.4879
  857MOL0     H15670  10.332   1.594  12.630  0.7286  2.7297  1.8746
  857MOL0     H15671  10.344   1.380  12.849 -1.2704 -1.0833  0.6570
  857MOL0     H15672  10.300   1.304  12.698 -3.1140 -0.3124  0.7712
  857MOL0     H15673  10.170   1.481  12.882  3.0468  2.3051 -0.4846
  857MOL0     H15674  10.127   1.523  12.711 -0.5313  1.2246  1.5292
  857MOL0     H15675  10.714   0.922  12.066 -0.1793  0.2864  0.2434
  857MOL0     H15676  10.672   0.747  11.891  0.3412  0.7673  2.2384
  857MOL0     H15677  10.407   0.333  11.798 -1.9842  1.5851  1.9176
  857MOL0     H15678  10.294   0.185  11.646  0.5883  0.2800  0.6047
  857MOL0     H15679   8.903   0.448  10.528  0.3523  0.2662 -0.8793
  857MOL0     H15680   8.734   0.546  10.370 -1.1916 -0.1701  0.8910
  857MOL0     H15681   8.411   0.430  10.042  1.2282  1.7066  2.5986
  857MOL0     H15682   8.256   0.494   9.883  3.7678 -3.6902 -3.0828
  857MOL0     H15683   8.280   0.883   9.664 -1.8477 -1.3348 -2.0986
  857MOL0     H15684   8.192   0.907   9.828  2.3078  2.0334 -0.3419
  857MOL0     H15685   8.000   0.821   9.751 -1.1890  3.1259 -0.3433
  857MOL0     H15686   8.068   0.776   9.592 -1.9528  0.6190 -0.5867
  857MOL0     H15687   8.101   0.996   9.510 -1.3049 -0.2265 -0.4584
  857MOL0     H15688   8.084   1.067   9.670  0.1913  0.6406 -0.1520
  857MOL0     H15689   7.849   1.033   9.675  0.5056  1.3379 -0.6396
  857MOL0     H15690   7.885   1.115   9.523 -2.3490  0.3370  1.5063
  857MOL0     H15691   7.730   0.705   9.457 -3.0533  1.9589 -1.9553
  857MOL0     H15692   8.474   0.860   9.808  1.7807  1.2813  1.1897
  857MOL0     H15693   8.682   0.888   9.913 -0.4036 -1.2976 -2.9244
  857MOL0     H15694   8.680   0.818  10.084 -0.1756  1.7958 -0.7756
  857MOL0     H15695   8.781   0.752   9.955  0.4026 -0.6718  2.3271
  858MOL0     O15696   5.773   5.557   4.476  0.4229 -0.0253 -0.3789
  858MOL0     C15697   5.752   5.569   4.595 -0.7680  0.4283 -0.5161
  858MOL0     O15698   5.846   5.594   4.699  0.1792 -0.1070  0.2457
  858MOL0     C15699   5.965   5.633   4.643  0.1412 -0.7907  0.7240
  858MOL0     C15700   6.076   5.548   4.639 -0.4155 -0.2379 -0.3716
  858MOL0     C15701   6.194   5.583   4.576 -0.0397 -0.5111  0.8708
  858MOL0     C15702   6.215   5.716   4.524 -0.3068  0.3477 -0.9544
  858MOL0     O15703   6.336   5.752   4.484 -0.2877  0.5883  0.3206
  858MOL0     C15704   6.328   5.872   4.397  0.6264  0.5076 -0.8288
  858MOL0     C15705   6.445   5.870   4.290  0.4249 -0.0275 -0.3758
  858MOL0     C15706   6.389   5.951   4.165 -0.1079  0.4143 -0.2626
  858MOL0     C15707   6.490   6.007   4.061 -0.0917 -0.4541 -1.1389
  858MOL0     C15708   6.402   6.060   3.939 -0.9124 -0.5659  0.3474
  858MOL0     C15709   6.485   6.060   3.811  0.6743  0.4029 -0.7779
  858MOL0     C15710   6.417   6.160   3.716 -0.5131  1.0530  0.2724
  858MOL0     C15711   6.404   6.308   3.768 -0.0249 -0.7356  0.8066
  858MOL0     N15712   6.524   6.366   3.831  0.0783 -0.0735  0.5868
  858MOL0     C15713   6.634   6.403   3.768 -1.0326 -0.4958  0.7868
  858MOL0     C15714   6.694   6.485   3.858 -0.0416  0.0625 -0.4845
  858MOL0     C15715   6.824   6.552   3.845  0.2312  0.7125 -0.9984
  858MOL0     C15716   6.929   6.446   3.888 -0.7685  0.2226  0.3385
  858MOL0     C15717   7.070   6.468   3.823 -0.5658  0.1917 -0.4026
  858MOL0     C15718   7.181   6.457   3.933  0.7654  0.3426  0.5216
  858MOL0     O15719   7.187   6.317   3.974  0.3108 -0.0729  0.6211
  858MOL0     C15720   7.271   6.242   3.899 -0.0210  0.5559 -0.2378
  858MOL0     C15721   7.356   6.288   3.803  0.7230 -0.0761 -0.0752
  858MOL0     C15722   7.464   6.215   3.749 -0.2652  0.2197 -1.2443
  858MOL0     C15723   7.478   6.080   3.785 -0.1290  0.5785 -0.3062
  858MOL0     C15724   7.587   5.994   3.737  1.0522  0.0156  1.0831
  858MOL0     O15725   7.634   5.883   3.803 -0.0876 -0.1526 -0.0235
  858MOL0     C15726   7.754   5.822   3.761  0.7411  0.1629  1.1017
  858MOL0     C15727   7.754   5.680   3.748  0.7880 -0.4322 -0.1956
  858MOL0     C15728   7.877   5.612   3.718 -0.0016 -0.4842 -0.1682
  858MOL0     C15729   7.997   5.679   3.703  0.3398 -0.0236  0.4950
  858MOL0     O15730   8.108   5.605   3.671  0.6758 -0.3614 -0.2033
  858MOL0     C15731   8.171   5.642   3.555  0.1679 -1.0364 -0.4384
  858MOL0     C15732   8.307   5.581   3.544  0.0144 -0.5109 -0.0038
  858MOL0     C15733   8.317   5.435   3.522  0.2341 -1.3476  0.3920
  858MOL0     C15734   8.460   5.378   3.544 -0.3485  0.7059  0.1463
  858MOL0     C15735   8.473   5.218   3.530  0.0126  0.4131  0.0229
  858MOL0     C15736   8.420   5.138   3.650  0.9835  0.4364  0.0062
  858MOL0     C15737   8.434   4.987   3.622  0.0379 -0.7264 -0.5157
  858MOL0     C15738   8.360   4.898   3.721 -1.1025 -0.9543 -0.4453
  858MOL0    Cl15739   8.184   4.920   3.695  0.2025 -0.2330 -0.2867
  858MOL0     C15740   7.999   5.817   3.708 -0.1154 -0.0489 -0.0005
  858MOL0     C15741   7.876   5.888   3.739 -0.7079  0.1487  0.6590
  858MOL0     O15742   7.653   6.052   3.650 -0.2678  0.5937 -0.6259
  858MOL0     C15743   7.386   6.022   3.886  0.4942 -0.0587  0.1662
  858MOL0     C15744   7.287   6.112   3.945  0.1327  0.3414 -0.3590
  858MOL0     N15745   6.626   6.482   3.979  0.4531 -0.0311  0.8393
  858MOL0     N15746   6.518   6.423   3.957  0.6887  0.9396 -0.5114
  858MOL0     C15747   6.105   5.798   4.530  0.2366 -0.6303 -0.2964
  858MOL0     C15748   5.979   5.757   4.582 -0.0872 -0.6837  0.0839
  858MOL0     C15749   5.619   5.527   4.649 -0.4812  0.2008 -0.6076
  858MOL0     C15750   5.608   5.496   4.794  0.0711  0.4167  0.3977
  858MOL0     C15751   5.494   5.463   4.856  0.6996  0.5975  0.7260
  858MOL0     C15752   5.382   5.460   4.777  0.5414 -0.1671  0.1057
  858MOL0     O15753   5.272   5.414   4.840 -0.0834 -0.2749 -0.7142
  858MOL0     C15754   5.180   5.517   4.886 -0.8956 -0.4455 -0.4383
  858MOL0     C15755   5.166   5.507   5.039 -0.5528 -0.0722 -0.1966
  858MOL0     C15756   5.057   5.595   5.097 -0.2561 -0.2213 -0.0768
  858MOL0     C15757   5.073   5.749   5.086 -0.8493  0.0664 -0.5733
  858MOL0     C15758   4.957   5.821   5.145  0.6759 -0.1884  0.4691
  858MOL0     C15759   4.864   5.885   5.186  0.4485 -0.2469 -0.4615
  858MOL0     C15760   5.384   5.492   4.647  0.3969 -0.6013  0.0552
  858MOL0     C15761   5.502   5.530   4.581 -0.0162 -0.3739 -0.8996
  858MOL0     C15762   5.488   5.573   4.431 -0.5148 -0.0756 -0.1354
  858MOL0     H15763   6.075   5.447   4.678 -0.0508 -0.3284 -0.5910
  858MOL0     H15764   6.268   5.503   4.578  0.0078 -0.4648  1.0329
  858MOL0     H15765   6.240   5.858   4.334  0.6985 -1.1224 -0.6079
  858MOL0     H15766   6.322   5.959   4.464 -1.4025  0.7489 -1.2661
  858MOL0     H15767   6.458   5.764   4.269 -1.1187 -0.5199  1.0162
  858MOL0     H15768   6.531   5.928   4.326  1.3279  0.6790 -3.4100
  858MOL0     H15769   6.332   6.032   4.211 -1.0567 -0.8401  0.8449
  858MOL0     H15770   6.324   5.883   4.108  1.2958  0.6870 -2.3030
  858MOL0     H15771   6.549   6.090   4.100  0.8197 -0.2957 -2.7636
  858MOL0     H15772   6.559   5.934   4.020  1.1488  0.2586 -0.3843
  858MOL0     H15773   6.310   6.002   3.926 -1.4933  0.4807 -0.3048
  858MOL0     H15774   6.376   6.164   3.961  0.1422  0.3207 -2.1731
  858MOL0     H15775   6.591   6.082   3.827  0.8633 -0.1249 -1.2587
  858MOL0     H15776   6.479   5.960   3.767 -3.3400  1.9021 -4.3303
  858MOL0     H15777   6.316   6.128   3.688 -0.6996  0.7363  1.2699
  858MOL0     H15778   6.477   6.153   3.626  2.2057 -2.1363  2.1316
  858MOL0     H15779   6.377   6.379   3.689  1.5093  0.5608  1.3932
  858MOL0     H15780   6.323   6.328   3.839  1.0206  0.2750  1.7711
  858MOL0     H15781   6.651   6.380   3.664  0.8349  0.6061  0.8087
  858MOL0     H15782   6.852   6.593   3.747 -0.0255  0.7261 -1.0661
  858MOL0     H15783   6.828   6.642   3.907 -0.2069  1.8589 -2.5845
  858MOL0     H15784   6.935   6.435   3.996  0.1395 -2.0248  0.1020
  858MOL0     H15785   6.888   6.350   3.855 -1.0126  0.4608 -0.0618
  858MOL0     H15786   7.068   6.572   3.789 -1.0903  0.1964 -0.3640
  858MOL0     H15787   7.082   6.388   3.749  3.2895 -1.1590  1.4226
  858MOL0     H15788   7.150   6.516   4.021  2.2460 -1.1186  2.1069
  858MOL0     H15789   7.274   6.506   3.901 -0.2975  0.0365 -3.5237
  858MOL0     H15790   7.341   6.381   3.749  1.0298  0.5260  0.8490
  858MOL0     H15791   7.539   6.263   3.688 -0.3128  1.0981 -0.6383
  858MOL0     H15792   7.666   5.616   3.746  1.4777 -1.4418  0.6516
  858MOL0     H15793   7.870   5.505   3.703  0.2556 -0.5147 -0.0770
  858MOL0     H15794   8.103   5.616   3.474 -1.0641 -0.2795  0.3190
  858MOL0     H15795   8.176   5.750   3.541  0.8476 -0.7332  1.7248
  858MOL0     H15796   8.356   5.623   3.456 -0.4691 -1.2575 -0.6427
  858MOL0     H15797   8.352   5.608   3.640 -0.3673 -0.8309  0.2746
  858MOL0     H15798   8.247   5.386   3.590  0.5698 -0.8265  1.1314
  858MOL0     H15799   8.282   5.409   3.422  1.0753 -2.4998  0.3719
  858MOL0     H15800   8.498   5.419   3.639  0.5984 -0.1732  0.1741
  858MOL0     H15801   8.524   5.417   3.464 -1.1603 -1.0814 -1.4306
  858MOL0     H15802   8.580   5.196   3.530 -0.0548 -0.5950  3.5835
  858MOL0     H15803   8.429   5.183   3.436 -0.6760 -0.9031  0.7917
  858MOL0     H15804   8.482   5.162   3.737 -0.6008 -2.3030  2.0466
  858MOL0     H15805   8.314   5.161   3.668  1.1830  2.8607 -1.4451
  858MOL0     H15806   8.541   4.967   3.633  0.5151  1.0464 -1.5392
  858MOL0     H15807   8.402   4.973   3.518  1.3897  2.2271 -1.4267
  858MOL0     H15808   8.395   4.794   3.723 -2.5664 -1.4651  0.4160
  858MOL0     H15809   8.392   4.927   3.822 -0.3492 -0.8829 -0.6983
  858MOL0     H15810   8.085   5.881   3.687 -0.5402  1.4149  2.3759
  858MOL0     H15811   7.885   5.995   3.729 -0.8767 -0.0669 -3.7720
  858MOL0     H15812   7.394   5.918   3.917  0.5269  0.2562  1.2451
  858MOL0     H15813   7.226   6.067   4.023  0.9396  0.0006  0.0990
  858MOL0     H15814   6.117   5.903   4.504 -2.7260 -0.7372 -2.7184
  858MOL0     H15815   5.885   5.809   4.577 -2.6392 -4.9135 -2.9756
  858MOL0     H15816   5.700   5.509   4.849  0.5459  0.6529 -0.4381
  858MOL0     H15817   5.504   5.441   4.962  0.0161  2.3533  1.1896
  858MOL0     H15818   5.088   5.517   4.828 -0.5760  2.0603 -1.0580
  858MOL0     H15819   5.214   5.616   4.856 -0.3372 -0.2896  0.6556
  858MOL0     H15820   5.256   5.545   5.088  0.7114 -1.0774 -1.6674
  858MOL0     H15821   5.136   5.404   5.060  0.1761 -0.3015 -0.2604
  858MOL0     H15822   5.055   5.572   5.204  5.3473 -2.9132 -0.1772
  858MOL0     H15823   4.961   5.573   5.049 -0.3789 -0.8714  0.4588
  858MOL0     H15824   5.167   5.796   5.118 -2.8049  2.2972  2.4951
  858MOL0     H15825   5.065   5.769   4.979  0.4627  1.6209 -0.4207
  858MOL0     H15826   4.795   5.958   5.224  0.4118 -1.2286  1.4792
  858MOL0     H15827   5.291   5.483   4.593  0.9100 -2.5806 -0.5991
  858MOL0     H15828   5.519   5.487   4.372  0.4318  0.3410 -0.2565
  858MOL0     H15829   5.385   5.596   4.402  0.0321 -0.3490 -2.5105
  858MOL0     H15830   5.548   5.659   4.399  0.8017 -0.7223  0.5289
  859MOL0     O15831   0.863   3.671  10.252  0.2516  0.2895 -0.3377
  859MOL0     C15832   0.849   3.791  10.231 -0.6992  0.2131  0.1744
  859MOL0     O15833   0.734   3.859  10.202  0.0165  0.1563 -0.4452
  859MOL0     C15834   0.609   3.803  10.204  0.2445 -0.5909  0.0876
  859MOL0     C15835   0.571   3.663  10.185 -0.4139 -0.1262 -0.2537
  859MOL0     C15836   0.434   3.629  10.196  0.5906  0.4138 -0.4924
  859MOL0     C15837   0.330   3.718  10.232 -0.1082 -0.0863  0.4797
  859MOL0     O15838   0.198   3.679  10.237  0.3020 -0.0657 -0.0236
  859MOL0     C15839   0.156   3.672  10.373  0.2050 -0.3474 -0.1970
  859MOL0     C15840   0.036   3.749  10.399 -0.7601  1.3338  0.5081
  859MOL0     C15841   0.060   3.899  10.374  0.7139  0.7320  0.1950
  859MOL0     C15842  -0.061   3.972  10.432  1.2200  0.9166  0.3901
  859MOL0     C15843  -0.181   3.972  10.333 -0.5011 -0.1129 -0.6003
  859MOL0     C15844  -0.301   4.069  10.355 -0.5071  0.4956  0.6773
  859MOL0     C15845  -0.375   4.112  10.231  0.3631  0.6582 -0.5545
  859MOL0     C15846  -0.423   4.011  10.129  0.2730 -0.4451  0.1590
  859MOL0     N15847  -0.531   3.916  10.159  0.5249 -0.0601  0.6780
  859MOL0     C15848  -0.512   3.779  10.153 -0.2709  0.2780 -0.3199
  859MOL0     C15849  -0.644   3.741  10.155 -0.1362 -0.0070  0.0358
  859MOL0     C15850  -0.681   3.599  10.121  0.4877 -1.0993  0.2859
  859MOL0     C15851  -0.779   3.532  10.218 -0.2346 -0.7386  0.4955
  859MOL0     C15852  -0.876   3.442  10.138  0.0256 -0.0962  0.1428
  859MOL0     C15853  -0.805   3.327  10.064  0.4708  0.0717  0.4428
  859MOL0     O15854  -0.754   3.226  10.152 -0.5429  0.6212 -0.5241
  859MOL0     C15855  -0.623   3.188  10.148 -0.2728 -0.5532  0.2891
  859MOL0     C15856  -0.579   3.086  10.235 -1.0576  0.6341  0.2217
  859MOL0     C15857  -0.451   3.029  10.240  0.0383  0.8936  0.7021
  859MOL0     C15858  -0.365   3.066  10.136  0.3250 -0.3594 -0.6020
  859MOL0     C15859  -0.231   3.006  10.100  0.2416  0.0934  0.5128
  859MOL0     O15860  -0.167   3.053   9.994 -0.1892 -0.0550 -0.0043
  859MOL0     C15861  -0.043   3.022   9.961 -0.3234 -0.0834  0.2613
  859MOL0     C15862   0.060   3.012  10.055  0.0167 -0.6061  0.0230
  859MOL0     C15863   0.188   3.031  10.009 -0.3572 -0.1750 -0.3867
  859MOL0     C15864   0.226   3.049   9.876 -0.0228  0.6068  0.1325
  859MOL0     O15865   0.358   3.067   9.850 -0.6360  0.6029 -0.2159
  859MOL0     C15866   0.387   3.099   9.725 -0.5071  0.0407  1.1447
  859MOL0     C15867   0.541   3.081   9.744 -0.2221  0.1505  0.2311
  859MOL0     C15868   0.604   3.144   9.620 -0.1484  0.4470  0.1450
  859MOL0     C15869   0.755   3.171   9.631 -0.1175 -0.2657 -0.4865
  859MOL0     C15870   0.806   3.196   9.498 -0.2769  0.0726  0.2804
  859MOL0     C15871   0.949   3.251   9.514 -0.3113 -0.4896 -1.3016
  859MOL0     C15872   1.023   3.284   9.384  0.1597 -0.3074 -0.1040
  859MOL0     C15873   1.147   3.346   9.421 -0.7729  0.1366 -0.5047
  859MOL0    Cl15874   1.233   3.413   9.280  0.0372 -0.0016 -0.3857
  859MOL0     C15875   0.124   3.051   9.785 -0.0031 -0.3377  0.5926
  859MOL0     C15876  -0.008   3.044   9.830  0.2607  0.5714 -0.0251
  859MOL0     O15877  -0.192   2.923  10.179  0.1365  0.4120  0.1595
  859MOL0     C15878  -0.404   3.170  10.054  0.5095  0.3622  0.3646
  859MOL0     C15879  -0.528   3.228  10.052  0.6034  0.1703 -0.0086
  859MOL0     N15880  -0.731   3.851  10.184 -0.5114  0.3705  0.3856
  859MOL0     N15881  -0.660   3.955  10.177  1.1185 -0.2886 -0.0257
  859MOL0     C15882   0.364   3.848  10.243 -0.0584 -0.2071 -0.1418
  859MOL0     C15883   0.502   3.895  10.234 -0.1615  0.2471  0.3614
  859MOL0     C15884   0.963   3.884  10.228  0.4034  0.4560 -0.1007
  859MOL0     C15885   0.949   4.005  10.295  0.0261 -0.2422 -0.2896
  859MOL0     C15886   1.058   4.093  10.314 -0.9937  0.0638  0.5328
  859MOL0     C15887   1.187   4.053  10.263  0.2039  0.3718 -0.8457
  859MOL0     O15888   1.294   4.126  10.301  0.1042 -0.2728 -0.6040
  859MOL0     C15889   1.425   4.085  10.267  1.2901  0.7451 -0.7074
  859MOL0     C15890   1.523   4.199  10.301 -0.4411 -0.7338  0.0968
  859MOL0     C15891   1.668   4.129  10.309  0.7096 -0.8108  0.8698
  859MOL0     C15892   1.778   4.241  10.303  0.0230  0.2341 -0.5216
  859MOL0     C15893   1.822   4.262  10.161  0.4473 -0.0573 -0.3247
  859MOL0     C15894   1.849   4.255  10.042  0.0486 -0.0945 -0.5738
  859MOL0     C15895   1.193   3.935  10.192  0.0548 -0.0242 -0.1248
  859MOL0     C15896   1.082   3.850  10.182 -0.3521  0.3587  0.4228
  859MOL0     C15897   1.103   3.726  10.097 -0.7091 -0.1315  0.1472
  859MOL0     H15898   0.643   3.582  10.178 -2.2928 -2.3537  3.1184
  859MOL0     H15899   0.404   3.526  10.179 -0.8755 -0.1745  4.2082
  859MOL0     H15900   0.131   3.567  10.391  0.8712 -0.6459 -0.9674
  859MOL0     H15901   0.235   3.700  10.445 -1.7949 -2.4769  3.1136
  859MOL0     H15902  -0.006   3.736  10.499 -1.2880  0.1917  0.1560
  859MOL0     H15903  -0.040   3.708  10.332  1.3325 -0.1598 -1.1004
  859MOL0     H15904   0.074   3.928  10.270  1.9968  1.8253  0.6299
  859MOL0     H15905   0.147   3.939  10.428  2.0061 -1.9660  0.2681
  859MOL0     H15906  -0.096   3.925  10.525  1.6753 -2.8081 -1.1431
  859MOL0     H15907  -0.033   4.078  10.436 -0.7221  1.4951 -0.3118
  859MOL0     H15908  -0.139   3.985  10.233 -0.1772  1.0207 -0.3298
  859MOL0     H15909  -0.229   3.873  10.332 -1.4090  0.2763  0.7015
  859MOL0     H15910  -0.374   4.032  10.427  1.3204 -0.7985  1.9520
  859MOL0     H15911  -0.251   4.156  10.398 -0.1386 -0.3959  2.1245
  859MOL0     H15912  -0.296   4.173  10.187  1.9928 -0.5176  0.6395
  859MOL0     H15913  -0.458   4.175  10.265  1.4952 -0.0780  4.2296
  859MOL0     H15914  -0.437   4.073  10.040  1.1490  2.8097  2.1229
  859MOL0     H15915  -0.329   3.961  10.103 -0.2472 -0.2554 -2.3260
  859MOL0     H15916  -0.424   3.723  10.123 -0.1880 -0.7150  1.6759
  859MOL0     H15917  -0.729   3.601  10.023 -2.1481 -0.3060  1.4892
  859MOL0     H15918  -0.587   3.545  10.111  0.0744 -2.0289  1.1933
  859MOL0     H15919  -0.738   3.462  10.292  1.0546 -3.0309 -2.1722
  859MOL0     H15920  -0.834   3.613  10.265  1.4432 -0.1633  1.5825
  859MOL0     H15921  -0.924   3.502  10.060  0.6421  1.1852  0.7194
  859MOL0     H15922  -0.955   3.400  10.201 -1.4342 -0.4141 -1.8116
  859MOL0     H15923  -0.738   3.366   9.987 -0.8920 -0.8890 -1.3135
  859MOL0     H15924  -0.878   3.268  10.008  0.1049 -2.5388  3.4257
  859MOL0     H15925  -0.650   3.042  10.305  1.0074 -1.8057  0.9722
  859MOL0     H15926  -0.412   2.943  10.295  1.7996  1.3515  0.2549
  859MOL0     H15927   0.035   3.011  10.160 -1.5158 -1.6750 -0.3038
  859MOL0     H15928   0.266   3.023  10.084 -1.9362  0.0679  1.3535
  859MOL0     H15929   0.357   3.025   9.651 -1.7713  0.8344  0.8351
  859MOL0     H15930   0.358   3.201   9.696  1.1995 -0.5642 -3.5571
  859MOL0     H15931   0.574   3.137   9.832 -1.7915  2.8309 -0.7669
  859MOL0     H15932   0.560   2.976   9.768  0.7396  0.5640  1.4128
  859MOL0     H15933   0.588   3.075   9.537 -0.1391 -1.7159  1.8434
  859MOL0     H15934   0.553   3.238   9.598  2.3868  1.8336 -0.2104
  859MOL0     H15935   0.795   3.076   9.667 -1.2106 -0.4151  0.3800
  859MOL0     H15936   0.772   3.256   9.697 -2.6750 -1.7748  2.3838
  859MOL0     H15937   0.743   3.267   9.444 -0.6056  0.1387  0.7393
  859MOL0     H15938   0.800   3.099   9.447  0.6046  0.0072  0.2887
  859MOL0     H15939   0.949   3.345   9.571 -1.7878 -0.3096 -1.5711
  859MOL0     H15940   1.018   3.191   9.573 -1.0966  0.1362  0.3043
  859MOL0     H15941   0.959   3.354   9.329 -1.1289 -2.5251 -1.5973
  859MOL0     H15942   1.036   3.201   9.313 -0.5655 -1.3964  0.9954
  859MOL0     H15943   1.140   3.414   9.506 -0.7244  0.3154 -0.6432
  859MOL0     H15944   1.211   3.267   9.462 -0.3516 -0.1687 -1.6908
  859MOL0     H15945   0.138   3.068   9.679 -3.0138 -0.0639  0.1486
  859MOL0     H15946  -0.086   3.055   9.755 -0.7239 -2.3131  0.4811
  859MOL0     H15947  -0.336   3.206   9.978 -1.6122  0.1208 -1.7831
  859MOL0     H15948  -0.536   3.299   9.971 -0.3763 -2.9123 -2.8217
  859MOL0     H15949   0.289   3.926  10.253 -0.9441 -0.9359 -0.9829
  859MOL0     H15950   0.531   3.999  10.246 -0.1388  0.0977  1.8467
  859MOL0     H15951   0.855   4.027  10.343 -0.5279 -2.1157 -0.4163
  859MOL0     H15952   1.052   4.190  10.363  1.8367  0.6284 -0.0620
  859MOL0     H15953   1.445   4.056  10.163  1.0333 -0.3322 -0.4639
  859MOL0     H15954   1.452   3.998  10.327  1.0467  1.3279  0.2595
  859MOL0     H15955   1.497   4.250  10.394  0.5450  3.1868 -1.5491
  859MOL0     H15956   1.519   4.274  10.221  0.6396  0.1596  0.8377
  859MOL0     H15957   1.677   4.061  10.224 -1.5097  1.3888 -1.2997
  859MOL0     H15958   1.682   4.070  10.401  1.1356  0.8548  1.9192
  859MOL0     H15959   1.740   4.336  10.340 -0.2841 -0.2023  0.2927
  859MOL0     H15960   1.863   4.209  10.363 -0.2311 -0.1780 -0.3808
  859MOL0     H15961   1.867   4.259   9.937  0.0718 -2.5699 -0.7289
  859MOL0     H15962   1.286   3.899  10.148  1.6040  3.2025  0.2660
  859MOL0     H15963   1.143   3.645  10.159  0.3103  2.3161  2.9621
  859MOL0     H15964   1.006   3.692  10.061 -2.0443  2.8456  0.6279
  859MOL0     H15965   1.173   3.748  10.016 -1.0975  1.9811  0.3243
  860MOL0     O15966   3.805   9.033   9.992 -0.0091  0.4389  0.2383
  860MOL0     C15967   3.754   8.926  10.020 -0.0801  0.7012 -0.1817
  860MOL0     O15968   3.795   8.800   9.982  0.4515  0.4576  0.6315
  860MOL0     C15969   3.921   8.788   9.937 -0.0155  2.0199  0.1622
  860MOL0     C15970   4.005   8.708  10.017 -0.1761  0.3083  0.1786
  860MOL0     C15971   4.136   8.685   9.959  0.4355  0.0512  0.1680
  860MOL0     C15972   4.159   8.730   9.828 -0.1832  1.1027  0.4355
  860MOL0     O15973   4.283   8.690   9.780  0.6473  0.2182  0.6293
  860MOL0     C15974   4.339   8.787   9.693 -0.2689 -0.3422  0.0659
  860MOL0     C15975   4.480   8.765   9.654 -0.4560  0.6702 -0.7849
  860MOL0     C15976   4.568   8.762   9.773  0.3378 -0.4830 -0.3192
  860MOL0     C15977   4.617   8.905   9.794 -0.7175  0.2906 -0.1092
  860MOL0     C15978   4.657   8.942   9.938 -0.0376  0.5258  0.5590
  860MOL0     C15979   4.659   9.091   9.952  0.3089 -0.5387  0.1430
  860MOL0     C15980   4.706   9.134  10.092  0.4496  0.0819  0.0326
  860MOL0     C15981   4.855   9.106  10.103 -0.0858 -0.1391  0.1144
  860MOL0     N15982   4.933   9.229  10.096 -0.3216  0.0073 -0.1038
  860MOL0     C15983   4.990   9.282  10.204  0.3296 -1.4191 -0.0499
  860MOL0     C15984   5.051   9.390  10.163 -0.4643 -0.0127  0.5380
  860MOL0     C15985   5.124   9.490  10.255 -0.3318 -0.1511 -0.2210
  860MOL0     C15986   5.073   9.638  10.244  0.0809  0.7003 -0.7510
  860MOL0     C15987   4.934   9.665  10.302 -0.2591  1.2789 -0.4933
  860MOL0     C15988   4.931   9.655  10.458 -0.3349  0.3073  0.1004
  860MOL0     O15989   4.948   9.528  10.513  0.2758  0.8123  0.2180
  860MOL0     C15990   4.855   9.435  10.501 -0.1939  0.5534 -0.6431
  860MOL0     C15991   4.880   9.308  10.554 -0.2514 -0.1512 -0.3540
  860MOL0     C15992   4.788   9.201  10.540  0.8706 -0.6915  0.9426
  860MOL0     C15993   4.667   9.220  10.468 -0.1893  0.5146  0.8575
  860MOL0     C15994   4.577   9.116  10.453 -0.7172  0.1586  0.1438
  860MOL0     O15995   4.452   9.131  10.393  0.7267  0.2507 -0.1357
  860MOL0     C15996   4.370   9.025  10.411 -0.1027  0.0095  0.7741
  860MOL0     C15997   4.361   8.924  10.308  0.3147  0.3198 -0.1678
  860MOL0     C15998   4.259   8.827  10.318  0.2546  1.1243  0.4138
  860MOL0     C15999   4.172   8.821  10.423 -0.0378  1.6124  0.2958
  860MOL0     O16000   4.077   8.725  10.412  0.0909 -0.4223  0.2088
  860MOL0     C16001   4.002   8.695  10.531  0.0349 -0.0918  0.1049
  860MOL0     C16002   3.906   8.573  10.510 -0.0601  0.6547  0.3622
  860MOL0     C16003   3.837   8.523  10.643 -0.7568 -0.1531  0.2712
  860MOL0     C16004   3.763   8.405  10.624  0.6229  0.5255 -0.1054
  860MOL0     C16005   3.689   8.368  10.755  0.4926  0.0259  0.3276
  860MOL0     C16006   3.629   8.223  10.752 -0.0488  0.5685 -1.1661
  860MOL0     C16007   3.545   8.182  10.875 -0.2206 -0.7460 -0.4263
  860MOL0     C16008   3.482   8.037  10.870 -0.3179 -0.1495  0.5256
  860MOL0    Cl16009   3.355   8.023  10.747 -0.1665  0.1703 -0.0693
  860MOL0     C16010   4.179   8.922  10.520 -0.8640 -0.1329 -0.8392
  860MOL0     C16011   4.270   9.033  10.513 -1.9178  0.2563  0.3780
  860MOL0     O16012   4.613   9.002  10.500  0.8106  0.4748  0.0755
  860MOL0     C16013   4.641   9.349  10.420  0.1311  0.2887 -0.5268
  860MOL0     C16014   4.724   9.457  10.437 -0.3887  0.4605 -0.3247
  860MOL0     N16015   5.045   9.387  10.020  0.4084  0.5179  0.2175
  860MOL0     N16016   4.965   9.292   9.975  0.2449 -0.2919  0.5633
  860MOL0     C16017   4.071   8.815   9.752 -0.2479  0.0916 -0.8081
  860MOL0     C16018   3.954   8.839   9.813 -1.0023 -0.7330 -0.0523
  860MOL0     C16019   3.618   8.927  10.079 -0.1103 -0.2286  0.4918
  860MOL0     C16020   3.521   9.016  10.017 -0.5293  0.4689  0.2401
  860MOL0     C16021   3.388   9.011  10.062 -0.0525 -0.3104 -0.3418
  860MOL0     C16022   3.352   8.928  10.168 -0.3832  0.5749 -0.0069
  860MOL0     O16023   3.230   8.916  10.220 -0.1657  1.3072  0.0022
  860MOL0     C16024   3.117   8.985  10.158  0.7757  0.5148 -0.1331
  860MOL0     C16025   2.982   8.923  10.209  0.0704 -0.5314  0.3955
  860MOL0     C16026   2.998   8.772  10.226 -0.1140  0.4964  0.3607
  860MOL0     C16027   2.860   8.711  10.241  0.0811  1.4743 -0.4434
  860MOL0     C16028   2.796   8.730  10.372 -0.2109  0.2976  0.4733
  860MOL0     C16029   2.753   8.728  10.485 -0.0981  0.2901  0.4197
  860MOL0     C16030   3.446   8.840  10.224  0.5266  0.6272  0.1234
  860MOL0     C16031   3.576   8.837  10.181  0.1866  1.0513  0.5202
  860MOL0     C16032   3.659   8.733  10.261  0.6729 -0.0221  0.4915
  860MOL0     H16033   3.973   8.661  10.110 -0.3649  1.7935  0.8861
  860MOL0     H16034   4.219   8.634  10.007  4.0073  2.4969 -2.8135
  860MOL0     H16035   4.279   8.776   9.602  0.4883  1.1940 -0.6578
  860MOL0     H16036   4.327   8.885   9.739 -2.6077 -0.8495  0.6781
  860MOL0     H16037   4.509   8.842   9.582 -0.8977  1.6466  0.0591
  860MOL0     H16038   4.496   8.664   9.615  1.2853  0.6741 -0.1632
  860MOL0     H16039   4.658   8.702   9.753  0.5478 -0.1228 -0.4634
  860MOL0     H16040   4.511   8.722   9.858  0.1824 -0.6282 -0.4904
  860MOL0     H16041   4.708   8.915   9.734  0.8844  0.3969  2.2064
  860MOL0     H16042   4.536   8.972   9.766 -0.1011  2.2415  2.4238
  860MOL0     H16043   4.582   8.902  10.007 -1.6806 -0.8866 -1.9018
  860MOL0     H16044   4.755   8.897   9.957 -0.3470 -0.6459 -0.4840
  860MOL0     H16045   4.732   9.137   9.885 -0.4454  0.3885 -0.0696
  860MOL0     H16046   4.563   9.128   9.915  2.1198  0.1748 -4.4918
  860MOL0     H16047   4.650   9.087  10.173  1.0321  1.0822  1.0456
  860MOL0     H16048   4.683   9.241  10.104  2.5530  0.6251 -0.3570
  860MOL0     H16049   4.882   9.050  10.194  1.5276 -2.6511 -1.7836
  860MOL0     H16050   4.889   9.046  10.019  1.0025 -0.5668  0.8252
  860MOL0     H16051   4.977   9.234  10.300  0.4352 -0.6633  0.3526
  860MOL0     H16052   5.116   9.460  10.359 -2.0574  2.6421  0.5776
  860MOL0     H16053   5.228   9.490  10.221  0.4102  0.0164  1.9403
  860MOL0     H16054   5.155   9.694  10.292  2.1617 -2.0644 -0.8061
  860MOL0     H16055   5.076   9.663  10.138 -0.1938 -2.7876 -1.7099
  860MOL0     H16056   4.869   9.593  10.252  0.7842  1.4142 -2.1201
  860MOL0     H16057   4.891   9.760  10.268  0.6136  1.8148 -0.1332
  860MOL0     H16058   4.842   9.711  10.489  0.1289  1.2285 -0.2110
  860MOL0     H16059   5.017   9.706  10.502  1.3115 -0.5905 -1.8913
  860MOL0     H16060   4.980   9.297  10.595 -1.4835 -0.9878  2.6876
  860MOL0     H16061   4.826   9.106  10.577  2.6995 -0.1747  0.5263
  860MOL0     H16062   4.427   8.926  10.221  2.4250 -1.1316  1.2954
  860MOL0     H16063   4.251   8.755  10.237 -1.6474  0.4378  1.1651
  860MOL0     H16064   4.065   8.669  10.616 -0.8402  0.8717  1.0805
  860MOL0     H16065   3.948   8.786  10.559  0.9693  0.1008  1.3457
  860MOL0     H16066   3.821   8.603  10.449  0.1448 -1.5205 -1.0999
  860MOL0     H16067   3.957   8.491  10.458 -2.7599 -0.5532 -0.5457
  860MOL0     H16068   3.920   8.510  10.713  2.1720  1.4016 -2.6383
  860MOL0     H16069   3.777   8.609  10.674 -0.9682  1.1591 -3.2851
  860MOL0     H16070   3.822   8.318  10.594  2.2115  1.8560 -1.0071
  860MOL0     H16071   3.678   8.422  10.557  1.0347 -0.6961 -0.9760
  860MOL0     H16072   3.616   8.447  10.772  0.3579  0.1899 -0.9176
  860MOL0     H16073   3.756   8.368  10.842 -1.3360 -2.1559  1.8433
  860MOL0     H16074   3.555   8.222  10.672 -3.6875  2.7471  1.8535
  860MOL0     H16075   3.717   8.160  10.737  1.4096  2.8110 -2.5849
  860MOL0     H16076   3.462   8.252  10.886 -0.8531 -1.6638  0.9807
  860MOL0     H16077   3.606   8.194  10.966 -0.5643  2.1195 -0.4599
  860MOL0     H16078   3.571   7.977  10.845  0.4809 -0.8002  4.2855
  860MOL0     H16079   3.444   8.014  10.970 -2.1885  3.6043  0.8249
  860MOL0     H16080   4.100   8.930  10.594 -4.5916  1.2534 -4.5111
  860MOL0     H16081   4.269   9.112  10.587  2.9190 -0.3538  1.4011
  860MOL0     H16082   4.554   9.372  10.360 -1.2570 -0.2618  1.1831
  860MOL0     H16083   4.695   9.553  10.394 -1.0157  0.5935  0.3894
  860MOL0     H16084   4.099   8.867   9.661 -0.2094 -0.0959 -0.9034
  860MOL0     H16085   3.871   8.894   9.770 -0.5093 -0.5483 -0.7970
  860MOL0     H16086   3.528   9.073   9.924  1.2353 -2.2825 -1.4489
  860MOL0     H16087   3.320   9.072  10.003  2.9220  4.0212  0.2025
  860MOL0     H16088   3.124   8.967  10.051  1.5418 -3.3098  0.4180
  860MOL0     H16089   3.132   9.086  10.198  1.9500  0.1226  0.4649
  860MOL0     H16090   2.923   8.948  10.120  3.3633  0.0966 -1.8211
  860MOL0     H16091   2.954   8.967  10.305 -0.8884 -3.9109  1.7949
  860MOL0     H16092   3.067   8.747  10.308 -0.9512 -2.2914  0.3276
  860MOL0     H16093   3.041   8.731  10.134  0.9921  0.1505  1.0023
  860MOL0     H16094   2.793   8.738  10.159 -0.3869 -3.1282 -1.8700
  860MOL0     H16095   2.874   8.605  10.221 -2.0504  0.9465  0.5373
  860MOL0     H16096   2.723   8.739  10.587  4.1069  0.0675  1.8838
  860MOL0     H16097   3.405   8.778  10.303  2.7127 -1.5147 -0.3138
  860MOL0     H16098   3.757   8.711  10.219  0.6800  0.4998  0.2276
  860MOL0     H16099   3.664   8.778  10.361  3.0761  1.5785 -0.2676
  860MOL0     H16100   3.603   8.639  10.261  0.4023  0.1260 -0.7446
  861MOL0     O16101   9.568   6.631   3.956 -0.5352  0.9865 -0.1035
  861MOL0     C16102   9.571   6.740   3.909 -0.0528  0.0159 -0.6624
  861MOL0     O16103   9.676   6.826   3.923  0.3719 -0.4954  0.2252
  861MOL0     C16104   9.798   6.790   3.975  0.0328  0.5085 -0.3713
  861MOL0     C16105   9.856   6.663   3.998 -0.3101  0.0983  0.0457
  861MOL0     C16106   9.988   6.657   4.041 -0.0212  0.9516 -0.6873
  861MOL0     C16107  10.061   6.771   4.063 -0.3554  0.4130  0.5019
  861MOL0     O16108  10.195   6.754   4.110  0.5808  0.4536 -0.3593
  861MOL0     C16109  10.211   6.797   4.245 -0.1500 -0.6354  0.0479
  861MOL0     C16110  10.252   6.670   4.316 -0.2761  0.3041 -0.7927
  861MOL0     C16111  10.404   6.649   4.314  0.0314  0.1085  0.6648
  861MOL0     C16112  10.449   6.601   4.173 -0.3138  0.4318  0.8242
  861MOL0     C16113  10.593   6.547   4.149  0.6605 -0.2117  0.2757
  861MOL0     C16114  10.608   6.401   4.192  0.1384  0.0652  0.4039
  861MOL0     C16115  10.743   6.345   4.157 -0.6077 -0.0163  0.0067
  861MOL0     C16116  10.780   6.207   4.204 -0.0786 -0.7147  0.8026
  861MOL0     N16117  10.673   6.116   4.152 -0.3114  0.3743 -0.5592
  861MOL0     C16118  10.556   6.093   4.211 -0.3458  0.4346 -0.9790
  861MOL0     C16119  10.505   6.006   4.115 -0.2267 -0.6777  0.7453
  861MOL0     C16120  10.382   5.915   4.137  0.2154 -0.5452  0.7701
  861MOL0     C16121  10.266   5.968   4.062 -0.8915  0.2728 -0.4044
  861MOL0     C16122  10.157   5.859   4.026 -0.7653  0.0094 -0.1980
  861MOL0     C16123  10.080   5.817   4.147  0.1984  0.1331  0.5338
  861MOL0     O16124   9.957   5.762   4.105  0.3683 -0.9313  0.1886
  861MOL0     C16125   9.915   5.634   4.141  0.1911 -0.2309 -0.3770
  861MOL0     C16126   9.822   5.567   4.061 -0.2839  0.7568 -0.4838
  861MOL0     C16127   9.749   5.461   4.111  0.3020 -0.2435 -0.3053
  861MOL0     C16128   9.782   5.406   4.236  1.7553  0.1422  0.0914
  861MOL0     C16129   9.705   5.300   4.308  0.3423 -0.4798 -0.0237
  861MOL0     O16130   9.611   5.229   4.235  0.0067 -0.2747 -0.0137
  861MOL0     C16131   9.539   5.152   4.314  0.7924  0.7376  0.3527
  861MOL0     C16132   9.591   5.033   4.368 -0.4278  0.1970 -0.6275
  861MOL0     C16133   9.507   4.948   4.437 -0.0857  0.1848 -0.3825
  861MOL0     C16134   9.373   4.974   4.459  0.4414  0.2366  0.0675
  861MOL0     O16135   9.283   4.899   4.530  0.3640 -0.9240  0.7451
  861MOL0     C16136   9.325   4.785   4.600  0.5053 -0.1396  1.1164
  861MOL0     C16137   9.212   4.690   4.605 -0.0724 -0.0059  0.4244
  861MOL0     C16138   9.159   4.655   4.738 -0.5542  0.5977 -0.6955
  861MOL0     C16139   9.063   4.537   4.736 -0.2396  0.5977 -0.2790
  861MOL0     C16140   9.059   4.465   4.876  0.1225 -0.4876 -1.0841
  861MOL0     C16141   8.977   4.336   4.869  0.7457  0.3524  0.0716
  861MOL0     C16142   8.830   4.371   4.830  0.1019 -0.2110  0.2415
  861MOL0     C16143   8.749   4.240   4.833  0.6946  0.0872 -0.4843
  861MOL0    Cl16144   8.737   4.155   4.996  0.0610 -0.1360 -0.3462
  861MOL0     C16145   9.317   5.094   4.401  0.2277 -0.0284 -0.5313
  861MOL0     C16146   9.398   5.179   4.331 -0.2203 -0.3379  0.6321
  861MOL0     O16147   9.737   5.289   4.430 -0.2207 -0.5368 -0.0186
  861MOL0     C16148   9.889   5.466   4.315  0.6282  0.2435  0.4030
  861MOL0     C16149   9.947   5.584   4.263 -1.2968 -0.5487 -0.6405
  861MOL0     N16150  10.579   5.988   3.996  0.7276 -0.3126 -0.8183
  861MOL0     N16151  10.679   6.058   4.032  0.9490  0.2070  0.1536
  861MOL0     C16152  10.017   6.892   4.047 -0.5441  0.7296  0.4580
  861MOL0     C16153   9.880   6.899   4.010  0.6210  0.3928 -0.7791
  861MOL0     C16154   9.450   6.787   3.840  0.4752  1.0913  0.1207
  861MOL0     C16155   9.400   6.721   3.725 -0.3420  0.4493  0.2012
  861MOL0     C16156   9.293   6.764   3.652 -0.4568  0.0726 -0.8121
  861MOL0     C16157   9.213   6.869   3.705  0.6190  0.1511  0.3548
  861MOL0     O16158   9.110   6.899   3.625  0.2652  0.5979 -0.3937
  861MOL0     C16159   9.034   7.013   3.659  0.2603  0.5484 -0.0291
  861MOL0     C16160   8.904   7.036   3.579 -0.6547  0.4983  0.6263
  861MOL0     C16161   8.945   7.045   3.425  0.4965 -0.8684  0.3848
  861MOL0     C16162   8.831   6.991   3.330  0.6141  0.3049  0.4544
  861MOL0     C16163   8.790   6.851   3.362  0.3116 -0.3570 -0.8541
  861MOL0     C16164   8.755   6.743   3.393  0.1927  0.0191 -0.7997
  861MOL0     C16165   9.261   6.941   3.812 -0.1730  0.0789 -0.3971
  861MOL0     C16166   9.378   6.899   3.883  0.1111  0.3814 -0.1130
  861MOL0     C16167   9.414   6.963   4.022  0.0567 -0.1556 -0.4072
  861MOL0     H16168   9.808   6.566   3.987  0.2467 -0.4647  2.1205
  861MOL0     H16169  10.022   6.559   4.073  0.0052  1.2594  0.2502
  861MOL0     H16170  10.276   6.885   4.248 -3.2855  1.9176 -1.0917
  861MOL0     H16171  10.115   6.825   4.290 -0.5341 -0.4421 -0.8789
  861MOL0     H16172  10.196   6.580   4.290  0.4497 -0.4676  0.2095
  861MOL0     H16173  10.225   6.690   4.420  2.6917 -1.4006  0.4474
  861MOL0     H16174  10.438   6.575   4.386  0.7291 -1.0234 -0.7644
  861MOL0     H16175  10.452   6.746   4.326  0.0855  0.5192 -2.0878
  861MOL0     H16176  10.384   6.524   4.131  1.7227  0.4683 -2.8816
  861MOL0     H16177  10.437   6.688   4.107  0.1930  0.2077  0.4300
  861MOL0     H16178  10.623   6.562   4.045  0.7736  1.4260  0.5276
  861MOL0     H16179  10.661   6.601   4.215  2.9129 -0.3661 -1.7807
  861MOL0     H16180  10.593   6.385   4.299  2.1400 -0.5499  0.6481
  861MOL0     H16181  10.530   6.357   4.130 -1.6559  3.5560 -0.1010
  861MOL0     H16182  10.838   6.395   4.179  2.0603 -4.6402  0.3562
  861MOL0     H16183  10.752   6.346   4.048  2.0386  1.0613  0.1522
  861MOL0     H16184  10.876   6.179   4.161 -0.6910 -0.9237 -0.4513
  861MOL0     H16185  10.786   6.223   4.312  0.4653  3.9871  0.2694
  861MOL0     H16186  10.524   6.121   4.311  0.2510 -1.6499 -0.1324
  861MOL0     H16187  10.404   5.816   4.095 -2.4052  0.7008 -4.3777
  861MOL0     H16188  10.363   5.922   4.245 -4.9009 -0.2216  0.0959
  861MOL0     H16189  10.225   6.041   4.131  0.4684  0.5961  0.0855
  861MOL0     H16190  10.292   6.014   3.966  1.4154 -3.2425 -1.6741
  861MOL0     H16191  10.198   5.780   3.963  0.8451  1.3859 -0.9726
  861MOL0     H16192  10.100   5.923   3.957  1.6403 -1.2934 -3.6852
  861MOL0     H16193  10.062   5.903   4.212 -0.8159  0.3524 -0.0234
  861MOL0     H16194  10.140   5.745   4.203 -1.4174 -0.5349  1.4622
  861MOL0     H16195   9.789   5.615   3.970 -0.0288 -1.6842 -1.9436
  861MOL0     H16196   9.665   5.419   4.057  0.4933 -2.3550  0.9247
  861MOL0     H16197   9.697   5.015   4.358 -0.3340  0.8502 -0.8903
  861MOL0     H16198   9.560   4.863   4.479  2.7195  2.3682  0.8028
  861MOL0     H16199   9.408   4.726   4.560 -0.7373 -3.1336  2.6103
  861MOL0     H16200   9.343   4.819   4.702 -2.9576 -0.1339  1.8574
  861MOL0     H16201   9.127   4.739   4.559  1.2869  1.5623 -0.5168
  861MOL0     H16202   9.230   4.591   4.561  1.0986 -0.2031  1.3048
  861MOL0     H16203   9.248   4.625   4.794 -0.4415  1.3836 -0.4457
  861MOL0     H16204   9.117   4.744   4.787 -2.1833 -1.2022  1.3820
  861MOL0     H16205   9.083   4.466   4.655 -0.7672 -2.2655  1.9174
  861MOL0     H16206   8.964   4.576   4.713  0.5684  3.7842  1.1688
  861MOL0     H16207   9.014   4.538   4.944  1.3186 -0.4735 -0.2722
  861MOL0     H16208   9.154   4.439   4.924  0.4844  1.4722 -0.6836
  861MOL0     H16209   9.038   4.279   4.799  1.4254  2.2765 -0.9652
  861MOL0     H16210   8.985   4.296   4.971 -2.9211  0.2997  0.4558
  861MOL0     H16211   8.828   4.417   4.731  1.9551  2.0437  1.1230
  861MOL0     H16212   8.787   4.437   4.906 -1.8590 -1.7786  0.5621
  861MOL0     H16213   8.648   4.275   4.811  0.0640 -0.1478  1.7625
  861MOL0     H16214   8.798   4.177   4.758  1.1980 -0.2470  0.1145
  861MOL0     H16215   9.209   5.101   4.407 -0.0568 -3.4897  1.5882
  861MOL0     H16216   9.357   5.272   4.294  0.1636  0.0280  1.1224
  861MOL0     H16217   9.911   5.435   4.417 -0.1310  0.2621  0.5858
  861MOL0     H16218  10.010   5.636   4.335 -1.9911 -2.2904  1.3304
  861MOL0     H16219  10.087   6.972   4.070 -0.2688  1.2582 -1.8764
  861MOL0     H16220   9.849   7.000   3.989 -1.9389  0.1847  1.5543
  861MOL0     H16221   9.473   6.649   3.691  0.3510  1.0309  0.4142
  861MOL0     H16222   9.264   6.727   3.554  0.1334 -1.0265 -0.5901
  861MOL0     H16223   9.088   7.108   3.650  2.8264 -0.9504 -1.9411
  861MOL0     H16224   8.994   6.993   3.759 -4.2457  1.1696 -1.4978
  861MOL0     H16225   8.846   7.125   3.605 -4.0914 -1.4663  0.2924
  861MOL0     H16226   8.833   6.955   3.597  0.4544 -0.5830  0.2212
  861MOL0     H16227   9.033   6.979   3.428  0.2680 -1.2656  4.7166
  861MOL0     H16228   8.973   7.144   3.390 -0.8878 -1.1383 -1.6433
  861MOL0     H16229   8.741   7.053   3.328  1.4156  1.4961  0.2032
  861MOL0     H16230   8.870   6.991   3.228 -0.4637 -2.1384 -0.0191
  861MOL0     H16231   8.726   6.644   3.422  0.5216  0.5049  1.2771
  861MOL0     H16232   9.212   7.033   3.842  1.1976  1.3133 -1.7973
  861MOL0     H16233   9.494   7.036   4.006 -1.0866  0.8641 -1.6896
  861MOL0     H16234   9.325   6.994   4.077  0.8377  0.3009  0.6247
  861MOL0     H16235   9.464   6.888   4.084 -1.2665  0.0668  0.9698
  862MOL0     O16236   3.160   7.703   5.202  0.0052  0.7884 -0.1351
  862MOL0     C16237   3.092   7.618   5.144  1.0095 -0.6521 -0.6848
  862MOL0     O16238   3.133   7.523   5.060 -0.4190 -0.1823  0.5503
  862MOL0     C16239   3.267   7.497   5.052 -0.2553 -0.2387 -0.6029
  862MOL0     C16240   3.351   7.600   4.995 -0.0691 -0.2180 -0.5865
  862MOL0     C16241   3.484   7.565   4.963 -0.0785  0.5289 -0.4126
  862MOL0     C16242   3.534   7.441   4.997 -0.2996  0.7253  0.0180
  862MOL0     O16243   3.663   7.393   4.981 -0.0931 -0.6040  0.6101
  862MOL0     C16244   3.768   7.492   4.947  0.1427 -0.3995 -0.3326
  862MOL0     C16245   3.911   7.429   4.967 -0.6510  0.1762  0.1549
  862MOL0     C16246   4.022   7.533   4.939 -0.3064  0.8720  0.1209
  862MOL0     C16247   4.162   7.470   4.954  0.6049  0.3204  0.2997
  862MOL0     C16248   4.276   7.576   4.943  0.2291  0.4116 -0.8099
  862MOL0     C16249   4.402   7.510   4.988 -0.2159  1.0088  0.2160
  862MOL0     C16250   4.527   7.601   4.962  0.2906 -0.3827 -0.2304
  862MOL0     C16251   4.578   7.611   4.815 -0.2150 -0.6534  0.9125
  862MOL0     N16252   4.712   7.663   4.812  0.0969  0.0473  0.4259
  862MOL0     C16253   4.742   7.791   4.832 -0.1371 -0.5892 -0.7466
  862MOL0     C16254   4.871   7.814   4.802  0.1897  0.1383 -0.0482
  862MOL0     C16255   4.945   7.945   4.815  0.7165  0.1064  0.6515
  862MOL0     C16256   5.036   7.968   4.691  0.5979 -0.2056  0.3834
  862MOL0     C16257   5.096   8.110   4.684 -0.0117 -0.0621  0.1523
  862MOL0     C16258   5.210   8.130   4.585 -1.3382  0.9314 -0.8051
  862MOL0     O16259   5.330   8.047   4.618  0.3831 -0.9723  0.1710
  862MOL0     C16260   5.439   8.128   4.615 -0.0324  0.6875 -0.3020
  862MOL0     C16261   5.476   8.163   4.741 -0.2399 -0.2790 -0.3997
  862MOL0     C16262   5.587   8.250   4.753  0.6171 -0.5898 -0.7916
  862MOL0     C16263   5.660   8.298   4.643  0.1105 -0.1136 -0.7396
  862MOL0     C16264   5.789   8.369   4.655 -1.0729  0.3145 -0.1808
  862MOL0     O16265   5.853   8.364   4.775  0.1390 -0.0013 -0.2070
  862MOL0     C16266   5.971   8.436   4.789  0.8157  0.4956 -0.0122
  862MOL0     C16267   6.087   8.407   4.722 -0.3894 -0.6739 -0.0316
  862MOL0     C16268   6.209   8.469   4.748 -0.1958 -0.2454 -0.2481
  862MOL0     C16269   6.211   8.579   4.845 -0.9880  0.4295  0.6123
  862MOL0     O16270   6.323   8.658   4.870  1.1835 -0.1010  0.1590
  862MOL0     C16271   6.406   8.691   4.757 -0.5419  0.7921  0.2052
  862MOL0     C16272   6.499   8.814   4.789  0.1206  0.1696  0.4432
  862MOL0     C16273   6.641   8.803   4.720  0.3958  0.4548  0.6505
  862MOL0     C16274   6.714   8.925   4.737 -0.6181 -0.9017  1.0842
  862MOL0     C16275   6.860   8.914   4.681 -0.1816 -0.2852 -0.4903
  862MOL0     C16276   6.948   8.825   4.778  0.0311 -0.0500  0.9312
  862MOL0     C16277   7.071   8.900   4.830 -0.4477  0.4513 -0.1272
  862MOL0     C16278   7.130   8.844   4.963  0.9753 -0.2436 -0.6839
  862MOL0    Cl16279   7.234   8.975   5.022 -0.6686  0.0170 -0.4265
  862MOL0     C16280   6.094   8.605   4.908 -0.3057 -0.8313 -0.0996
  862MOL0     C16281   5.979   8.531   4.888  0.7036  0.0925 -0.2331
  862MOL0     O16282   5.831   8.426   4.551  0.1229  0.0299 -0.3547
  862MOL0     C16283   5.614   8.266   4.511 -0.0033  0.5689 -0.5029
  862MOL0     C16284   5.502   8.187   4.502  0.0019 -0.0540 -1.0186
  862MOL0     N16285   4.915   7.694   4.757 -0.0822  0.9420  0.3396
  862MOL0     N16286   4.820   7.608   4.761  0.0986 -0.3320  0.7208
  862MOL0     C16287   3.449   7.348   5.057 -0.4933 -0.4013  0.6479
  862MOL0     C16288   3.317   7.372   5.080  0.6568 -0.2122 -1.0481
  862MOL0     C16289   2.941   7.635   5.156 -0.4105 -0.3245 -0.5993
  862MOL0     C16290   2.893   7.765   5.185  0.4722  1.0320  0.0564
  862MOL0     C16291   2.753   7.793   5.206  0.4764 -0.0260 -0.3534
  862MOL0     C16292   2.657   7.688   5.200 -1.3656  0.0994  0.1020
  862MOL0     O16293   2.528   7.724   5.187 -0.1492  0.6621 -0.2194
  862MOL0     C16294   2.437   7.635   5.256  0.2403 -0.1853 -0.0559
  862MOL0     C16295   2.299   7.639   5.174  0.3773 -0.1528 -0.2870
  862MOL0     C16296   2.168   7.590   5.245 -0.7967 -0.0130  0.6601
  862MOL0     C16297   2.112   7.680   5.361  1.1410  0.7769  0.8220
  862MOL0     C16298   2.090   7.819   5.338  1.4127 -0.2056 -0.5557
  862MOL0     C16299   2.098   7.936   5.319 -0.8382  0.2828  0.6914
  862MOL0     C16300   2.714   7.555   5.173  0.3018  0.0850  0.1426
  862MOL0     C16301   2.847   7.529   5.155  1.5773 -0.0569 -0.1069
  862MOL0     C16302   2.873   7.383   5.120  0.9281 -0.5071 -0.5173
  862MOL0     H16303   3.322   7.694   4.950  3.4499 -0.3451 -3.4966
  862MOL0     H16304   3.542   7.648   4.925 -2.8493  3.8858  2.0569
  862MOL0     H16305   3.754   7.527   4.845  2.0130 -0.9951 -0.8365
  862MOL0     H16306   3.764   7.580   5.012  1.3943 -0.6505  0.1287
  862MOL0     H16307   3.922   7.339   4.905  1.8805  0.2831  0.3559
  862MOL0     H16308   3.901   7.407   5.074 -2.3080 -1.2780 -0.2493
  862MOL0     H16309   4.008   7.617   5.008 -2.9305  0.4464  0.2137
  862MOL0     H16310   4.005   7.570   4.838  0.1578 -1.9185 -1.0581
  862MOL0     H16311   4.167   7.417   5.050 -0.2765 -1.5632 -0.6467
  862MOL0     H16312   4.165   7.399   4.872  1.3320  2.0784 -1.2614
  862MOL0     H16313   4.283   7.618   4.843  1.0604  1.0628 -0.4858
  862MOL0     H16314   4.244   7.657   5.008 -0.0727 -0.2225 -0.1530
  862MOL0     H16315   4.396   7.496   5.097 -0.4397  1.0880  0.2152
  862MOL0     H16316   4.417   7.419   4.929 -1.7122  2.6765 -2.9641
  862MOL0     H16317   4.599   7.546   5.024 -2.4836 -2.6700  1.1930
  862MOL0     H16318   4.520   7.697   5.014 -1.1831 -1.9273  2.6646
  862MOL0     H16319   4.580   7.507   4.780  2.5049 -0.5459  0.5165
  862MOL0     H16320   4.509   7.678   4.763 -1.6283 -1.5667  1.5345
  862MOL0     H16321   4.680   7.867   4.878  0.4245  0.4545 -1.6703
  862MOL0     H16322   4.872   8.025   4.828 -0.5489 -0.4183 -2.2616
  862MOL0     H16323   5.008   7.954   4.904  0.5843 -0.0569  0.7617
  862MOL0     H16324   5.117   7.895   4.689  1.8657  1.1185 -2.3193
  862MOL0     H16325   4.981   7.947   4.599  1.2229  2.7772 -0.8014
  862MOL0     H16326   5.127   8.134   4.786  1.1016  0.0262 -0.1896
  862MOL0     H16327   5.022   8.182   4.649 -2.2724 -0.7556  3.1647
  862MOL0     H16328   5.227   8.238   4.598  2.9023  0.5922 -2.0473
  862MOL0     H16329   5.160   8.107   4.490 -2.2123  0.7021 -0.2986
  862MOL0     H16330   5.421   8.135   4.830 -1.0675  0.1927 -0.7454
  862MOL0     H16331   5.607   8.269   4.858 -0.2076 -3.5026 -0.0287
  862MOL0     H16332   6.077   8.334   4.643  0.8032 -1.0704  0.1549
  862MOL0     H16333   6.293   8.454   4.680  0.8855  0.2680  0.9271
  862MOL0     H16334   6.465   8.601   4.740 -1.8278 -0.6474  2.7214
  862MOL0     H16335   6.350   8.709   4.665 -1.5824 -0.4085  0.5915
  862MOL0     H16336   6.442   8.903   4.763 -1.2990 -0.9574 -0.5122
  862MOL0     H16337   6.505   8.821   4.898 -0.1422 -1.2389  0.5651
  862MOL0     H16338   6.703   8.718   4.748 -1.4148 -0.5642  1.7628
  862MOL0     H16339   6.622   8.788   4.614 -1.4621 -1.2975  1.1777
  862MOL0     H16340   6.707   8.959   4.840  3.2682  1.6259  0.7115
  862MOL0     H16341   6.670   9.007   4.680  1.4875  1.7443  3.0442
  862MOL0     H16342   6.894   9.017   4.685 -2.8347  0.6407  1.8635
  862MOL0     H16343   6.864   8.874   4.579  2.9392 -2.7878  0.4661
  862MOL0     H16344   6.886   8.785   4.858  0.5856  0.9194  1.8639
  862MOL0     H16345   6.974   8.738   4.717 -5.7222 -2.0802  0.7588
  862MOL0     H16346   7.054   9.005   4.852  5.2606  1.5194  0.7831
  862MOL0     H16347   7.154   8.889   4.760  0.7170 -1.1787  1.4190
  862MOL0     H16348   7.052   8.834   5.039 -0.0641  0.9302 -1.5349
  862MOL0     H16349   7.185   8.751   4.953  1.8916  0.1531  0.4517
  862MOL0     H16350   6.081   8.682   4.983  0.6343 -1.2153  0.4683
  862MOL0     H16351   5.890   8.567   4.938  1.7984  1.8118  0.5596
  862MOL0     H16352   5.679   8.288   4.427  0.5969  2.6526  0.4471
  862MOL0     H16353   5.462   8.164   4.404 -0.3559 -0.3518 -0.8048
  862MOL0     H16354   3.492   7.261   5.106  0.9671  0.1293  0.3784
  862MOL0     H16355   3.258   7.293   5.127 -2.9445  1.7266 -1.8915
  862MOL0     H16356   2.952   7.856   5.193 -0.4036  1.4471  3.6421
  862MOL0     H16357   2.717   7.895   5.220 -1.2476 -0.8140  1.2516
  862MOL0     H16358   2.428   7.675   5.358 -0.3859  1.4230 -0.7095
  862MOL0     H16359   2.466   7.530   5.258  0.2385 -0.1820  0.1504
  862MOL0     H16360   2.314   7.570   5.090 -2.2138 -1.5209  0.2791
  862MOL0     H16361   2.272   7.739   5.139 -3.7476 -1.6428 -1.9230
  862MOL0     H16362   2.197   7.493   5.287  2.2256  0.1786 -0.7054
  862MOL0     H16363   2.098   7.578   5.162  2.6384 -2.5704 -2.2094
  862MOL0     H16364   2.017   7.630   5.381 -1.1567  4.3719 -0.3038
  862MOL0     H16365   2.164   7.674   5.458 -0.6355 -1.8837  1.7331
  862MOL0     H16366   2.109   8.038   5.289 -2.1780 -0.2446 -1.9039
  862MOL0     H16367   2.639   7.477   5.159 -1.1026  1.2509  0.8833
  862MOL0     H16368   2.778   7.331   5.131 -0.0612  1.3764  0.3514
  862MOL0     H16369   2.908   7.366   5.018  1.6226 -1.8437 -0.0795
  862MOL0     H16370   2.949   7.338   5.184 -1.2915 -3.5108  0.2387
  863MOL0     O16371   1.682  10.901   1.009  1.1538 -0.2031  0.5328
  863MOL0     C16372   1.585  10.972   1.040  1.3956 -0.2853  0.6988
  863MOL0     O16373   1.577  11.076   1.132  0.4911  0.5136 -0.2486
  863MOL0     C16374   1.699  11.086   1.196  0.3851 -0.6829  0.6929
  863MOL0     C16375   1.747  10.990   1.274  0.4329 -0.6841  0.2553
  863MOL0     C16376   1.870  10.997   1.333 -0.3059 -0.3220  0.7612
  863MOL0     C16377   1.960  11.102   1.301  0.9815 -0.5200 -1.0980
  863MOL0     O16378   2.086  11.120   1.359  0.0827 -0.2820 -0.3117
  863MOL0     C16379   2.154  11.005   1.393 -0.8609  0.7957  0.1777
  863MOL0     C16380   2.297  11.057   1.420  0.4130 -0.6257  0.1775
  863MOL0     C16381   2.300  11.114   1.559  0.4312  0.0394 -0.0582
  863MOL0     C16382   2.446  11.151   1.609  0.2593  0.2102  0.2406
  863MOL0     C16383   2.449  11.218   1.748 -1.1234 -0.3377 -0.6504
  863MOL0     C16384   2.588  11.251   1.804  0.1004  0.2065  0.0454
  863MOL0     C16385   2.581  11.257   1.953 -0.2746  0.3996 -0.6140
  863MOL0     C16386   2.722  11.265   2.018  0.1637  0.2513 -0.5610
  863MOL0     N16387   2.726  11.316   2.160 -0.4335  0.0589  0.0184
  863MOL0     C16388   2.843  11.354   2.220  0.3193 -0.2586  0.6484
  863MOL0     C16389   2.808  11.386   2.340 -0.2980  0.5250 -0.1925
  863MOL0     C16390   2.911  11.418   2.438 -0.8450  0.0650  0.6392
  863MOL0     C16391   2.897  11.549   2.514  0.0824  0.0758  0.2998
  863MOL0     C16392   2.803  11.556   2.636 -0.7725  0.3266 -0.6035
  863MOL0     C16393   2.827  11.449   2.742  0.4422 -0.8310 -0.4719
  863MOL0     O16394   2.963  11.434   2.780 -0.0552 -1.1064 -0.0997
  863MOL0     C16395   3.011  11.485   2.897 -0.5084  0.0953  0.0202
  863MOL0     C16396   2.978  11.430   3.023 -0.3674  0.3401 -0.3192
  863MOL0     C16397   3.046  11.475   3.137 -0.2180  0.1500  0.6536
  863MOL0     C16398   3.151  11.568   3.117  0.4056  0.7080 -0.0341
  863MOL0     C16399   3.237  11.591   3.229  0.2352 -0.1252  0.8854
  863MOL0     O16400   3.195  11.565   3.357 -0.2419  0.3280  0.6219
  863MOL0     C16401   3.286  11.547   3.456 -0.2955 -0.8581 -0.0940
  863MOL0     C16402   3.241  11.575   3.590 -0.3743  0.6482  0.3383
  863MOL0     C16403   3.319  11.550   3.703 -0.0191 -0.0149  0.1244
  863MOL0     C16404   3.449  11.510   3.689  0.6055  0.1925 -0.1716
  863MOL0     O16405   3.524  11.493   3.802  0.4979  0.1836 -0.0651
  863MOL0     C16406   3.665  11.470   3.796  1.2994 -0.5281  0.1458
  863MOL0     C16407   3.720  11.441   3.935 -0.5225  0.1959  0.5860
  863MOL0     C16408   3.854  11.361   3.946  0.3259 -0.5616 -0.0256
  863MOL0     C16409   3.972  11.449   3.902 -0.6033 -0.4635 -0.9913
  863MOL0     C16410   4.077  11.454   4.019 -0.6968 -0.4115  0.1580
  863MOL0     C16411   4.190  11.353   3.995  0.8741 -0.5256 -0.7675
  863MOL0     C16412   4.304  11.371   4.100  0.5522  0.7486 -0.3711
  863MOL0     C16413   4.420  11.275   4.076 -0.6140 -0.5722 -0.0895
  863MOL0    Cl16414   4.523  11.291   4.225 -0.0045 -0.0479 -0.4401
  863MOL0     C16415   3.501  11.476   3.566  0.1263 -0.0565  0.7357
  863MOL0     C16416   3.422  11.494   3.453 -0.0454 -0.1954  1.2605
  863MOL0     O16417   3.342  11.639   3.201  0.2975 -0.3884  0.2112
  863MOL0     C16418   3.184  11.619   2.988 -0.1394  0.1056  0.2253
  863MOL0     C16419   3.118  11.569   2.881  0.0477 -0.2066  0.4208
  863MOL0     N16420   2.672  11.361   2.359 -0.5969  0.3970  0.7294
  863MOL0     N16421   2.620  11.314   2.244 -0.0755 -0.3364 -0.5753
  863MOL0     C16422   1.909  11.204   1.212 -0.2124  0.3291 -1.2118
  863MOL0     C16423   1.779  11.199   1.156 -0.0124  0.5531 -0.4593
  863MOL0     C16424   1.464  10.933   0.960 -0.0042 -0.0266  0.3440
  863MOL0     C16425   1.481  10.876   0.830 -0.3753  0.1628  0.1449
  863MOL0     C16426   1.370  10.852   0.741  0.1241 -0.4937  1.0054
  863MOL0     C16427   1.238  10.879   0.779 -0.3223 -0.1636  0.9692
  863MOL0     O16428   1.125  10.854   0.703 -0.1073  0.4244 -0.5519
  863MOL0     C16429   1.128  10.813   0.565 -0.0210 -0.0632 -0.1587
  863MOL0     C16430   1.103  10.935   0.479 -0.4868 -0.4761 -0.3800
  863MOL0     C16431   1.061  10.920   0.336 -0.3337 -0.2425 -0.2104
  863MOL0     C16432   1.165  10.846   0.249  0.2699 -0.6047  1.0624
  863MOL0     C16433   1.112  10.838   0.112 -0.0167  0.2738 -0.4564
  863MOL0     C16434   1.062  10.845   0.003 -0.5417 -0.7024 -0.3528
  863MOL0     C16435   1.221  10.922   0.906 -0.0509 -0.7335 -0.5100
  863MOL0     C16436   1.333  10.953   0.996 -0.2114 -0.3760  0.0821
  863MOL0     C16437   1.293  11.026   1.121  0.2652 -0.2757  0.1691
  863MOL0     H16438   1.686  10.902   1.290 -0.1937 -0.7130 -1.9957
  863MOL0     H16439   1.911  10.912   1.386 -0.4614 -0.1405  1.1770
  863MOL0     H16440   2.105  10.969   1.483 -1.2910  2.6243  0.7183
  863MOL0     H16441   2.150  10.931   1.312  0.3684  0.5859  0.2919
  863MOL0     H16442   2.327  11.142   1.358 -1.9702  1.3077  1.5150
  863MOL0     H16443   2.358  10.969   1.399  0.5660 -0.2345 -1.1006
  863MOL0     H16444   2.267  11.033   1.624  1.2937 -1.3695 -1.3163
  863MOL0     H16445   2.229  11.196   1.572 -0.1487 -0.0705 -2.2215
  863MOL0     H16446   2.513  11.064   1.613 -1.4887 -1.1672  0.8439
  863MOL0     H16447   2.496  11.217   1.537  0.3513  2.2955  2.1307
  863MOL0     H16448   2.388  11.308   1.737 -0.3606 -0.0552 -3.3101
  863MOL0     H16449   2.388  11.149   1.807 -0.8890 -2.0466 -2.2851
  863MOL0     H16450   2.662  11.174   1.778  1.2715  2.1970 -3.1197
  863MOL0     H16451   2.615  11.351   1.767 -1.0999  0.6175  0.2461
  863MOL0     H16452   2.536  11.169   2.000  3.1271 -3.0215 -3.1210
  863MOL0     H16453   2.532  11.352   1.977 -2.4485 -1.5724  3.9056
  863MOL0     H16454   2.781  11.174   2.008  1.7149  0.9193  1.6156
  863MOL0     H16455   2.784  11.337   1.964  1.0285 -1.7504 -2.3954
  863MOL0     H16456   2.942  11.375   2.180  0.0614 -1.6015 -0.8334
  863MOL0     H16457   2.936  11.337   2.508  2.2608 -0.2840 -0.6862
  863MOL0     H16458   3.009  11.416   2.389 -1.2988 -2.1580 -0.2880
  863MOL0     H16459   3.000  11.582   2.530 -0.2559  1.0212  0.5855
  863MOL0     H16460   2.856  11.616   2.438 -1.0158 -0.9832 -0.0814
  863MOL0     H16461   2.701  11.544   2.599  0.1699 -0.4233 -3.1271
  863MOL0     H16462   2.810  11.655   2.683 -2.1957 -1.0051  2.7227
  863MOL0     H16463   2.782  11.357   2.703 -0.5924 -0.5411  0.0002
  863MOL0     H16464   2.767  11.479   2.828  1.2713  1.5820 -0.6427
  863MOL0     H16465   2.898  11.357   3.033 -0.8859  0.9278 -0.1094
  863MOL0     H16466   3.037  11.423   3.232  1.2088 -2.0627 -0.3468
  863MOL0     H16467   3.146  11.626   3.593 -0.2161  0.9255  1.8783
  863MOL0     H16468   3.272  11.556   3.800  0.0763  2.3470  0.0861
  863MOL0     H16469   3.671  11.389   3.723  1.3250  1.7498 -2.4977
  863MOL0     H16470   3.712  11.550   3.739  2.2703 -2.9758 -2.7314
  863MOL0     H16471   3.722  11.537   3.988 -2.9351  0.7576 -0.1719
  863MOL0     H16472   3.648  11.374   3.983  0.7079 -2.2378 -0.8190
  863MOL0     H16473   3.859  11.341   4.054 -1.4653  1.0222  0.3990
  863MOL0     H16474   3.839  11.268   3.890 -3.8141  0.3183 -0.6926
  863MOL0     H16475   3.934  11.551   3.891 -0.3316 -0.3457 -0.8641
  863MOL0     H16476   4.022  11.409   3.814  0.7263 -1.3205  0.1103
  863MOL0     H16477   4.038  11.424   4.117  2.3016 -1.8310  1.0271
  863MOL0     H16478   4.127  11.551   4.033  0.7918 -0.9659 -0.9927
  863MOL0     H16479   4.156  11.250   3.991 -0.0768 -0.2043 -1.3494
  863MOL0     H16480   4.240  11.371   3.899  2.6153  1.0699  0.3661
  863MOL0     H16481   4.260  11.353   4.199 -2.7998 -3.2049 -2.2887
  863MOL0     H16482   4.348  11.470   4.084 -0.5081  0.9088 -2.7199
  863MOL0     H16483   4.397  11.169   4.068  0.7337 -0.9513  0.7132
  863MOL0     H16484   4.472  11.293   3.981 -3.0826  2.9588 -0.9647
  863MOL0     H16485   3.603  11.443   3.549 -0.1395 -0.4542 -0.1684
  863MOL0     H16486   3.461  11.462   3.357 -0.9153  1.0333  0.4654
  863MOL0     H16487   3.252  11.703   2.983 -0.5101  0.4314  0.5705
  863MOL0     H16488   3.120  11.600   2.777 -2.3620 -2.0974 -0.2946
  863MOL0     H16489   1.978  11.286   1.193  1.1378 -0.2791  0.7969
  863MOL0     H16490   1.742  11.284   1.100 -1.8935 -0.3636 -0.6467
  863MOL0     H16491   1.585  10.855   0.807 -0.4493 -0.0738  0.0270
  863MOL0     H16492   1.407  10.821   0.644 -0.4111  1.3253  0.1705
  863MOL0     H16493   1.043  10.747   0.552 -1.3904  1.6468 -0.2694
  863MOL0     H16494   1.221  10.761   0.541 -1.9434 -2.4794 -2.9899
  863MOL0     H16495   1.197  10.991   0.485  1.0106 -2.9865  2.4296
  863MOL0     H16496   1.022  10.991   0.525 -0.8430 -0.6945 -0.7403
  863MOL0     H16497   1.048  11.021   0.299  1.3082 -0.1151 -0.5367
  863MOL0     H16498   0.964  10.870   0.333  0.4172 -1.7709 -0.2245
  863MOL0     H16499   1.259  10.901   0.239 -0.6502  1.3625  2.5410
  863MOL0     H16500   1.171  10.741   0.279  1.0399 -0.9766 -0.3169
  863MOL0     H16501   1.038  10.829  -0.100  0.5649  0.5679 -0.8300
  863MOL0     H16502   1.117  10.934   0.937 -0.0153 -4.5390  1.7471
  863MOL0     H16503   1.311  11.132   1.104 -1.5676  0.0592  0.1652
  863MOL0     H16504   1.185  11.010   1.133 -0.3212 -0.1765 -3.7470
  863MOL0     H16505   1.356  10.989   1.202  4.4976 -0.8881 -3.0358
  864MOL0     O16506   2.209   9.358  10.491  0.0875 -0.3925  0.1682
  864MOL0     C16507   2.159   9.452  10.546 -0.4916 -0.0293 -0.4142
  864MOL0     O16508   2.170   9.471  10.686  0.0782  0.6791  0.2649
  864MOL0     C16509   2.267   9.418  10.757 -0.6571 -0.1437  0.3283
  864MOL0     C16510   2.245   9.293  10.818  0.3195 -0.1294  0.6445
  864MOL0     C16511   2.347   9.238  10.895 -0.4112  1.1572 -0.3376
  864MOL0     C16512   2.475   9.299  10.909  0.7079  1.2616  0.4081
  864MOL0     O16513   2.579   9.267  10.987  0.8249  0.4360 -0.1961
  864MOL0     C16514   2.579   9.148  11.078  0.0023  0.5359 -0.5461
  864MOL0     C16515   2.649   9.032  11.019 -0.1674 -0.8917 -0.0717
  864MOL0     C16516   2.758   9.071  10.914 -0.3407  0.0980 -0.3391
  864MOL0     C16517   2.868   8.965  10.893  0.9008 -0.3021 -0.4249
  864MOL0     C16518   2.932   8.977  10.748 -0.0047 -0.2002 -0.4312
  864MOL0     C16519   3.029   8.874  10.723  0.0292  0.9265 -0.1271
  864MOL0     C16520   3.103   8.887  10.591 -0.3414 -0.1310 -0.9605
  864MOL0     C16521   3.228   8.801  10.596 -0.5929 -0.0485  0.1965
  864MOL0     N16522   3.364   8.863  10.618 -0.3073  0.2019 -0.2914
  864MOL0     C16523   3.394   8.999  10.594  0.4428 -0.6384 -0.1871
  864MOL0     C16524   3.523   9.004  10.610  0.6930  1.2148  0.3225
  864MOL0     C16525   3.620   9.127  10.617 -0.5749 -0.0613  0.2906
  864MOL0     C16526   3.691   9.146  10.479 -1.2290  0.6531 -0.5054
  864MOL0     C16527   3.818   9.065  10.457 -0.5594  1.5139 -0.1467
  864MOL0     C16528   3.900   9.090  10.331 -0.1656 -0.0402 -0.4768
  864MOL0     O16529   3.970   9.209  10.362 -0.5338 -0.6717 -0.4004
  864MOL0     C16530   4.066   9.250  10.274 -0.2732 -0.2948  0.1111
  864MOL0     C16531   4.087   9.181  10.152  0.9471  0.4599 -0.4527
  864MOL0     C16532   4.196   9.222  10.069 -0.3558 -0.2025  0.1190
  864MOL0     C16533   4.279   9.335  10.101  0.5697  0.2119  0.5539
  864MOL0     C16534   4.390   9.378  10.017  0.4022 -0.0021 -0.1498
  864MOL0     O16535   4.481   9.461  10.081  0.2840  0.0983  0.3634
  864MOL0     C16536   4.563   9.532   9.996 -0.6590 -0.2931  1.1922
  864MOL0     C16537   4.516   9.641   9.929  0.1098 -0.5739  0.9579
  864MOL0     C16538   4.596   9.725   9.851  0.4829 -0.3461 -0.5371
  864MOL0     C16539   4.733   9.703   9.844 -0.3450 -0.0933  0.3097
  864MOL0     O16540   4.810   9.796   9.769  0.0536 -0.2211  0.5477
  864MOL0     C16541   4.945   9.773   9.719 -0.8565 -0.6770 -0.5144
  864MOL0     C16542   5.036   9.827   9.824  1.1330 -0.4660  0.9983
  864MOL0     C16543   5.186   9.788   9.794  0.5312 -0.7430 -1.0574
  864MOL0     C16544   5.229   9.640   9.818 -0.1601 -1.1170 -0.9833
  864MOL0     C16545   5.376   9.614   9.823 -0.7576 -0.4102  0.0349
  864MOL0     C16546   5.444   9.669   9.941  0.0251  0.3438  0.3341
  864MOL0     C16547   5.585   9.625   9.961 -0.1944  0.6895  1.1741
  864MOL0     C16548   5.657   9.702  10.063 -0.0180 -0.1329  0.2741
  864MOL0    Cl16549   5.841   9.695  10.033 -0.2408  0.5663 -0.2181
  864MOL0     C16550   4.795   9.589   9.911  0.2275 -0.1230 -0.7872
  864MOL0     C16551   4.708   9.509   9.985  0.8417  1.0100  0.2511
  864MOL0     O16552   4.391   9.342   9.897 -0.7871  0.6190 -0.1608
  864MOL0     C16553   4.248   9.407  10.213  0.6569  0.7986 -0.7616
  864MOL0     C16554   4.148   9.358  10.302 -0.6406 -0.4957 -0.1988
  864MOL0     N16555   3.566   8.878  10.644 -0.6168 -0.1941  0.6553
  864MOL0     N16556   3.475   8.790  10.629 -0.1590 -0.3054  0.3259
  864MOL0     C16557   2.493   9.423  10.842  0.2919 -0.6330  0.4249
  864MOL0     C16558   2.396   9.485  10.769  0.8597  0.0262  0.0840
  864MOL0     C16559   2.083   9.556  10.479 -0.8487 -0.3069 -0.4100
  864MOL0     C16560   1.978   9.619  10.539  0.5841 -0.6322  0.6781
  864MOL0     C16561   1.902   9.717  10.465  0.3588  0.2753 -0.2964
  864MOL0     C16562   1.942   9.771  10.339 -0.3842  0.6547  0.9209
  864MOL0     O16563   1.871   9.880  10.277 -0.7863 -0.1101 -0.3012
  864MOL0     C16564   1.927   9.939  10.156 -0.2610  0.4326 -0.4030
  864MOL0     C16565   1.826  10.039  10.084  0.8406  0.0049  0.5739
  864MOL0     C16566   1.759  10.129  10.185  0.1105  0.5329  0.5654
  864MOL0     C16567   1.636  10.215  10.140 -0.5246 -0.0839 -1.0363
  864MOL0     C16568   1.517  10.137  10.101 -0.3951 -0.5125  0.0411
  864MOL0     C16569   1.423  10.069  10.068 -0.2682 -0.0220 -0.3039
  864MOL0     C16570   2.066   9.714  10.294 -0.2325 -0.5183  0.1032
  864MOL0     C16571   2.134   9.604  10.358 -0.0035  0.2218  0.1252
  864MOL0     C16572   2.247   9.536  10.290  0.6228  0.2996  0.4447
  864MOL0     H16573   2.147   9.247  10.807  1.0122 -2.2168  2.5120
  864MOL0     H16574   2.342   9.149  10.957 -4.0987  1.5247  0.1561
  864MOL0     H16575   2.620   9.181  11.174 -1.2051  0.4515  0.0146
  864MOL0     H16576   2.483   9.102  11.102  0.8391 -0.8266  0.3444
  864MOL0     H16577   2.568   8.972  10.976 -1.7525 -0.3594  1.9671
  864MOL0     H16578   2.697   8.975  11.099  1.2758  0.2507 -0.0845
  864MOL0     H16579   2.814   9.159  10.948 -0.2702 -0.5393  1.3311
  864MOL0     H16580   2.716   9.100  10.818  0.3722 -3.8063 -2.0425
  864MOL0     H16581   2.943   8.986  10.969  1.5552 -0.9960 -0.8659
  864MOL0     H16582   2.817   8.868  10.898  1.6479 -1.3167 -5.8921
  864MOL0     H16583   2.856   8.959  10.672 -3.0389  2.1923  1.8047
  864MOL0     H16584   2.982   9.075  10.743 -1.0933  0.4675  0.9488
  864MOL0     H16585   3.097   8.874  10.809 -0.8086 -0.0517  0.5622
  864MOL0     H16586   2.984   8.775  10.726  2.1574 -0.0897  0.0550
  864MOL0     H16587   3.134   8.989  10.569  1.5626 -0.5379 -0.3269
  864MOL0     H16588   3.033   8.866  10.509 -2.9438  0.6605  0.9088
  864MOL0     H16589   3.209   8.716  10.662 -3.2149 -1.1645 -1.7914
  864MOL0     H16590   3.244   8.755  10.498  0.3695 -0.3381  0.4714
  864MOL0     H16591   3.323   9.076  10.566  0.7983 -0.0719  0.4560
  864MOL0     H16592   3.552   9.212  10.631  0.3752  0.7883 -0.0934
  864MOL0     H16593   3.692   9.124  10.699 -3.3988 -1.5390  2.9011
  864MOL0     H16594   3.622   9.150  10.394 -1.5990  1.7541 -0.1682
  864MOL0     H16595   3.725   9.250  10.478  0.9393  0.0315 -3.4031
  864MOL0     H16596   3.803   8.957  10.470  1.4255  0.9146 -2.2528
  864MOL0     H16597   3.882   9.095  10.541  0.2298 -0.5512  0.0675
  864MOL0     H16598   3.829   9.097  10.248 -1.2242 -2.7677  0.0757
  864MOL0     H16599   3.967   9.006  10.314  1.2968  0.9353  0.3144
  864MOL0     H16600   4.029   9.103  10.104 -2.2656  2.4493 -0.0360
  864MOL0     H16601   4.227   9.164   9.983 -0.4867 -0.3084  0.1417
  864MOL0     H16602   4.412   9.669   9.934  0.1940 -0.0778  0.1538
  864MOL0     H16603   4.552   9.808   9.797  0.8864 -1.1933 -2.2330
  864MOL0     H16604   4.965   9.667   9.698  0.1870 -1.0134  1.8413
  864MOL0     H16605   4.963   9.822   9.623 -1.2562 -0.5677 -0.5328
  864MOL0     H16606   5.020   9.935   9.812 -2.4254 -1.1414 -2.9271
  864MOL0     H16607   5.003   9.802   9.925 -2.0622 -1.3708 -0.1540
  864MOL0     H16608   5.213   9.808   9.690  2.3910  0.3538 -0.4051
  864MOL0     H16609   5.247   9.857   9.853  1.3495 -1.1608 -1.4023
  864MOL0     H16610   5.190   9.582   9.734  0.3027 -0.1673 -1.8766
  864MOL0     H16611   5.178   9.604   9.908 -0.0760  0.7847 -0.1328
  864MOL0     H16612   5.421   9.658   9.734  0.0633  0.8906  1.0580
  864MOL0     H16613   5.406   9.510   9.816  2.2633  0.4711 -2.3071
  864MOL0     H16614   5.446   9.778   9.930  0.4781  0.5457  2.1377
  864MOL0     H16615   5.393   9.638  10.033  3.6074 -2.4701  1.6469
  864MOL0     H16616   5.633   9.639   9.864  1.4608 -2.7381  1.3299
  864MOL0     H16617   5.599   9.518   9.976  0.1511  0.4275 -0.8075
  864MOL0     H16618   5.627   9.805  10.041  1.6861  0.3146 -0.0805
  864MOL0     H16619   5.627   9.686  10.167 -2.3923 -0.2201 -0.3647
  864MOL0     H16620   4.901   9.570   9.900  0.6961  1.5057  0.4078
  864MOL0     H16621   4.755   9.434  10.047  1.3116 -0.7653 -2.1261
  864MOL0     H16622   4.309   9.489  10.247  0.7189  1.1968 -1.8018
  864MOL0     H16623   4.123   9.406  10.397 -0.5061 -0.0186 -0.3995
  864MOL0     H16624   2.582   9.482  10.856 -0.1077  0.1504 -0.2531
  864MOL0     H16625   2.405   9.583  10.724 -2.2795  0.3358 -0.0992
  864MOL0     H16626   1.943   9.600  10.640 -1.0798  0.2747  0.3109
  864MOL0     H16627   1.809   9.759  10.500 -1.2933 -1.2754 -2.5739
  864MOL0     H16628   1.939   9.862  10.080  0.0239  1.6131 -1.5789
  864MOL0     H16629   2.020   9.994  10.172  0.5994 -0.0278 -3.3052
  864MOL0     H16630   1.749   9.973  10.042  1.4733  0.6541 -1.7252
  864MOL0     H16631   1.867  10.096  10.000 -2.2163  1.6583  0.0641
  864MOL0     H16632   1.833  10.204  10.213  1.9541 -0.5294 -1.2108
  864MOL0     H16633   1.729  10.062  10.265  2.2306 -0.7388  0.3460
  864MOL0     H16634   1.614  10.269  10.232 -1.4307  0.3005 -1.4671
  864MOL0     H16635   1.670  10.279  10.058  0.5620  0.9744  0.2019
  864MOL0     H16636   1.325  10.033  10.044 -1.8348  3.2377  0.5202
  864MOL0     H16637   2.110   9.747  10.201 -0.8875 -1.7335 -0.6576
  864MOL0     H16638   2.281   9.591  10.201  1.3387 -1.7826 -0.6197
  864MOL0     H16639   2.332   9.527  10.358  1.4545  1.1687 -0.4584
  864MOL0     H16640   2.239   9.431  10.261  1.0290  0.4065 -0.0714
  865MOL0     O16641   9.780   8.934   9.004 -0.4401 -0.3696  0.9126
  865MOL0     C16642   9.800   8.867   8.906 -0.0573  0.3947  0.3783
  865MOL0     O16643   9.733   8.880   8.792 -0.0148  0.1796 -0.2284
  865MOL0     C16644   9.630   8.978   8.788 -0.6204  0.4873 -0.3223
  865MOL0     C16645   9.665   9.111   8.766  0.9013 -0.4988  0.3424
  865MOL0     C16646   9.562   9.205   8.747 -0.1980  0.0127  0.0729
  865MOL0     C16647   9.423   9.164   8.728 -0.0041 -0.3681 -0.0617
  865MOL0     O16648   9.323   9.238   8.677  0.5572 -0.0563 -0.2876
  865MOL0     C16649   9.344   9.365   8.637 -0.0837  0.2167 -0.5209
  865MOL0     C16650   9.205   9.416   8.576 -0.1937 -0.1174  0.4933
  865MOL0     C16651   9.144   9.336   8.462  0.0372  0.6057 -0.9506
  865MOL0     C16652   8.998   9.366   8.424 -0.2795 -0.3518  0.3142
  865MOL0     C16653   8.937   9.287   8.305  0.1454  0.1145  0.1693
  865MOL0     C16654   8.925   9.134   8.302  0.7615  0.3302  0.2981
  865MOL0     C16655   8.887   9.090   8.156  1.2370 -0.5220 -1.0327
  865MOL0     C16656   8.900   8.948   8.122  0.0110 -0.7686  0.9411
  865MOL0     N16657   9.008   8.885   8.195  0.4306 -1.6871  0.0205
  865MOL0     C16658   9.143   8.905   8.194  0.3807 -1.1065  0.4136
  865MOL0     C16659   9.194   8.845   8.303 -0.1335 -1.0530  1.0447
  865MOL0     C16660   9.345   8.847   8.336 -0.1517 -0.3373  0.0560
  865MOL0     C16661   9.426   8.983   8.331  0.9221  0.2100 -1.0084
  865MOL0     C16662   9.561   8.952   8.292 -0.4791 -0.2879 -0.0369
  865MOL0     C16663   9.643   8.869   8.399  0.4013  0.5572  0.5332
  865MOL0     O16664   9.775   8.852   8.342  0.4835  0.0207 -0.6753
  865MOL0     C16665   9.879   8.874   8.424 -0.2114  0.0131 -0.1373
  865MOL0     C16666   9.974   8.773   8.448 -0.4482 -0.0130  0.5059
  865MOL0     C16667  10.086   8.796   8.534  0.1337 -0.4917  0.5871
  865MOL0     C16668  10.100   8.914   8.618 -0.6653  0.1794 -0.2751
  865MOL0     C16669  10.216   8.939   8.718  0.1187  0.1123  0.7885
  865MOL0     O16670  10.322   8.852   8.728  0.3091 -0.5485  0.3842
  865MOL0     C16671  10.444   8.891   8.777 -0.5320 -0.8253  0.3320
  865MOL0     C16672  10.548   8.917   8.685  0.9874 -0.0765  0.0208
  865MOL0     C16673  10.685   8.934   8.722  0.4028 -0.0554 -0.0157
  865MOL0     C16674  10.710   8.959   8.853 -0.1318 -0.5443  0.3613
  865MOL0     O16675  10.831   9.017   8.881 -0.4486 -0.1621  0.4389
  865MOL0     C16676  10.923   8.958   8.980 -0.4896 -0.3371 -0.4376
  865MOL0     C16677  10.967   9.057   9.093  0.4095 -0.2903  0.1483
  865MOL0     C16678  11.090   9.003   9.152  0.1649  0.0089 -0.9755
  865MOL0     C16679  11.164   9.090   9.260  0.7745  0.3537 -0.0812
  865MOL0     C16680  11.206   9.230   9.229  0.5500 -0.8912  0.2048
  865MOL0     C16681  11.331   9.227   9.137  0.9077  0.5664 -1.2016
  865MOL0     C16682  11.351   9.352   9.060  0.3126  0.2357 -0.3209
  865MOL0     C16683  11.425   9.326   8.936 -0.4142 -1.0333  0.1424
  865MOL0    Cl16684  11.353   9.202   8.824  0.2029  0.4262  0.3681
  865MOL0     C16685  10.607   8.956   8.943  0.4015 -0.2850 -0.3347
  865MOL0     C16686  10.472   8.923   8.906  0.1513  0.3933  0.9113
  865MOL0     O16687  10.217   9.056   8.764 -0.0058  0.1815  0.1777
  865MOL0     C16688   9.998   9.010   8.594 -0.1327  0.6388  0.4770
  865MOL0     C16689   9.889   8.993   8.503 -0.1089  1.6688 -0.6650
  865MOL0     N16690   9.091   8.784   8.370  0.1310 -0.1324  0.2897
  865MOL0     N16691   8.983   8.811   8.303  0.0648 -0.3089 -0.5751
  865MOL0     C16692   9.398   9.031   8.752 -1.3266 -0.5259  0.2387
  865MOL0     C16693   9.500   8.940   8.776 -1.0192  0.0742  0.2560
  865MOL0     C16694   9.904   8.761   8.912 -0.5580  0.5635  1.2026
  865MOL0     C16695   9.876   8.629   8.854 -0.0592 -1.2516  0.0683
  865MOL0     C16696   9.974   8.541   8.847 -0.1901  0.2040  0.0998
  865MOL0     C16697  10.100   8.564   8.906  0.0229 -0.9845 -0.6898
  865MOL0     O16698  10.185   8.463   8.920 -0.6068  0.3287  0.4576
  865MOL0     C16699  10.149   8.345   8.988  0.6974 -0.1005  0.5252
  865MOL0     C16700  10.282   8.280   9.024 -0.1250 -0.4422 -0.0794
  865MOL0     C16701  10.265   8.176   9.124 -0.1446 -0.5276 -0.4742
  865MOL0     C16702  10.396   8.123   9.171 -0.0476  0.6206  0.3868
  865MOL0     C16703  10.492   8.220   9.238  0.3391  0.1946  0.2763
  865MOL0     C16704  10.579   8.284   9.290  0.2783 -0.7498 -0.0401
  865MOL0     C16705  10.125   8.686   8.970 -0.2189  0.5811 -0.1655
  865MOL0     C16706  10.030   8.782   8.972 -0.6233 -0.2055  0.1353
  865MOL0     C16707  10.072   8.909   9.033  1.1165 -0.3075  0.5867
  865MOL0     H16708   9.770   9.138   8.775  1.0470 -1.3490  1.5705
  865MOL0     H16709   9.592   9.310   8.740 -0.9752  0.1326 -2.8534
  865MOL0     H16710   9.380   9.420   8.724  1.1558 -2.8425  1.0566
  865MOL0     H16711   9.414   9.359   8.553 -1.2910  1.9161 -1.7184
  865MOL0     H16712   9.230   9.514   8.536 -2.0517  0.0325 -0.3910
  865MOL0     H16713   9.137   9.427   8.661 -2.0926 -2.4225 -0.6335
  865MOL0     H16714   9.143   9.236   8.504 -3.1286  1.2789  0.9168
  865MOL0     H16715   9.218   9.335   8.382 -1.3266  1.2540 -2.2778
  865MOL0     H16716   8.940   9.345   8.515 -0.7064  1.0357  0.3804
  865MOL0     H16717   8.999   9.472   8.400  3.2836 -0.1665  0.7232
  865MOL0     H16718   8.836   9.323   8.283 -1.0679 -3.0950 -0.0724
  865MOL0     H16719   9.004   9.306   8.220 -2.0939 -1.8005 -2.1981
  865MOL0     H16720   9.008   9.077   8.345 -0.4664 -1.4630  0.3991
  865MOL0     H16721   8.835   9.111   8.361 -0.1928 -0.8036 -1.5341
  865MOL0     H16722   8.944   9.154   8.087 -2.4809  1.9709 -2.0727
  865MOL0     H16723   8.783   9.119   8.143  1.4834  0.4957 -0.8502
  865MOL0     H16724   8.808   8.891   8.142 -0.4794 -1.1639 -2.0045
  865MOL0     H16725   8.914   8.944   8.014 -1.1039 -3.7161  0.7968
  865MOL0     H16726   9.202   8.956   8.118  4.4948 -4.2498  1.1232
  865MOL0     H16727   9.358   8.806   8.437  0.1468  2.6455  1.3600
  865MOL0     H16728   9.393   8.785   8.261  0.1663  2.8452 -2.6024
  865MOL0     H16729   9.355   9.044   8.274 -2.8980 -0.3680  2.6428
  865MOL0     H16730   9.428   9.033   8.428 -1.0042  0.0971 -0.8540
  865MOL0     H16731   9.620   9.043   8.281  1.3521 -1.5077 -0.7827
  865MOL0     H16732   9.570   8.890   8.203  3.8011 -1.0129  0.6659
  865MOL0     H16733   9.588   8.774   8.405 -1.1881  1.5260  2.3457
  865MOL0     H16734   9.633   8.912   8.499 -1.5112 -1.1767  1.1801
  865MOL0     H16735   9.958   8.670   8.416  0.6510 -1.0518  3.0385
  865MOL0     H16736  10.161   8.717   8.540  0.9399  0.2321  0.2546
  865MOL0     H16737  10.520   8.912   8.580  0.4285 -1.5231  0.2170
  865MOL0     H16738  10.766   8.945   8.651 -0.1607 -0.7645 -0.7900
  865MOL0     H16739  10.864   8.883   9.034 -0.9001  0.8521  0.8167
  865MOL0     H16740  11.011   8.916   8.932  0.3292 -0.8357  1.4210
  865MOL0     H16741  10.984   9.150   9.038  1.9111 -0.2031  0.7084
  865MOL0     H16742  10.893   9.083   9.169 -0.4919 -0.7110 -0.5762
  865MOL0     H16743  11.068   8.904   9.193 -2.5383  0.9038 -0.0295
  865MOL0     H16744  11.164   8.989   9.073  1.7768  3.1608 -0.1819
  865MOL0     H16745  11.254   9.034   9.288  0.0062  0.0006  1.8899
  865MOL0     H16746  11.102   9.100   9.350  0.5007 -0.4152 -0.1711
  865MOL0     H16747  11.240   9.296   9.311  1.3347  0.1024 -0.8813
  865MOL0     H16748  11.120   9.284   9.189  1.0133 -0.7783 -0.6645
  865MOL0     H16749  11.416   9.212   9.205 -1.0005 -1.1429  0.9897
  865MOL0     H16750  11.338   9.145   9.065  1.7989 -0.0732 -0.4169
  865MOL0     H16751  11.399   9.420   9.130  0.7008 -2.2602  1.9970
  865MOL0     H16752  11.256   9.392   9.021  1.0441 -0.4841 -3.0678
  865MOL0     H16753  11.434   9.422   8.885 -0.5840 -1.5882 -0.9602
  865MOL0     H16754  11.528   9.298   8.959  0.1170  0.9641  0.4068
  865MOL0     H16755  10.621   8.980   9.048  0.5436 -2.4505  0.1708
  865MOL0     H16756  10.384   8.914   8.970 -0.3730  0.7972  0.2605
  865MOL0     H16757   9.986   9.108   8.640 -2.5535  0.6461 -0.0437
  865MOL0     H16758   9.809   9.066   8.491  0.1696  2.0601 -0.1887
  865MOL0     H16759   9.300   8.986   8.745 -1.3547 -0.6891  1.4160
  865MOL0     H16760   9.466   8.838   8.788  0.1979 -0.2694  0.8613
  865MOL0     H16761   9.777   8.593   8.827 -0.4681 -0.4846  0.5148
  865MOL0     H16762   9.949   8.440   8.817 -0.8223  0.3801  0.0378
  865MOL0     H16763  10.084   8.288   8.920 -0.5853  0.7116  1.0464
  865MOL0     H16764  10.098   8.381   9.077 -4.4587 -1.0949 -1.6596
  865MOL0     H16765  10.351   8.357   9.062 -1.4136  1.3081 -1.1227
  865MOL0     H16766  10.327   8.232   8.937  0.9796 -1.7375  1.1627
  865MOL0     H16767  10.194   8.098   9.095 -0.2305 -0.2625 -0.9861
  865MOL0     H16768  10.213   8.232   9.203  0.0669  2.2413 -2.1627
  865MOL0     H16769  10.372   8.046   9.245 -1.7123  0.6565 -0.0747
  865MOL0     H16770  10.454   8.075   9.092 -1.5185  1.3256 -1.1906
  865MOL0     H16771  10.662   8.339   9.330 -1.9925  1.3303  2.1541
  865MOL0     H16772  10.224   8.696   9.015  0.5891 -2.2751 -1.1470
  865MOL0     H16773  10.180   8.917   9.049  1.8152 -0.7919 -3.0864
  865MOL0     H16774  10.034   8.989   8.968 -0.6439 -0.6244  1.1893
  865MOL0     H16775  10.015   8.933   9.123 -1.0151 -0.2849 -0.7051
  866MOL0     O16776   5.550   3.129   5.760 -0.1692  0.0179  0.7324
  866MOL0     C16777   5.593   3.227   5.822  0.0526  0.4715  0.9360
  866MOL0     O16778   5.515   3.303   5.910  0.6350 -0.6677  0.0547
  866MOL0     C16779   5.382   3.276   5.898  0.6278 -0.0838 -0.2142
  866MOL0     C16780   5.303   3.252   5.787 -0.7163  0.1136 -1.0966
  866MOL0     C16781   5.169   3.229   5.784  0.3516 -0.1422 -1.2907
  866MOL0     C16782   5.103   3.211   5.903  0.5964 -0.1998 -0.2566
  866MOL0     O16783   4.970   3.191   5.905 -1.2812 -0.2316 -0.0897
  866MOL0     C16784   4.932   3.053   5.907  0.3185  0.2851  0.5318
  866MOL0     C16785   4.882   3.008   6.045 -0.1893  0.7551  1.1554
  866MOL0     C16786   4.825   2.861   6.048 -1.1327  1.0126  0.2932
  866MOL0     C16787   4.831   2.813   6.197 -0.6496 -0.6134 -0.5566
  866MOL0     C16788   4.848   2.659   6.203 -0.1820  0.0905  0.0682
  866MOL0     C16789   4.877   2.603   6.340 -0.5248 -0.3685 -0.2487
  866MOL0     C16790   4.758   2.607   6.422  0.6214 -0.1923 -0.2770
  866MOL0     C16791   4.777   2.530   6.556 -1.0873 -0.3332  0.7455
  866MOL0     N16792   4.914   2.502   6.608 -0.0000 -0.7590  0.9394
  866MOL0     C16793   4.962   2.543   6.722  0.0345 -0.7418  0.5341
  866MOL0     C16794   5.073   2.481   6.752 -0.4269 -0.4700  0.2582
  866MOL0     C16795   5.166   2.499   6.875  0.1192 -0.3399  0.9277
  866MOL0     C16796   5.193   2.373   6.949 -0.3485 -0.0367  0.5258
  866MOL0     C16797   5.265   2.413   7.073  0.8863 -0.4833  0.4506
  866MOL0     C16798   5.315   2.298   7.156  0.7808  0.2627  0.1636
  866MOL0     O16799   5.399   2.211   7.076 -0.3449 -1.3890 -0.4154
  866MOL0     C16800   5.512   2.258   7.029 -0.8643  0.1363  0.4061
  866MOL0     C16801   5.553   2.214   6.902  0.1881 -0.5495  0.3698
  866MOL0     C16802   5.665   2.261   6.836  0.2758  0.2706 -0.0667
  866MOL0     C16803   5.744   2.357   6.892 -0.1343  0.7419  0.1448
  866MOL0     C16804   5.874   2.398   6.822 -0.1697 -0.1233 -0.5831
  866MOL0     O16805   5.955   2.480   6.904 -0.1503 -0.1880 -0.3883
  866MOL0     C16806   6.072   2.536   6.860  0.7321  0.6696  0.1702
  866MOL0     C16807   6.159   2.536   6.959  0.1268  0.7850  0.1049
  866MOL0     C16808   6.289   2.563   6.950 -0.3201 -1.1742  0.5535
  866MOL0     C16809   6.337   2.609   6.828 -0.1025 -0.5103 -0.5971
  866MOL0     O16810   6.472   2.630   6.807  0.9015 -0.4838  0.4139
  866MOL0     C16811   6.508   2.741   6.725 -0.2979 -0.4951  0.4404
  866MOL0     C16812   6.602   2.832   6.807 -1.3986  0.0533 -0.7715
  866MOL0     C16813   6.680   2.930   6.717 -0.2537  1.1715  0.1549
  866MOL0     C16814   6.738   3.046   6.796 -0.3140 -0.0435 -0.4783
  866MOL0     C16815   6.882   3.068   6.792  0.3328  0.5265  0.9618
  866MOL0     C16816   6.929   3.202   6.853  1.0541  0.1190  0.8207
  866MOL0     C16817   7.080   3.206   6.865 -0.0435 -0.1517  0.6516
  866MOL0     C16818   7.135   3.327   6.950 -0.7515  0.6569  0.8211
  866MOL0    Cl16819   7.309   3.347   6.933  0.0571 -0.1139  0.0641
  866MOL0     C16820   6.246   2.618   6.715  0.0196 -0.0617  0.7370
  866MOL0     C16821   6.109   2.575   6.736  0.4417 -0.1322  0.7263
  866MOL0     O16822   5.898   2.364   6.708  0.6439  0.6591 -0.0022
  866MOL0     C16823   5.719   2.400   7.024  0.8729  0.6581  0.4673
  866MOL0     C16824   5.598   2.359   7.087 -0.0433  0.2955 -0.0478
  866MOL0     N16825   5.093   2.396   6.646 -0.9613  0.3026  1.1973
  866MOL0     N16826   4.990   2.403   6.566  1.3024 -1.0885  0.0919
  866MOL0     C16827   5.171   3.242   6.015 -0.1641  0.3125 -0.2675
  866MOL0     C16828   5.312   3.277   6.016  0.5454  0.2097 -0.2643
  866MOL0     C16829   5.730   3.272   5.813  0.6962  0.3310 -0.1934
  866MOL0     C16830   5.770   3.370   5.913 -0.3618  0.1545 -0.5329
  866MOL0     C16831   5.901   3.407   5.924  0.2591 -0.1289 -0.4423
  866MOL0     C16832   5.997   3.358   5.831 -0.3302 -0.6792  0.0108
  866MOL0     O16833   6.130   3.393   5.832  0.3428  0.2427  0.0190
  866MOL0     C16834   6.177   3.485   5.925 -0.6629  0.4052 -0.0674
  866MOL0     C16835   6.175   3.632   5.871 -0.0365  0.5890 -0.0344
  866MOL0     C16836   6.306   3.665   5.800  0.0649 -0.4203  0.3521
  866MOL0     C16837   6.368   3.805   5.838  0.1356 -0.0034 -0.3397
  866MOL0     C16838   6.403   3.797   5.983 -0.0516 -0.0092  0.4017
  866MOL0     C16839   6.435   3.796   6.097 -0.6676 -0.6268 -0.4113
  866MOL0     C16840   5.954   3.279   5.737  0.1832  0.1210 -0.0469
  866MOL0     C16841   5.826   3.221   5.725 -0.3166  0.3816 -0.0488
  866MOL0     C16842   5.812   3.106   5.628  0.3592 -0.9753 -0.6048
  866MOL0     H16843   5.348   3.257   5.688  0.0552 -0.3963 -0.7814
  866MOL0     H16844   5.114   3.210   5.691 -1.8339  0.5261 -0.2056
  866MOL0     H16845   4.850   3.044   5.835  1.2298 -2.2956 -0.2823
  866MOL0     H16846   5.017   2.988   5.882  0.3195 -0.8143  3.0460
  866MOL0     H16847   4.804   3.084   6.057 -0.3265  0.7457  0.3409
  866MOL0     H16848   4.963   3.015   6.118  0.6792 -0.7472  0.3665
  866MOL0     H16849   4.881   2.795   5.980 -1.3696 -0.8285  1.7883
  866MOL0     H16850   4.721   2.860   6.015 -0.8745 -1.1460 -0.6142
  866MOL0     H16851   4.911   2.862   6.254 -1.1831 -0.6222  0.2107
  866MOL0     H16852   4.740   2.846   6.247  0.3000 -1.4946  1.9079
  866MOL0     H16853   4.758   2.610   6.164 -0.1249 -0.0793  0.1493
  866MOL0     H16854   4.927   2.623   6.137  1.4892 -0.7466  2.3981
  866MOL0     H16855   4.910   2.498   6.334  0.4934 -0.0465 -0.6193
  866MOL0     H16856   4.962   2.662   6.376  1.4436 -3.0623 -0.1467
  866MOL0     H16857   4.682   2.561   6.358 -3.5097  2.1348  2.5178
  866MOL0     H16858   4.728   2.711   6.433  2.4544  0.5387 -1.5897
  866MOL0     H16859   4.732   2.595   6.631 -0.3685  2.0650 -0.7844
  866MOL0     H16860   4.719   2.438   6.568 -0.4152 -1.1280 -1.6623
  866MOL0     H16861   4.918   2.606   6.799 -1.2138 -0.8264 -0.0972
  866MOL0     H16862   5.262   2.522   6.827 -0.2434 -0.4318  0.1394
  866MOL0     H16863   5.118   2.570   6.943 -0.5223 -0.1163  0.2632
  866MOL0     H16864   5.098   2.332   6.984 -1.3421  2.2743  0.6853
  866MOL0     H16865   5.243   2.303   6.881 -1.0286 -1.2022  1.1928
  866MOL0     H16866   5.197   2.473   7.134 -1.1213 -0.4706 -1.6955
  866MOL0     H16867   5.347   2.479   7.044 -0.6913 -0.0326 -3.4913
  866MOL0     H16868   5.232   2.244   7.204  1.2390  0.3936  1.1205
  866MOL0     H16869   5.372   2.334   7.242  1.3956 -1.7318  0.6420
  866MOL0     H16870   5.480   2.154   6.849  0.6631  0.8245 -1.9842
  866MOL0     H16871   5.689   2.238   6.733  1.4491 -2.8410  0.7880
  866MOL0     H16872   6.129   2.513   7.061  0.3557  0.6881  0.1527
  866MOL0     H16873   6.358   2.556   7.033 -0.9209 -0.5274  1.1177
  866MOL0     H16874   6.564   2.698   6.641 -2.6210 -2.0298 -0.4029
  866MOL0     H16875   6.423   2.799   6.688  0.8969 -0.4895 -2.6056
  866MOL0     H16876   6.542   2.875   6.888  0.1848  0.4880  0.2074
  866MOL0     H16877   6.682   2.783   6.863 -1.1986 -0.9447 -1.9014
  866MOL0     H16878   6.752   2.877   6.654 -1.1694  2.7690 -2.3806
  866MOL0     H16879   6.607   2.961   6.642 -0.5572  0.3827  0.1161
  866MOL0     H16880   6.727   3.024   6.902  0.9565  0.9472 -0.1210
  866MOL0     H16881   6.673   3.129   6.766 -0.5192  1.2512  3.1408
  866MOL0     H16882   6.907   3.059   6.686  4.1118  1.3917  1.6406
  866MOL0     H16883   6.930   2.982   6.840 -0.9611 -1.9769 -1.8844
  866MOL0     H16884   6.887   3.292   6.808 -0.7919 -0.1532  1.9052
  866MOL0     H16885   6.886   3.210   6.953 -3.1384  0.3460 -0.7945
  866MOL0     H16886   7.120   3.205   6.763  0.0661  1.4000  0.6595
  866MOL0     H16887   7.118   3.123   6.926  4.3027 -0.2752 -1.7838
  866MOL0     H16888   7.099   3.425   6.919  0.2601  0.3556 -1.5441
  866MOL0     H16889   7.122   3.318   7.058  0.0909  3.6142  1.2475
  866MOL0     H16890   6.273   2.661   6.619 -2.4211  3.2105  1.3450
  866MOL0     H16891   6.034   2.595   6.660 -0.8201  1.6111  2.3306
  866MOL0     H16892   5.786   2.476   7.063  0.1884  0.5976  1.8323
  866MOL0     H16893   5.581   2.384   7.192 -0.4617  0.0977 -0.0650
  866MOL0     H16894   5.127   3.239   6.114  1.0776 -0.7076  0.2834
  866MOL0     H16895   5.356   3.311   6.110  1.6497  0.3911 -0.8290
  866MOL0     H16896   5.692   3.417   5.972 -0.5198 -1.6135  0.7678
  866MOL0     H16897   5.921   3.471   6.010  0.5105  1.3153 -1.5297
  866MOL0     H16898   6.279   3.459   5.953 -0.4886  1.1477 -0.0034
  866MOL0     H16899   6.120   3.476   6.018  0.6694  0.6090  0.7969
  866MOL0     H16900   6.159   3.700   5.956  2.3179  0.1000  0.8798
  866MOL0     H16901   6.087   3.633   5.806 -0.0389 -3.1940 -0.2789
  866MOL0     H16902   6.272   3.667   5.696 -0.7401  1.0303  0.6168
  866MOL0     H16903   6.380   3.585   5.800  1.8930  0.9707 -4.3531
  866MOL0     H16904   6.454   3.828   5.774  0.4598  2.4018  0.8235
  866MOL0     H16905   6.294   3.881   5.811  1.3950  0.5184 -2.5402
  866MOL0     H16906   6.478   3.794   6.195  2.0447  0.9344 -1.4497
  866MOL0     H16907   6.036   3.238   5.679 -0.5975  0.9525 -1.8111
  866MOL0     H16908   5.790   3.032   5.705  0.7976 -1.6601 -1.1266
  866MOL0     H16909   5.727   3.125   5.561  0.3341  5.3477  0.6257
  866MOL0     H16910   5.894   3.077   5.562  2.0599  1.1136  0.4745
  867MOL0     O16911   7.596   4.255   4.543 -0.0144  0.1141  0.6609
  867MOL0     C16912   7.565   4.143   4.506 -0.7245  0.4009 -0.7494
  867MOL0     O16913   7.632   4.029   4.538 -0.0488 -0.4655  0.3441
  867MOL0     C16914   7.736   4.036   4.635  0.3254  0.4215  0.7895
  867MOL0     C16915   7.826   3.937   4.622 -0.6985 -0.2266 -0.6758
  867MOL0     C16916   7.931   3.916   4.714 -0.8474 -0.3585  0.0863
  867MOL0     C16917   7.965   4.020   4.799  0.3500 -1.4744  0.1833
  867MOL0     O16918   8.085   4.016   4.870  0.6702 -0.0820  0.1922
  867MOL0     C16919   8.137   3.899   4.936 -0.7073 -0.7086  0.0187
  867MOL0     C16920   8.259   3.946   5.013 -0.8898  0.7791 -0.6270
  867MOL0     C16921   8.213   4.067   5.098 -0.3261 -1.0680  0.4532
  867MOL0     C16922   8.319   4.106   5.208 -0.3997  0.3265 -0.2138
  867MOL0     C16923   8.261   4.174   5.329  0.1467 -1.1742  0.2859
  867MOL0     C16924   8.191   4.305   5.284 -0.1164  0.0948  0.5859
  867MOL0     C16925   8.165   4.392   5.405  0.6183 -0.1677  0.2385
  867MOL0     C16926   8.092   4.513   5.348 -0.1528 -0.1798  0.4091
  867MOL0     N16927   8.086   4.615   5.454  0.5121 -0.1487  0.4502
  867MOL0     C16928   7.965   4.666   5.492 -0.3671  0.0281 -0.9437
  867MOL0     C16929   7.994   4.780   5.570  0.6088  0.2647  0.4717
  867MOL0     C16930   7.892   4.872   5.640  0.5427 -0.4411 -0.1798
  867MOL0     C16931   7.804   4.799   5.734  0.0004  0.1433 -0.8760
  867MOL0     C16932   7.724   4.897   5.813  0.5009 -0.7390  0.0755
  867MOL0     C16933   7.593   4.833   5.868 -0.6819  0.5035 -0.5363
  867MOL0     O16934   7.485   4.934   5.885  0.3134  0.4491 -0.9293
  867MOL0     C16935   7.505   5.019   5.985  0.3127 -0.1052 -0.2985
  867MOL0     C16936   7.422   5.127   6.000  0.3507  0.2629 -1.1233
  867MOL0     C16937   7.430   5.223   6.105 -0.7384  0.0837 -0.1994
  867MOL0     C16938   7.534   5.224   6.195 -0.2608  0.0134 -1.4651
  867MOL0     C16939   7.573   5.337   6.289  0.0727  0.2036  0.5806
  867MOL0     O16940   7.694   5.324   6.344  0.4419 -0.3347  0.3156
  867MOL0     C16941   7.759   5.420   6.424  1.7980 -0.7550  1.2656
  867MOL0     C16942   7.854   5.371   6.509 -0.2589  0.0114  0.2185
  867MOL0     C16943   7.918   5.459   6.596  0.1156  0.0355 -1.2809
  867MOL0     C16944   7.883   5.592   6.596 -0.0913 -0.2890  0.5190
  867MOL0     O16945   7.926   5.677   6.692  0.5389 -0.9821  0.6451
  867MOL0     C16946   8.069   5.710   6.720 -0.4314 -1.4400  0.6012
  867MOL0     C16947   8.097   5.839   6.799 -0.1839 -0.4175  0.6510
  867MOL0     C16948   8.251   5.843   6.823  0.1156  0.2143  0.0805
  867MOL0     C16949   8.293   5.947   6.925 -0.2953 -1.3862 -0.4340
  867MOL0     C16950   8.429   5.904   7.003  0.7221  0.2808  0.5398
  867MOL0     C16951   8.459   5.985   7.133  0.1872  0.3724  0.3849
  867MOL0     C16952   8.552   5.914   7.226 -0.1601  0.1544 -0.1967
  867MOL0     C16953   8.564   5.985   7.365  0.0862  0.2770  1.1130
  867MOL0    Cl16954   8.666   6.133   7.358 -0.0502 -0.5101 -0.1599
  867MOL0     C16955   7.804   5.642   6.495  0.3428  0.3192  0.5042
  867MOL0     C16956   7.734   5.552   6.417  0.1887 -0.1892  0.5433
  867MOL0     O16957   7.489   5.423   6.308 -0.5718 -0.8220 -0.4366
  867MOL0     C16958   7.624   5.105   6.194  0.1973  1.0562  0.3850
  867MOL0     C16959   7.606   5.006   6.088  0.3860 -0.0143 -0.4692
  867MOL0     N16960   8.131   4.789   5.569 -0.0094  0.6167 -0.1648
  867MOL0     N16961   8.185   4.686   5.510  0.2070  0.2100 -0.6645
  867MOL0     C16962   7.881   4.133   4.808  0.1796 -0.0189  0.9384
  867MOL0     C16963   7.758   4.132   4.736  0.7069  0.5411  0.3956
  867MOL0     C16964   7.448   4.142   4.414  1.0427  0.4507 -0.3876
  867MOL0     C16965   7.404   4.006   4.396 -0.8130 -0.2465  0.0332
  867MOL0     C16966   7.303   3.977   4.305 -0.8212 -0.7738  1.2817
  867MOL0     C16967   7.244   4.080   4.222 -0.6864  0.3470  1.4426
  867MOL0     O16968   7.140   4.047   4.144 -0.5142 -0.1767  0.4829
  867MOL0     C16969   7.032   4.148   4.126  0.2661  0.8766  0.5362
  867MOL0     C16970   6.938   4.172   4.247 -1.5305 -0.0897 -0.5990
  867MOL0     C16971   6.869   4.040   4.263 -0.3219  0.1413  0.0124
  867MOL0     C16972   6.794   4.031   4.390  0.4853  1.0203 -1.0133
  867MOL0     C16973   6.727   3.903   4.386  0.8661 -0.3461 -0.7633
  867MOL0     C16974   6.645   3.814   4.396  0.0295 -0.4173 -0.0963
  867MOL0     C16975   7.296   4.206   4.237 -0.3308  0.4671 -0.2460
  867MOL0     C16976   7.396   4.239   4.331 -0.6736  0.1196 -0.2461
  867MOL0     C16977   7.449   4.378   4.338 -0.7745 -0.3087  0.5787
  867MOL0     H16978   7.812   3.868   4.540 -0.1907  0.6851 -1.5558
  867MOL0     H16979   7.990   3.827   4.691  1.3290  1.3958 -1.5877
  867MOL0     H16980   8.064   3.841   4.994 -0.5772  0.1040  1.0281
  867MOL0     H16981   8.185   3.835   4.862  0.1779 -1.7622  1.4530
  867MOL0     H16982   8.352   3.964   4.959 -1.5329 -0.7531 -2.3419
  867MOL0     H16983   8.297   3.873   5.084  0.3362  0.9045 -1.1321
  867MOL0     H16984   8.120   4.035   5.147 -0.3245 -0.7816  0.6445
  867MOL0     H16985   8.198   4.161   5.044  4.6722  0.7268  1.7144
  867MOL0     H16986   8.370   4.017   5.244  0.7670  1.2435  0.4765
  867MOL0     H16987   8.401   4.163   5.162 -1.3962  0.6884 -1.6167
  867MOL0     H16988   8.196   4.110   5.389  0.6029  1.6320  4.2014
  867MOL0     H16989   8.340   4.215   5.393 -0.8723  2.2290 -0.4156
  867MOL0     H16990   8.263   4.356   5.219  0.4429 -1.1157  0.2274
  867MOL0     H16991   8.105   4.289   5.219 -0.4650  1.8260  0.5716
  867MOL0     H16992   8.252   4.413   5.468  0.5994  1.7676 -0.2975
  867MOL0     H16993   8.091   4.351   5.474 -2.0461  3.3230 -0.2336
  867MOL0     H16994   8.135   4.566   5.262 -0.1435  3.1220  2.2601
  867MOL0     H16995   7.994   4.475   5.317  0.0060  0.9972 -1.7583
  867MOL0     H16996   7.863   4.637   5.473 -0.1974 -0.7693 -0.6738
  867MOL0     H16997   7.943   4.949   5.698 -0.3548 -0.1703  0.2732
  867MOL0     H16998   7.830   4.915   5.561  2.1844  0.2738 -1.1207
  867MOL0     H16999   7.736   4.725   5.690  0.8623 -2.0309  1.2237
  867MOL0     H17000   7.873   4.748   5.802 -3.3857  0.2262  3.0522
  867MOL0     H17001   7.686   4.978   5.750  1.4509 -1.7592 -1.9182
  867MOL0     H17002   7.784   4.935   5.896 -1.1620  0.9522  0.5665
  867MOL0     H17003   7.611   4.771   5.956 -1.7159  1.1253  0.1259
  867MOL0     H17004   7.548   4.759   5.801 -2.3622 -1.2375  2.3249
  867MOL0     H17005   7.343   5.139   5.927  0.2876 -1.6187 -1.4006
  867MOL0     H17006   7.362   5.307   6.101  1.8316  2.2617 -3.5050
  867MOL0     H17007   7.856   5.263   6.520  0.3922  0.1977  2.2175
  867MOL0     H17008   7.979   5.417   6.675 -3.1903 -2.1564  0.3476
  867MOL0     H17009   8.117   5.626   6.771 -1.6697 -1.9121  1.0523
  867MOL0     H17010   8.118   5.712   6.623 -0.4459 -0.4617  0.6028
  867MOL0     H17011   8.059   5.921   6.737  1.6675  1.1068  1.4220
  867MOL0     H17012   8.049   5.833   6.897 -1.3789 -0.3405  0.0863
  867MOL0     H17013   8.274   5.748   6.873 -0.3510  0.8016  1.4569
  867MOL0     H17014   8.303   5.843   6.727 -1.2057 -0.8045 -0.6673
  867MOL0     H17015   8.206   5.977   6.983 -0.9918  0.1582 -2.1963
  867MOL0     H17016   8.328   6.036   6.871  0.8593 -1.7372 -0.3034
  867MOL0     H17017   8.515   5.930   6.941 -0.9475  2.9493 -0.8269
  867MOL0     H17018   8.430   5.798   7.030  0.0089 -0.7218 -2.8316
  867MOL0     H17019   8.496   6.086   7.115 -0.4808  0.5274 -0.1808
  867MOL0     H17020   8.364   6.006   7.182  0.4864 -1.0796  1.6720
  867MOL0     H17021   8.654   5.893   7.192 -0.2262  1.0397 -0.9599
  867MOL0     H17022   8.506   5.819   7.255 -0.2920  0.7676  1.7277
  867MOL0     H17023   8.465   6.007   7.407 -0.7736 -1.0759 -0.1161
  867MOL0     H17024   8.617   5.913   7.427  0.4693  0.6705  1.2451
  867MOL0     H17025   7.764   5.743   6.490  2.1209  1.0213 -0.2065
  867MOL0     H17026   7.667   5.612   6.357  0.2482 -0.1452  0.5216
  867MOL0     H17027   7.711   5.099   6.259  1.0368  0.0995 -0.7812
  867MOL0     H17028   7.661   4.914   6.103  1.4729  0.6229 -0.4673
  867MOL0     H17029   7.911   4.215   4.873  0.6270  0.0517  0.6482
  867MOL0     H17030   7.694   4.219   4.748 -1.3065 -0.7461 -0.5979
  867MOL0     H17031   7.450   3.915   4.433 -1.5702 -0.2390  1.0417
  867MOL0     H17032   7.287   3.870   4.291  0.7927 -1.1085  1.8026
  867MOL0     H17033   6.958   4.125   4.048  0.3540  2.3447 -0.0100
  867MOL0     H17034   7.080   4.243   4.103  1.2700  0.0152 -1.1543
  867MOL0     H17035   6.871   4.257   4.227  1.2391  2.5853  0.5821
  867MOL0     H17036   7.001   4.200   4.332 -0.5872 -0.8693 -1.0271
  867MOL0     H17037   6.944   3.961   4.266  0.9652  1.2904  3.8705
  867MOL0     H17038   6.795   4.021   4.185  0.4706 -0.4289 -0.6187
  867MOL0     H17039   6.856   4.041   4.479 -2.4988  0.8579  1.2195
  867MOL0     H17040   6.717   4.107   4.388 -2.6907 -1.9514 -1.0752
  867MOL0     H17041   6.575   3.737   4.421 -2.0316  1.1816 -0.6306
  867MOL0     H17042   7.264   4.279   4.164  0.2177 -1.4559 -2.5008
  867MOL0     H17043   7.445   4.420   4.439  1.2063  0.0348  0.5584
  867MOL0     H17044   7.545   4.390   4.286 -1.4032  0.2751 -0.4840
  867MOL0     H17045   7.384   4.439   4.274 -0.7930  1.6744  2.3646
  868MOL0     O17046   4.342   9.094   2.156  0.9404 -0.7991 -0.4004
  868MOL0     C17047   4.285   9.028   2.076 -0.3618  0.6867 -0.1039
  868MOL0     O17048   4.332   8.908   2.027  0.1899 -0.0081  0.4264
  868MOL0     C17049   4.471   8.886   2.030  0.8129  0.1873 -0.8117
  868MOL0     C17050   4.520   8.781   2.101  0.0428 -0.3135 -0.7786
  868MOL0     C17051   4.661   8.748   2.100  0.4127  1.0955  0.0614
  868MOL0     C17052   4.751   8.823   2.022  0.3118  0.3163 -1.0072
  868MOL0     O17053   4.888   8.795   2.024 -0.6561  0.2238 -0.5494
  868MOL0     C17054   4.975   8.904   2.060  1.1822 -0.8485  0.0649
  868MOL0     C17055   5.086   8.868   2.171 -0.1263 -0.8347  0.3636
  868MOL0     C17056   5.032   8.789   2.288 -0.1352 -0.3873  0.6136
  868MOL0     C17057   5.109   8.662   2.320 -0.4170  0.5972 -0.8904
  868MOL0     C17058   5.229   8.696   2.411 -0.0212 -0.3610  0.1268
  868MOL0     C17059   5.337   8.591   2.394 -0.8210 -0.0339 -0.2801
  868MOL0     C17060   5.296   8.439   2.420  0.2023  1.7331  1.0596
  868MOL0     C17061   5.369   8.344   2.318  0.2234 -0.8197  0.0083
  868MOL0     N17062   5.516   8.360   2.323 -0.4105 -1.1059  0.3220
  868MOL0     C17063   5.588   8.381   2.213  0.5923 -0.1355  0.5790
  868MOL0     C17064   5.717   8.382   2.251 -0.4992 -0.4221  0.2481
  868MOL0     C17065   5.843   8.383   2.158  0.0149 -0.0711  0.2355
  868MOL0     C17066   5.927   8.509   2.162 -0.1743 -0.3631 -0.6808
  868MOL0     C17067   6.035   8.518   2.058 -0.9136  0.4164  0.9143
  868MOL0     C17068   6.135   8.412   2.054  0.1642  0.5201  0.3016
  868MOL0     O17069   6.208   8.411   2.178 -0.4619  0.8401 -0.3132
  868MOL0     C17070   6.335   8.453   2.190  0.5616 -0.5019  0.9293
  868MOL0     C17071   6.426   8.358   2.221 -0.1852  0.5729  0.5332
  868MOL0     C17072   6.564   8.376   2.214  0.0354 -0.3661  0.2701
  868MOL0     C17073   6.604   8.507   2.179  0.4429 -1.4984 -0.2857
  868MOL0     C17074   6.748   8.542   2.180  0.8211  0.3710 -0.1333
  868MOL0     O17075   6.783   8.651   2.113  0.2796 -0.7190  0.1324
  868MOL0     C17076   6.907   8.711   2.121  0.3091  0.2182 -0.8984
  868MOL0     C17077   6.981   8.712   2.243  0.5735 -0.6167 -0.3509
  868MOL0     C17078   7.113   8.761   2.239  0.1795  0.4746  1.2369
  868MOL0     C17079   7.167   8.825   2.122 -0.0299  0.4096 -0.2607
  868MOL0     O17080   7.298   8.871   2.108  0.1129  0.8227  0.7525
  868MOL0     C17081   7.334   8.961   2.004 -0.3060 -0.5353 -0.1855
  868MOL0     C17082   7.426   9.065   2.056 -0.1147 -0.5331  0.3666
  868MOL0     C17083   7.447   9.182   1.959  0.5388  0.0657 -0.2705
  868MOL0     C17084   7.581   9.258   1.980  0.2517  0.2334 -1.1230
  868MOL0     C17085   7.589   9.312   2.128  0.6149 -0.8172 -0.5552
  868MOL0     C17086   7.665   9.231   2.228 -0.6523  0.1839  1.2238
  868MOL0     C17087   7.647   9.301   2.369  0.1769  0.3538  0.1531
  868MOL0     C17088   7.747   9.264   2.478 -0.8595 -0.7119  0.2648
  868MOL0    Cl17089   7.734   9.339   2.641 -0.0364 -0.4476 -0.0699
  868MOL0     C17090   7.091   8.818   2.012 -0.2702  0.5354 -0.0500
  868MOL0     C17091   6.965   8.763   2.006 -0.1620 -0.5846 -0.7936
  868MOL0     O17092   6.831   8.463   2.230  0.1168 -0.1813 -0.3046
  868MOL0     C17093   6.508   8.609   2.167  0.5491  0.0556  0.8344
  868MOL0     C17094   6.369   8.585   2.167 -0.0468 -0.2381  0.0488
  868MOL0     N17095   5.725   8.356   2.387 -0.1958  0.0731  0.6274
  868MOL0     N17096   5.600   8.343   2.426  0.3906  0.0854 -0.3200
  868MOL0     C17097   4.697   8.932   1.956  0.3068 -0.7366 -0.5054
  868MOL0     C17098   4.559   8.965   1.953  0.0625 -0.1111 -0.6773
  868MOL0     C17099   4.141   9.064   2.043 -0.2240  0.1660  0.2762
  868MOL0     C17100   4.057   9.150   2.125 -0.2246 -1.4522  0.0312
  868MOL0     C17101   3.919   9.172   2.102 -0.6823 -0.2356 -0.5403
  868MOL0     C17102   3.856   9.108   2.006 -0.4076 -0.5136  0.8808
  868MOL0     O17103   3.715   9.116   2.004  0.3471 -0.9258  0.5367
  868MOL0     C17104   3.642   9.057   1.896  0.5703  0.4158 -0.5987
  868MOL0     C17105   3.493   9.080   1.901 -0.0642 -0.1259 -0.8953
  868MOL0     C17106   3.415   9.001   1.792 -0.2206 -0.7030 -0.1309
  868MOL0     C17107   3.269   9.068   1.785  0.5916  0.1837 -0.6143
  868MOL0     C17108   3.179   8.991   1.694 -0.7865  0.3026 -0.0462
  868MOL0     C17109   3.114   8.933   1.607  0.0634  0.1041  0.7176
  868MOL0     C17110   3.930   9.016   1.921  0.6042  0.4582 -0.9463
  868MOL0     C17111   4.074   9.009   1.927 -0.1574  0.0600 -0.5419
  868MOL0     C17112   4.131   8.922   1.822  0.1267 -0.1464  0.2870
  868MOL0     H17113   4.453   8.717   2.158  0.4993 -1.7026 -1.7438
  868MOL0     H17114   4.697   8.649   2.129  0.8431  0.8617 -1.2197
  868MOL0     H17115   5.040   8.936   1.978 -1.0959  0.9980 -1.1523
  868MOL0     H17116   4.928   8.993   2.102  1.6242 -0.1421 -0.8963
  868MOL0     H17117   5.126   8.965   2.204  0.3054 -1.5257  1.9553
  868MOL0     H17118   5.168   8.810   2.128  0.7105  1.0063 -0.6640
  868MOL0     H17119   4.933   8.760   2.251 -0.1211  0.4634 -0.1160
  868MOL0     H17120   5.020   8.853   2.376  0.5077  0.2563  0.2476
  868MOL0     H17121   5.040   8.595   2.373 -1.0257  2.6867  1.1248
  868MOL0     H17122   5.142   8.605   2.233  1.3219  0.1257  0.0253
  868MOL0     H17123   5.277   8.790   2.382  0.1361 -0.3738  0.3466
  868MOL0     H17124   5.199   8.713   2.515 -1.5392 -1.4579 -0.0956
  868MOL0     H17125   5.384   8.594   2.295 -0.6961  1.1187 -0.1957
  868MOL0     H17126   5.413   8.622   2.466  1.0410 -1.5191 -1.4981
  868MOL0     H17127   5.187   8.425   2.416  0.5863 -1.8763 -0.9160
  868MOL0     H17128   5.318   8.413   2.524 -1.9829 -1.5953  0.8434
  868MOL0     H17129   5.357   8.239   2.349  2.3139 -1.0058  0.3728
  868MOL0     H17130   5.342   8.356   2.213  0.3768 -0.9271 -0.0450
  868MOL0     H17131   5.546   8.391   2.114  0.6309 -0.3539  0.5400
  868MOL0     H17132   5.907   8.304   2.197 -0.8835 -0.6659  0.5223
  868MOL0     H17133   5.808   8.358   2.057 -2.9250 -1.6480  1.5356
  868MOL0     H17134   5.871   8.603   2.156  1.5122  0.7214 -0.2491
  868MOL0     H17135   5.973   8.520   2.260  0.3498 -3.1346 -0.5443
  868MOL0     H17136   6.087   8.613   2.073  0.3086 -0.0888 -0.0121
  868MOL0     H17137   5.987   8.511   1.960  1.6219 -1.4724 -0.2914
  868MOL0     H17138   6.200   8.427   1.968  0.5254  0.3808  0.5473
  868MOL0     H17139   6.084   8.315   2.051  1.1107  0.0258 -0.6545
  868MOL0     H17140   6.390   8.257   2.235 -0.5211  0.8342  1.6699
  868MOL0     H17141   6.632   8.297   2.245  0.6061  0.7655  2.0196
  868MOL0     H17142   6.953   8.675   2.341 -0.2071 -1.0155 -0.7183
  868MOL0     H17143   7.176   8.768   2.326 -0.9638  0.6971  2.0725
  868MOL0     H17144   7.401   8.918   1.929  2.0250  1.4702  0.6047
  868MOL0     H17145   7.249   9.013   1.960  0.9538  0.5057 -1.4815
  868MOL0     H17146   7.375   9.096   2.148 -2.4962  1.1700 -1.3923
  868MOL0     H17147   7.522   9.017   2.078 -0.1370 -1.2189 -0.9837
  868MOL0     H17148   7.436   9.148   1.856  1.6088  1.7132 -0.9551
  868MOL0     H17149   7.362   9.250   1.973 -1.6187 -2.5230  0.0977
  868MOL0     H17150   7.582   9.346   1.915  0.3995  2.9605  2.2557
  868MOL0     H17151   7.666   9.194   1.954  0.2851 -1.0207  1.7359
  868MOL0     H17152   7.486   9.323   2.162  0.3889 -1.6191 -0.9638
  868MOL0     H17153   7.637   9.411   2.127  1.5663 -1.2629 -0.5418
  868MOL0     H17154   7.632   9.127   2.238  0.0083 -0.1483  0.1034
  868MOL0     H17155   7.773   9.236   2.208 -0.6525  1.6805  1.4683
  868MOL0     H17156   7.551   9.270   2.411 -0.6829  2.0212 -0.4897
  868MOL0     H17157   7.641   9.409   2.353  1.4802  1.0569  3.5561
  868MOL0     H17158   7.754   9.156   2.492 -0.2047 -0.8314 -0.8258
  868MOL0     H17159   7.848   9.291   2.444 -1.7327  4.2645  0.8902
  868MOL0     H17160   7.129   8.848   1.915  0.9138  0.1098  0.2680
  868MOL0     H17161   6.901   8.759   1.918 -3.0957  0.1487  1.1667
  868MOL0     H17162   6.547   8.708   2.147 -1.4796  0.9779  1.2214
  868MOL0     H17163   6.295   8.661   2.145 -0.4171 -0.1569  1.4438
  868MOL0     H17164   4.761   9.005   1.906 -0.2971 -0.2815 -0.6341
  868MOL0     H17165   4.516   9.045   1.893  1.2264 -1.0317 -2.8619
  868MOL0     H17166   4.111   9.199   2.206 -0.7560 -2.6744  1.1732
  868MOL0     H17167   3.859   9.232   2.169 -2.0256 -2.6975  0.6047
  868MOL0     H17168   3.654   8.948   1.900  0.5600  0.4408  2.2709
  868MOL0     H17169   3.682   9.085   1.798 -0.3198  0.2700 -1.0180
  868MOL0     H17170   3.474   9.187   1.884  2.5883  0.1328 -3.0321
  868MOL0     H17171   3.452   9.052   1.998  0.6181  1.6388 -0.0570
  868MOL0     H17172   3.417   8.898   1.830  1.1258 -1.5254 -2.2279
  868MOL0     H17173   3.468   9.007   1.696 -0.0110 -0.6315 -0.0096
  868MOL0     H17174   3.220   9.081   1.882 -0.7884  0.9602 -1.3840
  868MOL0     H17175   3.290   9.169   1.749 -2.2848  0.1447 -2.6876
  868MOL0     H17176   3.057   8.892   1.526 -1.8062  3.0560  0.3946
  868MOL0     H17177   3.870   8.959   1.850  3.6853 -2.6853 -1.2801
  868MOL0     H17178   4.240   8.918   1.824  0.1108 -1.4272 -0.5543
  868MOL0     H17179   4.098   8.818   1.832 -0.3582  0.0297  0.5710
  868MOL0     H17180   4.099   8.957   1.724  0.0781  1.6943  0.9242
  869MOL0     O17181   3.807  10.835   5.255  0.1036 -0.1352 -0.0410
  869MOL0     C17182   3.797  10.805   5.377 -0.0886 -0.1070  0.2537
  869MOL0     O17183   3.901  10.759   5.449  0.1271  1.0702  0.5244
  869MOL0     C17184   4.037  10.760   5.416 -1.0873  0.4882 -0.8171
  869MOL0     C17185   4.085  10.752   5.287 -0.4010  0.5281 -0.6318
  869MOL0     C17186   4.216  10.734   5.260  0.5851 -0.0323 -1.1698
  869MOL0     C17187   4.311  10.749   5.368 -0.4413 -0.3966 -0.5877
  869MOL0     O17188   4.442  10.735   5.332 -0.0230 -0.5182  0.2175
  869MOL0     C17189   4.545  10.795   5.414 -0.1015  0.1810 -0.7482
  869MOL0     C17190   4.648  10.874   5.329 -0.1742  0.1515  0.9298
  869MOL0     C17191   4.737  10.780   5.227 -0.2516 -1.2568 -0.8963
  869MOL0     C17192   4.828  10.880   5.151 -0.4335  0.6280  0.5216
  869MOL0     C17193   4.910  10.799   5.047 -0.6316 -0.4111 -0.6033
  869MOL0     C17194   4.980  10.868   4.931  0.0151 -0.1605 -0.2047
  869MOL0     C17195   5.040  10.769   4.834  0.7760  0.0896 -0.5663
  869MOL0     C17196   4.930  10.705   4.735  0.5544  0.3701  0.0909
  869MOL0     N17197   4.891  10.780   4.620 -0.6984 -0.5796 -0.3413
  869MOL0     C17198   4.765  10.801   4.576  0.1437 -0.3959  0.2836
  869MOL0     C17199   4.779  10.871   4.460 -0.1124 -0.7151 -0.6499
  869MOL0     C17200   4.671  10.921   4.376 -0.2572 -0.3402  1.5561
  869MOL0     C17201   4.701  10.955   4.226  0.3054  0.9419 -0.1076
  869MOL0     C17202   4.794  11.072   4.212 -0.1255  0.2419  0.0753
  869MOL0     C17203   4.814  11.122   4.062  0.1555 -0.0894 -0.0869
  869MOL0     O17204   4.833  11.015   3.962 -0.3486  0.5150  0.4264
  869MOL0     C17205   4.969  10.973   3.943  0.0585 -0.7721  0.6967
  869MOL0     C17206   5.077  10.984   4.034 -0.0198 -0.6914  0.1527
  869MOL0     C17207   5.205  10.948   4.000 -0.0764  0.2121  0.0678
  869MOL0     C17208   5.230  10.887   3.868 -0.6171  0.0488 -0.9970
  869MOL0     C17209   5.378  10.844   3.838  0.1048  0.0174  0.5262
  869MOL0     O17210   5.400  10.746   3.747 -0.5869 -0.5568  1.1938
  869MOL0     C17211   5.524  10.696   3.744 -0.2547 -1.2873 -0.1969
  869MOL0     C17212   5.552  10.580   3.809 -0.5436 -0.1034 -0.8817
  869MOL0     C17213   5.678  10.523   3.812 -0.0010 -0.5606 -0.0665
  869MOL0     C17214   5.775  10.573   3.728 -0.5432 -1.0081  0.2633
  869MOL0     O17215   5.892  10.506   3.737 -0.0046  1.0914 -0.2796
  869MOL0     C17216   6.004  10.530   3.647  0.0331 -0.2519  0.3034
  869MOL0     C17217   6.115  10.427   3.651 -0.5249 -0.1341 -0.4213
  869MOL0     C17218   6.208  10.469   3.532 -0.0889 -0.9247 -1.0532
  869MOL0     C17219   6.151  10.408   3.407 -0.0843  0.2496  1.0146
  869MOL0     C17220   6.187  10.254   3.399  0.4417 -0.6574 -0.3802
  869MOL0     C17221   6.088  10.178   3.302 -0.7277 -0.5919 -0.2448
  869MOL0     C17222   6.127  10.032   3.317  0.3199 -0.7860  0.1978
  869MOL0     C17223   6.031   9.947   3.232 -0.4114 -0.3271  0.5323
  869MOL0    Cl17224   6.079   9.770   3.214 -0.0051  0.1713 -0.5686
  869MOL0     C17225   5.752  10.694   3.654  0.6133 -0.2319 -0.5159
  869MOL0     C17226   5.622  10.752   3.655  0.4908  0.6411  0.2840
  869MOL0     O17227   5.465  10.883   3.921  0.9521 -0.7323  0.0096
  869MOL0     C17228   5.119  10.870   3.788 -0.4617  0.2525  0.6861
  869MOL0     C17229   4.997  10.920   3.816 -0.4353 -0.0665  0.6055
  869MOL0     N17230   4.912  10.868   4.428 -0.3245 -0.3286  0.4466
  869MOL0     N17231   4.981  10.811   4.521  0.2033 -0.3495 -0.2137
  869MOL0     C17232   4.268  10.764   5.503  0.2645  0.4885  0.2263
  869MOL0     C17233   4.131  10.764   5.524  0.2055  0.1136  0.7023
  869MOL0     C17234   3.665  10.796   5.446 -0.0718 -0.0077 -0.0872
  869MOL0     C17235   3.648  10.722   5.564 -0.4846 -0.3685 -0.7043
  869MOL0     C17236   3.522  10.696   5.613  0.9167 -0.4301 -0.3094
  869MOL0     C17237   3.410  10.767   5.563 -0.2637  0.6795 -0.0448
  869MOL0     O17238   3.294  10.717   5.623  0.4847 -0.0860 -0.1229
  869MOL0     C17239   3.200  10.820   5.642 -0.0528 -0.7653 -0.8043
  869MOL0     C17240   3.078  10.767   5.719  0.0175 -0.3375 -0.5089
  869MOL0     C17241   3.116  10.730   5.856 -0.6597  0.4352 -0.6996
  869MOL0     C17242   3.006  10.699   5.944  0.0396  0.4011 -0.4306
  869MOL0     C17243   2.911  10.596   5.887 -0.2843 -1.0288 -0.5309
  869MOL0     C17244   2.826  10.516   5.853  0.1078  0.2266  0.1706
  869MOL0     C17245   3.426  10.860   5.460  0.3649  0.0935  0.1642
  869MOL0     C17246   3.553  10.871   5.393  0.6149  0.3048  0.2103
  869MOL0     C17247   3.535  10.964   5.270 -0.5671  0.6006 -0.3887
  869MOL0     H17248   4.025  10.757   5.197 -2.1306  0.4647  0.4686
  869MOL0     H17249   4.262  10.727   5.162  1.9075  0.0641 -0.5838
  869MOL0     H17250   4.502  10.872   5.478  0.7109  1.1788 -1.3631
  869MOL0     H17251   4.594  10.714   5.468  0.1829  0.4577 -0.5860
  869MOL0     H17252   4.716  10.924   5.399 -0.7905  1.4650  0.6080
  869MOL0     H17253   4.599  10.953   5.272  2.9064  2.0844  0.7445
  869MOL0     H17254   4.675  10.722   5.158  0.4312  0.6295 -3.2171
  869MOL0     H17255   4.795  10.712   5.289 -0.8389 -1.8313 -0.9753
  869MOL0     H17256   4.761  10.953   5.105 -0.7651  1.4607  2.2557
  869MOL0     H17257   4.888  10.940   5.220 -1.6375  1.6418  0.7182
  869MOL0     H17258   4.979  10.745   5.112 -3.0767 -3.7277 -0.5200
  869MOL0     H17259   4.843  10.723   5.005  0.9424 -0.4298 -3.3050
  869MOL0     H17260   4.914  10.922   4.863  0.0796 -2.3643 -2.1105
  869MOL0     H17261   5.061  10.927   4.975 -0.4120  0.8799 -0.7810
  869MOL0     H17262   5.084  10.694   4.901 -2.0158 -0.7209  0.4989
  869MOL0     H17263   5.113  10.817   4.768  1.0322  2.4531  1.2810
  869MOL0     H17264   4.978  10.614   4.699  0.0697 -0.0205  0.4220
  869MOL0     H17265   4.838  10.677   4.786  1.7084 -2.8925  0.5964
  869MOL0     H17266   4.674  10.769   4.625 -0.1526  1.6955  1.2087
  869MOL0     H17267   4.582  10.857   4.371 -2.2031  2.3073 -2.5100
  869MOL0     H17268   4.627  11.009   4.424 -0.8523 -1.1293  2.5039
  869MOL0     H17269   4.749  10.865   4.186 -0.3214  0.8898 -0.7756
  869MOL0     H17270   4.599  10.969   4.188 -0.4927  2.3628  2.3540
  869MOL0     H17271   4.886  11.040   4.262  0.4887  2.1258  0.1992
  869MOL0     H17272   4.760  11.150   4.281  0.4033 -0.2488  0.9175
  869MOL0     H17273   4.893  11.198   4.055  0.2608 -0.1890  0.0042
  869MOL0     H17274   4.723  11.174   4.031 -0.3739 -0.7420  0.3607
  869MOL0     H17275   5.059  11.041   4.124  0.2447  0.7976 -0.7178
  869MOL0     H17276   5.286  10.962   4.070  0.5090  2.5385 -0.9781
  869MOL0     H17277   5.481  10.542   3.881  1.8236  1.6242  2.7008
  869MOL0     H17278   5.697  10.447   3.887  2.6312 -1.5077 -1.5527
  869MOL0     H17279   5.966  10.543   3.546  2.4789  0.5401 -0.6017
  869MOL0     H17280   6.044  10.629   3.668 -1.3161  0.3330  0.1903
  869MOL0     H17281   6.172  10.423   3.744 -1.1057 -0.0771 -0.0616
  869MOL0     H17282   6.062  10.333   3.631 -0.4446 -0.1347 -0.6420
  869MOL0     H17283   6.208  10.579   3.531 -0.3206 -0.8867  0.4301
  869MOL0     H17284   6.310  10.432   3.547  0.9541  2.7016  2.7590
  869MOL0     H17285   6.214  10.446   3.326 -0.4428 -2.2198 -0.4984
  869MOL0     H17286   6.048  10.426   3.376  0.1839 -2.4904 -1.9802
  869MOL0     H17287   6.175  10.211   3.499 -0.5778 -0.8153 -0.5591
  869MOL0     H17288   6.290  10.241   3.367  1.5919 -2.1124  3.3791
  869MOL0     H17289   5.985  10.194   3.333 -0.6730 -0.0917 -0.3111
  869MOL0     H17290   6.091  10.206   3.196  2.6554 -0.8235 -0.3183
  869MOL0     H17291   6.113   9.997   3.419 -2.4336  1.0342  0.5530
  869MOL0     H17292   6.230  10.012   3.284  1.3748  0.0719  2.7601
  869MOL0     H17293   5.929   9.950   3.272 -1.4141  1.7906 -1.9072
  869MOL0     H17294   6.007   9.989   3.134 -0.4716 -1.1230  0.1945
  869MOL0     H17295   5.820  10.749   3.590 -0.1656  1.8898  0.3842
  869MOL0     H17296   5.606  10.837   3.589 -1.4900 -0.2998 -0.5189
  869MOL0     H17297   5.130  10.808   3.700 -2.7353 -0.1068  0.6121
  869MOL0     H17298   4.908  10.909   3.756 -0.6501 -4.3893  1.4341
  869MOL0     H17299   4.338  10.759   5.585  0.5246 -2.1716 -0.0802
  869MOL0     H17300   4.086  10.781   5.621  0.1039  0.6302  0.5681
  869MOL0     H17301   3.731  10.668   5.608  2.2453  1.2603 -3.5150
  869MOL0     H17302   3.509  10.627   5.695  0.8619  0.8909  0.8222
  869MOL0     H17303   3.175  10.869   5.547  0.7621  0.6143 -0.3328
  869MOL0     H17304   3.232  10.898   5.712 -3.4581 -2.3280  2.9614
  869MOL0     H17305   3.039  10.675   5.673  0.6776 -2.0064  2.0024
  869MOL0     H17306   2.996  10.838   5.732 -1.5610 -2.4593  2.4457
  869MOL0     H17307   3.174  10.812   5.899  1.8182 -0.8640 -1.4060
  869MOL0     H17308   3.181  10.643   5.862 -1.4998 -0.1103  2.2702
  869MOL0     H17309   3.049  10.653   6.034 -1.9103 -1.7090 -0.4831
  869MOL0     H17310   2.964  10.797   5.969  2.1120  0.8260  1.7905
  869MOL0     H17311   2.753  10.437   5.852  1.0695 -0.7101 -1.9601
  869MOL0     H17312   3.338  10.893   5.407  0.8509  0.2548 -0.5567
  869MOL0     H17313   3.636  10.995   5.241  0.4578 -0.5930  1.7315
  869MOL0     H17314   3.495  10.901   5.189  2.3219 -0.1822 -1.3362
  869MOL0     H17315   3.466  11.045   5.293  0.0516  1.2219 -0.6492
  870MOL0     O17316   1.809   8.794   7.672 -0.8203 -0.3362  0.8693
  870MOL0     C17317   1.757   8.835   7.772  0.5171 -0.6615 -0.3136
  870MOL0     O17318   1.805   8.810   7.901  0.0396 -0.1992  0.9805
  870MOL0     C17319   1.919   8.742   7.921  0.2325 -0.6051  1.2101
  870MOL0     C17320   2.040   8.813   7.917 -0.8742 -0.2015 -0.4546
  870MOL0     C17321   2.159   8.772   7.969  0.2177  0.2556  0.2059
  870MOL0     C17322   2.166   8.655   8.042  1.0414  0.7458 -0.5650
  870MOL0     O17323   2.291   8.615   8.094  0.4673  0.1041  0.5102
  870MOL0     C17324   2.351   8.702   8.195 -0.9096  0.7253  0.3470
  870MOL0     C17325   2.402   8.598   8.298 -0.1669 -0.4412 -0.4524
  870MOL0     C17326   2.474   8.653   8.423  0.4095 -0.0700 -0.8439
  870MOL0     C17327   2.387   8.762   8.501 -0.0493 -1.5165 -0.4898
  870MOL0     C17328   2.401   8.759   8.664 -0.2226 -0.4945  0.7356
  870MOL0     C17329   2.307   8.858   8.745 -0.2075  0.0584  0.2707
  870MOL0     C17330   2.350   9.002   8.749  0.6551 -0.4506 -0.3233
  870MOL0     C17331   2.265   9.088   8.849  0.1117  0.7929  0.0633
  870MOL0     N17332   2.309   9.226   8.864 -1.2312 -0.6845  0.2044
  870MOL0     C17333   2.320   9.310   8.757  0.3161 -0.5710  0.7674
  870MOL0     C17334   2.387   9.419   8.804  0.0392  0.5390  0.0188
  870MOL0     C17335   2.422   9.549   8.729 -0.1071  0.4475  1.0749
  870MOL0     C17336   2.576   9.536   8.699  0.1728 -0.1953  0.7193
  870MOL0     C17337   2.669   9.605   8.794  0.0108  0.3721 -0.2154
  870MOL0     C17338   2.811   9.606   8.751  0.2463 -0.3015 -0.1824
  870MOL0     O17339   2.884   9.702   8.824 -0.7203 -0.5315  0.5804
  870MOL0     C17340   3.018   9.703   8.814 -0.3647  0.6704 -0.9473
  870MOL0     C17341   3.095   9.597   8.772 -0.3994  0.3310  0.7700
  870MOL0     C17342   3.232   9.606   8.767 -0.5882  0.0657 -0.4867
  870MOL0     C17343   3.306   9.723   8.792  0.0521 -0.9856 -0.9725
  870MOL0     C17344   3.457   9.731   8.770 -0.2115 -0.9769 -0.1784
  870MOL0     O17345   3.507   9.659   8.664  0.4194 -0.1946 -0.2270
  870MOL0     C17346   3.635   9.624   8.663 -0.0969 -0.4242  0.0581
  870MOL0     C17347   3.672   9.511   8.723  0.3772  0.4905  0.2957
  870MOL0     C17348   3.799   9.460   8.725 -0.2032  0.1975 -0.4998
  870MOL0     C17349   3.905   9.539   8.671  0.0186  0.0339  0.3453
  870MOL0     O17350   4.033   9.498   8.684  0.5224 -0.0886 -0.3073
  870MOL0     C17351   4.121   9.550   8.585 -0.2864  0.1314 -1.3352
  870MOL0     C17352   4.261   9.488   8.620  0.2609 -0.4025 -0.2359
  870MOL0     C17353   4.369   9.541   8.529 -0.6112 -0.9505 -0.7269
  870MOL0     C17354   4.496   9.466   8.576 -0.0399  1.3201  0.3051
  870MOL0     C17355   4.631   9.508   8.518  0.5248  0.4206  0.6789
  870MOL0     C17356   4.648   9.469   8.364 -0.3869 -0.4683 -0.1830
  870MOL0     C17357   4.784   9.506   8.315 -0.1759 -0.1421  0.6409
  870MOL0     C17358   4.895   9.430   8.389 -0.5008  0.8918  1.3128
  870MOL0    Cl17359   4.857   9.259   8.401  0.3801  0.3366  0.3765
  870MOL0     C17360   3.862   9.656   8.596  0.0078  0.5042  0.7343
  870MOL0     C17361   3.731   9.694   8.595 -0.7683  0.7924 -0.1926
  870MOL0     O17362   3.526   9.800   8.846 -0.4084  0.7750  0.7353
  870MOL0     C17363   3.230   9.835   8.829  0.3709 -0.1376 -0.1487
  870MOL0     C17364   3.085   9.823   8.845 -0.6231 -0.6668  0.2641
  870MOL0     N17365   2.413   9.403   8.939  0.1050  0.6277  1.4545
  870MOL0     N17366   2.366   9.287   8.975  0.1741 -0.5258  0.2495
  870MOL0     C17367   2.046   8.577   8.051  0.1269  0.0487 -0.3765
  870MOL0     C17368   1.920   8.621   7.993  0.6987 -0.7898  0.3594
  870MOL0     C17369   1.613   8.892   7.765  0.3188 -0.1315 -0.5286
  870MOL0     C17370   1.552   8.924   7.890  0.5995 -0.0662  0.1050
  870MOL0     C17371   1.432   8.979   7.895  1.3804  1.0798 -0.6515
  870MOL0     C17372   1.354   9.013   7.784  1.2779  0.3831 -0.0231
  870MOL0     O17373   1.223   9.050   7.787  0.3931 -0.3085  0.3674
  870MOL0     C17374   1.154   9.085   7.911 -0.6500 -0.0354  0.3629
  870MOL0     C17375   1.018   9.165   7.884  0.0290 -0.7269 -0.4850
  870MOL0     C17376   1.041   9.283   7.781  0.3433 -0.6318  0.7984
  870MOL0     C17377   1.157   9.371   7.832  1.3640 -0.6658  0.4703
  870MOL0     C17378   1.191   9.505   7.770  0.6503 -0.3834 -0.4173
  870MOL0     C17379   1.201   9.613   7.727  0.1781  0.4774 -0.1281
  870MOL0     C17380   1.407   8.979   7.662  0.0437  0.4500 -1.2688
  870MOL0     C17381   1.534   8.920   7.652  0.0029 -0.7165 -0.5136
  870MOL0     C17382   1.583   8.900   7.509  0.6592  0.1358 -0.2417
  870MOL0     H17383   2.039   8.916   7.884  1.1109  1.1441  3.1633
  870MOL0     H17384   2.246   8.837   7.969  0.7377 -0.4061 -1.0109
  870MOL0     H17385   2.420   8.774   8.151 -0.4386  0.9178  1.3697
  870MOL0     H17386   2.271   8.764   8.238 -1.0345  1.8244 -1.3734
  870MOL0     H17387   2.466   8.530   8.241 -2.1873  1.2973 -5.3359
  870MOL0     H17388   2.323   8.535   8.341 -0.3435  1.3298  2.0395
  870MOL0     H17389   2.580   8.672   8.404  0.2308  3.1297  0.6570
  870MOL0     H17390   2.484   8.577   8.501  2.9053  2.7277  1.8321
  870MOL0     H17391   2.409   8.857   8.452 -1.8188 -1.7112 -1.7395
  870MOL0     H17392   2.280   8.748   8.486 -0.6232  3.0232 -2.1320
  870MOL0     H17393   2.394   8.656   8.701  2.0057 -0.3633  1.7182
  870MOL0     H17394   2.506   8.782   8.685 -0.2462  1.0185 -0.6458
  870MOL0     H17395   2.201   8.859   8.716 -0.4008  2.1268  0.8737
  870MOL0     H17396   2.310   8.827   8.850  1.5375  0.5225  0.3896
  870MOL0     H17397   2.342   9.045   8.648 -0.1870  0.5477  0.1470
  870MOL0     H17398   2.457   9.002   8.774  0.5569 -2.5607  0.2799
  870MOL0     H17399   2.164   9.084   8.806 -0.0849  0.6139  0.5317
  870MOL0     H17400   2.278   9.043   8.948 -0.6561  1.5211  0.5190
  870MOL0     H17401   2.272   9.291   8.661  0.1241 -1.3891  1.0157
  870MOL0     H17402   2.356   9.555   8.642 -0.2968 -1.1870  1.0711
  870MOL0     H17403   2.394   9.640   8.782 -0.1910  1.0200  0.0663
  870MOL0     H17404   2.609   9.435   8.673  0.0653  0.2293 -1.1694
  870MOL0     H17405   2.590   9.590   8.605  0.8360 -2.5642 -0.6161
  870MOL0     H17406   2.654   9.560   8.893  0.8459  0.4100 -0.0688
  870MOL0     H17407   2.637   9.710   8.790 -0.8369  0.0901 -2.8435
  870MOL0     H17408   2.816   9.622   8.643 -2.3622 -2.0755 -0.6366
  870MOL0     H17409   2.845   9.503   8.763  0.8408 -0.1861 -0.7600
  870MOL0     H17410   3.058   9.500   8.741 -0.1984  1.4042 -3.3797
  870MOL0     H17411   3.292   9.516   8.754  0.9834  0.6558  2.1312
  870MOL0     H17412   3.594   9.455   8.774 -0.7370 -0.0917 -1.9214
  870MOL0     H17413   3.832   9.378   8.788  0.9987  2.9854  2.8628
  870MOL0     H17414   4.101   9.513   8.484  0.2800  1.1039 -1.8234
  870MOL0     H17415   4.125   9.659   8.588 -0.9397  0.1365 -0.3728
  870MOL0     H17416   4.281   9.520   8.722  1.1467  2.5855 -1.2339
  870MOL0     H17417   4.254   9.379   8.624 -2.8456 -0.2404  0.8538
  870MOL0     H17418   4.346   9.526   8.423 -2.0832  1.3483 -0.7819
  870MOL0     H17419   4.382   9.649   8.536  3.8530 -1.3696  3.7371
  870MOL0     H17420   4.496   9.358   8.556 -0.3909  1.9575 -4.2428
  870MOL0     H17421   4.502   9.472   8.685  0.5449 -1.2442  0.4859
  870MOL0     H17422   4.714   9.470   8.579  0.0081  1.2595  1.9445
  870MOL0     H17423   4.634   9.617   8.519 -2.0123  0.6265 -1.7702
  870MOL0     H17424   4.625   9.362   8.356 -0.6700 -0.4511  0.3593
  870MOL0     H17425   4.571   9.528   8.313 -0.1886 -0.7178 -0.7757
  870MOL0     H17426   4.802   9.613   8.330 -0.5117 -0.2116  1.6232
  870MOL0     H17427   4.783   9.478   8.209 -1.1358 -0.0733  0.6221
  870MOL0     H17428   4.993   9.443   8.342  0.2365  0.0018  2.5490
  870MOL0     H17429   4.918   9.483   8.482  0.6621  1.0296  0.9607
  870MOL0     H17430   3.931   9.718   8.541 -0.1181  1.4114  1.5675
  870MOL0     H17431   3.705   9.778   8.532  3.0042  1.1536 -1.5494
  870MOL0     H17432   3.276   9.931   8.848  0.0862  0.3054 -1.5522
  870MOL0     H17433   3.041   9.913   8.888 -0.6859 -1.0446  1.0120
  870MOL0     H17434   2.069   8.482   8.097  0.6719 -0.3656 -1.4466
  870MOL0     H17435   1.826   8.568   8.002  0.5725 -1.2127 -2.4810
  870MOL0     H17436   1.610   8.915   7.981 -0.7184 -2.0448  0.8062
  870MOL0     H17437   1.386   8.979   7.994  1.4066  1.5566 -0.6361
  870MOL0     H17438   1.216   9.139   7.983 -1.7439  1.2931  0.3459
  870MOL0     H17439   1.128   8.989   7.958  1.8075 -1.3206 -0.7451
  870MOL0     H17440   0.990   9.201   7.984  1.0543 -0.0375 -0.4232
  870MOL0     H17441   0.947   9.093   7.845  0.5115 -1.8510  0.6432
  870MOL0     H17442   0.948   9.332   7.751  0.4239 -2.6527 -3.6139
  870MOL0     H17443   1.069   9.252   7.679 -0.5721  1.4085 -0.1175
  870MOL0     H17444   1.139   9.392   7.937 -0.9129  0.0079 -0.0017
  870MOL0     H17445   1.249   9.312   7.835  2.3823  0.7826 -0.7653
  870MOL0     H17446   1.182   9.711   7.688 -0.2158 -0.1283 -1.4971
  870MOL0     H17447   1.348   8.997   7.572 -1.0416  0.8028 -0.5027
  870MOL0     H17448   1.496   8.931   7.451 -2.5140 -1.3189  3.3140
  870MOL0     H17449   1.672   8.957   7.482 -0.5824  1.0279 -2.7205
  870MOL0     H17450   1.593   8.794   7.484  1.2316  0.2999 -0.7266
  871MOL0     O17451   0.419   3.199   4.488 -0.2364 -0.0782 -0.3644
  871MOL0     C17452   0.403   3.310   4.442 -0.2857  0.2286 -0.3442
  871MOL0     O17453   0.499   3.402   4.408 -0.2693  0.1365  0.0872
  871MOL0     C17454   0.633   3.378   4.416 -0.0064  0.4740  0.7835
  871MOL0     C17455   0.697   3.269   4.484 -0.5539  0.2901 -0.4456
  871MOL0     C17456   0.841   3.254   4.483  1.4472  0.9815  0.4663
  871MOL0     C17457   0.919   3.351   4.419  0.7539  1.2989  0.2154
  871MOL0     O17458   1.053   3.344   4.419 -0.3791  0.0769  0.2116
  871MOL0     C17459   1.120   3.211   4.386  0.2142 -0.0522  0.0050
  871MOL0     C17460   1.262   3.242   4.337 -0.2560  0.4749  0.5879
  871MOL0     C17461   1.364   3.259   4.446  0.5229  0.9895 -0.4936
  871MOL0     C17462   1.495   3.315   4.364  0.1265 -0.6527  0.2379
  871MOL0     C17463   1.626   3.284   4.440  0.4162  0.2780 -0.8383
  871MOL0     C17464   1.638   3.355   4.578  0.4583  0.7698  0.0775
  871MOL0     C17465   1.773   3.336   4.640 -0.3199  0.4395 -0.1733
  871MOL0     C17466   1.814   3.431   4.758  0.9328 -0.0785 -0.4212
  871MOL0     N17467   1.842   3.574   4.711 -0.3830 -0.1089  0.2148
  871MOL0     C17468   1.967   3.625   4.689  0.4948  0.5910  0.2276
  871MOL0     C17469   1.943   3.749   4.648  0.3427  0.0889 -0.2796
  871MOL0     C17470   2.057   3.845   4.621  0.3415  0.0246  0.2738
  871MOL0     C17471   2.112   3.925   4.750  0.3038  0.4500 -0.0892
  871MOL0     C17472   2.270   3.927   4.737 -0.2568 -0.3627  0.5164
  871MOL0     C17473   2.319   3.986   4.601 -0.2698  0.2922  0.2259
  871MOL0     O17474   2.305   4.128   4.587  1.0188 -0.7146 -0.4752
  871MOL0     C17475   2.372   4.197   4.492  0.3494  0.4307 -0.2713
  871MOL0     C17476   2.335   4.325   4.468 -1.3658 -0.5517 -0.2365
  871MOL0     C17477   2.408   4.408   4.376  0.1824  0.5072  0.3527
  871MOL0     C17478   2.508   4.356   4.290 -0.3651 -0.3281 -1.2608
  871MOL0     C17479   2.548   4.431   4.179 -0.5745 -0.3693 -0.0048
  871MOL0     O17480   2.509   4.554   4.181 -0.0787  0.3814  0.5055
  871MOL0     C17481   2.563   4.646   4.093 -0.1965 -0.3078 -0.2439
  871MOL0     C17482   2.687   4.706   4.119  0.9243 -1.2616  0.4937
  871MOL0     C17483   2.747   4.800   4.041 -0.3644  0.2356  0.3345
  871MOL0     C17484   2.667   4.848   3.930 -0.5425 -0.1126  0.2150
  871MOL0     O17485   2.703   4.949   3.844  0.4716 -0.5960  0.2183
  871MOL0     C17486   2.803   5.043   3.887  0.8017  0.3779  0.5813
  871MOL0     C17487   2.836   5.144   3.779  0.1564  0.5490  0.0738
  871MOL0     C17488   2.894   5.075   3.648 -0.8361  0.3886  0.3268
  871MOL0     C17489   2.973   5.173   3.569 -0.4996 -0.2722  0.4345
  871MOL0     C17490   3.013   5.107   3.431 -0.3336  0.2338 -0.1806
  871MOL0     C17491   2.907   5.107   3.319 -0.4903 -0.4298 -0.1010
  871MOL0     C17492   2.948   5.007   3.209  0.6111 -0.5939  0.8954
  871MOL0     C17493   2.913   4.861   3.230  0.3604 -0.0862 -0.6745
  871MOL0    Cl17494   2.925   4.760   3.085 -0.1783  0.0801  0.2286
  871MOL0     C17495   2.537   4.787   3.907 -1.2853  0.7818  0.3960
  871MOL0     C17496   2.498   4.686   3.984  1.1189 -0.3886 -0.7531
  871MOL0     O17497   2.608   4.379   4.085  0.2660  0.5685 -0.3737
  871MOL0     C17498   2.527   4.219   4.307 -0.0328  0.3034 -0.0685
  871MOL0     C17499   2.472   4.147   4.410  0.3150  0.7625 -0.0239
  871MOL0     N17500   1.812   3.769   4.630  0.0848 -0.0706  1.1456
  871MOL0     N17501   1.746   3.671   4.677 -0.8943  0.3705  0.0269
  871MOL0     C17502   0.854   3.459   4.368  0.6982 -0.0707  0.9917
  871MOL0     C17503   0.715   3.472   4.362 -0.6115  0.4457  0.7433
  871MOL0     C17504   0.266   3.369   4.435 -0.0139 -0.5213  1.0690
  871MOL0     C17505   0.248   3.502   4.465  0.3538  0.2617 -0.3221
  871MOL0     C17506   0.119   3.558   4.475  0.7207  0.5452 -0.5055
  871MOL0     C17507   0.005   3.483   4.448 -0.2954 -0.1316  0.1359
  871MOL0     O17508  -0.125   3.536   4.456  0.1853 -0.0412  0.0011
  871MOL0     C17509  -0.140   3.676   4.445  0.4653  0.3384  0.4699
  871MOL0     C17510  -0.293   3.695   4.438 -1.2211  0.1517  0.9420
  871MOL0     C17511  -0.374   3.621   4.541 -0.0307  1.2641  0.4128
  871MOL0     C17512  -0.526   3.657   4.532 -0.5007  0.4712 -0.2182
  871MOL0     C17513  -0.618   3.592   4.635  0.3986 -0.0478 -0.4696
  871MOL0     C17514  -0.693   3.524   4.708  0.1041 -0.0364  0.0076
  871MOL0     C17515   0.027   3.355   4.405 -0.0261  0.5402 -0.4306
  871MOL0     C17516   0.149   3.292   4.400 -0.5179 -0.7473  0.0865
  871MOL0     C17517   0.149   3.145   4.353 -0.2808 -0.1488 -0.5894
  871MOL0     H17518   0.643   3.181   4.518 -0.4367 -0.4084 -1.9927
  871MOL0     H17519   0.883   3.160   4.518 -2.9294 -1.6175 -0.4932
  871MOL0     H17520   1.125   3.148   4.475 -4.2322 -0.6120  0.0994
  871MOL0     H17521   1.067   3.153   4.311 -0.2694 -0.1687  0.4287
  871MOL0     H17522   1.256   3.334   4.278  1.0294  0.0417 -0.2659
  871MOL0     H17523   1.306   3.167   4.271  3.1877  1.3232  1.7075
  871MOL0     H17524   1.381   3.163   4.497  0.9028  1.1020 -0.4058
  871MOL0     H17525   1.343   3.329   4.528  1.1687 -1.0820  1.5651
  871MOL0     H17526   1.507   3.271   4.264 -1.5301  0.4711 -0.4977
  871MOL0     H17527   1.495   3.422   4.343  1.1731 -0.2864  1.9467
  871MOL0     H17528   1.615   3.177   4.460 -0.2458  0.7418  1.6830
  871MOL0     H17529   1.716   3.304   4.382  2.2941  0.7713  2.0424
  871MOL0     H17530   1.623   3.462   4.561 -2.2819  0.7850  1.8208
  871MOL0     H17531   1.552   3.329   4.641 -0.1618 -0.0763 -1.0915
  871MOL0     H17532   1.850   3.352   4.564  0.1819 -3.4150 -0.6748
  871MOL0     H17533   1.792   3.231   4.662  1.1658  1.3389  3.5863
  871MOL0     H17534   1.728   3.451   4.822 -0.2714 -1.2582 -1.6241
  871MOL0     H17535   1.886   3.374   4.817 -1.0753  0.9613  3.4025
  871MOL0     H17536   2.068   3.586   4.700  1.8320  3.5910 -0.2923
  871MOL0     H17537   2.138   3.785   4.578  1.5314  2.6929 -1.4995
  871MOL0     H17538   2.020   3.905   4.538  1.6650 -1.7059 -1.6810
  871MOL0     H17539   2.074   4.028   4.746  1.5424  0.9123 -3.5639
  871MOL0     H17540   2.097   3.875   4.847 -0.2185 -1.0427 -0.9162
  871MOL0     H17541   2.318   3.829   4.744 -1.0911 -0.7676  0.6245
  871MOL0     H17542   2.312   3.995   4.812  3.0530 -0.4912 -1.0686
  871MOL0     H17543   2.273   3.932   4.518 -0.0234 -0.6208  0.6576
  871MOL0     H17544   2.425   3.963   4.610 -0.8377 -1.8103  4.2921
  871MOL0     H17545   2.270   4.378   4.538  1.0097  1.3510  0.6650
  871MOL0     H17546   2.376   4.512   4.371 -0.7330  0.3135  1.6138
  871MOL0     H17547   2.753   4.666   4.195  0.2505  0.8529  2.2606
  871MOL0     H17548   2.848   4.830   4.067 -0.8413 -0.4858  3.4040
  871MOL0     H17549   2.753   5.095   3.969 -3.2534  0.7875 -1.8505
  871MOL0     H17550   2.899   5.006   3.923  0.3906 -0.7357  0.5740
  871MOL0     H17551   2.744   5.201   3.762 -0.9920 -0.7065  1.7735
  871MOL0     H17552   2.915   5.214   3.809 -0.1421  2.0287 -2.3160
  871MOL0     H17553   2.959   4.993   3.680 -1.9290 -1.1341 -1.1860
  871MOL0     H17554   2.814   5.043   3.580 -3.4517 -0.1045  3.4052
  871MOL0     H17555   3.067   5.201   3.618 -1.2264 -1.7720  2.8456
  871MOL0     H17556   2.928   5.272   3.560  1.4007  0.7319  1.3094
  871MOL0     H17557   3.051   5.006   3.446  0.9594  1.0804  2.9130
  871MOL0     H17558   3.103   5.156   3.393  0.5276 -0.0206  1.4577
  871MOL0     H17559   2.808   5.076   3.354 -1.8606  2.8372 -0.6830
  871MOL0     H17560   2.904   5.212   3.289  4.9870  0.3748  1.0953
  871MOL0     H17561   3.056   5.000   3.191  0.5454 -1.3593  0.7701
  871MOL0     H17562   2.896   5.048   3.122  1.5996  2.2441  1.5226
  871MOL0     H17563   2.970   4.807   3.306 -1.7578 -1.0585  0.2969
  871MOL0     H17564   2.814   4.846   3.273  1.3453 -2.9540  0.8681
  871MOL0     H17565   2.475   4.823   3.825 -0.9325  1.0685  0.2536
  871MOL0     H17566   2.410   4.629   3.957 -0.4779 -0.0257  3.0677
  871MOL0     H17567   2.587   4.154   4.245 -1.3209 -3.1720  2.0159
  871MOL0     H17568   2.498   4.044   4.432 -0.4444  0.5260 -0.1850
  871MOL0     H17569   0.916   3.537   4.324 -0.5282  0.8978  0.9279
  871MOL0     H17570   0.683   3.569   4.325  0.7326  0.2915 -0.9252
  871MOL0     H17571   0.321   3.572   4.505  1.1734  0.3480 -1.8892
  871MOL0     H17572   0.114   3.662   4.505 -0.2191  1.0715 -2.3587
  871MOL0     H17573  -0.100   3.729   4.358 -0.6522  1.0355  0.3596
  871MOL0     H17574  -0.097   3.725   4.533 -0.0689 -1.1507  1.6020
  871MOL0     H17575  -0.315   3.644   4.344 -3.2902  0.9000  0.9707
  871MOL0     H17576  -0.314   3.803   4.439  1.1153  0.8529 -3.2808
  871MOL0     H17577  -0.338   3.666   4.634  1.2600  4.1235 -1.3700
  871MOL0     H17578  -0.366   3.512   4.550 -2.0679  1.1559  1.5411
  871MOL0     H17579  -0.531   3.766   4.545 -2.4884  0.4253 -0.2323
  871MOL0     H17580  -0.563   3.641   4.431  0.5363 -1.0421 -0.3750
  871MOL0     H17581  -0.761   3.465   4.765 -2.6729  1.6717 -1.3179
  871MOL0     H17582  -0.059   3.309   4.359 -1.1131  0.8898  1.1761
  871MOL0     H17583   0.052   3.107   4.384  0.2149  0.5203  2.0091
  871MOL0     H17584   0.169   3.144   4.246 -0.6394 -0.2423 -0.6546
  871MOL0     H17585   0.221   3.080   4.405  0.6677  1.0602 -0.3429
  872MOL0     O17586   3.845   3.375   7.043  0.0645  0.6631  0.1361
  872MOL0     C17587   3.768   3.312   6.974  0.9917 -0.6860  0.4111
  872MOL0     O17588   3.767   3.179   6.955 -0.5698 -0.5789  0.0727
  872MOL0     C17589   3.883   3.102   6.983  0.4015 -0.2000  0.2933
  872MOL0     C17590   3.921   3.013   6.886 -0.0731  0.1937  0.6382
  872MOL0     C17591   4.026   2.929   6.898 -0.7826 -0.0301  0.2139
  872MOL0     C17592   4.107   2.930   7.017 -0.7052 -0.7681 -0.9163
  872MOL0     O17593   4.212   2.838   7.046  0.8013  0.1773 -0.5850
  872MOL0     C17594   4.291   2.770   6.942 -1.2102  0.0311 -0.3641
  872MOL0     C17595   4.289   2.621   6.971  0.0900  0.0828 -0.6141
  872MOL0     C17596   4.385   2.582   7.080  0.0534  0.4789  1.1655
  872MOL0     C17597   4.368   2.428   7.105  0.1459  0.3349  0.5577
  872MOL0     C17598   4.478   2.365   7.193  0.1721 -0.4853 -0.1804
  872MOL0     C17599   4.428   2.360   7.347  0.2826  0.0218 -0.1175
  872MOL0     C17600   4.315   2.255   7.368  0.0157  0.5168  0.5781
  872MOL0     C17601   4.350   2.111   7.341  0.0537  0.4075  0.8297
  872MOL0     N17602   4.451   2.063   7.430 -0.1143 -0.1201 -0.4311
  872MOL0     C17603   4.578   2.031   7.386  0.7972  0.5503 -0.9210
  872MOL0     C17604   4.645   1.993   7.500  0.3588  1.1251 -0.5157
  872MOL0     C17605   4.790   1.944   7.499  0.0586  0.5686  0.0705
  872MOL0     C17606   4.886   2.037   7.586 -0.1512 -0.1145  0.2642
  872MOL0     C17607   4.897   2.186   7.533 -0.4959 -0.0372  0.3243
  872MOL0     C17608   4.951   2.221   7.392  0.7602  0.5869  0.1932
  872MOL0     O17609   5.071   2.138   7.379  0.5094  0.0361  0.2052
  872MOL0     C17610   5.181   2.173   7.453 -0.1450 -0.2599 -0.6299
  872MOL0     C17611   5.260   2.063   7.491 -0.1165  0.6962  0.7885
  872MOL0     C17612   5.367   2.092   7.575 -0.0341  0.3922 -0.7436
  872MOL0     C17613   5.409   2.217   7.617 -0.2032  0.6620  0.2727
  872MOL0     C17614   5.542   2.236   7.682  0.7438  0.2479 -0.1577
  872MOL0     O17615   5.638   2.140   7.656  0.0334 -0.2720 -0.3002
  872MOL0     C17616   5.771   2.144   7.696 -0.2778  0.4957  0.1639
  872MOL0     C17617   5.852   2.250   7.670  0.0033  0.2253 -0.7280
  872MOL0     C17618   5.984   2.230   7.700 -0.9854  0.7712  0.0857
  872MOL0     C17619   6.037   2.112   7.759 -0.0778  0.2774  0.8622
  872MOL0     O17620   6.173   2.084   7.798  0.6745 -0.5443 -0.0101
  872MOL0     C17621   6.267   2.196   7.816 -0.0882 -0.1025 -0.6565
  872MOL0     C17622   6.373   2.216   7.717  0.7789  0.7101  0.3844
  872MOL0     C17623   6.336   2.300   7.600  0.0107 -0.0119  0.1650
  872MOL0     C17624   6.438   2.316   7.498 -0.3233 -0.8152 -0.0139
  872MOL0     C17625   6.461   2.454   7.436  0.3517 -0.1387 -0.0982
  872MOL0     C17626   6.596   2.461   7.363  0.1202  0.6004  0.0655
  872MOL0     C17627   6.719   2.494   7.446  0.6544 -0.2614 -0.1981
  872MOL0     C17628   6.850   2.475   7.374 -0.3243 -0.6378 -0.7322
  872MOL0    Cl17629   6.999   2.452   7.483  0.0744 -0.2677  0.1304
  872MOL0     C17630   5.949   2.014   7.788  0.4774  0.0672 -0.0515
  872MOL0     C17631   5.812   2.031   7.760  0.3512 -0.4801 -0.5066
  872MOL0     O17632   5.561   2.330   7.761  0.0404 -1.0257  0.9513
  872MOL0     C17633   5.328   2.322   7.585  0.4090  0.1386 -1.0096
  872MOL0     C17634   5.211   2.302   7.503 -0.1322 -0.3401  0.1307
  872MOL0     N17635   4.553   1.996   7.615  1.2773  0.2503 -0.0054
  872MOL0     N17636   4.436   2.030   7.564  0.4011 -0.0150  0.4523
  872MOL0     C17637   4.076   3.027   7.110  0.3048 -0.6909  0.2125
  872MOL0     C17638   3.968   3.119   7.089 -0.0875  0.6789  0.8016
  872MOL0     C17639   3.647   3.399   6.929  0.2322 -0.7575  0.0607
  872MOL0     C17640   3.632   3.525   6.982  0.2969  0.0915 -0.3330
  872MOL0     C17641   3.518   3.609   6.959 -0.6343 -0.6574 -0.4270
  872MOL0     C17642   3.421   3.569   6.873 -0.2526 -0.5664  1.1860
  872MOL0     O17643   3.301   3.627   6.844  0.0860  0.8789  0.4619
  872MOL0     C17644   3.303   3.707   6.725 -0.3856 -0.8403  0.8874
  872MOL0     C17645   3.169   3.787   6.715 -0.1854  0.1277 -1.5927
  872MOL0     C17646   3.134   3.843   6.856  0.3626  0.2986 -0.6635
  872MOL0     C17647   2.990   3.902   6.862 -0.4090 -0.5645  0.2983
  872MOL0     C17648   3.009   4.040   6.807  0.1261  0.3735  0.3857
  872MOL0     C17649   3.021   4.158   6.784 -0.8000  0.1177  0.0237
  872MOL0     C17650   3.434   3.444   6.814 -0.2455  0.4395  0.7792
  872MOL0     C17651   3.549   3.354   6.837 -0.0506 -0.5615 -0.4495
  872MOL0     C17652   3.556   3.220   6.775  0.3395 -0.0699 -0.4120
  872MOL0     H17653   3.869   3.014   6.791  1.0211  0.8247  0.0351
  872MOL0     H17654   4.053   2.859   6.819  1.8356  0.8205  0.2591
  872MOL0     H17655   4.251   2.795   6.843  0.9978 -0.1111 -1.3520
  872MOL0     H17656   4.392   2.811   6.953 -0.5166 -1.8177  0.4485
  872MOL0     H17657   4.319   2.572   6.878 -2.0015 -0.4833 -1.0512
  872MOL0     H17658   4.184   2.596   6.990  0.0744  0.3855 -0.2851
  872MOL0     H17659   4.352   2.632   7.172  0.0585  1.9006  0.4141
  872MOL0     H17660   4.489   2.616   7.073 -0.8901  3.3756 -0.5490
  872MOL0     H17661   4.269   2.399   7.139 -0.8797  0.7737 -1.8004
  872MOL0     H17662   4.374   2.377   7.008 -0.5586  2.5858 -0.7520
  872MOL0     H17663   4.497   2.265   7.155  0.7109 -0.8219  0.9254
  872MOL0     H17664   4.562   2.434   7.184  0.9126 -1.1448  1.2712
  872MOL0     H17665   4.505   2.346   7.423 -1.4850 -1.3816  1.5269
  872MOL0     H17666   4.382   2.457   7.366  0.1834 -0.1258  0.4052
  872MOL0     H17667   4.231   2.272   7.300 -0.1470 -1.6018  0.1699
  872MOL0     H17668   4.275   2.267   7.470 -1.1611 -1.5748  0.4101
  872MOL0     H17669   4.261   2.048   7.355 -1.0276 -0.1282 -5.2720
  872MOL0     H17670   4.371   2.094   7.235  2.7468 -0.6672  1.4734
  872MOL0     H17671   4.621   2.032   7.286  2.4064 -0.0824 -0.2709
  872MOL0     H17672   4.810   1.839   7.523  1.2796  0.8686  0.4164
  872MOL0     H17673   4.818   1.943   7.394  0.5637 -1.6378  0.1788
  872MOL0     H17674   4.855   2.039   7.691  1.9067  0.4843  0.9240
  872MOL0     H17675   4.988   1.996   7.593  0.4008  1.3425  1.3323
  872MOL0     H17676   4.970   2.228   7.603 -0.4341  3.5812 -1.6585
  872MOL0     H17677   4.801   2.234   7.553  0.3609  0.9122  2.4380
  872MOL0     H17678   4.963   2.327   7.367  2.1264  0.7554  1.4388
  872MOL0     H17679   4.886   2.187   7.311 -1.5359  1.3219  1.6142
  872MOL0     H17680   5.229   1.966   7.453  0.6666  1.2710 -1.4839
  872MOL0     H17681   5.426   2.005   7.603 -0.7863  0.8123  2.4963
  872MOL0     H17682   5.816   2.334   7.612 -0.9882  0.6022  0.4078
  872MOL0     H17683   6.045   2.311   7.660 -1.2671 -0.1566 -2.3677
  872MOL0     H17684   6.221   2.294   7.830 -0.8933 -0.4413 -0.8835
  872MOL0     H17685   6.320   2.174   7.909  1.5923 -2.4845 -2.0448
  872MOL0     H17686   6.459   2.269   7.758  1.0084  2.1053 -1.7442
  872MOL0     H17687   6.407   2.116   7.687  1.3463  0.8510  0.5437
  872MOL0     H17688   6.248   2.264   7.545 -0.9955  3.2722 -0.5953
  872MOL0     H17689   6.307   2.399   7.636 -2.6377 -0.8513  0.5855
  872MOL0     H17690   6.411   2.248   7.416 -0.5611  0.8787 -1.3936
  872MOL0     H17691   6.528   2.272   7.543 -0.6603  0.7150  2.3180
  872MOL0     H17692   6.459   2.533   7.511 -1.7305  0.3351 -0.6053
  872MOL0     H17693   6.382   2.487   7.369 -1.6763  1.7948  3.0148
  872MOL0     H17694   6.629   2.370   7.313  0.9257 -0.5585  2.5530
  872MOL0     H17695   6.592   2.534   7.282 -1.3137 -1.8869 -2.2543
  872MOL0     H17696   6.729   2.430   7.534  1.5202 -0.3744 -0.3696
  872MOL0     H17697   6.711   2.598   7.476 -0.0194 -0.4108  0.1491
  872MOL0     H17698   6.833   2.407   7.290 -0.0712 -1.1890 -0.3436
  872MOL0     H17699   6.866   2.572   7.327  0.4834 -0.2440  0.3215
  872MOL0     H17700   5.984   1.925   7.840 -1.4893 -0.4049  0.5687
  872MOL0     H17701   5.737   1.956   7.783  1.3682 -1.5035 -0.4369
  872MOL0     H17702   5.352   2.422   7.618  0.3716 -0.3314  0.5224
  872MOL0     H17703   5.153   2.384   7.464 -0.7660 -1.8600 -2.3471
  872MOL0     H17704   4.137   3.036   7.199 -1.4758 -0.3792  1.4474
  872MOL0     H17705   3.963   3.201   7.160 -1.2061 -0.3338  1.9277
  872MOL0     H17706   3.712   3.568   7.042  1.4484  1.1628 -2.5065
  872MOL0     H17707   3.500   3.697   7.021 -0.5970 -1.3726  0.6299
  872MOL0     H17708   3.321   3.650   6.634 -1.4569 -0.9690  0.7411
  872MOL0     H17709   3.386   3.779   6.727  0.6827 -2.0500  1.1440
  872MOL0     H17710   3.093   3.720   6.675 -0.6947  1.4937 -3.0153
  872MOL0     H17711   3.177   3.874   6.649  3.0283  1.3097  0.1158
  872MOL0     H17712   3.208   3.921   6.875  2.3220 -1.6618  0.2199
  872MOL0     H17713   3.144   3.764   6.930 -0.7562  0.1691 -0.6284
  872MOL0     H17714   2.932   3.831   6.801  3.4392 -1.6380 -2.5315
  872MOL0     H17715   2.956   3.908   6.965  0.6294  0.5128  0.5881
  872MOL0     H17716   3.031   4.264   6.779  0.9955  0.0411  0.9839
  872MOL0     H17717   3.354   3.401   6.754 -0.4467 -1.7374  2.4775
  872MOL0     H17718   3.486   3.206   6.692 -0.5580 -1.0588  0.4672
  872MOL0     H17719   3.654   3.205   6.731 -0.5433 -2.6432 -1.7095
  872MOL0     H17720   3.544   3.138   6.847 -2.3081  0.0822 -0.5788
  873MOL0     O17721   9.195   9.803   2.210  0.6877 -0.5349  0.7676
  873MOL0     C17722   9.147   9.790   2.325  0.6973 -0.0652  0.9032
  873MOL0     O17723   9.220   9.799   2.437  0.8671 -0.7530  0.2387
  873MOL0     C17724   9.353   9.826   2.438  1.1782  0.3576 -0.8140
  873MOL0     C17725   9.404   9.953   2.416  0.7137 -0.0610  0.8774
  873MOL0     C17726   9.538   9.978   2.425  0.5544 -0.0390 -0.4051
  873MOL0     C17727   9.636   9.880   2.466  0.3957 -0.4415 -1.1455
  873MOL0     O17728   9.776   9.908   2.480 -0.1505 -0.5063  0.1413
  873MOL0     C17729   9.828  10.028   2.417 -0.3482 -0.0268  0.1269
  873MOL0     C17730   9.982  10.007   2.384  0.6048 -0.3639  0.0466
  873MOL0     C17731  10.021  10.132   2.310  0.3674 -0.3264  0.4259
  873MOL0     C17732  10.173  10.145   2.271 -0.0083  0.8432  0.5708
  873MOL0     C17733  10.215  10.288   2.232 -0.0331 -0.7554  0.1947
  873MOL0     C17734  10.265  10.369   2.354 -0.4050  0.0273 -0.3544
  873MOL0     C17735  10.297  10.515   2.317 -0.7344  0.0148 -0.4404
  873MOL0     C17736  10.431  10.523   2.247 -0.9991 -0.2973  0.3642
  873MOL0     N17737  10.557  10.518   2.333  1.0294  0.3121 -0.5378
  873MOL0     C17738  10.625  10.408   2.370 -0.1344  0.1850 -0.1087
  873MOL0     C17739  10.725  10.455   2.445 -0.0904 -0.1579 -0.3668
  873MOL0     C17740  10.845  10.392   2.521  1.3091  0.6620 -0.4439
  873MOL0     C17741  10.880  10.249   2.478 -0.1065 -0.3283 -0.5025
  873MOL0     C17742  10.928  10.239   2.330  0.4677 -0.1494  0.0696
  873MOL0     C17743  10.935  10.095   2.295  0.2951 -0.7241  0.5004
  873MOL0     O17744  11.023  10.015   2.374 -0.2175 -0.4823 -0.0238
  873MOL0     C17745  11.158  10.017   2.351  0.6908 -0.8177  0.2997
  873MOL0     C17746  11.231   9.939   2.442 -0.5906  0.2381  0.7173
  873MOL0     C17747  11.367   9.957   2.451  0.6210  0.1534  0.1959
  873MOL0     C17748  11.429  10.047   2.358 -0.3355  0.8673 -0.1657
  873MOL0     C17749  11.577  10.037   2.354 -0.9674  0.1111  0.1491
  873MOL0     O17750  11.642   9.946   2.441 -0.7284 -0.2002 -0.1455
  873MOL0     C17751  11.776   9.941   2.445  0.0068  0.1834 -0.9164
  873MOL0     C17752  11.831   9.814   2.457  0.4379  0.1742 -0.6206
  873MOL0     C17753  11.972   9.790   2.468 -0.1080  0.1067 -0.9684
  873MOL0     C17754  12.068   9.894   2.469  0.2732 -0.1184  0.1120
  873MOL0     O17755  12.202   9.856   2.476  0.3790  0.0782  0.9174
  873MOL0     C17756  12.298   9.953   2.516  0.2403  0.0663 -0.7266
  873MOL0     C17757  12.439   9.884   2.512  1.0164 -0.2956 -0.2374
  873MOL0     C17758  12.456   9.777   2.620  0.1920 -0.4016  0.3173
  873MOL0     C17759  12.594   9.707   2.625  0.1134 -0.0284 -0.0693
  873MOL0     C17760  12.710   9.799   2.669 -0.2712  0.1365 -0.2765
  873MOL0     C17761  12.841   9.721   2.693 -0.1154 -0.2377  0.2736
  873MOL0     C17762  12.946   9.813   2.748 -0.5383  0.2334 -0.2421
  873MOL0     C17763  13.059   9.744   2.817 -0.8795  0.8077  1.0107
  873MOL0    Cl17764  13.205   9.856   2.805 -0.5490 -0.1003  0.2899
  873MOL0     C17765  12.006  10.023   2.469 -0.3657  0.1993 -0.7600
  873MOL0     C17766  11.869  10.046   2.438  0.9097  0.2326  0.0920
  873MOL0     O17767  11.636  10.106   2.270 -0.5173  0.0295 -0.2083
  873MOL0     C17768  11.358  10.099   2.251 -0.3946  0.7133 -0.1494
  873MOL0     C17769  11.219  10.086   2.249  0.4228 -0.2688 -0.2590
  873MOL0     N17770  10.716  10.591   2.458  0.7410  0.6476 -0.4824
  873MOL0     N17771  10.611  10.627   2.392  0.3397  0.7634  0.8281
  873MOL0     C17772   9.582   9.757   2.490  0.1675 -0.3949 -0.6146
  873MOL0     C17773   9.443   9.730   2.475 -0.2946  0.4006 -0.1430
  873MOL0     C17774   8.997   9.765   2.325 -0.4942 -0.2815  0.0920
  873MOL0     C17775   8.945   9.707   2.209 -0.6432 -0.0959 -0.5094
  873MOL0     C17776   8.806   9.689   2.200 -0.2036  0.4089  0.5477
  873MOL0     C17777   8.724   9.726   2.301 -0.1434  0.8358 -0.8259
  873MOL0     O17778   8.592   9.708   2.296 -0.7070 -1.1320 -0.5477
  873MOL0     C17779   8.527   9.808   2.217 -0.2772  0.1620 -0.2466
  873MOL0     C17780   8.379   9.760   2.207 -0.2792 -0.0379 -0.3230
  873MOL0     C17781   8.304   9.843   2.086  0.0618  0.7246 -0.2718
  873MOL0     C17782   8.171   9.764   2.054  0.1434  0.3321 -0.0476
  873MOL0     C17783   8.199   9.629   2.002 -0.1275  0.5473  0.7938
  873MOL0     C17784   8.207   9.515   1.961 -0.3267  0.6103 -0.1203
  873MOL0     C17785   8.774   9.778   2.427  0.5276  0.7231 -0.4356
  873MOL0     C17786   8.912   9.802   2.438 -0.0532 -0.6143  0.4356
  873MOL0     C17787   8.952   9.869   2.574 -0.8008  0.4590  0.3760
  873MOL0     H17788   9.343  10.033   2.375 -1.2933 -2.5312 -1.2921
  873MOL0     H17789   9.564  10.080   2.399  0.4644 -0.1592 -0.9763
  873MOL0     H17790   9.777  10.063   2.327 -3.5385 -0.8451  1.4812
  873MOL0     H17791   9.816  10.113   2.486 -0.2844  0.7433 -0.7895
  873MOL0     H17792   9.990   9.919   2.319  3.9223 -0.1631  0.0228
  873MOL0     H17793  10.039  10.001   2.477 -1.7027  0.1992  1.5625
  873MOL0     H17794   9.993  10.215   2.376 -0.5663 -0.7420  0.5667
  873MOL0     H17795   9.967  10.146   2.217  2.7648 -1.9263 -1.3410
  873MOL0     H17796  10.237  10.119   2.356  0.9582 -1.9862 -0.8589
  873MOL0     H17797  10.184  10.071   2.191 -0.4708 -0.1623  1.4044
  873MOL0     H17798  10.301  10.271   2.166  2.3429 -1.8142  3.2875
  873MOL0     H17799  10.140  10.343   2.174 -0.0718  0.3620  1.2548
  873MOL0     H17800  10.188  10.372   2.431  0.9462  0.7853  1.0040
  873MOL0     H17801  10.355  10.326   2.399  1.0895  1.0310 -2.2024
  873MOL0     H17802  10.310  10.576   2.407  1.4459  0.6587 -1.1453
  873MOL0     H17803  10.225  10.571   2.256 -0.1005 -2.2576 -3.5620
  873MOL0     H17804  10.426  10.438   2.177 -5.0787 -1.8936  2.2727
  873MOL0     H17805  10.444  10.605   2.177  0.0637 -1.1204 -0.4400
  873MOL0     H17806  10.594  10.308   2.344 -2.5980  0.4179  1.5856
  873MOL0     H17807  10.941  10.444   2.512  3.3787 -2.7282  0.2304
  873MOL0     H17808  10.819  10.383   2.627  3.3810 -1.5269 -0.0375
  873MOL0     H17809  10.961  10.221   2.546 -0.3018 -0.3633 -0.2835
  873MOL0     H17810  10.788  10.194   2.499  1.0345 -2.4239 -0.7784
  873MOL0     H17811  11.028  10.282   2.333 -0.1060  1.2138  0.5900
  873MOL0     H17812  10.856  10.296   2.271 -2.8033 -0.1713  3.6084
  873MOL0     H17813  10.942  10.080   2.187 -2.9977  0.0912  0.0561
  873MOL0     H17814  10.832  10.062   2.314 -1.0133  1.8576 -1.3490
  873MOL0     H17815  11.191   9.877   2.521  1.2815  0.4115  1.8661
  873MOL0     H17816  11.432   9.908   2.523  1.6370  0.5511 -0.4196
  873MOL0     H17817  11.767   9.727   2.462  1.5851 -0.7198 -1.0331
  873MOL0     H17818  12.000   9.686   2.478 -2.7882 -0.5149  1.7546
  873MOL0     H17819  12.303  10.030   2.438  4.5990  0.1295 -0.6096
  873MOL0     H17820  12.273   9.988   2.617 -2.7978 -1.2310 -0.9148
  873MOL0     H17821  12.464   9.839   2.415  3.1857 -1.1617  0.6605
  873MOL0     H17822  12.515   9.961   2.526 -0.5341  0.8088  2.9858
  873MOL0     H17823  12.454   9.817   2.722  0.9472 -1.5634  0.8073
  873MOL0     H17824  12.381   9.699   2.608  2.1108 -1.9885 -2.5316
  873MOL0     H17825  12.611   9.661   2.527  0.6636 -0.5702  0.2649
  873MOL0     H17826  12.590   9.622   2.694  0.8849 -1.4178 -1.6458
  873MOL0     H17827  12.680   9.844   2.764 -0.8240  0.3160 -0.5373
  873MOL0     H17828  12.726   9.878   2.595 -1.0580 -0.3916 -1.0172
  873MOL0     H17829  12.817   9.644   2.766 -2.9396 -0.3623 -0.6413
  873MOL0     H17830  12.867   9.668   2.601 -0.5450 -0.8369  0.4915
  873MOL0     H17831  12.893   9.893   2.801  0.3497 -1.1137  2.9448
  873MOL0     H17832  12.994   9.855   2.659  1.5710 -0.4585  0.5056
  873MOL0     H17833  13.061   9.723   2.924  3.8871  0.0652  0.9787
  873MOL0     H17834  13.081   9.651   2.764 -2.2415  0.3639  1.1840
  873MOL0     H17835  12.071  10.110   2.479  0.4413 -0.6284  2.5077
  873MOL0     H17836  11.840  10.150   2.433 -1.3318  0.0247  4.3174
  873MOL0     H17837  11.413  10.148   2.172 -0.8312 -2.0918 -2.3713
  873MOL0     H17838  11.179  10.155   2.176  1.7366  3.0262  1.8641
  873MOL0     H17839   9.666   9.690   2.504  0.2228 -0.6221 -1.9493
  873MOL0     H17840   9.409   9.627   2.481 -0.5570  0.3444 -1.9617
  873MOL0     H17841   9.012   9.690   2.126  0.1022  2.7345 -0.6032
  873MOL0     H17842   8.758   9.667   2.105  1.4408 -2.0848  0.2081
  873MOL0     H17843   8.567   9.823   2.117 -0.1468 -2.6701 -0.6872
  873MOL0     H17844   8.526   9.905   2.269  1.0014  1.5666 -2.6903
  873MOL0     H17845   8.323   9.772   2.300 -0.1730  1.5189 -0.4415
  873MOL0     H17846   8.385   9.656   2.173 -1.2921 -0.8346  1.7886
  873MOL0     H17847   8.373   9.840   2.001  0.6813 -5.0504  0.0002
  873MOL0     H17848   8.291   9.945   2.124  0.7347  0.8148 -0.2707
  873MOL0     H17849   8.111   9.753   2.145  1.9883  2.5227  1.5885
  873MOL0     H17850   8.118   9.817   1.975 -1.0075  1.1565  1.2354
  873MOL0     H17851   8.209   9.424   1.905 -1.9227  0.3817  0.1455
  873MOL0     H17852   8.708   9.801   2.510  3.8230 -0.5822  2.8685
  873MOL0     H17853   9.032   9.940   2.552  0.8620 -1.0462  1.3293
  873MOL0     H17854   8.873   9.934   2.613  0.9823  2.8656  0.2055
  873MOL0     H17855   8.973   9.796   2.652 -1.2113  0.9033  0.9118
  874MOL0     O17856   8.637   8.862   3.611 -0.2755 -0.8156  0.0973
  874MOL0     C17857   8.525   8.884   3.663 -0.0340 -0.6381  0.0812
  874MOL0     O17858   8.500   8.899   3.805 -0.0672  0.5145  0.1862
  874MOL0     C17859   8.599   8.883   3.899 -0.1122 -0.3605 -0.0842
  874MOL0     C17860   8.576   8.956   4.018  0.6086  0.7674  0.0919
  874MOL0     C17861   8.674   8.950   4.114  0.6989  0.0660  0.2717
  874MOL0     C17862   8.791   8.875   4.106 -0.5817  0.2012  0.0557
  874MOL0     O17863   8.878   8.850   4.211 -0.3757 -1.0485  0.1398
  874MOL0     C17864   8.824   8.790   4.327 -0.5129 -0.1044  0.5724
  874MOL0     C17865   8.932   8.792   4.429 -0.5256  0.6607 -0.0008
  874MOL0     C17866   8.880   8.818   4.577  0.1650 -0.1794 -0.2795
  874MOL0     C17867   8.856   8.966   4.602 -0.3820  0.0338 -0.4643
  874MOL0     C17868   8.744   8.997   4.714  0.4840  0.0727  0.3695
  874MOL0     C17869   8.766   8.909   4.840  0.2463  0.2929  0.5076
  874MOL0     C17870   8.639   8.888   4.927  0.5664 -0.4529  0.5814
  874MOL0     C17871   8.554   8.772   4.891 -0.0586 -0.9696  0.4385
  874MOL0     N17872   8.441   8.763   4.982 -0.7351  0.4329 -0.7421
  874MOL0     C17873   8.445   8.697   5.105  0.5877  0.5463 -0.6428
  874MOL0     C17874   8.317   8.709   5.159  0.8868  0.7497  0.0260
  874MOL0     C17875   8.285   8.658   5.292 -0.5883 -0.8807 -0.3961
  874MOL0     C17876   8.141   8.652   5.333  0.1119  0.2320 -0.0182
  874MOL0     C17877   8.108   8.613   5.478  0.1480  0.7720 -0.6403
  874MOL0     C17878   8.131   8.736   5.563  0.3302 -0.9344 -0.3817
  874MOL0     O17879   8.078   8.711   5.700  0.2535 -0.5478  0.5072
  874MOL0     C17880   7.940   8.720   5.728 -0.2244  0.6081 -0.4452
  874MOL0     C17881   7.884   8.624   5.815  0.1462 -0.0222  0.5398
  874MOL0     C17882   7.747   8.621   5.835 -0.1159  0.0670 -0.0133
  874MOL0     C17883   7.667   8.726   5.786  0.7779 -0.7483 -0.9142
  874MOL0     C17884   7.520   8.729   5.815 -0.2416 -0.3409 -0.7882
  874MOL0     O17885   7.483   8.677   5.940  0.2084 -0.4020  0.0626
  874MOL0     C17886   7.352   8.677   5.977 -0.2194  0.3825  0.1057
  874MOL0     C17887   7.319   8.577   6.065 -0.9492 -1.0282 -0.8372
  874MOL0     C17888   7.194   8.563   6.122  0.1989 -0.5483  0.0504
  874MOL0     C17889   7.084   8.636   6.083 -0.1103  0.3955 -0.4284
  874MOL0     O17890   6.957   8.607   6.132 -0.0355 -0.4632 -0.4396
  874MOL0     C17891   6.939   8.561   6.265 -0.3114 -0.6349 -0.0503
  874MOL0     C17892   6.803   8.550   6.305  0.1291  0.8120 -0.6856
  874MOL0     C17893   6.732   8.685   6.307 -0.0568 -0.1329  0.0998
  874MOL0     C17894   6.601   8.666   6.388 -0.2872 -0.9124 -0.4754
  874MOL0     C17895   6.560   8.794   6.462  1.0483  0.0988 -0.5869
  874MOL0     C17896   6.443   8.772   6.553  0.3098 -0.0506 -0.3937
  874MOL0     C17897   6.378   8.900   6.607  0.4276  0.8260  0.0369
  874MOL0     C17898   6.254   8.860   6.692  0.3543 -0.3950  0.0505
  874MOL0    Cl17899   6.154   8.752   6.597  0.2023 -0.0850  0.3014
  874MOL0     C17900   7.107   8.733   5.990 -0.2342 -0.3093  1.0115
  874MOL0     C17901   7.239   8.758   5.943  0.6395  0.9468  0.0131
  874MOL0     O17902   7.448   8.768   5.731 -0.2206  0.2529 -1.0941
  874MOL0     C17903   7.727   8.829   5.704 -0.0242 -0.5649 -0.7865
  874MOL0     C17904   7.859   8.823   5.679  0.0291  0.3290 -0.0127
  874MOL0     N17905   8.235   8.773   5.063  0.6128 -0.7651  0.1220
  874MOL0     N17906   8.314   8.815   4.970 -0.5074  0.2712  0.4137
  874MOL0     C17907   8.815   8.809   3.993  0.5787 -0.6245  0.3354
  874MOL0     C17908   8.719   8.809   3.885 -0.1261  0.0218 -0.7829
  874MOL0     C17909   8.412   8.913   3.565 -0.5011  0.2876 -0.2133
  874MOL0     C17910   8.300   8.983   3.604  0.0032  0.2508 -0.5850
  874MOL0     C17911   8.194   9.004   3.518 -0.0624 -0.9421 -0.5726
  874MOL0     C17912   8.209   8.977   3.385 -0.2099 -0.2106  0.3481
  874MOL0     O17913   8.120   9.001   3.289 -0.1594  0.2358 -0.5199
  874MOL0     C17914   8.002   9.046   3.345  0.3561 -0.9591 -0.0883
  874MOL0     C17915   8.000   9.200   3.375  1.0111  0.7213  0.9181
  874MOL0     C17916   7.893   9.233   3.478  0.2469 -0.9883  0.4369
  874MOL0     C17917   7.749   9.233   3.435 -0.0330 -0.3781  0.1333
  874MOL0     C17918   7.690   9.100   3.403  0.6398 -0.3287 -0.4509
  874MOL0     C17919   7.627   8.993   3.386 -0.5284  0.2391 -0.3648
  874MOL0     C17920   8.318   8.911   3.339  0.5860  0.4796 -0.5199
  874MOL0     C17921   8.417   8.866   3.432  0.0506 -0.3973 -0.2991
  874MOL0     C17922   8.519   8.773   3.370  0.9064  0.7759  0.5969
  874MOL0     H17923   8.495   9.028   4.011  0.5787  0.9550  1.9293
  874MOL0     H17924   8.675   9.011   4.204  3.4385  2.1537 -1.0195
  874MOL0     H17925   8.745   8.853   4.369  0.3979  2.1470 -0.9095
  874MOL0     H17926   8.788   8.688   4.309 -1.8710  0.6593 -1.3623
  874MOL0     H17927   9.005   8.871   4.411  0.9245 -0.7205 -0.3788
  874MOL0     H17928   8.985   8.697   4.439 -0.9752  0.0475 -2.7101
  874MOL0     H17929   8.960   8.798   4.648 -2.3528  1.0426  3.1956
  874MOL0     H17930   8.789   8.760   4.597 -0.2786  1.3667  2.8579
  874MOL0     H17931   8.952   9.016   4.617  1.3442 -2.0248 -3.5692
  874MOL0     H17932   8.810   9.013   4.514 -2.7421 -0.7544  0.2582
  874MOL0     H17933   8.729   9.101   4.744  0.3682 -0.0106  0.6000
  874MOL0     H17934   8.647   8.969   4.672  0.0021 -0.3112  1.6986
  874MOL0     H17935   8.794   8.809   4.806 -0.3060  1.4583 -4.0821
  874MOL0     H17936   8.839   8.944   4.913  0.3999  1.0837 -0.0153
  874MOL0     H17937   8.578   8.978   4.932 -0.4663 -1.0619 -0.5143
  874MOL0     H17938   8.675   8.884   5.030  2.1326  0.1845  0.0863
  874MOL0     H17939   8.506   8.802   4.797  1.6126  0.4711 -0.0062
  874MOL0     H17940   8.600   8.673   4.887  0.1774 -0.8285 -0.8340
  874MOL0     H17941   8.531   8.643   5.143 -1.3106 -1.9074  0.4900
  874MOL0     H17942   8.330   8.558   5.293 -1.6444 -1.3747 -0.2428
  874MOL0     H17943   8.341   8.718   5.364 -0.2213 -1.1661 -0.4421
  874MOL0     H17944   8.088   8.745   5.313 -2.4549 -1.1118  0.0545
  874MOL0     H17945   8.085   8.586   5.266  0.3043 -0.7133  0.7248
  874MOL0     H17946   8.187   8.544   5.510 -1.2062  0.2637  1.8819
  874MOL0     H17947   8.008   8.574   5.498  0.4162 -0.5553 -1.7722
  874MOL0     H17948   8.083   8.820   5.514 -0.1866 -0.1658  1.3455
  874MOL0     H17949   8.235   8.761   5.588  0.5009 -1.6064 -0.3804
  874MOL0     H17950   7.949   8.547   5.856 -0.6329 -0.2901  1.3016
  874MOL0     H17951   7.714   8.536   5.895  1.9198 -0.3839  0.5531
  874MOL0     H17952   7.407   8.524   6.099  1.3076  1.0405 -3.0873
  874MOL0     H17953   7.194   8.483   6.197  0.7027 -0.4706  0.1315
  874MOL0     H17954   6.987   8.464   6.279  0.9934  0.0057  0.0274
  874MOL0     H17955   7.010   8.616   6.327  1.3821 -2.6847 -0.0594
  874MOL0     H17956   6.750   8.474   6.246 -3.1282  3.1606 -1.1132
  874MOL0     H17957   6.806   8.518   6.410 -0.7376  2.4114 -0.1241
  874MOL0     H17958   6.800   8.753   6.360  0.4787 -0.8989  0.4250
  874MOL0     H17959   6.712   8.730   6.210 -1.8803 -2.5618 -0.7706
  874MOL0     H17960   6.615   8.583   6.457  1.7741 -1.0581 -0.9980
  874MOL0     H17961   6.525   8.616   6.328  1.6146 -5.3172  0.3658
  874MOL0     H17962   6.529   8.876   6.397 -4.1543 -1.5151 -0.6056
  874MOL0     H17963   6.645   8.826   6.523  0.8443 -1.1972  0.4167
  874MOL0     H17964   6.374   8.706   6.500  1.4909  1.2178 -3.8076
  874MOL0     H17965   6.474   8.719   6.644 -2.1645 -0.9989 -0.0266
  874MOL0     H17966   6.351   8.961   6.520  1.0540  2.7203  1.1201
  874MOL0     H17967   6.457   8.963   6.650  0.5647  0.4115  0.3994
  874MOL0     H17968   6.284   8.806   6.782 -1.5513 -0.9514  0.4083
  874MOL0     H17969   6.193   8.946   6.721  0.3372 -0.0910 -0.8546
  874MOL0     H17970   7.033   8.801   5.950  0.5748  1.0147  1.7060
  874MOL0     H17971   7.241   8.836   5.868  3.0743  0.7298 -0.2127
  874MOL0     H17972   7.662   8.903   5.658 -1.1076 -1.0985 -0.1446
  874MOL0     H17973   7.892   8.893   5.603  1.0336  0.4117  0.4803
  874MOL0     H17974   8.908   8.753   3.981  0.7149 -0.4202  0.4374
  874MOL0     H17975   8.754   8.749   3.802  3.6234  0.0157  0.6076
  874MOL0     H17976   8.304   9.019   3.706 -0.3746  0.2908 -0.5820
  874MOL0     H17977   8.104   9.050   3.558  0.0635 -2.5725  1.8091
  874MOL0     H17978   7.949   8.990   3.423 -1.3427  1.3084  0.5064
  874MOL0     H17979   7.934   9.032   3.260  2.5708  1.2640 -2.3889
  874MOL0     H17980   7.976   9.249   3.281  2.0754  0.0692  0.2868
  874MOL0     H17981   8.095   9.241   3.410 -0.4776  2.8880  2.7920
  874MOL0     H17982   7.906   9.340   3.499 -0.9141 -0.7337 -0.0499
  874MOL0     H17983   7.902   9.185   3.575  0.8562  0.6043  1.2003
  874MOL0     H17984   7.698   9.271   3.525  0.3210 -0.0399  0.1964
  874MOL0     H17985   7.730   9.313   3.363  3.7775  1.4733  0.9595
  874MOL0     H17986   7.560   8.924   3.338 -0.3823  0.1175 -0.3987
  874MOL0     H17987   8.330   8.887   3.234 -2.0742 -2.1060 -0.3716
  874MOL0     H17988   8.621   8.807   3.387  1.5963 -0.9677  0.1749
  874MOL0     H17989   8.508   8.667   3.395  1.5964  1.0996  2.4771
  874MOL0     H17990   8.505   8.781   3.262 -3.0572  1.2726  0.9897
  875MOL0     O17991   7.141   3.784   8.230  0.3686  0.5341  0.0521
  875MOL0     C17992   7.040   3.829   8.179 -1.1114 -0.5335  0.9098
  875MOL0     O17993   7.015   3.842   8.048 -0.4030  0.0769  0.5677
  875MOL0     C17994   7.118   3.818   7.956  0.6820 -0.3221 -0.3626
  875MOL0     C17995   7.210   3.918   7.919  0.5767  0.3016  0.1156
  875MOL0     C17996   7.316   3.888   7.835 -0.5565 -0.4618  0.5979
  875MOL0     C17997   7.321   3.768   7.764 -0.4582 -0.7012  0.4076
  875MOL0     O17998   7.406   3.761   7.650 -0.5148  0.6648  0.5322
  875MOL0     C17999   7.479   3.633   7.632 -0.2441  0.5766 -0.2293
  875MOL0     C18000   7.634   3.633   7.670  0.1192  0.5489  0.5547
  875MOL0     C18001   7.727   3.670   7.555  0.8032  0.3339 -0.2845
  875MOL0     C18002   7.871   3.655   7.605 -0.4721 -0.6223  0.1362
  875MOL0     C18003   7.966   3.651   7.486 -0.3364 -0.4309 -0.6960
  875MOL0     C18004   7.958   3.776   7.386 -0.1003  0.2971  0.3417
  875MOL0     C18005   8.053   3.757   7.269 -0.0103 -0.7720  0.4417
  875MOL0     C18006   8.054   3.878   7.180 -0.8653 -0.2873 -0.8448
  875MOL0     N18007   8.128   3.990   7.259  0.1704  0.1928  0.6018
  875MOL0     C18008   8.266   4.025   7.263 -0.1390 -0.0706  1.2353
  875MOL0     C18009   8.269   4.133   7.340  0.7052  0.2314  0.4589
  875MOL0     C18010   8.400   4.186   7.383 -0.3227 -0.5173  0.0135
  875MOL0     C18011   8.427   4.333   7.344 -0.6845  0.5758 -0.4444
  875MOL0     C18012   8.576   4.366   7.349 -0.5721 -0.2113 -0.2947
  875MOL0     C18013   8.616   4.500   7.423  0.1527  0.0636  0.1090
  875MOL0     O18014   8.598   4.604   7.330  0.0422  0.3642  0.2279
  875MOL0     C18015   8.709   4.629   7.248 -1.4795  0.1760  0.1938
  875MOL0     C18016   8.839   4.561   7.250  0.8881 -1.3278 -0.8553
  875MOL0     C18017   8.950   4.611   7.182 -1.1796 -0.6332  0.0184
  875MOL0     C18018   8.940   4.728   7.097  1.2452  1.1133 -0.1081
  875MOL0     C18019   9.056   4.758   7.010  0.4508  0.6643  0.1298
  875MOL0     O18020   9.010   4.812   6.886  0.2125 -0.1042 -0.3028
  875MOL0     C18021   9.098   4.809   6.787  0.5183 -0.6437  0.5132
  875MOL0     C18022   9.138   4.925   6.730 -0.0227 -0.4433 -0.0749
  875MOL0     C18023   9.224   4.928   6.626  0.4721  0.5032 -0.1465
  875MOL0     C18024   9.288   4.814   6.578  0.1955  0.0485 -0.3527
  875MOL0     O18025   9.384   4.837   6.481  0.5909  0.4377  0.1663
  875MOL0     C18026   9.440   4.717   6.416 -0.1367  0.5568  0.2918
  875MOL0     C18027   9.562   4.768   6.337 -0.6653 -0.3553 -0.1514
  875MOL0     C18028   9.678   4.682   6.282 -0.2679  0.6915 -1.3021
  875MOL0     C18029   9.639   4.554   6.208  0.2610  0.7669  0.1581
  875MOL0     C18030   9.578   4.445   6.309  0.7457  0.0605  1.3564
  875MOL0     C18031   9.603   4.299   6.262  0.0580 -0.0891  1.3516
  875MOL0     C18032   9.510   4.250   6.155  0.5622 -0.2607  1.0769
  875MOL0     C18033   9.492   4.327   6.029 -0.5262 -0.3447  0.0873
  875MOL0    Cl18034   9.417   4.235   5.897 -0.2429 -0.7373  0.1888
  875MOL0     C18035   9.244   4.695   6.630 -0.0948  0.2212  0.2833
  875MOL0     C18036   9.139   4.692   6.725 -0.2900 -0.3433 -0.5454
  875MOL0     O18037   9.169   4.728   7.037  0.2638  0.1901 -1.3086
  875MOL0     C18038   8.811   4.785   7.083 -0.3931 -0.1587 -0.5024
  875MOL0     C18039   8.702   4.741   7.158  0.6699 -0.7286  0.8885
  875MOL0     N18040   8.148   4.151   7.391  0.4552 -0.3415 -0.2449
  875MOL0     N18041   8.063   4.072   7.336  0.3978  0.5804  0.2376
  875MOL0     C18042   7.220   3.672   7.789  0.6590 -0.6071  0.3585
  875MOL0     C18043   7.124   3.699   7.885 -0.3630 -0.0479  0.9529
  875MOL0     C18044   6.924   3.856   8.274 -0.8125  1.6871  0.9238
  875MOL0     C18045   6.963   3.887   8.406  0.4294  0.2087 -0.5793
  875MOL0     C18046   6.864   3.922   8.500 -1.4406  1.5257 -0.5087
  875MOL0     C18047   6.734   3.908   8.461 -0.4398  0.0088 -0.6487
  875MOL0     O18048   6.625   3.922   8.547  0.9238  0.1051  1.0376
  875MOL0     C18049   6.638   3.987   8.667  0.2833 -0.3453 -0.8676
  875MOL0     C18050   6.500   4.035   8.718 -0.1084  1.0864  0.0962
  875MOL0     C18051   6.509   4.066   8.873  0.6538  0.5004 -0.1211
  875MOL0     C18052   6.374   4.125   8.922  0.9864  0.4059 -0.7530
  875MOL0     C18053   6.256   4.029   8.932 -0.1082 -0.3627  0.1340
  875MOL0     C18054   6.159   3.955   8.948  0.4477  0.5951 -0.0500
  875MOL0     C18055   6.697   3.880   8.331  0.0291  0.4301 -0.1756
  875MOL0     C18056   6.792   3.845   8.236 -0.1553  0.4297  0.3179
  875MOL0     C18057   6.749   3.790   8.101  0.5291 -0.3755  0.0771
  875MOL0     H18058   7.215   4.001   7.988  2.9658  0.3679 -0.0429
  875MOL0     H18059   7.388   3.967   7.816 -2.1350  0.3989 -2.4816
  875MOL0     H18060   7.430   3.551   7.686  1.7229 -0.1507  0.5534
  875MOL0     H18061   7.477   3.607   7.526 -0.6531 -1.7022  0.2914
  875MOL0     H18062   7.661   3.537   7.716 -0.9115  0.8298  1.7997
  875MOL0     H18063   7.650   3.697   7.758  0.4952  0.3889  0.6067
  875MOL0     H18064   7.704   3.771   7.521  2.1785  0.3859 -1.1490
  875MOL0     H18065   7.705   3.612   7.465  0.0617  0.5642 -0.2553
  875MOL0     H18066   7.893   3.734   7.677 -1.4992  0.0201 -0.2360
  875MOL0     H18067   7.885   3.558   7.655  1.4959 -1.2975 -1.6185
  875MOL0     H18068   8.064   3.649   7.535 -0.0857 -0.7304 -1.1945
  875MOL0     H18069   7.947   3.559   7.431  1.2442 -0.3910 -1.3843
  875MOL0     H18070   7.858   3.796   7.346 -0.4014  1.5385  1.6148
  875MOL0     H18071   7.991   3.855   7.454 -2.9940  0.1305  2.1034
  875MOL0     H18072   8.026   3.677   7.198  3.3551  0.1295 -2.1410
  875MOL0     H18073   8.149   3.729   7.313 -0.0743  1.3352  2.0119
  875MOL0     H18074   8.111   3.871   7.087  0.2823  1.0354 -0.2765
  875MOL0     H18075   7.955   3.914   7.152 -1.7972 -1.5680  0.6443
  875MOL0     H18076   8.342   3.967   7.213  0.8802  0.4106  2.1903
  875MOL0     H18077   8.430   4.178   7.488  3.3689 -0.4433 -0.9141
  875MOL0     H18078   8.468   4.121   7.328 -1.1576  0.5054 -2.3482
  875MOL0     H18079   8.387   4.357   7.245 -0.2461  1.5042 -0.4055
  875MOL0     H18080   8.375   4.399   7.414 -0.0978 -0.0042  0.5524
  875MOL0     H18081   8.601   4.370   7.243 -4.2314 -1.4821 -1.3444
  875MOL0     H18082   8.635   4.290   7.402 -0.9290  0.8324  1.6685
  875MOL0     H18083   8.714   4.494   7.470 -0.9232 -2.4017  2.2846
  875MOL0     H18084   8.544   4.516   7.504 -0.0723  2.1154 -0.4457
  875MOL0     H18085   8.852   4.474   7.313 -1.7109 -0.4636  1.0185
  875MOL0     H18086   9.046   4.567   7.208 -0.4760  1.0998  0.4618
  875MOL0     H18087   9.090   5.016   6.766 -0.3752 -2.1780  4.6321
  875MOL0     H18088   9.251   5.018   6.572  1.6222  0.1842 -0.1397
  875MOL0     H18089   9.468   4.638   6.487 -0.4677 -0.2726 -0.4784
  875MOL0     H18090   9.363   4.676   6.350 -1.2120  1.6804  0.8085
  875MOL0     H18091   9.531   4.819   6.245  1.1975 -1.1027 -1.2371
  875MOL0     H18092   9.599   4.841   6.409 -1.3811 -1.2416  1.1586
  875MOL0     H18093   9.737   4.742   6.212  2.5189  0.1330  0.3869
  875MOL0     H18094   9.751   4.652   6.358  0.2034  1.1908 -1.5548
  875MOL0     H18095   9.731   4.511   6.165  0.5786  1.1152  0.4812
  875MOL0     H18096   9.578   4.569   6.119  2.4225 -1.8488 -1.9660
  875MOL0     H18097   9.472   4.471   6.316  0.0056 -1.7448 -1.5030
  875MOL0     H18098   9.621   4.461   6.408 -0.0129 -0.2275  1.7360
  875MOL0     H18099   9.708   4.283   6.234 -0.3363  0.6585 -0.7615
  875MOL0     H18100   9.583   4.230   6.345 -1.1390  0.2740  1.3843
  875MOL0     H18101   9.411   4.226   6.192  0.9255 -0.4455  1.9458
  875MOL0     H18102   9.553   4.166   6.099 -0.5186 -0.2384  0.1810
  875MOL0     H18103   9.439   4.421   6.048  2.7684  1.7030 -0.0155
  875MOL0     H18104   9.593   4.348   5.994 -0.9577 -0.4529 -1.3043
  875MOL0     H18105   9.274   4.602   6.581 -3.0095  0.1161 -1.5620
  875MOL0     H18106   9.077   4.606   6.748 -0.5473  0.4790  2.1257
  875MOL0     H18107   8.811   4.878   7.027  0.1090 -0.2078 -0.5820
  875MOL0     H18108   8.606   4.793   7.156  1.9532  1.8122  0.7869
  875MOL0     H18109   7.210   3.586   7.724 -1.2935 -1.2250  1.3953
  875MOL0     H18110   7.049   3.622   7.905  0.0376 -0.1890  2.0072
  875MOL0     H18111   7.064   3.879   8.443 -0.5790 -2.5382  1.9745
  875MOL0     H18112   6.891   3.941   8.604 -1.2525  2.6768 -0.7488
  875MOL0     H18113   6.690   4.083   8.668 -2.9625  1.5779  0.6299
  875MOL0     H18114   6.681   3.916   8.737 -3.4696 -1.7333  0.3137
  875MOL0     H18115   6.426   3.960   8.690  1.5930 -0.4228 -0.5898
  875MOL0     H18116   6.489   4.129   8.662  1.5081  1.6431  0.6558
  875MOL0     H18117   6.600   4.120   8.900  0.7892  0.0210  0.4099
  875MOL0     H18118   6.522   3.966   8.918 -0.7777 -0.2341 -1.2724
  875MOL0     H18119   6.391   4.172   9.019  0.2023  0.6251 -0.7107
  875MOL0     H18120   6.350   4.222   8.877  2.8847  2.5988  2.5459
  875MOL0     H18121   6.078   3.888   8.969 -0.0325  1.1008 -0.2673
  875MOL0     H18122   6.595   3.897   8.298 -0.1128 -0.3948 -0.1896
  875MOL0     H18123   6.783   3.862   8.026 -0.5203 -0.3737 -0.4165
  875MOL0     H18124   6.778   3.685   8.090 -0.8589 -1.1322  2.8298
  875MOL0     H18125   6.640   3.786   8.090  0.6941  0.7576 -2.9022
  876MOL0     O18126  10.716   8.365   3.968  0.4050 -0.5142 -0.1198
  876MOL0     C18127  10.643   8.363   4.072 -0.4466  1.1303 -0.2880
  876MOL0     O18128  10.547   8.270   4.106  0.2037  0.1808 -0.4565
  876MOL0     C18129  10.528   8.169   4.012 -0.2677  0.4484  0.1909
  876MOL0     C18130  10.449   8.185   3.900 -0.5190  0.5070  0.0309
  876MOL0     C18131  10.451   8.080   3.802 -0.2101 -1.0061 -0.3676
  876MOL0     C18132  10.508   7.955   3.828 -0.7207 -0.1456 -0.1611
  876MOL0     O18133  10.486   7.868   3.725 -0.3579  0.3721 -1.1897
  876MOL0     C18134  10.509   7.728   3.748  0.4473  0.9502  0.1767
  876MOL0     C18135  10.521   7.651   3.611  0.3007 -0.9433 -0.3090
  876MOL0     C18136  10.397   7.663   3.523  0.5643 -0.0209  0.2265
  876MOL0     C18137  10.386   7.564   3.403 -0.4588  0.6693  0.0781
  876MOL0     C18138  10.312   7.618   3.279  0.4768 -0.3686 -0.4697
  876MOL0     C18139  10.174   7.667   3.301 -0.3304  0.2790  0.1820
  876MOL0     C18140  10.105   7.746   3.179 -0.3084 -0.1648  0.1869
  876MOL0     C18141  10.091   7.659   3.054  0.2103 -0.2371 -0.3236
  876MOL0     N18142  10.004   7.721   2.944 -0.2073 -0.0306 -0.1046
  876MOL0     C18143  10.049   7.795   2.840 -0.0517 -0.5292 -0.5330
  876MOL0     C18144   9.940   7.828   2.772 -0.2234  0.3010 -0.0200
  876MOL0     C18145   9.929   7.899   2.639  0.3637  0.1826 -1.1759
  876MOL0     C18146   9.817   7.833   2.544 -0.2314 -0.3654 -0.3415
  876MOL0     C18147   9.834   7.894   2.398  0.0813 -0.4231 -0.2877
  876MOL0     C18148   9.848   8.045   2.393 -0.5522  0.6752 -0.1128
  876MOL0     O18149   9.738   8.123   2.445 -0.4855  0.5097  0.6729
  876MOL0     C18150   9.751   8.258   2.428  0.3375 -0.4892 -0.3201
  876MOL0     C18151   9.728   8.311   2.297  0.0567 -0.1516 -0.7969
  876MOL0     C18152   9.740   8.443   2.264  0.0093  0.5831 -0.3171
  876MOL0     C18153   9.768   8.529   2.370  0.5095 -0.1180 -0.1840
  876MOL0     C18154   9.781   8.674   2.327  0.6858 -0.5089  0.6352
  876MOL0     O18155   9.780   8.764   2.432  0.2788  0.6758 -0.4018
  876MOL0     C18156   9.783   8.895   2.410  0.2077  0.6922 -0.5016
  876MOL0     C18157   9.898   8.947   2.362  0.0071  0.0983 -0.5507
  876MOL0     C18158   9.916   9.082   2.349 -0.4299 -0.7538 -0.2996
  876MOL0     C18159   9.816   9.172   2.377  0.8772  1.9866  0.8953
  876MOL0     O18160   9.826   9.299   2.369 -0.3842 -0.9316 -1.0617
  876MOL0     C18161   9.913   9.359   2.264 -0.0982 -0.3678  0.5424
  876MOL0     C18162   9.836   9.420   2.148  0.2925 -0.2868 -0.5646
  876MOL0     C18163   9.782   9.557   2.190 -0.6233 -0.3561 -0.4272
  876MOL0     C18164   9.766   9.637   2.058  0.1701  0.1086  0.6625
  876MOL0     C18165   9.784   9.789   2.085 -0.0723 -0.0469  0.3253
  876MOL0     C18166   9.763   9.875   1.963  0.5713  0.1829  0.1843
  876MOL0     C18167   9.635   9.833   1.892  0.5070  0.2887  0.0111
  876MOL0     C18168   9.613   9.938   1.782  0.7700  0.0688  0.6134
  876MOL0    Cl18169   9.474   9.881   1.690  0.1351 -0.2711 -0.1972
  876MOL0     C18170   9.690   9.119   2.418  0.5929  0.0575 -0.1649
  876MOL0     C18171   9.673   8.978   2.441 -0.0547 -0.4638  0.8409
  876MOL0     O18172   9.784   8.700   2.207 -0.1548 -0.3747  0.0178
  876MOL0     C18173   9.784   8.484   2.498 -0.0840  0.5225 -0.6645
  876MOL0     C18174   9.782   8.351   2.530  0.6882 -0.2231  0.3810
  876MOL0     N18175   9.836   7.766   2.833 -0.2434  0.3420 -0.4639
  876MOL0     N18176   9.870   7.691   2.927  0.0850  0.6573  0.0957
  876MOL0     C18177  10.585   7.935   3.945 -0.7597  0.5078  0.3239
  876MOL0     C18178  10.591   8.039   4.040  0.2634 -0.7499  0.5005
  876MOL0     C18179  10.646   8.484   4.155 -0.4450  0.4207 -0.8643
  876MOL0     C18180  10.750   8.504   4.243  0.3166 -0.0586 -0.4596
  876MOL0     C18181  10.759   8.618   4.332  0.0052 -0.7955 -0.1345
  876MOL0     C18182  10.652   8.709   4.327 -0.9789  0.2512  0.1721
  876MOL0     O18183  10.646   8.822   4.410  0.3549 -0.8515 -0.5293
  876MOL0     C18184  10.657   8.817   4.548 -0.7669 -0.8916 -0.7451
  876MOL0     C18185  10.583   8.707   4.619  0.0068 -1.0135  0.2169
  876MOL0     C18186  10.435   8.741   4.606  0.0265 -1.0645 -0.0880
  876MOL0     C18187  10.351   8.655   4.711 -1.4026 -0.0466  0.4739
  876MOL0     C18188  10.208   8.679   4.700 -0.2383 -0.0191  0.2386
  876MOL0     C18189  10.085   8.667   4.716 -0.1925  0.3335 -0.0700
  876MOL0     C18190  10.542   8.686   4.246 -0.4940 -1.3533  1.4859
  876MOL0     C18191  10.539   8.578   4.162 -0.3994 -0.6336  0.6928
  876MOL0     C18192  10.411   8.543   4.076 -1.0904  0.8450  0.3080
  876MOL0     H18193  10.388   8.273   3.879 -0.2272  0.3814 -1.4542
  876MOL0     H18194  10.392   8.087   3.711  0.2356 -1.3503 -0.6926
  876MOL0     H18195  10.603   7.713   3.801  0.8493  0.8137 -0.5586
  876MOL0     H18196  10.436   7.676   3.810 -1.7813  2.2158 -1.2261
  876MOL0     H18197  10.538   7.544   3.629 -1.7367 -0.7862  3.7493
  876MOL0     H18198  10.603   7.696   3.555  0.8929 -1.4509  0.1286
  876MOL0     H18199  10.411   7.759   3.474  2.3181 -1.6776 -2.7732
  876MOL0     H18200  10.305   7.660   3.582 -0.3586  0.5017 -1.1364
  876MOL0     H18201  10.486   7.537   3.369 -1.8720 -1.8573 -2.4111
  876MOL0     H18202  10.344   7.470   3.440  1.3301 -0.2574 -0.1072
  876MOL0     H18203  10.371   7.700   3.236 -0.6461  1.3517  1.0935
  876MOL0     H18204  10.311   7.542   3.200  0.5174  1.2772 -2.1267
  876MOL0     H18205  10.112   7.580   3.327 -0.5320  0.8355  1.7042
  876MOL0     H18206  10.186   7.735   3.386 -0.5185 -0.1110  0.5243
  876MOL0     H18207  10.166   7.833   3.152  1.4433 -2.4439 -4.2064
  876MOL0     H18208  10.006   7.783   3.207  0.3784  0.2034  2.3293
  876MOL0     H18209  10.186   7.633   3.006  0.5518  0.6886 -0.1590
  876MOL0     H18210  10.050   7.563   3.087 -1.1140  1.3542  3.1069
  876MOL0     H18211  10.151   7.817   2.809 -0.6873 -0.1004 -2.4508
  876MOL0     H18212   9.902   8.004   2.648  0.6856  0.4570 -3.0181
  876MOL0     H18213  10.028   7.894   2.592  1.3025  0.7008  0.6389
  876MOL0     H18214   9.819   7.724   2.550  0.1105 -0.3271  0.2764
  876MOL0     H18215   9.719   7.862   2.584  0.2547 -1.0670  1.4727
  876MOL0     H18216   9.734   7.871   2.360 -1.9159  2.3292  2.7485
  876MOL0     H18217   9.910   7.832   2.349  0.2831 -3.2837  3.1803
  876MOL0     H18218   9.863   8.069   2.287 -2.2948  1.1259 -0.2927
  876MOL0     H18219   9.944   8.067   2.440  0.2778 -1.6978 -0.5800
  876MOL0     H18220   9.698   8.237   2.224 -0.4458 -0.3047 -0.4387
  876MOL0     H18221   9.717   8.473   2.163 -0.1246 -0.9630 -0.7705
  876MOL0     H18222   9.977   8.874   2.348 -1.1322 -1.4705  0.7073
  876MOL0     H18223  10.012   9.124   2.321 -1.8303  0.3648 -4.1306
  876MOL0     H18224   9.986   9.433   2.299 -1.4099  1.6589 -0.7998
  876MOL0     H18225   9.971   9.281   2.214  0.0621 -0.8120  1.4076
  876MOL0     H18226   9.909   9.418   2.066  0.1249 -1.5747 -0.6912
  876MOL0     H18227   9.749   9.361   2.118 -2.2440  3.2083 -0.7053
  876MOL0     H18228   9.692   9.557   2.252 -0.6126 -1.8053 -0.3916
  876MOL0     H18229   9.851   9.613   2.253  0.0907  0.3205 -1.7509
  876MOL0     H18230   9.668   9.606   2.022  0.9839  0.9273 -2.6494
  876MOL0     H18231   9.839   9.605   1.983  0.0004  0.9598  0.1101
  876MOL0     H18232   9.888   9.814   2.108  0.1923 -0.2810 -0.5887
  876MOL0     H18233   9.711   9.818   2.162  0.3534  0.2633  0.6172
  876MOL0     H18234   9.745   9.975   2.002  0.0314 -0.8342  2.7187
  876MOL0     H18235   9.848   9.865   1.895 -0.0470  4.1788 -1.4556
  876MOL0     H18236   9.549   9.836   1.961 -1.5710  0.0752 -2.4233
  876MOL0     H18237   9.644   9.737   1.841  1.3826 -1.0392  2.4715
  876MOL0     H18238   9.590  10.038   1.821  3.1575  0.3428  1.4921
  876MOL0     H18239   9.702   9.934   1.719  0.3208 -0.3087 -0.0137
  876MOL0     H18240   9.605   9.183   2.442 -0.3127 -1.6832  1.4648
  876MOL0     H18241   9.577   8.941   2.476  0.7924 -3.7122  0.0597
  876MOL0     H18242   9.814   8.551   2.577  0.2124 -0.1277 -0.2184
  876MOL0     H18243   9.800   8.321   2.633  1.1054  1.2912  0.7720
  876MOL0     H18244  10.627   7.836   3.957  1.3338  1.1307 -1.2181
  876MOL0     H18245  10.634   8.016   4.137 -3.7288  0.1049  2.6830
  876MOL0     H18246  10.840   8.444   4.247 -0.3845 -1.4219 -2.8270
  876MOL0     H18247  10.845   8.624   4.397 -1.1936 -1.2877  1.5588
  876MOL0     H18248  10.628   8.915   4.589 -2.9468 -2.1882  1.0706
  876MOL0     H18249  10.763   8.807   4.572 -1.1638  0.5817  2.1272
  876MOL0     H18250  10.608   8.698   4.726  0.3491 -1.9146  0.0730
  876MOL0     H18251  10.599   8.612   4.568  1.4603 -1.4759  1.4347
  876MOL0     H18252  10.403   8.727   4.502  0.3433 -0.1796 -0.3095
  876MOL0     H18253  10.423   8.844   4.641 -2.3435 -1.4585  0.4793
  876MOL0     H18254  10.371   8.549   4.691  0.4687  0.5394 -1.0316
  876MOL0     H18255  10.401   8.684   4.804  0.7671 -2.0084  0.0078
  876MOL0     H18256   9.982   8.672   4.745 -0.4738  1.5611 -1.1951
  876MOL0     H18257  10.452   8.744   4.264  0.2941 -0.3455  2.2697
  876MOL0     H18258  10.349   8.468   4.126  0.2315 -0.0984  0.5991
  876MOL0     H18259  10.344   8.625   4.051 -1.5656 -0.1678 -1.9380
  876MOL0     H18260  10.439   8.496   3.981 -1.5452  0.6404  0.2764
  877MOL0     O18261   3.171  11.402   5.856  0.2583 -0.3887  0.0499
  877MOL0     C18262   3.221  11.513   5.829 -0.1863 -0.4649 -0.9263
  877MOL0     O18263   3.152  11.630   5.799  0.0607  0.0443  0.2505
  877MOL0     C18264   3.014  11.640   5.773 -0.3188  0.8075  0.0617
  877MOL0     C18265   2.932  11.745   5.817 -1.0391 -0.4397 -0.1899
  877MOL0     C18266   2.802  11.753   5.761  0.3743 -0.4416 -0.4398
  877MOL0     C18267   2.753  11.669   5.658 -0.8274 -0.3187  0.5525
  877MOL0     O18268   2.629  11.668   5.611  0.7373  0.0106 -0.3081
  877MOL0     C18269   2.563  11.789   5.604 -0.2083  0.1005 -0.2753
  877MOL0     C18270   2.449  11.774   5.508 -0.0257 -1.0897 -0.0484
  877MOL0     C18271   2.349  11.663   5.542  0.9291 -0.6492  0.2513
  877MOL0     C18272   2.209  11.672   5.464  0.4247 -0.5876  0.8850
  877MOL0     C18273   2.115  11.790   5.501 -0.8842 -0.2197  0.3407
  877MOL0     C18274   2.034  11.756   5.622 -0.0898 -0.4803  0.5197
  877MOL0     C18275   1.931  11.872   5.666 -0.8368 -0.3626 -0.5063
  877MOL0     C18276   1.849  11.925   5.547  0.8129 -0.0765 -0.5797
  877MOL0     N18277   1.744  11.829   5.495 -0.4835  0.7381  0.1054
  877MOL0     C18278   1.749  11.756   5.380  0.0740  0.2016  0.2400
  877MOL0     C18279   1.629  11.707   5.354  0.1301 -0.4731 -1.2315
  877MOL0     C18280   1.574  11.631   5.242 -0.0220 -0.2060 -1.0109
  877MOL0     C18281   1.537  11.485   5.271 -0.8632 -0.7273  0.5007
  877MOL0     C18282   1.658  11.401   5.312  0.0107  0.5571  0.3165
  877MOL0     C18283   1.764  11.386   5.211  0.1716 -0.2711  0.7812
  877MOL0     O18284   1.854  11.277   5.259  0.7208 -0.5259  0.3188
  877MOL0     C18285   1.982  11.298   5.216 -0.3682 -0.0802 -0.5907
  877MOL0     C18286   2.015  11.281   5.084 -1.2772 -0.6762  0.0756
  877MOL0     C18287   2.151  11.285   5.046  0.7963 -0.5959 -0.2815
  877MOL0     C18288   2.256  11.308   5.136  0.0466  0.2647 -1.1044
  877MOL0     C18289   2.397  11.323   5.099  0.3783  0.2513 -0.2982
  877MOL0     O18290   2.489  11.385   5.184 -0.3816 -0.2060 -0.9803
  877MOL0     C18291   2.621  11.412   5.143  0.4535  0.4889 -0.2863
  877MOL0     C18292   2.718  11.413   5.241  0.0348  0.7914 -0.6615
  877MOL0     C18293   2.845  11.454   5.208 -1.0150 -0.0513  0.8505
  877MOL0     C18294   2.880  11.515   5.079 -0.1687 -0.1263 -0.3372
  877MOL0     O18295   3.011  11.554   5.062 -0.8819 -0.1002 -0.6303
  877MOL0     C18296   3.041  11.662   4.970  0.0890  0.0969  0.3094
  877MOL0     C18297   3.093  11.585   4.854 -0.3925  1.2422  0.3972
  877MOL0     C18298   3.127  11.677   4.729 -0.6020 -0.2525  0.8738
  877MOL0     C18299   3.231  11.786   4.758  0.0215 -0.1060  0.1245
  877MOL0     C18300   3.373  11.725   4.746  0.4833 -0.7612 -0.1908
  877MOL0     C18301   3.482  11.830   4.782  0.2068 -0.3469 -0.5947
  877MOL0     C18302   3.511  11.839   4.937 -0.3865 -0.2047  0.4416
  877MOL0     C18303   3.438  11.949   5.007 -0.6073  0.4679  0.4646
  877MOL0    Cl18304   3.427  11.906   5.183 -0.0678 -0.3703 -0.0091
  877MOL0     C18305   2.773  11.519   4.984 -1.1070 -0.6677 -0.0694
  877MOL0     C18306   2.648  11.462   5.014 -0.0417 -0.0900  0.4577
  877MOL0     O18307   2.419  11.281   4.982  0.3261  0.4274 -0.4460
  877MOL0     C18308   2.222  11.333   5.272 -0.3883  0.7476  0.0127
  877MOL0     C18309   2.087  11.317   5.308  0.1417  0.7913 -0.4192
  877MOL0     N18310   1.548  11.744   5.460  0.3495 -0.3869 -0.5206
  877MOL0     N18311   1.612  11.817   5.540 -1.0124 -0.6481  0.7477
  877MOL0     C18312   2.842  11.575   5.612 -0.8330  0.2472  0.6536
  877MOL0     C18313   2.968  11.558   5.672  0.3473  1.7298 -0.7514
  877MOL0     C18314   3.369  11.528   5.859  0.7575 -0.1516  0.1433
  877MOL0     C18315   3.427  11.656   5.832  0.2125  0.6468  0.7846
  877MOL0     C18316   3.558  11.687   5.850 -0.6444  0.0595  0.1875
  877MOL0     C18317   3.652  11.593   5.886  0.4981 -0.1965 -0.1738
  877MOL0     O18318   3.788  11.621   5.893  0.0796  0.2273 -1.0975
  877MOL0     C18319   3.866  11.526   5.957  1.0980 -0.0193 -0.9986
  877MOL0     C18320   4.001  11.585   5.994 -0.1212  0.1295  1.0379
  877MOL0     C18321   4.097  11.482   6.060  0.0951 -0.9120  0.3872
  877MOL0     C18322   4.195  11.547   6.161  0.3424 -1.0775  0.5867
  877MOL0     C18323   4.268  11.652   6.090  0.6802 -0.1568 -0.3115
  877MOL0     C18324   4.334  11.743   6.052 -0.3974 -0.6241  0.6857
  877MOL0     C18325   3.595  11.470   5.924 -0.3801  0.0256 -0.5588
  877MOL0     C18326   3.462  11.435   5.912  0.5216 -0.0763  0.0467
  877MOL0     C18327   3.421  11.292   5.942 -0.7414 -0.1857  0.0704
  877MOL0     H18328   2.974  11.818   5.885  3.8956 -1.7386 -1.4301
  877MOL0     H18329   2.743  11.826   5.816  1.3168 -1.3420  1.8952
  877MOL0     H18330   2.525  11.815   5.704  0.4154  0.2697 -0.0764
  877MOL0     H18331   2.636  11.863   5.569  0.4338 -0.6276 -0.4997
  877MOL0     H18332   2.482  11.758   5.405 -1.0805  1.6681 -0.9133
  877MOL0     H18333   2.395  11.869   5.505  2.7230  0.5879  0.1888
  877MOL0     H18334   2.316  11.661   5.646 -2.7691  1.5463 -0.6567
  877MOL0     H18335   2.386  11.564   5.517 -2.0216 -1.5093 -1.2901
  877MOL0     H18336   2.238  11.692   5.361 -2.0431 -0.6600  0.1054
  877MOL0     H18337   2.150  11.580   5.478 -2.1526  0.8917  0.4779
  877MOL0     H18338   2.171  11.878   5.532 -2.8310  1.2568 -0.2064
  877MOL0     H18339   2.053  11.822   5.417 -0.1350 -0.1048 -0.1818
  877MOL0     H18340   1.969  11.670   5.598 -1.5276  1.1125 -1.6247
  877MOL0     H18341   2.095  11.723   5.707  0.7540 -0.6250 -0.1341
  877MOL0     H18342   1.984  11.959   5.705 -1.6828  0.0843 -0.3261
  877MOL0     H18343   1.862  11.831   5.741 -1.3649 -0.3589 -0.9854
  877MOL0     H18344   1.798  12.012   5.589 -0.3125 -1.2062  0.4636
  877MOL0     H18345   1.903  11.956   5.457  1.6428  1.5681  0.4403
  877MOL0     H18346   1.828  11.756   5.305 -0.4548 -3.7355 -0.5260
  877MOL0     H18347   1.485  11.689   5.215  0.5065  1.7346  1.1028
  877MOL0     H18348   1.644  11.641   5.159  1.6546 -1.7536  0.1188
  877MOL0     H18349   1.451  11.471   5.336 -3.1352 -0.3211 -2.2220
  877MOL0     H18350   1.500  11.440   5.178  1.6907 -1.8975 -0.0520
  877MOL0     H18351   1.609  11.307   5.336 -2.5212  1.5990 -0.4334
  877MOL0     H18352   1.702  11.439   5.405 -1.3051 -0.5753  1.4476
  877MOL0     H18353   1.816  11.482   5.201  0.1555 -0.4664 -2.0609
  877MOL0     H18354   1.728  11.355   5.112  0.6139  2.3824 -0.2929
  877MOL0     H18355   1.932  11.255   5.019 -1.2800  0.5726 -0.4411
  877MOL0     H18356   2.175  11.262   4.943 -1.1758 -0.3901 -0.8238
  877MOL0     H18357   2.686  11.385   5.341  2.3967  0.3033  0.0366
  877MOL0     H18358   2.918  11.471   5.286 -1.9961 -0.7644  1.9592
  877MOL0     H18359   2.951  11.718   4.944 -0.4304 -0.3018  1.2101
  877MOL0     H18360   3.121  11.722   5.016  0.8690 -0.7637  0.1155
  877MOL0     H18361   3.180  11.524   4.881 -0.9440 -1.2727 -2.8341
  877MOL0     H18362   3.020  11.511   4.820 -0.3205  1.3293  0.0450
  877MOL0     H18363   3.161  11.622   4.641 -1.3422 -0.5073  0.7367
  877MOL0     H18364   3.034  11.734   4.715  0.8050  1.4168 -2.6856
  877MOL0     H18365   3.210  11.822   4.859 -0.8407  2.2841 -0.8575
  877MOL0     H18366   3.219  11.875   4.697 -1.6617 -0.2924  0.1373
  877MOL0     H18367   3.392  11.679   4.649  0.7925  1.5128 -1.2727
  877MOL0     H18368   3.382  11.646   4.821 -1.5172  0.7956  1.8636
  877MOL0     H18369   3.565  11.809   4.714  0.2242 -0.6435 -0.4834
  877MOL0     H18370   3.448  11.930   4.752 -1.3320 -0.2083  1.4176
  877MOL0     H18371   3.618  11.849   4.957  0.1769  0.0182 -2.2638
  877MOL0     H18372   3.473  11.750   4.988 -4.8931  2.5550  2.4960
  877MOL0     H18373   3.502  12.037   4.996  0.8329 -0.7617 -1.9439
  877MOL0     H18374   3.339  11.959   4.960  0.8912 -2.0933 -3.8163
  877MOL0     H18375   2.789  11.575   4.892  0.1109 -0.8104  0.0514
  877MOL0     H18376   2.562  11.471   4.947 -0.0281  0.2915  0.4869
  877MOL0     H18377   2.306  11.351   5.338  0.5249  0.0633 -0.9436
  877MOL0     H18378   2.059  11.323   5.413  0.9396 -3.7432  0.2650
  877MOL0     H18379   2.802  11.516   5.529 -1.8853  0.8679  0.7017
  877MOL0     H18380   3.037  11.485   5.632  0.9869  0.9531  1.5704
  877MOL0     H18381   3.368  11.727   5.774  2.3757  0.3886 -1.9761
  877MOL0     H18382   3.580  11.792   5.832  2.8339 -0.8164 -1.6242
  877MOL0     H18383   3.886  11.437   5.897 -0.0967 -0.3674 -0.9015
  877MOL0     H18384   3.819  11.506   6.054 -0.9659 -1.9413 -2.3161
  877MOL0     H18385   3.984  11.660   6.071 -2.7780  0.4668  0.2288
  877MOL0     H18386   4.048  11.632   5.907 -2.5506  1.5938  0.4133
  877MOL0     H18387   4.150  11.427   5.981  2.1694 -1.2947  1.9792
  877MOL0     H18388   4.036  11.409   6.114 -0.8143  0.4463  1.2474
  877MOL0     H18389   4.135  11.592   6.241 -0.8195 -0.1137 -0.7671
  877MOL0     H18390   4.256  11.463   6.196 -1.4493 -2.0340  1.5749
  877MOL0     H18391   4.389  11.828   6.017 -1.4493 -1.2181 -2.7818
  877MOL0     H18392   3.663  11.399   5.972 -0.2441  1.7170  1.9560
  877MOL0     H18393   3.335  11.292   6.009  0.6663  1.8811  2.0419
  877MOL0     H18394   3.397  11.234   5.852 -0.1986 -0.6613  0.2311
  877MOL0     H18395   3.503  11.234   5.986 -1.6185 -2.1086 -0.7318
  878MOL0     O18396   5.210   4.773   5.523 -0.3808 -0.8988  0.1468
  878MOL0     C18397   5.314   4.714   5.546 -0.7330  0.0880 -0.5043
  878MOL0     O18398   5.325   4.587   5.594 -0.0563  0.3071  0.2313
  878MOL0     C18399   5.215   4.518   5.621  0.1424  0.3438  0.5675
  878MOL0     C18400   5.169   4.434   5.518 -1.1823  0.0668  1.1555
  878MOL0     C18401   5.071   4.337   5.544  0.2336 -0.4828 -0.3180
  878MOL0     C18402   5.005   4.326   5.670  0.6545  0.1386 -0.3827
  878MOL0     O18403   4.891   4.249   5.714  0.9187  0.3262  0.0653
  878MOL0     C18404   4.807   4.231   5.608  1.6564 -0.5328  1.1508
  878MOL0     C18405   4.679   4.164   5.653  0.6994 -0.0899 -0.4336
  878MOL0     C18406   4.590   4.268   5.710 -0.4145 -0.6599  0.2706
  878MOL0     C18407   4.461   4.197   5.771 -0.1506  0.3419  0.4481
  878MOL0     C18408   4.481   4.123   5.907  0.2565  0.3342  0.0191
  878MOL0     C18409   4.351   4.072   5.975 -0.0047 -0.6607 -0.1258
  878MOL0     C18410   4.274   3.958   5.893  0.5296 -0.9095  0.0648
  878MOL0     C18411   4.164   3.901   5.973  1.3064  0.2490  0.0404
  878MOL0     N18412   4.115   3.771   5.925  0.4095  0.0841  0.2810
  878MOL0     C18413   4.184   3.662   5.931  0.1737  0.2456 -0.4292
  878MOL0     C18414   4.108   3.579   5.857  0.0085 -0.0634  0.7345
  878MOL0     C18415   4.140   3.437   5.831 -0.0695  0.2752 -0.9667
  878MOL0     C18416   4.142   3.348   5.952  0.1102  0.9181 -0.4641
  878MOL0     C18417   4.165   3.198   5.920 -0.1138 -0.0764  0.0848
  878MOL0     C18418   4.043   3.145   5.858  0.0321 -0.6106  0.8251
  878MOL0     O18419   4.055   3.001   5.827 -0.4373  0.0025  0.1427
  878MOL0     C18420   4.145   2.952   5.740 -0.7354 -0.8125 -0.5762
  878MOL0     C18421   4.201   3.036   5.638  1.4931 -0.0176 -0.0802
  878MOL0     C18422   4.285   2.977   5.542 -1.3274 -0.4271  0.3171
  878MOL0     C18423   4.319   2.837   5.538 -0.1810 -0.6307  0.7080
  878MOL0     C18424   4.425   2.794   5.451 -0.7074 -0.3758 -0.4828
  878MOL0     O18425   4.503   2.889   5.399 -0.1709 -0.0061 -0.5532
  878MOL0     C18426   4.629   2.864   5.333  0.4236  0.0211  0.0525
  878MOL0     C18427   4.708   2.983   5.326  0.3976 -0.9781 -0.2297
  878MOL0     C18428   4.829   2.990   5.261 -0.1297 -0.7003  0.2168
  878MOL0     C18429   4.893   2.863   5.226 -0.2761 -0.1200 -0.2555
  878MOL0     O18430   5.024   2.847   5.180 -0.2472  0.0315 -0.4151
  878MOL0     C18431   5.098   2.968   5.133 -0.6165  0.4016 -0.9930
  878MOL0     C18432   5.036   3.026   4.999 -0.7486  0.7815 -1.1918
  878MOL0     C18433   5.137   3.133   4.953 -0.9709 -0.2525 -0.0812
  878MOL0     C18434   5.088   3.203   4.821 -0.9060  0.2737  0.7177
  878MOL0     C18435   5.200   3.227   4.715 -0.3334 -0.0831 -0.0795
  878MOL0     C18436   5.223   3.119   4.623  1.1952  0.1754  0.8392
  878MOL0     C18437   5.292   3.168   4.498 -0.5583 -0.8166  0.2362
  878MOL0     C18438   5.321   3.047   4.424 -1.5465  0.3300 -0.2335
  878MOL0    Cl18439   5.381   3.089   4.253 -0.2158 -0.5072 -0.4385
  878MOL0     C18440   4.825   2.737   5.244 -0.6360 -0.2712  0.2394
  878MOL0     C18441   4.691   2.739   5.294  0.0729 -0.9471 -0.7204
  878MOL0     O18442   4.445   2.675   5.448  0.6752  1.1607  0.3745
  878MOL0     C18443   4.274   2.760   5.652 -1.0467  0.6893  0.8700
  878MOL0     C18444   4.183   2.814   5.745 -0.8301  0.4565  0.0947
  878MOL0     N18445   3.988   3.635   5.821 -0.4661  0.0818 -0.4771
  878MOL0     N18446   3.993   3.757   5.854  0.1410 -0.8076  0.2777
  878MOL0     C18447   5.050   4.415   5.765  0.5811 -0.0965 -0.7133
  878MOL0     C18448   5.159   4.510   5.746  0.3747  0.2184 -0.1484
  878MOL0     C18449   5.436   4.794   5.530 -0.1074 -0.0234 -0.0288
  878MOL0     C18450   5.542   4.789   5.627 -0.4335 -0.0972 -0.2806
  878MOL0     C18451   5.654   4.867   5.615  0.4612 -0.9767  0.8788
  878MOL0     C18452   5.683   4.944   5.508 -0.3505  0.4119  0.4552
  878MOL0     O18453   5.798   5.022   5.513  0.1804  0.5688  0.1125
  878MOL0     C18454   5.834   5.117   5.413 -0.3499 -0.1890  0.2800
  878MOL0     C18455   5.977   5.146   5.417  0.3626 -1.0309  0.0429
  878MOL0     C18456   6.070   5.044   5.351  0.1496  0.4474  0.2448
  878MOL0     C18457   6.206   5.106   5.330 -0.5018  0.3895  0.1900
  878MOL0     C18458   6.292   5.034   5.242  0.0606  0.8872 -0.1672
  878MOL0     C18459   6.364   4.968   5.172  0.6172  0.0300 -0.4332
  878MOL0     C18460   5.583   4.962   5.411 -0.7271 -0.0953  0.2637
  878MOL0     C18461   5.455   4.889   5.419  0.1888 -0.0268  0.0824
  878MOL0     C18462   5.359   4.906   5.297  0.7871 -0.5137 -0.5227
  878MOL0     H18463   5.213   4.455   5.422 -2.9305 -1.8461 -0.1526
  878MOL0     H18464   5.050   4.266   5.464  0.3231 -3.0758  1.8204
  878MOL0     H18465   4.790   4.329   5.561  1.8971 -1.1123 -0.1803
  878MOL0     H18466   4.855   4.169   5.532 -0.2652  3.3873 -3.8377
  878MOL0     H18467   4.697   4.076   5.716  1.2478 -0.0670 -0.5541
  878MOL0     H18468   4.615   4.130   5.571 -0.6375  1.9981 -0.3263
  878MOL0     H18469   4.564   4.344   5.636 -1.5595 -0.0868  1.2087
  878MOL0     H18470   4.632   4.335   5.786 -0.7947 -1.3933  1.1566
  878MOL0     H18471   4.383   4.268   5.798  0.0797  1.1694 -1.0008
  878MOL0     H18472   4.415   4.123   5.705 -1.2144 -1.2109  2.7585
  878MOL0     H18473   4.567   4.054   5.910  0.9159  1.1343  2.4307
  878MOL0     H18474   4.522   4.202   5.970 -2.0973  2.5775 -1.1098
  878MOL0     H18475   4.390   4.036   6.070  2.3660  1.9410  0.0320
  878MOL0     H18476   4.294   4.164   5.985  2.1457  0.6335  0.9804
  878MOL0     H18477   4.340   3.878   5.857  0.5893 -0.4882 -0.7913
  878MOL0     H18478   4.224   3.994   5.802 -1.6008 -1.6856  0.8574
  878MOL0     H18479   4.190   3.883   6.078 -0.9484 -0.7842  0.5029
  878MOL0     H18480   4.080   3.972   5.973  0.2392 -0.9601 -0.9186
  878MOL0     H18481   4.282   3.651   5.978 -0.9597  1.2593  2.3920
  878MOL0     H18482   4.065   3.393   5.765  0.3450 -0.5051 -0.9266
  878MOL0     H18483   4.230   3.427   5.768 -0.6346  3.0698 -2.3699
  878MOL0     H18484   4.217   3.377   6.025 -2.4377  0.9127  2.3888
  878MOL0     H18485   4.047   3.364   6.005  0.2147  0.4348 -0.1287
  878MOL0     H18486   4.175   3.155   6.021  0.5490 -2.2418 -0.8308
  878MOL0     H18487   4.256   3.191   5.859  0.7849  0.6832  1.2804
  878MOL0     H18488   4.029   3.204   5.768  0.0068 -0.1162  1.1505
  878MOL0     H18489   3.957   3.166   5.923 -0.1033 -1.3075  0.8841
  878MOL0     H18490   4.173   3.140   5.630  1.4401  0.2289  2.4777
  878MOL0     H18491   4.326   3.037   5.461 -1.7519 -4.3359 -3.1777
  878MOL0     H18492   4.670   3.074   5.371 -1.1936 -0.8530 -1.7114
  878MOL0     H18493   4.872   3.089   5.257 -2.2961  0.3172  0.8400
  878MOL0     H18494   5.101   3.044   5.213  2.4559  0.1096 -0.6948
  878MOL0     H18495   5.201   2.944   5.105  0.0372 -0.6708  1.9837
  878MOL0     H18496   5.026   2.957   4.915 -2.9861 -0.2112 -0.1904
  878MOL0     H18497   4.939   3.068   5.026  0.1257  0.9503  2.1295
  878MOL0     H18498   5.166   3.195   5.038 -0.1077 -2.4601  1.3193
  878MOL0     H18499   5.221   3.073   4.918  0.7793  2.7113 -1.4239
  878MOL0     H18500   5.051   3.302   4.852 -0.0168  1.2352 -1.1289
  878MOL0     H18501   5.009   3.149   4.769 -0.4365 -1.6544  1.9203
  878MOL0     H18502   5.295   3.249   4.764  1.9005 -3.2123 -2.5775
  878MOL0     H18503   5.166   3.317   4.663 -2.5736 -1.2227 -0.7048
  878MOL0     H18504   5.277   3.040   4.676  2.0329 -0.1117 -0.4078
  878MOL0     H18505   5.122   3.085   4.597  1.6019 -2.0113  1.9145
  878MOL0     H18506   5.383   3.222   4.527 -1.6719  1.6135 -0.5083
  878MOL0     H18507   5.218   3.229   4.446 -1.0873  1.0617  2.9988
  878MOL0     H18508   5.398   2.988   4.474 -0.9064  1.6463  0.3711
  878MOL0     H18509   5.223   3.000   4.410 -1.3007 -0.0922 -0.5581
  878MOL0     H18510   4.858   2.638   5.215 -1.0093  0.2973 -2.4572
  878MOL0     H18511   4.631   2.650   5.308 -0.2397 -0.6475 -0.0956
  878MOL0     H18512   4.299   2.659   5.683 -2.9749 -0.2334 -0.3519
  878MOL0     H18513   4.131   2.758   5.822 -1.6638  1.5706  0.3567
  878MOL0     H18514   5.007   4.405   5.865  0.2441 -2.8582 -1.0498
  878MOL0     H18515   5.185   4.585   5.820 -2.1809 -0.9928  2.1427
  878MOL0     H18516   5.544   4.728   5.716  1.4949  1.2966  0.7144
  878MOL0     H18517   5.731   4.877   5.691 -0.9626 -1.2754  2.4348
  878MOL0     H18518   5.780   5.212   5.420 -0.4141 -0.1216 -0.9588
  878MOL0     H18519   5.809   5.068   5.319 -0.2282 -3.4131  1.7793
  878MOL0     H18520   6.000   5.144   5.524 -0.6627 -1.2375  0.2738
  878MOL0     H18521   5.986   5.244   5.369 -0.7078 -0.5496  0.7871
  878MOL0     H18522   6.036   5.027   5.248 -0.0327 -1.2310  0.5556
  878MOL0     H18523   6.086   4.947   5.398 -2.9085 -1.1954 -1.7431
  878MOL0     H18524   6.203   5.209   5.292 -0.5738  0.2086 -0.3085
  878MOL0     H18525   6.256   5.114   5.427  1.2853  0.9939 -0.7369
  878MOL0     H18526   6.405   4.911   5.091  1.1275  1.2786 -1.0698
  878MOL0     H18527   5.608   5.009   5.316  0.8944 -0.7555  0.3191
  878MOL0     H18528   5.352   4.808   5.249 -2.0059 -0.9376  0.5747
  878MOL0     H18529   5.262   4.947   5.326  0.8455  0.2152 -1.3130
  878MOL0     H18530   5.410   4.973   5.227  2.0959 -2.7496 -1.8415
  879MOL0     O18531   0.912   2.575   2.191 -0.9529  0.1167  1.0850
  879MOL0     C18532   0.897   2.628   2.078 -0.2311  0.2317 -0.5943
  879MOL0     O18533   0.772   2.662   2.025 -0.2323 -0.0838 -0.0682
  879MOL0     C18534   0.656   2.681   2.098 -0.1792  0.0676  0.7444
  879MOL0     C18535   0.640   2.704   2.233 -0.0247 -0.0404 -0.8800
  879MOL0     C18536   0.522   2.749   2.286  0.7970  0.2082  0.3926
  879MOL0     C18537   0.402   2.743   2.204 -0.4710  0.7252  0.4151
  879MOL0     O18538   0.278   2.779   2.249 -0.0579 -0.1067 -0.1039
  879MOL0     C18539   0.209   2.669   2.313  0.0872  0.5565  0.0973
  879MOL0     C18540   0.077   2.624   2.240 -0.1325  0.4175 -0.3361
  879MOL0     C18541  -0.021   2.752   2.251  0.1591 -0.4320  0.1214
  879MOL0     C18542  -0.152   2.728   2.172 -0.0389  0.2156 -0.0958
  879MOL0     C18543  -0.233   2.857   2.142  0.6195  2.0221 -0.4069
  879MOL0     C18544  -0.157   2.964   2.065 -0.0526  0.3598  0.1268
  879MOL0     C18545  -0.248   3.040   1.966  0.5916  0.6488 -0.4275
  879MOL0     C18546  -0.285   2.949   1.845  0.6666  0.5702  0.2907
  879MOL0     N18547  -0.342   3.027   1.729  0.0491 -0.9071  0.5639
  879MOL0     C18548  -0.278   3.067   1.611  0.0817  0.2034  0.2399
  879MOL0     C18549  -0.374   3.126   1.543 -0.8766  0.9905  0.6365
  879MOL0     C18550  -0.349   3.190   1.409 -0.2394  0.1574 -0.3497
  879MOL0     C18551  -0.438   3.316   1.393 -0.1788  0.7504  0.4581
  879MOL0     C18552  -0.421   3.380   1.253 -0.7837 -0.0170  0.2068
  879MOL0     C18553  -0.315   3.489   1.255 -0.2600 -0.0030  0.2223
  879MOL0     O18554  -0.182   3.430   1.252 -0.1788 -0.0852 -0.4286
  879MOL0     C18555  -0.086   3.516   1.203  1.0823 -0.4470 -0.7667
  879MOL0     C18556  -0.101   3.656   1.171 -0.4721  0.7139 -0.5472
  879MOL0     C18557   0.009   3.727   1.121 -1.3788  0.0726  0.3264
  879MOL0     C18558   0.132   3.659   1.099  0.3379  0.9215  0.0224
  879MOL0     C18559   0.248   3.735   1.051  0.4231 -0.2074 -0.1014
  879MOL0     O18560   0.341   3.663   1.003 -0.2614  0.7786  0.4723
  879MOL0     C18561   0.428   3.723   0.917  0.6578 -0.4740 -0.2033
  879MOL0     C18562   0.535   3.811   0.952  0.4373 -0.2203 -0.3481
  879MOL0     C18563   0.623   3.858   0.854 -0.7975 -0.6038 -0.7646
  879MOL0     C18564   0.611   3.814   0.724 -0.3373  0.9711  0.6888
  879MOL0     O18565   0.708   3.849   0.630  0.4889 -0.0251  0.4040
  879MOL0     C18566   0.792   3.739   0.594 -0.2719  0.0838 -0.0275
  879MOL0     C18567   0.936   3.728   0.664  0.1052 -0.3170 -0.2971
  879MOL0     C18568   1.021   3.864   0.659 -0.1145  0.2203  0.0062
  879MOL0     C18569   1.002   3.959   0.771  0.1810 -0.6725 -0.2124
  879MOL0     C18570   1.045   4.104   0.746  0.1827 -0.6868 -0.3696
  879MOL0     C18571   1.185   4.115   0.704 -0.1726 -0.3467 -0.4259
  879MOL0     C18572   1.242   4.251   0.720 -0.1348  0.8056  0.1474
  879MOL0     C18573   1.248   4.323   0.587  0.3275  0.5105  0.1664
  879MOL0    Cl18574   1.078   4.372   0.553 -0.4607 -0.3948 -0.0353
  879MOL0     C18575   0.509   3.723   0.692 -0.2654  0.0117  0.4109
  879MOL0     C18576   0.422   3.685   0.788 -0.1645  0.6065 -0.7872
  879MOL0     O18577   0.258   3.859   1.078 -0.4894 -0.3137  0.3247
  879MOL0     C18578   0.145   3.522   1.137  0.8341  0.3800 -0.3283
  879MOL0     C18579   0.036   3.453   1.180  0.3474  0.0888  0.3006
  879MOL0     N18580  -0.495   3.111   1.614  0.3206 -0.1886  0.1820
  879MOL0     N18581  -0.475   3.045   1.721  0.3550  0.7873 -0.3208
  879MOL0     C18582   0.414   2.712   2.073 -0.1983  0.0142  0.3003
  879MOL0     C18583   0.545   2.682   2.014  0.4000  0.6323 -0.2845
  879MOL0     C18584   1.009   2.639   1.984 -0.3870 -1.4679  0.1474
  879MOL0     C18585   0.980   2.711   1.860  0.4978  0.9760 -0.1429
  879MOL0     C18586   1.073   2.719   1.759 -0.8216  0.9959 -0.1464
  879MOL0     C18587   1.206   2.680   1.776 -0.7609 -0.7243 -0.0249
  879MOL0     O18588   1.307   2.689   1.691  0.5319  0.7327  0.6200
  879MOL0     C18589   1.294   2.706   1.545  1.3842 -1.2885  0.8158
  879MOL0     C18590   1.305   2.852   1.500 -0.5462  0.4050  0.4190
  879MOL0     C18591   1.460   2.880   1.524  0.5978 -0.8442  0.1361
  879MOL0     C18592   1.469   3.024   1.471  0.4615  0.6168  0.6799
  879MOL0     C18593   1.399   3.120   1.561  0.2101  0.0356  0.2694
  879MOL0     C18594   1.310   3.184   1.621 -0.3936  0.0984 -0.2790
  879MOL0     C18595   1.232   2.622   1.902  0.7825  0.0409  0.7186
  879MOL0     C18596   1.138   2.598   1.996  0.9329 -0.1220 -0.0277
  879MOL0     C18597   1.184   2.518   2.125 -0.0438 -0.0426 -0.6458
  879MOL0     H18598   0.730   2.698   2.293  1.5967  0.8565 -3.1022
  879MOL0     H18599   0.516   2.781   2.389  0.2869 -0.1111  0.4636
  879MOL0     H18600   0.279   2.586   2.324  2.1960  1.9045 -2.0379
  879MOL0     H18601   0.172   2.703   2.410  0.4506  1.5765 -0.1034
  879MOL0     H18602   0.032   2.537   2.289 -0.1831 -0.7077 -2.2741
  879MOL0     H18603   0.089   2.582   2.140 -3.6553 -1.5370 -0.0779
  879MOL0     H18604   0.030   2.843   2.217 -0.1414  0.2287  1.3775
  879MOL0     H18605  -0.056   2.774   2.353 -1.6236 -1.4416 -0.2295
  879MOL0     H18606  -0.122   2.689   2.075 -1.4913 -1.0915 -0.0681
  879MOL0     H18607  -0.215   2.653   2.222 -0.3199 -0.1237 -0.9489
  879MOL0     H18608  -0.326   2.825   2.093  0.7519  4.3131 -2.3254
  879MOL0     H18609  -0.266   2.887   2.241 -0.5975  1.5027 -0.6382
  879MOL0     H18610  -0.131   3.031   2.146 -1.1214 -0.0097  0.7993
  879MOL0     H18611  -0.064   2.927   2.021  1.0205  2.4977  0.5026
  879MOL0     H18612  -0.206   3.124   1.910  2.5812 -2.7886 -4.6658
  879MOL0     H18613  -0.329   3.080   2.028  2.2561  0.1267  2.2857
  879MOL0     H18614  -0.200   2.899   1.799 -0.1503 -0.5758 -0.0305
  879MOL0     H18615  -0.352   2.865   1.865 -2.1800  2.1400 -1.7771
  879MOL0     H18616  -0.174   3.051   1.585 -0.7068 -0.4880 -2.8721
  879MOL0     H18617  -0.247   3.226   1.392 -0.1279 -0.3496 -0.7820
  879MOL0     H18618  -0.375   3.120   1.328 -0.3625  0.1213 -0.2785
  879MOL0     H18619  -0.540   3.279   1.378 -0.5198  2.7007 -3.2657
  879MOL0     H18620  -0.427   3.387   1.476  2.8627 -0.4709  1.2039
  879MOL0     H18621  -0.518   3.422   1.225  0.1343  3.0590  1.2427
  879MOL0     H18622  -0.399   3.303   1.179 -0.2690 -2.2938  2.5586
  879MOL0     H18623  -0.316   3.550   1.346  2.2656 -0.8015  0.8430
  879MOL0     H18624  -0.340   3.555   1.172 -0.8941  2.4500  2.2335
  879MOL0     H18625  -0.195   3.706   1.193  0.9675  3.0656  0.7613
  879MOL0     H18626   0.003   3.833   1.102 -0.9295 -0.0700 -0.6591
  879MOL0     H18627   0.538   3.845   1.055  0.3198 -0.4138 -0.2787
  879MOL0     H18628   0.700   3.931   0.871 -1.2478  0.5233 -3.1425
  879MOL0     H18629   0.757   3.638   0.618  1.1057 -0.8410 -1.6617
  879MOL0     H18630   0.809   3.743   0.486  2.3989  0.1349  0.3409
  879MOL0     H18631   0.916   3.708   0.770  0.4008 -2.2278 -0.5775
  879MOL0     H18632   0.997   3.652   0.615 -2.3188 -1.6513 -1.4112
  879MOL0     H18633   1.126   3.832   0.657  0.2952  1.2942  2.2364
  879MOL0     H18634   1.003   3.908   0.560 -2.0745  0.3330  0.3763
  879MOL0     H18635   1.056   3.924   0.859  0.0854 -0.0746  0.0893
  879MOL0     H18636   0.895   3.965   0.795 -0.5270 -0.3582 -3.0726
  879MOL0     H18637   1.020   4.165   0.834 -2.4455 -3.2273  0.8325
  879MOL0     H18638   0.984   4.146   0.666 -1.9888  0.3695  1.6974
  879MOL0     H18639   1.241   4.058   0.779  2.0217  0.5527 -1.2969
  879MOL0     H18640   1.207   4.073   0.606  0.2297 -0.7372 -0.1725
  879MOL0     H18641   1.345   4.250   0.757  0.8911 -0.6022 -2.4715
  879MOL0     H18642   1.189   4.318   0.787  1.9269  1.7599  0.9141
  879MOL0     H18643   1.316   4.409   0.587 -0.0509  0.9535 -3.3960
  879MOL0     H18644   1.279   4.259   0.504 -0.0060  0.7017 -0.1103
  879MOL0     H18645   0.490   3.672   0.598 -1.3000  1.0804  0.0214
  879MOL0     H18646   0.349   3.612   0.755  1.6199 -1.1963 -0.9484
  879MOL0     H18647   0.244   3.479   1.122  0.8337  0.0924  0.4863
  879MOL0     H18648   0.059   3.348   1.197 -1.3498 -0.6095 -1.2546
  879MOL0     H18649   0.320   2.707   2.018 -0.2689  0.8352  0.3372
  879MOL0     H18650   0.549   2.663   1.907 -0.5298 -1.8027  0.0412
  879MOL0     H18651   0.883   2.754   1.835 -0.4007 -1.4724 -1.2016
  879MOL0     H18652   1.034   2.757   1.665 -0.7685  3.0127  0.5949
  879MOL0     H18653   1.195   2.680   1.505  0.0414  4.0573 -0.0664
  879MOL0     H18654   1.366   2.651   1.484 -0.6610 -0.9473 -2.1337
  879MOL0     H18655   1.246   2.909   1.573 -0.6139 -1.8936  2.3058
  879MOL0     H18656   1.273   2.873   1.398 -2.1707 -3.3492 -0.0234
  879MOL0     H18657   1.520   2.818   1.458 -0.1763 -1.2081 -0.2427
  879MOL0     H18658   1.481   2.872   1.631  0.9803  0.0310  0.1403
  879MOL0     H18659   1.575   3.050   1.480  0.6159  0.3721 -0.2935
  879MOL0     H18660   1.452   3.036   1.364 -0.6531  1.7951  0.9627
  879MOL0     H18661   1.226   3.242   1.656 -0.5598  0.0432 -0.5882
  879MOL0     H18662   1.334   2.587   1.917  0.9429  1.0732  2.3411
  879MOL0     H18663   1.102   2.457   2.163 -2.1519  2.5036 -0.8376
  879MOL0     H18664   1.268   2.456   2.091 -0.1876  1.5031 -4.3591
  879MOL0     H18665   1.217   2.580   2.208  0.4969 -1.4806  0.2523
  880MOL0     O18666   6.944   9.248   8.565 -0.1165 -0.1702 -0.7668
  880MOL0     C18667   6.845   9.318   8.567 -1.0551 -0.3216 -0.1961
  880MOL0     O18668   6.846   9.441   8.639  0.5057 -0.7805 -0.1418
  880MOL0     C18669   6.955   9.492   8.704 -0.8867  0.7666  0.2146
  880MOL0     C18670   7.089   9.473   8.663  0.3248  0.0109  0.7148
  880MOL0     C18671   7.191   9.523   8.737  0.5684 -0.6406 -0.3150
  880MOL0     C18672   7.166   9.614   8.838  0.5563 -0.8125  0.5001
  880MOL0     O18673   7.271   9.687   8.888  0.4307 -0.5376 -0.1828
  880MOL0     C18674   7.243   9.766   9.011 -1.2424 -0.6102  0.2485
  880MOL0     C18675   7.379   9.809   9.074  0.0594  0.2346  0.0622
  880MOL0     C18676   7.468   9.885   8.979 -1.0247 -0.5825 -0.4177
  880MOL0     C18677   7.538   9.996   9.051 -0.3071  0.6298  0.2851
  880MOL0     C18678   7.650   9.954   9.144 -0.3523  0.3135 -0.2001
  880MOL0     C18679   7.782   9.908   9.063  0.1097  0.4935  0.1844
  880MOL0     C18680   7.867   9.823   9.162  0.0922  1.2624 -0.6243
  880MOL0     C18681   8.014   9.854   9.165  0.3357 -0.1821  0.4094
  880MOL0     N18682   8.025   9.990   9.217  0.5347  0.0501  0.1780
  880MOL0     C18683   8.016  10.028   9.349  0.0187  0.5429  0.1729
  880MOL0     C18684   8.024  10.162   9.336 -0.4389  0.2684  0.1151
  880MOL0     C18685   8.013  10.277   9.441  0.1305  0.1751  0.6728
  880MOL0     C18686   7.882  10.356   9.445 -0.3251 -0.4449  0.0199
  880MOL0     C18687   7.767  10.285   9.513 -0.7636  0.1100 -0.1537
  880MOL0     C18688   7.627  10.352   9.490  0.1238 -0.5621 -0.8693
  880MOL0     O18689   7.522  10.257   9.525  0.5075  0.6957 -0.2839
  880MOL0     C18690   7.394  10.303   9.501  0.3075  0.3078  0.5836
  880MOL0     C18691   7.305  10.211   9.432 -0.4767  0.4292  0.3913
  880MOL0     C18692   7.176  10.254   9.404 -0.7776  0.4838  0.1249
  880MOL0     C18693   7.121  10.374   9.457  0.0745 -0.3758 -0.0335
  880MOL0     C18694   6.977  10.403   9.448  0.1369 -0.0267  1.0582
  880MOL0     O18695   6.937  10.535   9.461  1.0048  0.7874  0.3686
  880MOL0     C18696   6.805  10.569   9.461 -0.4178  0.4515 -0.1931
  880MOL0     C18697   6.702  10.490   9.504  0.4594 -0.4313 -0.5123
  880MOL0     C18698   6.575  10.536   9.502  0.2660 -0.1562  0.0705
  880MOL0     C18699   6.540  10.663   9.441  0.0681 -0.5489  0.7116
  880MOL0     O18700   6.414  10.723   9.430 -0.4841 -0.0241  0.2747
  880MOL0     C18701   6.304  10.659   9.505 -0.5507  0.0946  0.1074
  880MOL0     C18702   6.202  10.772   9.546 -0.0606  0.1542  0.4492
  880MOL0     C18703   6.269  10.874   9.645  0.8897  0.4934  0.9705
  880MOL0     C18704   6.269  10.809   9.786 -0.5239  0.6125  1.4121
  880MOL0     C18705   6.292  10.919   9.891 -0.3880  0.7855  0.2587
  880MOL0     C18706   6.297  10.876  10.036  1.6600 -0.7031  0.4055
  880MOL0     C18707   6.417  10.786  10.068 -0.1052 -1.3199 -0.2895
  880MOL0     C18708   6.412  10.709  10.206 -0.1850 -0.3700  0.1442
  880MOL0    Cl18709   6.378  10.823  10.338  0.5671  0.3442 -0.4332
  880MOL0     C18710   6.644  10.752   9.408  0.1448 -0.3370 -0.0324
  880MOL0     C18711   6.767  10.699   9.417  0.0835 -0.2480 -0.0163
  880MOL0     O18712   6.905  10.309   9.407 -0.8310 -0.9698  0.0151
  880MOL0     C18713   7.211  10.458   9.521 -0.1763 -0.5410  0.1282
  880MOL0     C18714   7.349  10.427   9.535  0.2012  0.9526 -0.6369
  880MOL0     N18715   8.023  10.194   9.201  0.0225 -0.3016 -0.7387
  880MOL0     N18716   8.034  10.093   9.128  0.1077 -0.0549  0.1359
  880MOL0     C18717   7.031   9.635   8.876  0.4144 -0.6356 -0.1162
  880MOL0     C18718   6.933   9.576   8.808  1.0530 -0.1181 -0.1156
  880MOL0     C18719   6.722   9.291   8.492  0.1712 -0.2438  0.5874
  880MOL0     C18720   6.616   9.386   8.503 -0.7537 -0.5262  0.3441
  880MOL0     C18721   6.497   9.375   8.435 -0.5033  0.8898 -0.7267
  880MOL0     C18722   6.471   9.253   8.366  1.1317 -0.7650  0.1749
  880MOL0     O18723   6.347   9.233   8.314  0.4319  0.2517  0.6334
  880MOL0     C18724   6.231   9.308   8.367  0.5020 -0.6287 -0.1684
  880MOL0     C18725   6.099   9.289   8.287  0.4811  0.4841  1.0275
  880MOL0     C18726   6.060   9.146   8.281  0.4678  0.6360 -0.2361
  880MOL0     C18727   6.010   9.086   8.404 -0.0113  0.4963  0.5752
  880MOL0     C18728   5.881   9.151   8.422  0.3566  0.5455 -0.8852
  880MOL0     C18729   5.771   9.190   8.439  0.8601 -0.5677  0.0783
  880MOL0     C18730   6.579   9.166   8.347  0.6216  0.4257  0.3683
  880MOL0     C18731   6.703   9.181   8.406 -0.4222 -0.0753 -0.4062
  880MOL0     C18732   6.812   9.082   8.376  0.8244 -0.8901 -0.2715
  880MOL0     H18733   7.105   9.412   8.575 -0.5704  1.2044 -0.3193
  880MOL0     H18734   7.294   9.512   8.704  1.2322 -0.8625  1.7205
  880MOL0     H18735   7.187   9.858   8.995  0.4410  0.4368  0.1163
  880MOL0     H18736   7.188   9.708   9.085 -0.3380 -1.3379  0.3755
  880MOL0     H18737   7.439   9.722   9.103 -1.2653 -0.9773 -0.6687
  880MOL0     H18738   7.347   9.858   9.166 -1.1038  1.2396 -0.8562
  880MOL0     H18739   7.413   9.944   8.905 -0.6408  0.2701 -0.0443
  880MOL0     H18740   7.535   9.813   8.931 -2.0516 -1.0337 -1.1935
  880MOL0     H18741   7.597  10.046   8.974  1.1633 -0.0204  0.9450
  880MOL0     H18742   7.481  10.075   9.101  1.9553  1.5134  1.6227
  880MOL0     H18743   7.681  10.043   9.199  1.0898  0.6218 -1.4419
  880MOL0     H18744   7.617   9.882   9.219  1.1767  0.9400  1.1089
  880MOL0     H18745   7.760   9.844   8.977 -1.3688  1.5039 -0.2232
  880MOL0     H18746   7.831   9.990   9.010 -2.9128  0.1709 -3.4952
  880MOL0     H18747   7.858   9.715   9.151 -2.9280  1.5430 -1.7771
  880MOL0     H18748   7.830   9.842   9.263  0.1499  0.0611 -0.3634
  880MOL0     H18749   8.074   9.777   9.215  0.7502 -2.3275 -3.0692
  880MOL0     H18750   8.044   9.861   9.060 -1.2941  0.9745  0.0035
  880MOL0     H18751   7.986   9.969   9.435 -0.1915 -2.0383 -1.5383
  880MOL0     H18752   8.031  10.227   9.537  1.1954 -3.4874 -1.2220
  880MOL0     H18753   8.096  10.344   9.420  0.8643 -1.3398 -1.7329
  880MOL0     H18754   7.906  10.442   9.510  1.0166  0.0512 -1.0819
  880MOL0     H18755   7.863  10.405   9.349 -0.4212 -1.0334 -0.2630
  880MOL0     H18756   7.798  10.283   9.618  0.4337 -0.2091 -0.4936
  880MOL0     H18757   7.760  10.188   9.461  5.8320  0.0425 -1.8143
  880MOL0     H18758   7.621  10.395   9.390 -1.3880  2.3052  0.3375
  880MOL0     H18759   7.625  10.435   9.562 -0.9504  0.0337 -1.5597
  880MOL0     H18760   7.337  10.114   9.395 -0.9610 -0.2655  1.7406
  880MOL0     H18761   7.117  10.186   9.343 -3.0827  2.1638  0.3213
  880MOL0     H18762   6.713  10.386   9.532  0.8657 -1.3489 -3.6712
  880MOL0     H18763   6.488  10.481   9.535 -1.6738  3.2207  1.1096
  880MOL0     H18764   6.243  10.589   9.445  1.1219  0.2637 -1.9284
  880MOL0     H18765   6.341  10.618   9.599 -0.5359 -0.0505  0.0386
  880MOL0     H18766   6.179  10.815   9.449  0.9365  0.8834  0.5165
  880MOL0     H18767   6.102  10.744   9.578  0.5850 -3.4379 -0.2320
  880MOL0     H18768   6.369  10.913   9.621  1.2307 -0.7955  0.2247
  880MOL0     H18769   6.203  10.962   9.644 -0.5961 -0.5087 -1.9917
  880MOL0     H18770   6.339  10.724   9.781 -0.4633  0.7414 -0.2403
  880MOL0     H18771   6.174  10.761   9.813  1.0811 -2.5163  2.0343
  880MOL0     H18772   6.197  10.972   9.878 -1.6841 -1.7745 -1.5762
  880MOL0     H18773   6.375  10.985   9.867  1.5648 -0.4445  3.0597
  880MOL0     H18774   6.317  10.973  10.082  0.0849  0.0450 -0.4300
  880MOL0     H18775   6.201  10.829  10.058  0.3377  0.1914 -2.9381
  880MOL0     H18776   6.501  10.854  10.084 -0.1567 -1.6064  1.3216
  880MOL0     H18777   6.434  10.722   9.981  1.4819 -0.6586 -0.4923
  880MOL0     H18778   6.345  10.623  10.209 -1.9473  0.9621  1.8727
  880MOL0     H18779   6.515  10.672  10.207  0.4371  0.8045 -3.7304
  880MOL0     H18780   6.644  10.850   9.363  2.2616 -1.2529 -2.2721
  880MOL0     H18781   6.853  10.762   9.398 -1.2317  1.9132  0.7263
  880MOL0     H18782   7.178  10.553   9.563 -0.7433  0.2791 -2.0591
  880MOL0     H18783   7.409  10.496   9.594 -3.0529  2.7748  0.8435
  880MOL0     H18784   7.002   9.700   8.958 -3.1738 -0.5904 -1.2700
  880MOL0     H18785   6.831   9.601   8.836  1.7249  2.4364  0.3314
  880MOL0     H18786   6.631   9.467   8.574  2.9276  1.5454 -2.4769
  880MOL0     H18787   6.433   9.461   8.447 -1.0013  0.2261  2.2121
  880MOL0     H18788   6.251   9.415   8.355  4.5605 -1.1119  0.6830
  880MOL0     H18789   6.219   9.290   8.475 -0.9860  0.6297 -0.1027
  880MOL0     H18790   6.116   9.311   8.181 -1.1200 -1.5923  0.2538
  880MOL0     H18791   6.019   9.343   8.337 -1.1071 -1.0950  0.2767
  880MOL0     H18792   6.148   9.095   8.241 -2.6582 -3.6485 -2.3995
  880MOL0     H18793   5.994   9.117   8.199 -0.8596 -2.5910  1.7692
  880MOL0     H18794   5.997   8.978   8.406  1.3425  0.2405 -1.4549
  880MOL0     H18795   6.066   9.122   8.491  4.0225  1.7838 -2.2343
  880MOL0     H18796   5.678   9.242   8.448  0.4122 -1.6578  2.8099
  880MOL0     H18797   6.559   9.096   8.267 -0.6764  0.6397  0.4695
  880MOL0     H18798   6.853   9.050   8.472  0.1856 -1.8786 -0.3081
  880MOL0     H18799   6.781   8.992   8.321  1.5081 -0.4548 -1.4196
  880MOL0     H18800   6.880   9.135   8.309 -0.4122 -1.5685 -2.1517
  881MOL0     O18801   6.387   6.593   5.841  0.6707 -0.3775 -0.5287
  881MOL0     C18802   6.274   6.547   5.849 -0.1355  0.2937 -0.3698
  881MOL0     O18803   6.206   6.529   5.971  0.8228 -0.3260  0.3418
  881MOL0     C18804   6.276   6.562   6.083 -0.2981 -0.6533 -0.0834
  881MOL0     C18805   6.268   6.691   6.144 -0.9577 -0.4608 -0.0533
  881MOL0     C18806   6.316   6.713   6.278 -0.6288  0.5965 -0.0278
  881MOL0     C18807   6.374   6.609   6.347  1.3187  0.8597  0.4733
  881MOL0     O18808   6.413   6.629   6.478  0.2695 -0.2611  0.7537
  881MOL0     C18809   6.539   6.584   6.520 -0.4545 -1.3286  0.0826
  881MOL0     C18810   6.634   6.696   6.573 -0.0751 -0.7649  0.5033
  881MOL0     C18811   6.765   6.635   6.627 -0.5636 -0.0902 -0.2954
  881MOL0     C18812   6.853   6.590   6.509 -0.5383 -0.5084 -1.0477
  881MOL0     C18813   6.988   6.530   6.555  0.1421  0.2120 -0.1028
  881MOL0     C18814   7.062   6.470   6.437 -0.5443 -0.2710  0.0519
  881MOL0     C18815   7.067   6.554   6.309  0.6280 -0.5855  0.4021
  881MOL0     C18816   7.164   6.479   6.213  0.6289  0.1783  0.0840
  881MOL0     N18817   7.191   6.548   6.084  0.5658  0.7692 -0.9081
  881MOL0     C18818   7.130   6.662   6.042  0.1164 -0.1813 -0.1041
  881MOL0     C18819   7.209   6.706   5.940 -0.6501  0.1594 -0.4897
  881MOL0     C18820   7.193   6.839   5.870 -0.0420 -0.1342 -0.1817
  881MOL0     C18821   7.112   6.815   5.733  0.0620 -1.1502 -0.3433
  881MOL0     C18822   6.959   6.811   5.758 -0.6288 -0.3309 -0.1066
  881MOL0     C18823   6.868   6.831   5.637 -0.9059 -0.4077 -0.7160
  881MOL0     O18824   6.735   6.826   5.666  0.7987  0.1664  0.2538
  881MOL0     C18825   6.679   6.913   5.759  0.4818 -0.3258  0.7758
  881MOL0     C18826   6.717   7.049   5.775  0.3709  0.1239 -0.8271
  881MOL0     C18827   6.684   7.125   5.893  0.6936  0.7165  0.5198
  881MOL0     C18828   6.612   7.054   5.992  0.1949  1.3848 -0.1392
  881MOL0     C18829   6.587   7.112   6.130  0.5524  0.7470 -0.1340
  881MOL0     O18830   6.481   7.051   6.204 -0.1992  0.0512  0.5816
  881MOL0     C18831   6.456   7.104   6.327 -0.5100 -0.9280 -0.6843
  881MOL0     C18832   6.471   7.026   6.441 -0.9806  0.3955 -0.8305
  881MOL0     C18833   6.473   7.082   6.568 -0.0348 -1.0687  0.0192
  881MOL0     C18834   6.457   7.216   6.588  0.3685 -0.0060  0.6352
  881MOL0     O18835   6.461   7.280   6.708 -0.5997 -0.0372 -0.4281
  881MOL0     C18836   6.540   7.222   6.812 -0.1944  0.1451 -0.1550
  881MOL0     C18837   6.527   7.305   6.942 -0.6444 -0.9259 -0.5015
  881MOL0     C18838   6.644   7.280   7.043 -0.3906 -0.7030 -0.0022
  881MOL0     C18839   6.610   7.343   7.180 -0.0647 -0.5852  0.0789
  881MOL0     C18840   6.738   7.325   7.273  0.5804 -0.1334  0.1103
  881MOL0     C18841   6.862   7.405   7.235  0.5934 -0.1073 -0.5321
  881MOL0     C18842   6.952   7.411   7.362 -0.0970  0.0625  0.0677
  881MOL0     C18843   7.103   7.416   7.324  0.2561  0.8517  0.5584
  881MOL0    Cl18844   7.176   7.256   7.301  0.2787  0.1767 -0.4756
  881MOL0     C18845   6.428   7.290   6.477  0.7121 -0.3188  1.4388
  881MOL0     C18846   6.426   7.238   6.344 -0.5797  0.2778  0.0784
  881MOL0     O18847   6.647   7.213   6.159  0.3463 -0.1779  0.3351
  881MOL0     C18848   6.567   6.927   5.968  0.6871 -0.0663 -0.3132
  881MOL0     C18849   6.592   6.862   5.851  0.3041  0.3790 -0.0567
  881MOL0     N18850   7.311   6.608   5.921 -0.2859 -0.7191 -0.1808
  881MOL0     N18851   7.293   6.510   6.006  0.1427 -0.4661 -0.0111
  881MOL0     C18852   6.382   6.482   6.286  0.2643  0.3677 -0.5002
  881MOL0     C18853   6.336   6.453   6.160  0.2863 -0.6850 -0.2082
  881MOL0     C18854   6.210   6.498   5.724 -0.4592  0.3447 -0.5430
  881MOL0     C18855   6.094   6.416   5.742 -0.6296 -0.7299 -0.7918
  881MOL0     C18856   6.019   6.390   5.636  0.5457  0.5758  0.2545
  881MOL0     C18857   6.041   6.436   5.505 -1.6990 -0.1774  0.4610
  881MOL0     O18858   5.959   6.413   5.394  0.8572 -0.2708 -0.0856
  881MOL0     C18859   5.822   6.397   5.434  0.6647 -0.6046 -0.4858
  881MOL0     C18860   5.724   6.433   5.322  0.6840  0.8977  0.4509
  881MOL0     C18861   5.714   6.322   5.221  0.4704 -0.0940  0.0803
  881MOL0     C18862   5.821   6.333   5.105 -0.6906  0.2999 -0.6671
  881MOL0     C18863   5.804   6.442   5.015  0.1476 -0.9562  0.5473
  881MOL0     C18864   5.810   6.526   4.921 -0.7254  0.2459  0.1997
  881MOL0     C18865   6.164   6.508   5.486  0.1299 -0.1730 -1.1493
  881MOL0     C18866   6.247   6.547   5.592 -0.3872  0.0623  0.2388
  881MOL0     C18867   6.360   6.639   5.558 -0.4826  0.4935  0.5198
  881MOL0     H18868   6.231   6.774   6.084  0.8438 -0.9542 -1.9689
  881MOL0     H18869   6.306   6.810   6.325 -2.5971  1.1596 -1.5026
  881MOL0     H18870   6.516   6.506   6.594 -2.0576 -0.6771  0.2947
  881MOL0     H18871   6.596   6.542   6.437  0.8002 -0.4394  0.4621
  881MOL0     H18872   6.584   6.752   6.652 -1.7660 -1.7406  0.1916
  881MOL0     H18873   6.658   6.771   6.497  2.7900  1.4597  3.3197
  881MOL0     H18874   6.751   6.550   6.693  0.5638 -0.0666 -0.0028
  881MOL0     H18875   6.812   6.712   6.689  1.2469 -1.0117 -0.4680
  881MOL0     H18876   6.794   6.518   6.452 -2.6134  1.6233 -1.7357
  881MOL0     H18877   6.863   6.660   6.426 -0.2014  0.2753 -0.3519
  881MOL0     H18878   7.039   6.612   6.607 -0.6561  0.1502  0.8091
  881MOL0     H18879   6.982   6.446   6.625 -0.6726 -1.6571 -2.2999
  881MOL0     H18880   7.160   6.444   6.476 -0.4060  0.8030  0.4606
  881MOL0     H18881   7.014   6.376   6.409 -0.6323 -0.3361  0.4134
  881MOL0     H18882   7.095   6.657   6.333 -0.9975  0.1610 -0.6777
  881MOL0     H18883   6.976   6.552   6.247 -0.6488  1.9864  2.0097
  881MOL0     H18884   7.265   6.461   6.253  0.4889 -0.4474  0.1639
  881MOL0     H18885   7.128   6.379   6.187  2.5200 -0.7532  0.8502
  881MOL0     H18886   7.038   6.703   6.083 -1.0142 -3.8670  1.4669
  881MOL0     H18887   7.140   6.917   5.927 -2.6672 -1.2396 -0.9587
  881MOL0     H18888   7.294   6.876   5.852  1.0342 -2.3788  0.8935
  881MOL0     H18889   7.131   6.895   5.661 -0.8963  0.7271  1.3899
  881MOL0     H18890   7.153   6.725   5.688  3.3094  0.2951 -0.5297
  881MOL0     H18891   6.939   6.878   5.842  0.9708 -2.3153  1.9771
  881MOL0     H18892   6.943   6.713   5.802  0.2846 -1.1310 -1.4821
  881MOL0     H18893   6.893   6.758   5.559  5.6617 -2.6375  2.6691
  881MOL0     H18894   6.881   6.930   5.593 -0.4615  0.3679  1.0648
  881MOL0     H18895   6.771   7.121   5.715 -3.9619  4.8465  0.2910
  881MOL0     H18896   6.700   7.232   5.905 -0.0597  0.7130  1.6713
  881MOL0     H18897   6.499   6.923   6.416  0.3712  0.4018  0.5331
  881MOL0     H18898   6.487   7.018   6.655 -0.3728  0.2192  1.0594
  881MOL0     H18899   6.505   7.122   6.842 -2.6572  0.9389 -0.1466
  881MOL0     H18900   6.642   7.212   6.773 -0.4458  1.1483 -1.1153
  881MOL0     H18901   6.539   7.414   6.935  4.7357 -0.7959  3.5031
  881MOL0     H18902   6.432   7.287   6.992 -1.4061  1.1971 -1.0825
  881MOL0     H18903   6.671   7.174   7.052 -0.9620 -1.1825 -3.0808
  881MOL0     H18904   6.736   7.331   7.012 -2.6311  4.9875  1.4968
  881MOL0     H18905   6.522   7.296   7.225 -0.2056 -1.0367 -0.6542
  881MOL0     H18906   6.591   7.451   7.170  3.0443  0.3405  2.5037
  881MOL0     H18907   6.752   7.217   7.275 -1.5010 -0.4708 -0.9731
  881MOL0     H18908   6.708   7.364   7.371  1.6742 -0.7548  0.7010
  881MOL0     H18909   6.903   7.374   7.139  0.7519  3.1375 -1.6305
  881MOL0     H18910   6.828   7.508   7.219  1.8868  0.3429 -0.5449
  881MOL0     H18911   6.941   7.321   7.423  0.5323  1.4733  2.3594
  881MOL0     H18912   6.930   7.499   7.422  2.0002  1.1576 -0.6555
  881MOL0     H18913   7.113   7.471   7.230  1.2148 -0.7146 -0.3057
  881MOL0     H18914   7.151   7.471   7.406  0.0911  2.1436 -0.1958
  881MOL0     H18915   6.400   7.394   6.494 -0.5582 -0.6443  1.4032
  881MOL0     H18916   6.411   7.299   6.255  1.3411  0.4901 -0.1406
  881MOL0     H18917   6.500   6.887   6.043 -0.0465 -0.6943 -1.2727
  881MOL0     H18918   6.558   6.759   5.846 -1.6802  0.8949  1.5568
  881MOL0     H18919   6.421   6.405   6.352  1.4320  1.9891  0.7868
  881MOL0     H18920   6.349   6.355   6.116 -0.2312 -0.2327 -1.4077
  881MOL0     H18921   6.059   6.395   5.843  1.2961  0.1461  0.1010
  881MOL0     H18922   5.930   6.334   5.662  0.8254 -1.1734 -2.2272
  881MOL0     H18923   5.802   6.459   5.521 -0.7200  0.3663 -1.4489
  881MOL0     H18924   5.798   6.294   5.463 -1.4137 -1.0040 -3.2404
  881MOL0     H18925   5.758   6.526   5.275 -0.4900 -0.1724 -2.7354
  881MOL0     H18926   5.625   6.450   5.367  2.1566 -1.7394  5.5054
  881MOL0     H18927   5.612   6.320   5.183  1.2348  0.1257 -2.1245
  881MOL0     H18928   5.729   6.229   5.278  3.8927  1.7246  2.5126
  881MOL0     H18929   5.926   6.327   5.133 -1.0324 -0.5358  0.5109
  881MOL0     H18930   5.793   6.240   5.055 -1.9468  0.7560 -0.8750
  881MOL0     H18931   5.836   6.604   4.853 -2.0745 -1.7385 -2.7773
  881MOL0     H18932   6.187   6.554   5.391  0.2042  3.4011  0.4636
  881MOL0     H18933   6.463   6.602   5.564  0.3024  2.6998  2.3210
  881MOL0     H18934   6.344   6.684   5.460 -0.4001  0.6807  0.5920
  881MOL0     H18935   6.362   6.718   5.634 -0.1796  3.2294 -2.1201
  882MOL0     O18936   8.759   5.104   0.804  0.3169 -0.4098  0.0042
  882MOL0     C18937   8.694   5.144   0.715  0.3862 -0.4195  0.7763
  882MOL0     O18938   8.560   5.133   0.704 -0.0482  0.5339 -0.2596
  882MOL0     C18939   8.499   5.100   0.822 -0.7368  0.3158  0.2813
  882MOL0     C18940   8.484   5.200   0.910 -0.1527  0.3158 -0.4238
  882MOL0     C18941   8.429   5.172   1.034  0.0177 -1.4347 -0.5220
  882MOL0     C18942   8.405   5.035   1.066  0.6623 -0.6339  0.3209
  882MOL0     O18943   8.346   5.006   1.183  0.1986 -0.2762 -0.6471
  882MOL0     C18944   8.433   5.020   1.298  0.0548  0.4288  1.0576
  882MOL0     C18945   8.350   4.991   1.414  0.2045 -0.0292 -0.2715
  882MOL0     C18946   8.427   4.990   1.548 -0.6143 -0.7067 -0.1849
  882MOL0     C18947   8.385   4.882   1.651 -0.7515  0.3314 -0.2800
  882MOL0     C18948   8.409   4.737   1.613  0.0991 -0.1142 -0.6486
  882MOL0     C18949   8.281   4.650   1.637  1.2020  0.1023  0.1820
  882MOL0     C18950   8.309   4.498   1.606  0.6254 -1.0050  0.3878
  882MOL0     C18951   8.180   4.411   1.581 -0.2717 -1.2480  0.8522
  882MOL0     N18952   8.106   4.394   1.705 -0.1697  0.3986 -0.2613
  882MOL0     C18953   8.106   4.282   1.794 -0.1167  0.0913 -0.3112
  882MOL0     C18954   8.024   4.330   1.896  0.0855 -0.0053 -1.1956
  882MOL0     C18955   7.997   4.256   2.024  0.9356  0.3718 -0.4405
  882MOL0     C18956   7.857   4.191   2.048 -0.2484 -1.1605  0.4825
  882MOL0     C18957   7.849   4.074   2.149 -0.3869 -0.0932  0.0689
  882MOL0     C18958   7.864   4.123   2.291 -0.2709 -0.0956  0.3095
  882MOL0     O18959   7.889   4.011   2.380 -0.1998  0.0039  0.2264
  882MOL0     C18960   8.026   3.971   2.388  1.1191  0.5886 -1.0572
  882MOL0     C18961   8.040   3.839   2.449 -0.0235 -0.0441 -0.2469
  882MOL0     C18962   8.160   3.764   2.444 -0.4182 -1.2190  0.4385
  882MOL0     C18963   8.272   3.829   2.388  0.1880  0.3658 -0.5437
  882MOL0     C18964   8.399   3.751   2.376  0.6208 -0.3307 -0.9488
  882MOL0     O18965   8.495   3.806   2.286 -0.0646 -0.5205 -0.3940
  882MOL0     C18966   8.605   3.722   2.255  0.1525  0.1721  0.2607
  882MOL0     C18967   8.609   3.581   2.242 -0.0656 -0.3651  0.3421
  882MOL0     C18968   8.725   3.512   2.226 -0.1944  0.6688  0.2069
  882MOL0     C18969   8.845   3.575   2.218 -0.1120 -0.8805  0.4090
  882MOL0     O18970   8.944   3.489   2.193 -0.2954 -0.4306 -0.4525
  882MOL0     C18971   9.070   3.563   2.192 -0.3111  1.1374  1.0625
  882MOL0     C18972   9.180   3.477   2.146  0.7643 -0.1556  1.1177
  882MOL0     C18973   9.325   3.542   2.111  0.2726  0.7310  0.7873
  882MOL0     C18974   9.368   3.625   2.225 -0.0103  0.0232  0.3065
  882MOL0     C18975   9.502   3.688   2.184  0.4057  0.3351 -0.2020
  882MOL0     C18976   9.570   3.736   2.317  0.1183 -0.4119 -0.2176
  882MOL0     C18977   9.605   3.638   2.433 -0.3506  0.2474 -0.3047
  882MOL0     C18978   9.705   3.695   2.520  0.3566  0.1337  0.1842
  882MOL0    Cl18979   9.637   3.845   2.590  0.2478  0.0523  0.2077
  882MOL0     C18980   8.837   3.717   2.215  0.7304  0.4778  0.4123
  882MOL0     C18981   8.721   3.788   2.225 -0.0675 -0.5299 -0.1114
  882MOL0     O18982   8.410   3.654   2.452  0.3651 -0.3087  1.0368
  882MOL0     C18983   8.256   3.952   2.330 -0.3286  0.1927  0.1907
  882MOL0     C18984   8.142   4.027   2.332 -0.0446 -0.2678 -0.2441
  882MOL0     N18985   7.977   4.456   1.863 -0.3752  0.0986  0.0091
  882MOL0     N18986   8.034   4.500   1.755  0.4091  0.1491  0.2044
  882MOL0     C18987   8.426   4.935   0.979 -0.2493 -0.0445 -0.2006
  882MOL0     C18988   8.477   4.967   0.855  0.9308  0.1415 -0.0418
  882MOL0     C18989   8.759   5.207   0.593  0.2994 -0.2528  0.0513
  882MOL0     C18990   8.671   5.271   0.505  0.9272  0.2840 -0.1903
  882MOL0     C18991   8.727   5.319   0.382  0.0223  0.1310  0.0302
  882MOL0     C18992   8.865   5.311   0.356  0.3209  0.1073  0.2213
  882MOL0     O18993   8.920   5.382   0.248  0.5528 -0.3143 -1.0269
  882MOL0     C18994   9.061   5.385   0.235  0.0743 -0.4798  0.0234
  882MOL0     C18995   9.100   5.427   0.090 -1.0436 -0.1885  0.3431
  882MOL0     C18996   9.033   5.347  -0.024  1.4008  0.6779 -0.0185
  882MOL0     C18997   9.099   5.396  -0.160 -0.7403  0.3446 -0.3366
  882MOL0     C18998   9.242   5.373  -0.179  0.4541  0.0720 -0.0303
  882MOL0     C18999   9.362   5.366  -0.182  0.2491 -0.0164  0.1587
  882MOL0     C19000   8.939   5.239   0.451 -0.1202 -0.2084 -0.3430
  882MOL0     C19001   8.891   5.185   0.566  0.0022 -0.7466  0.5465
  882MOL0     C19002   8.994   5.126   0.651 -0.6332  0.6034  0.2626
  882MOL0     H19003   8.491   5.306   0.890 -3.4170  0.6357 -0.4489
  882MOL0     H19004   8.403   5.248   1.107 -1.4419 -0.1513 -2.3047
  882MOL0     H19005   8.513   4.946   1.291 -0.1284  0.3543 -3.4358
  882MOL0     H19006   8.469   5.124   1.298 -3.7238  2.0348 -2.6386
  882MOL0     H19007   8.299   4.897   1.390  2.1155 -0.9554 -0.9469
  882MOL0     H19008   8.270   5.065   1.417 -1.2393 -1.3409 -2.8520
  882MOL0     H19009   8.394   5.081   1.598 -0.0541 -2.0295  2.7702
  882MOL0     H19010   8.535   4.992   1.530 -0.5271 -2.1183  0.0492
  882MOL0     H19011   8.433   4.891   1.750  2.9425  1.3483 -1.9702
  882MOL0     H19012   8.278   4.895   1.669 -1.0644  1.5342 -2.6873
  882MOL0     H19013   8.434   4.729   1.507 -0.8825  0.5782 -0.9439
  882MOL0     H19014   8.498   4.693   1.658  0.5399  1.6070  0.2399
  882MOL0     H19015   8.244   4.677   1.736 -0.6613 -4.6766  1.0789
  882MOL0     H19016   8.203   4.672   1.563 -0.0769 -1.6796  0.9047
  882MOL0     H19017   8.367   4.452   1.687  1.2221 -0.7823  0.0925
  882MOL0     H19018   8.368   4.503   1.514 -0.4983  4.0025 -0.3683
  882MOL0     H19019   8.116   4.444   1.498  1.4677  0.9991  0.3182
  882MOL0     H19020   8.220   4.310   1.565 -1.7918 -1.4304 -3.0220
  882MOL0     H19021   8.163   4.190   1.788 -0.0385  0.2509 -2.7916
  882MOL0     H19022   8.069   4.173   2.022  0.5264 -0.0715  1.3895
  882MOL0     H19023   8.029   4.319   2.107  0.7356 -2.4795  1.9497
  882MOL0     H19024   7.789   4.274   2.070  0.4163 -0.9800  1.9279
  882MOL0     H19025   7.823   4.159   1.949  1.2522  2.8072 -1.5770
  882MOL0     H19026   7.926   3.998   2.133 -0.0790 -0.1480  1.6622
  882MOL0     H19027   7.748   4.036   2.134 -0.3879 -1.3978  2.8648
  882MOL0     H19028   7.776   4.166   2.340 -0.1533 -2.1561  2.5044
  882MOL0     H19029   7.948   4.193   2.298 -0.2102 -0.0152 -1.0617
  882MOL0     H19030   7.953   3.793   2.494  0.4430 -0.6246  0.0868
  882MOL0     H19031   8.162   3.666   2.491  0.8880 -0.4771  2.0208
  882MOL0     H19032   8.518   3.522   2.245 -0.1261 -0.2919  0.0272
  882MOL0     H19033   8.729   3.404   2.218  2.8925  0.7537 -0.7336
  882MOL0     H19034   9.062   3.656   2.134  1.4340  1.4590  1.2652
  882MOL0     H19035   9.108   3.602   2.288  4.3762  2.3467 -1.0026
  882MOL0     H19036   9.199   3.395   2.216  1.3181 -0.7641  0.2902
  882MOL0     H19037   9.131   3.440   2.056 -1.7325  1.1207  1.8720
  882MOL0     H19038   9.399   3.464   2.094  0.4039  0.9485  0.3432
  882MOL0     H19039   9.319   3.616   2.031  2.1077 -2.8395 -3.0346
  882MOL0     H19040   9.388   3.550   2.302  3.1826 -1.9900 -2.1800
  882MOL0     H19041   9.299   3.704   2.255  0.8502  1.3907 -1.1376
  882MOL0     H19042   9.478   3.769   2.115 -0.0302 -0.4840 -1.0165
  882MOL0     H19043   9.566   3.621   2.127 -1.0193  1.6494 -3.5758
  882MOL0     H19044   9.659   3.788   2.279 -1.3524  0.6721 -2.3501
  882MOL0     H19045   9.508   3.816   2.358 -0.4761 -0.0352 -1.8044
  882MOL0     H19046   9.636   3.542   2.391  0.8010  1.0453 -1.3385
  882MOL0     H19047   9.523   3.620   2.504  0.4993  0.7836  0.8381
  882MOL0     H19048   9.739   3.624   2.596  1.6177  0.0409 -0.4320
  882MOL0     H19049   9.795   3.722   2.463 -0.8048 -0.8159 -2.2304
  882MOL0     H19050   8.929   3.773   2.226  0.2352  0.8090  4.2115
  882MOL0     H19051   8.717   3.895   2.208  1.7079 -0.5777 -0.9492
  882MOL0     H19052   8.343   3.995   2.281  0.4932 -2.3581 -0.7525
  882MOL0     H19053   8.141   4.124   2.283 -0.6418  0.4983  1.2236
  882MOL0     H19054   8.404   4.835   1.015 -2.4866  1.8805  4.6475
  882MOL0     H19055   8.500   4.898   0.775  0.5031  0.4700 -0.4536
  882MOL0     H19056   8.569   5.292   0.536  0.7521 -1.4561  0.5347
  882MOL0     H19057   8.676   5.395   0.323  0.0529  2.1531  2.4378
  882MOL0     H19058   9.106   5.286   0.246 -1.5653 -1.3291 -0.6201
  882MOL0     H19059   9.094   5.456   0.312  0.2448  2.2836 -2.4017
  882MOL0     H19060   9.207   5.403   0.086 -1.5629 -2.7961 -1.8778
  882MOL0     H19061   9.081   5.534   0.089 -1.6737 -0.2885 -0.9775
  882MOL0     H19062   8.925   5.359  -0.034  0.8073 -3.2151  0.0358
  882MOL0     H19063   9.051   5.240  -0.011 -3.6357 -0.6155 -1.4956
  882MOL0     H19064   9.045   5.337  -0.235  0.0991  0.9519 -1.4539
  882MOL0     H19065   9.065   5.500  -0.170 -0.7486  0.3202 -0.5733
  882MOL0     H19066   9.469   5.354  -0.176  0.2776  0.2346  0.1476
  882MOL0     H19067   9.042   5.213   0.434  0.7213  1.2124  2.0431
  882MOL0     H19068   9.094   5.119   0.607 -0.0605 -1.8336  1.7692
  882MOL0     H19069   9.012   5.174   0.748  2.3851 -1.3281  0.7984
  882MOL0     H19070   8.962   5.022   0.667 -0.8280  0.2670 -1.9737
  883MOL0     O19071   9.013   0.068   7.969 -0.3203 -0.3496 -0.9565
  883MOL0     C19072   8.956   0.168   7.938  0.4847  0.0941 -0.3058
  883MOL0     O19073   9.006   0.254   7.838  0.5165 -0.0552  0.1095
  883MOL0     C19074   9.093   0.236   7.748 -0.4020  0.2875 -0.2391
  883MOL0     C19075   9.143   0.111   7.704 -0.5738  0.6309  0.0809
  883MOL0     C19076   9.230   0.108   7.589  0.2361  0.1732 -0.4229
  883MOL0     C19077   9.266   0.227   7.523 -0.2778 -0.0556  0.9840
  883MOL0     O19078   9.351   0.217   7.417  0.3914 -0.0402  0.7873
  883MOL0     C19079   9.449   0.319   7.390  0.5928  0.0192 -0.0443
  883MOL0     C19080   9.522   0.298   7.259  0.7488  0.3831  0.4159
  883MOL0     C19081   9.656   0.366   7.264  1.0663  0.2223 -0.2473
  883MOL0     C19082   9.742   0.310   7.139  0.0102 -0.3314  1.0529
  883MOL0     C19083   9.883   0.375   7.139 -0.4346 -0.2625  0.2287
  883MOL0     C19084   9.974   0.325   7.023 -0.0403  0.9627 -0.1896
  883MOL0     C19085  10.107   0.391   7.007  0.4468 -0.7989 -0.4256
  883MOL0     C19086  10.213   0.377   7.121 -0.8259 -0.3978  0.4226
  883MOL0     N19087  10.334   0.429   7.061  0.0371 -0.0220  0.2259
  883MOL0     C19088  10.418   0.345   6.989  0.1520 -0.5780 -0.0183
  883MOL0     C19089  10.532   0.417   6.975  0.3721 -0.3312 -0.1274
  883MOL0     C19090  10.658   0.364   6.913 -0.0913  0.9588 -0.5990
  883MOL0     C19091  10.712   0.472   6.815  0.7090  0.2094 -0.3089
  883MOL0     C19092  10.853   0.416   6.772  0.0080  0.5827  0.5576
  883MOL0     C19093  10.969   0.507   6.821 -0.7430  0.4114 -0.3838
  883MOL0     O19094  10.968   0.464   6.954  0.2981 -0.0417 -0.9410
  883MOL0     C19095  11.054   0.520   7.039  0.4362  0.3414 -0.4794
  883MOL0     C19096  11.065   0.450   7.166 -0.4469  0.2181  0.5170
  883MOL0     C19097  11.126   0.504   7.274 -1.4317 -0.8559 -0.9026
  883MOL0     C19098  11.184   0.633   7.265 -1.2542 -0.3341 -0.2801
  883MOL0     C19099  11.258   0.697   7.382 -0.2919  0.7845 -0.6275
  883MOL0     O19100  11.233   0.637   7.503 -0.5130  0.5891 -0.1456
  883MOL0     C19101  11.293   0.682   7.619  0.0978  0.1940  0.1285
  883MOL0     C19102  11.426   0.709   7.629  0.2581  0.9830 -0.3681
  883MOL0     C19103  11.479   0.750   7.756 -0.0043  0.4496  0.2188
  883MOL0     C19104  11.403   0.765   7.873  0.7504  0.0746 -1.1128
  883MOL0     O19105  11.450   0.819   7.992 -0.6322 -0.4134 -0.3822
  883MOL0     C19106  11.528   0.940   7.986  0.4902 -0.0326 -0.2839
  883MOL0     C19107  11.472   1.068   7.920  0.4728  0.1842  0.1223
  883MOL0     C19108  11.317   1.081   7.908 -0.0805 -0.3369 -0.6713
  883MOL0     C19109  11.258   1.067   8.051  0.7704  0.5101 -1.0532
  883MOL0     C19110  11.289   1.187   8.148 -0.2257 -0.1752  0.9176
  883MOL0     C19111  11.232   1.313   8.100  1.0685 -0.4683  0.2010
  883MOL0     C19112  11.260   1.421   8.211  0.1897 -0.9820 -0.2246
  883MOL0     C19113  11.174   1.408   8.334 -0.2667  0.0922 -0.4859
  883MOL0    Cl19114  11.185   1.550   8.427 -0.2300 -0.0279  0.6288
  883MOL0     C19115  11.266   0.719   7.861 -0.7974  0.8441  0.8595
  883MOL0     C19116  11.216   0.685   7.734  0.1738 -0.4003 -0.2146
  883MOL0     O19117  11.307   0.804   7.362  0.2418  0.5515  0.1580
  883MOL0     C19118  11.187   0.692   7.133 -0.4564  0.0981  0.1410
  883MOL0     C19119  11.110   0.646   7.025  0.4667 -0.5956 -0.0772
  883MOL0     N19120  10.510   0.545   7.036  1.0559 -0.2917 -0.0279
  883MOL0     N19121  10.386   0.550   7.066 -0.3480 -0.2860 -0.1200
  883MOL0     C19122   9.193   0.339   7.550 -0.8778 -0.4026 -0.9889
  883MOL0     C19123   9.112   0.347   7.673 -0.6152 -0.6670 -0.5490
  883MOL0     C19124   8.835   0.201   8.021  0.6887 -0.7921 -0.1520
  883MOL0     C19125   8.807   0.126   8.134 -0.2167 -0.5289 -0.3432
  883MOL0     C19126   8.703   0.153   8.223  0.9493  0.8374 -0.6767
  883MOL0     C19127   8.634   0.274   8.214 -0.3230  0.4427  0.1204
  883MOL0     O19128   8.551   0.325   8.311  0.1009  0.3275 -0.3544
  883MOL0     C19129   8.470   0.218   8.374  0.1060 -0.1333  0.6002
  883MOL0     C19130   8.329   0.251   8.330  0.2708 -0.0713  0.1109
  883MOL0     C19131   8.221   0.167   8.395 -0.4360  0.2327  0.6140
  883MOL0     C19132   8.088   0.194   8.345  0.1387  0.1102  0.5350
  883MOL0     C19133   8.054   0.131   8.206 -0.3388 -0.0397  0.0651
  883MOL0     C19134   8.026   0.088   8.099  0.8873 -1.6541  1.2037
  883MOL0     C19135   8.670   0.351   8.105  0.1688  0.2848  0.9777
  883MOL0     C19136   8.760   0.314   7.998 -0.0252 -0.4593 -0.1102
  883MOL0     C19137   8.763   0.403   7.871  1.3495 -0.9693 -0.6383
  883MOL0     H19138   9.113   0.017   7.748 -1.2193  0.4016 -0.8136
  883MOL0     H19139   9.273   0.016   7.550 -2.7999 -1.2608 -0.6799
  883MOL0     H19140   9.405   0.418   7.404  1.8735  0.3880  1.7487
  883MOL0     H19141   9.526   0.297   7.465  0.2128  1.5985  0.8420
  883MOL0     H19142   9.462   0.332   7.174 -0.8934  0.4158  1.5470
  883MOL0     H19143   9.539   0.191   7.250  0.9847  0.4884 -0.4878
  883MOL0     H19144   9.702   0.337   7.359  1.2744 -1.9779 -0.9618
  883MOL0     H19145   9.652   0.474   7.251  2.0528  0.3842  0.6572
  883MOL0     H19146   9.763   0.203   7.149  0.4645 -0.4310 -0.6137
  883MOL0     H19147   9.691   0.335   7.045  1.8568  0.1228  0.1252
  883MOL0     H19148   9.875   0.483   7.134 -3.7486 -0.3992  0.6750
  883MOL0     H19149   9.937   0.357   7.233  2.7549 -3.7192 -1.9481
  883MOL0     H19150   9.995   0.220   7.043  2.4684  1.3155 -0.6423
  883MOL0     H19151   9.912   0.321   6.933  0.4103  1.0049 -0.5049
  883MOL0     H19152  10.086   0.495   6.978 -2.8881 -1.1844  0.2185
  883MOL0     H19153  10.146   0.346   6.915  2.1260 -0.4264  0.0544
  883MOL0     H19154  10.188   0.427   7.216 -0.3624 -0.7522  0.7348
  883MOL0     H19155  10.233   0.270   7.133 -0.0308 -0.3425 -0.3424
  883MOL0     H19156  10.400   0.245   6.950  0.7375 -0.2060 -1.3181
  883MOL0     H19157  10.734   0.368   6.992 -0.1253  1.9010 -0.5966
  883MOL0     H19158  10.635   0.270   6.862 -2.2171 -0.2445  2.3217
  883MOL0     H19159  10.646   0.489   6.729  1.2528  0.3667 -0.6956
  883MOL0     H19160  10.737   0.568   6.861 -0.6030  1.1717 -1.4938
  883MOL0     H19161  10.864   0.426   6.664  0.7450 -1.2597  0.4301
  883MOL0     H19162  10.872   0.309   6.789  1.3490  0.4407 -1.4960
  883MOL0     H19163  10.948   0.614   6.813  3.5803  1.3703 -1.6237
  883MOL0     H19164  11.067   0.492   6.776  0.1455  1.3209  1.1450
  883MOL0     H19165  11.020   0.351   7.166  3.3975 -1.7900 -1.0774
  883MOL0     H19166  11.125   0.441   7.362 -1.6247  0.4493  0.0720
  883MOL0     H19167  11.494   0.696   7.546  2.4471 -0.8931  1.5758
  883MOL0     H19168  11.585   0.774   7.762 -0.1448  0.7112  2.5179
  883MOL0     H19169  11.546   0.965   8.091 -1.9650  1.1522 -0.0764
  883MOL0     H19170  11.616   0.916   7.926  0.6581 -0.0188 -0.0431
  883MOL0     H19171  11.518   1.158   7.963 -1.2511  1.2858 -0.2667
  883MOL0     H19172  11.514   1.069   7.819  2.0893  1.9768  0.7461
  883MOL0     H19173  11.289   1.178   7.866 -1.8827  0.0304  1.1881
  883MOL0     H19174  11.288   1.003   7.837  0.4117 -0.4310 -0.7749
  883MOL0     H19175  11.299   0.978   8.100  1.4600  1.1301 -0.4766
  883MOL0     H19176  11.149   1.063   8.047  0.6156  1.1493  1.1456
  883MOL0     H19177  11.397   1.200   8.161  0.0490  0.1215 -1.2237
  883MOL0     H19178  11.240   1.175   8.244 -2.4134  0.9491  0.0050
  883MOL0     H19179  11.282   1.347   8.009  0.3933 -0.0735 -0.0282
  883MOL0     H19180  11.125   1.302   8.085  1.2536  0.3778 -2.2668
  883MOL0     H19181  11.242   1.521   8.171  4.2192  0.7266  1.6636
  883MOL0     H19182  11.364   1.423   8.245 -0.0376  0.2402  0.4496
  883MOL0     H19183  11.072   1.388   8.298 -0.5264  1.4687 -0.5410
  883MOL0     H19184  11.209   1.319   8.387 -0.3465 -0.2471 -0.9910
  883MOL0     H19185  11.186   0.732   7.934  0.0521  2.9958  1.5059
  883MOL0     H19186  11.110   0.659   7.731 -0.5335  1.8043  2.3755
  883MOL0     H19187  11.249   0.780   7.121 -0.6232  0.1221 -0.6044
  883MOL0     H19188  11.112   0.701   6.931 -0.4686  1.6669  1.1389
  883MOL0     H19189   9.209   0.436   7.504 -1.7164  1.0010  1.4873
  883MOL0     H19190   9.071   0.442   7.707  1.3711 -0.1211  0.4731
  883MOL0     H19191   8.880   0.050   8.161 -0.1241 -0.0506  0.8220
  883MOL0     H19192   8.687   0.079   8.300  0.0005  1.9204  0.2041
  883MOL0     H19193   8.469   0.219   8.483 -0.4990 -0.2350  0.6034
  883MOL0     H19194   8.497   0.119   8.336  4.2603  1.3679 -0.9268
  883MOL0     H19195   8.319   0.253   8.221  5.4758  2.4872 -0.6225
  883MOL0     H19196   8.306   0.353   8.361 -2.2991 -0.6799  0.4410
  883MOL0     H19197   8.230   0.172   8.504 -0.2832  1.8403  0.5533
  883MOL0     H19198   8.250   0.065   8.368 -0.3231  0.2460  0.6821
  883MOL0     H19199   8.015   0.164   8.421 -0.4145  1.9561  0.7926
  883MOL0     H19200   8.078   0.302   8.333  1.3352  0.0327 -1.6166
  883MOL0     H19201   8.011   0.046   8.001 -1.9669 -4.9867  2.8608
  883MOL0     H19202   8.613   0.442   8.097  0.9040  0.6801  0.0204
  883MOL0     H19203   8.780   0.339   7.785 -2.1375 -3.5754  0.3948
  883MOL0     H19204   8.672   0.462   7.854  1.8871  0.3146  0.7131
  883MOL0     H19205   8.837   0.483   7.881 -1.8183  2.0678  0.8402
  884MOL0     O19206   3.122   7.331   7.654 -0.9583 -0.2347  0.0481
  884MOL0     C19207   3.100   7.319   7.770  0.1760  0.0615 -0.9368
  884MOL0     O19208   3.197   7.335   7.867  0.4705 -1.0137 -0.0787
  884MOL0     C19209   3.326   7.341   7.833 -0.4095  1.2889  0.3451
  884MOL0     C19210   3.387   7.224   7.776  0.0103 -0.0954 -0.0003
  884MOL0     C19211   3.518   7.216   7.738 -0.7438 -0.4021  0.2759
  884MOL0     C19212   3.602   7.331   7.758 -0.0203  0.0275 -0.2529
  884MOL0     O19213   3.724   7.330   7.705  0.4222 -0.9779 -0.1657
  884MOL0     C19214   3.799   7.444   7.681  0.2471 -0.1483 -0.0941
  884MOL0     C19215   3.927   7.395   7.598 -0.1566 -0.4850 -0.4650
  884MOL0     C19216   4.019   7.304   7.678 -0.5432  0.0129 -0.0014
  884MOL0     C19217   4.145   7.290   7.602 -0.5186 -0.6092 -0.6880
  884MOL0     C19218   4.240   7.181   7.665  0.2104  0.1251  0.3277
  884MOL0     C19219   4.350   7.147   7.569 -0.2416 -0.1129 -0.7147
  884MOL0     C19220   4.436   7.048   7.641 -0.2430 -0.7125 -0.2258
  884MOL0     C19221   4.531   6.986   7.535  0.1920  0.0404 -0.0221
  884MOL0     N19222   4.613   7.096   7.486  0.0802  0.0080  0.1687
  884MOL0     C19223   4.730   7.138   7.534 -0.5165 -0.5613  0.1366
  884MOL0     C19224   4.772   7.230   7.438  0.1022  0.6272 -0.1117
  884MOL0     C19225   4.901   7.303   7.456 -0.9711 -0.3918 -0.0014
  884MOL0     C19226   5.002   7.252   7.346  0.6850  0.4112 -0.3762
  884MOL0     C19227   5.127   7.335   7.359  0.6044 -0.2436  0.3206
  884MOL0     C19228   5.252   7.258   7.403  0.9017 -0.4763  0.0116
  884MOL0     O19229   5.305   7.181   7.293 -0.4935  0.9450 -0.6519
  884MOL0     C19230   5.362   7.072   7.352 -1.0642  0.3978 -0.4132
  884MOL0     C19231   5.300   6.983   7.444 -0.4916 -0.3884 -0.1003
  884MOL0     C19232   5.373   6.872   7.496 -0.0225 -0.4784 -0.2021
  884MOL0     C19233   5.506   6.856   7.452 -0.3601  0.3402 -0.0819
  884MOL0     C19234   5.581   6.739   7.505 -0.2218  0.2292  0.5365
  884MOL0     O19235   5.529   6.677   7.609 -0.1023 -1.0257  0.4115
  884MOL0     C19236   5.611   6.606   7.682 -0.1050 -0.8228 -0.6211
  884MOL0     C19237   5.590   6.470   7.717  0.7868  0.8510 -0.0760
  884MOL0     C19238   5.684   6.394   7.795 -0.5343  0.4255 -0.5776
  884MOL0     C19239   5.777   6.461   7.866 -0.2596  0.2147 -1.2207
  884MOL0     O19240   5.851   6.385   7.950  0.4431 -0.6515  0.0204
  884MOL0     C19241   5.932   6.450   8.051  0.4557  0.6302 -0.1852
  884MOL0     C19242   6.027   6.346   8.118 -0.1576  0.4803 -0.1581
  884MOL0     C19243   5.951   6.226   8.167  0.1216  0.1677 -0.2028
  884MOL0     C19244   5.836   6.260   8.266  0.6806  0.7216 -0.0360
  884MOL0     C19245   5.757   6.125   8.287  0.5950  0.0307  0.3861
  884MOL0     C19246   5.669   6.127   8.418 -0.2114 -0.2869  0.5516
  884MOL0     C19247   5.598   5.995   8.462  0.6791 -0.4149 -0.4022
  884MOL0     C19248   5.507   6.017   8.586 -1.0893 -0.9097 -0.4690
  884MOL0    Cl19249   5.362   6.111   8.531 -0.2369 -0.2814 -0.0371
  884MOL0     C19250   5.790   6.598   7.851 -0.2816 -0.1574  0.0471
  884MOL0     C19251   5.713   6.666   7.757  0.6317 -0.0129 -0.3649
  884MOL0     O19252   5.698   6.720   7.467 -0.2075  1.1319 -0.3569
  884MOL0     C19253   5.568   6.945   7.368 -0.4580 -1.6775  0.5061
  884MOL0     C19254   5.499   7.052   7.318 -0.5672  0.0873  0.3554
  884MOL0     N19255   4.682   7.235   7.329 -0.0998 -0.4156  0.1204
  884MOL0     N19256   4.588   7.156   7.366  0.1586  0.0126 -0.2445
  884MOL0     C19257   3.551   7.445   7.822  0.1858 -0.4445  0.5222
  884MOL0     C19258   3.419   7.448   7.866  0.5143  0.3278 -0.2895
  884MOL0     C19259   2.964   7.276   7.824 -1.0020 -0.1725  0.1022
  884MOL0     C19260   2.926   7.329   7.947 -1.2603  0.4910  0.4781
  884MOL0     C19261   2.796   7.278   8.003 -0.2187 -0.5063 -0.4635
  884MOL0     C19262   2.716   7.184   7.943  0.0132 -0.0051 -0.2116
  884MOL0     O19263   2.596   7.154   8.001  1.2563 -0.8333 -0.1371
  884MOL0     C19264   2.492   7.103   7.918  0.1392  0.0373  0.4095
  884MOL0     C19265   2.356   7.149   7.976 -0.0034  0.0278  0.4655
  884MOL0     C19266   2.348   7.136   8.131 -0.2302 -0.2957 -1.3940
  884MOL0     C19267   2.366   6.993   8.192  0.0250 -1.0119  0.3894
  884MOL0     C19268   2.266   6.893   8.148  0.0249  0.4189 -0.8453
  884MOL0     C19269   2.188   6.800   8.124 -0.2109 -1.1647  0.9557
  884MOL0     C19270   2.769   7.124   7.820  0.1780 -0.3316 -0.0838
  884MOL0     C19271   2.889   7.175   7.757 -0.2805  0.0804  0.1209
  884MOL0     C19272   2.936   7.102   7.643  0.3450  0.3070 -0.2496
  884MOL0     H19273   3.329   7.132   7.772 -0.4253  0.0009  2.4971
  884MOL0     H19274   3.557   7.119   7.705 -2.9605 -0.3265 -2.9873
  884MOL0     H19275   3.737   7.511   7.620 -0.4994 -1.2317 -0.5374
  884MOL0     H19276   3.832   7.496   7.772  0.3253  1.3579 -0.9466
  884MOL0     H19277   3.976   7.480   7.548 -0.3174 -0.4800 -0.6168
  884MOL0     H19278   3.885   7.343   7.511 -2.2284  1.2527 -0.6075
  884MOL0     H19279   3.967   7.208   7.679  0.4099 -0.6714 -3.6308
  884MOL0     H19280   4.044   7.343   7.777  0.0560 -2.4265  0.8645
  884MOL0     H19281   4.107   7.250   7.507 -0.8130  0.1832 -0.9095
  884MOL0     H19282   4.200   7.383   7.587  2.0042 -1.0656  3.9626
  884MOL0     H19283   4.277   7.215   7.762  1.8038 -0.0524 -0.1900
  884MOL0     H19284   4.178   7.092   7.680  0.1681  0.2501  0.9555
  884MOL0     H19285   4.302   7.096   7.485  1.6780 -0.0543 -1.8979
  884MOL0     H19286   4.410   7.228   7.528  1.7601 -0.6765  0.9241
  884MOL0     H19287   4.379   6.964   7.681 -1.6777 -0.1549 -1.0667
  884MOL0     H19288   4.493   7.102   7.718 -2.0588  2.5534 -0.9828
  884MOL0     H19289   4.594   6.908   7.580  1.1868  1.8885  1.9486
  884MOL0     H19290   4.470   6.942   7.455  1.6533 -1.7856 -0.1972
  884MOL0     H19291   4.767   7.119   7.634 -0.3356 -0.5859  0.0657
  884MOL0     H19292   4.881   7.409   7.442  2.6611  0.4022 -0.1984
  884MOL0     H19293   4.945   7.292   7.555 -0.2645  1.6361 -0.0462
  884MOL0     H19294   5.021   7.145   7.350 -1.9790 -0.1801 -1.3814
  884MOL0     H19295   4.964   7.262   7.244  2.9926 -2.5065 -1.6635
  884MOL0     H19296   5.118   7.419   7.428  0.6695 -2.6859  3.5274
  884MOL0     H19297   5.160   7.368   7.260  1.3858  0.1279  0.6983
  884MOL0     H19298   5.233   7.207   7.498 -1.2819 -1.3988 -0.8545
  884MOL0     H19299   5.321   7.342   7.417  1.0949 -0.6437  0.0579
  884MOL0     H19300   5.200   7.003   7.479  0.3476  3.3099  0.6094
  884MOL0     H19301   5.334   6.814   7.579 -2.1509  0.2693 -0.6183
  884MOL0     H19302   5.511   6.424   7.659  1.9552  0.4846 -1.4084
  884MOL0     H19303   5.684   6.285   7.802 -0.7755  0.4604 -0.0429
  884MOL0     H19304   6.002   6.516   7.998  3.1388 -1.7655  0.1510
  884MOL0     H19305   5.862   6.507   8.113 -0.4442  1.4239 -1.8511
  884MOL0     H19306   6.090   6.316   8.034  0.1236 -0.5727  0.4136
  884MOL0     H19307   6.094   6.383   8.196  0.0427 -2.1953  1.0533
  884MOL0     H19308   5.916   6.176   8.076 -0.6571  0.4169 -0.0492
  884MOL0     H19309   6.023   6.163   8.220  1.6654  3.6089  2.2050
  884MOL0     H19310   5.755   6.311   8.213 -0.9404 -0.3793  1.2943
  884MOL0     H19311   5.860   6.310   8.360 -1.7536 -1.1411  1.7160
  884MOL0     H19312   5.833   6.046   8.284  0.9328  0.2323 -4.3351
  884MOL0     H19313   5.694   6.103   8.200  1.3667  0.4941 -0.3019
  884MOL0     H19314   5.731   6.165   8.500 -2.9286  0.1676  2.5393
  884MOL0     H19315   5.586   6.197   8.405  0.3327 -0.0759 -2.4474
  884MOL0     H19316   5.675   5.920   8.484  0.4339 -0.2598  1.1249
  884MOL0     H19317   5.534   5.964   8.380 -0.5879  1.8064 -0.3163
  884MOL0     H19318   5.502   5.919   8.634  0.8720 -1.1003 -0.5786
  884MOL0     H19319   5.563   6.083   8.653  0.5929 -0.7259 -1.9725
  884MOL0     H19320   5.858   6.663   7.905  1.8802 -1.7976 -0.5252
  884MOL0     H19321   5.735   6.769   7.733 -1.0245  0.3472 -0.4609
  884MOL0     H19322   5.673   6.940   7.341  0.1789  4.5229  0.4366
  884MOL0     H19323   5.553   7.118   7.251  1.1901 -0.3148  1.3064
  884MOL0     H19324   3.632   7.504   7.864  0.1447  1.1301 -1.4806
  884MOL0     H19325   3.372   7.526   7.927 -0.7055  0.0329 -0.8257
  884MOL0     H19326   2.981   7.399   8.009  1.2398 -1.9055  1.1469
  884MOL0     H19327   2.771   7.316   8.102  1.6508  0.4448 -0.3034
  884MOL0     H19328   2.503   6.994   7.917  0.5816 -0.0139 -3.2906
  884MOL0     H19329   2.502   7.136   7.814 -3.3046 -2.5047 -0.9239
  884MOL0     H19330   2.270   7.095   7.936  1.1421 -0.3241 -1.7217
  884MOL0     H19331   2.341   7.254   7.949  0.4817  0.7148  2.6390
  884MOL0     H19332   2.260   7.187   8.169  2.0809  2.0013  1.3798
  884MOL0     H19333   2.417   7.205   8.180 -1.5447 -1.1414  1.9182
  884MOL0     H19334   2.466   6.954   8.174  1.2939  1.8797  0.5134
  884MOL0     H19335   2.369   7.009   8.300  1.4442  1.7632  0.0334
  884MOL0     H19336   2.122   6.719   8.101  0.0470 -1.0705 -0.1573
  884MOL0     H19337   2.719   7.037   7.779  1.2985 -1.1077  0.1350
  884MOL0     H19338   2.961   7.167   7.558  1.8366 -2.7894 -2.3850
  884MOL0     H19339   3.021   7.039   7.669 -0.2090 -0.6138 -0.6338
  884MOL0     H19340   2.864   7.034   7.596 -1.4909  4.6409 -4.5580
  885MOL0     O19341  10.222   0.922   8.244 -0.4036 -0.9807 -0.4557
  885MOL0     C19342  10.112   0.927   8.290  0.9095 -1.0352  0.2648
  885MOL0     O19343  10.042   1.033   8.348  0.0195  0.1117  0.4130
  885MOL0     C19344  10.103   1.155   8.371 -0.0507  0.0622 -0.5935
  885MOL0     C19345  10.225   1.211   8.321  0.0906 -0.2381  1.3849
  885MOL0     C19346  10.259   1.351   8.347 -0.4616 -0.2646  0.2773
  885MOL0     C19347  10.202   1.413   8.459 -0.3691 -0.0810  0.0249
  885MOL0     O19348  10.236   1.540   8.503 -0.4146 -0.0214 -0.5938
  885MOL0     C19349  10.373   1.583   8.494  0.8212 -0.6342 -0.5587
  885MOL0     C19350  10.379   1.723   8.555 -0.7638  0.0594  0.3585
  885MOL0     C19351  10.517   1.743   8.624  0.0086  0.8609 -0.6068
  885MOL0     C19352  10.545   1.890   8.643  0.4643 -0.0860  0.2885
  885MOL0     C19353  10.678   1.910   8.704  0.1183  0.7036  0.5420
  885MOL0     C19354  10.710   2.058   8.732  0.7533 -0.4168  0.2872
  885MOL0     C19355  10.842   2.067   8.810 -0.1123  0.0188  0.7880
  885MOL0     C19356  10.972   2.045   8.735 -1.3278  0.6529  0.4813
  885MOL0     N19357  11.083   2.092   8.816  0.1761 -0.5375 -0.3726
  885MOL0     C19358  11.203   2.026   8.838  0.6030 -0.0017 -0.2821
  885MOL0     C19359  11.265   2.083   8.947  0.6010 -0.4475  0.5839
  885MOL0     C19360  11.395   2.030   8.991 -0.7171 -0.0615  1.4222
  885MOL0     C19361  11.520   2.107   8.943 -0.1863  0.3627  0.0517
  885MOL0     C19362  11.645   2.025   8.997  0.7521  0.2220  0.0491
  885MOL0     C19363  11.780   2.040   8.919  0.6398 -0.8392 -0.1515
  885MOL0     O19364  11.829   2.176   8.936  0.1908 -0.0923 -0.0698
  885MOL0     C19365  11.953   2.197   8.884 -0.5018 -0.0838  0.6918
  885MOL0     C19366  12.037   2.295   8.943  0.7732 -0.3171  0.4874
  885MOL0     C19367  12.160   2.324   8.885  0.7898 -1.4529 -0.3178
  885MOL0     C19368  12.208   2.258   8.771  0.8732 -0.2846 -0.0025
  885MOL0     C19369  12.354   2.294   8.732  0.5422  0.4121  0.3578
  885MOL0     O19370  12.407   2.388   8.814 -0.4041  0.2583  0.2053
  885MOL0     C19371  12.541   2.430   8.794  0.1485 -0.0687  0.3086
  885MOL0     C19372  12.583   2.461   8.669  1.4891 -0.0797  0.8524
  885MOL0     C19373  12.708   2.513   8.648 -0.3019 -0.3472 -0.0193
  885MOL0     C19374  12.793   2.543   8.757  0.4089  0.5103  0.0525
  885MOL0     O19375  12.923   2.582   8.743  0.0325  0.9401  0.5019
  885MOL0     C19376  12.982   2.614   8.614 -0.8956 -0.5298  0.2794
  885MOL0     C19377  13.117   2.676   8.626  0.3869 -0.3890  0.7962
  885MOL0     C19378  13.107   2.785   8.732 -0.4631  0.3947  0.4124
  885MOL0     C19379  13.227   2.874   8.726 -0.0103  0.3143  0.6580
  885MOL0     C19380  13.264   2.969   8.833 -1.0656  0.8866 -0.6970
  885MOL0     C19381  13.157   3.081   8.844  0.5404 -0.2557  0.2625
  885MOL0     C19382  13.191   3.176   8.959  0.3638  0.6242 -0.4044
  885MOL0     C19383  13.077   3.281   8.971 -0.1642  0.7811 -0.2663
  885MOL0    Cl19384  13.076   3.399   8.838 -0.2375 -0.1280  0.2498
  885MOL0     C19385  12.749   2.512   8.887 -0.3587 -0.5404  0.2376
  885MOL0     C19386  12.622   2.459   8.908 -0.5915  0.1163 -0.5269
  885MOL0     O19387  12.398   2.252   8.619  0.0936 -0.6838 -0.0834
  885MOL0     C19388  12.124   2.154   8.716 -0.2585  0.6446  0.2354
  885MOL0     C19389  11.993   2.134   8.768 -0.5701 -0.5894  0.6225
  885MOL0     N19390  11.187   2.187   8.980 -0.2908 -0.2904 -1.4018
  885MOL0     N19391  11.087   2.204   8.898  0.0413 -0.1218  0.0213
  885MOL0     C19392  10.099   1.356   8.525 -0.2532  0.0116  1.2639
  885MOL0     C19393  10.036   1.239   8.475  0.0966 -0.2996 -0.6293
  885MOL0     C19394  10.021   0.810   8.251 -0.3714  0.3453  0.5794
  885MOL0     C19395   9.881   0.822   8.223  0.6313  0.4109 -0.7232
  885MOL0     C19396   9.795   0.702   8.204 -0.5209 -0.1384 -0.3528
  885MOL0     C19397   9.838   0.575   8.201 -0.4510 -0.0730 -1.1687
  885MOL0     O19398   9.746   0.477   8.195 -0.3610 -0.8186  0.7313
  885MOL0     C19399   9.768   0.340   8.232  0.4912  0.1421  0.6854
  885MOL0     C19400   9.685   0.252   8.151  0.5108 -0.5290  0.8351
  885MOL0     C19401   9.679   0.109   8.200 -0.1196 -0.3805 -0.5174
  885MOL0     C19402   9.608   0.017   8.109 -0.7263 -0.0660 -0.4341
  885MOL0     C19403   9.471   0.059   8.075 -0.0458 -0.6033  0.4918
  885MOL0     C19404   9.370   0.112   8.042 -0.0034  0.0732  0.0021
  885MOL0     C19405   9.976   0.561   8.215 -0.6260 -0.9243  0.9123
  885MOL0     C19406  10.059   0.675   8.242 -0.3941 -0.3876  0.3979
  885MOL0     C19407  10.204   0.636   8.251  0.4074 -0.5237  0.3972
  885MOL0     H19408  10.269   1.161   8.235 -1.1832  1.4036 -0.3090
  885MOL0     H19409  10.334   1.398   8.285  0.2356 -3.3969 -1.4870
  885MOL0     H19410  10.429   1.504   8.545 -0.9911 -2.1200 -0.7567
  885MOL0     H19411  10.408   1.593   8.391  0.2428  1.1318 -0.6056
  885MOL0     H19412  10.304   1.752   8.629 -0.3334  0.2688  0.7166
  885MOL0     H19413  10.373   1.793   8.472 -0.2986 -1.2470 -0.8202
  885MOL0     H19414  10.591   1.707   8.551 -0.4780 -0.2854 -0.5505
  885MOL0     H19415  10.518   1.702   8.725 -2.0101  1.3373 -0.3609
  885MOL0     H19416  10.551   1.926   8.540  1.9872 -0.2090  0.3132
  885MOL0     H19417  10.466   1.946   8.695  0.6071 -0.0515  0.4689
  885MOL0     H19418  10.678   1.856   8.799  2.5318  2.7685  1.8349
  885MOL0     H19419  10.754   1.866   8.639  0.2396  1.5519  0.0987
  885MOL0     H19420  10.712   2.108   8.634  0.4742 -1.2313 -0.1438
  885MOL0     H19421  10.625   2.109   8.778 -0.4964 -3.2120  1.2947
  885MOL0     H19422  10.833   1.996   8.893 -0.5706  0.1863  0.8834
  885MOL0     H19423  10.838   2.161   8.866  1.1846 -0.3658  1.5782
  885MOL0     H19424  10.992   1.943   8.701  3.8679  2.0192 -1.4599
  885MOL0     H19425  10.970   2.107   8.644  0.7626 -0.5153 -0.4433
  885MOL0     H19426  11.238   1.934   8.792  0.6101 -0.7565  1.1987
  885MOL0     H19427  11.392   2.026   9.100  2.7806 -1.6485  1.6022
  885MOL0     H19428  11.408   1.923   8.974  1.0655 -0.0762  2.6297
  885MOL0     H19429  11.536   2.109   8.835  1.8433 -1.5937  0.2527
  885MOL0     H19430  11.535   2.207   8.983 -1.8012  0.7611 -0.2743
  885MOL0     H19431  11.623   1.919   8.978 -0.6367  0.1598  1.7719
  885MOL0     H19432  11.654   2.036   9.106 -0.6961  0.1666  0.1979
  885MOL0     H19433  11.766   2.010   8.814 -3.8376 -0.3752  0.1321
  885MOL0     H19434  11.851   1.966   8.958  1.7235 -1.4683 -3.0516
  885MOL0     H19435  12.007   2.338   9.038  2.2760 -1.6829  1.6442
  885MOL0     H19436  12.214   2.403   8.936 -0.7593  0.0200 -0.8737
  885MOL0     H19437  12.514   2.457   8.585  1.9142 -0.8882  0.5292
  885MOL0     H19438  12.748   2.536   8.549  1.1471 -3.5925 -0.3524
  885MOL0     H19439  13.000   2.525   8.553  1.0200  0.7117 -1.0623
  885MOL0     H19440  12.922   2.690   8.563 -3.3242 -0.7938  2.5197
  885MOL0     H19441  13.201   2.612   8.654  1.6502 -0.1599 -2.1156
  885MOL0     H19442  13.156   2.716   8.532  2.7132 -4.3634 -0.1848
  885MOL0     H19443  13.013   2.836   8.709 -0.6475  0.3141  0.9626
  885MOL0     H19444  13.101   2.751   8.836 -2.2887  1.1037  0.5706
  885MOL0     H19445  13.221   2.916   8.626 -1.7034 -0.4146  0.4243
  885MOL0     H19446  13.311   2.804   8.729 -0.1854  0.1217  1.9053
  885MOL0     H19447  13.364   3.007   8.813 -0.4108 -0.1494  0.4678
  885MOL0     H19448  13.268   2.909   8.924  0.7595 -1.1711 -2.0361
  885MOL0     H19449  13.152   3.135   8.749  1.4596  2.6427  1.7446
  885MOL0     H19450  13.059   3.036   8.861  1.7181 -4.0704 -1.9416
  885MOL0     H19451  13.282   3.229   8.929 -2.0748  3.5152 -3.4708
  885MOL0     H19452  13.212   3.116   9.048 -0.4394 -1.0917 -1.3075
  885MOL0     H19453  12.985   3.223   8.959 -1.4282  2.1672  2.0323
  885MOL0     H19454  13.075   3.340   9.063 -1.5897  1.3581 -0.6395
  885MOL0     H19455  12.816   2.533   8.970  0.8925  0.6466 -1.0024
  885MOL0     H19456  12.568   2.460   9.002 -0.9882  4.0626 -0.6313
  885MOL0     H19457  12.159   2.095   8.632 -0.6296  1.1959 -0.3142
  885MOL0     H19458  11.933   2.061   8.716  1.3204 -1.8157  0.0319
  885MOL0     H19459  10.057   1.411   8.609 -0.4126 -0.5737  1.5736
  885MOL0     H19460   9.938   1.218   8.517  0.8075  1.4398  2.1216
  885MOL0     H19461   9.839   0.921   8.238  0.5799  0.1788  0.9005
  885MOL0     H19462   9.688   0.706   8.193 -0.7539  1.9151  1.8780
  885MOL0     H19463   9.747   0.324   8.338 -0.5354  3.4411  1.1062
  885MOL0     H19464   9.872   0.316   8.206  1.1534  3.2503 -0.0135
  885MOL0     H19465   9.720   0.260   8.048 -1.3067  0.0597  0.2126
  885MOL0     H19466   9.581   0.283   8.137 -0.2173 -3.7150 -2.1705
  885MOL0     H19467   9.634   0.113   8.299  0.1804  2.4124 -0.4086
  885MOL0     H19468   9.777   0.065   8.219 -0.6481 -1.4020 -0.0921
  885MOL0     H19469   9.667   0.015   8.017  0.7053  0.8170  0.4429
  885MOL0     H19470   9.609  -0.079   8.162 -3.4430 -0.1086 -0.2898
  885MOL0     H19471   9.277   0.152   8.006 -0.5554 -2.4854 -1.6965
  885MOL0     H19472  10.019   0.464   8.194 -1.9175 -1.7199  1.8419
  885MOL0     H19473  10.258   0.665   8.160 -1.8402 -0.8311 -1.1159
  885MOL0     H19474  10.247   0.680   8.341  0.1149  1.2229 -0.2727
  885MOL0     H19475  10.203   0.527   8.254 -0.7083 -0.7023 -2.4527
  886MOL0     O19476   6.576   8.255   1.043  0.8377  0.3607 -0.6018
  886MOL0     C19477   6.535   8.160   0.981  0.1961  0.1702 -0.1034
  886MOL0     O19478   6.619   8.070   0.918  0.4294  0.6120 -0.1221
  886MOL0     C19479   6.752   8.076   0.930  0.1832 -0.2516  0.3506
  886MOL0     C19480   6.827   7.961   0.892  0.0949 -0.4481 -0.4925
  886MOL0     C19481   6.963   7.957   0.890 -0.0565  0.1451 -0.3547
  886MOL0     C19482   7.045   8.069   0.916  0.1491 -0.1921 -0.0712
  886MOL0     O19483   7.178   8.051   0.905 -0.1445  0.1360 -0.3409
  886MOL0     C19484   7.274   8.152   0.943  0.4086 -0.1646 -0.0509
  886MOL0     C19485   7.301   8.146   1.094 -0.1038 -0.0633 -0.0429
  886MOL0     C19486   7.323   8.014   1.159 -0.1683  0.5257 -0.9383
  886MOL0     C19487   7.409   7.906   1.080  0.7175 -0.0000  0.7895
  886MOL0     C19488   7.551   7.908   1.131  0.1473  0.4161 -0.4051
  886MOL0     C19489   7.637   8.022   1.082 -0.5547 -0.7228  0.4133
  886MOL0     C19490   7.776   8.009   1.134  0.6562  1.0151 -0.6138
  886MOL0     C19491   7.867   7.901   1.069  0.7192 -0.5842  0.2541
  886MOL0     N19492   7.874   7.913   0.921 -0.0751 -0.5406  0.5348
  886MOL0     C19493   7.777   7.891   0.829 -0.3351  0.6996 -0.1917
  886MOL0     C19494   7.823   7.940   0.713  0.1826  0.8388  0.2606
  886MOL0     C19495   7.756   7.937   0.582  0.1509  0.0792  0.7754
  886MOL0     C19496   7.734   8.080   0.526 -0.0416  0.2660 -0.2258
  886MOL0     C19497   7.641   8.160   0.615  0.1024 -0.2372 -0.4424
  886MOL0     C19498   7.501   8.109   0.603  0.8211 -0.4143 -0.7354
  886MOL0     O19499   7.496   7.993   0.696  0.0429  0.2935  0.2651
  886MOL0     C19500   7.385   7.906   0.690  0.3604 -0.3483  0.2504
  886MOL0     C19501   7.271   7.934   0.619  0.2937 -0.7871 -0.0305
  886MOL0     C19502   7.162   7.853   0.633  0.2179  0.5793  0.0373
  886MOL0     C19503   7.158   7.730   0.701 -0.3662  0.2318  0.9692
  886MOL0     C19504   7.034   7.641   0.695  0.2117 -0.1159 -0.3224
  886MOL0     O19505   7.040   7.523   0.765 -0.0299 -0.2285 -0.3905
  886MOL0     C19506   6.932   7.440   0.786 -0.6971  0.7052 -0.1364
  886MOL0     C19507   6.951   7.341   0.873 -0.6684 -0.4282  0.7872
  886MOL0     C19508   6.858   7.233   0.888  0.0628  0.6080 -0.7206
  886MOL0     C19509   6.737   7.242   0.823 -0.5119  0.7287  0.1394
  886MOL0     O19510   6.649   7.136   0.840  0.2698 -0.0706  0.1900
  886MOL0     C19511   6.528   7.136   0.763  0.5055 -0.1221 -0.8707
  886MOL0     C19512   6.419   7.230   0.838  0.0817  0.5381 -0.3267
  886MOL0     C19513   6.283   7.223   0.774 -0.0834  0.2159 -0.1635
  886MOL0     C19514   6.213   7.356   0.784 -0.4425  0.7396  0.2690
  886MOL0     C19515   6.070   7.352   0.727 -0.1897  1.1079  0.4669
  886MOL0     C19516   6.023   7.496   0.692  0.0315  0.1713  0.4305
  886MOL0     C19517   5.986   7.593   0.812 -0.8248  0.9150 -0.2903
  886MOL0     C19518   5.892   7.714   0.772 -0.1110 -0.6215  0.5405
  886MOL0    Cl19519   5.736   7.643   0.723 -0.1006  0.2573 -0.1647
  886MOL0     C19520   6.721   7.345   0.733  0.2276 -0.0203  0.4735
  886MOL0     C19521   6.815   7.438   0.711 -0.1958 -0.5994 -0.0958
  886MOL0     O19522   6.934   7.691   0.637  0.0374  0.1228 -0.1540
  886MOL0     C19523   7.285   7.694   0.760 -0.4425 -0.6413 -0.1864
  886MOL0     C19524   7.395   7.782   0.750  0.3287 -0.4304 -0.2162
  886MOL0     N19525   7.946   7.992   0.735  0.3848  1.5440  0.5589
  886MOL0     N19526   7.973   7.985   0.860 -0.4956  1.1257  0.2523
  886MOL0     C19527   6.974   8.188   0.948 -0.1003  1.0695  0.4320
  886MOL0     C19528   6.833   8.190   0.942  0.1101  0.3299 -0.5249
  886MOL0     C19529   6.391   8.127   0.982  0.5193  0.0056  0.0096
  886MOL0     C19530   6.343   8.029   0.902 -0.4108  0.0641 -1.1437
  886MOL0     C19531   6.216   7.985   0.896 -0.8367  0.6310  0.0831
  886MOL0     C19532   6.116   8.042   0.973  0.2648 -0.8096 -0.2909
  886MOL0     O19533   5.982   7.994   0.966 -0.7014  0.2723  0.3916
  886MOL0     C19534   5.879   8.053   1.046 -0.4762  0.0141 -0.5773
  886MOL0     C19535   5.763   7.955   1.034 -0.1732 -0.6310 -0.0731
  886MOL0     C19536   5.650   7.988   1.138  0.0844 -0.3658  1.3832
  886MOL0     C19537   5.694   7.939   1.273  0.0607  0.1609 -0.0428
  886MOL0     C19538   5.712   7.792   1.277 -0.0929  0.0554 -0.0078
  886MOL0     C19539   5.708   7.674   1.277 -0.1619 -0.5756  0.1409
  886MOL0     C19540   6.156   8.145   1.052  0.3561 -0.3827  0.5845
  886MOL0     C19541   6.290   8.191   1.056  0.7420  0.0254  0.3829
  886MOL0     C19542   6.318   8.316   1.130 -0.2554  0.3104  0.2033
  886MOL0     H19543   6.779   7.867   0.867  1.7449 -0.9765 -1.9124
  886MOL0     H19544   7.019   7.865   0.875  1.3101  1.0022 -0.7526
  886MOL0     H19545   7.368   8.133   0.890 -0.3227  1.1204 -1.9277
  886MOL0     H19546   7.227   8.248   0.923 -1.9822 -0.9035  1.5360
  886MOL0     H19547   7.217   8.195   1.143 -0.4181  0.9131 -1.4993
  886MOL0     H19548   7.396   8.196   1.115  1.2542 -3.0046  1.3783
  886MOL0     H19549   7.227   7.968   1.187 -0.2729  0.5321 -1.2806
  886MOL0     H19550   7.376   8.040   1.251 -0.3274  0.0685 -0.7126
  886MOL0     H19551   7.374   7.803   1.083  1.8250 -0.3622  3.1841
  886MOL0     H19552   7.421   7.927   0.973 -0.2289  0.1254  0.7045
  886MOL0     H19553   7.549   7.905   1.241  0.7184  2.3022 -0.3133
  886MOL0     H19554   7.601   7.818   1.095  1.0047  1.0622 -0.8931
  886MOL0     H19555   7.628   8.045   0.975 -0.6449 -0.0656  0.5577
  886MOL0     H19556   7.596   8.118   1.115 -0.9931 -1.7667  3.1235
  886MOL0     H19557   7.765   7.985   1.241  1.7544 -0.5571 -0.8229
  886MOL0     H19558   7.833   8.101   1.121 -0.0070  1.7842  1.4514
  886MOL0     H19559   7.969   7.911   1.107  1.1678 -1.6470 -0.6379
  886MOL0     H19560   7.835   7.798   1.089  0.2285 -0.2040  1.5420
  886MOL0     H19561   7.679   7.847   0.845 -0.9339  2.0360 -0.0500
  886MOL0     H19562   7.821   7.888   0.508 -1.9803 -0.7160 -0.6680
  886MOL0     H19563   7.666   7.876   0.582 -2.1434  3.2309  2.3311
  886MOL0     H19564   7.831   8.126   0.505  0.1300  0.5519  1.0994
  886MOL0     H19565   7.693   8.079   0.425 -1.0569  1.3182  0.1503
  886MOL0     H19566   7.648   8.267   0.593  1.6121 -0.3395 -0.5731
  886MOL0     H19567   7.687   8.156   0.714  0.4623 -1.2361 -0.6393
  886MOL0     H19568   7.479   8.086   0.498  0.6430  0.3930 -0.8862
  886MOL0     H19569   7.428   8.181   0.643  1.3087 -1.2478  1.8157
  886MOL0     H19570   7.259   8.028   0.567  1.2523 -0.7080 -0.1251
  886MOL0     H19571   7.071   7.884   0.583 -1.9779 -0.0598  3.3130
  886MOL0     H19572   7.047   7.331   0.923 -0.1501  2.9371  0.7251
  886MOL0     H19573   6.902   7.150   0.942  1.3955  1.5463 -0.3189
  886MOL0     H19574   6.534   7.154   0.655  1.1542 -5.9245 -2.1171
  886MOL0     H19575   6.503   7.031   0.779  2.8933 -0.7515 -0.9308
  886MOL0     H19576   6.411   7.199   0.942 -1.1259 -4.8346 -1.7436
  886MOL0     H19577   6.447   7.336   0.836 -3.3756  1.5963  0.1141
  886MOL0     H19578   6.274   7.193   0.669  0.3651 -0.3739 -0.0422
  886MOL0     H19579   6.233   7.151   0.841  1.9662 -1.9026 -0.7770
  886MOL0     H19580   6.273   7.433   0.735 -0.0226 -1.3732 -2.8369
  886MOL0     H19581   6.201   7.376   0.891 -1.1687  1.6566  0.0238
  886MOL0     H19582   6.015   7.301   0.806  0.5217  0.7923  0.7719
  886MOL0     H19583   6.063   7.298   0.633 -1.2649  3.8544 -1.1516
  886MOL0     H19584   6.096   7.554   0.635  2.0966  0.4806  3.1828
  886MOL0     H19585   5.939   7.487   0.623 -0.5629  0.4332  1.1173
  886MOL0     H19586   6.075   7.643   0.853 -0.4274  0.4447 -0.5748
  886MOL0     H19587   5.936   7.527   0.884 -0.7537 -1.1237 -2.0137
  886MOL0     H19588   5.882   7.777   0.862  3.9248 -0.7386  1.2522
  886MOL0     H19589   5.932   7.775   0.691  1.7801 -1.7705  0.5656
  886MOL0     H19590   6.650   7.340   0.651  0.8487 -1.9818  0.0220
  886MOL0     H19591   6.804   7.506   0.627  1.6043  0.1115  0.2069
  886MOL0     H19592   7.301   7.601   0.813  1.7432  0.3756  1.0531
  886MOL0     H19593   7.486   7.749   0.797  0.2757  2.7182  2.4874
  886MOL0     H19594   7.023   8.285   0.959  1.4079  0.1813  2.0354
  886MOL0     H19595   6.791   8.289   0.958  1.3947  0.9580 -0.9201
  886MOL0     H19596   6.419   7.970   0.853  2.1635  0.1621  2.3175
  886MOL0     H19597   6.199   7.899   0.832  2.1959 -0.2149  0.2542
  886MOL0     H19598   5.864   8.153   1.006  3.7433 -0.2064 -3.2669
  886MOL0     H19599   5.912   8.064   1.150  0.2344 -0.2015 -0.7789
  886MOL0     H19600   5.785   7.848   1.037 -0.6231 -0.8420 -2.5949
  886MOL0     H19601   5.702   7.966   0.944 -1.8669  3.0327  1.3105
  886MOL0     H19602   5.552   7.946   1.112 -0.5552  0.6158  2.1169
  886MOL0     H19603   5.628   8.095   1.138  1.8566  0.0454  0.2948
  886MOL0     H19604   5.780   7.998   1.308  1.1759  0.1262 -2.5205
  886MOL0     H19605   5.610   7.953   1.342  0.2096  1.0293 -0.0206
  886MOL0     H19606   5.694   7.569   1.257 -2.0371 -0.3123 -0.1243
  886MOL0     H19607   6.086   8.197   1.117  2.1520 -0.3931  2.6399
  886MOL0     H19608   6.402   8.294   1.197  1.2059 -2.3620 -2.2767
  886MOL0     H19609   6.364   8.391   1.065 -0.0639 -0.8410 -1.0198
  886MOL0     H19610   6.238   8.353   1.195 -0.5310 -0.8666  0.5668
  887MOL0     O19611   6.975   9.934   1.024  0.1615  0.2323  0.6517
  887MOL0     C19612   6.997  10.001   0.921  0.7991 -1.2197  0.1737
  887MOL0     O19613   7.124  10.016   0.867 -0.3729  0.8382  0.3199
  887MOL0     C19614   7.232   9.927   0.888 -0.2624  0.0269 -0.7486
  887MOL0     C19615   7.228   9.796   0.936 -0.0699 -0.1880 -0.1936
  887MOL0     C19616   7.344   9.726   0.971 -1.0825 -0.8693  0.1969
  887MOL0     C19617   7.472   9.784   0.941 -0.9535  0.7315  0.6570
  887MOL0     O19618   7.578   9.701   0.960  0.0217 -0.3285 -0.4169
  887MOL0     C19619   7.711   9.733   0.916 -0.3993 -0.4017 -0.9012
  887MOL0     C19620   7.820   9.677   1.012  0.7750  0.4642  0.1722
  887MOL0     C19621   7.957   9.709   0.967 -0.6443  0.1360  0.3080
  887MOL0     C19622   8.060   9.680   1.081 -0.2417  0.2194  0.6636
  887MOL0     C19623   8.205   9.709   1.047  0.4562 -0.1980 -0.1420
  887MOL0     C19624   8.303   9.646   1.139 -1.3488 -0.2657 -0.0168
  887MOL0     C19625   8.445   9.690   1.110  0.2526  0.2028 -0.2761
  887MOL0     C19626   8.520   9.591   1.009 -0.1116 -0.7464 -0.9075
  887MOL0     N19627   8.634   9.659   0.949 -0.5102 -1.2852  0.6124
  887MOL0     C19628   8.723   9.730   1.028  0.7535  0.6771  0.6776
  887MOL0     C19629   8.793   9.795   0.940 -0.1188  0.2191  0.7768
  887MOL0     C19630   8.872   9.908   0.961 -1.3542 -0.5617  0.0623
  887MOL0     C19631   9.029   9.885   0.976 -0.3764 -0.2639 -0.4520
  887MOL0     C19632   9.085   9.846   0.843  0.1854  0.0864  0.0841
  887MOL0     C19633   9.238   9.845   0.847 -0.6925  0.2132  1.3962
  887MOL0     O19634   9.297   9.835   0.715  0.8103  0.3394 -0.0253
  887MOL0     C19635   9.434   9.808   0.713 -0.0499 -0.1723 -0.0747
  887MOL0     C19636   9.527   9.912   0.689  0.3904  0.0702  0.0934
  887MOL0     C19637   9.657   9.872   0.660 -0.3543  0.1411  0.4490
  887MOL0     C19638   9.700   9.734   0.679 -0.1409 -0.4922  0.0445
  887MOL0     C19639   9.846   9.690   0.666  0.3428 -0.7286 -0.1640
  887MOL0     O19640   9.946   9.783   0.635  0.0956 -0.1098 -0.3287
  887MOL0     C19641  10.084   9.763   0.614  0.4762  0.9496  0.3271
  887MOL0     C19642  10.177   9.858   0.625 -0.1166 -0.4131 -0.0773
  887MOL0     C19643  10.314   9.832   0.609  0.0704 -0.2661  0.1466
  887MOL0     C19644  10.361   9.700   0.569  0.4941 -0.3172  0.0672
  887MOL0     O19645  10.503   9.686   0.557  0.5319 -0.3314 -0.0606
  887MOL0     C19646  10.556   9.548   0.573 -0.2632  0.3690  0.6057
  887MOL0     C19647  10.707   9.549   0.602  0.3268  0.5419 -0.1077
  887MOL0     C19648  10.744   9.406   0.652 -0.4538 -0.4937 -0.0291
  887MOL0     C19649  10.861   9.409   0.737  0.7506 -0.2439  0.0842
  887MOL0     C19650  10.888   9.267   0.796  0.5923 -0.0179 -0.6936
  887MOL0     C19651  10.863   9.151   0.693 -0.7663 -0.3013 -0.6948
  887MOL0     C19652  10.873   9.020   0.762 -0.4159  0.2501 -0.2684
  887MOL0     C19653  10.832   8.901   0.680  0.1787  0.2151  0.0470
  887MOL0    Cl19654  10.888   8.890   0.512  0.5574  0.2546 -0.5728
  887MOL0     C19655  10.268   9.603   0.559  0.7904  0.3405  0.2017
  887MOL0     C19656  10.134   9.632   0.575  0.3811 -0.0326  0.4409
  887MOL0     O19657   9.862   9.569   0.686 -0.7682 -0.8858 -0.0699
  887MOL0     C19658   9.598   9.636   0.699  0.0551 -0.0564  0.2244
  887MOL0     C19659   9.468   9.674   0.709  0.1749 -0.5720 -0.1133
  887MOL0     N19660   8.744   9.780   0.812 -0.5909 -0.1654  0.1920
  887MOL0     N19661   8.646   9.698   0.819  0.0565 -0.3341  0.4969
  887MOL0     C19662   7.476   9.917   0.897 -0.2173  0.0049 -0.2332
  887MOL0     C19663   7.359   9.979   0.857  0.8064 -0.9641 -0.2762
  887MOL0     C19664   6.889  10.089   0.872  0.6417 -0.5982 -0.1197
  887MOL0     C19665   6.929  10.179   0.775  0.1599 -0.3190 -0.2308
  887MOL0     C19666   6.838  10.260   0.721 -0.5297 -0.4386 -0.3728
  887MOL0     C19667   6.708  10.278   0.782 -0.2002 -0.1692  1.2232
  887MOL0     O19668   6.632  10.380   0.720 -0.4923  0.2148  0.1435
  887MOL0     C19669   6.490  10.380   0.745  0.2246  0.1609 -0.1482
  887MOL0     C19670   6.415  10.468   0.639 -0.2457  0.8115 -1.0786
  887MOL0     C19671   6.307  10.540   0.696 -0.4854  0.4241 -0.3027
  887MOL0     C19672   6.189  10.446   0.747  0.3193  0.1142 -0.3404
  887MOL0     C19673   6.091  10.524   0.824 -0.3180 -0.4524  0.1824
  887MOL0     C19674   6.022  10.587   0.903  0.5326 -0.2252  0.4217
  887MOL0     C19675   6.671  10.200   0.884 -0.1367  1.1693 -0.0079
  887MOL0     C19676   6.762  10.107   0.930  1.4140 -0.1413  0.1796
  887MOL0     C19677   6.700  10.009   1.038 -0.3923  0.3956 -0.2783
  887MOL0     H19678   7.130   9.750   0.944 -0.3385  0.2561 -0.8037
  887MOL0     H19679   7.346   9.622   1.002 -1.9756 -2.0465 -3.1728
  887MOL0     H19680   7.725   9.696   0.814 -0.7146 -0.2187 -1.0117
  887MOL0     H19681   7.725   9.841   0.904  1.9504 -0.3992  1.0973
  887MOL0     H19682   7.819   9.568   1.002 -0.1459  0.5971 -1.5757
  887MOL0     H19683   7.802   9.696   1.118  0.6946  0.8196  0.0965
  887MOL0     H19684   7.967   9.816   0.945 -1.9645 -0.0823 -1.5709
  887MOL0     H19685   7.979   9.658   0.873 -0.0102 -0.8427  0.9776
  887MOL0     H19686   8.029   9.748   1.161  2.4683  2.2827  0.0876
  887MOL0     H19687   8.052   9.579   1.124 -5.5508  0.1588  0.2360
  887MOL0     H19688   8.223   9.690   0.941 -1.1378 -0.8564 -0.3209
  887MOL0     H19689   8.218   9.817   1.050 -2.1167  0.1740  0.7558
  887MOL0     H19690   8.282   9.674   1.242  2.1970 -0.6135  0.9288
  887MOL0     H19691   8.304   9.538   1.118 -0.1826  0.1213 -2.2796
  887MOL0     H19692   8.514   9.690   1.195  2.7839 -1.2049 -2.1513
  887MOL0     H19693   8.440   9.792   1.071 -4.5972 -0.5306 -2.3302
  887MOL0     H19694   8.559   9.512   1.073 -0.5514 -0.8008 -0.7096
  887MOL0     H19695   8.453   9.547   0.934 -0.9666 -4.9011  1.9989
  887MOL0     H19696   8.710   9.742   1.135  1.0112  0.9152  0.6844
  887MOL0     H19697   8.861   9.987   0.886 -0.0935  0.7216  1.1706
  887MOL0     H19698   8.852   9.958   1.056  0.3021  1.2179 -0.4530
  887MOL0     H19699   9.069   9.981   1.009 -0.6987 -0.0777 -0.5988
  887MOL0     H19700   9.043   9.811   1.056 -1.3936  1.3124  1.2885
  887MOL0     H19701   9.054   9.910   0.759  2.6256  0.7896 -0.3384
  887MOL0     H19702   9.055   9.742   0.824 -0.6046  0.2074  0.6018
  887MOL0     H19703   9.272   9.767   0.917  0.9731 -0.0010  0.4000
  887MOL0     H19704   9.273   9.939   0.891 -1.9472  0.7003  1.3860
  887MOL0     H19705   9.496  10.016   0.681 -1.0532 -0.3215  0.3034
  887MOL0     H19706   9.728   9.951   0.635 -0.3866 -0.9384 -3.8656
  887MOL0     H19707  10.145   9.957   0.657  0.2105 -0.6792  1.1423
  887MOL0     H19708  10.393   9.904   0.630  0.8159 -1.1259  0.3621
  887MOL0     H19709  10.513   9.502   0.663  2.8916 -0.7225  1.7086
  887MOL0     H19710  10.531   9.493   0.482 -2.0360  2.2504 -0.1163
  887MOL0     H19711  10.765   9.569   0.512 -2.0833  1.3656 -1.5917
  887MOL0     H19712  10.733   9.628   0.674 -0.0109  1.1697 -0.6575
  887MOL0     H19713  10.658   9.370   0.709 -1.1145  1.1918  0.0948
  887MOL0     H19714  10.757   9.344   0.563 -0.5705  2.6058 -2.3738
  887MOL0     H19715  10.853   9.481   0.819 -1.2676 -2.0709  1.5925
  887MOL0     H19716  10.943   9.442   0.672 -0.1936  2.6620  0.2409
  887MOL0     H19717  10.817   9.251   0.877 -3.4189  0.8040 -3.7314
  887MOL0     H19718  10.988   9.263   0.841 -0.3122  1.3340  1.5920
  887MOL0     H19719  10.762   9.163   0.651 -2.9737 -0.5692  3.9221
  887MOL0     H19720  10.938   9.154   0.613 -1.0521  0.3789 -0.9456
  887MOL0     H19721  10.825   9.026   0.860  2.1932  4.0914  1.0588
  887MOL0     H19722  10.978   8.993   0.775 -1.1237 -2.7712 -0.1470
  887MOL0     H19723  10.883   8.814   0.723 -1.0841 -3.0353 -4.2019
  887MOL0     H19724  10.724   8.886   0.689  0.4358 -0.6658  2.1937
  887MOL0     H19725  10.291   9.500   0.538  3.1325  1.3872 -3.1775
  887MOL0     H19726  10.061   9.552   0.563  2.0717 -1.6532  0.5438
  887MOL0     H19727   9.627   9.533   0.683  0.3699  0.0683 -0.0085
  887MOL0     H19728   9.386   9.604   0.717 -2.2357  1.7801 -2.3464
  887MOL0     H19729   7.562   9.980   0.881 -0.9281  0.5703 -2.0682
  887MOL0     H19730   7.357  10.072   0.802  0.9582 -1.2776 -0.8167
  887MOL0     H19731   7.022  10.178   0.719 -0.3431  1.7079 -1.1884
  887MOL0     H19732   6.869  10.325   0.640  2.1253 -0.5051  0.4906
  887MOL0     H19733   6.472  10.428   0.842  0.9345  1.1284 -0.4829
  887MOL0     H19734   6.444  10.281   0.759  0.2215  0.4719  2.8159
  887MOL0     H19735   6.381  10.407   0.555  2.5916 -0.8245 -1.1883
  887MOL0     H19736   6.483  10.537   0.589  1.3046 -0.6812 -1.1217
  887MOL0     H19737   6.262  10.607   0.623  0.1283  1.5988  0.3622
  887MOL0     H19738   6.348  10.598   0.780  0.4701  1.1933 -1.2726
  887MOL0     H19739   6.136  10.400   0.663 -1.0629  1.7852 -0.4349
  887MOL0     H19740   6.229  10.360   0.802  0.1287 -0.8546 -1.6660
  887MOL0     H19741   5.968  10.637   0.981  3.6333  2.5442  1.0119
  887MOL0     H19742   6.575  10.195   0.934  0.3675 -1.9718  0.8424
  887MOL0     H19743   6.742   9.909   1.022  1.1306  1.3621 -2.9729
  887MOL0     H19744   6.729  10.036   1.140 -0.3068 -0.9624  0.0743
  887MOL0     H19745   6.591  10.007   1.033 -0.4005  0.2289 -0.0780
  888MOL0     O19746   3.357   8.530  10.398 -0.4446 -0.2796 -0.1578
  888MOL0     C19747   3.315   8.421  10.414 -0.4325  0.5563  0.8136
  888MOL0     O19748   3.355   8.312  10.337 -0.0866 -0.1246 -1.0997
  888MOL0     C19749   3.453   8.347  10.246  0.3651 -0.0419  0.2507
  888MOL0     C19750   3.589   8.346  10.279  0.9598 -0.4973 -0.0407
  888MOL0     C19751   3.694   8.367  10.184 -0.6185  0.1850  0.0315
  888MOL0     C19752   3.664   8.391  10.051  0.1611  0.8684  0.7430
  888MOL0     O19753   3.757   8.399   9.950  0.2161 -0.6204  0.5627
  888MOL0     C19754   3.886   8.356   9.967  0.6276  0.3697  0.8489
  888MOL0     C19755   3.894   8.206   9.970  0.0303 -0.0263 -0.5347
  888MOL0     C19756   4.014   8.152   9.888 -0.1627  0.5176 -0.0951
  888MOL0     C19757   3.994   8.004   9.866  1.0131  0.2717  0.0649
  888MOL0     C19758   4.117   7.928   9.811  0.6722 -0.4598 -0.2028
  888MOL0     C19759   4.154   7.977   9.672 -0.2250 -0.2443 -0.9514
  888MOL0     C19760   4.287   7.923   9.626 -1.2093  0.7388 -0.0692
  888MOL0     C19761   4.361   8.021   9.524  0.0231 -0.1517  0.8551
  888MOL0     N19762   4.484   7.974   9.471 -0.7505 -0.6098  0.3892
  888MOL0     C19763   4.519   7.841   9.448  0.4347  0.5298 -0.7786
  888MOL0     C19764   4.641   7.843   9.393  0.4716  0.0213  0.5573
  888MOL0     C19765   4.705   7.717   9.334 -0.0485 -0.0989  0.3446
  888MOL0     C19766   4.759   7.738   9.187 -0.0490  1.0788 -0.5043
  888MOL0     C19767   4.832   7.614   9.136 -0.1237  0.7592  0.5791
  888MOL0     C19768   4.900   7.627   9.001 -1.1022 -0.0582  0.7428
  888MOL0     O19769   4.989   7.522   8.970  0.0736  0.2408 -0.3774
  888MOL0     C19770   5.119   7.531   9.016  0.9002  0.2947  0.4662
  888MOL0     C19771   5.188   7.644   9.071 -0.0356 -0.0495 -0.4228
  888MOL0     C19772   5.320   7.623   9.115 -0.4823  0.3740 -0.2796
  888MOL0     C19773   5.381   7.493   9.127 -0.4060  0.1375 -0.1891
  888MOL0     C19774   5.511   7.475   9.204 -0.2846 -0.2819  0.0275
  888MOL0     O19775   5.551   7.579   9.280  0.5391 -0.1379  0.4068
  888MOL0     C19776   5.643   7.574   9.388 -0.7498 -0.1982  0.4208
  888MOL0     C19777   5.660   7.691   9.464  0.3434 -0.6185  0.5186
  888MOL0     C19778   5.752   7.701   9.567  0.5796 -0.1945  0.3920
  888MOL0     C19779   5.839   7.595   9.587  0.3119 -0.0289  0.1022
  888MOL0     O19780   5.944   7.609   9.673 -0.3902 -0.2559 -0.8639
  888MOL0     C19781   5.961   7.509   9.774  0.0016 -0.5152 -1.6468
  888MOL0     C19782   5.826   7.487   9.855 -0.1009 -0.4199  0.3435
  888MOL0     C19783   5.836   7.397   9.975 -0.2234 -0.2576 -0.0669
  888MOL0     C19784   5.700   7.350  10.022  0.4199 -0.0128 -0.1730
  888MOL0     C19785   5.708   7.286  10.160 -0.3320  0.6512  1.2998
  888MOL0     C19786   5.755   7.377  10.271  0.0459 -0.1581  0.0056
  888MOL0     C19787   5.641   7.482  10.313 -0.8370 -1.0955  0.1749
  888MOL0     C19788   5.691   7.576  10.413 -0.8919  0.2118 -0.0477
  888MOL0    Cl19789   5.810   7.675  10.327 -0.1015  0.2728 -0.7134
  888MOL0     C19790   5.819   7.475   9.516  0.3947  0.0539 -0.4777
  888MOL0     C19791   5.723   7.467   9.416 -0.2430  0.5190  0.0224
  888MOL0     O19792   5.581   7.380   9.176  0.5274  0.7790  0.3442
  888MOL0     C19793   5.313   7.387   9.076  0.2688 -0.9536 -0.5252
  888MOL0     C19794   5.182   7.409   9.026 -0.0993  0.6104 -1.5259
  888MOL0     N19795   4.685   7.969   9.380  1.4343  0.1103  1.0098
  888MOL0     N19796   4.598   8.049   9.434  0.3726  0.4791 -0.1545
  888MOL0     C19797   3.529   8.401  10.016  1.4066  0.4378  0.0034
  888MOL0     C19798   3.426   8.370  10.113 -0.0276 -0.8205 -0.9492
  888MOL0     C19799   3.189   8.420  10.482  0.4410 -0.1809 -0.6313
  888MOL0     C19800   3.066   8.416  10.416 -0.5017 -0.0954  0.4323
  888MOL0     C19801   2.945   8.444  10.480  0.3987  0.2797 -0.3531
  888MOL0     C19802   2.945   8.465  10.620 -0.4978 -0.0834  1.2058
  888MOL0     O19803   2.825   8.485  10.688 -0.3389 -0.0509  0.4466
  888MOL0     C19804   2.811   8.408  10.806 -0.2485  0.1425  0.1819
  888MOL0     C19805   2.680   8.440  10.869 -0.4122  0.0782 -0.3219
  888MOL0     C19806   2.660   8.583  10.917  0.1689  0.3504  0.3217
  888MOL0     C19807   2.515   8.609  10.946  0.4791 -0.2083 -0.3019
  888MOL0     C19808   2.441   8.626  10.813 -0.0940  0.2107 -0.3589
  888MOL0     C19809   2.389   8.619  10.702  0.1654  0.6198 -0.6709
  888MOL0     C19810   3.065   8.447  10.684  0.4226  0.3826 -0.0948
  888MOL0     C19811   3.183   8.436  10.619 -0.4814 -0.3219  1.1385
  888MOL0     C19812   3.307   8.437  10.709  0.3561  0.0241  0.1370
  888MOL0     H19813   3.619   8.312  10.378 -0.0695 -1.5482 -0.0769
  888MOL0     H19814   3.794   8.362  10.228 -1.6608 -0.8083  2.5106
  888MOL0     H19815   3.937   8.395   9.879 -1.5412 -2.4825 -1.8624
  888MOL0     H19816   3.925   8.393  10.063 -1.5127 -0.2208  1.9987
  888MOL0     H19817   3.801   8.161   9.936 -1.4203  0.2062  2.7760
  888MOL0     H19818   3.910   8.175  10.074  1.4189 -0.3077 -0.8018
  888MOL0     H19819   4.110   8.161   9.939 -1.0476 -1.6507  2.1713
  888MOL0     H19820   4.017   8.210   9.796  1.0047  2.1863  0.9493
  888MOL0     H19821   3.967   7.953   9.959 -0.2689  1.6348  0.4785
  888MOL0     H19822   3.911   7.992   9.796 -1.2965  1.0865  2.4935
  888MOL0     H19823   4.205   7.925   9.876  1.4577  0.9165 -1.1512
  888MOL0     H19824   4.078   7.826   9.811  3.0954 -1.4533 -0.1817
  888MOL0     H19825   4.067   7.963   9.606 -1.3972  4.5143 -0.7632
  888MOL0     H19826   4.168   8.085   9.674  1.4772 -0.4517  1.3954
  888MOL0     H19827   4.267   7.825   9.581  1.6145 -0.3125  0.6942
  888MOL0     H19828   4.351   7.911   9.715 -0.4797 -2.3997 -0.8869
  888MOL0     H19829   4.308   8.056   9.435  4.4250  0.4829 -1.7863
  888MOL0     H19830   4.380   8.114   9.578 -1.1886 -0.0892  1.2067
  888MOL0     H19831   4.459   7.753   9.471 -1.5085  1.0719 -3.3280
  888MOL0     H19832   4.790   7.684   9.395  0.6846 -0.1445 -0.6637
  888MOL0     H19833   4.623   7.646   9.327  2.0968 -2.7160  0.3032
  888MOL0     H19834   4.673   7.771   9.127 -0.3399 -1.2531 -1.4522
  888MOL0     H19835   4.831   7.819   9.174 -0.2647  1.1308 -1.4635
  888MOL0     H19836   4.772   7.523   9.129  2.9256 -1.3149 -0.9995
  888MOL0     H19837   4.911   7.609   9.211 -1.6287  1.3185  2.2626
  888MOL0     H19838   4.945   7.723   8.975 -1.5995  0.7617  2.7381
  888MOL0     H19839   4.813   7.615   8.936 -2.1836 -1.6384  2.3862
  888MOL0     H19840   5.153   7.746   9.076 -0.3181 -0.1541 -0.2121
  888MOL0     H19841   5.374   7.711   9.147 -1.4429  0.6953  0.5035
  888MOL0     H19842   5.593   7.775   9.452  2.3700  1.4090  2.4297
  888MOL0     H19843   5.760   7.793   9.625 -0.6823 -0.8143  1.6202
  888MOL0     H19844   5.991   7.413   9.730 -0.3182 -1.5810  0.3265
  888MOL0     H19845   6.038   7.540   9.845 -0.6505 -0.2701 -1.0449
  888MOL0     H19846   5.787   7.585   9.885 -0.2041  0.5411 -2.5738
  888MOL0     H19847   5.756   7.442   9.785  1.4256 -1.3501 -0.6531
  888MOL0     H19848   5.906   7.314   9.960  1.8531  0.3376  4.6642
  888MOL0     H19849   5.889   7.453  10.052 -1.8990  0.6588  0.4752
  888MOL0     H19850   5.669   7.276   9.948  1.8186 -0.9013  0.0935
  888MOL0     H19851   5.623   7.428  10.020  0.4320  0.0450  0.9291
  888MOL0     H19852   5.778   7.203  10.145 -2.0451 -0.5424 -0.6351
  888MOL0     H19853   5.608   7.251  10.187 -0.3619 -1.3507 -0.9860
  888MOL0     H19854   5.785   7.326  10.363  3.7461  4.1063  1.5208
  888MOL0     H19855   5.838   7.437  10.231 -0.6960 -0.3214 -1.9061
  888MOL0     H19856   5.566   7.413  10.354  2.4149 -2.6641  4.2275
  888MOL0     H19857   5.598   7.538  10.229 -0.3933 -3.0590 -1.4445
  888MOL0     H19858   5.616   7.634  10.468  0.4860 -0.3003  2.5585
  888MOL0     H19859   5.748   7.522  10.490  1.5312 -0.0828 -1.9237
  888MOL0     H19860   5.892   7.395   9.519  1.4931  1.0599  1.1745
  888MOL0     H19861   5.717   7.375   9.360 -2.4909  1.4861 -1.4860
  888MOL0     H19862   5.343   7.283   9.089 -0.1964 -0.9026  1.1263
  888MOL0     H19863   5.134   7.322   8.984  1.7365 -0.5393 -1.3866
  888MOL0     H19864   3.488   8.424   9.918 -0.2112 -1.5132  0.1525
  888MOL0     H19865   3.319   8.373  10.092 -0.7093 -1.4402  2.0381
  888MOL0     H19866   3.058   8.401  10.309 -1.1332 -4.4174  0.8821
  888MOL0     H19867   2.856   8.446  10.419 -1.4503 -0.4716  2.1289
  888MOL0     H19868   2.894   8.420  10.876  1.3889 -1.1530 -1.4343
  888MOL0     H19869   2.806   8.299  10.790 -3.2482 -0.0403  1.6166
  888MOL0     H19870   2.656   8.373  10.952  1.6945 -0.8025 -0.3541
  888MOL0     H19871   2.606   8.425  10.790 -0.2554  2.6813 -1.0494
  888MOL0     H19872   2.693   8.659  10.846 -2.4312  1.8246  0.5552
  888MOL0     H19873   2.726   8.608  11.001  3.7051  0.7921 -2.3562
  888MOL0     H19874   2.474   8.524  11.002  0.4830 -0.4209 -0.6122
  888MOL0     H19875   2.499   8.703  10.999 -0.9351 -1.7513  2.1852
  888MOL0     H19876   2.356   8.617  10.600  1.2003 -1.0547 -1.0188
  888MOL0     H19877   3.075   8.456  10.792  3.4475  1.0530 -0.3473
  888MOL0     H19878   3.366   8.345  10.715  0.9660  0.5133  2.6907
  888MOL0     H19879   3.374   8.514  10.668  0.3736  0.5096  1.0452
  888MOL0     H19880   3.286   8.474  10.810  0.3888 -0.4278  0.3106
  889MOL0     O19881   6.095   5.464   9.848  0.4467 -0.4764 -0.7584
  889MOL0     C19882   6.118   5.449   9.968  0.2260  0.5331 -0.1081
  889MOL0     O19883   6.029   5.407  10.061  0.5089 -0.5486  0.0472
  889MOL0     C19884   5.897   5.414  10.056  0.6027 -0.7391 -0.5321
  889MOL0     C19885   5.826   5.520   9.998  0.5375  0.7307  0.9142
  889MOL0     C19886   5.690   5.508   9.985 -0.6826 -0.4310  0.8316
  889MOL0     C19887   5.621   5.406  10.035  0.7420  0.2788  0.8993
  889MOL0     O19888   5.487   5.412  10.010 -0.1432  0.3997  0.1601
  889MOL0     C19889   5.449   5.330   9.897  0.2254  0.7946 -0.2309
  889MOL0     C19890   5.304   5.359   9.884 -0.3843 -1.0821 -0.1192
  889MOL0     C19891   5.204   5.288   9.977 -0.3771 -0.2259 -0.0294
  889MOL0     C19892   5.117   5.177   9.909  1.0183 -0.2339  0.2947
  889MOL0     C19893   4.981   5.147   9.977 -0.7225 -0.7649 -0.2306
  889MOL0     C19894   4.908   5.051   9.888 -0.1525  0.0146 -0.4413
  889MOL0     C19895   4.785   5.008   9.957 -0.3273 -0.3829 -1.1407
  889MOL0     C19896   4.687   4.928   9.869  0.2297 -0.0249  0.4721
  889MOL0     N19897   4.576   4.884   9.952 -0.3421  0.3011 -0.9849
  889MOL0     C19898   4.469   4.955   9.984  0.8185  0.4458  0.2074
  889MOL0     C19899   4.390   4.864  10.050  0.0499  0.0248  0.2462
  889MOL0     C19900   4.254   4.896  10.108  0.2866 -0.0300  0.4955
  889MOL0     C19901   4.136   4.806  10.068 -0.4086 -0.1416 -0.6018
  889MOL0     C19902   4.117   4.784   9.919 -0.1681  0.8077  0.2442
  889MOL0     C19903   4.021   4.668   9.914 -0.6316 -0.3254  0.4285
  889MOL0     O19904   3.994   4.645   9.776  0.6514 -0.1879  0.0173
  889MOL0     C19905   4.084   4.607   9.672  0.3095 -0.8988  0.5025
  889MOL0     C19906   4.216   4.564   9.704 -0.3635 -0.7668  0.0180
  889MOL0     C19907   4.308   4.536   9.595  0.0462 -0.2018 -0.5690
  889MOL0     C19908   4.271   4.547   9.461 -0.0618  0.4476  0.0195
  889MOL0     C19909   4.366   4.521   9.351  0.3731  0.2151 -0.0174
  889MOL0     O19910   4.326   4.510   9.221  0.5650  0.8104  0.5336
  889MOL0     C19911   4.407   4.481   9.114  0.0010  1.0233  0.4236
  889MOL0     C19912   4.344   4.457   8.989  0.0768  0.0462  0.3130
  889MOL0     C19913   4.425   4.453   8.878 -0.6779 -1.6821 -0.3393
  889MOL0     C19914   4.566   4.432   8.878  0.1242 -0.4264  0.0770
  889MOL0     O19915   4.655   4.418   8.770  0.1684  0.9073 -0.2073
  889MOL0     C19916   4.602   4.419   8.637 -0.9371 -0.9615 -0.0215
  889MOL0     C19917   4.704   4.378   8.531  0.0658  0.1063  0.2822
  889MOL0     C19918   4.831   4.462   8.525 -0.0958  0.4442 -0.2662
  889MOL0     C19919   4.913   4.417   8.403 -0.1417 -0.5531 -0.1324
  889MOL0     C19920   5.055   4.483   8.396  0.6037 -0.2365  0.1410
  889MOL0     C19921   5.163   4.417   8.481  0.7583  1.1159 -1.0453
  889MOL0     C19922   5.280   4.516   8.488  0.2552 -0.0764  0.5195
  889MOL0     C19923   5.404   4.459   8.545 -0.7471  0.9110  0.9443
  889MOL0    Cl19924   5.533   4.585   8.551 -0.1476 -0.3421  0.0989
  889MOL0     C19925   4.629   4.436   9.003 -0.5114 -0.9262  0.6342
  889MOL0     C19926   4.552   4.477   9.115  0.1172 -0.0287  0.0465
  889MOL0     O19927   4.479   4.476   9.398  0.0188 -0.0813  0.5748
  889MOL0     C19928   4.139   4.587   9.432  0.3820 -0.6116 -1.0348
  889MOL0     C19929   4.049   4.617   9.535 -0.5681  0.3925  0.2263
  889MOL0     N19930   4.441   4.737  10.036 -0.3190 -0.6993 -0.6567
  889MOL0     N19931   4.546   4.753   9.977  0.5117  0.7616 -0.1337
  889MOL0     C19932   5.680   5.305  10.100 -0.1369 -0.3154 -0.7867
  889MOL0     C19933   5.822   5.312  10.122 -0.1943  0.7607  0.7136
  889MOL0     C19934   6.258   5.443  10.012 -0.1439 -0.2007 -0.9606
  889MOL0     C19935   6.289   5.378  10.126 -0.6276 -0.0516  0.2142
  889MOL0     C19936   6.424   5.362  10.170 -0.6955  1.3290 -0.1709
  889MOL0     C19937   6.534   5.418  10.099 -0.1336  1.1125  0.2878
  889MOL0     O19938   6.663   5.389  10.118  0.2450 -0.1227 -0.2016
  889MOL0     C19939   6.711   5.329  10.246  0.0263  0.3169  0.7340
  889MOL0     C19940   6.871   5.326  10.258  0.1469  0.0462  0.0604
  889MOL0     C19941   6.926   5.460  10.213 -0.3601 -0.7462 -0.2348
  889MOL0     C19942   7.068   5.488  10.250 -0.8809 -0.3706 -0.1802
  889MOL0     C19943   7.115   5.615  10.203 -0.1729  0.9939  0.3196
  889MOL0     C19944   7.171   5.714  10.163 -1.3084 -0.2340 -0.4067
  889MOL0     C19945   6.500   5.484   9.982 -0.3217  0.2430  0.1231
  889MOL0     C19946   6.365   5.496   9.940  0.8508 -0.4316 -0.4412
  889MOL0     C19947   6.340   5.587   9.817 -0.3379 -0.2210  0.3810
  889MOL0     H19948   5.866   5.601   9.938 -1.8585  1.0919 -0.3170
  889MOL0     H19949   5.636   5.581   9.926 -0.7483  2.3996  4.0781
  889MOL0     H19950   5.508   5.347   9.807 -1.6386 -0.6166 -1.8155
  889MOL0     H19951   5.470   5.223   9.911 -0.2685  0.8030  0.6368
  889MOL0     H19952   5.289   5.347   9.776  1.7807  1.5867 -0.8213
  889MOL0     H19953   5.291   5.464   9.911 -3.7371 -1.6653  1.0776
  889MOL0     H19954   5.137   5.358  10.027 -0.3117  0.2298 -0.5723
  889MOL0     H19955   5.248   5.231  10.059 -0.5059 -1.9919 -1.1155
  889MOL0     H19956   5.101   5.205   9.804  1.1760  1.2528  0.6377
  889MOL0     H19957   5.163   5.079   9.922 -3.5190 -3.0321 -1.9826
  889MOL0     H19958   4.985   5.105  10.078  1.2832 -0.3278 -0.0892
  889MOL0     H19959   4.925   5.240   9.990 -2.3605 -1.6811 -0.4476
  889MOL0     H19960   4.864   5.094   9.798 -3.3202 -0.7352  0.6425
  889MOL0     H19961   4.970   4.962   9.871 -1.6741 -0.7838 -2.1827
  889MOL0     H19962   4.735   5.098   9.995  1.8690  0.3501  0.1882
  889MOL0     H19963   4.820   4.938  10.033  1.0691 -0.1173 -1.5131
  889MOL0     H19964   4.649   4.994   9.790  2.3360  0.7434  0.0373
  889MOL0     H19965   4.733   4.844   9.816  0.8234  1.6838 -1.8796
  889MOL0     H19966   4.445   5.060   9.975 -2.7731 -0.3534 -1.3507
  889MOL0     H19967   4.255   4.897  10.218 -2.2546 -2.3190  0.6552
  889MOL0     H19968   4.247   5.001  10.079 -0.0285  0.2160  1.4305
  889MOL0     H19969   4.150   4.710  10.118 -1.2780  0.3320  0.6137
  889MOL0     H19970   4.041   4.846  10.104  0.4682  0.7327  0.8578
  889MOL0     H19971   4.215   4.754   9.880 -1.2965 -1.2860 -1.1314
  889MOL0     H19972   4.076   4.865   9.859 -0.6583 -0.6019 -1.4010
  889MOL0     H19973   3.931   4.690   9.973 -1.0444 -0.8250 -0.0043
  889MOL0     H19974   4.068   4.580   9.958 -1.2207  0.3430  2.4841
  889MOL0     H19975   4.240   4.540   9.807 -1.9009 -0.8729  0.3890
  889MOL0     H19976   4.408   4.508   9.624 -0.2351  1.3433  2.2777
  889MOL0     H19977   4.237   4.450   8.969  0.3207 -3.0604 -0.3880
  889MOL0     H19978   4.380   4.458   8.780 -0.0043 -0.6305 -0.6124
  889MOL0     H19979   4.512   4.357   8.630 -1.1984 -0.4989 -0.9497
  889MOL0     H19980   4.577   4.522   8.611 -0.4809 -0.6137  0.8730
  889MOL0     H19981   4.729   4.271   8.536 -3.3583 -0.8936 -0.7627
  889MOL0     H19982   4.654   4.397   8.436  3.2806 -0.9854 -1.7695
  889MOL0     H19983   4.803   4.568   8.525 -1.1300  0.2037  1.2948
  889MOL0     H19984   4.886   4.445   8.618 -3.1907  2.2450  2.0870
  889MOL0     H19985   4.861   4.453   8.313  2.2534  0.8628 -1.0290
  889MOL0     H19986   4.921   4.308   8.407 -0.7858 -0.6988 -1.8205
  889MOL0     H19987   5.042   4.583   8.439  0.3588 -0.1255 -0.1862
  889MOL0     H19988   5.083   4.507   8.293 -0.0534  0.9043  0.2045
  889MOL0     H19989   5.128   4.393   8.581  0.6932  0.0263 -1.3218
  889MOL0     H19990   5.180   4.317   8.439 -2.1772  0.0647  0.0907
  889MOL0     H19991   5.257   4.600   8.555 -0.8452  0.8825 -0.9760
  889MOL0     H19992   5.305   4.546   8.386  1.8581 -3.4687 -0.2131
  889MOL0     H19993   5.387   4.406   8.639 -2.2093 -2.6039 -1.0846
  889MOL0     H19994   5.444   4.387   8.473  1.3904 -0.2102  3.0891
  889MOL0     H19995   4.736   4.424   9.008 -0.1979  1.3805  0.7378
  889MOL0     H19996   4.602   4.496   9.209 -1.4172 -1.9646  1.3375
  889MOL0     H19997   4.118   4.591   9.326 -0.8211  3.3212 -0.8453
  889MOL0     H19998   3.953   4.659   9.509 -0.1593  3.2516  2.7756
  889MOL0     H19999   5.614   5.227  10.137 -0.5536 -1.1086 -3.0328
  889MOL0     H20000   5.868   5.236  10.184 -0.3534  2.0293  2.4487
  889MOL0     H20001   6.212   5.317  10.173  1.1207 -3.1639 -0.7000
  889MOL0     H20002   6.440   5.306  10.262 -0.2083  1.4530 -0.1791
  889MOL0     H20003   6.668   5.229  10.256  0.9791 -0.1884  0.0227
  889MOL0     H20004   6.681   5.387  10.334 -0.5410  1.0624  0.0527
  889MOL0     H20005   6.912   5.257  10.183 -0.1885  0.7335 -0.7820
  889MOL0     H20006   6.901   5.296  10.358 -0.4799  3.5089  1.4267
  889MOL0     H20007   6.863   5.543  10.245 -1.1439 -0.9652 -1.1510
  889MOL0     H20008   6.925   5.460  10.103  1.0928 -2.6906 -0.2869
  889MOL0     H20009   7.069   5.485  10.360 -2.6632  1.1606 -0.0532
  889MOL0     H20010   7.141   5.417  10.212 -1.3705  0.2308 -2.3770
  889MOL0     H20011   7.213   5.809  10.138 -0.3602 -0.5278  0.0217
  889MOL0     H20012   6.584   5.526   9.928 -0.1028 -1.0218 -0.5661
  889MOL0     H20013   6.309   5.526   9.732 -1.6978 -1.6164  1.8035
  889MOL0     H20014   6.257   5.657   9.832 -2.8282 -1.2937 -5.4356
  889MOL0     H20015   6.433   5.642   9.807  0.4344 -1.2202  1.6855
  890MOL0     O20016   1.406   8.730   2.937  0.6678 -0.4457  0.0870
  890MOL0     C20017   1.454   8.681   2.837  0.1233 -0.2280 -1.1789
  890MOL0     O20018   1.586   8.635   2.825  0.0935 -0.1274  0.5219
  890MOL0     C20019   1.677   8.643   2.930 -0.8693  0.8099  0.7722
  890MOL0     C20020   1.646   8.637   3.064 -0.2304  0.1218 -0.0403
  890MOL0     C20021   1.747   8.636   3.158  0.0295 -0.5992 -0.3524
  890MOL0     C20022   1.885   8.645   3.117  0.7574  0.1962  0.5346
  890MOL0     O20023   1.976   8.664   3.211 -1.0252 -0.0023  0.1781
  890MOL0     C20024   2.016   8.799   3.227  0.2401  0.3569 -0.7851
  890MOL0     C20025   2.147   8.802   3.301  0.4126 -0.6974 -0.3308
  890MOL0     C20026   2.254   8.828   3.193 -0.2483  0.6345 -0.0988
  890MOL0     C20027   2.272   8.967   3.133 -0.0435 -0.7270  0.7051
  890MOL0     C20028   2.331   8.953   2.987 -0.1601 -0.7972  0.3932
  890MOL0     C20029   2.364   9.092   2.936 -0.7263  0.6044  0.0569
  890MOL0     C20030   2.415   9.092   2.783  0.3821  0.7205 -0.2105
  890MOL0     C20031   2.289   9.069   2.688  0.4428 -0.3219 -0.4370
  890MOL0     N20032   2.329   9.015   2.558  0.2048  0.0123  0.2593
  890MOL0     C20033   2.348   9.084   2.438  0.2177 -0.4143 -1.1579
  890MOL0     C20034   2.349   8.984   2.348 -0.3494 -0.4033 -0.3826
  890MOL0     C20035   2.334   8.994   2.198  0.2422 -0.1604 -0.0277
  890MOL0     C20036   2.402   8.874   2.118  0.0039 -0.2666 -0.4175
  890MOL0     C20037   2.326   8.733   2.125 -0.2319 -0.5779  0.0478
  890MOL0     C20038   2.188   8.746   2.058  0.4009  0.5172 -0.6852
  890MOL0     O20039   2.207   8.795   1.923 -0.6787  0.0588 -0.5622
  890MOL0     C20040   2.097   8.811   1.842 -0.4581 -0.1889 -0.1846
  890MOL0     C20041   1.969   8.769   1.879  0.2041  1.6558 -0.2245
  890MOL0     C20042   1.850   8.791   1.803  0.6641  0.0369 -0.2329
  890MOL0     C20043   1.865   8.865   1.679  0.0594 -0.6206  0.9488
  890MOL0     C20044   1.751   8.899   1.590  1.0096  0.1322 -0.5065
  890MOL0     O20045   1.686   8.791   1.527  0.4399  0.8181  0.2372
  890MOL0     C20046   1.588   8.801   1.424 -0.3896 -1.1669  0.5283
  890MOL0     C20047   1.610   8.874   1.311 -1.0359  0.1467 -0.1335
  890MOL0     C20048   1.518   8.871   1.208  0.1515  1.2970 -0.0113
  890MOL0     C20049   1.394   8.808   1.223  0.9272  0.5422  0.9385
  890MOL0     O20050   1.314   8.833   1.113  0.7237 -0.0811  0.3476
  890MOL0     C20051   1.199   8.747   1.103 -0.1848  0.8443  0.1055
  890MOL0     C20052   1.126   8.773   0.972  0.2757  0.3476 -0.0273
  890MOL0     C20053   1.019   8.669   0.930 -0.1222 -0.0030 -0.0539
  890MOL0     C20054   0.968   8.665   0.783 -0.1870  0.3552  0.3831
  890MOL0     C20055   0.833   8.601   0.775 -0.4429 -0.1289  0.0975
  890MOL0     C20056   0.787   8.575   0.632  0.7440  0.1685 -0.5806
  890MOL0     C20057   0.683   8.462   0.626 -0.5811 -0.3932 -0.2535
  890MOL0     C20058   0.679   8.388   0.494  0.2864 -0.1025 -0.1137
  890MOL0    Cl20059   0.843   8.325   0.439 -0.1046 -0.4206  0.1207
  890MOL0     C20060   1.376   8.718   1.328  1.1941 -0.9045 -0.1878
  890MOL0     C20061   1.476   8.720   1.423 -0.5795 -0.0596 -0.9094
  890MOL0     O20062   1.736   9.020   1.564 -0.1778  0.0063 -0.6987
  890MOL0     C20063   1.993   8.908   1.642 -0.1566 -0.9813  0.5442
  890MOL0     C20064   2.106   8.885   1.723 -0.2082  0.2263 -0.8301
  890MOL0     N20065   2.345   8.862   2.412 -0.0254  0.1328  0.5813
  890MOL0     N20066   2.324   8.879   2.532 -1.1196  0.4937 -0.5165
  890MOL0     C20067   1.918   8.644   2.979  0.1961  0.6769 -0.4749
  890MOL0     C20068   1.812   8.642   2.892 -0.6101 -0.7346 -0.0979
  890MOL0     C20069   1.366   8.654   2.721  0.3205 -0.4658 -0.0187
  890MOL0     C20070   1.426   8.645   2.594 -0.6866  0.6173  0.1696
  890MOL0     C20071   1.353   8.625   2.480  0.0069 -0.1308  0.3126
  890MOL0     C20072   1.211   8.626   2.474  0.2516  0.0402  0.7121
  890MOL0     O20073   1.137   8.603   2.361  0.1389 -0.3820 -0.1119
  890MOL0     C20074   1.191   8.507   2.272 -0.6257  0.3769  0.1223
  890MOL0     C20075   1.089   8.447   2.177 -0.5825 -0.7130  0.3515
  890MOL0     C20076   0.990   8.365   2.256  0.5257  0.1620 -0.3077
  890MOL0     C20077   0.875   8.317   2.169  0.4759 -0.0685  0.5946
  890MOL0     C20078   0.773   8.263   2.257  0.4261 -1.3247  0.5904
  890MOL0     C20079   0.705   8.217   2.340  0.0804 -0.3387  0.2974
  890MOL0     C20080   1.153   8.643   2.594  0.9179 -0.5163 -1.0853
  890MOL0     C20081   1.221   8.659   2.718 -0.5212  0.2996 -0.4729
  890MOL0     C20082   1.142   8.679   2.838 -0.0791 -0.4802 -0.1818
  890MOL0     H20083   1.541   8.634   3.091 -0.4904 -2.2491 -1.1193
  890MOL0     H20084   1.728   8.624   3.264  1.1601 -2.4065 -0.3300
  890MOL0     H20085   2.026   8.853   3.133 -3.3712  0.7164 -1.0821
  890MOL0     H20086   1.950   8.858   3.291  2.2595  2.5741 -0.5720
  890MOL0     H20087   2.170   8.701   3.335 -1.0731 -1.4397 -1.4161
  890MOL0     H20088   2.141   8.873   3.384 -0.3578 -1.2752  0.1139
  890MOL0     H20089   2.228   8.757   3.114  2.0619  1.4376 -1.6950
  890MOL0     H20090   2.352   8.797   3.231 -1.1691 -0.7214  1.3106
  890MOL0     H20091   2.180   9.027   3.130 -1.0620 -2.2570 -0.5554
  890MOL0     H20092   2.344   9.025   3.192 -1.2576  0.3929  1.1404
  890MOL0     H20093   2.417   8.884   2.987  1.6222  1.3229  0.8528
  890MOL0     H20094   2.253   8.910   2.925 -0.7102  3.2003 -2.0041
  890MOL0     H20095   2.275   9.154   2.949 -0.7173  0.5691  0.2936
  890MOL0     H20096   2.441   9.140   2.997 -0.1477  0.5998 -0.6430
  890MOL0     H20097   2.496   9.020   2.768  3.8241  3.6631  2.4820
  890MOL0     H20098   2.464   9.181   2.742  1.2645  0.4687  0.2649
  890MOL0     H20099   2.228   8.993   2.736  2.7681 -0.9726  1.6501
  890MOL0     H20100   2.230   9.161   2.675  2.6152  1.1193 -0.6392
  890MOL0     H20101   2.352   9.189   2.410 -0.0530  0.9156  3.0550
  890MOL0     H20102   2.228   9.012   2.181  0.0907 -0.3370  0.7263
  890MOL0     H20103   2.379   9.088   2.164 -0.1091 -0.4267 -1.2998
  890MOL0     H20104   2.407   8.917   2.018 -2.2236  1.0086 -0.0716
  890MOL0     H20105   2.509   8.881   2.138  0.7367  1.2345 -4.0303
  890MOL0     H20106   2.320   8.695   2.228 -0.9718  0.2715  0.3336
  890MOL0     H20107   2.380   8.663   2.061 -0.3680 -0.8712  0.2541
  890MOL0     H20108   2.136   8.811   2.129  2.9095  0.1234  1.6910
  890MOL0     H20109   2.140   8.648   2.065  1.4396  0.0266 -0.2626
  890MOL0     H20110   1.962   8.731   1.980  2.5382 -0.3705 -0.7262
  890MOL0     H20111   1.751   8.769   1.842  2.6743 -2.8603  4.0435
  890MOL0     H20112   1.693   8.943   1.304 -0.1831 -0.9481 -1.3840
  890MOL0     H20113   1.528   8.940   1.125 -0.8041  0.9535 -0.4314
  890MOL0     H20114   1.237   8.645   1.108 -0.9960  0.5998  2.7062
  890MOL0     H20115   1.128   8.758   1.186  0.7622  1.5066  0.8581
  890MOL0     H20116   1.083   8.874   0.969  1.6300  0.9101 -1.6335
  890MOL0     H20117   1.203   8.791   0.897  1.7056 -1.4779  0.9327
  890MOL0     H20118   1.062   8.570   0.950 -1.8554 -0.9765 -0.8838
  890MOL0     H20119   0.940   8.686   1.003  0.0089  0.0403  0.0775
  890MOL0     H20120   1.033   8.618   0.708  0.6590  2.0098  0.0106
  890MOL0     H20121   0.949   8.769   0.755  0.0038  0.1344 -0.6273
  890MOL0     H20122   0.754   8.641   0.839  1.3061 -2.4314  4.1156
  890MOL0     H20123   0.840   8.505   0.827 -0.8359 -1.8382 -2.7765
  890MOL0     H20124   0.735   8.663   0.593  1.2648  0.3431 -0.8855
  890MOL0     H20125   0.870   8.547   0.566  1.4800 -1.5511  0.9722
  890MOL0     H20126   0.579   8.482   0.656  0.2199 -0.7524  3.2040
  890MOL0     H20127   0.715   8.388   0.699  0.1341  0.9831  0.8760
  890MOL0     H20128   0.603   8.310   0.496  3.7166 -3.8249  1.9019
  890MOL0     H20129   0.643   8.448   0.411  1.5764 -2.2709 -2.3830
  890MOL0     H20130   1.286   8.660   1.343  1.1429 -0.0844  3.8706
  890MOL0     H20131   1.480   8.656   1.511  1.2882  2.6869  1.1798
  890MOL0     H20132   2.016   8.956   1.547 -1.6120 -0.7632  0.2885
  890MOL0     H20133   2.207   8.917   1.701 -0.0637 -0.6134 -1.4522
  890MOL0     H20134   2.018   8.659   2.939  0.1633 -0.2299 -0.9145
  890MOL0     H20135   1.830   8.650   2.785  0.2520  0.2219  0.1103
  890MOL0     H20136   1.535   8.641   2.587 -0.6128 -0.9607  1.4829
  890MOL0     H20137   1.414   8.626   2.391 -0.9851  1.4628 -0.4008
  890MOL0     H20138   1.220   8.431   2.345  2.8638  1.7180  0.3127
  890MOL0     H20139   1.279   8.541   2.217 -1.7115  0.1050 -1.8688
  890MOL0     H20140   1.140   8.387   2.100  0.5182  3.2553 -2.3410
  890MOL0     H20141   1.033   8.521   2.119  1.4716 -0.4069 -1.3628
  890MOL0     H20142   0.947   8.429   2.334 -0.2144  0.1456 -0.6962
  890MOL0     H20143   1.037   8.283   2.312  1.9481  0.1550 -1.4548
  890MOL0     H20144   0.842   8.397   2.102  2.8832  0.1296 -0.4684
  890MOL0     H20145   0.909   8.233   2.107  2.3231  1.6938 -0.9201
  890MOL0     H20146   0.628   8.191   2.409 -2.8843  1.1550 -2.1775
  890MOL0     H20147   1.047   8.664   2.595  1.1191  1.0852  2.3466
  890MOL0     H20148   1.159   8.590   2.899 -1.8356 -4.0319 -4.3519
  890MOL0     H20149   1.160   8.775   2.887 -0.2312  0.1873 -1.3968
  890MOL0     H20150   1.036   8.687   2.815 -0.2820  0.1773  0.9261
  891MOL0     O20151   1.350  11.338   9.028 -0.5307  0.1973  0.5111
  891MOL0     C20152   1.440  11.413   8.985 -0.6627  0.8572  0.5657
  891MOL0     O20153   1.439  11.478   8.871 -0.9669 -0.0404  0.3323
  891MOL0     C20154   1.334  11.471   8.788  0.9116  0.7529 -0.3988
  891MOL0     C20155   1.329  11.362   8.699 -0.3433 -0.1802  1.2944
  891MOL0     C20156   1.233  11.352   8.605  0.2971  0.6647  0.4701
  891MOL0     C20157   1.135  11.453   8.598 -0.1371 -0.1938 -0.3534
  891MOL0     O20158   1.038  11.457   8.504  1.0998 -0.5488 -0.3464
  891MOL0     C20159   0.984  11.329   8.451 -0.3022 -0.7372 -0.5788
  891MOL0     C20160   0.847  11.281   8.515  1.3886 -0.0002 -0.0388
  891MOL0     C20161   0.783  11.172   8.422 -0.5929 -1.3172  1.0362
  891MOL0     C20162   0.672  11.084   8.483 -0.7540  0.8197  0.2896
  891MOL0     C20163   0.557  11.164   8.543 -0.9559  0.1907  0.3673
  891MOL0     C20164   0.472  11.209   8.421 -0.4002  0.4653  0.7110
  891MOL0     C20165   0.334  11.260   8.453  0.2089 -0.1903  1.1416
  891MOL0     C20166   0.242  11.138   8.492  0.7465  0.3682  0.0926
  891MOL0     N20167   0.099  11.173   8.488  0.0583  0.2565  0.0947
  891MOL0     C20168   0.019  11.144   8.384 -0.1408  0.2158  1.4248
  891MOL0     C20169  -0.100  11.202   8.419 -0.1264  0.4151  0.1739
  891MOL0     C20170  -0.234  11.187   8.345 -0.1752  0.4135  0.8443
  891MOL0     C20171  -0.292  11.045   8.361 -0.1009  1.0188 -0.6251
  891MOL0     C20172  -0.274  10.954   8.241 -0.5462  0.4383 -0.3205
  891MOL0     C20173  -0.333  10.811   8.260  1.1677 -0.7786 -0.3796
  891MOL0     O20174  -0.460  10.812   8.332 -0.0247 -0.4952  0.2740
  891MOL0     C20175  -0.576  10.799   8.262  0.3956  0.1471  0.0522
  891MOL0     C20176  -0.590  10.856   8.137 -0.6115 -0.7525 -0.9482
  891MOL0     C20177  -0.714  10.848   8.067  0.7191 -0.3300  0.4325
  891MOL0     C20178  -0.824  10.787   8.130  0.3705  0.3880 -0.5025
  891MOL0     C20179  -0.958  10.795   8.073 -0.0874 -0.5936 -0.0248
  891MOL0     O20180  -1.066  10.747   8.144 -0.0309  0.1757  0.0131
  891MOL0     C20181  -1.194  10.755   8.092  0.6127 -0.4480 -0.2310
  891MOL0     C20182  -1.231  10.759   7.952  0.5459  0.4460 -0.2014
  891MOL0     C20183  -1.358  10.726   7.919  0.9788  0.1847 -0.2484
  891MOL0     C20184  -1.472  10.706   8.012  0.5060 -0.0221  0.1895
  891MOL0     O20185  -1.591  10.661   7.953 -0.6666 -0.2323 -0.1678
  891MOL0     C20186  -1.697  10.631   8.035  0.0109  1.0267  0.0908
  891MOL0     C20187  -1.818  10.614   7.941 -0.2797  0.3990 -0.0056
  891MOL0     C20188  -1.950  10.571   8.002 -0.7025  0.6970  0.8582
  891MOL0     C20189  -2.011  10.451   7.928 -0.3547 -0.1708 -0.6622
  891MOL0     C20190  -2.147  10.409   8.001  0.7215 -0.2612  0.7487
  891MOL0     C20191  -2.215  10.302   7.916 -0.0233 -0.2466 -0.9481
  891MOL0     C20192  -2.348  10.255   7.972 -0.0486 -0.2446  0.3626
  891MOL0     C20193  -2.396  10.141   7.883  0.6302  0.0854  0.0635
  891MOL0    Cl20194  -2.291  10.002   7.918  0.3721  0.5689  0.1245
  891MOL0     C20195  -1.439  10.720   8.154 -0.3009 -0.2348 -0.9565
  891MOL0     C20196  -1.300  10.733   8.183  0.2873  0.1648 -0.2708
  891MOL0     O20197  -0.964  10.844   7.957  0.7541  0.0763 -0.4461
  891MOL0     C20198  -0.819  10.745   8.264  0.0317  0.8367  0.3150
  891MOL0     C20199  -0.688  10.739   8.321  0.3080  0.3367 -0.2657
  891MOL0     N20200  -0.082  11.272   8.539  0.0846 -0.2714  0.3497
  891MOL0     N20201   0.037  11.261   8.573 -0.1190  0.1286 -0.5853
  891MOL0     C20202   1.137  11.559   8.688  0.1745  1.0624  0.1852
  891MOL0     C20203   1.231  11.570   8.793 -0.7239 -0.8468 -0.2119
  891MOL0     C20204   1.563  11.426   9.074 -0.5664 -0.3500  0.2207
  891MOL0     C20205   1.573  11.334   9.177 -0.8267 -0.6921  0.2502
  891MOL0     C20206   1.665  11.349   9.279 -0.5008  0.4255 -0.0158
  891MOL0     C20207   1.760  11.449   9.285  0.0331 -0.2384  1.2045
  891MOL0     O20208   1.861  11.459   9.379 -0.5588 -0.1264  0.5019
  891MOL0     C20209   1.869  11.347   9.477  0.0306 -0.3713 -0.3846
  891MOL0     C20210   1.974  11.379   9.592  0.7961  0.0948  0.5168
  891MOL0     C20211   2.116  11.393   9.543 -0.8150  0.3255 -0.3779
  891MOL0     C20212   2.232  11.396   9.644 -0.0133 -1.0063 -0.0854
  891MOL0     C20213   2.228  11.296   9.749 -0.2830  0.7950 -0.4402
  891MOL0     C20214   2.234  11.209   9.836 -0.2030  0.4768 -1.4708
  891MOL0     C20215   1.757  11.534   9.174  1.6929 -0.2346 -0.5239
  891MOL0     C20216   1.659  11.531   9.076 -0.8139 -0.1964  0.9334
  891MOL0     C20217   1.668  11.635   8.978 -0.2119 -0.1095 -0.4542
  891MOL0     H20218   1.413  11.293   8.689 -3.5686 -4.0753 -4.4467
  891MOL0     H20219   1.249  11.272   8.534  2.3413 -0.0423  1.6361
  891MOL0     H20220   0.974  11.330   8.342 -1.1203 -1.5451 -0.5255
  891MOL0     H20221   1.054  11.246   8.466  0.7723 -0.2906 -2.7441
  891MOL0     H20222   0.791  11.374   8.527 -0.8245 -1.0148 -1.6693
  891MOL0     H20223   0.847  11.235   8.614  0.9602  0.6584  0.2676
  891MOL0     H20224   0.866  11.105   8.396  2.3213  1.0673  3.3860
  891MOL0     H20225   0.739  11.219   8.334  1.8264  1.9855  1.3941
  891MOL0     H20226   0.635  11.002   8.422  0.7835  0.2773  0.0489
  891MOL0     H20227   0.725  11.041   8.568 -1.9029  1.6536  1.4663
  891MOL0     H20228   0.506  11.093   8.609  1.9936 -0.9479  1.5745
  891MOL0     H20229   0.591  11.250   8.600  1.1433 -0.0966 -0.3622
  891MOL0     H20230   0.538  11.280   8.369  0.1250 -0.1697  0.5046
  891MOL0     H20231   0.450  11.137   8.341  1.1833  1.9520 -1.1802
  891MOL0     H20232   0.301  11.323   8.371 -1.7967 -1.0338  1.2440
  891MOL0     H20233   0.348  11.327   8.538 -0.5036  1.8581 -0.2813
  891MOL0     H20234   0.261  11.064   8.414 -0.0093 -1.2353  1.3485
  891MOL0     H20235   0.264  11.093   8.590 -2.8858 -0.3240  0.7197
  891MOL0     H20236   0.025  11.079   8.297 -1.7025  1.3298  0.4261
  891MOL0     H20237  -0.301  11.265   8.383  1.5645  2.7749 -0.6300
  891MOL0     H20238  -0.219  11.216   8.241  3.3127  0.5069  1.2525
  891MOL0     H20239  -0.261  11.005   8.457 -0.3599  1.3042 -0.4216
  891MOL0     H20240  -0.401  11.054   8.370 -0.1401 -0.7022  1.3297
  891MOL0     H20241  -0.169  10.944   8.214 -0.3454 -4.9496  1.2445
  891MOL0     H20242  -0.327  10.997   8.156 -1.0029  0.4805 -0.0239
  891MOL0     H20243  -0.274  10.745   8.324 -1.0922 -3.0413 -0.4560
  891MOL0     H20244  -0.342  10.765   8.161 -0.3951 -0.7663 -0.2757
  891MOL0     H20245  -0.508  10.894   8.076  1.1311 -1.2159  0.9854
  891MOL0     H20246  -0.729  10.885   7.966 -1.3504  2.6421  1.6793
  891MOL0     H20247  -1.161  10.759   7.869  0.6857  1.4462 -0.0918
  891MOL0     H20248  -1.375  10.711   7.813 -4.2030 -1.8465  0.5723
  891MOL0     H20249  -1.669  10.539   8.087  1.4570  2.1143  1.3213
  891MOL0     H20250  -1.723  10.706   8.111 -1.3369  0.4797  0.1949
  891MOL0     H20251  -1.840  10.707   7.889 -1.3435  0.5753  0.7175
  891MOL0     H20252  -1.800  10.544   7.859 -1.7175 -2.8894  2.2421
  891MOL0     H20253  -1.930  10.538   8.105 -0.0661 -0.2077  0.4618
  891MOL0     H20254  -2.031  10.644   8.005 -1.2673  0.5548 -3.9252
  891MOL0     H20255  -1.938  10.370   7.931  0.8824  0.9104  1.0229
  891MOL0     H20256  -2.025  10.488   7.826 -0.2615  1.9272  0.0300
  891MOL0     H20257  -2.211  10.496   7.987 -0.0332 -1.2526 -3.3258
  891MOL0     H20258  -2.128  10.377   8.104  0.6153  1.5858  1.3687
  891MOL0     H20259  -2.231  10.349   7.819  2.1819 -0.2701 -1.3702
  891MOL0     H20260  -2.141  10.222   7.910  1.7391  1.3916 -2.0802
  891MOL0     H20261  -2.421  10.336   7.968  0.4871  0.2725  0.7479
  891MOL0     H20262  -2.340  10.224   8.077  1.2455 -1.0678  0.0499
  891MOL0     H20263  -2.503  10.126   7.900  0.6792  1.1794  1.5602
  891MOL0     H20264  -2.376  10.165   7.778  0.2458  1.8415  0.3726
  891MOL0     H20265  -1.504  10.693   8.236  2.8140 -0.2133  1.7148
  891MOL0     H20266  -1.280  10.744   8.289  1.3818  0.8191 -0.5351
  891MOL0     H20267  -0.903  10.694   8.310  2.3319 -3.5524  0.1390
  891MOL0     H20268  -0.670  10.688   8.415  0.7977  0.8417 -0.0734
  891MOL0     H20269   1.055  11.631   8.689 -0.7078  0.0937 -0.7306
  891MOL0     H20270   1.227  11.646   8.871  1.8664 -1.8755  1.0578
  891MOL0     H20271   1.513  11.245   9.160 -0.3590 -0.5515 -2.7065
  891MOL0     H20272   1.677  11.265   9.347  0.6013 -0.0539 -0.7777
  891MOL0     H20273   1.905  11.256   9.429 -0.9847 -2.2478  2.1428
  891MOL0     H20274   1.774  11.326   9.529  1.0818  1.0407  2.3022
  891MOL0     H20275   1.956  11.294   9.659  3.0828  1.6717  3.3977
  891MOL0     H20276   1.941  11.471   9.641 -1.0151 -0.2516  0.0188
  891MOL0     H20277   2.125  11.475   9.471 -1.2859 -0.9127 -1.9109
  891MOL0     H20278   2.130  11.300   9.487 -1.9786  0.7870 -1.5068
  891MOL0     H20279   2.325  11.382   9.587 -1.7789 -1.2950 -3.1568
  891MOL0     H20280   2.238  11.499   9.679  3.1465  1.1019 -5.5064
  891MOL0     H20281   2.225  11.125   9.902  3.5271  0.2685 -0.9686
  891MOL0     H20282   1.838  11.605   9.162  2.3009 -1.2521 -3.1779
  891MOL0     H20283   1.576  11.695   8.982 -1.2428 -1.3514 -3.0337
  891MOL0     H20284   1.743  11.710   9.005 -0.9646 -0.5093  3.2928
  891MOL0     H20285   1.688  11.609   8.874  1.6687  3.9200 -1.2948
  892MOL0     O20286   3.777  10.109  10.258 -0.2286  0.1310 -0.6572
  892MOL0     C20287   3.807  10.034  10.348 -0.3416  0.3795 -0.2898
  892MOL0     O20288   3.933   9.975  10.353  0.2606 -0.7558 -0.0431
  892MOL0     C20289   4.028  10.019  10.264 -0.0099  0.0284  0.4845
  892MOL0     C20290   4.030   9.992  10.127  1.5203  0.6895  0.0914
  892MOL0     C20291   4.141  10.028  10.042 -0.7250 -0.1571 -0.6381
  892MOL0     C20292   4.232  10.121  10.103  0.1275  0.2435  0.7735
  892MOL0     O20293   4.329  10.188  10.037 -0.1436 -0.4497 -0.0146
  892MOL0     C20294   4.330  10.181   9.892 -0.1212 -0.7284 -0.6722
  892MOL0     C20295   4.454  10.253   9.840 -0.0111  0.8585 -0.7681
  892MOL0     C20296   4.461  10.400   9.889 -1.0720  0.4862 -0.1271
  892MOL0     C20297   4.608  10.449   9.855  0.5864 -0.3613 -1.5392
  892MOL0     C20298   4.649  10.569   9.939 -0.5288  0.5355 -0.0664
  892MOL0     C20299   4.559  10.682   9.946  0.4953 -0.4966 -0.0079
  892MOL0     C20300   4.602  10.800  10.033 -0.1748 -0.6274  0.0989
  892MOL0     C20301   4.619  10.748  10.175 -0.3343  0.5760  0.2114
  892MOL0     N20302   4.633  10.857  10.281 -0.3702 -1.2788 -0.6885
  892MOL0     C20303   4.584  10.982  10.285  0.0567  0.1286 -0.3690
  892MOL0     C20304   4.629  11.040  10.409  0.4425 -0.6224  0.0456
  892MOL0     C20305   4.625  11.197  10.452  0.1341 -0.0306 -0.5173
  892MOL0     C20306   4.766  11.250  10.413 -0.2140 -0.3973 -0.1198
  892MOL0     C20307   4.791  11.399  10.473 -0.0615  0.6623  0.1294
  892MOL0     C20308   4.913  11.472  10.419 -0.2800 -0.0548 -1.3884
  892MOL0     O20309   5.032  11.399  10.465 -0.9768  0.4943 -0.0444
  892MOL0     C20310   5.150  11.468  10.451 -0.6539  0.2806 -0.1581
  892MOL0     C20311   5.173  11.603  10.441 -0.0616  0.2149 -0.4056
  892MOL0     C20312   5.300  11.661  10.416 -0.0197  0.0125 -0.2686
  892MOL0     C20313   5.411  11.570  10.410 -0.0294  0.0525  0.0429
  892MOL0     C20314   5.548  11.610  10.383  0.0523 -0.7412 -0.2809
  892MOL0     O20315   5.637  11.514  10.336 -0.4284 -0.3975  0.9166
  892MOL0     C20316   5.742  11.578  10.272 -0.0363  0.1397 -0.1171
  892MOL0     C20317   5.866  11.527  10.282  0.5109  0.0564  0.0743
  892MOL0     C20318   5.983  11.583  10.222  0.6732  0.2805 -0.1593
  892MOL0     C20319   5.960  11.680  10.124  0.0591 -0.0760  0.6703
  892MOL0     O20320   6.073  11.700  10.050  0.0971  0.0223 -0.1346
  892MOL0     C20321   6.055  11.768   9.928  0.4016  0.8285  0.0944
  892MOL0     C20322   6.182  11.833   9.863  0.0794 -0.3611  0.3405
  892MOL0     C20323   6.307  11.737   9.862 -0.5052 -0.0539  0.7201
  892MOL0     C20324   6.384  11.753   9.729 -0.0453  0.4483 -0.2659
  892MOL0     C20325   6.469  11.636   9.685 -0.4413  0.0035 -0.6131
  892MOL0     C20326   6.558  11.650   9.568 -0.2085 -0.1010 -0.3412
  892MOL0     C20327   6.668  11.753   9.595 -0.8689 -0.3156 -1.4235
  892MOL0     C20328   6.766  11.705   9.704  0.4485  0.4788  0.2413
  892MOL0    Cl20329   6.909  11.813   9.690 -0.3101  0.1383 -0.2031
  892MOL0     C20330   5.825  11.723  10.099 -0.1610 -0.3795 -0.3569
  892MOL0     C20331   5.722  11.673  10.172  0.1776  0.3453 -0.1178
  892MOL0     O20332   5.579  11.730  10.404  0.1506  0.5388  0.1621
  892MOL0     C20333   5.385  11.438  10.427 -0.4170  0.4188  0.2738
  892MOL0     C20334   5.258  11.386  10.445 -0.5230  0.1447  0.2242
  892MOL0     N20335   4.693  10.944  10.484  0.6805 -0.3763 -0.6375
  892MOL0     N20336   4.694  10.835  10.408 -0.5738 -0.9849 -0.0029
  892MOL0     C20337   4.226  10.150  10.240  0.8258 -0.1379  0.2331
  892MOL0     C20338   4.131  10.089  10.319  0.2083 -0.5934 -0.1264
  892MOL0     C20339   3.703   9.982  10.439  0.6673  0.1932  0.4975
  892MOL0     C20340   3.585  10.063  10.443 -0.1224 -0.1445 -0.1566
  892MOL0     C20341   3.476  10.029  10.521 -1.3698  0.4201 -0.1950
  892MOL0     C20342   3.477   9.917  10.606 -0.2569  0.2164  0.7515
  892MOL0     O20343   3.356   9.888  10.662 -1.0580 -0.5997  0.1593
  892MOL0     C20344   3.351   9.795  10.779  0.0717  0.4158  0.1747
  892MOL0     C20345   3.201   9.776  10.813  0.6106  0.6158 -1.0107
  892MOL0     C20346   3.122   9.913  10.827 -0.4477  0.2295 -0.4269
  892MOL0     C20347   3.005   9.906  10.921 -1.4138 -0.7437 -0.7167
  892MOL0     C20348   2.896  10.000  10.882  0.2860 -0.2638  0.9614
  892MOL0     C20349   2.807  10.080  10.852 -0.5450  0.5302 -0.1471
  892MOL0     C20350   3.594   9.838  10.605 -0.4573 -0.4390 -0.2122
  892MOL0     C20351   3.706   9.876  10.527  0.5280  0.6859  0.4896
  892MOL0     C20352   3.825   9.781  10.525 -0.5347  0.3009  0.7464
  892MOL0     H20353   3.940   9.943  10.090  0.8863  1.3790  0.6868
  892MOL0     H20354   4.136  10.001   9.937  0.1318  1.3448 -1.0974
  892MOL0     H20355   4.328  10.076   9.859 -2.0822 -0.3957 -1.7820
  892MOL0     H20356   4.243  10.228   9.845 -0.0261  0.7115  0.5314
  892MOL0     H20357   4.461  10.238   9.732  2.8425 -4.1477 -0.1956
  892MOL0     H20358   4.540  10.199   9.881 -1.8783 -0.0174  2.3101
  892MOL0     H20359   4.456  10.396   9.998 -0.9915  0.0466 -0.1404
  892MOL0     H20360   4.389  10.472   9.848 -0.5057  0.7066 -0.7533
  892MOL0     H20361   4.684  10.372   9.869  0.2627 -0.3794  0.3590
  892MOL0     H20362   4.622  10.466   9.748 -0.0422 -1.5690 -1.8286
  892MOL0     H20363   4.661  10.536  10.042  0.6982  0.0436 -0.3413
  892MOL0     H20364   4.748  10.596   9.899  0.5896 -1.5367  1.1177
  892MOL0     H20365   4.552  10.736   9.851  0.1918 -0.2651  0.1424
  892MOL0     H20366   4.457  10.649   9.967  0.1983 -1.2971 -2.3968
  892MOL0     H20367   4.522  10.874  10.031  0.9824  0.7487 -3.0149
  892MOL0     H20368   4.690  10.851   9.990  1.9175 -1.6558  2.8283
  892MOL0     H20369   4.536  10.683  10.203  0.4874 -0.8384 -0.5478
  892MOL0     H20370   4.711  10.692  10.192 -0.9824  0.0246  2.1998
  892MOL0     H20371   4.543  11.030  10.197  0.5095 -2.1306 -1.9042
  892MOL0     H20372   4.539  11.244  10.403  0.3467  0.3857 -0.4886
  892MOL0     H20373   4.622  11.214  10.560 -0.2538  0.5336 -0.6126
  892MOL0     H20374   4.839  11.185  10.461 -0.4636 -0.8974 -0.4104
  892MOL0     H20375   4.783  11.244  10.305  2.4712  0.5161  0.1697
  892MOL0     H20376   4.801  11.384  10.581 -1.6904  0.5271  0.2860
  892MOL0     H20377   4.705  11.464  10.456 -0.8671  0.2898  2.4325
  892MOL0     H20378   4.917  11.567  10.473  1.3946 -1.2754  0.8233
  892MOL0     H20379   4.913  11.491  10.311  0.0343  0.1219 -1.3601
  892MOL0     H20380   5.096  11.680  10.450 -1.8100 -1.6051  1.2808
  892MOL0     H20381   5.312  11.769  10.411 -0.1301 -0.0254 -1.7881
  892MOL0     H20382   5.893  11.449  10.353  0.2456 -0.0150  0.0993
  892MOL0     H20383   6.079  11.533  10.225 -1.0184 -3.3664 -1.0284
  892MOL0     H20384   6.012  11.690   9.865 -1.8998  2.0582  0.0592
  892MOL0     H20385   5.989  11.853   9.948 -1.5312 -0.1269 -1.8042
  892MOL0     H20386   6.154  11.872   9.765  0.8783  0.3126  0.3670
  892MOL0     H20387   6.200  11.923   9.921  4.7043 -0.1675 -1.0208
  892MOL0     H20388   6.376  11.764   9.943  0.2575 -0.6135  0.2713
  892MOL0     H20389   6.276  11.634   9.877 -0.1855 -0.7942 -2.7877
  892MOL0     H20390   6.446  11.838   9.758 -1.4216  1.6152 -0.6285
  892MOL0     H20391   6.301  11.769   9.660 -2.3046 -0.1966  2.1521
  892MOL0     H20392   6.402  11.551   9.670 -0.4436  0.0337 -0.7692
  892MOL0     H20393   6.527  11.603   9.772 -1.0839  0.6622  0.0772
  892MOL0     H20394   6.594  11.550   9.542 -1.0438  0.1737 -2.8501
  892MOL0     H20395   6.495  11.680   9.484  0.4449  1.6433 -0.2443
  892MOL0     H20396   6.639  11.853   9.629 -0.4954  0.3303 -2.9489
  892MOL0     H20397   6.723  11.774   9.504  1.1065  0.9505 -0.0223
  892MOL0     H20398   6.725  11.722   9.804  3.1737  1.4133  1.3052
  892MOL0     H20399   6.791  11.600   9.689 -1.6612 -0.3313  1.9047
  892MOL0     H20400   5.803  11.800  10.026 -0.5672 -2.3697 -2.4667
  892MOL0     H20401   5.627  11.715  10.141  2.4730  3.6785 -3.5598
  892MOL0     H20402   5.463  11.363  10.422  0.6260  1.2925  2.2339
  892MOL0     H20403   5.242  11.281  10.467  1.4646  0.0130  1.3131
  892MOL0     H20404   4.288  10.227  10.283  0.4771  0.1559  0.2095
  892MOL0     H20405   4.131  10.101  10.427  2.1966  1.4479 -0.2768
  892MOL0     H20406   3.580  10.155  10.385  0.2913  0.6611  1.0533
  892MOL0     H20407   3.387  10.092  10.527 -2.4740 -1.1542  0.6670
  892MOL0     H20408   3.415   9.830  10.860 -1.4566  1.7288  0.8543
  892MOL0     H20409   3.392   9.699  10.747 -1.2911 -0.7273  1.7177
  892MOL0     H20410   3.213   9.720  10.906  1.9018 -0.2224 -1.6583
  892MOL0     H20411   3.162   9.714  10.731 -1.2625 -0.8357  0.8774
  892MOL0     H20412   3.095   9.919  10.721 -0.7310  1.9538 -0.2734
  892MOL0     H20413   3.185   9.996  10.858 -1.6720  0.3228  2.0807
  892MOL0     H20414   2.964   9.805  10.919 -1.4829 -0.7015 -1.4471
  892MOL0     H20415   3.033   9.933  11.024 -1.5491  1.0670 -1.1096
  892MOL0     H20416   2.725  10.140  10.819  0.6601  2.4616  0.2364
  892MOL0     H20417   3.598   9.742  10.655  0.0455 -1.4197 -2.0605
  892MOL0     H20418   3.906   9.837  10.573 -1.8899  0.5725  2.8680
  892MOL0     H20419   3.812   9.688  10.580  0.5759  1.7113  3.5624
  892MOL0     H20420   3.856   9.765  10.421 -0.8906 -0.4619  0.7543
  893MOL0     O20421   2.509   6.860   4.479 -0.0450 -0.6844  0.0226
  893MOL0     C20422   2.573   6.822   4.383 -0.0467 -0.3053 -0.4203
  893MOL0     O20423   2.527   6.742   4.279  0.1150 -0.1520 -0.5032
  893MOL0     C20424   2.386   6.726   4.254 -1.1723 -0.0092 -0.0876
  893MOL0     C20425   2.303   6.834   4.257 -0.4607  0.3569 -0.5047
  893MOL0     C20426   2.166   6.832   4.238  0.4365  0.2752  0.5542
  893MOL0     C20427   2.112   6.716   4.211  0.7770 -0.0635 -0.2110
  893MOL0     O20428   1.983   6.702   4.177  0.3198 -0.2549  0.0230
  893MOL0     C20429   1.910   6.585   4.192  0.0236  0.0407  0.6336
  893MOL0     C20430   1.763   6.602   4.162 -0.2787  0.2443  0.2349
  893MOL0     C20431   1.703   6.700   4.264 -0.8716 -1.1521  0.4681
  893MOL0     C20432   1.565   6.730   4.205  0.7056  0.5535 -0.2016
  893MOL0     C20433   1.476   6.813   4.308 -0.7763  0.8151  1.5160
  893MOL0     C20434   1.499   6.962   4.300  0.1723  0.0985 -0.5104
  893MOL0     C20435   1.423   7.034   4.184  0.0661  0.7128  0.3510
  893MOL0     C20436   1.280   7.075   4.217  0.1322 -0.3752  0.8234
  893MOL0     N20437   1.271   7.191   4.302 -0.4279 -0.6347  0.0521
  893MOL0     C20438   1.322   7.321   4.272 -0.7589  0.2770 -0.1018
  893MOL0     C20439   1.317   7.382   4.396  0.8164  0.3105 -0.6492
  893MOL0     C20440   1.375   7.514   4.442  0.2886 -0.0499  0.4822
  893MOL0     C20441   1.525   7.512   4.459 -0.0459  0.0519 -0.3311
  893MOL0     C20442   1.598   7.527   4.322 -0.6211  0.2473 -0.1580
  893MOL0     C20443   1.756   7.534   4.312  0.1828  0.7069  0.4045
  893MOL0     O20444   1.800   7.670   4.318 -0.1087  0.3087 -0.0269
  893MOL0     C20445   1.935   7.670   4.360  0.8583 -1.0387 -0.5839
  893MOL0     C20446   2.033   7.602   4.287 -0.3035 -0.1450 -0.9051
  893MOL0     C20447   2.161   7.607   4.333 -0.1169 -0.0437  0.5281
  893MOL0     C20448   2.204   7.678   4.448 -0.4894  0.4156  0.7378
  893MOL0     C20449   2.349   7.676   4.484  0.8840  0.1633 -1.1394
  893MOL0     O20450   2.435   7.643   4.384 -0.2929 -0.2298 -0.4938
  893MOL0     C20451   2.573   7.674   4.375  0.0716  0.6868 -0.5537
  893MOL0     C20452   2.650   7.747   4.469  0.3061 -0.2933  0.2123
  893MOL0     C20453   2.791   7.754   4.468  0.2216  0.2501  0.6052
  893MOL0     C20454   2.861   7.674   4.376  0.4566 -1.2924 -0.2003
  893MOL0     O20455   2.997   7.681   4.391 -0.4331  0.0213 -0.9602
  893MOL0     C20456   3.078   7.626   4.292 -0.7351 -0.3941 -0.8290
  893MOL0     C20457   3.099   7.736   4.184 -1.9130 -0.6928  0.2618
  893MOL0     C20458   3.191   7.853   4.219  0.6481  0.3570  0.5373
  893MOL0     C20459   3.337   7.811   4.258  0.2586  0.2607 -0.4558
  893MOL0     C20460   3.420   7.806   4.125  0.9768  0.2519 -0.1677
  893MOL0     C20461   3.576   7.787   4.137  0.1584  0.4960 -0.3593
  893MOL0     C20462   3.602   7.640   4.160  0.2361 -0.1550  0.2921
  893MOL0     C20463   3.683   7.569   4.057 -0.5121  0.6373  0.0566
  893MOL0    Cl20464   3.836   7.656   4.038 -0.3346  0.0375 -0.0583
  893MOL0     C20465   2.791   7.620   4.264 -0.0981  0.1822  0.1438
  893MOL0     C20466   2.649   7.618   4.272  0.2041  1.5347  0.1127
  893MOL0     O20467   2.368   7.717   4.596 -0.5465 -0.9855  0.3989
  893MOL0     C20468   2.100   7.739   4.524 -0.3238  0.0370  1.1349
  893MOL0     C20469   1.967   7.733   4.474 -0.6510 -0.6327 -0.5784
  893MOL0     N20470   1.266   7.296   4.493 -0.1320 -0.0852 -0.5408
  893MOL0     N20471   1.243   7.178   4.437  0.5339  1.1772 -0.6219
  893MOL0     C20472   2.189   6.597   4.212  0.2027 -0.2843 -0.2908
  893MOL0     C20473   2.329   6.602   4.231  0.0251  0.1208 -0.0859
  893MOL0     C20474   2.711   6.857   4.381 -0.2261  0.2660  1.2468
  893MOL0     C20475   2.757   6.880   4.251  0.6454  0.2196  0.0989
  893MOL0     C20476   2.887   6.911   4.220  0.1555 -0.3364  0.5020
  893MOL0     C20477   2.976   6.929   4.322  0.3851  0.1962 -0.1375
  893MOL0     O20478   3.105   6.966   4.304 -0.1437  0.5510  0.3109
  893MOL0     C20479   3.203   6.887   4.372  0.0275  0.3394 -0.0627
  893MOL0     C20480   3.245   6.777   4.265 -0.2576  0.1720 -0.5432
  893MOL0     C20481   3.350   6.673   4.309 -1.1165 -0.4865  0.0044
  893MOL0     C20482   3.471   6.724   4.399 -0.4365 -0.7105  0.3746
  893MOL0     C20483   3.534   6.847   4.348 -0.1669  0.6150 -0.2886
  893MOL0     C20484   3.591   6.930   4.294 -0.1948 -0.6490 -0.5558
  893MOL0     C20485   2.932   6.911   4.454 -0.2197  0.1606  0.0893
  893MOL0     C20486   2.802   6.870   4.488 -1.3484 -0.3845  0.1986
  893MOL0     C20487   2.766   6.836   4.636 -0.4743  0.5120  0.0180
  893MOL0     H20488   2.345   6.927   4.296  0.9817  0.2774 -1.7459
  893MOL0     H20489   2.118   6.925   4.265  1.6732  0.5716  1.8549
  893MOL0     H20490   1.953   6.520   4.115 -1.3959  1.6746 -1.6567
  893MOL0     H20491   1.933   6.539   4.289 -2.3577 -2.7350  0.0180
  893MOL0     H20492   1.721   6.502   4.171  4.2468 -1.7256  2.4624
  893MOL0     H20493   1.758   6.625   4.055 -0.7244 -1.9048 -0.2417
  893MOL0     H20494   1.743   6.802   4.257 -4.0711  0.1116 -1.6690
  893MOL0     H20495   1.687   6.664   4.366 -1.9827 -0.3194  0.6089
  893MOL0     H20496   1.573   6.782   4.109 -1.7001  0.3492 -0.5757
  893MOL0     H20497   1.501   6.642   4.194  0.0137  0.9161  0.7949
  893MOL0     H20498   1.373   6.791   4.279 -0.1555 -1.1315  0.6006
  893MOL0     H20499   1.498   6.777   4.409  4.9338  0.8454  0.6014
  893MOL0     H20500   1.461   7.007   4.392 -4.5391 -2.2569 -1.0022
  893MOL0     H20501   1.607   6.973   4.312  0.1572  1.1423 -1.1812
  893MOL0     H20502   1.421   6.963   4.100 -0.9728 -0.7712  1.5646
  893MOL0     H20503   1.486   7.113   4.143 -1.1590  1.2989 -0.4570
  893MOL0     H20504   1.231   7.092   4.121  0.5217 -2.6081  0.1535
  893MOL0     H20505   1.225   6.992   4.262  2.9057 -1.8279  1.8002
  893MOL0     H20506   1.351   7.340   4.170 -0.9507 -1.8963 -0.6123
  893MOL0     H20507   1.335   7.593   4.378 -1.1422 -1.9602 -1.1316
  893MOL0     H20508   1.324   7.541   4.536 -0.1622  0.5021  0.0875
  893MOL0     H20509   1.556   7.587   4.533  0.6709 -0.3743 -0.1973
  893MOL0     H20510   1.546   7.410   4.491 -1.1019 -0.2964 -0.6907
  893MOL0     H20511   1.570   7.622   4.277  3.4233  1.7183 -0.0058
  893MOL0     H20512   1.572   7.438   4.264 -2.0556  0.2453  0.4402
  893MOL0     H20513   1.778   7.494   4.213  0.1489 -0.3118  0.7963
  893MOL0     H20514   1.800   7.465   4.384 -1.4294 -3.2275 -2.0585
  893MOL0     H20515   2.015   7.544   4.197  0.6457 -2.0705  0.0783
  893MOL0     H20516   2.237   7.549   4.281 -0.0293  0.3478  0.2129
  893MOL0     H20517   2.586   7.798   4.541 -1.3031 -3.1101  0.9562
  893MOL0     H20518   2.835   7.819   4.543  3.0045 -2.6206  1.6724
  893MOL0     H20519   3.175   7.593   4.330 -0.9039 -1.1994 -1.0656
  893MOL0     H20520   3.041   7.534   4.244  3.7373 -0.9183 -3.9366
  893MOL0     H20521   3.152   7.686   4.102  1.1847 -0.8824  2.1990
  893MOL0     H20522   2.998   7.764   4.152 -1.8834 -1.6050 -0.6820
  893MOL0     H20523   3.203   7.911   4.127  2.0867 -2.0113 -0.8727
  893MOL0     H20524   3.137   7.920   4.286 -2.3761 -2.0236  0.7076
  893MOL0     H20525   3.362   7.717   4.309 -0.3900  0.6572  0.6038
  893MOL0     H20526   3.382   7.883   4.327  2.4766 -0.7341 -0.7491
  893MOL0     H20527   3.412   7.904   4.077  3.2351  0.3309 -0.5126
  893MOL0     H20528   3.379   7.725   4.065  1.3408 -2.0332  2.4527
  893MOL0     H20529   3.618   7.809   4.038 -0.3159 -1.1037 -0.9549
  893MOL0     H20530   3.608   7.857   4.214 -0.3296  0.1340  0.1816
  893MOL0     H20531   3.519   7.574   4.185  1.3349 -0.7060  2.8702
  893MOL0     H20532   3.662   7.636   4.252  0.5461 -2.5853  0.0526
  893MOL0     H20533   3.702   7.468   4.093 -0.2548  1.1307  1.3496
  893MOL0     H20534   3.631   7.567   3.961 -1.2886 -1.3964  0.4703
  893MOL0     H20535   2.835   7.575   4.176  0.2712  1.0953 -0.1490
  893MOL0     H20536   2.597   7.571   4.189 -1.9298 -1.5182  2.9223
  893MOL0     H20537   2.127   7.800   4.610  1.2093  0.4710  0.3623
  893MOL0     H20538   1.874   7.768   4.517  0.2092  1.3507 -0.2269
  893MOL0     H20539   2.141   6.503   4.186 -1.6538  0.0568  1.6642
  893MOL0     H20540   2.386   6.510   4.241 -0.4419 -0.1123  0.4222
  893MOL0     H20541   2.690   6.845   4.173  0.3907 -1.9542  1.2108
  893MOL0     H20542   2.900   6.924   4.113  1.7115 -2.0868  0.4269
  893MOL0     H20543   3.192   6.849   4.474  2.9384  1.2624  0.7008
  893MOL0     H20544   3.283   6.961   4.379 -0.7130  1.2039 -0.5210
  893MOL0     H20545   3.293   6.834   4.185 -1.6806  0.4739 -1.2237
  893MOL0     H20546   3.163   6.712   4.231  1.5884 -1.5169 -2.0569
  893MOL0     H20547   3.392   6.614   4.227  1.5671  3.2869 -1.6411
  893MOL0     H20548   3.302   6.603   4.378 -1.2753 -0.0739  0.3172
  893MOL0     H20549   3.439   6.745   4.501 -0.2601 -2.3235  0.7985
  893MOL0     H20550   3.555   6.655   4.414 -0.0015 -0.0955  0.8121
  893MOL0     H20551   3.644   7.000   4.231  1.2200 -1.6201 -0.5005
  893MOL0     H20552   2.992   6.926   4.543  0.0211  1.4218 -0.2679
  893MOL0     H20553   2.730   6.733   4.647  0.6702  0.0960 -0.0855
  893MOL0     H20554   2.856   6.844   4.698  1.1372 -0.6731 -2.0557
  893MOL0     H20555   2.687   6.899   4.680  0.6727 -0.0432  3.1477
  894MOL0     O20556   3.120   8.772   4.240 -0.9655  0.0704  0.4045
  894MOL0     C20557   3.209   8.783   4.330  0.2308 -0.3873  0.1663
  894MOL0     O20558   3.190   8.743   4.448  0.2413 -0.0282  0.2503
  894MOL0     C20559   3.063   8.702   4.498  0.1361  0.3031 -0.0808
  894MOL0     C20560   2.949   8.773   4.466  0.0662 -0.3211  0.4292
  894MOL0     C20561   2.820   8.734   4.522  0.7008 -0.4843 -0.0981
  894MOL0     C20562   2.817   8.634   4.612 -0.9713 -0.0973 -0.7523
  894MOL0     O20563   2.712   8.587   4.681 -0.0110 -0.6677  0.5379
  894MOL0     C20564   2.580   8.618   4.633  0.6094 -0.0208 -0.2342
  894MOL0     C20565   2.477   8.535   4.711 -0.4348 -0.4411  0.2580
  894MOL0     C20566   2.337   8.514   4.652  0.2221 -0.4493 -0.3516
  894MOL0     C20567   2.250   8.457   4.756 -0.4752  0.0993 -0.0072
  894MOL0     C20568   2.114   8.402   4.719  0.9355  0.3101 -0.2121
  894MOL0     C20569   2.037   8.499   4.625 -0.5544  0.1467 -0.1049
  894MOL0     C20570   1.879   8.496   4.639  1.2364 -0.0471  0.1381
  894MOL0     C20571   1.808   8.369   4.612  1.3650  0.0012 -0.2559
  894MOL0     N20572   1.669   8.394   4.596 -0.2436 -0.3597 -0.7738
  894MOL0     C20573   1.591   8.409   4.488  0.2766 -0.0921  0.5670
  894MOL0     C20574   1.469   8.457   4.530 -0.0876  0.4447  0.2550
  894MOL0     C20575   1.347   8.491   4.445  0.1041  0.5416  0.2246
  894MOL0     C20576   1.319   8.396   4.328  0.1272 -0.0248 -0.4972
  894MOL0     C20577   1.259   8.258   4.338 -0.0095 -0.1349  0.4848
  894MOL0     C20578   1.351   8.160   4.405  0.3281  0.9295 -0.3980
  894MOL0     O20579   1.448   8.103   4.316  0.3403  1.0531 -0.0182
  894MOL0     C20580   1.588   8.096   4.341  0.8007 -0.5769  0.9702
  894MOL0     C20581   1.635   8.086   4.467 -0.0225 -0.1289  0.8154
  894MOL0     C20582   1.773   8.078   4.487 -0.5814  0.4530  0.3928
  894MOL0     C20583   1.876   8.095   4.387 -0.2330 -0.3282 -0.2458
  894MOL0     C20584   2.012   8.106   4.416 -0.4679  0.6820 -0.0522
  894MOL0     O20585   2.098   8.134   4.319 -0.2576 -0.1402  0.6015
  894MOL0     C20586   2.233   8.141   4.349  0.0832  1.4624  0.1230
  894MOL0     C20587   2.289   8.269   4.336 -0.2204 -0.8534 -1.2671
  894MOL0     C20588   2.422   8.285   4.364 -0.5993  0.0966  0.6028
  894MOL0     C20589   2.507   8.175   4.398  0.3565  0.2113 -0.1512
  894MOL0     O20590   2.633   8.196   4.448 -0.2115  1.2431 -0.3136
  894MOL0     C20591   2.716   8.312   4.418  0.0648 -0.1111 -0.0620
  894MOL0     C20592   2.861   8.287   4.444  0.4039  0.3800 -0.4544
  894MOL0     C20593   2.955   8.339   4.340 -0.4109  0.4196 -0.2927
  894MOL0     C20594   3.112   8.301   4.367 -0.4912  0.3957 -0.0900
  894MOL0     C20595   3.177   8.257   4.239  0.5023 -0.6459 -0.2999
  894MOL0     C20596   3.329   8.274   4.264  0.8649 -0.1082  0.4865
  894MOL0     C20597   3.412   8.201   4.154 -0.5302  0.2777  0.0468
  894MOL0     C20598   3.440   8.294   4.039 -0.4212 -0.0695 -0.5489
  894MOL0    Cl20599   3.524   8.442   4.084  0.0799  0.0299 -0.2397
  894MOL0     C20600   2.442   8.048   4.414 -0.3592  0.0818  0.1726
  894MOL0     C20601   2.312   8.034   4.390 -0.3780  0.4683  0.1890
  894MOL0     O20602   2.047   8.089   4.529  0.0025  0.1390 -1.0426
  894MOL0     C20603   1.816   8.101   4.252 -0.2993  0.4063  0.1424
  894MOL0     C20604   1.679   8.088   4.233  0.0027 -0.3197 -0.2831
  894MOL0     N20605   1.464   8.454   4.662 -0.6008 -0.6103  0.1434
  894MOL0     N20606   1.584   8.425   4.704 -0.0916 -0.2924 -0.2985
  894MOL0     C20607   2.932   8.568   4.659  0.9096 -0.1906  0.6589
  894MOL0     C20608   3.051   8.599   4.594 -1.2579 -0.5594  0.4065
  894MOL0     C20609   3.335   8.860   4.309  0.3123 -0.1390  0.4880
  894MOL0     C20610   3.380   8.937   4.421 -0.9010  1.3758 -0.4187
  894MOL0     C20611   3.497   9.013   4.413 -0.5264  0.1762  0.3688
  894MOL0     C20612   3.571   9.012   4.295  0.9359 -0.8409 -0.3429
  894MOL0     O20613   3.692   9.074   4.272 -0.0192 -0.5747 -0.1901
  894MOL0     C20614   3.725   9.204   4.318  0.3218  0.0255 -0.5170
  894MOL0     C20615   3.870   9.239   4.283 -0.6779  0.1973 -0.5732
  894MOL0     C20616   3.918   9.371   4.341 -0.8461 -0.1343 -0.0012
  894MOL0     C20617   4.050   9.419   4.281  0.3633  0.8108  0.6885
  894MOL0     C20618   4.159   9.353   4.356 -0.7517  0.0161 -0.0457
  894MOL0     C20619   4.247   9.291   4.406  0.0253 -0.1331 -0.7596
  894MOL0     C20620   3.529   8.926   4.193  0.3995  1.2883 -0.1553
  894MOL0     C20621   3.410   8.851   4.194  0.0904  0.0079 -0.8432
  894MOL0     C20622   3.370   8.762   4.069 -0.2820  0.4013 -0.3282
  894MOL0     H20623   2.947   8.858   4.399 -1.1299 -1.7296 -1.4436
  894MOL0     H20624   2.732   8.792   4.494 -1.7407 -4.2059 -0.8402
  894MOL0     H20625   2.567   8.726   4.646 -0.6232 -0.3279  1.3410
  894MOL0     H20626   2.571   8.595   4.526  2.9144 -1.7120 -0.1510
  894MOL0     H20627   2.467   8.581   4.810  1.3733  3.4871 -1.1540
  894MOL0     H20628   2.527   8.439   4.726  1.0229  0.0618 -1.1321
  894MOL0     H20629   2.346   8.458   4.559 -0.6531  0.0400 -0.7357
  894MOL0     H20630   2.289   8.609   4.629 -0.3712 -0.0184  2.3647
  894MOL0     H20631   2.308   8.387   4.817  2.7754  1.0558 -1.7667
  894MOL0     H20632   2.225   8.541   4.822 -0.1003  0.6385 -0.5462
  894MOL0     H20633   2.120   8.305   4.670 -2.2707 -1.0066  1.7239
  894MOL0     H20634   2.055   8.377   4.808 -0.5172 -0.0699 -1.2488
  894MOL0     H20635   2.052   8.601   4.661 -0.2123  0.3016 -0.6696
  894MOL0     H20636   2.070   8.491   4.521 -1.3038 -3.2689 -0.1975
  894MOL0     H20637   1.835   8.564   4.566  0.2044 -0.1286  0.6645
  894MOL0     H20638   1.850   8.537   4.736 -0.7403 -1.3340  0.1475
  894MOL0     H20639   1.853   8.334   4.519  0.3535  1.7380 -1.4590
  894MOL0     H20640   1.825   8.307   4.701  0.8331 -0.2663 -0.3383
  894MOL0     H20641   1.633   8.387   4.391  1.3409 -0.6641  1.1346
  894MOL0     H20642   1.257   8.494   4.508 -0.2317  0.7678 -0.2542
  894MOL0     H20643   1.371   8.592   4.410  0.4500 -0.4002 -2.4224
  894MOL0     H20644   1.249   8.448   4.261  1.1254  1.4578 -0.4465
  894MOL0     H20645   1.415   8.379   4.277  0.5969 -1.6866  0.8362
  894MOL0     H20646   1.230   8.216   4.241 -1.4956  2.3608 -0.2505
  894MOL0     H20647   1.169   8.267   4.399 -0.2810 -2.1223  0.4280
  894MOL0     H20648   1.274   8.090   4.439  1.2252  0.9511  1.8710
  894MOL0     H20649   1.401   8.197   4.496  0.4891 -1.7648  0.7055
  894MOL0     H20650   1.566   8.068   4.549 -1.2184  1.0262  0.1112
  894MOL0     H20651   1.802   8.078   4.592 -0.3588 -0.6175  0.3460
  894MOL0     H20652   2.225   8.355   4.319  2.7015  1.9863  0.8965
  894MOL0     H20653   2.449   8.389   4.352 -4.6487  1.5310  2.2652
  894MOL0     H20654   2.694   8.344   4.316 -1.9433 -0.3970  0.2365
  894MOL0     H20655   2.691   8.392   4.489 -1.2265 -1.3741  0.9582
  894MOL0     H20656   2.882   8.322   4.546 -3.7587 -1.6969  1.3485
  894MOL0     H20657   2.878   8.179   4.437  0.3044  0.4506 -2.3843
  894MOL0     H20658   2.922   8.292   4.247 -3.2648 -0.2604  0.9419
  894MOL0     H20659   2.941   8.446   4.326 -2.2286  0.2286 -0.1279
  894MOL0     H20660   3.121   8.217   4.436  2.7144  0.7531  0.0706
  894MOL0     H20661   3.158   8.389   4.413 -0.8990 -0.6835  2.5681
  894MOL0     H20662   3.141   8.312   4.152  0.3558 -1.0888 -0.5211
  894MOL0     H20663   3.158   8.152   4.212 -0.1431  0.4453 -4.8724
  894MOL0     H20664   3.353   8.380   4.275 -0.3518  0.2938 -0.4473
  894MOL0     H20665   3.358   8.224   4.357  0.1423 -0.0385  0.7607
  894MOL0     H20666   3.348   8.118   4.124  0.5301 -0.9395  1.0346
  894MOL0     H20667   3.504   8.173   4.207 -1.4859 -0.6826  1.2845
  894MOL0     H20668   3.508   8.249   3.967 -0.3535  2.9087 -2.4949
  894MOL0     H20669   3.348   8.317   3.985 -0.6845 -1.0493 -0.5308
  894MOL0     H20670   2.494   7.956   4.440  1.8926  0.9428 -0.9838
  894MOL0     H20671   2.267   7.935   4.398  0.0717  0.2588  0.1294
  894MOL0     H20672   1.874   8.123   4.163  0.3724 -2.5288 -0.2588
  894MOL0     H20673   1.659   8.074   4.128 -0.1308  2.1005 -0.6511
  894MOL0     H20674   2.923   8.489   4.733  0.5580 -0.3782  0.4184
  894MOL0     H20675   3.140   8.541   4.617  1.0704  1.1246 -3.3817
  894MOL0     H20676   3.318   8.950   4.509  1.8647  0.9098  1.7427
  894MOL0     H20677   3.535   9.077   4.492  0.3826 -1.4232  1.2829
  894MOL0     H20678   3.711   9.218   4.426 -0.7452  0.5756 -0.7176
  894MOL0     H20679   3.644   9.266   4.278  0.4365 -1.3828 -3.1695
  894MOL0     H20680   3.878   9.255   4.175 -0.5939 -1.5661 -0.8625
  894MOL0     H20681   3.941   9.163   4.318 -0.1986  1.4477  1.3380
  894MOL0     H20682   3.927   9.367   4.450 -0.0906 -1.0423 -0.0856
  894MOL0     H20683   3.847   9.451   4.319 -2.4678 -1.9385 -1.5589
  894MOL0     H20684   4.047   9.394   4.175  2.6240 -4.3218  1.5314
  894MOL0     H20685   4.077   9.519   4.316  4.6813  1.1769 -2.8536
  894MOL0     H20686   4.323   9.240   4.462 -1.4827 -0.8870  0.6987
  894MOL0     H20687   3.599   8.924   4.111 -1.2781 -0.0255 -1.6246
  894MOL0     H20688   3.463   8.740   4.015  1.4710  2.9652  1.4421
  894MOL0     H20689   3.324   8.666   4.095 -0.2592  0.9292  1.7995
  894MOL0     H20690   3.296   8.806   4.002  0.3531  2.6065  0.3482
  895MOL0     O20691   6.080  11.028  10.929  0.0233  0.3992  0.2188
  895MOL0     C20692   5.997  10.961  10.998  0.2549  0.2705  0.0958
  895MOL0     O20693   5.993  10.823  10.997 -0.0718 -0.4752 -0.2978
  895MOL0     C20694   6.072  10.741  10.922  0.0703  0.0777  0.7314
  895MOL0     C20695   6.086  10.764  10.784 -0.0960 -0.1977  0.0741
  895MOL0     C20696   6.185  10.701  10.704  0.0053  0.2762 -1.5431
  895MOL0     C20697   6.248  10.586  10.761 -0.5349  0.3469  0.4264
  895MOL0     O20698   6.336  10.513  10.687 -0.2739 -0.1795  0.4941
  895MOL0     C20699   6.400  10.568  10.570  0.3953  1.1376 -0.5865
  895MOL0     C20700   6.515  10.476  10.549 -0.6864  0.8944 -0.3090
  895MOL0     C20701   6.621  10.470  10.672  0.7127 -0.1921  1.5941
  895MOL0     C20702   6.607  10.342  10.749 -0.0877  0.3360 -1.9265
  895MOL0     C20703   6.703  10.329  10.877  0.8258  0.6994 -0.0694
  895MOL0     C20704   6.691  10.445  10.975 -0.4531 -0.1161 -0.1302
  895MOL0     C20705   6.808  10.456  11.076 -0.0884  0.9032  0.2460
  895MOL0     C20706   6.821  10.327  11.155 -0.2809 -0.1741 -0.1224
  895MOL0     N20707   6.907  10.348  11.278  0.2820 -0.1223  0.3480
  895MOL0     C20708   6.878  10.420  11.389  1.0964 -0.0466 -0.2986
  895MOL0     C20709   6.972  10.393  11.482 -0.5644 -0.1443 -0.0682
  895MOL0     C20710   7.013  10.440  11.624 -0.2212  0.5148  1.1265
  895MOL0     C20711   6.948  10.356  11.743 -0.3215  0.0393  0.5798
  895MOL0     C20712   7.014  10.215  11.762 -0.7681  0.1853  0.0549
  895MOL0     C20713   7.152  10.222  11.810  0.9237 -0.2608  0.2662
  895MOL0     O20714   7.148  10.280  11.949  0.3200  0.1677 -0.8903
  895MOL0     C20715   7.264  10.303  12.018  0.6548  1.0800 -1.1772
  895MOL0     C20716   7.393  10.270  11.965  0.5547  0.1957 -0.4145
  895MOL0     C20717   7.507  10.288  12.041 -0.3998  0.3114  0.0089
  895MOL0     C20718   7.497  10.345  12.170 -0.5242 -0.7850 -0.0392
  895MOL0     C20719   7.616  10.354  12.271  0.3147 -0.0016  0.4283
  895MOL0     O20720   7.696  10.249  12.276  0.5924  0.7424  0.2728
  895MOL0     C20721   7.811  10.251  12.352  1.5633 -0.2466 -0.0593
  895MOL0     C20722   7.912  10.176  12.292 -0.7433 -0.0230 -0.2562
  895MOL0     C20723   8.039  10.166  12.356 -0.3125  0.4397 -0.0989
  895MOL0     C20724   8.065  10.251  12.462 -0.3841  0.7110 -0.2682
  895MOL0     O20725   8.188  10.271  12.512 -0.3663  0.5062 -1.0657
  895MOL0     C20726   8.299  10.177  12.481  0.3301 -0.1154 -0.7901
  895MOL0     C20727   8.360  10.213  12.348 -0.8265 -0.5983 -0.5787
  895MOL0     C20728   8.468  10.327  12.361  0.8954  0.3179 -0.6755
  895MOL0     C20729   8.559  10.336  12.237  1.0011  0.2702  0.2056
  895MOL0     C20730   8.662  10.231  12.237 -0.7054  0.1822 -0.4834
  895MOL0     C20731   8.713  10.222  12.087 -0.0606  0.4074  0.9127
  895MOL0     C20732   8.803  10.102  12.065  0.2615  0.3494 -0.3041
  895MOL0     C20733   8.853  10.092  11.926  0.0995 -0.3580  0.2649
  895MOL0    Cl20734   8.988  10.211  11.912 -0.5129 -0.0161  0.3267
  895MOL0     C20735   7.956  10.325  12.521 -0.4905  0.1078  1.0499
  895MOL0     C20736   7.832  10.323  12.469  0.6919  0.5813  0.0990
  895MOL0     O20737   7.632  10.461  12.335  0.4406 -0.7024  0.1623
  895MOL0     C20738   7.372  10.396  12.219 -0.4007  0.6571  0.1637
  895MOL0     C20739   7.255  10.375  12.136  0.0273  0.1238 -0.4415
  895MOL0     N20740   7.067  10.311  11.427  0.8232 -1.1722 -0.3370
  895MOL0     N20741   7.020  10.285  11.315 -0.4053  0.1297  0.4999
  895MOL0     C20742   6.235  10.553  10.903  0.1665 -0.0754  0.4711
  895MOL0     C20743   6.155  10.640  10.978 -0.3450 -0.4245 -0.8270
  895MOL0     C20744   5.921  11.037  11.099 -0.0682  0.2376 -0.6833
  895MOL0     C20745   5.890  11.172  11.064 -0.1479 -0.2806  0.3267
  895MOL0     C20746   5.837  11.261  11.159 -0.2690  0.3316 -0.4954
  895MOL0     C20747   5.795  11.223  11.291  0.5937  0.7268 -0.2664
  895MOL0     O20748   5.726  11.305  11.373  0.1866  0.0730  0.0154
  895MOL0     C20749   5.685  11.246  11.493 -0.4093 -0.3903 -0.1478
  895MOL0     C20750   5.601  11.350  11.571  0.1864  0.0699 -1.4003
  895MOL0     C20751   5.675  11.487  11.609 -0.1027  0.1384 -0.1384
  895MOL0     C20752   5.826  11.457  11.647  0.1652 -0.3927  0.0838
  895MOL0     C20753   5.829  11.377  11.773 -0.0312 -0.0164 -0.6416
  895MOL0     C20754   5.847  11.306  11.873  0.3674  0.6601  1.0824
  895MOL0     C20755   5.830  11.087  11.326 -0.3198  1.1373  0.4925
  895MOL0     C20756   5.885  11.001  11.235  0.7459  0.3732 -0.6857
  895MOL0     C20757   5.916  10.849  11.283  0.0512 -1.0202  0.5694
  895MOL0     H20758   6.034  10.851  10.747 -1.8338 -0.3815  1.9010
  895MOL0     H20759   6.200  10.735  10.602 -0.5773 -2.1809 -2.5273
  895MOL0     H20760   6.351  10.560  10.473 -0.3887 -0.4634 -0.1009
  895MOL0     H20761   6.427  10.671  10.591  0.4782  0.9365  0.3376
  895MOL0     H20762   6.577  10.509  10.465 -1.2536  0.1951 -1.0163
  895MOL0     H20763   6.486  10.375  10.519  0.1293  1.2477 -2.4392
  895MOL0     H20764   6.613  10.562  10.731 -1.8592  0.3291  0.5375
  895MOL0     H20765   6.721  10.459  10.630 -0.4282 -1.4529 -0.9895
  895MOL0     H20766   6.502  10.334  10.780 -0.1463  1.1395 -1.8828
  895MOL0     H20767   6.639  10.259  10.686  0.3704 -0.5223 -0.6075
  895MOL0     H20768   6.678  10.242  10.938 -0.4599  3.1004  3.1911
  895MOL0     H20769   6.804  10.330  10.836  0.5085  2.0445 -0.9125
  895MOL0     H20770   6.703  10.543  10.927 -0.3457  1.1411  2.2963
  895MOL0     H20771   6.593  10.447  11.024  0.0274  3.6802  1.0007
  895MOL0     H20772   6.793  10.540  11.144 -0.4471  0.6987  0.4236
  895MOL0     H20773   6.903  10.469  11.025  0.0758 -0.0352  0.2899
  895MOL0     H20774   6.722  10.285  11.174  0.6380 -2.6292 -0.4020
  895MOL0     H20775   6.871  10.258  11.086 -1.3967  1.9684 -3.2724
  895MOL0     H20776   6.784  10.473  11.402  0.1280 -1.8822  0.5564
  895MOL0     H20777   7.120  10.453  11.644 -0.1981 -0.3081  1.5779
  895MOL0     H20778   6.981  10.544  11.635 -1.0740  0.4578 -0.4816
  895MOL0     H20779   6.943  10.419  11.832 -1.9368  0.3353  0.2983
  895MOL0     H20780   6.850  10.324  11.709  0.4876 -3.0033  0.8204
  895MOL0     H20781   7.010  10.174  11.661 -0.2951  0.2371  0.0141
  895MOL0     H20782   6.944  10.160  11.826 -0.8781  1.6677  1.2717
  895MOL0     H20783   7.208  10.293  11.749 -1.3037 -0.2921 -1.9758
  895MOL0     H20784   7.200  10.124  11.814  0.9632 -0.2667  4.5572
  895MOL0     H20785   7.396  10.221  11.868 -3.2022  1.1686 -1.1901
  895MOL0     H20786   7.600  10.246  12.005 -1.1242 -1.1874 -0.2037
  895MOL0     H20787   7.899  10.115  12.203 -0.6749 -2.4549  1.2914
  895MOL0     H20788   8.111  10.092  12.323  1.2906  1.2477  1.3973
  895MOL0     H20789   8.370  10.178  12.564 -2.2273 -1.7567  1.5932
  895MOL0     H20790   8.255  10.077  12.474 -0.2443  0.0455  0.1726
  895MOL0     H20791   8.407  10.121  12.310  2.2001  1.2905 -1.7665
  895MOL0     H20792   8.283  10.240  12.276 -1.5280  1.0713  0.7361
  895MOL0     H20793   8.411  10.420  12.365 -0.9390 -0.6181 -2.7878
  895MOL0     H20794   8.535  10.317  12.447  0.8497  1.3769 -0.4978
  895MOL0     H20795   8.614  10.430  12.229 -0.6604  1.2871  0.1454
  895MOL0     H20796   8.490  10.333  12.153  0.7857  0.9319  0.3482
  895MOL0     H20797   8.617  10.137  12.271 -0.1025 -0.1372 -0.5475
  895MOL0     H20798   8.730  10.246  12.321 -2.5325  0.8589  0.9402
  895MOL0     H20799   8.630  10.207  12.018  1.2405 -2.2351 -0.2231
  895MOL0     H20800   8.766  10.315  12.068  3.8290 -1.9356 -0.8018
  895MOL0     H20801   8.739  10.013  12.066 -2.6181  2.2705 -0.6069
  895MOL0     H20802   8.888  10.100  12.134  1.4920  1.7036 -1.6920
  895MOL0     H20803   8.892   9.991  11.905 -0.6402 -0.1518 -2.5156
  895MOL0     H20804   8.783  10.112  11.845  0.6844  1.3119  0.1471
  895MOL0     H20805   7.984  10.366  12.617  2.2996 -0.0625  0.4120
  895MOL0     H20806   7.745  10.374  12.510  1.5927  1.2473  1.2361
  895MOL0     H20807   7.378  10.454  12.310  0.2445 -3.6203  3.1339
  895MOL0     H20808   7.156  10.390  12.178  0.3924 -1.1560  0.9741
  895MOL0     H20809   6.300  10.472  10.937 -0.5477 -1.2516 -0.8657
  895MOL0     H20810   6.166  10.631  11.086  2.5563  2.1185 -0.7495
  895MOL0     H20811   5.898  11.222  10.968 -0.6788 -1.0240 -0.1064
  895MOL0     H20812   5.803  11.353  11.111 -1.9446  0.2729  0.5248
  895MOL0     H20813   5.774  11.212  11.547  1.1875  2.4194 -0.8161
  895MOL0     H20814   5.618  11.162  11.475 -1.5374  0.3720  0.3908
  895MOL0     H20815   5.570  11.311  11.669  1.4097  3.2249  0.3992
  895MOL0     H20816   5.512  11.369  11.510 -0.5024 -2.6372 -1.3419
  895MOL0     H20817   5.622  11.543  11.687  0.5827 -1.5379  1.6095
  895MOL0     H20818   5.677  11.554  11.522 -1.1842 -0.4790 -0.6568
  895MOL0     H20819   5.885  11.403  11.572  0.6920 -0.1192  0.2938
  895MOL0     H20820   5.876  11.552  11.670 -3.0884  0.6918  3.7997
  895MOL0     H20821   5.854  11.262  11.970 -1.0283  1.9971  1.8439
  895MOL0     H20822   5.805  11.044  11.422  0.2182 -0.3092  0.0175
  895MOL0     H20823   5.923  10.860  11.392 -0.6030  2.1524  0.3775
  895MOL0     H20824   5.838  10.782  11.246  0.0727  0.0103 -1.4650
  895MOL0     H20825   6.014  10.826  11.239  1.6638  0.8593  2.8966
  896MOL0     O20826   0.052   2.986   0.410  0.1020  0.0864  0.4805
  896MOL0     C20827  -0.048   3.000   0.344 -0.0610  1.3229 -0.7019
  896MOL0     O20828  -0.051   3.038   0.215  0.0741  0.5247 -0.1603
  896MOL0     C20829   0.066   3.021   0.146  0.1037  0.4034 -0.0413
  896MOL0     C20830   0.153   3.134   0.130  0.2713  0.0513 -1.0409
  896MOL0     C20831   0.275   3.119   0.065  0.7790 -0.6280 -0.2439
  896MOL0     C20832   0.306   3.000   0.002  0.3052  0.4656  0.7877
  896MOL0     O20833   0.431   2.973  -0.057 -0.0843 -0.8367  0.2603
  896MOL0     C20834   0.517   3.086  -0.086  1.1323 -0.0982 -0.7067
  896MOL0     C20835   0.636   3.062  -0.173 -0.0749 -0.1646  0.5233
  896MOL0     C20836   0.713   3.196  -0.187 -0.4976 -0.1146  0.1721
  896MOL0     C20837   0.846   3.184  -0.268 -0.0879  0.5786  0.1855
  896MOL0     C20838   0.920   3.317  -0.272  0.6667 -0.5151  0.0472
  896MOL0     C20839   0.995   3.360  -0.149  0.2158 -0.1219  0.7797
  896MOL0     C20840   1.112   3.258  -0.108 -0.8597  0.1598  0.7322
  896MOL0     C20841   1.212   3.321  -0.007 -0.3083  0.4069 -0.6307
  896MOL0     N20842   1.275   3.440  -0.052 -0.7014  1.0304  0.1637
  896MOL0     C20843   1.334   3.442  -0.177  0.2442  1.2097  0.0552
  896MOL0     C20844   1.360   3.576  -0.195  0.0984 -0.0919 -0.4776
  896MOL0     C20845   1.438   3.653  -0.301  0.0657 -0.3523  0.1702
  896MOL0     C20846   1.576   3.662  -0.261 -0.4776  1.0970 -0.8969
  896MOL0     C20847   1.663   3.770  -0.331  0.4959 -0.9145  0.0490
  896MOL0     C20848   1.815   3.756  -0.311 -0.1632  0.4462 -0.3020
  896MOL0     O20849   1.880   3.873  -0.364  0.5182 -0.9396 -0.0840
  896MOL0     C20850   2.007   3.902  -0.319  0.4098 -0.5150 -0.6254
  896MOL0     C20851   2.058   4.026  -0.348 -0.3968  0.4109 -0.6165
  896MOL0     C20852   2.190   4.066  -0.314 -0.1382  0.3589  0.6474
  896MOL0     C20853   2.269   3.967  -0.257 -0.9101  0.2955  0.1627
  896MOL0     C20854   2.405   3.995  -0.215 -0.6367 -0.3010 -0.1517
  896MOL0     O20855   2.457   3.934  -0.108 -0.5740  0.0149 -0.2695
  896MOL0     C20856   2.585   3.962  -0.067 -0.0485 -0.5410  0.1680
  896MOL0     C20857   2.674   3.851  -0.030  0.5735 -0.3843 -0.8420
  896MOL0     C20858   2.795   3.879   0.033 -0.5121  0.5372 -0.3757
  896MOL0     C20859   2.834   4.011   0.059 -1.4065 -1.2644 -0.0010
  896MOL0     O20860   2.952   4.031   0.136  0.5880  0.3527 -0.2338
  896MOL0     C20861   3.072   4.047   0.059 -0.1147 -0.2081 -0.0089
  896MOL0     C20862   3.186   3.978   0.134 -0.4811  0.5384  0.5851
  896MOL0     C20863   3.325   4.032   0.106  0.3703  0.2218 -0.9026
  896MOL0     C20864   3.375   4.007  -0.038  0.4621  0.4547 -0.1092
  896MOL0     C20865   3.503   4.079  -0.079  0.8289 -0.8392  0.5573
  896MOL0     C20866   3.614   4.002  -0.021  0.8038 -0.6590 -0.2080
  896MOL0     C20867   3.740   4.082  -0.001  0.2279 -0.1737 -0.1929
  896MOL0     C20868   3.794   4.140  -0.131  0.5665 -0.2991 -1.1869
  896MOL0    Cl20869   3.791   4.014  -0.256  0.2696 -0.0052  0.3846
  896MOL0     C20870   2.745   4.113   0.039  0.8678  0.7067  0.1194
  896MOL0     C20871   2.619   4.091  -0.021 -0.9340 -0.4806 -0.0012
  896MOL0     O20872   2.464   4.072  -0.293  0.3479  0.0035  0.3237
  896MOL0     C20873   2.212   3.842  -0.227  0.7569 -0.3946 -0.2056
  896MOL0     C20874   2.085   3.812  -0.250  0.4199  0.4730  0.1525
  896MOL0     N20875   1.306   3.647  -0.083 -0.1273  0.0107  0.3088
  896MOL0     N20876   1.265   3.565   0.007 -0.1144  0.4149 -0.2657
  896MOL0     C20877   0.213   2.888   0.025 -0.8120  0.1797  0.0726
  896MOL0     C20878   0.100   2.894   0.093 -0.9482  0.3127  0.1099
  896MOL0     C20879  -0.185   2.988   0.403 -0.5043  0.5212  0.5157
  896MOL0     C20880  -0.282   2.916   0.336 -0.0621 -0.0280 -0.6276
  896MOL0     C20881  -0.392   2.892   0.404 -0.7320  0.6502 -0.2501
  896MOL0     C20882  -0.436   2.949   0.525 -0.8840  0.1069  0.6834
  896MOL0     O20883  -0.557   2.926   0.587 -1.0995 -0.0609  0.8840
  896MOL0     C20884  -0.663   2.868   0.517  0.5891 -0.3914  0.3211
  896MOL0     C20885  -0.765   2.832   0.621  0.0173  1.1716  0.2003
  896MOL0     C20886  -0.832   2.958   0.673  0.3916 -0.0026  0.0769
  896MOL0     C20887  -0.922   2.925   0.798 -0.3382  0.0480 -0.6390
  896MOL0     C20888  -1.046   2.862   0.760  0.9204  0.0781 -0.6123
  896MOL0     C20889  -1.154   2.832   0.730 -0.2291  0.7648 -0.5043
  896MOL0     C20890  -0.338   3.028   0.590  0.4140 -0.0189  0.0451
  896MOL0     C20891  -0.217   3.050   0.531 -0.1109 -0.6279 -0.0410
  896MOL0     C20892  -0.125   3.151   0.592 -0.2793 -0.5058  0.0212
  896MOL0     H20893   0.113   3.222   0.180  0.5242  0.5851 -1.7633
  896MOL0     H20894   0.340   3.206   0.065 -1.6146  1.2717  0.7664
  896MOL0     H20895   0.449   3.165  -0.121  1.5652  0.6295  0.0587
  896MOL0     H20896   0.555   3.107   0.014 -1.4984 -2.5361  0.9455
  896MOL0     H20897   0.604   3.025  -0.271 -1.9064  1.2300  0.5335
  896MOL0     H20898   0.688   2.976  -0.129 -1.5251  0.3167  3.4913
  896MOL0     H20899   0.741   3.241  -0.090  3.9560  3.0047 -2.1836
  896MOL0     H20900   0.659   3.277  -0.238 -0.3726 -0.4125 -0.4399
  896MOL0     H20901   0.894   3.101  -0.215 -0.4892 -2.0847 -3.3081
  896MOL0     H20902   0.835   3.141  -0.367  1.4244 -1.5032  0.8457
  896MOL0     H20903   0.998   3.317  -0.349  2.6732  0.1948  1.9845
  896MOL0     H20904   0.844   3.390  -0.302 -1.1244 -0.6001  3.8767
  896MOL0     H20905   1.048   3.451  -0.178  1.5951 -0.5087  1.9813
  896MOL0     H20906   0.921   3.374  -0.070 -2.8295 -1.1250 -1.7013
  896MOL0     H20907   1.163   3.218  -0.195  0.5612 -3.0721  2.8720
  896MOL0     H20908   1.062   3.176  -0.055 -1.4898  0.0494 -0.0090
  896MOL0     H20909   1.166   3.354   0.087  0.8715  0.7362 -0.1437
  896MOL0     H20910   1.288   3.247   0.019 -2.2168 -2.1638 -1.9095
  896MOL0     H20911   1.352   3.360  -0.246 -0.9893  0.5127  0.5325
  896MOL0     H20912   1.431   3.607  -0.400  0.7702  0.7912 -0.4315
  896MOL0     H20913   1.408   3.757  -0.287  3.6929  0.8012  0.4095
  896MOL0     H20914   1.587   3.678  -0.154  2.8207 -1.2865 -0.7188
  896MOL0     H20915   1.621   3.562  -0.269 -3.3600 -0.7324  2.7127
  896MOL0     H20916   1.636   3.865  -0.285  0.9292 -0.1297 -1.2809
  896MOL0     H20917   1.655   3.781  -0.439  5.3177 -2.9222 -0.7397
  896MOL0     H20918   1.843   3.669  -0.370 -1.0252  1.1632 -1.8288
  896MOL0     H20919   1.837   3.740  -0.205  1.4532 -1.8554 -0.9006
  896MOL0     H20920   1.990   4.098  -0.394 -4.1396 -2.2927  0.2269
  896MOL0     H20921   2.227   4.166  -0.332 -1.2416  0.3579 -2.1158
  896MOL0     H20922   2.642   3.749  -0.045  1.1367 -0.2970 -2.9593
  896MOL0     H20923   2.852   3.790   0.057  0.7667  1.8363  1.7570
  896MOL0     H20924   3.057   4.003  -0.040  0.0178 -0.5423  0.1199
  896MOL0     H20925   3.094   4.154   0.054 -3.1211  0.5039 -0.0210
  896MOL0     H20926   3.175   3.986   0.243 -3.5924 -0.1866  0.4166
  896MOL0     H20927   3.182   3.870   0.119  0.6507  0.6244 -0.5562
  896MOL0     H20928   3.336   4.139   0.129  1.1712  0.0059 -0.2064
  896MOL0     H20929   3.390   3.975   0.174  0.6007  0.9691 -0.4851
  896MOL0     H20930   3.291   4.040  -0.101 -2.4957 -1.8596  2.2853
  896MOL0     H20931   3.380   3.899  -0.057 -0.9411  0.5449 -1.2238
  896MOL0     H20932   3.501   4.176  -0.029  2.2623  0.0962 -1.0873
  896MOL0     H20933   3.500   4.081  -0.189 -0.5764 -1.5057  0.5533
  896MOL0     H20934   3.589   3.970   0.081 -0.6262  0.7878 -0.0799
  896MOL0     H20935   3.632   3.910  -0.079 -1.5867 -1.1375 -0.2831
  896MOL0     H20936   3.822   4.016   0.032  0.4590 -1.5912 -3.2472
  896MOL0     H20937   3.730   4.152   0.083  0.3292 -0.9353  0.4687
  896MOL0     H20938   3.734   4.227  -0.161  2.1828  0.2904 -2.8891
  896MOL0     H20939   3.895   4.178  -0.114 -0.0634  0.4465  1.4862
  896MOL0     H20940   2.771   4.205   0.090  0.4163  0.0122  1.6641
  896MOL0     H20941   2.555   4.178  -0.025  1.9601  1.7561 -1.3892
  896MOL0     H20942   2.270   3.764  -0.178 -0.2743 -2.6542 -2.3724
  896MOL0     H20943   2.044   3.715  -0.223 -0.5339  1.6674  3.4734
  896MOL0     H20944   0.244   2.794  -0.020  0.3058 -1.2912  3.5108
  896MOL0     H20945   0.049   2.798   0.099  1.8609 -1.2918 -0.1805
  896MOL0     H20946  -0.262   2.872   0.239  1.6943 -0.0973 -0.2711
  896MOL0     H20947  -0.448   2.812   0.357 -1.7753  1.9598 -1.3168
  896MOL0     H20948  -0.634   2.781   0.459  0.0002  0.2371 -0.9610
  896MOL0     H20949  -0.705   2.945   0.452  0.8364 -0.4435  0.1020
  896MOL0     H20950  -0.733   2.770   0.705 -0.5278 -1.1772 -1.2182
  896MOL0     H20951  -0.841   2.770   0.574 -0.2649  1.3364  0.4350
  896MOL0     H20952  -0.896   2.990   0.591  3.9640  1.3037 -2.4454
  896MOL0     H20953  -0.757   3.033   0.702  0.8580 -0.0547 -0.9507
  896MOL0     H20954  -0.863   2.869   0.871  0.2956  0.5721 -0.7377
  896MOL0     H20955  -0.963   3.014   0.847 -0.4217 -0.8975  1.0805
  896MOL0     H20956  -1.243   2.786   0.691  0.5431 -0.1554 -1.2084
  896MOL0     H20957  -0.361   3.082   0.682  0.0866 -2.1131  1.2415
  896MOL0     H20958  -0.108   3.235   0.523 -3.9681  0.1294 -0.3066
  896MOL0     H20959  -0.161   3.192   0.686 -1.3719  1.5825 -1.2258
  896MOL0     H20960  -0.029   3.110   0.625 -1.2158 -2.6054  0.2978
  897MOL0     O20961   3.376   1.448   6.232  0.0976  0.4392  0.3286
  897MOL0     C20962   3.381   1.333   6.193 -0.3111  0.4414  0.8944
  897MOL0     O20963   3.450   1.296   6.087  0.8076 -0.2566  0.8817
  897MOL0     C20964   3.463   1.387   5.984 -0.4811 -0.3572 -0.3202
  897MOL0     C20965   3.377   1.476   5.919 -0.6576  0.2171 -0.1001
  897MOL0     C20966   3.420   1.565   5.810 -0.3349  1.2447  0.0866
  897MOL0     C20967   3.551   1.552   5.761  0.4753  0.7593  0.2108
  897MOL0     O20968   3.580   1.618   5.639  0.2276  0.1930 -0.0688
  897MOL0     C20969   3.719   1.605   5.592  0.0394  0.1322 -0.5310
  897MOL0     C20970   3.761   1.718   5.496  0.0694 -0.5222 -0.5079
  897MOL0     C20971   3.759   1.843   5.576  0.3630  0.6980  0.4968
  897MOL0     C20972   3.826   1.965   5.504 -0.3196 -0.3640  0.8792
  897MOL0     C20973   3.977   1.978   5.508 -0.4929 -0.3812 -0.6866
  897MOL0     C20974   4.040   2.089   5.425  1.3140  0.0757 -0.4253
  897MOL0     C20975   4.197   2.077   5.398  0.1590 -0.3870  0.1553
  897MOL0     C20976   4.206   1.977   5.287  0.2160  0.8056 -0.0326
  897MOL0     N20977   4.337   1.910   5.268 -0.3900 -0.3131 -0.3475
  897MOL0     C20978   4.462   1.966   5.280  0.2001 -0.0928 -0.3225
  897MOL0     C20979   4.556   1.873   5.242 -0.0899  0.0893  0.7419
  897MOL0     C20980   4.703   1.898   5.228 -0.3968 -0.4901 -0.2899
  897MOL0     C20981   4.740   1.869   5.079 -0.1447  0.2280  0.8150
  897MOL0     C20982   4.896   1.880   5.054  0.3595  0.2395 -0.2224
  897MOL0     C20983   4.916   1.897   4.907  0.0416  0.4750  0.2171
  897MOL0     O20984   5.054   1.867   4.873 -0.2740 -0.9387 -0.2501
  897MOL0     C20985   5.100   1.739   4.852  0.1776  0.9338 -0.2886
  897MOL0     C20986   5.021   1.623   4.870  0.3279  0.0148  0.0110
  897MOL0     C20987   5.081   1.498   4.845 -0.2440  0.2621  0.5036
  897MOL0     C20988   5.215   1.487   4.815  1.2193  0.1206  0.0366
  897MOL0     C20989   5.286   1.355   4.786  0.1830  0.0581  0.1524
  897MOL0     O20990   5.409   1.362   4.734  0.4716  0.9330 -0.4973
  897MOL0     C20991   5.470   1.235   4.717  0.5725 -0.2515  0.6986
  897MOL0     C20992   5.464   1.181   4.587 -0.0384 -0.1792  0.1947
  897MOL0     C20993   5.524   1.055   4.574  0.4739  0.4461  0.2354
  897MOL0     C20994   5.590   0.985   4.679 -0.2234 -0.0543 -0.3116
  897MOL0     O20995   5.648   0.862   4.672 -0.1062 -0.6215  0.2102
  897MOL0     C20996   5.662   0.800   4.542  0.6372  0.4082 -0.3491
  897MOL0     C20997   5.747   0.674   4.547 -0.1985 -0.3116  0.3144
  897MOL0     C20998   5.889   0.692   4.603  0.3386  0.2936 -0.3935
  897MOL0     C20999   5.960   0.555   4.577 -0.3430 -0.2679 -0.1441
  897MOL0     C21000   6.084   0.562   4.664 -0.3808  0.2067  0.1856
  897MOL0     C21001   6.186   0.661   4.604 -1.1030  0.3395 -0.0656
  897MOL0     C21002   6.329   0.642   4.665 -0.1043 -0.1794  0.1758
  897MOL0     C21003   6.431   0.627   4.551  0.4575  0.8505  0.4163
  897MOL0    Cl21004   6.604   0.642   4.618  0.5346  0.1228  0.1890
  897MOL0     C21005   5.573   1.044   4.811  0.4991  0.5208  0.7836
  897MOL0     C21006   5.522   1.165   4.829 -0.4827 -0.4664  0.2711
  897MOL0     O21007   5.225   1.257   4.812 -0.0318 -0.0632 -0.0950
  897MOL0     C21008   5.285   1.606   4.787 -0.7229 -0.1413  0.2577
  897MOL0     C21009   5.227   1.723   4.803  0.0792  0.1890 -0.3026
  897MOL0     N21010   4.478   1.760   5.201 -1.2252  0.1659 -0.1657
  897MOL0     N21011   4.355   1.788   5.220  0.4700  0.4295  0.2667
  897MOL0     C21012   3.636   1.451   5.818  0.3236  0.3345 -0.1466
  897MOL0     C21013   3.596   1.372   5.926  0.4243  0.0492 -1.1711
  897MOL0     C21014   3.300   1.230   6.261 -0.4348 -0.0704  0.0463
  897MOL0     C21015   3.179   1.264   6.314 -0.1904  0.2209 -0.6895
  897MOL0     C21016   3.101   1.173   6.392  0.2298 -0.1665  0.6166
  897MOL0     C21017   3.131   1.038   6.381  0.0896 -0.7849  0.1051
  897MOL0     O21018   3.037   0.937   6.426 -0.9147  0.3479  0.0443
  897MOL0     C21019   2.899   0.963   6.443  0.3621 -0.2147  0.4038
  897MOL0     C21020   2.845   1.000   6.310  0.6431 -0.6933  0.5972
  897MOL0     C21021   2.694   0.964   6.286  0.3965 -0.7904 -0.3353
  897MOL0     C21022   2.631   1.013   6.160 -0.2650 -1.0026 -0.0210
  897MOL0     C21023   2.488   0.984   6.156 -0.4182  0.0132 -1.5607
  897MOL0     C21024   2.369   0.981   6.142 -0.0966 -0.5205  0.2978
  897MOL0     C21025   3.253   0.994   6.325  0.5737 -0.3532  0.4726
  897MOL0     C21026   3.334   1.091   6.271 -0.9302  0.1509 -0.7519
  897MOL0     C21027   3.474   1.043   6.256 -0.8906  0.3266 -0.1887
  897MOL0     H21028   3.272   1.484   5.946 -0.3794  0.3363  0.9861
  897MOL0     H21029   3.357   1.628   5.749 -0.1791  1.1571 -0.1669
  897MOL0     H21030   3.785   1.604   5.679 -2.2543 -0.7329  1.3034
  897MOL0     H21031   3.723   1.505   5.549  1.4260 -0.8253  1.6937
  897MOL0     H21032   3.696   1.727   5.409  1.0592 -1.4619 -1.3671
  897MOL0     H21033   3.861   1.695   5.460 -1.2277 -2.3885 -3.3297
  897MOL0     H21034   3.805   1.826   5.673 -0.2434 -0.2886  0.6177
  897MOL0     H21035   3.653   1.874   5.580 -0.3754 -0.9255 -2.9099
  897MOL0     H21036   3.802   1.967   5.398  1.8727  1.8187  0.3136
  897MOL0     H21037   3.782   2.060   5.536 -0.3417 -0.2143  0.4067
  897MOL0     H21038   4.009   2.002   5.609 -1.1479 -0.3089 -0.4867
  897MOL0     H21039   4.014   1.879   5.479  0.7363 -0.1219 -0.0601
  897MOL0     H21040   3.986   2.105   5.332 -1.3238  2.3045  1.3222
  897MOL0     H21041   4.026   2.181   5.483 -1.7241 -1.1166  0.9569
  897MOL0     H21042   4.251   2.026   5.479 -2.0663 -1.0496  1.3078
  897MOL0     H21043   4.248   2.167   5.363  3.1463 -0.9116  2.6918
  897MOL0     H21044   4.131   1.898   5.298  1.1835 -0.2149 -0.7047
  897MOL0     H21045   4.185   2.030   5.194  1.1783  4.0953  1.4618
  897MOL0     H21046   4.477   2.064   5.324 -0.5324 -0.4832  0.8486
  897MOL0     H21047   4.734   1.997   5.262 -0.3741  0.0478 -1.8160
  897MOL0     H21048   4.749   1.822   5.293 -1.4068  1.7658  3.3628
  897MOL0     H21049   4.720   1.774   5.029  0.7750  0.6945 -0.4901
  897MOL0     H21050   4.698   1.960   5.035  1.2471  1.0705  1.1888
  897MOL0     H21051   4.953   1.791   5.085 -0.1573  0.1581  0.5288
  897MOL0     H21052   4.938   1.958   5.118  0.6267  0.0432 -0.1524
  897MOL0     H21053   4.895   2.002   4.885 -2.2001  0.9055  3.7225
  897MOL0     H21054   4.849   1.834   4.848 -0.4004 -0.9191  2.1219
  897MOL0     H21055   4.916   1.638   4.891  0.1681  0.0860 -0.8058
  897MOL0     H21056   5.020   1.409   4.845  1.1310 -0.7569 -1.2092
  897MOL0     H21057   5.416   1.242   4.511  4.3259  1.0076 -1.9079
  897MOL0     H21058   5.523   1.007   4.477 -6.0137 -0.4254  0.2904
  897MOL0     H21059   5.566   0.780   4.495  1.2809 -4.4187 -0.1100
  897MOL0     H21060   5.720   0.863   4.474 -0.8332 -2.3713 -4.5573
  897MOL0     H21061   5.690   0.599   4.602 -0.5754  0.8208  1.5350
  897MOL0     H21062   5.766   0.642   4.444 -1.0983  1.0466 -0.3049
  897MOL0     H21063   5.945   0.775   4.558  1.6154 -0.8744 -1.0271
  897MOL0     H21064   5.876   0.708   4.710 -2.2504 -0.6155 -0.4982
  897MOL0     H21065   5.979   0.536   4.471 -2.3453 -2.6506 -0.1732
  897MOL0     H21066   5.902   0.469   4.612  0.6922 -0.4708  1.1342
  897MOL0     H21067   6.134   0.465   4.667  2.0931  1.3724 -0.1047
  897MOL0     H21068   6.060   0.593   4.766  0.0208  0.5622  0.1747
  897MOL0     H21069   6.195   0.663   4.495  3.1822 -1.3583  0.0571
  897MOL0     H21070   6.152   0.760   4.636 -3.2337  0.0571 -1.2677
  897MOL0     H21071   6.339   0.559   4.736  1.3748  0.5282  0.8341
  897MOL0     H21072   6.352   0.730   4.725  1.8854  0.0018 -0.7921
  897MOL0     H21073   6.411   0.527   4.511 -0.3897  1.2321 -0.1372
  897MOL0     H21074   6.406   0.694   4.469 -0.5159  0.1535  0.1208
  897MOL0     H21075   5.620   0.999   4.897  0.4738 -1.5283 -0.2054
  897MOL0     H21076   5.525   1.212   4.927  0.3425 -3.9334  2.0679
  897MOL0     H21077   5.391   1.598   4.764 -0.3264  1.2033  1.4677
  897MOL0     H21078   5.297   1.804   4.788  2.1694 -1.6767 -1.1835
  897MOL0     H21079   3.735   1.441   5.777 -0.0717  2.5216 -1.8274
  897MOL0     H21080   3.668   1.310   5.978 -0.0532  0.9768  0.6405
  897MOL0     H21081   3.155   1.369   6.330 -2.9680 -0.7026  2.3639
  897MOL0     H21082   3.014   1.217   6.440  0.4941  0.5049  0.4929
  897MOL0     H21083   2.876   1.035   6.522  1.6297 -0.6433  1.1913
  897MOL0     H21084   2.850   0.870   6.475 -0.7928 -0.9378 -3.0049
  897MOL0     H21085   2.903   0.947   6.235  0.9554  0.4979 -0.0173
  897MOL0     H21086   2.855   1.109   6.300 -0.4818 -0.0244  4.6689
  897MOL0     H21087   2.631   1.002   6.367 -0.1282 -1.0284 -0.6234
  897MOL0     H21088   2.682   0.855   6.287 -0.0706 -0.7651  2.4019
  897MOL0     H21089   2.644   1.117   6.128  0.5422 -1.1903 -0.3219
  897MOL0     H21090   2.683   0.967   6.075 -0.0732  1.1719 -1.1590
  897MOL0     H21091   2.262   0.986   6.150 -0.1082 -2.2789  2.3879
  897MOL0     H21092   3.280   0.889   6.323 -2.0206 -1.1347  2.0627
  897MOL0     H21093   3.536   1.129   6.229 -0.8675  0.2029 -0.5375
  897MOL0     H21094   3.498   1.010   6.357  0.6653 -0.3432 -0.7510
  897MOL0     H21095   3.497   0.954   6.197 -1.8030 -1.1480  1.5744
  898MOL0     O21096   5.582   5.483   1.474 -0.3671 -0.0478 -0.1958
  898MOL0     C21097   5.622   5.412   1.562 -0.4870 -0.3560 -0.4229
  898MOL0     O21098   5.670   5.288   1.547  0.3587  0.7007 -0.0270
  898MOL0     C21099   5.649   5.208   1.435  0.0820 -0.4354 -0.1101
  898MOL0     C21100   5.539   5.232   1.339 -0.0454  0.1535  0.0901
  898MOL0     C21101   5.510   5.131   1.247 -0.0617  0.1734  0.6797
  898MOL0     C21102   5.583   5.014   1.223 -0.8345  0.0453 -0.2119
  898MOL0     O21103   5.539   4.932   1.122  0.3485  0.0211 -1.1962
  898MOL0     C21104   5.533   4.794   1.151  0.3819  0.4169  0.2880
  898MOL0     C21105   5.552   4.697   1.032 -0.4535 -0.5820  0.0582
  898MOL0     C21106   5.484   4.559   1.045 -0.0543 -0.9272  0.2765
  898MOL0     C21107   5.332   4.544   1.025  0.1842 -0.0394  0.2226
  898MOL0     C21108   5.294   4.398   1.022  0.7606  0.2663  0.6157
  898MOL0     C21109   5.162   4.379   0.946 -0.4597  0.3006 -0.3335
  898MOL0     C21110   5.106   4.240   0.973  0.6566  0.0674  0.2940
  898MOL0     C21111   5.188   4.128   0.889  1.0481 -0.0038  0.2780
  898MOL0     N21112   5.147   4.000   0.960 -0.1391  0.5677  0.4119
  898MOL0     C21113   5.025   3.936   0.962 -0.6858  0.1039 -0.3563
  898MOL0     C21114   5.061   3.822   1.024  0.1931  0.1271  0.1364
  898MOL0     C21115   4.965   3.716   1.058  0.4535  0.0822 -0.1971
  898MOL0     C21116   4.924   3.620   0.936 -1.0614  0.6466 -0.1770
  898MOL0     C21117   5.051   3.573   0.856 -0.5951  0.8875  0.4425
  898MOL0     C21118   5.018   3.473   0.740  0.0409  0.0732  0.3606
  898MOL0     O21119   4.948   3.556   0.629 -0.1048 -0.1663  0.5020
  898MOL0     C21120   4.966   3.496   0.505 -0.4369 -0.3753  1.0421
  898MOL0     C21121   5.046   3.560   0.409 -0.4886 -0.3345  0.0769
  898MOL0     C21122   5.096   3.502   0.295 -0.3476  0.1777 -0.2236
  898MOL0     C21123   5.052   3.367   0.269  0.1657  0.0045 -0.1330
  898MOL0     C21124   5.088   3.297   0.148  0.6552  0.0512  0.3177
  898MOL0     O21125   5.004   3.192   0.120 -0.2547 -0.2984 -0.0316
  898MOL0     C21126   5.030   3.120  -0.000 -1.0226 -0.3968 -0.2057
  898MOL0     C21127   5.068   2.982   0.005 -0.2533 -0.0999 -0.3435
  898MOL0     C21128   5.061   2.905  -0.107  0.2026  0.7721  0.4215
  898MOL0     C21129   5.038   2.968  -0.233 -0.2611  0.6773 -0.0665
  898MOL0     O21130   5.029   2.876  -0.331  0.1482 -0.0611 -0.2686
  898MOL0     C21131   5.047   2.905  -0.464  0.5518 -0.0882  0.3695
  898MOL0     C21132   5.003   2.775  -0.533  0.2937 -0.1902  0.2125
  898MOL0     C21133   4.858   2.739  -0.507  0.6041  1.1098  0.6246
  898MOL0     C21134   4.861   2.588  -0.468 -0.1726 -0.5142  0.5576
  898MOL0     C21135   4.724   2.519  -0.475 -1.2558  0.0640  0.5782
  898MOL0     C21136   4.719   2.372  -0.442  0.6227  0.4145  0.2613
  898MOL0     C21137   4.570   2.329  -0.431 -0.8953 -0.3546 -0.5251
  898MOL0     C21138   4.544   2.194  -0.374 -0.5891  0.1444  0.8987
  898MOL0    Cl21139   4.368   2.176  -0.369  0.3874 -0.0487 -0.4025
  898MOL0     C21140   5.027   3.106  -0.240  0.5102 -0.1957  1.1130
  898MOL0     C21141   5.012   3.179  -0.123 -0.5109  0.2287 -0.4494
  898MOL0     O21142   5.169   3.351   0.068 -0.1553  0.2837  1.2521
  898MOL0     C21143   4.955   3.308   0.355  0.8195 -0.1556 -0.6549
  898MOL0     C21144   4.915   3.369   0.474  0.2223 -0.7080  0.6110
  898MOL0     N21145   5.195   3.817   1.057  0.0971  0.3808 -1.3601
  898MOL0     N21146   5.244   3.918   1.011  0.6157 -0.2037  0.4417
  898MOL0     C21147   5.694   4.995   1.310 -0.4867 -0.6431  0.6739
  898MOL0     C21148   5.722   5.092   1.416  0.0280  0.7265 -0.8712
  898MOL0     C21149   5.635   5.471   1.692  1.1937 -0.4180  0.5198
  898MOL0     C21150   5.683   5.391   1.793 -1.3893 -0.2296  0.6354
  898MOL0     C21151   5.707   5.431   1.927  0.2975 -0.0106  0.5701
  898MOL0     C21152   5.662   5.563   1.965 -0.1248 -0.2182 -1.1750
  898MOL0     O21153   5.671   5.609   2.088  0.9317 -0.5396 -0.1626
  898MOL0     C21154   5.601   5.518   2.174 -0.5888 -0.2303  0.0327
  898MOL0     C21155   5.501   5.594   2.263  0.1624 -0.5427  0.2628
  898MOL0     C21156   5.433   5.489   2.351 -0.1515 -0.7512  0.1150
  898MOL0     C21157   5.304   5.529   2.411  1.0016  0.3443 -0.3853
  898MOL0     C21158   5.263   5.421   2.512  0.4435 -0.4920 -0.3739
  898MOL0     C21159   5.234   5.330   2.597  0.6127 -0.2337 -0.2006
  898MOL0     C21160   5.596   5.652   1.869  0.1054  0.4971 -0.0302
  898MOL0     C21161   5.585   5.606   1.735  0.4312  0.4968 -0.6213
  898MOL0     C21162   5.523   5.695   1.641 -0.5971 -0.7420  0.4965
  898MOL0     H21163   5.469   5.315   1.335 -1.5444 -1.0966 -1.8417
  898MOL0     H21164   5.425   5.137   1.179 -0.6686  0.6456  1.4606
  898MOL0     H21165   5.611   4.761   1.220  1.2744 -1.3420 -1.4601
  898MOL0     H21166   5.437   4.773   1.200  0.3066  2.8403  1.2962
  898MOL0     H21167   5.660   4.683   1.025 -0.0007  2.9046 -3.4368
  898MOL0     H21168   5.530   4.749   0.938  1.3270 -2.5937 -1.5712
  898MOL0     H21169   5.512   4.521   1.144  4.3057  0.8416 -0.0882
  898MOL0     H21170   5.543   4.507   0.969  4.7680  1.6360  1.8865
  898MOL0     H21171   5.276   4.603   1.098 -1.8583  0.5471 -1.6846
  898MOL0     H21172   5.299   4.594   0.934 -0.0667  1.6523  1.2072
  898MOL0     H21173   5.375   4.352   0.965  0.3529  0.5960 -0.2482
  898MOL0     H21174   5.288   4.358   1.124  0.1085 -2.0355 -0.2624
  898MOL0     H21175   5.083   4.450   0.974  1.3312  2.6431 -0.8629
  898MOL0     H21176   5.193   4.398   0.843  1.8027 -0.1739  0.2066
  898MOL0     H21177   5.006   4.218   0.936  1.5414 -0.6757 -1.7812
  898MOL0     H21178   5.112   4.229   1.082  0.4491  0.4151  0.3417
  898MOL0     H21179   5.158   4.115   0.785 -1.1123 -1.4909  1.0226
  898MOL0     H21180   5.294   4.151   0.902  1.8237 -2.2134 -1.4267
  898MOL0     H21181   4.929   3.960   0.915  0.0191  0.9086 -1.4475
  898MOL0     H21182   5.002   3.650   1.137 -0.2938 -0.3816 -0.2231
  898MOL0     H21183   4.872   3.762   1.090  1.1428  1.6570 -0.3725
  898MOL0     H21184   4.846   3.549   0.965  0.3685 -1.0368 -0.2685
  898MOL0     H21185   4.878   3.684   0.860 -1.4003  1.7246  0.9122
  898MOL0     H21186   5.112   3.516   0.927 -0.2450 -1.6081 -1.7368
  898MOL0     H21187   5.110   3.659   0.823 -0.6181  1.1246  1.0076
  898MOL0     H21188   4.948   3.393   0.763  0.2267 -0.3588 -0.5362
  898MOL0     H21189   5.114   3.427   0.715  1.5439  2.1270  1.9843
  898MOL0     H21190   5.072   3.663   0.430  0.3211 -0.0305 -2.1754
  898MOL0     H21191   5.142   3.567   0.221 -1.2722 -1.1472 -2.0338
  898MOL0     H21192   5.084   2.933   0.101  1.8822 -1.1445 -1.1582
  898MOL0     H21193   5.085   2.799  -0.104 -1.8966  0.2476  2.9982
  898MOL0     H21194   4.984   2.987  -0.500 -2.1917 -2.4299 -0.6235
  898MOL0     H21195   5.155   2.922  -0.472  1.1786 -3.7201 -0.7412
  898MOL0     H21196   5.021   2.790  -0.640  2.2802  0.3136  0.5830
  898MOL0     H21197   5.075   2.697  -0.506 -0.4234 -0.8372  0.2930
  898MOL0     H21198   4.801   2.797  -0.435 -0.2297  0.6076  0.3802
  898MOL0     H21199   4.810   2.741  -0.605 -0.7824  1.6578  1.2953
  898MOL0     H21200   4.891   2.579  -0.363 -0.7647 -1.0474  0.6830
  898MOL0     H21201   4.922   2.530  -0.538 -3.5522 -1.9858 -1.3848
  898MOL0     H21202   4.680   2.539  -0.573  1.3965  2.2493 -0.3153
  898MOL0     H21203   4.666   2.570  -0.398  0.3408 -0.2921  2.0870
  898MOL0     H21204   4.776   2.308  -0.512 -0.5411  1.2993 -1.5839
  898MOL0     H21205   4.773   2.357  -0.348  2.0534 -1.2563 -0.7455
  898MOL0     H21206   4.535   2.310  -0.533  1.9268  0.9920 -1.8447
  898MOL0     H21207   4.518   2.404  -0.369  0.9556 -0.3925  1.1873
  898MOL0     H21208   4.592   2.113  -0.430 -2.7076 -1.6402  1.5033
  898MOL0     H21209   4.598   2.187  -0.279 -1.5433  0.6086  1.4887
  898MOL0     H21210   5.030   3.140  -0.342  0.2980 -0.9528  0.8466
  898MOL0     H21211   4.997   3.286  -0.115 -3.2597 -0.2017  2.2944
  898MOL0     H21212   4.908   3.211   0.351 -0.7526  0.6261 -2.2409
  898MOL0     H21213   4.837   3.327   0.537  0.3838  1.2613  2.1936
  898MOL0     H21214   5.743   4.901   1.290 -1.7848 -1.0292 -0.8500
  898MOL0     H21215   5.794   5.072   1.495 -4.2992 -2.9907  2.6795
  898MOL0     H21216   5.699   5.284   1.781 -7.0857 -1.5481  2.0009
  898MOL0     H21217   5.745   5.357   1.997  1.0550 -0.9550 -0.7988
  898MOL0     H21218   5.676   5.481   2.245 -0.3738  1.4077  0.6951
  898MOL0     H21219   5.548   5.443   2.114 -0.6380  0.8597 -1.3315
  898MOL0     H21220   5.431   5.635   2.189 -0.1771 -1.1385  0.2421
  898MOL0     H21221   5.554   5.678   2.310  2.3645 -0.3265 -2.3556
  898MOL0     H21222   5.504   5.482   2.434  2.6305  0.0249 -2.0512
  898MOL0     H21223   5.427   5.390   2.305  1.0916  0.4002 -2.7594
  898MOL0     H21224   5.311   5.624   2.464 -0.7976 -0.0306  0.6115
  898MOL0     H21225   5.226   5.530   2.334 -1.2580 -3.1448  1.5998
  898MOL0     H21226   5.213   5.256   2.671 -0.9046 -0.4744 -0.8233
  898MOL0     H21227   5.557   5.751   1.891  0.4458  0.8662 -1.0221
  898MOL0     H21228   5.592   5.734   1.566 -0.7757  1.1626  1.2679
  898MOL0     H21229   5.429   5.663   1.594  1.0984 -1.5172 -2.6008
  898MOL0     H21230   5.501   5.790   1.690  1.5758  0.8684 -1.4875
  899MOL0     O21231   8.254   3.286   5.777 -0.1467  0.2793 -0.1261
  899MOL0     C21232   8.205   3.399   5.789  0.0108 -0.1680 -0.8422
  899MOL0     O21233   8.264   3.500   5.860 -0.1461  0.0455 -0.1155
  899MOL0     C21234   8.374   3.486   5.939  0.3110  0.1276 -0.1286
  899MOL0     C21235   8.502   3.502   5.890 -0.0918  0.4983  0.3118
  899MOL0     C21236   8.611   3.491   5.981 -0.6977 -0.6780 -0.4493
  899MOL0     C21237   8.589   3.462   6.119 -0.8481  0.6390  0.4198
  899MOL0     O21238   8.706   3.462   6.200 -0.8017  0.1638 -0.0943
  899MOL0     C21239   8.701   3.487   6.340 -0.2658 -0.2693 -0.3804
  899MOL0     C21240   8.838   3.474   6.398 -0.9036 -0.1455 -0.6246
  899MOL0     C21241   8.956   3.569   6.357  0.2670  1.0535  0.1471
  899MOL0     C21242   9.072   3.522   6.435  0.0240 -0.4380 -0.6191
  899MOL0     C21243   9.203   3.573   6.380 -0.1577 -0.4291  0.3456
  899MOL0     C21244   9.202   3.732   6.386  0.1440 -0.7056  0.3004
  899MOL0     C21245   9.321   3.789   6.307  0.0240  0.3178  0.5351
  899MOL0     C21246   9.293   3.940   6.288 -0.0797  0.0253 -0.7626
  899MOL0     N21247   9.278   4.027   6.401  0.0600  0.3229 -0.3658
  899MOL0     C21248   9.373   4.045   6.499  0.7142 -0.6683  0.4607
  899MOL0     C21249   9.316   4.126   6.591 -0.0985 -0.6646  0.0325
  899MOL0     C21250   9.383   4.177   6.714  0.0964 -0.1195 -0.8285
  899MOL0     C21251   9.325   4.286   6.806 -0.4780  0.2401  0.1121
  899MOL0     C21252   9.205   4.231   6.883 -0.3028  0.3828  0.2109
  899MOL0     C21253   9.100   4.332   6.926  0.4515  0.6191  0.2949
  899MOL0     O21254   9.009   4.275   7.020 -0.0809 -0.5871 -0.3846
  899MOL0     C21255   8.890   4.209   6.990 -0.4655  0.3662  0.5164
  899MOL0     C21256   8.819   4.152   7.091 -1.0388 -1.3384  0.2273
  899MOL0     C21257   8.706   4.076   7.067  0.3786 -0.4619  0.0358
  899MOL0     C21258   8.654   4.073   6.935 -0.7415  0.6316 -1.2587
  899MOL0     C21259   8.524   4.010   6.918  0.2660 -1.2846  0.2697
  899MOL0     O21260   8.478   4.033   6.787 -0.1743 -0.6002 -0.1441
  899MOL0     C21261   8.337   4.018   6.769  0.0083 -0.4842 -0.0191
  899MOL0     C21262   8.257   4.134   6.762  0.6702  0.3258 -1.1178
  899MOL0     C21263   8.116   4.118   6.746  0.1083 -1.0151 -0.1804
  899MOL0     C21264   8.051   3.993   6.728  0.1824 -0.0244 -0.0781
  899MOL0     O21265   7.913   3.974   6.707  0.5570  0.3369 -0.3095
  899MOL0     C21266   7.836   4.098   6.691 -0.2690 -0.2679  0.4587
  899MOL0     C21267   7.685   4.070   6.666  0.2648  1.3237 -0.2805
  899MOL0     C21268   7.659   3.981   6.545 -0.2804 -0.0950 -0.3942
  899MOL0     C21269   7.522   3.920   6.548 -0.9779 -0.0632 -0.8408
  899MOL0     C21270   7.406   3.997   6.491  0.0356  0.0617  0.1499
  899MOL0     C21271   7.265   3.937   6.521  0.5857 -1.0867  0.0418
  899MOL0     C21272   7.174   3.987   6.406 -0.4959 -0.1049  0.0929
  899MOL0     C21273   7.132   3.858   6.324 -0.2957 -0.7193  0.3913
  899MOL0    Cl21274   7.031   3.920   6.184  0.5094 -0.5284 -0.4515
  899MOL0     C21275   8.134   3.881   6.744  0.3410 -0.0029  0.1176
  899MOL0     C21276   8.277   3.887   6.759  0.8217 -0.7222  0.0326
  899MOL0     O21277   8.465   3.955   7.005 -0.5527  0.1202  0.3239
  899MOL0     C21278   8.718   4.145   6.825 -0.2711  0.1142 -0.7486
  899MOL0     C21279   8.841   4.212   6.850  0.3303 -0.1305 -0.5254
  899MOL0     N21280   9.192   4.160   6.551 -0.1243  0.0605 -0.5191
  899MOL0     N21281   9.173   4.105   6.437  0.0970  0.7307 -0.4626
  899MOL0     C21282   8.456   3.458   6.164  0.3179 -1.1069 -0.3057
  899MOL0     C21283   8.349   3.457   6.073 -0.7895  0.4346  0.0342
  899MOL0     C21284   8.074   3.424   5.716 -0.6917 -0.8577  0.2196
  899MOL0     C21285   7.994   3.520   5.772  0.2751  0.2068 -0.2163
  899MOL0     C21286   7.868   3.545   5.733 -0.1685 -0.1484 -0.1173
  899MOL0     C21287   7.814   3.470   5.622 -0.6937 -0.1259 -0.0332
  899MOL0     O21288   7.673   3.479   5.582  0.4392 -0.1192 -0.1829
  899MOL0     C21289   7.584   3.545   5.680  0.8253 -0.3721 -0.7098
  899MOL0     C21290   7.439   3.490   5.656  0.2946  0.2730  0.2228
  899MOL0     C21291   7.437   3.337   5.629 -0.5727  0.1717  0.2206
  899MOL0     C21292   7.299   3.290   5.609  0.7925 -0.3390 -0.0868
  899MOL0     C21293   7.241   3.214   5.724  0.3413  1.1713 -0.2172
  899MOL0     C21294   7.185   3.149   5.808  0.2422  0.6588 -0.6937
  899MOL0     C21295   7.900   3.382   5.551 -0.9354 -0.5585 -1.2458
  899MOL0     C21296   8.035   3.366   5.599  0.4737  0.2289 -0.0615
  899MOL0     C21297   8.120   3.280   5.501  0.0470  0.4195  0.4928
  899MOL0     H21298   8.516   3.515   5.783  1.1067 -0.3147  0.3462
  899MOL0     H21299   8.707   3.480   5.932 -1.3563  1.0294 -2.2468
  899MOL0     H21300   8.662   3.584   6.371 -2.0582 -0.1950 -2.6371
  899MOL0     H21301   8.643   3.406   6.385  1.0131  0.1777  2.2542
  899MOL0     H21302   8.867   3.372   6.372 -2.9763 -0.3595 -2.3492
  899MOL0     H21303   8.824   3.482   6.506  1.1687 -1.1480 -0.2305
  899MOL0     H21304   8.942   3.676   6.371  0.7882  1.1858 -0.2947
  899MOL0     H21305   8.973   3.546   6.251  1.5328  0.2104  0.5069
  899MOL0     H21306   9.061   3.546   6.541  0.2163 -2.2733 -0.1623
  899MOL0     H21307   9.085   3.414   6.438 -1.6547 -0.6329  1.0574
  899MOL0     H21308   9.282   3.525   6.438 -1.1014  0.3770  2.4119
  899MOL0     H21309   9.216   3.540   6.277  0.5764 -1.8846  0.8830
  899MOL0     H21310   9.112   3.772   6.340 -0.6700  0.3446  2.6623
  899MOL0     H21311   9.223   3.763   6.489  1.6361 -1.8982  0.4017
  899MOL0     H21312   9.310   3.739   6.211 -0.2611 -3.4637  2.3689
  899MOL0     H21313   9.417   3.769   6.355 -0.4681 -1.5945  0.7810
  899MOL0     H21314   9.380   3.985   6.239  1.7395 -0.2836  1.9873
  899MOL0     H21315   9.210   3.950   6.217  0.6875 -4.1699 -2.5651
  899MOL0     H21316   9.473   4.006   6.487  1.7945  2.4920 -2.3732
  899MOL0     H21317   9.400   4.086   6.774 -2.3545  0.5788  1.1478
  899MOL0     H21318   9.485   4.200   6.685  1.0872 -1.5265  1.2342
  899MOL0     H21319   9.408   4.314   6.870 -1.4414  2.3222  0.5092
  899MOL0     H21320   9.289   4.373   6.750 -2.0820  0.4499  1.3862
  899MOL0     H21321   9.250   4.193   6.975  0.6314 -2.8043 -1.3894
  899MOL0     H21322   9.162   4.141   6.838 -1.9913  1.6714 -0.8637
  899MOL0     H21323   9.057   4.377   6.836 -0.4176  1.4260  1.0937
  899MOL0     H21324   9.151   4.416   6.973  0.3228  3.7974 -4.5284
  899MOL0     H21325   8.863   4.154   7.190  0.0988 -2.5508 -0.2226
  899MOL0     H21326   8.653   4.023   7.145 -0.5962  0.1688 -0.1834
  899MOL0     H21327   8.310   4.228   6.778 -0.3458  0.4912  1.8150
  899MOL0     H21328   8.054   4.207   6.748  1.6378  0.1581  3.6932
  899MOL0     H21329   7.836   4.158   6.783 -2.1719  1.3557 -0.5225
  899MOL0     H21330   7.867   4.158   6.606 -3.2652  1.3384  0.3721
  899MOL0     H21331   7.646   4.029   6.759  1.4494  0.5440 -0.1125
  899MOL0     H21332   7.639   4.166   6.640 -1.5772  0.5495 -0.0432
  899MOL0     H21333   7.689   4.027   6.450  0.4401  0.1284 -0.0696
  899MOL0     H21334   7.725   3.894   6.552 -1.3323 -0.8060  1.1842
  899MOL0     H21335   7.490   3.900   6.650  0.5658 -0.7168 -0.4499
  899MOL0     H21336   7.522   3.820   6.505  1.5528 -1.1862  1.4819
  899MOL0     H21337   7.422   4.002   6.383 -0.8346  0.3939  0.0227
  899MOL0     H21338   7.403   4.097   6.536  0.1573  0.3074 -0.3893
  899MOL0     H21339   7.275   3.830   6.542  1.8716 -0.3847  3.9183
  899MOL0     H21340   7.241   3.975   6.620  1.2079  0.2643 -0.3002
  899MOL0     H21341   7.206   4.069   6.341 -1.9741  1.4093  1.1705
  899MOL0     H21342   7.088   4.026   6.461  2.2138  1.6918  3.4822
  899MOL0     H21343   7.221   3.812   6.278  2.0717  3.6905  0.0573
  899MOL0     H21344   7.092   3.785   6.395  1.5421 -0.4474  1.7739
  899MOL0     H21345   8.083   3.786   6.750  0.1073  0.0857 -0.3867
  899MOL0     H21346   8.340   3.798   6.765  3.4262  1.1049  2.6637
  899MOL0     H21347   8.674   4.150   6.726  1.4679  1.4253 -1.4904
  899MOL0     H21348   8.880   4.284   6.779 -1.1821  2.5848  1.2078
  899MOL0     H21349   8.436   3.435   6.268 -0.6450 -0.8077 -0.4140
  899MOL0     H21350   8.251   3.447   6.118 -1.7197  0.7245 -1.8234
  899MOL0     H21351   8.032   3.558   5.866 -3.4811 -1.4652  2.2305
  899MOL0     H21352   7.810   3.621   5.784  1.2662  2.0486 -1.5828
  899MOL0     H21353   7.581   3.654   5.665  3.4749 -0.0588  0.4761
  899MOL0     H21354   7.614   3.527   5.783  1.6305 -1.2166 -1.0821
  899MOL0     H21355   7.400   3.540   5.566 -3.8953  1.3616  2.4061
  899MOL0     H21356   7.364   3.505   5.734 -0.5138  0.3429 -0.5390
  899MOL0     H21357   7.485   3.289   5.715 -2.2830 -3.3887 -0.6025
  899MOL0     H21358   7.483   3.323   5.531 -3.4348  0.0658 -1.2145
  899MOL0     H21359   7.222   3.364   5.585  0.2466 -0.5951  0.7998
  899MOL0     H21360   7.301   3.219   5.526  1.3153 -1.7944  1.1245
  899MOL0     H21361   7.130   3.105   5.888  0.5811  0.1341 -0.7478
  899MOL0     H21362   7.867   3.333   5.460 -1.2478 -1.5171 -0.6374
  899MOL0     H21363   8.103   3.174   5.522  0.4784 -0.1605 -1.8422
  899MOL0     H21364   8.080   3.295   5.401 -4.1911  0.5079  2.0020
  899MOL0     H21365   8.228   3.290   5.517 -0.3895  0.1846  4.8035
  900MOL0     O21366   2.154   2.106   3.809  0.0665 -0.3504 -0.4030
  900MOL0     C21367   2.254   2.090   3.869 -0.3923  0.7360 -0.6551
  900MOL0     O21368   2.276   2.014   3.980  0.4042 -0.3217  0.0909
  900MOL0     C21369   2.174   1.927   4.001 -0.3010  0.6292  0.5739
  900MOL0     C21370   2.190   1.793   3.972 -0.1267  0.7397  1.5186
  900MOL0     C21371   2.086   1.696   3.978  0.2575 -0.4155  0.8724
  900MOL0     C21372   1.956   1.740   4.006  0.2382  0.4361  0.3933
  900MOL0     O21373   1.846   1.653   4.015  0.1431 -0.0478  0.1995
  900MOL0     C21374   1.841   1.528   3.940 -0.5274 -0.2967  0.2211
  900MOL0     C21375   1.884   1.407   4.023  0.5445 -0.4462  0.4689
  900MOL0     C21376   1.883   1.277   3.944 -0.5352  0.6226 -0.7530
  900MOL0     C21377   1.958   1.285   3.812 -0.7897 -0.0752  0.0435
  900MOL0     C21378   1.988   1.145   3.749  0.1022 -0.0873  0.0345
  900MOL0     C21379   2.073   1.171   3.624 -0.2906  0.2488 -0.6032
  900MOL0     C21380   2.093   1.034   3.550  0.2060 -0.2786 -0.8107
  900MOL0     C21381   2.238   1.006   3.520 -0.2786 -0.3008  0.0924
  900MOL0     N21382   2.294   1.101   3.423 -0.0789  0.2332  0.6196
  900MOL0     C21383   2.345   1.227   3.451 -0.2675  0.0129  0.0283
  900MOL0     C21384   2.386   1.278   3.331  0.1221 -0.1166  0.6616
  900MOL0     C21385   2.420   1.427   3.308 -0.5504  0.2911 -0.8944
  900MOL0     C21386   2.565   1.434   3.335 -0.0576  0.5229 -0.6454
  900MOL0     C21387   2.608   1.579   3.290  0.0948  0.9705  0.3803
  900MOL0     C21388   2.754   1.608   3.297 -0.8237 -0.1370 -0.1417
  900MOL0     O21389   2.824   1.526   3.394 -0.0214 -0.5357 -0.9065
  900MOL0     C21390   2.933   1.583   3.452  0.5636  0.1641  0.5064
  900MOL0     C21391   3.054   1.590   3.391  0.5694 -0.0117 -0.4968
  900MOL0     C21392   3.160   1.641   3.461  0.3379 -0.1577  0.4774
  900MOL0     C21393   3.133   1.706   3.586  0.4889 -1.0615  0.2033
  900MOL0     C21394   3.233   1.794   3.655 -0.5199 -0.0555  0.3200
  900MOL0     O21395   3.344   1.812   3.576  0.0726  0.0349 -0.6145
  900MOL0     C21396   3.436   1.895   3.632 -0.4627  0.1951  0.8074
  900MOL0     C21397   3.482   1.891   3.766 -0.0954  0.9894  0.2584
  900MOL0     C21398   3.558   2.001   3.819 -0.1651 -0.9372  0.1636
  900MOL0     C21399   3.587   2.116   3.737 -0.2014 -0.0514 -0.0855
  900MOL0     O21400   3.647   2.228   3.790  0.0577  0.0199  1.0117
  900MOL0     C21401   3.737   2.217   3.892 -0.3941 -0.5979  0.4498
  900MOL0     C21402   3.854   2.327   3.873  0.5744 -0.5620 -0.0291
  900MOL0     C21403   3.962   2.298   3.982  0.3840 -0.2348 -1.4126
  900MOL0     C21404   4.087   2.384   3.945 -0.4578 -0.5966  0.3956
  900MOL0     C21405   4.207   2.344   4.036  0.4939  0.3885 -0.0374
  900MOL0     C21406   4.328   2.428   3.998 -0.2405 -0.5693 -0.5597
  900MOL0     C21407   4.436   2.458   4.110  0.4669 -0.6915  0.6022
  900MOL0     C21408   4.467   2.325   4.181 -0.6363  0.8765  0.9043
  900MOL0    Cl21409   4.513   2.203   4.052 -0.1237  0.0280  0.2095
  900MOL0     C21410   3.538   2.115   3.607 -0.1872 -0.1230  0.6977
  900MOL0     C21411   3.466   2.011   3.553 -0.0816  0.8479 -0.0282
  900MOL0     O21412   3.198   1.867   3.746 -0.4053  0.4542  0.1339
  900MOL0     C21413   3.009   1.700   3.652 -0.1738  0.2215  0.6323
  900MOL0     C21414   2.914   1.632   3.579  0.6586  0.0340 -0.0650
  900MOL0     N21415   2.375   1.174   3.234 -0.3512 -0.4317  0.0885
  900MOL0     N21416   2.328   1.070   3.299 -0.3915 -0.5784 -0.3225
  900MOL0     C21417   1.930   1.877   4.030  0.5277  0.5038  0.1246
  900MOL0     C21418   2.046   1.960   4.039 -0.1247 -0.5610  1.0100
  900MOL0     C21419   2.372   2.178   3.833 -1.4283 -1.0627  0.6992
  900MOL0     C21420   2.471   2.187   3.917  0.3724  0.3365  1.3411
  900MOL0     C21421   2.584   2.272   3.914 -0.0048  0.5086 -0.3361
  900MOL0     C21422   2.598   2.351   3.803 -0.5079 -0.4222  0.4044
  900MOL0     O21423   2.705   2.432   3.785  0.0313 -0.4556  0.0121
  900MOL0     C21424   2.775   2.494   3.900 -0.1126 -0.3495  0.1332
  900MOL0     C21425   2.842   2.629   3.866 -0.2148  0.2453 -0.1250
  900MOL0     C21426   2.946   2.617   3.752  0.1190  0.3665 -0.3565
  900MOL0     C21427   3.036   2.749   3.758  0.2283  0.9501  0.2716
  900MOL0     C21428   2.980   2.876   3.742  0.9873 -0.3773  0.1037
  900MOL0     C21429   2.917   2.985   3.741 -0.7859 -0.1591  0.4469
  900MOL0     C21430   2.505   2.343   3.702 -0.0661 -0.5566  0.5163
  900MOL0     C21431   2.389   2.268   3.719  1.4366 -0.0348 -0.2799
  900MOL0     C21432   2.295   2.262   3.600 -0.2472  0.2032 -0.7207
  900MOL0     H21433   2.281   1.769   3.918  0.0055  4.2539 -0.0957
  900MOL0     H21434   2.100   1.593   3.947  0.0896  0.0785 -0.9491
  900MOL0     H21435   1.735   1.521   3.915 -0.2760  1.3295 -1.5592
  900MOL0     H21436   1.906   1.540   3.852  3.6553 -0.1819  3.0233
  900MOL0     H21437   1.820   1.399   4.112  1.1152  0.8478  1.0303
  900MOL0     H21438   1.985   1.424   4.063  0.2518  0.8892  0.6757
  900MOL0     H21439   1.781   1.241   3.933 -1.1503  1.2421  2.0273
  900MOL0     H21440   1.936   1.198   3.998 -0.3406  0.6246 -0.9380
  900MOL0     H21441   1.897   1.342   3.742 -1.1237 -2.3728 -1.6785
  900MOL0     H21442   2.056   1.333   3.822 -1.0026  0.0661  1.5409
  900MOL0     H21443   2.034   1.086   3.829 -0.5216 -1.4424 -0.5669
  900MOL0     H21444   1.900   1.097   3.706 -2.2681  2.2448  1.9371
  900MOL0     H21445   2.012   1.243   3.570 -1.0472  0.6601  0.7508
  900MOL0     H21446   2.165   1.225   3.651 -0.6618  0.3416  0.5432
  900MOL0     H21447   2.033   1.039   3.459 -0.5258 -0.4230 -0.3486
  900MOL0     H21448   2.049   0.950   3.605  0.9928 -1.3041 -1.7186
  900MOL0     H21449   2.301   1.021   3.608 -0.8645  4.1819  0.0216
  900MOL0     H21450   2.249   0.907   3.475 -3.7541  0.5398 -3.2053
  900MOL0     H21451   2.347   1.282   3.544  1.7255  0.8704 -0.4612
  900MOL0     H21452   2.407   1.444   3.201 -1.6554  2.3416 -0.5040
  900MOL0     H21453   2.353   1.492   3.365 -0.9585 -1.1844  0.3810
  900MOL0     H21454   2.586   1.410   3.439  0.2885 -2.1626 -1.2757
  900MOL0     H21455   2.614   1.359   3.273 -1.6144 -2.5430  1.5678
  900MOL0     H21456   2.564   1.652   3.358  0.3908  1.0091  0.5319
  900MOL0     H21457   2.567   1.602   3.192  0.6696  3.4670  0.6737
  900MOL0     H21458   2.777   1.711   3.325  2.2033 -0.8147  0.1421
  900MOL0     H21459   2.790   1.583   3.197 -0.1955  1.2128 -0.2686
  900MOL0     H21460   3.070   1.534   3.299  0.6367 -1.2419  0.2366
  900MOL0     H21461   3.263   1.651   3.429 -0.1379 -0.9646 -1.4913
  900MOL0     H21462   3.470   1.801   3.825  0.4927  1.5597  1.2775
  900MOL0     H21463   3.599   1.991   3.919  0.2935 -0.5608  0.0168
  900MOL0     H21464   3.691   2.242   3.989  0.0993  1.1753  0.2707
  900MOL0     H21465   3.794   2.125   3.876  1.5597  0.6439 -0.0609
  900MOL0     H21466   3.890   2.326   3.770 -0.4964  2.8328 -0.5395
  900MOL0     H21467   3.806   2.424   3.887  2.5469  0.7429 -1.7133
  900MOL0     H21468   3.929   2.333   4.080 -1.2344 -2.3906 -1.1048
  900MOL0     H21469   3.979   2.190   3.992 -0.3877 -0.3122 -0.8369
  900MOL0     H21470   4.077   2.492   3.937  1.0415 -0.5391 -1.1812
  900MOL0     H21471   4.106   2.350   3.843 -2.3689 -1.0169  0.1488
  900MOL0     H21472   4.227   2.236   4.029  0.5963  0.3061  1.3035
  900MOL0     H21473   4.178   2.366   4.139 -1.7715  0.8562 -0.7159
  900MOL0     H21474   4.377   2.391   3.908 -0.3340 -0.3117 -0.7177
  900MOL0     H21475   4.297   2.531   3.977  2.4330  0.7796  1.4283
  900MOL0     H21476   4.396   2.528   4.184  1.8222 -0.0988  0.8170
  900MOL0     H21477   4.527   2.501   4.068 -0.2592  0.4142  0.1139
  900MOL0     H21478   4.548   2.332   4.253 -0.1387  0.2278  0.4300
  900MOL0     H21479   4.374   2.302   4.233  0.7218 -2.6479  2.0513
  900MOL0     H21480   3.542   2.208   3.551 -3.0195  0.3622  1.1635
  900MOL0     H21481   3.434   2.025   3.450  0.8814 -1.1176 -0.6254
  900MOL0     H21482   2.992   1.760   3.741 -2.9926  2.6422 -1.3338
  900MOL0     H21483   2.813   1.625   3.619  0.0154 -2.1404 -1.8570
  900MOL0     H21484   1.833   1.906   4.068  0.6190 -0.1681  0.8993
  900MOL0     H21485   2.033   2.062   4.074  0.1077  0.6621 -2.1779
  900MOL0     H21486   2.464   2.130   4.009 -1.4982  0.0126  1.0291
  900MOL0     H21487   2.652   2.271   3.998 -3.6937 -1.3369  2.9767
  900MOL0     H21488   2.852   2.422   3.931  1.1062  1.7918  2.4708
  900MOL0     H21489   2.702   2.519   3.978  0.4745  1.4500  0.1390
  900MOL0     H21490   2.898   2.668   3.952  0.6357 -3.1781  1.0234
  900MOL0     H21491   2.764   2.700   3.837 -0.6191 -0.7015 -1.4495
  900MOL0     H21492   2.890   2.598   3.660 -0.2283 -2.5843  0.3605
  900MOL0     H21493   3.012   2.530   3.761 -0.1525  0.1697 -0.2680
  900MOL0     H21494   3.101   2.746   3.846  0.6945  1.1924 -0.0551
  900MOL0     H21495   3.096   2.739   3.666  1.3501  0.6125  1.0164
  900MOL0     H21496   2.846   3.066   3.746  0.0969  0.9806 -2.7511
  900MOL0     H21497   2.511   2.415   3.621  0.7085  0.2467  1.2665
  900MOL0     H21498   2.347   2.294   3.509  1.1581  2.8893  0.8834
  900MOL0     H21499   2.249   2.164   3.589 -0.9770  0.5748 -1.0343
  900MOL0     H21500   2.214   2.335   3.611  0.4298  1.0104 -0.9683
  901MOL0     O21501   9.362   3.233  10.276  0.8994  0.7211  0.2649
  901MOL0     C21502   9.389   3.237  10.156 -0.0090  0.0144 -0.3596
  901MOL0     O21503   9.513   3.275  10.110  0.3903  0.2169  0.4815
  901MOL0     C21504   9.608   3.329  10.188 -0.5869  0.6516 -0.9894
  901MOL0     C21505   9.678   3.241  10.272 -0.6613 -0.4390 -0.2379
  901MOL0     C21506   9.788   3.289  10.352 -0.0287  0.2782 -0.8366
  901MOL0     C21507   9.819   3.429  10.352 -0.5730  0.8802 -0.4168
  901MOL0     O21508   9.912   3.478  10.440  0.1631  0.2392  0.0292
  901MOL0     C21509   9.855   3.522  10.562 -0.0419  0.4253  0.1540
  901MOL0     C21510   9.979   3.543  10.658 -0.2383 -0.2016  0.1868
  901MOL0     C21511  10.082   3.647  10.613  1.1024 -0.4048  1.1452
  901MOL0     C21512  10.048   3.797  10.603  0.5197 -0.1839 -0.5187
  901MOL0     C21513  10.159   3.900  10.596  0.1834 -0.3558  0.0074
  901MOL0     C21514  10.099   4.044  10.575 -0.1232  0.2202  0.1838
  901MOL0     C21515  10.213   4.154  10.575 -0.5335 -0.5478 -0.7448
  901MOL0     C21516  10.329   4.142  10.471 -0.1713 -0.5077  0.4051
  901MOL0     N21517  10.416   4.267  10.476  0.3565 -0.3585  0.1819
  901MOL0     C21518  10.452   4.356  10.379  0.0428  0.4085 -0.4534
  901MOL0     C21519  10.529   4.448  10.433  0.1997  0.0437 -0.1685
  901MOL0     C21520  10.598   4.556  10.369  1.0413 -0.8235  0.1690
  901MOL0     C21521  10.746   4.540  10.398 -0.5071  0.1107  0.2559
  901MOL0     C21522  10.824   4.489  10.282  0.6505  0.1701 -0.2572
  901MOL0     C21523  10.967   4.446  10.308 -0.1364  0.2889 -0.0247
  901MOL0     O21524  11.010   4.431  10.171 -0.3592 -0.1360  0.1972
  901MOL0     C21525  11.148   4.437  10.163  0.7190  0.9266 -0.0764
  901MOL0     C21526  11.205   4.417  10.032  0.0618  0.7942 -0.2729
  901MOL0     C21527  11.348   4.417  10.018  1.0629 -0.7043 -0.3405
  901MOL0     C21528  11.432   4.438  10.126  0.4348 -0.4112  0.0810
  901MOL0     C21529  11.579   4.447  10.109  0.0393 -0.3799 -0.4752
  901MOL0     O21530  11.623   4.352  10.024 -1.0954 -0.8376 -0.2460
  901MOL0     C21531  11.761   4.333  10.020 -0.2438 -0.1996 -0.8584
  901MOL0     C21532  11.824   4.287  10.131 -0.7472 -0.3926  0.4784
  901MOL0     C21533  11.956   4.271  10.127  0.3304  0.1123 -1.2674
  901MOL0     C21534  12.034   4.275  10.015  0.0861  0.3771  0.2774
  901MOL0     O21535  12.173   4.266  10.036  0.6450  0.6092 -0.5210
  901MOL0     C21536  12.225   4.149   9.975 -0.1654  0.2909  0.0267
  901MOL0     C21537  12.369   4.171   9.994 -0.9751  0.4499 -0.5245
  901MOL0     C21538  12.436   4.186   9.859 -0.7444 -0.6680 -0.4741
  901MOL0     C21539  12.588   4.188   9.888  0.1065  0.5641  0.0195
  901MOL0     C21540  12.664   4.206   9.755  0.0466 -0.8745 -0.6155
  901MOL0     C21541  12.817   4.216   9.773 -0.3634  0.6013  0.4989
  901MOL0     C21542  12.869   4.064   9.765  0.4823 -0.9955 -0.9737
  901MOL0     C21543  13.013   4.061   9.819 -0.0111 -0.7929 -0.8950
  901MOL0    Cl21544  13.131   4.105   9.696 -0.0813  0.1596 -0.2612
  901MOL0     C21545  11.968   4.304   9.888 -0.1721  0.1299 -0.2002
  901MOL0     C21546  11.835   4.343   9.896  0.9330 -0.4344 -0.3490
  901MOL0     O21547  11.646   4.531  10.170  0.3804  0.1667  0.2162
  901MOL0     C21548  11.373   4.440  10.250  0.3827 -0.4479  0.3608
  901MOL0     C21549  11.236   4.436  10.271 -0.4568  0.1343  0.5071
  901MOL0     N21550  10.554   4.405  10.568 -0.5262 -0.5901  0.4569
  901MOL0     N21551  10.470   4.311  10.597  0.7761 -0.0015 -0.4805
  901MOL0     C21552   9.753   3.512  10.259 -1.0807  1.0090 -0.5219
  901MOL0     C21553   9.648   3.463  10.185 -0.4207 -0.2226  0.2989
  901MOL0     C21554   9.281   3.206  10.057  0.4204 -1.0546  0.9946
  901MOL0     C21555   9.285   3.273   9.927 -0.6578 -0.4182 -0.0814
  901MOL0     C21556   9.193   3.246   9.829 -0.1045 -0.5810  0.3270
  901MOL0     C21557   9.079   3.174   9.861  0.6275  0.2654  0.1877
  901MOL0     O21558   8.978   3.150   9.772  0.3109  0.6652 -0.5896
  901MOL0     C21559   8.849   3.103   9.820  0.1884 -0.6329  0.0733
  901MOL0     C21560   8.737   3.149   9.726  0.1763  0.5244  0.1837
  901MOL0     C21561   8.598   3.118   9.782  0.5306  0.3415 -0.3988
  901MOL0     C21562   8.580   3.218   9.899 -0.3225 -0.0890 -0.0210
  901MOL0     C21563   8.495   3.332   9.848 -0.1103 -0.4481 -1.4352
  901MOL0     C21564   8.423   3.414   9.796 -0.4935 -0.8128 -0.2320
  901MOL0     C21565   9.076   3.113   9.986  0.2152  0.0811  0.1565
  901MOL0     C21566   9.175   3.122  10.083  0.2459 -0.0356  0.2825
  901MOL0     C21567   9.157   3.025  10.200 -1.0605 -0.9218  0.1495
  901MOL0     H21568   9.654   3.139  10.301 -0.2667  0.1644  2.4844
  901MOL0     H21569   9.832   3.216  10.419  1.8974  0.7738 -1.4769
  901MOL0     H21570   9.798   3.614  10.548 -0.5140  0.1454  0.2270
  901MOL0     H21571   9.802   3.440  10.611  2.3983 -1.2692  0.1360
  901MOL0     H21572  10.018   3.442  10.672  0.0518 -0.0682  0.3682
  901MOL0     H21573   9.927   3.579  10.748 -0.7820 -2.1328  0.7037
  901MOL0     H21574  10.116   3.620  10.512 -2.0056 -1.2942  0.2275
  901MOL0     H21575  10.170   3.637  10.678  2.4867  0.7350 -0.4571
  901MOL0     H21576   9.982   3.803  10.515  0.4831 -2.7328 -0.7457
  901MOL0     H21577   9.986   3.809  10.692 -0.2451 -0.4558 -0.9957
  901MOL0     H21578  10.219   3.908  10.687 -0.6339  1.9572  0.4003
  901MOL0     H21579  10.232   3.869  10.521  2.0437  3.1327  0.1940
  901MOL0     H21580  10.041   4.056  10.483 -1.2644  0.3862  0.9051
  901MOL0     H21581  10.021   4.054  10.650 -1.5676 -0.0566 -1.2123
  901MOL0     H21582  10.253   4.167  10.676 -0.1361 -1.2998 -0.7931
  901MOL0     H21583  10.154   4.243  10.552 -0.8009 -0.0153  1.7702
  901MOL0     H21584  10.374   4.042  10.473  1.6830  0.2141 -1.3831
  901MOL0     H21585  10.286   4.145  10.370  1.9312 -0.5952 -0.5574
  901MOL0     H21586  10.432   4.359  10.272  0.9391  2.2866 -0.6024
  901MOL0     H21587  10.589   4.551  10.260  1.0208  3.6265 -0.2070
  901MOL0     H21588  10.570   4.654  10.407  2.0560 -0.5560  0.2615
  901MOL0     H21589  10.792   4.636  10.423  3.8778 -1.4164 -0.9256
  901MOL0     H21590  10.772   4.477  10.483 -1.7786 -1.7678 -0.6792
  901MOL0     H21591  10.809   4.550  10.192  1.1968 -0.4599 -0.7890
  901MOL0     H21592  10.776   4.396  10.253 -2.7647  1.8913 -0.5602
  901MOL0     H21593  10.970   4.352  10.365  2.8893  0.9137  1.0090
  901MOL0     H21594  11.020   4.521  10.367 -0.7773  0.4598  0.3413
  901MOL0     H21595  11.132   4.411   9.952 -0.5591 -0.5439  0.3649
  901MOL0     H21596  11.398   4.406   9.922  2.5789  2.1609  0.0080
  901MOL0     H21597  11.774   4.280  10.227  1.6401 -1.2447  1.7408
  901MOL0     H21598  12.013   4.257  10.218 -0.6905  0.4288 -0.5592
  901MOL0     H21599  12.198   4.057  10.029  2.7889 -1.3872 -1.1279
  901MOL0     H21600  12.203   4.140   9.868  1.0741  1.2847 -0.3331
  901MOL0     H21601  12.397   4.257  10.057 -0.9366  0.0781 -0.0311
  901MOL0     H21602  12.398   4.080  10.046 -2.2130 -1.2118 -2.5740
  901MOL0     H21603  12.419   4.094   9.801 -0.8712 -0.3858 -0.8869
  901MOL0     H21604  12.391   4.262   9.795 -3.3058 -3.1738 -1.8572
  901MOL0     H21605  12.620   4.098   9.941 -0.7003 -0.0379 -0.4893
  901MOL0     H21606  12.627   4.266   9.954  3.4743 -0.8685 -0.0257
  901MOL0     H21607  12.633   4.308   9.727  0.8456  0.6053  3.2224
  901MOL0     H21608  12.629   4.135   9.680 -2.2084  1.2305 -1.7483
  901MOL0     H21609  12.853   4.251   9.675  1.0436 -1.2184  0.3099
  901MOL0     H21610  12.853   4.271   9.860  0.3570 -2.1255  2.0268
  901MOL0     H21611  12.875   4.022   9.664 -1.0462 -0.8811 -1.1303
  901MOL0     H21612  12.804   4.002   9.827 -1.4375  1.7634 -0.0424
  901MOL0     H21613  13.025   4.123   9.908  0.7595 -1.6603 -0.3647
  901MOL0     H21614  13.029   3.956   9.848  1.5256 -0.5702 -0.8384
  901MOL0     H21615  12.018   4.316   9.793 -1.8107  2.1183 -0.8813
  901MOL0     H21616  11.777   4.382   9.813  2.7772  1.2350 -0.9463
  901MOL0     H21617  11.424   4.463  10.343  0.1682  1.0704  0.1328
  901MOL0     H21618  11.199   4.428  10.372 -1.1002 -1.0318  0.2010
  901MOL0     H21619   9.765   3.619  10.253 -0.0076  0.8168 -2.4515
  901MOL0     H21620   9.595   3.532  10.120 -0.3584 -1.0381 -0.6297
  901MOL0     H21621   9.371   3.336   9.908 -0.9038 -0.0421  0.0335
  901MOL0     H21622   9.206   3.276   9.725 -0.1680 -0.8994  0.2247
  901MOL0     H21623   8.825   3.135   9.922  3.1006 -0.7462  0.8906
  901MOL0     H21624   8.846   2.994   9.833  0.1006 -0.5672  0.6251
  901MOL0     H21625   8.753   3.094   9.632  2.1277  1.2632  0.0291
  901MOL0     H21626   8.749   3.255   9.703 -2.9971  1.1589  1.0276
  901MOL0     H21627   8.582   3.015   9.813  0.6685  0.5105  0.2539
  901MOL0     H21628   8.528   3.142   9.702  1.7399  2.8402 -0.8193
  901MOL0     H21629   8.532   3.170   9.985 -3.9667  0.9513 -1.2804
  901MOL0     H21630   8.673   3.262   9.938 -0.4602  1.2868 -1.1676
  901MOL0     H21631   8.358   3.491   9.758 -0.1729  1.6746  3.7138
  901MOL0     H21632   8.994   3.044  10.003 -0.2687 -0.3001 -3.0949
  901MOL0     H21633   9.135   2.927  10.158  1.0661 -1.2688 -0.2697
  901MOL0     H21634   9.253   3.007  10.250  0.2731 -0.5082 -2.1209
  901MOL0     H21635   9.074   3.059  10.263 -2.4420 -1.2481 -1.4225
  902MOL0     O21636   6.566   7.979  10.432  0.1021  0.4375 -0.4765
  902MOL0     C21637   6.452   8.027  10.438 -0.5316  0.1032 -0.2358
  902MOL0     O21638   6.416   8.135  10.508 -0.5875 -0.2568 -0.0547
  902MOL0     C21639   6.527   8.203  10.558 -0.9794  0.2123 -0.0833
  902MOL0     C21640   6.584   8.158  10.679  0.0208  0.4315  0.2974
  902MOL0     C21641   6.705   8.209  10.723 -0.2496 -0.7570  0.7705
  902MOL0     C21642   6.769   8.314  10.651  0.1120  0.5468 -0.6565
  902MOL0     O21643   6.882   8.384  10.700  0.0375  0.6239 -0.4190
  902MOL0     C21644   6.992   8.298  10.732  0.1922  0.5441 -0.2640
  902MOL0     C21645   7.110   8.354  10.657 -0.4922  0.6415  1.0153
  902MOL0     C21646   7.240   8.288  10.697  0.5573 -0.1200 -0.8979
  902MOL0     C21647   7.236   8.131  10.691 -0.4137  0.1934  0.5440
  902MOL0     C21648   7.378   8.071  10.693  0.3922 -0.7322 -0.2421
  902MOL0     C21649   7.464   8.102  10.572  0.1894 -0.0381 -0.4247
  902MOL0     C21650   7.599   8.027  10.582  1.2037 -0.2604 -0.2255
  902MOL0     C21651   7.700   8.093  10.488  0.1899  0.8078 -1.1363
  902MOL0     N21652   7.830   8.037  10.507  0.6205 -0.7026 -0.1638
  902MOL0     C21653   7.872   7.916  10.462 -0.1434  0.7174 -0.1196
  902MOL0     C21654   7.998   7.916  10.508 -0.3221  0.4236  0.1242
  902MOL0     C21655   8.104   7.807  10.493  0.8896 -0.6117  0.4278
  902MOL0     C21656   8.159   7.785  10.350 -0.5072 -0.5382  0.1348
  902MOL0     C21657   8.224   7.918  10.295 -0.4936 -0.2133  0.9873
  902MOL0     C21658   8.342   7.972  10.365  0.3312  0.2111 -0.7069
  902MOL0     O21659   8.429   7.864  10.365 -0.2576  0.2651 -0.7964
  902MOL0     C21660   8.553   7.887  10.397 -0.4618  0.2692  0.5069
  902MOL0     C21661   8.632   7.780  10.348 -0.1482  0.2035 -0.5852
  902MOL0     C21662   8.771   7.785  10.359  0.0152 -0.0155  0.6888
  902MOL0     C21663   8.827   7.908  10.405  0.3727  0.3617  1.1554
  902MOL0     C21664   8.981   7.899  10.404  0.0388 -1.3190 -1.2738
  902MOL0     O21665   9.045   7.791  10.363 -0.1987 -0.5009 -0.6413
  902MOL0     C21666   9.176   7.761  10.397 -0.3724  0.7348 -0.1041
  902MOL0     C21667   9.201   7.630  10.441 -0.2755  0.8425  0.3010
  902MOL0     C21668   9.325   7.604  10.498 -0.8037 -0.1463  0.6374
  902MOL0     C21669   9.438   7.692  10.488  0.8319 -0.1316  0.0249
  902MOL0     O21670   9.546   7.650  10.562 -0.1872 -0.6066 -0.5734
  902MOL0     C21671   9.645   7.751  10.594 -0.3435  0.1258 -0.1583
  902MOL0     C21672   9.758   7.701  10.690 -0.1206  0.1311  0.8530
  902MOL0     C21673   9.863   7.808  10.724  0.2485  1.0210 -1.1507
  902MOL0     C21674   9.945   7.746  10.843  0.1726  0.5599  0.2038
  902MOL0     C21675  10.078   7.808  10.865  0.3044 -0.4493 -0.6763
  902MOL0     C21676  10.166   7.735  10.958 -0.1733  0.4979 -0.2912
  902MOL0     C21677  10.290   7.813  11.011 -0.0523 -0.8181 -0.4281
  902MOL0     C21678  10.377   7.709  11.090 -0.3625  0.1759 -1.0046
  902MOL0    Cl21679  10.539   7.786  11.133 -0.0147  0.0482 -0.2417
  902MOL0     C21680   9.415   7.821  10.446  0.6551 -0.3977  0.1506
  902MOL0     C21681   9.286   7.862  10.398  0.0622 -0.2767  0.5636
  902MOL0     O21682   9.030   7.996  10.469 -0.1998  0.4058  0.2869
  902MOL0     C21683   8.746   8.011  10.456  0.5099  0.2702 -1.1469
  902MOL0     C21684   8.608   7.994  10.463 -0.7011 -0.9676  1.1114
  902MOL0     N21685   8.029   8.028  10.586  0.1486 -0.4324  0.5548
  902MOL0     N21686   7.918   8.098  10.586  0.2984  0.2676 -0.0435
  902MOL0     C21687   6.714   8.365  10.532 -0.2238  1.3388  0.2034
  902MOL0     C21688   6.602   8.303  10.485  1.0703  0.7352 -0.2744
  902MOL0     C21689   6.341   7.970  10.347 -0.3625 -0.0869 -0.4197
  902MOL0     C21690   6.215   8.030  10.350  1.0566 -0.8255  0.6362
  902MOL0     C21691   6.106   7.980  10.273 -0.0200  0.6008 -0.0019
  902MOL0     C21692   6.119   7.880  10.179 -0.9512 -1.2440 -0.6062
  902MOL0     O21693   6.005   7.843  10.108  0.3647  0.4656 -0.1429
  902MOL0     C21694   6.003   7.856   9.977  0.1360  0.9072  0.1478
  902MOL0     C21695   5.970   7.991   9.931 -1.0245 -0.6801 -0.0087
  902MOL0     C21696   6.004   8.020   9.777  0.8331 -0.0805  0.6478
  902MOL0     C21697   5.917   8.127   9.704 -1.3488  0.5158 -0.1340
  902MOL0     C21698   5.944   8.264   9.760 -0.2729 -0.6671  0.6656
  902MOL0     C21699   5.952   8.376   9.805 -0.2224  0.7640 -0.8945
  902MOL0     C21700   6.248   7.827  10.167  0.9214  0.1722  1.2155
  902MOL0     C21701   6.366   7.873  10.239  0.6959 -0.3933  0.7261
  902MOL0     C21702   6.499   7.810  10.206 -0.1738 -0.3311  0.3347
  902MOL0     H21703   6.546   8.081  10.746  0.7441 -0.1063  0.1023
  902MOL0     H21704   6.758   8.172  10.809  2.7563  2.0324  0.3084
  902MOL0     H21705   7.011   8.307  10.840 -0.9043  1.7620 -0.1473
  902MOL0     H21706   6.976   8.193  10.705  0.1874 -0.1962  2.3591
  902MOL0     H21707   7.127   8.462  10.663  0.5417  0.7295 -1.7756
  902MOL0     H21708   7.091   8.337  10.551  2.5738 -0.0831  0.4661
  902MOL0     H21709   7.265   8.315  10.799  2.0937 -0.1098 -1.2636
  902MOL0     H21710   7.326   8.333  10.647  0.7324  1.8938  1.0687
  902MOL0     H21711   7.174   8.087  10.770 -0.7916  0.3642  0.3394
  902MOL0     H21712   7.181   8.105  10.600  1.1457 -0.9305 -0.1238
  902MOL0     H21713   7.434   8.084  10.786  1.2597 -0.5577 -0.7744
  902MOL0     H21714   7.361   7.963  10.696  1.7020 -1.0523 -2.3047
  902MOL0     H21715   7.412   8.077  10.479 -0.8393  0.3358  0.0307
  902MOL0     H21716   7.487   8.209  10.562 -0.0151  0.2211  1.4990
  902MOL0     H21717   7.579   7.920  10.573 -0.7428  0.0180  0.3181
  902MOL0     H21718   7.633   8.048  10.684 -1.3323  2.9855  0.0987
  902MOL0     H21719   7.670   8.085  10.383 -2.2403 -1.2489 -0.3769
  902MOL0     H21720   7.702   8.200  10.514  0.5803  0.4974  0.1566
  902MOL0     H21721   7.814   7.836  10.417 -0.3773  0.7817  0.0608
  902MOL0     H21722   8.187   7.807  10.564 -0.3210 -2.4133  1.9254
  902MOL0     H21723   8.049   7.716  10.518  0.0781 -0.9636 -2.2851
  902MOL0     H21724   8.223   7.697  10.341 -1.9445 -2.0431  3.3637
  902MOL0     H21725   8.066   7.767  10.296 -0.4871  1.9670 -0.8609
  902MOL0     H21726   8.148   7.996  10.281 -0.0228  0.4200  1.9021
  902MOL0     H21727   8.247   7.904  10.189  0.8863 -2.2280  1.4937
  902MOL0     H21728   8.315   8.007  10.465 -2.7481 -0.2442 -1.3080
  902MOL0     H21729   8.385   8.055  10.307 -0.6718  1.0797 -0.2372
  902MOL0     H21730   8.587   7.694  10.299  2.6317 -2.3172  0.9258
  902MOL0     H21731   8.825   7.697  10.328  1.8340  1.6329 -1.0853
  902MOL0     H21732   9.121   7.558  10.451  1.0358 -0.3513  3.5565
  902MOL0     H21733   9.347   7.511  10.549 -4.4274 -0.2419  2.3171
  902MOL0     H21734   9.692   7.790  10.503 -1.7889 -0.2069 -1.1006
  902MOL0     H21735   9.584   7.827  10.644 -1.6029 -1.2084  0.4087
  902MOL0     H21736   9.702   7.662  10.776  0.3114 -0.8872  0.6858
  902MOL0     H21737   9.802   7.610  10.649 -1.0241 -0.2522  0.6944
  902MOL0     H21738   9.934   7.825  10.643  1.3060 -1.0261 -0.7160
  902MOL0     H21739   9.827   7.905  10.757 -0.3085  0.7041 -0.8051
  902MOL0     H21740   9.971   7.641  10.834 -1.2035  0.2317 -0.2054
  902MOL0     H21741   9.884   7.753  10.934  1.7482 -0.5426  1.3923
  902MOL0     H21742  10.050   7.903  10.910 -0.7755  1.7923 -5.4902
  902MOL0     H21743  10.126   7.841  10.773 -0.2176  1.4888 -0.2918
  902MOL0     H21744  10.110   7.691  11.040  0.0287  0.3877 -0.2129
  902MOL0     H21745  10.199   7.643  10.908 -1.7641 -1.6471  2.3595
  902MOL0     H21746  10.254   7.896  11.072  0.7163 -2.2145  2.0807
  902MOL0     H21747  10.357   7.847  10.931  2.4567 -5.7904 -0.8706
  902MOL0     H21748  10.332   7.669  11.182 -0.6083  0.9428 -0.7880
  902MOL0     H21749  10.395   7.624  11.023 -4.6804  0.7610 -3.1972
  902MOL0     H21750   9.483   7.906  10.450 -0.6916  0.6974  1.1067
  902MOL0     H21751   9.254   7.964  10.382 -1.7246 -0.5912  1.8543
  902MOL0     H21752   8.781   8.098  10.511 -0.0811 -0.8801  1.2084
  902MOL0     H21753   8.542   8.072  10.501  0.5887  0.0640  1.3074
  902MOL0     H21754   6.759   8.448  10.478  2.4090  0.7702  1.3769
  902MOL0     H21755   6.559   8.347  10.396 -0.7634 -0.7481 -0.1904
  902MOL0     H21756   6.182   8.111  10.414  3.0262  0.2066  0.4092
  902MOL0     H21757   6.010   8.027  10.290 -0.5648 -0.4798 -0.0135
  902MOL0     H21758   5.924   7.796   9.932 -1.9767  3.0793  0.7515
  902MOL0     H21759   6.101   7.833   9.933 -0.7547  0.1968 -1.5631
  902MOL0     H21760   6.019   8.065   9.995 -1.3821 -1.0430  0.6999
  902MOL0     H21761   5.870   8.025   9.959 -0.2453  4.2579 -2.0382
  902MOL0     H21762   6.004   7.930   9.716 -1.6633  2.6574 -3.9113
  902MOL0     H21763   6.108   8.051   9.773  1.1249 -0.6841  2.5777
  902MOL0     H21764   5.956   8.132   9.602  0.4730 -3.2174  0.2140
  902MOL0     H21765   5.812   8.097   9.705 -1.2105  0.0008 -0.6924
  902MOL0     H21766   5.964   8.461   9.869 -0.3850 -0.4156  0.7881
  902MOL0     H21767   6.265   7.742  10.102 -2.3978  0.4894 -0.2230
  902MOL0     H21768   6.564   7.894  10.182  0.7728 -1.3221 -0.7082
  902MOL0     H21769   6.538   7.758  10.294  0.3056 -0.2023  0.2032
  902MOL0     H21770   6.497   7.742  10.120 -1.8280  0.6656 -0.4592
  903MOL0     O21771   6.357  10.798   7.622 -0.5139 -0.4584  0.2194
  903MOL0     C21772   6.252  10.862   7.580 -0.4137  0.1494 -0.2842
  903MOL0     O21773   6.252  10.977   7.505  0.3270 -0.4632 -0.6066
  903MOL0     C21774   6.373  11.041   7.474 -1.7441 -0.1958  0.3631
  903MOL0     C21775   6.499  11.041   7.534 -0.5268 -1.0233  0.6790
  903MOL0     C21776   6.606  11.118   7.481  0.0104 -0.2961  0.0754
  903MOL0     C21777   6.589  11.185   7.363 -1.1043 -0.4545  0.1066
  903MOL0     O21778   6.701  11.257   7.318 -0.2619 -0.0059  0.7879
  903MOL0     C21779   6.662  11.359   7.219 -0.4525 -1.3394 -0.0034
  903MOL0     C21780   6.774  11.467   7.222  0.2556 -0.2016 -1.1787
  903MOL0     C21781   6.915  11.425   7.206 -0.2566  0.1528  0.4490
  903MOL0     C21782   7.014  11.545   7.196 -0.5241  0.5614  0.1810
  903MOL0     C21783   7.160  11.487   7.191  0.7156 -0.0950 -0.5900
  903MOL0     C21784   7.267  11.594   7.164  0.2293 -0.0035 -0.1962
  903MOL0     C21785   7.413  11.552   7.161 -0.0457 -0.5137  0.8632
  903MOL0     C21786   7.449  11.481   7.287  0.5861 -0.0082  0.3495
  903MOL0     N21787   7.579  11.435   7.301 -0.9141 -0.2059 -0.0275
  903MOL0     C21788   7.660  11.459   7.415 -0.4822 -0.2991 -0.1152
  903MOL0     C21789   7.774  11.377   7.400 -0.1050 -0.3890 -0.4653
  903MOL0     C21790   7.902  11.375   7.483  0.0735  0.3362 -0.1742
  903MOL0     C21791   8.013  11.458   7.422  0.6087 -0.8865 -0.1005
  903MOL0     C21792   8.142  11.437   7.502  0.2151  0.2447 -0.0578
  903MOL0     C21793   8.260  11.488   7.436 -0.9337 -0.3705  0.0224
  903MOL0     O21794   8.293  11.391   7.335 -0.0418  0.1815  0.2300
  903MOL0     C21795   8.344  11.435   7.218  0.5867  0.1959 -0.6113
  903MOL0     C21796   8.366  11.337   7.127  0.4925  0.3944  0.1464
  903MOL0     C21797   8.425  11.361   7.009  1.0596  1.1389 -0.4953
  903MOL0     C21798   8.484  11.481   6.986  1.0092 -1.1790  0.6798
  903MOL0     C21799   8.566  11.491   6.864 -0.2319  0.1766  0.2887
  903MOL0     O21800   8.588  11.376   6.793 -0.0197  0.4150 -0.2582
  903MOL0     C21801   8.683  11.378   6.695 -0.1152 -0.3768  0.6710
  903MOL0     C21802   8.641  11.430   6.574  0.6811 -0.5250  0.1832
  903MOL0     C21803   8.733  11.426   6.470 -0.2601  0.3783 -0.2720
  903MOL0     C21804   8.872  11.405   6.484  0.2746 -0.4315 -0.3837
  903MOL0     O21805   8.956  11.399   6.383 -0.2795  0.8293 -0.0733
  903MOL0     C21806   8.921  11.436   6.248  1.0175 -0.8947 -0.4349
  903MOL0     C21807   9.032  11.399   6.162 -0.6226  0.5539  0.3016
  903MOL0     C21808   9.129  11.511   6.163  0.3297  0.0996  0.2117
  903MOL0     C21809   9.232  11.479   6.047 -0.7156  0.2967  0.0650
  903MOL0     C21810   9.322  11.597   6.002  0.2553  0.0079 -0.4897
  903MOL0     C21811   9.382  11.587   5.860 -0.1873 -0.0230  0.2417
  903MOL0     C21812   9.474  11.721   5.832 -0.0709 -0.2173 -0.5235
  903MOL0     C21813   9.398  11.847   5.881 -0.2680 -0.4146  0.6538
  903MOL0    Cl21814   9.237  11.872   5.803 -0.1189 -0.0595  0.8885
  903MOL0     C21815   8.910  11.367   6.616 -0.4307  0.1047 -0.1562
  903MOL0     C21816   8.818  11.339   6.717  0.4492 -1.4553  0.0886
  903MOL0     O21817   8.623  11.593   6.836 -0.1211 -0.3559  0.2095
  903MOL0     C21818   8.465  11.586   7.078  0.8719 -0.3537 -0.0840
  903MOL0     C21819   8.396  11.567   7.197 -0.1433 -0.0738 -0.5128
  903MOL0     N21820   7.738  11.302   7.287 -0.0041  0.6838  0.2008
  903MOL0     N21821   7.632  11.335   7.227  1.1164  0.9032  0.1626
  903MOL0     C21822   6.471  11.176   7.295  0.7948  0.7032  0.6029
  903MOL0     C21823   6.363  11.115   7.350 -0.6986 -0.3182  0.5275
  903MOL0     C21824   6.126  10.781   7.600  0.2061  0.4121 -0.5682
  903MOL0     C21825   6.135  10.644   7.593 -1.2967 -1.3393  0.2616
  903MOL0     C21826   6.031  10.566   7.606  0.2200  0.4172 -0.8646
  903MOL0     C21827   5.911  10.621   7.656 -0.4843  0.2694  0.0176
  903MOL0     O21828   5.790  10.551   7.678  0.1402 -0.6046  0.5105
  903MOL0     C21829   5.753  10.437   7.604 -0.8752  0.1092 -0.2567
  903MOL0     C21830   5.604  10.431   7.570  0.2797  0.1105 -0.7484
  903MOL0     C21831   5.526  10.413   7.696 -0.1635  0.3439 -0.1641
  903MOL0     C21832   5.375  10.387   7.668  0.0532  0.0056 -0.0458
  903MOL0     C21833   5.306  10.515   7.636  0.2516  0.5682 -0.7607
  903MOL0     C21834   5.256  10.621   7.615  0.6650 -0.1887  0.2887
  903MOL0     C21835   5.905  10.757   7.670 -0.1958 -0.1314 -0.3595
  903MOL0     C21836   6.003  10.838   7.631 -0.1866  0.1534 -0.3143
  903MOL0     C21837   5.988  10.992   7.628  0.5383  0.6404 -0.7390
  903MOL0     H21838   6.514  10.992   7.629 -2.6936 -1.6144  0.7740
  903MOL0     H21839   6.686  11.122   7.553 -0.1322  0.5644  0.1987
  903MOL0     H21840   6.664  11.318   7.118  3.6382 -0.2200 -0.5249
  903MOL0     H21841   6.569  11.414   7.238  0.0580 -1.6345  4.6083
  903MOL0     H21842   6.763  11.526   7.313 -0.8481  0.8491 -1.9625
  903MOL0     H21843   6.753  11.530   7.135 -0.2739  0.5686 -0.5015
  903MOL0     H21844   6.928  11.360   7.119  2.5705 -1.7430  2.1394
  903MOL0     H21845   6.935  11.361   7.292 -0.8108  2.9806  2.8574
  903MOL0     H21846   6.988  11.600   7.105  3.3727  1.0538 -0.8420
  903MOL0     H21847   7.003  11.607   7.285  1.7031  0.8628  0.2915
  903MOL0     H21848   7.182  11.429   7.281  1.1901 -1.9004 -1.8013
  903MOL0     H21849   7.161  11.414   7.109  0.9934  1.1821 -1.7534
  903MOL0     H21850   7.239  11.641   7.069 -1.6719 -0.5737  0.0337
  903MOL0     H21851   7.255  11.673   7.239 -1.1709  0.9248 -1.3435
  903MOL0     H21852   7.467  11.645   7.142 -1.5194  0.9685  3.3116
  903MOL0     H21853   7.429  11.489   7.073  2.2968 -1.2120  1.7329
  903MOL0     H21854   7.422  11.548   7.368  2.4326 -0.2127  1.1629
  903MOL0     H21855   7.396  11.387   7.307 -1.4968  1.4116  1.9467
  903MOL0     H21856   7.647  11.533   7.493 -2.2863 -2.9409  2.3073
  903MOL0     H21857   7.879  11.404   7.586  0.8313 -2.2545  0.8033
  903MOL0     H21858   7.943  11.274   7.485 -0.3910  0.0479 -2.4497
  903MOL0     H21859   8.020  11.424   7.318 -1.2523 -0.7484 -0.3130
  903MOL0     H21860   7.992  11.565   7.426  3.1791 -0.2018 -2.3354
  903MOL0     H21861   8.155  11.331   7.525 -0.5635  0.5779  2.0809
  903MOL0     H21862   8.112  11.485   7.595 -1.8275  1.1866 -1.1259
  903MOL0     H21863   8.344  11.503   7.506 -0.9331  0.8924 -0.2306
  903MOL0     H21864   8.240  11.584   7.390 -0.3481 -0.6255 -0.7770
  903MOL0     H21865   8.338  11.236   7.154 -0.8287  1.2874  2.4185
  903MOL0     H21866   8.424  11.274   6.944  0.3707  0.0154  0.9531
  903MOL0     H21867   8.538  11.463   6.563  0.5153  0.1704  3.0916
  903MOL0     H21868   8.689  11.444   6.373  1.6986 -3.7263 -2.1540
  903MOL0     H21869   8.835  11.376   6.216  2.1505 -2.4397 -0.7276
  903MOL0     H21870   8.900  11.543   6.243  2.4843 -0.3528  2.7392
  903MOL0     H21871   9.077  11.302   6.183  2.0427  1.6970  0.2712
  903MOL0     H21872   8.994  11.397   6.060  1.6478  0.3413 -0.6135
  903MOL0     H21873   9.076  11.605   6.148  0.0559  0.1792  1.5295
  903MOL0     H21874   9.178  11.518   6.261 -3.2499 -1.8591  2.3587
  903MOL0     H21875   9.192  11.432   5.958 -1.6118  0.4178  0.3926
  903MOL0     H21876   9.303  11.402   6.081 -0.7896  1.2403  2.5695
  903MOL0     H21877   9.407  11.610   6.069  0.0164  1.1912 -0.4037
  903MOL0     H21878   9.267  11.691   6.011  2.2503  1.0884  1.2237
  903MOL0     H21879   9.434  11.491   5.857  0.6686 -0.3040  7.5712
  903MOL0     H21880   9.298  11.586   5.789  1.0672  2.3294 -1.4172
  903MOL0     H21881   9.492  11.737   5.726 -0.7263 -1.4326 -0.8261
  903MOL0     H21882   9.569  11.720   5.887 -0.0058 -0.9660 -0.6434
  903MOL0     H21883   9.380  11.844   5.989 -3.4661  3.7452  0.4704
  903MOL0     H21884   9.466  11.931   5.865  1.6714 -2.3731 -2.3188
  903MOL0     H21885   9.011  11.330   6.635 -0.2533 -0.8484 -2.6469
  903MOL0     H21886   8.842  11.289   6.810  0.5711  2.8881  2.6563
  903MOL0     H21887   8.508  11.684   7.060 -0.2986 -0.1545 -2.0899
  903MOL0     H21888   8.389  11.653   7.263 -0.2939 -1.1358  0.9190
  903MOL0     H21889   6.448  11.214   7.196 -0.0243 -0.3351  0.3692
  903MOL0     H21890   6.266  11.125   7.303 -1.1026  1.1103  1.5881
  903MOL0     H21891   6.226  10.593   7.563 -1.1341  0.9290 -3.8195
  903MOL0     H21892   6.042  10.459   7.591  0.2808  0.1059  1.1589
  903MOL0     H21893   5.777  10.352   7.669 -0.5961  1.6260  1.7270
  903MOL0     H21894   5.808  10.423   7.510 -3.5393 -1.3866 -1.7438
  903MOL0     H21895   5.583  10.343   7.508  3.5199 -0.4170 -1.2907
  903MOL0     H21896   5.571  10.517   7.511  0.7502  0.9067  0.1263
  903MOL0     H21897   5.529  10.492   7.771 -2.0979 -2.4755  3.1690
  903MOL0     H21898   5.563  10.318   7.736 -1.2626 -0.8599 -1.8807
  903MOL0     H21899   5.377  10.331   7.574 -0.3170  1.1860 -0.7718
  903MOL0     H21900   5.311  10.338   7.743 -2.4040  2.3212 -0.4523
  903MOL0     H21901   5.200  10.705   7.578  1.1435  0.2774  0.6004
  903MOL0     H21902   5.811  10.803   7.701 -0.5125  1.0635 -2.8147
  903MOL0     H21903   5.886  11.023   7.652  0.2827 -1.5549  1.3101
  903MOL0     H21904   6.047  11.042   7.705 -0.8025  0.9766  0.0999
  903MOL0     H21905   6.014  11.027   7.527  3.2859 -0.7864 -0.6270
  904MOL0     O21906   0.374   0.618   1.746 -0.2901 -0.3120 -0.5501
  904MOL0     C21907   0.293   0.670   1.663 -0.5719  0.2401 -0.4709
  904MOL0     O21908   0.254   0.614   1.542  0.1741  0.0677  0.1815
  904MOL0     C21909   0.318   0.501   1.506 -0.3084  0.0042 -0.4641
  904MOL0     C21910   0.307   0.373   1.576 -0.7897 -0.8898  0.6836
  904MOL0     C21911   0.361   0.261   1.518  0.7814  0.4309  0.1273
  904MOL0     C21912   0.410   0.259   1.392 -0.4743  0.5453 -0.6311
  904MOL0     O21913   0.463   0.150   1.322  0.8114 -0.0149  0.3115
  904MOL0     C21914   0.453   0.018   1.355  0.9048  0.8333 -0.4683
  904MOL0     C21915   0.544  -0.055   1.260 -0.7776  0.0048 -0.6429
  904MOL0     C21916   0.459  -0.125   1.155 -0.1264 -1.2129 -1.0979
  904MOL0     C21917   0.422  -0.263   1.190  1.4503 -0.0994 -1.0500
  904MOL0     C21918   0.336  -0.342   1.094 -0.5717 -0.4066 -0.3620
  904MOL0     C21919   0.416  -0.370   0.964 -0.2950  0.1575  0.2001
  904MOL0     C21920   0.361  -0.480   0.880  0.9391  0.6984 -0.3938
  904MOL0     C21921   0.226  -0.455   0.814 -0.4158 -0.2202 -0.4984
  904MOL0     N21922   0.182  -0.578   0.740 -0.0771 -0.7777  0.0639
  904MOL0     C21923   0.211  -0.617   0.613  0.7653  0.0365  0.3633
  904MOL0     C21924   0.189  -0.757   0.610 -0.5568 -0.5824  0.4817
  904MOL0     C21925   0.225  -0.853   0.499 -0.9180 -0.5565 -0.1249
  904MOL0     C21926   0.278  -0.779   0.374 -0.1638  0.6061  0.1635
  904MOL0     C21927   0.286  -0.889   0.268  0.9968  0.8026 -0.0006
  904MOL0     C21928   0.280  -0.830   0.126  0.1943 -0.3648  0.1916
  904MOL0     O21929   0.290  -0.938   0.024  0.2980  0.6724 -0.1844
  904MOL0     C21930   0.184  -1.028   0.009  0.0542  0.2261 -0.6025
  904MOL0     C21931   0.060  -1.029   0.072 -0.5189 -0.1209  0.2455
  904MOL0     C21932  -0.034  -1.119   0.045  0.4182  0.4851 -0.6792
  904MOL0     C21933  -0.015  -1.220  -0.054  0.6636  0.0669 -0.5720
  904MOL0     C21934  -0.116  -1.310  -0.089 -0.0451  0.0062  0.4676
  904MOL0     O21935  -0.075  -1.404  -0.176 -0.8387 -0.2523 -0.1055
  904MOL0     C21936  -0.161  -1.495  -0.241 -0.5091  0.0515  0.8723
  904MOL0     C21937  -0.277  -1.527  -0.177 -0.2262  0.8128 -0.9054
  904MOL0     C21938  -0.377  -1.610  -0.232 -0.1983  0.0753  0.2721
  904MOL0     C21939  -0.361  -1.668  -0.358 -0.0437 -0.0982  0.1811
  904MOL0     O21940  -0.463  -1.746  -0.397  0.0234 -0.2890  1.0540
  904MOL0     C21941  -0.455  -1.771  -0.541  0.3402 -0.3421  0.1620
  904MOL0     C21942  -0.574  -1.871  -0.579  0.7486 -0.3177 -0.1289
  904MOL0     C21943  -0.709  -1.804  -0.604  0.5938 -0.8455 -0.1436
  904MOL0     C21944  -0.814  -1.853  -0.519  0.8042 -0.1756 -1.3658
  904MOL0     C21945  -0.953  -1.791  -0.562 -0.2704 -0.7196 -0.7674
  904MOL0     C21946  -1.065  -1.839  -0.467 -0.4398 -0.5678  0.0188
  904MOL0     C21947  -1.097  -1.994  -0.451  0.1492 -0.2319 -0.6181
  904MOL0     C21948  -1.122  -2.060  -0.588  0.5874  0.3976 -0.0249
  904MOL0    Cl21949  -1.225  -1.957  -0.688  0.1796 -0.1624 -0.0603
  904MOL0     C21950  -0.239  -1.643  -0.418 -0.0907  0.3596 -0.3568
  904MOL0     C21951  -0.138  -1.561  -0.365 -0.2153 -0.7194 -0.3824
  904MOL0     O21952  -0.236  -1.278  -0.067 -0.1423 -0.6896  0.5889
  904MOL0     C21953   0.116  -1.233  -0.108  0.7333  0.2272  0.0505
  904MOL0     C21954   0.210  -1.136  -0.070 -0.4969 -0.2329 -0.2339
  904MOL0     N21955   0.124  -0.789   0.733  0.6587  0.4376  0.5533
  904MOL0     N21956   0.116  -0.678   0.803  0.0265  0.6038 -0.4404
  904MOL0     C21957   0.424   0.387   1.325  0.8686  0.0953  0.2508
  904MOL0     C21958   0.376   0.509   1.384 -0.8068  0.8285  0.6943
  904MOL0     C21959   0.215   0.786   1.707 -0.4910  0.3197 -0.1376
  904MOL0     C21960   0.109   0.820   1.627  0.5604  0.0444 -0.7125
  904MOL0     C21961   0.020   0.922   1.665 -0.0994 -0.2952  0.4958
  904MOL0     C21962   0.048   1.005   1.770 -0.2005 -1.6610 -0.4008
  904MOL0     O21963  -0.041   1.112   1.793  0.1392 -0.4102  0.0469
  904MOL0     C21964   0.003   1.218   1.882 -0.2411 -0.8266  0.5886
  904MOL0     C21965  -0.089   1.339   1.868 -0.1099 -0.4331 -0.9833
  904MOL0     C21966  -0.070   1.446   1.978  0.7938  0.2415  0.1783
  904MOL0     C21967   0.078   1.483   1.994 -0.3286 -0.6057 -0.0808
  904MOL0     C21968   0.137   1.553   1.881  0.2029  0.2581 -0.1927
  904MOL0     C21969   0.184   1.596   1.783  0.4735  0.4707 -0.7532
  904MOL0     C21970   0.158   0.977   1.855 -0.2030 -0.4863  0.2643
  904MOL0     C21971   0.243   0.866   1.824  0.3337  0.0926  0.5721
  904MOL0     C21972   0.361   0.858   1.916 -0.0718  0.3752 -0.6329
  904MOL0     H21973   0.247   0.369   1.667 -4.1276 -1.4001 -1.3367
  904MOL0     H21974   0.352   0.171   1.577 -0.1400 -0.3559 -1.1747
  904MOL0     H21975   0.483   0.007   1.459 -4.4974  0.3359  1.3920
  904MOL0     H21976   0.350  -0.019   1.350  1.5588 -1.5596  1.6209
  904MOL0     H21977   0.598  -0.128   1.321  0.7250 -1.6774 -3.7145
  904MOL0     H21978   0.621   0.008   1.214  0.6265 -0.0294  1.5470
  904MOL0     H21979   0.520  -0.116   1.065  1.8275 -0.4737  0.2341
  904MOL0     H21980   0.367  -0.070   1.135  0.7170  1.4949  1.6894
  904MOL0     H21981   0.511  -0.325   1.201  0.5440 -1.4445 -1.0880
  904MOL0     H21982   0.368  -0.255   1.285  2.4142 -1.5086 -0.3450
  904MOL0     H21983   0.299  -0.432   1.144  1.0762 -1.0832 -0.3014
  904MOL0     H21984   0.250  -0.280   1.066  1.2471  2.4955  0.0415
  904MOL0     H21985   0.426  -0.275   0.911 -0.1677 -0.0231 -0.0996
  904MOL0     H21986   0.517  -0.403   0.991 -1.3057 -0.9180  2.9746
  904MOL0     H21987   0.333  -0.550   0.960 -0.4097  2.3162  0.6171
  904MOL0     H21988   0.429  -0.526   0.807 -0.1629 -3.0512  0.7032
  904MOL0     H21989   0.153  -0.412   0.884  0.6096  0.3023  0.2771
  904MOL0     H21990   0.241  -0.375   0.741  1.8629  0.4353  0.6123
  904MOL0     H21991   0.261  -0.565   0.532  0.2252 -0.3475 -0.2277
  904MOL0     H21992   0.297  -0.925   0.539  2.5095  3.1381  1.0740
  904MOL0     H21993   0.133  -0.907   0.476  0.2240 -1.3474 -3.3977
  904MOL0     H21994   0.206  -0.702   0.344  1.1067  0.6812 -3.1754
  904MOL0     H21995   0.370  -0.725   0.397  1.0728 -1.2710 -0.1219
  904MOL0     H21996   0.199  -0.952   0.291  0.6408  1.1387 -0.4116
  904MOL0     H21997   0.381  -0.942   0.280  2.0506  2.6443  0.1010
  904MOL0     H21998   0.375  -0.777   0.112 -1.2307  2.4454  0.4835
  904MOL0     H21999   0.193  -0.765   0.111  0.2417 -0.0464  1.1896
  904MOL0     H22000   0.040  -0.957   0.151 -1.8634 -0.9393  0.6885
  904MOL0     H22001  -0.130  -1.124   0.096  1.1048  0.6670  0.6869
  904MOL0     H22002  -0.296  -1.490  -0.077 -2.7885  0.3105 -1.1506
  904MOL0     H22003  -0.460  -1.625  -0.165 -0.6365  1.1332 -0.0148
  904MOL0     H22004  -0.460  -1.672  -0.586 -3.5561 -0.5182 -0.1162
  904MOL0     H22005  -0.367  -1.834  -0.560  0.0742 -0.4823 -0.6797
  904MOL0     H22006  -0.542  -1.912  -0.675  2.8515  0.3466  0.2454
  904MOL0     H22007  -0.582  -1.947  -0.500 -1.2034  1.6487  1.7168
  904MOL0     H22008  -0.694  -1.697  -0.588  3.1418 -0.6552 -2.8254
  904MOL0     H22009  -0.736  -1.803  -0.710 -0.2118  1.9527  0.0116
  904MOL0     H22010  -0.797  -1.822  -0.415 -0.8531 -1.2526 -0.7321
  904MOL0     H22011  -0.813  -1.962  -0.515 -1.4223 -0.2025  1.0308
  904MOL0     H22012  -0.969  -1.841  -0.658  1.6196 -1.3799 -0.7818
  904MOL0     H22013  -0.951  -1.681  -0.558 -0.5056 -0.7444  2.3920
  904MOL0     H22014  -1.029  -1.798  -0.373  5.1545  0.5633 -2.2311
  904MOL0     H22015  -1.160  -1.788  -0.483  0.3504  0.5730 -1.2111
  904MOL0     H22016  -1.191  -2.002  -0.395  1.7971  1.4702  2.6571
  904MOL0     H22017  -1.020  -2.047  -0.394 -1.4873 -0.8600  1.1199
  904MOL0     H22018  -1.027  -2.078  -0.639  0.3545 -0.3955 -0.2031
  904MOL0     H22019  -1.161  -2.159  -0.563 -1.1746  1.2366  0.7560
  904MOL0     H22020  -0.212  -1.693  -0.511  0.1928 -1.4257  0.6474
  904MOL0     H22021  -0.048  -1.536  -0.420 -0.8489  0.5401 -0.8710
  904MOL0     H22022   0.138  -1.314  -0.177 -0.8794  1.1347 -1.6050
  904MOL0     H22023   0.305  -1.145  -0.120 -0.2937  2.2461 -0.4280
  904MOL0     H22024   0.483   0.389   1.234  3.4671  1.6693  1.8404
  904MOL0     H22025   0.385   0.604   1.332 -0.9429  0.9996  0.9779
  904MOL0     H22026   0.083   0.769   1.534  1.9903  0.6904 -1.5085
  904MOL0     H22027  -0.071   0.947   1.611 -1.0149 -0.1671  2.0191
  904MOL0     H22028   0.100   1.262   1.855  0.3688 -0.4439  3.1023
  904MOL0     H22029   0.015   1.192   1.988  1.9574  0.1681  0.6426
  904MOL0     H22030  -0.187   1.292   1.863  0.7868 -2.6319  0.5526
  904MOL0     H22031  -0.065   1.384   1.771  2.5315  1.2253  0.3291
  904MOL0     H22032  -0.127   1.420   2.069 -4.5502  3.9771 -1.5913
  904MOL0     H22033  -0.127   1.533   1.944  1.1818  0.1533 -0.7203
  904MOL0     H22034   0.081   1.545   2.084  0.3103  0.0612 -0.5514
  904MOL0     H22035   0.136   1.392   2.012 -0.5074 -1.0989 -1.7721
  904MOL0     H22036   0.220   1.646   1.695 -0.4858  2.3603 -0.1173
  904MOL0     H22037   0.178   1.039   1.942 -3.0286 -1.4303  1.7262
  904MOL0     H22038   0.351   0.791   2.002  1.2490  0.2021 -0.5849
  904MOL0     H22039   0.452   0.846   1.856 -1.1157 -0.8282 -2.0680
  904MOL0     H22040   0.363   0.961   1.953 -1.6366  0.2653 -0.1841
  905MOL0     O22041   7.247   9.498   5.109  0.2146  0.3203  0.1824
  905MOL0     C22042   7.215   9.616   5.129  0.8971  1.2138 -0.2899
  905MOL0     O22043   7.309   9.726   5.124  0.2288 -0.4957  0.1982
  905MOL0     C22044   7.442   9.702   5.106 -0.5999 -0.6263 -0.6528
  905MOL0     C22045   7.519   9.608   5.178  0.6689  0.4582  0.2616
  905MOL0     C22046   7.653   9.596   5.154  0.1149  0.7830  0.4975
  905MOL0     C22047   7.720   9.686   5.070 -0.2868  0.2293  0.2493
  905MOL0     O22048   7.856   9.688   5.056 -0.0388  0.2408  0.2605
  905MOL0     C22049   7.911   9.744   5.167  0.8734 -0.0730 -0.8620
  905MOL0     C22050   7.873   9.892   5.213 -0.7094  0.3454 -0.3527
  905MOL0     C22051   7.906   9.999   5.107 -0.2042 -0.7148  0.1854
  905MOL0     C22052   7.825  10.131   5.121 -0.4630  0.1352 -0.7585
  905MOL0     C22053   7.801  10.185   5.266 -0.5277  0.3454 -0.3305
  905MOL0     C22054   7.932  10.241   5.322 -0.1469  0.1164 -0.6969
  905MOL0     C22055   7.930  10.252   5.470  0.7731 -0.2477  0.9588
  905MOL0     C22056   7.850  10.367   5.525  0.7517  0.7767 -0.0550
  905MOL0     N22057   7.815  10.357   5.665  0.6469  0.1944 -0.9147
  905MOL0     C22058   7.681  10.376   5.703 -0.2084 -0.0897  0.3828
  905MOL0     C22059   7.678  10.347   5.833  0.0116  0.1707 -0.2425
  905MOL0     C22060   7.549  10.368   5.911 -0.3171  0.9575  0.6919
  905MOL0     C22061   7.523  10.262   6.011  0.1010 -0.8880  0.4580
  905MOL0     C22062   7.388  10.265   6.069 -0.1061  0.3000 -0.6140
  905MOL0     C22063   7.374  10.166   6.188  1.2476  0.5439 -0.4591
  905MOL0     O22064   7.229  10.151   6.210 -0.5976  0.2723  0.0646
  905MOL0     C22065   7.163  10.217   6.306 -0.0890 -0.2861 -0.5449
  905MOL0     C22066   7.056  10.309   6.276  0.7218  0.0191  0.5696
  905MOL0     C22067   7.004  10.382   6.378 -0.1489 -0.3621  0.1090
  905MOL0     C22068   7.052  10.366   6.508  0.5498  0.8454 -0.9278
  905MOL0     C22069   6.985  10.429   6.621  0.2958  0.1152 -0.0200
  905MOL0     O22070   7.044  10.410   6.748 -0.1267  0.2693  0.3583
  905MOL0     C22071   6.979  10.452   6.864  0.5926 -0.1573  0.1486
  905MOL0     C22072   7.034  10.404   6.987 -0.4874 -0.6597  0.3978
  905MOL0     C22073   6.988  10.455   7.111 -0.5623 -0.5902  0.8388
  905MOL0     C22074   6.887  10.543   7.124 -0.7668 -0.2742 -0.0039
  905MOL0     O22075   6.845  10.586   7.246 -0.1381  0.0513  0.1852
  905MOL0     C22076   6.864  10.510   7.364 -0.4200 -0.0134 -0.4952
  905MOL0     C22077   6.772  10.550   7.478  0.0953 -0.3852  0.4809
  905MOL0     C22078   6.827  10.676   7.556  0.1145  0.2969  0.3817
  905MOL0     C22079   6.722  10.721   7.654 -0.0873 -0.1167 -0.4848
  905MOL0     C22080   6.705  10.636   7.786  0.2926 -1.0662 -0.0543
  905MOL0     C22081   6.632  10.712   7.895  0.3259 -0.6752 -0.6867
  905MOL0     C22082   6.712  10.825   7.973  0.3206 -0.8181  0.0430
  905MOL0     C22083   6.616  10.924   8.038 -0.3278 -0.0172 -0.0804
  905MOL0    Cl22084   6.563  11.037   7.898  0.4274 -0.1263  0.0709
  905MOL0     C22085   6.823  10.590   7.007 -0.5626 -0.1452  0.2363
  905MOL0     C22086   6.877  10.542   6.883  0.4261 -0.6091 -0.1022
  905MOL0     O22087   6.873  10.484   6.601  0.1797 -0.6102  0.0075
  905MOL0     C22088   7.155  10.277   6.533  0.0075 -1.0397  0.9246
  905MOL0     C22089   7.204  10.202   6.439  0.2243 -0.5375 -0.0651
  905MOL0     N22090   7.811  10.305   5.869 -0.1063  0.7710  0.5416
  905MOL0     N22091   7.892  10.314   5.770 -0.5861 -0.3027 -0.1853
  905MOL0     C22092   7.639   9.773   4.993 -0.8741  0.1079 -0.0065
  905MOL0     C22093   7.506   9.793   5.017 -0.2696 -0.6147 -0.3559
  905MOL0     C22094   7.065   9.643   5.127 -0.8726  0.0291 -0.3397
  905MOL0     C22095   7.029   9.783   5.086 -0.4990 -0.3881 -0.7349
  905MOL0     C22096   6.897   9.825   5.071  0.4944 -0.5942 -0.5164
  905MOL0     C22097   6.796   9.744   5.099 -0.3875  1.1114 -0.8780
  905MOL0     O22098   6.662   9.777   5.087  0.2612 -0.1501  0.3614
  905MOL0     C22099   6.619   9.784   4.952 -0.4190 -0.3617  0.5403
  905MOL0     C22100   6.634   9.923   4.879  0.1578  0.6514  0.2506
  905MOL0     C22101   6.590  10.039   4.955 -0.2108  0.7552  0.1626
  905MOL0     C22102   6.447  10.044   5.006 -0.1966 -1.0653  0.3640
  905MOL0     C22103   6.442  10.167   5.092  0.1859 -0.8649  1.4279
  905MOL0     C22104   6.454  10.267   5.166 -1.1408  0.8797  0.1459
  905MOL0     C22105   6.827   9.610   5.156  0.2766 -0.6240  0.2169
  905MOL0     C22106   6.953   9.560   5.154 -0.8121 -0.4930 -0.5441
  905MOL0     C22107   6.964   9.409   5.168  0.2754 -0.3073 -0.0703
  905MOL0     H22108   7.453   9.536   5.225  1.3516 -0.1469  0.3049
  905MOL0     H22109   7.709   9.523   5.213 -2.6923 -1.0005  1.1518
  905MOL0     H22110   7.877   9.684   5.252 -0.0229 -0.7738 -1.6950
  905MOL0     H22111   8.020   9.742   5.158  1.2741  3.1033  1.4039
  905MOL0     H22112   7.933   9.905   5.304 -0.2863 -2.5430 -0.1251
  905MOL0     H22113   7.768   9.894   5.242 -0.6817 -1.4223 -0.0624
  905MOL0     H22114   7.886   9.962   5.006 -1.7239  3.3518 -1.2148
  905MOL0     H22115   8.015  10.006   5.108 -0.3039  1.9035 -0.1789
  905MOL0     H22116   7.872  10.213   5.066  0.4189  0.0901 -0.1034
  905MOL0     H22117   7.722  10.124   5.084 -0.9245  0.8212  0.3481
  905MOL0     H22118   7.725  10.264   5.266  0.2245  1.1185  1.4850
  905MOL0     H22119   7.760  10.105   5.328 -2.7146 -0.7665 -2.9796
  905MOL0     H22120   8.021  10.182   5.297 -0.5798 -3.0115  3.8439
  905MOL0     H22121   7.943  10.345   5.291 -2.1500 -0.0422 -2.0993
  905MOL0     H22122   8.028  10.266   5.515  0.4201  1.3941  1.2824
  905MOL0     H22123   7.884  10.165   5.517 -0.1716  0.4365  1.3192
  905MOL0     H22124   7.900  10.463   5.510 -2.0058  2.6536  1.7599
  905MOL0     H22125   7.758  10.376   5.467  0.4456 -1.7221 -0.0730
  905MOL0     H22126   7.592  10.408   5.649 -0.9665  0.3350  1.8306
  905MOL0     H22127   7.554  10.470   5.952  1.0154  0.1533  2.6950
  905MOL0     H22128   7.464  10.374   5.844 -1.2511  1.7664  1.9002
  905MOL0     H22129   7.543  10.166   5.963  1.9397 -0.0820 -0.4608
  905MOL0     H22130   7.602  10.275   6.086 -0.4084  0.8519  0.7330
  905MOL0     H22131   7.309  10.232   6.001 -2.2724 -3.0154  3.0772
  905MOL0     H22132   7.376  10.368   6.104  2.3871  0.5970 -0.4530
  905MOL0     H22133   7.431  10.198   6.277  1.7663 -1.6855  0.0606
  905MOL0     H22134   7.417  10.067   6.172 -0.7595 -0.4146 -0.1638
  905MOL0     H22135   7.041  10.329   6.171  1.7615 -0.5448  0.3014
  905MOL0     H22136   6.923  10.445   6.342  0.0384 -0.9442 -1.3975
  905MOL0     H22137   7.113  10.330   6.985 -0.7850 -0.9952  0.9417
  905MOL0     H22138   7.039  10.446   7.206  1.8937  0.9086 -0.2296
  905MOL0     H22139   6.839  10.406   7.341 -2.9745 -0.7325  4.1223
  905MOL0     H22140   6.968  10.511   7.398  1.0917 -1.3565 -4.4797
  905MOL0     H22141   6.670  10.570   7.443 -0.3435 -0.4586  1.6484
  905MOL0     H22142   6.779  10.468   7.549  0.6143  1.0508  2.1614
  905MOL0     H22143   6.929  10.670   7.596  1.5820  1.4709 -2.8604
  905MOL0     H22144   6.839  10.758   7.486 -2.2941 -1.5306 -2.3838
  905MOL0     H22145   6.628  10.740   7.602 -0.8339 -3.3024 -0.4963
  905MOL0     H22146   6.769  10.813   7.691  0.6136 -1.7183  2.9503
  905MOL0     H22147   6.807  10.628   7.822  0.3607  3.1987  1.1418
  905MOL0     H22148   6.652  10.548   7.747 -0.2557 -1.1273  0.7966
  905MOL0     H22149   6.542  10.751   7.846 -1.8686 -3.2850  0.9984
  905MOL0     H22150   6.598  10.636   7.966  0.7044  0.8125  1.1565
  905MOL0     H22151   6.781  10.875   7.904 -0.6205  1.0017  0.3589
  905MOL0     H22152   6.769  10.796   8.061 -3.4303  0.3339  3.1297
  905MOL0     H22153   6.536  10.865   8.083  0.8486 -1.6464 -0.0314
  905MOL0     H22154   6.666  10.986   8.113 -1.0477 -0.7230  1.0019
  905MOL0     H22155   6.739  10.658   7.014 -0.3950  0.4163 -2.1156
  905MOL0     H22156   6.832  10.580   6.791 -1.1574 -0.4101  0.7186
  905MOL0     H22157   7.204  10.263   6.629  0.2970 -1.0236  0.7814
  905MOL0     H22158   7.294  10.145   6.460  0.0563  0.0175  2.4916
  905MOL0     H22159   7.697   9.826   4.918 -2.7403  0.3744 -1.3386
  905MOL0     H22160   7.438   9.870   4.981 -4.1345 -4.0002 -1.0295
  905MOL0     H22161   7.103   9.859   5.062 -0.4266  0.2119  1.2028
  905MOL0     H22162   6.869   9.927   5.049  1.1664 -0.2489  0.1861
  905MOL0     H22163   6.515   9.750   4.966 -0.4430 -0.2426  0.6476
  905MOL0     H22164   6.672   9.717   4.884  1.3315  0.3522  1.1621
  905MOL0     H22165   6.584   9.912   4.783  0.7924 -2.2788  0.1390
  905MOL0     H22166   6.741   9.921   4.858 -0.1643 -1.9722 -1.6682
  905MOL0     H22167   6.612  10.126   4.891 -1.8677  0.4986 -0.8016
  905MOL0     H22168   6.656  10.045   5.042  0.1817  1.6623 -0.1797
  905MOL0     H22169   6.374  10.054   4.926 -0.8376 -2.6466  0.7215
  905MOL0     H22170   6.421   9.956   5.065  0.6851  0.5741  3.3977
  905MOL0     H22171   6.483  10.346   5.232 -2.9920 -0.1409  2.3502
  905MOL0     H22172   6.737   9.553   5.174 -1.0176  1.4778  0.7436
  905MOL0     H22173   6.867   9.358   5.171  0.6532 -1.0093  0.7014
  905MOL0     H22174   7.035   9.367   5.096 -1.6721 -0.5068 -1.9711
  905MOL0     H22175   7.009   9.399   5.268  0.2619 -0.7790 -0.1095
  906MOL0     O22176   4.008   5.478   9.459  0.1477 -0.1573  0.0704
  906MOL0     C22177   4.020   5.582   9.395 -0.4560 -0.0546 -0.8181
  906MOL0     O22178   4.139   5.626   9.341  0.3565 -0.3823  0.4419
  906MOL0     C22179   4.261   5.582   9.383  0.3668 -0.1614 -0.6449
  906MOL0     C22180   4.366   5.622   9.299 -0.0532 -0.3930  0.5363
  906MOL0     C22181   4.496   5.570   9.307  0.8982  0.3576  0.2745
  906MOL0     C22182   4.532   5.500   9.419  0.7422  0.2557 -0.9029
  906MOL0     O22183   4.665   5.472   9.421  0.3187  0.0980  0.0950
  906MOL0     C22184   4.726   5.391   9.526  0.8165 -0.3384  1.4786
  906MOL0     C22185   4.869   5.384   9.491  0.2683 -0.4061 -1.4920
  906MOL0     C22186   4.934   5.235   9.474 -0.7476 -0.5589 -0.3611
  906MOL0     C22187   5.085   5.266   9.465  0.2996  0.0444  0.9916
  906MOL0     C22188   5.169   5.154   9.408 -0.3639 -0.6187 -0.1470
  906MOL0     C22189   5.309   5.175   9.473 -0.3425 -0.3040  0.6505
  906MOL0     C22190   5.414   5.079   9.410 -0.9197 -0.4989 -0.1700
  906MOL0     C22191   5.388   4.935   9.453  0.0523  1.1849 -0.0994
  906MOL0     N22192   5.400   4.897   9.595  0.1445 -0.4947 -0.2125
  906MOL0     C22193   5.467   4.779   9.634  0.2282  0.1380 -0.5388
  906MOL0     C22194   5.449   4.763   9.771  0.6236 -0.2029  0.5741
  906MOL0     C22195   5.519   4.667   9.862 -0.0090  1.1518 -1.2284
  906MOL0     C22196   5.505   4.698  10.011 -0.6794 -0.5079 -0.5010
  906MOL0     C22197   5.597   4.626  10.105 -0.0247  0.0064 -0.7425
  906MOL0     C22198   5.579   4.678  10.250 -0.7685 -0.0393 -0.1096
  906MOL0     O22199   5.587   4.820  10.265  0.2733  0.4866 -0.7675
  906MOL0     C22200   5.720   4.863  10.277  0.7134 -0.3940 -0.3599
  906MOL0     C22201   5.839   4.793  10.261 -0.1357  0.1228  1.1867
  906MOL0     C22202   5.960   4.840  10.289  0.6124 -0.7083  0.5272
  906MOL0     C22203   5.982   4.971  10.348  0.8283  1.0243 -0.1845
  906MOL0     C22204   6.112   5.027  10.377  0.2549 -0.6412  0.3711
  906MOL0     O22205   6.224   4.951  10.331  0.2865  0.5357  0.2985
  906MOL0     C22206   6.350   4.973  10.368 -0.3960  0.0516  0.4386
  906MOL0     C22207   6.400   5.082  10.447 -0.0261  1.6375  0.5479
  906MOL0     C22208   6.532   5.080  10.493 -0.3726 -0.6713  1.1971
  906MOL0     C22209   6.621   4.970  10.475  0.8577 -0.3369  0.7556
  906MOL0     O22210   6.744   4.981  10.515 -0.4908  0.2720 -0.3006
  906MOL0     C22211   6.852   4.902  10.458  0.0478  0.2568  0.0782
  906MOL0     C22212   6.980   4.925  10.539 -0.0588 -0.3130 -0.0545
  906MOL0     C22213   7.050   5.063  10.519  0.4847  0.2981  0.4526
  906MOL0     C22214   7.171   5.074  10.620  0.0258 -0.1314  0.1005
  906MOL0     C22215   7.292   5.164  10.584 -0.7018 -0.4576  0.0592
  906MOL0     C22216   7.371   5.117  10.466 -0.3370  0.6000 -0.2256
  906MOL0     C22217   7.487   5.219  10.443  0.1836  0.2840 -0.5842
  906MOL0     C22218   7.539   5.237  10.300  0.9534  0.3064 -0.2695
  906MOL0    Cl22219   7.438   5.331  10.192 -0.5226 -0.1933 -0.4194
  906MOL0     C22220   6.570   4.865  10.393 -0.3948  0.8452  0.2475
  906MOL0     C22221   6.443   4.873  10.333  0.5377  0.3860  0.2807
  906MOL0     O22222   6.118   5.122  10.451  0.0800  0.8493 -0.2913
  906MOL0     C22223   5.865   5.054  10.363 -0.4767 -0.0480  0.1300
  906MOL0     C22224   5.736   5.000  10.329 -0.2645  0.6217 -0.1382
  906MOL0     N22225   5.355   4.865   9.805  0.1723  0.2069  0.8737
  906MOL0     N22226   5.334   4.942   9.710 -0.3375  0.6136 -0.1260
  906MOL0     C22227   4.431   5.475   9.522 -0.0660 -0.3279  0.0203
  906MOL0     C22228   4.299   5.515   9.499  0.4602  0.2045  0.9491
  906MOL0     C22229   3.903   5.660   9.367 -0.0043  0.6705  0.4776
  906MOL0     C22230   3.892   5.705   9.231  0.4439  0.9292  0.2599
  906MOL0     C22231   3.780   5.774   9.189  0.5559 -0.3167 -0.0378
  906MOL0     C22232   3.670   5.797   9.273  0.0826  0.2527 -0.0911
  906MOL0     O22233   3.569   5.867   9.217 -0.2879 -0.2086 -0.5942
  906MOL0     C22234   3.439   5.873   9.288 -1.0988 -0.2781 -0.7275
  906MOL0     C22235   3.346   5.936   9.206  0.0398  0.5023 -0.6677
  906MOL0     C22236   3.204   5.920   9.258  0.7049 -0.0292 -0.6940
  906MOL0     C22237   3.115   5.958   9.150  0.6463 -0.0517 -0.0633
  906MOL0     C22238   2.976   5.999   9.197 -0.2507  0.5171  0.0294
  906MOL0     C22239   2.866   6.039   9.229 -0.3810 -0.5897  0.4525
  906MOL0     C22240   3.683   5.754   9.403 -0.1047 -0.4720 -1.1237
  906MOL0     C22241   3.790   5.679   9.455  0.7469 -1.0404 -0.4896
  906MOL0     C22242   3.785   5.638   9.599 -0.1637 -0.6678  0.1997
  906MOL0     H22243   4.343   5.683   9.212 -0.1002 -0.4396  0.5158
  906MOL0     H22244   4.563   5.604   9.228 -0.5116  0.6902 -0.8152
  906MOL0     H22245   4.723   5.438   9.625  0.3615 -1.5907  2.0757
  906MOL0     H22246   4.681   5.291   9.521 -0.6895  0.3614 -2.3446
  906MOL0     H22247   4.915   5.423   9.583 -3.7720  0.3144  0.4325
  906MOL0     H22248   4.891   5.456   9.412  2.9661  0.7783  0.1739
  906MOL0     H22249   4.892   5.203   9.379  1.1906 -1.2894 -1.0220
  906MOL0     H22250   4.912   5.161   9.551 -0.2542 -1.0398 -0.6714
  906MOL0     H22251   5.103   5.347   9.394 -0.4014 -1.5015 -1.0587
  906MOL0     H22252   5.128   5.298   9.561  1.4884  1.1167  0.1297
  906MOL0     H22253   5.132   5.054   9.432 -1.4165  0.2723  2.2582
  906MOL0     H22254   5.183   5.163   9.300 -1.0409 -0.9726 -0.2676
  906MOL0     H22255   5.338   5.279   9.453 -1.2098 -0.2416 -0.4451
  906MOL0     H22256   5.303   5.167   9.581 -1.1690  0.3490  0.6690
  906MOL0     H22257   5.512   5.118   9.439 -1.5079  1.2152 -0.3663
  906MOL0     H22258   5.412   5.084   9.301 -1.2500 -1.4261 -0.2084
  906MOL0     H22259   5.286   4.904   9.426  0.3974 -1.7985  1.6173
  906MOL0     H22260   5.456   4.875   9.391 -2.2649  1.2043 -2.8930
  906MOL0     H22261   5.534   4.711   9.583  0.2485 -0.9668  0.8762
  906MOL0     H22262   5.470   4.569   9.854  2.1713 -0.0847 -0.1448
  906MOL0     H22263   5.626   4.651   9.847  0.6603 -0.8277  3.8389
  906MOL0     H22264   5.503   4.807  10.027 -0.8334 -0.8489  2.3708
  906MOL0     H22265   5.405   4.664  10.039  0.7054 -1.4449  4.2999
  906MOL0     H22266   5.694   4.661  10.070  0.5118 -0.6945  0.0092
  906MOL0     H22267   5.584   4.518  10.115 -0.4633  0.2746  2.9495
  906MOL0     H22268   5.657   4.628  10.308  2.3275  2.1554 -2.0294
  906MOL0     H22269   5.481   4.646  10.287 -2.3380  2.5495 -1.6975
  906MOL0     H22270   5.849   4.691  10.226 -0.1201  0.8653 -1.1180
  906MOL0     H22271   6.049   4.780  10.273  0.7450 -1.7471  4.2803
  906MOL0     H22272   6.335   5.165  10.473 -1.0825  0.6900  1.0201
  906MOL0     H22273   6.568   5.158  10.559  2.3604  0.4802 -1.4165
  906MOL0     H22274   6.826   4.796  10.468 -0.0930  0.3706  1.0172
  906MOL0     H22275   6.869   4.932  10.355  4.2825 -1.9020 -0.0646
  906MOL0     H22276   6.967   4.905  10.646 -0.0097  0.6686  0.1484
  906MOL0     H22277   7.054   4.860  10.492  2.6935  4.1477 -2.6794
  906MOL0     H22278   7.090   5.057  10.417  3.1530 -3.6242  1.5124
  906MOL0     H22279   6.973   5.140  10.532 -0.1400 -0.4504  1.3497
  906MOL0     H22280   7.205   4.978  10.660 -0.6155 -0.0847  0.7931
  906MOL0     H22281   7.122   5.126  10.704  0.7562 -2.2060  1.9090
  906MOL0     H22282   7.352   5.170  10.675  0.1146  1.1526 -0.5447
  906MOL0     H22283   7.257   5.267  10.570  1.9403  0.9054  2.4040
  906MOL0     H22284   7.408   5.015  10.479  0.2916  0.9205  0.5444
  906MOL0     H22285   7.303   5.112  10.380 -2.8041  0.5924  1.6197
  906MOL0     H22286   7.568   5.204  10.515 -0.0220  1.7957 -0.0105
  906MOL0     H22287   7.446   5.318  10.464 -2.0638 -0.7972  0.5329
  906MOL0     H22288   7.642   5.270  10.320  0.1971  0.8561  3.4926
  906MOL0     H22289   7.553   5.136  10.262 -1.4099 -0.6461  1.1680
  906MOL0     H22290   6.631   4.775  10.387 -2.4975 -0.5450 -2.1894
  906MOL0     H22291   6.402   4.793  10.273  0.1838 -2.2782  3.7183
  906MOL0     H22292   5.880   5.157  10.393  4.3979 -0.3112 -0.5258
  906MOL0     H22293   5.644   5.058  10.333  0.2408  1.4506 -0.2951
  906MOL0     H22294   4.466   5.430   9.615  2.4283  0.1490 -0.6262
  906MOL0     H22295   4.221   5.497   9.573  0.1980 -1.2980  0.3252
  906MOL0     H22296   3.963   5.696   9.149  0.4207 -0.3953  0.3671
  906MOL0     H22297   3.785   5.821   9.091  0.5990 -1.2701 -0.5116
  906MOL0     H22298   3.446   5.925   9.384  1.3036 -0.3132 -0.8210
  906MOL0     H22299   3.408   5.771   9.315 -0.4376 -0.2980 -0.0267
  906MOL0     H22300   3.359   5.889   9.109 -2.4599  1.1955 -1.4182
  906MOL0     H22301   3.362   6.044   9.196 -0.4640  0.7367  0.7838
  906MOL0     H22302   3.204   5.999   9.334 -0.2495  0.7058 -1.4317
  906MOL0     H22303   3.189   5.819   9.296 -0.7121  0.1154 -0.8395
  906MOL0     H22304   3.157   6.034   9.083 -1.8689  0.3692 -1.2821
  906MOL0     H22305   3.087   5.869   9.093  1.2442 -0.6210  0.5162
  906MOL0     H22306   2.767   6.052   9.267 -0.5414 -0.2342 -0.0821
  906MOL0     H22307   3.601   5.768   9.473  1.3993  2.2178  0.2798
  906MOL0     H22308   3.739   5.541   9.620 -0.0062 -1.0625 -1.1921
  906MOL0     H22309   3.889   5.655   9.629  0.0220 -0.6911 -0.4154
  906MOL0     H22310   3.735   5.710   9.664  0.9247  0.3773 -0.1012
  907MOL0     O22311  10.809   7.362   7.794  0.0751  0.1187  0.0334
  907MOL0     C22312  10.772   7.430   7.885 -0.4694 -0.1312 -0.2990
  907MOL0     O22313  10.853   7.462   7.983  0.0064 -0.1202 -1.0311
  907MOL0     C22314  10.986   7.488   7.959 -0.2720 -0.2701  0.0063
  907MOL0     C22315  11.082   7.474   8.068  0.2718  0.6664 -0.3108
  907MOL0     C22316  11.220   7.474   8.046 -1.1355 -0.5303  0.3538
  907MOL0     C22317  11.277   7.500   7.915  0.0244 -0.4551 -0.1885
  907MOL0     O22318  11.415   7.498   7.882  0.0055  0.6389  0.4485
  907MOL0     C22319  11.498   7.564   7.979 -0.1621 -0.3222  0.2224
  907MOL0     C22320  11.636   7.572   7.923 -0.0101  0.1500 -0.3889
  907MOL0     C22321  11.709   7.437   7.936  1.3096 -0.2059  0.7094
  907MOL0     C22322  11.856   7.438   7.912 -0.2855 -0.9956  0.8222
  907MOL0     C22323  11.946   7.316   7.974 -0.6431  0.2875  0.1031
  907MOL0     C22324  11.897   7.171   7.944  0.0595  0.2950 -0.2278
  907MOL0     C22325  11.885   7.143   7.798  0.2868 -1.0155  0.2567
  907MOL0     C22326  11.875   7.000   7.765  0.1152  0.8485  0.3132
  907MOL0     N22327  11.853   6.970   7.624  0.1249  0.3284  0.1456
  907MOL0     C22328  11.727   6.982   7.564 -0.8739  1.0194 -0.9108
  907MOL0     C22329  11.727   6.897   7.462 -1.7248  0.4495 -0.0988
  907MOL0     C22330  11.597   6.880   7.389  0.1464 -0.3804 -0.0450
  907MOL0     C22331  11.612   6.895   7.244 -0.2065 -0.4219  0.3173
  907MOL0     C22332  11.651   7.042   7.216 -1.0215  0.4062  0.4388
  907MOL0     C22333  11.707   7.069   7.070 -0.5911  0.2971 -0.4436
  907MOL0     O22334  11.615   7.036   6.957 -0.2029  0.1965 -0.4036
  907MOL0     C22335  11.491   7.076   6.956  0.4139 -0.0946 -0.5135
  907MOL0     C22336  11.439   7.199   7.024  1.0061 -0.4110 -0.0080
  907MOL0     C22337  11.303   7.233   7.001 -0.2951 -0.7477  0.4233
  907MOL0     C22338  11.218   7.166   6.921 -0.6372  1.1900  0.2040
  907MOL0     C22339  11.083   7.213   6.900  0.1412  0.4321  0.1208
  907MOL0     O22340  11.074   7.347   6.881  0.4753  0.0485  0.6830
  907MOL0     C22341  10.951   7.395   6.863 -0.6842 -0.1057  0.4379
  907MOL0     C22342  10.873   7.458   6.965  0.5874  0.6477 -0.3387
  907MOL0     C22343  10.737   7.483   6.958 -0.1606 -0.4970  0.1868
  907MOL0     C22344  10.672   7.458   6.842 -0.4810 -0.3092 -0.0633
  907MOL0     O22345  10.542   7.503   6.842 -0.2049  0.2790 -0.7720
  907MOL0     C22346  10.476   7.493   6.720  0.4254  0.2511  0.0941
  907MOL0     C22347  10.337   7.560   6.718  0.0379  0.0198 -0.1276
  907MOL0     C22348  10.236   7.472   6.787 -0.3574 -0.1907  0.5136
  907MOL0     C22349  10.248   7.482   6.936 -0.1509 -0.0111  0.4574
  907MOL0     C22350  10.118   7.454   7.016  0.1816  0.5593  0.1168
  907MOL0     C22351  10.155   7.454   7.173  0.1449 -0.0125  0.7862
  907MOL0     C22352  10.027   7.500   7.246 -0.2399 -0.1896 -0.1555
  907MOL0     C22353  10.059   7.521   7.395  0.2147 -0.3512 -0.0574
  907MOL0    Cl22354   9.903   7.518   7.479  0.0138  0.4319 -0.4777
  907MOL0     C22355  10.745   7.416   6.732  0.0689  0.7387  0.0020
  907MOL0     C22356  10.884   7.386   6.738 -0.3738  0.3851 -0.6137
  907MOL0     O22357  10.991   7.133   6.885  0.1407  0.3014  0.5615
  907MOL0     C22358  11.265   7.043   6.868  0.4654 -0.4558 -0.3493
  907MOL0     C22359  11.402   7.001   6.879  0.4740 -0.3232  0.6206
  907MOL0     N22360  11.842   6.833   7.456 -0.6247 -0.0449  0.0234
  907MOL0     N22361  11.924   6.881   7.542 -0.4141 -0.5886 -0.0410
  907MOL0     C22362  11.195   7.516   7.811 -0.0616  0.9718 -0.5365
  907MOL0     C22363  11.052   7.505   7.831 -0.1462  0.3483  1.0534
  907MOL0     C22364  10.622   7.436   7.898  0.0067  0.2360  0.8470
  907MOL0     C22365  10.535   7.344   7.820 -0.6341  0.6418 -0.0538
  907MOL0     C22366  10.399   7.357   7.815  0.0153  0.4736 -0.2951
  907MOL0     C22367  10.342   7.468   7.872  0.5196  0.0205 -0.4233
  907MOL0     O22368  10.208   7.495   7.876  0.1795  0.5228 -0.7016
  907MOL0     C22369  10.116   7.391   7.834  0.9956 -0.8177 -0.1886
  907MOL0     C22370   9.969   7.432   7.860 -0.5678 -0.4821  0.5890
  907MOL0     C22371   9.913   7.478   7.998  0.0282 -0.3511 -0.5306
  907MOL0     C22372   9.903   7.364   8.092  0.1422 -0.1148 -0.2312
  907MOL0     C22373  10.032   7.302   8.129  0.3094 -0.3352  0.8105
  907MOL0     C22374  10.130   7.255   8.171 -0.5848 -0.7740 -0.0258
  907MOL0     C22375  10.417   7.556   7.943 -0.3379  0.7337 -0.8477
  907MOL0     C22376  10.554   7.545   7.959 -0.5462  0.0583  0.1904
  907MOL0     C22377  10.630   7.654   8.039 -0.3526 -0.1907  0.0268
  907MOL0     H22378  11.045   7.460   8.169  1.4444 -1.9165 -0.1577
  907MOL0     H22379  11.284   7.454   8.130  1.0520 -1.3575 -1.4106
  907MOL0     H22380  11.464   7.667   7.996 -2.2371 -1.0165  0.6282
  907MOL0     H22381  11.506   7.524   8.080  1.7429  1.2904  0.7767
  907MOL0     H22382  11.686   7.646   7.987  0.2111 -0.0261 -0.3542
  907MOL0     H22383  11.641   7.612   7.822  2.1442  1.0528  0.0067
  907MOL0     H22384  11.653   7.373   7.867  0.0777  1.7368 -0.1718
  907MOL0     H22385  11.689   7.409   8.040 -2.3569 -0.6361  0.0108
  907MOL0     H22386  11.869   7.442   7.803  3.4452  0.7017  1.1594
  907MOL0     H22387  11.898   7.533   7.948  0.1758 -1.7762  2.3988
  907MOL0     H22388  12.042   7.314   7.921 -2.0077 -1.6283 -2.5303
  907MOL0     H22389  11.964   7.336   8.080  1.1827  0.2788 -0.1857
  907MOL0     H22390  11.958   7.091   7.988  0.9164 -0.4743 -2.6664
  907MOL0     H22391  11.806   7.157   8.004 -0.0525 -1.5987 -0.7748
  907MOL0     H22392  11.978   7.167   7.746  0.0229 -3.6282 -1.6222
  907MOL0     H22393  11.816   7.214   7.751  1.5487  0.2228  0.2033
  907MOL0     H22394  11.962   6.941   7.796 -0.9988 -0.3541  1.2321
  907MOL0     H22395  11.786   6.956   7.811 -1.0513  0.1481 -2.4081
  907MOL0     H22396  11.641   7.037   7.599  1.8953  2.7112  4.4221
  907MOL0     H22397  11.559   6.778   7.392  2.6318 -1.5502 -3.0508
  907MOL0     H22398  11.526   6.952   7.430  3.5463  2.5847  1.1465
  907MOL0     H22399  11.688   6.823   7.212 -0.6115 -0.3758 -0.7561
  907MOL0     H22400  11.521   6.884   7.186  0.1813 -1.3389 -0.1304
  907MOL0     H22401  11.728   7.070   7.288  0.8920 -0.9368 -0.9754
  907MOL0     H22402  11.555   7.092   7.232 -2.1487 -2.0918  2.2539
  907MOL0     H22403  11.798   7.012   7.051 -1.9537 -1.0266 -3.9449
  907MOL0     H22404  11.728   7.176   7.066 -2.9199  0.7865 -1.9083
  907MOL0     H22405  11.497   7.263   7.090 -0.0154 -2.1785  2.7977
  907MOL0     H22406  11.264   7.321   7.052  1.1339  0.2225 -0.0714
  907MOL0     H22407  10.930   7.474   7.056  0.4972 -0.8993  0.0264
  907MOL0     H22408  10.696   7.527   7.048  2.7344  0.2755  1.2377
  907MOL0     H22409  10.529   7.540   6.637  0.0465  3.7522  1.6603
  907MOL0     H22410  10.456   7.388   6.693 -1.0855  0.9466 -1.7339
  907MOL0     H22411  10.333   7.666   6.745 -2.0541  0.2544 -1.1194
  907MOL0     H22412  10.317   7.554   6.611  2.3230 -1.3859 -0.5403
  907MOL0     H22413  10.136   7.488   6.745 -1.5499 -1.7883  2.5487
  907MOL0     H22414  10.255   7.367   6.763  2.5201 -0.2178  2.3711
  907MOL0     H22415  10.281   7.579   6.976  0.3449 -0.7814  1.9767
  907MOL0     H22416  10.330   7.414   6.962  0.8316  0.9418 -0.0695
  907MOL0     H22417  10.088   7.354   6.982 -0.6636  0.0236  2.2386
  907MOL0     H22418  10.045   7.529   6.984  1.0858 -0.0224 -3.8245
  907MOL0     H22419  10.189   7.353   7.198  1.6889  0.7237  1.8278
  907MOL0     H22420  10.234   7.528   7.186 -1.6558  2.6793 -2.1540
  907MOL0     H22421   9.963   7.415   7.222  1.6912 -0.6451 -4.7239
  907MOL0     H22422   9.967   7.580   7.200 -0.6241 -1.5435 -2.1676
  907MOL0     H22423  10.136   7.453   7.433 -0.5859 -2.3749 -1.8013
  907MOL0     H22424  10.106   7.616   7.421 -0.4086 -0.4871  1.7192
  907MOL0     H22425  10.706   7.426   6.632  1.7271  0.0335 -0.7598
  907MOL0     H22426  10.941   7.338   6.659  1.9059 -0.2910  1.3399
  907MOL0     H22427  11.205   6.974   6.809  0.3745 -2.1773  1.6324
  907MOL0     H22428  11.429   6.903   6.840 -0.4444 -0.5492  0.5401
  907MOL0     H22429  11.242   7.525   7.713  1.5132 -2.9170 -0.3068
  907MOL0     H22430  10.997   7.496   7.737  2.2798 -0.0959 -0.3919
  907MOL0     H22431  10.586   7.264   7.767  0.1145  1.3930 -0.4935
  907MOL0     H22432  10.324   7.295   7.767 -1.4846  1.9499  0.0620
  907MOL0     H22433  10.130   7.301   7.894  0.1467  0.7106  2.4931
  907MOL0     H22434  10.131   7.373   7.727 -0.7293 -2.7260 -0.1529
  907MOL0     H22435   9.918   7.339   7.834 -0.2092 -1.4399  3.0773
  907MOL0     H22436   9.944   7.500   7.777  0.9051 -0.1210  0.4154
  907MOL0     H22437   9.819   7.532   7.986  0.2968 -0.0972 -1.6039
  907MOL0     H22438   9.990   7.542   8.043  1.4723 -1.5898 -1.1586
  907MOL0     H22439   9.850   7.388   8.184  0.3698  3.0647 -0.8018
  907MOL0     H22440   9.838   7.290   8.044  0.9370 -2.0869  1.6107
  907MOL0     H22441  10.228   7.225   8.204 -0.2363 -0.3235 -0.6281
  907MOL0     H22442  10.364   7.636   7.996  1.3169 -0.4538  2.9439
  907MOL0     H22443  10.565   7.735   8.073  1.1431  0.7017  0.8694
  907MOL0     H22444  10.683   7.618   8.127  0.4280  1.5297  0.3086
  907MOL0     H22445  10.707   7.705   7.981  0.3480  0.0956  1.1744
  908MOL0     O22446   9.224   7.898   2.443  1.1009  0.2117 -0.7617
  908MOL0     C22447   9.175   7.990   2.506 -0.6919  0.3200  0.0464
  908MOL0     O22448   9.124   7.987   2.635  0.0852  0.7003  0.0469
  908MOL0     C22449   9.112   7.870   2.706  0.9222 -0.1099  0.0041
  908MOL0     C22450   9.088   7.739   2.660  0.1626 -0.0192  0.0391
  908MOL0     C22451   9.078   7.627   2.736 -0.3999 -1.1163 -0.3584
  908MOL0     C22452   9.110   7.641   2.873 -0.8301 -0.2950  0.5308
  908MOL0     O22453   9.113   7.529   2.951  0.1054 -0.1744 -0.0437
  908MOL0     C22454   9.234   7.505   3.030 -0.1911 -0.0656  0.7804
  908MOL0     C22455   9.288   7.362   2.987  0.6060  0.1295 -0.7553
  908MOL0     C22456   9.439   7.351   2.996  0.3059 -0.5725  0.5184
  908MOL0     C22457   9.510   7.209   2.993  0.9977  0.0661  0.5837
  908MOL0     C22458   9.658   7.230   3.025  0.1979 -0.1056  0.0642
  908MOL0     C22459   9.750   7.102   3.015  0.4367  0.2301 -0.1019
  908MOL0     C22460   9.884   7.128   3.074 -1.0206  0.1359 -0.0217
  908MOL0     C22461   9.998   7.036   3.020 -0.1497 -0.4305 -0.4038
  908MOL0     N22462  10.122   7.057   3.086 -0.0514  0.3001  0.1681
  908MOL0     C22463  10.242   7.064   3.015  0.4017  0.3227 -0.2391
  908MOL0     C22464  10.336   7.099   3.102  0.4680 -0.2742 -0.5843
  908MOL0     C22465  10.477   7.125   3.078  0.0022 -1.0724 -0.2218
  908MOL0     C22466  10.506   7.275   3.106  0.0217 -1.3323 -0.0864
  908MOL0     C22467  10.659   7.315   3.095  0.7772 -0.0235 -0.1629
  908MOL0     C22468  10.679   7.462   3.129 -0.3612 -1.3232 -0.0449
  908MOL0     O22469  10.645   7.540   3.012  0.2353  0.1108  0.2212
  908MOL0     C22470  10.580   7.658   3.020  0.0105  0.8870 -0.2141
  908MOL0     C22471  10.627   7.755   3.112 -0.0443  1.0629  0.7034
  908MOL0     C22472  10.578   7.884   3.100  0.2539  0.0869 -0.2143
  908MOL0     C22473  10.473   7.909   3.010  0.7734  0.3477  0.1020
  908MOL0     C22474  10.440   8.057   2.998 -0.7079  0.0063  0.0737
  908MOL0     O22475  10.378   8.101   2.884 -0.9004  0.3218 -0.7682
  908MOL0     C22476  10.305   8.209   2.854 -0.5554  0.2101 -0.0701
  908MOL0     C22477  10.275   8.307   2.939  0.2299 -0.6067  0.1499
  908MOL0     C22478  10.202   8.417   2.904 -0.5782 -0.4321  0.4204
  908MOL0     C22479  10.144   8.435   2.775 -0.8709 -0.2145 -0.4030
  908MOL0     O22480  10.059   8.535   2.724 -0.6688 -0.3469  0.0651
  908MOL0     C22481   9.990   8.613   2.825  0.0786  0.2976 -0.2198
  908MOL0     C22482   9.964   8.754   2.760 -0.5764 -0.3048 -0.3160
  908MOL0     C22483   9.857   8.845   2.837 -0.6298 -0.2109 -0.5046
  908MOL0     C22484   9.878   8.994   2.806 -0.2952  0.1856 -1.7257
  908MOL0     C22485   9.804   9.077   2.922 -0.0590  0.8942  0.0149
  908MOL0     C22486   9.805   9.224   2.880 -0.5549  0.3214  0.5118
  908MOL0     C22487   9.723   9.302   2.980 -0.0909 -0.5643 -0.0645
  908MOL0     C22488   9.726   9.450   2.935 -0.9411 -0.1047  0.8312
  908MOL0    Cl22489   9.597   9.479   2.808 -0.3701  0.0938 -0.0711
  908MOL0     C22490  10.154   8.320   2.694 -0.4677  0.1536 -0.1895
  908MOL0     C22491  10.237   8.210   2.731  0.0343  0.1296 -0.3547
  908MOL0     O22492  10.461   8.125   3.100 -0.7779 -0.5253  0.1707
  908MOL0     C22493  10.419   7.815   2.928 -0.2332  0.8932  0.2589
  908MOL0     C22494  10.485   7.688   2.928 -0.5204  0.0939 -1.0062
  908MOL0     N22495  10.271   7.118   3.226 -0.5794  0.0358 -0.1607
  908MOL0     N22496  10.148   7.092   3.213  0.0206  0.2200 -0.2522
  908MOL0     C22497   9.138   7.767   2.926  0.0135  0.5367  0.1771
  908MOL0     C22498   9.134   7.883   2.849  0.9387 -0.4202  1.1569
  908MOL0     C22499   9.173   8.121   2.440 -0.5832 -0.3327 -0.2530
  908MOL0     C22500   9.053   8.190   2.458  0.0103  1.0756 -0.4653
  908MOL0     C22501   9.031   8.321   2.415  0.4499 -0.7679  1.0430
  908MOL0     C22502   9.137   8.379   2.344 -0.1231 -1.0503  0.1064
  908MOL0     O22503   9.118   8.519   2.308 -0.0044  0.4635 -0.1502
  908MOL0     C22504   9.237   8.591   2.274  0.0537 -0.6829 -0.1982
  908MOL0     C22505   9.201   8.744   2.287  0.4061 -0.7108 -0.0085
  908MOL0     C22506   9.323   8.831   2.299 -0.6785 -0.7398  0.1970
  908MOL0     C22507   9.298   8.976   2.346 -0.6872 -0.3110 -0.2991
  908MOL0     C22508   9.244   8.974   2.481 -0.5412  0.0303  0.6588
  908MOL0     C22509   9.187   8.969   2.586 -0.1875 -0.8251  0.1308
  908MOL0     C22510   9.245   8.299   2.293  0.9977  0.5110 -0.5247
  908MOL0     C22511   9.270   8.175   2.348 -0.2017 -0.4558 -0.7455
  908MOL0     C22512   9.395   8.108   2.308  0.8661 -0.1836 -0.7044
  908MOL0     H22513   9.054   7.732   2.557  2.3018  0.1887 -0.7304
  908MOL0     H22514   9.053   7.528   2.698 -3.0360 -0.3386 -0.8454
  908MOL0     H22515   9.304   7.578   2.989 -1.0328 -1.7539 -4.4796
  908MOL0     H22516   9.220   7.512   3.138  1.8090 -1.3759  1.1620
  908MOL0     H22517   9.249   7.337   2.888 -0.7099  0.1888 -0.2716
  908MOL0     H22518   9.255   7.275   3.045 -0.0208 -1.5793 -3.4865
  908MOL0     H22519   9.477   7.407   3.081  0.2585  0.3424 -0.0489
  908MOL0     H22520   9.481   7.411   2.914 -3.2507  0.7091 -0.5613
  908MOL0     H22521   9.469   7.149   3.075  1.5651 -2.5308 -0.9533
  908MOL0     H22522   9.492   7.160   2.897 -0.3211  0.4479  0.6078
  908MOL0     H22523   9.699   7.308   2.960 -1.0392  0.6444  0.1482
  908MOL0     H22524   9.671   7.264   3.128  0.5855  0.0101 -0.0206
  908MOL0     H22525   9.695   7.031   3.076  0.4589  0.6195  0.3857
  908MOL0     H22526   9.757   7.067   2.912  2.4673 -2.9395  0.9783
  908MOL0     H22527   9.878   7.137   3.183 -0.9257 -1.2191  0.1144
  908MOL0     H22528   9.903   7.231   3.041  0.2025  0.2203  0.8432
  908MOL0     H22529   9.963   6.936   3.047  0.1345  0.6532  5.0617
  908MOL0     H22530  10.005   7.052   2.912  1.3755  2.8283  0.0834
  908MOL0     H22531  10.252   7.013   2.920 -0.9758 -3.7149  1.5309
  908MOL0     H22532  10.543   7.065   3.141 -2.4762 -1.3186  2.3728
  908MOL0     H22533  10.492   7.102   2.973 -0.7727 -0.4877 -0.4701
  908MOL0     H22534  10.438   7.330   3.041 -6.0980 -3.5878  3.5659
  908MOL0     H22535  10.463   7.304   3.203  0.6700 -1.4866  0.2542
  908MOL0     H22536  10.690   7.313   2.990 -0.4726 -0.6094 -0.5421
  908MOL0     H22537  10.702   7.240   3.163  0.4631  0.0007  0.0648
  908MOL0     H22538  10.784   7.484   3.152 -0.5012  1.5058 -1.6896
  908MOL0     H22539  10.620   7.485   3.218  1.0086  4.2018 -0.2067
  908MOL0     H22540  10.704   7.743   3.187  0.7376  4.7407  0.6703
  908MOL0     H22541  10.623   7.950   3.173  1.9178 -0.9194 -0.2630
  908MOL0     H22542  10.328   8.308   3.034  0.5665 -1.7406 -0.0188
  908MOL0     H22543  10.191   8.496   2.977  2.3174  0.4715  0.0091
  908MOL0     H22544   9.886   8.581   2.837  0.1176  0.2548  0.0049
  908MOL0     H22545  10.046   8.631   2.918  1.3483 -0.8972 -0.7175
  908MOL0     H22546  10.056   8.814   2.765 -0.8366  0.1126  4.0661
  908MOL0     H22547   9.927   8.732   2.660 -0.0727 -3.9198  0.1699
  908MOL0     H22548   9.752   8.816   2.823 -1.5596  2.1560  0.9597
  908MOL0     H22549   9.864   8.828   2.945 -1.7996 -1.1504 -0.5583
  908MOL0     H22550   9.833   9.015   2.708 -0.3837 -0.0937 -1.7461
  908MOL0     H22551   9.982   9.027   2.798  0.1520 -0.3380  1.1476
  908MOL0     H22552   9.852   9.056   3.017 -1.8617 -1.7923  0.4631
  908MOL0     H22553   9.699   9.046   2.931 -0.0251  1.4825  5.8583
  908MOL0     H22554   9.907   9.265   2.880 -0.7941  1.0012 -0.8806
  908MOL0     H22555   9.771   9.243   2.778  2.1146  0.7184 -0.4049
  908MOL0     H22556   9.763   9.308   3.081 -0.6480  0.4217  0.1101
  908MOL0     H22557   9.621   9.261   2.976 -1.0899  1.8801 -2.6211
  908MOL0     H22558   9.687   9.509   3.018 -0.5558 -0.4527  1.2617
  908MOL0     H22559   9.829   9.480   2.913 -0.8720  0.5217  1.9639
  908MOL0     H22560  10.111   8.319   2.595  0.4979 -2.2129 -0.6525
  908MOL0     H22561  10.249   8.124   2.666  4.4335 -0.0875  0.4662
  908MOL0     H22562  10.342   7.831   2.853  0.2756  2.0830 -0.0167
  908MOL0     H22563  10.447   7.611   2.862 -1.2344 -2.6745  2.3684
  908MOL0     H22564   9.178   7.783   3.026 -1.1610 -1.0811  0.9491
  908MOL0     H22565   9.156   7.981   2.891 -1.2962  0.8868 -0.4986
  908MOL0     H22566   8.980   8.144   2.523  2.7674  1.2713  3.1124
  908MOL0     H22567   8.947   8.375   2.457  1.3583  1.9448 -0.4173
  908MOL0     H22568   9.280   8.557   2.179  1.6920 -1.3111  0.7169
  908MOL0     H22569   9.312   8.556   2.346 -1.3900 -2.7256  0.3781
  908MOL0     H22570   9.138   8.750   2.377  1.2139  1.7863  0.4699
  908MOL0     H22571   9.154   8.773   2.193 -0.8276 -0.6124  0.6069
  908MOL0     H22572   9.369   8.832   2.199 -2.0082 -3.2590 -0.5320
  908MOL0     H22573   9.397   8.793   2.369 -1.4951 -0.1077  1.4355
  908MOL0     H22574   9.398   9.021   2.346  0.2469 -1.8708  3.9844
  908MOL0     H22575   9.239   9.031   2.272 -1.2239 -1.7139 -0.9466
  908MOL0     H22576   9.132   8.957   2.677  1.3054  1.1947  1.3843
  908MOL0     H22577   9.323   8.348   2.236  0.0125  2.1036 -0.5566
  908MOL0     H22578   9.403   8.007   2.349 -0.2255  0.0461  0.1251
  908MOL0     H22579   9.398   8.104   2.199 -0.1039 -0.3985 -0.7273
  908MOL0     H22580   9.483   8.157   2.351  0.6620 -1.9558  1.9931
  909MOL0     O22581   9.571  10.666   3.288 -0.4224  0.2388  1.0592
  909MOL0     C22582   9.512  10.752   3.222  0.2904  0.6069 -0.6800
  909MOL0     O22583   9.566  10.875   3.199 -0.2018 -0.2585  0.3350
  909MOL0     C22584   9.701  10.909   3.203 -0.3425 -0.0698  0.5994
  909MOL0     C22585   9.737  11.019   3.275  0.2779  0.4337  0.2524
  909MOL0     C22586   9.865  11.040   3.323 -0.1718 -0.5458 -0.0128
  909MOL0     C22587   9.975  10.958   3.280 -0.3122 -0.2344 -0.9441
  909MOL0     O22588  10.106  10.965   3.313 -0.3143 -0.2973 -0.6648
  909MOL0     C22589  10.150  11.058   3.414 -0.6443  0.8829 -0.1105
  909MOL0     C22590  10.303  11.032   3.432  0.3648  0.6049  0.5478
  909MOL0     C22591  10.360  11.086   3.569  0.6058 -0.1416 -0.3010
  909MOL0     C22592  10.507  11.072   3.588  1.0388 -0.4901  0.2757
  909MOL0     C22593  10.541  11.141   3.717 -0.1257  0.7666 -0.5692
  909MOL0     C22594  10.690  11.144   3.737  1.1297  0.8770 -0.2920
  909MOL0     C22595  10.722  11.216   3.877 -0.1000 -0.3679 -0.4777
  909MOL0     C22596  10.869  11.204   3.904  0.1279 -0.5195  0.4266
  909MOL0     N22597  10.914  11.289   4.015  0.0816  0.0622  0.6463
  909MOL0     C22598  10.893  11.422   4.031 -0.5843 -0.5407 -0.2919
  909MOL0     C22599  10.981  11.455   4.129 -0.0643 -0.8098 -0.4001
  909MOL0     C22600  11.036  11.598   4.152  1.3432  0.7505  0.5715
  909MOL0     C22601  10.971  11.663   4.271  0.4838  0.3646 -0.1655
  909MOL0     C22602  11.016  11.594   4.403  0.2577  0.4666 -0.4843
  909MOL0     C22603  11.010  11.692   4.530 -0.1244  0.4328  0.2168
  909MOL0     O22604  11.035  11.615   4.641  0.0206  1.1769  0.5012
  909MOL0     C22605  11.163  11.615   4.691  0.2723 -0.1168 -0.4097
  909MOL0     C22606  11.166  11.592   4.822 -0.4756  0.6698  0.1753
  909MOL0     C22607  11.288  11.581   4.888  0.2300  0.3652 -0.5913
  909MOL0     C22608  11.410  11.610   4.822 -0.7168  0.4879 -0.8045
  909MOL0     C22609  11.543  11.624   4.898  0.1633 -0.2328  0.1945
  909MOL0     O22610  11.552  11.568   5.024 -1.4471  0.0401 -0.1931
  909MOL0     C22611  11.683  11.573   5.082 -0.3940  0.2297 -0.6172
  909MOL0     C22612  11.753  11.448   5.101 -0.2677 -0.8958 -0.2917
  909MOL0     C22613  11.877  11.451   5.159  0.1419  0.5370  0.2135
  909MOL0     C22614  11.942  11.571   5.196 -1.4294 -0.3565  0.5534
  909MOL0     O22615  12.073  11.600   5.235  0.3991  0.0801 -0.0951
  909MOL0     C22616  12.155  11.494   5.283 -0.1068 -0.5187  1.3837
  909MOL0     C22617  12.263  11.454   5.185  0.1396  0.2793 -0.3402
  909MOL0     C22618  12.357  11.564   5.130  0.0832  0.2200 -0.5121
  909MOL0     C22619  12.490  11.524   5.059  0.3949  0.4546 -0.4044
  909MOL0     C22620  12.564  11.636   4.998 -0.7290 -0.2778 -0.7370
  909MOL0     C22621  12.694  11.591   4.923  0.6556 -0.3294  0.1078
  909MOL0     C22622  12.774  11.707   4.876  0.5080  0.1698  0.5753
  909MOL0     C22623  12.919  11.668   4.833  0.0334 -0.4152  0.1683
  909MOL0    Cl22624  12.898  11.574   4.683  0.2742 -0.3252 -0.4823
  909MOL0     C22625  11.879  11.693   5.173 -0.1110  0.4252 -0.0067
  909MOL0     C22626  11.746  11.696   5.122 -0.5155  0.0814  1.0595
  909MOL0     O22627  11.633  11.686   4.842 -0.4316  0.4198  0.5851
  909MOL0     C22628  11.404  11.638   4.685  0.2519  0.1418  0.3599
  909MOL0     C22629  11.281  11.633   4.625 -0.7570  0.2243  0.6912
  909MOL0     N22630  11.038  11.337   4.179 -0.5033 -0.7560  0.4035
  909MOL0     N22631  10.990  11.239   4.113  0.3008 -0.2592  0.5172
  909MOL0     C22632   9.938  10.853   3.195 -0.0780 -0.3122  0.5225
  909MOL0     C22633   9.805  10.827   3.163  0.3269  0.2511  0.2335
  909MOL0     C22634   9.380  10.712   3.165  0.5590  0.6784 -0.3649
  909MOL0     C22635   9.341  10.769   3.046  0.4394 -0.4406  0.6517
  909MOL0     C22636   9.219  10.737   2.975 -0.9002 -0.2489 -0.2924
  909MOL0     C22637   9.131  10.652   3.036  1.0624  0.5694  0.1321
  909MOL0     O22638   9.027  10.613   2.957  0.5917 -0.4131 -0.2858
  909MOL0     C22639   8.944  10.702   2.872 -0.4956 -0.2527 -1.2527
  909MOL0     C22640   8.899  10.832   2.936 -0.3925 -0.3124 -0.3381
  909MOL0     C22641   8.799  10.828   3.051  0.1447 -0.7862  0.3100
  909MOL0     C22642   8.723  10.697   3.066 -0.3969  0.1271 -1.1328
  909MOL0     C22643   8.619  10.706   3.171 -0.1905  0.0431 -0.2993
  909MOL0     C22644   8.554  10.728   3.268 -0.1344  0.0358  0.2671
  909MOL0     C22645   9.173  10.584   3.147  0.8315  0.9230 -0.7314
  909MOL0     C22646   9.293  10.608   3.222  0.9199  0.3849 -0.8741
  909MOL0     C22647   9.302  10.561   3.364  0.6743 -0.0706  0.0209
  909MOL0     H22648   9.659  11.088   3.306 -0.1580 -0.6571  1.6898
  909MOL0     H22649   9.878  11.126   3.387  3.6286 -1.1337  0.2492
  909MOL0     H22650  10.120  11.161   3.391 -2.6045  1.2003  3.1921
  909MOL0     H22651  10.093  11.039   3.506 -0.3292 -1.1093 -0.2853
  909MOL0     H22652  10.345  11.089   3.348 -3.1000  2.5157 -0.0802
  909MOL0     H22653  10.331  10.928   3.417  1.2999  0.8656  0.4072
  909MOL0     H22654  10.307  11.038   3.651  0.9565  3.2250  2.1135
  909MOL0     H22655  10.330  11.192   3.572 -0.1589 -0.3657  1.8595
  909MOL0     H22656  10.534  10.966   3.582  1.0860 -0.4866  0.4263
  909MOL0     H22657  10.553  11.114   3.498  0.5453  0.4879  0.4666
  909MOL0     H22658  10.488  11.236   3.725 -3.4643 -1.0507  1.6631
  909MOL0     H22659  10.498  11.070   3.789  0.6015  1.0745  0.1797
  909MOL0     H22660  10.726  11.041   3.738  1.0372  0.7657 -2.5473
  909MOL0     H22661  10.736  11.200   3.655 -0.8712  0.6841 -1.6470
  909MOL0     H22662  10.665  11.173   3.960  3.4005 -2.6276  0.9835
  909MOL0     H22663  10.695  11.321   3.863 -2.2119 -0.9427 -1.0880
  909MOL0     H22664  10.901  11.100   3.919 -1.9354 -1.4779 -1.2713
  909MOL0     H22665  10.919  11.250   3.819  0.5839 -3.2759 -0.9311
  909MOL0     H22666  10.836  11.493   3.971 -1.2123  0.6148  1.6125
  909MOL0     H22667  11.145  11.602   4.160  1.7013  2.0516 -2.9202
  909MOL0     H22668  11.009  11.657   4.064  2.4941 -0.6231 -0.7628
  909MOL0     H22669  11.002  11.767   4.282 -0.5245  0.7892 -1.1926
  909MOL0     H22670  10.863  11.670   4.255  0.4797 -1.1950 -1.0015
  909MOL0     H22671  11.121  11.578   4.375  1.1544  5.3494 -0.6952
  909MOL0     H22672  10.975  11.494   4.418  3.7670 -0.9496  0.8082
  909MOL0     H22673  10.917  11.743   4.556  0.0928 -0.1241  2.2593
  909MOL0     H22674  11.086  11.767   4.507  0.0222  0.4984  0.9100
  909MOL0     H22675  11.074  11.591   4.880 -1.9129  0.7027 -1.9856
  909MOL0     H22676  11.274  11.560   4.993 -1.6559  0.4947 -0.7862
  909MOL0     H22677  11.715  11.348   5.084  1.7930 -1.5878 -1.1112
  909MOL0     H22678  11.943  11.365   5.166  2.0266  1.6591 -2.0097
  909MOL0     H22679  12.198  11.530   5.377 -0.0521 -1.5791  1.7830
  909MOL0     H22680  12.092  11.408   5.306 -1.6031  0.4643  1.0476
  909MOL0     H22681  12.330  11.385   5.237  1.3035 -0.3155 -2.5361
  909MOL0     H22682  12.208  11.403   5.106 -0.6186  0.9917 -0.2900
  909MOL0     H22683  12.306  11.626   5.055  0.5966  1.7144  0.3202
  909MOL0     H22684  12.388  11.632   5.210  3.6264 -2.4008  0.5900
  909MOL0     H22685  12.465  11.449   4.983 -1.8730 -0.5111  1.1973
  909MOL0     H22686  12.558  11.480   5.132 -0.5440  3.7330  2.7596
  909MOL0     H22687  12.597  11.692   5.086 -2.8249 -3.2004  2.1384
  909MOL0     H22688  12.501  11.676   4.918  0.7868 -1.4137 -2.5849
  909MOL0     H22689  12.753  11.521   4.983  1.2274 -0.1309 -0.2153
  909MOL0     H22690  12.660  11.545   4.830 -1.7748  1.3986  0.0634
  909MOL0     H22691  12.790  11.784   4.952 -0.2550  2.3259 -1.3322
  909MOL0     H22692  12.728  11.765   4.796  1.2196  1.3280  0.9768
  909MOL0     H22693  12.977  11.758   4.812  2.9435 -1.6665  2.2011
  909MOL0     H22694  12.964  11.593   4.899  0.4921 -1.0162 -0.8159
  909MOL0     H22695  11.914  11.790   5.206 -0.2303 -0.9130  4.6408
  909MOL0     H22696  11.699  11.793   5.109  1.4065  0.8677 -0.5904
  909MOL0     H22697  11.489  11.659   4.621  0.5396 -2.3144 -0.1581
  909MOL0     H22698  11.277  11.643   4.517  1.1728 -3.0393  0.1631
  909MOL0     H22699  10.008  10.784   3.149 -2.4766 -2.1639 -0.5869
  909MOL0     H22700   9.782  10.729   3.122 -2.2376  0.6093  0.6279
  909MOL0     H22701   9.407  10.838   2.995  0.3137 -0.1165  0.9212
  909MOL0     H22702   9.207  10.799   2.887  1.1803 -0.3872 -0.7170
  909MOL0     H22703   8.852  10.644   2.861 -0.0500 -1.4955  1.0151
  909MOL0     H22704   8.987  10.721   2.774  2.4976 -2.7903 -0.5947
  909MOL0     H22705   8.863  10.881   2.846 -0.4881  0.7461  0.2553
  909MOL0     H22706   8.987  10.885   2.973 -1.3130 -0.1042  1.7089
  909MOL0     H22707   8.731  10.914   3.041  0.4685 -0.4545  0.8708
  909MOL0     H22708   8.847  10.848   3.148 -1.9812 -1.1440  1.5189
  909MOL0     H22709   8.677  10.667   2.971 -2.0562  1.9800 -0.9974
  909MOL0     H22710   8.803  10.627   3.090  0.2767  1.1981 -0.1596
  909MOL0     H22711   8.501  10.736   3.361  1.3561 -0.8464  1.2290
  909MOL0     H22712   9.100  10.513   3.183  0.6520  0.0393 -2.6932
  909MOL0     H22713   9.229  10.487   3.397 -2.1438  2.7332  0.6122
  909MOL0     H22714   9.400  10.524   3.396  1.7418  2.8264  0.4032
  909MOL0     H22715   9.293  10.653   3.422  0.3516  0.8868 -1.5015
  910MOL0     O22716   7.076   9.550   4.273 -0.5420 -0.0559  0.3659
  910MOL0     C22717   7.019   9.665   4.291 -1.0086 -0.1782 -0.2992
  910MOL0     O22718   7.097   9.783   4.276  0.4517 -0.1023 -0.3261
  910MOL0     C22719   7.222   9.783   4.228 -0.7547 -0.0363 -0.0683
  910MOL0     C22720   7.254   9.723   4.101 -0.5308 -0.1738  0.3547
  910MOL0     C22721   7.388   9.741   4.050  0.7862 -0.5930  0.0263
  910MOL0     C22722   7.484   9.813   4.120  0.2100 -0.1839 -0.9826
  910MOL0     O22723   7.613   9.832   4.081 -0.4870  0.4350  0.4890
  910MOL0     C22724   7.660   9.794   3.943 -0.5953 -0.1743  0.1806
  910MOL0     C22725   7.811   9.829   3.929  0.3278 -0.2763  0.3341
  910MOL0     C22726   7.831   9.978   3.909  0.5048  1.4623 -0.2495
  910MOL0     C22727   7.986  10.009   3.881  0.7031  0.7639 -0.5071
  910MOL0     C22728   7.993  10.149   3.855  0.2822 -0.4385 -0.1509
  910MOL0     C22729   8.015  10.239   3.972  0.6555 -0.0669 -0.1584
  910MOL0     C22730   8.023  10.378   3.937  0.0331 -0.3700  0.8954
  910MOL0     C22731   8.032  10.469   4.063  0.1087 -0.0424 -0.6994
  910MOL0     N22732   8.154  10.445   4.142 -0.5242  0.3665 -0.3795
  910MOL0     C22733   8.279  10.503   4.137  0.0898 -0.3200 -0.2512
  910MOL0     C22734   8.356  10.430   4.219  0.3921 -0.4468  0.9363
  910MOL0     C22735   8.508  10.435   4.207  0.0761 -0.1111  0.6434
  910MOL0     C22736   8.575  10.575   4.169 -0.5805  0.3068  0.0706
  910MOL0     C22737   8.732  10.579   4.172  0.7071  0.9501 -0.0982
  910MOL0     C22738   8.787  10.701   4.099  1.0006  0.7082  0.3391
  910MOL0     O22739   8.724  10.725   3.973 -0.1191  0.2875  0.1556
  910MOL0     C22740   8.766  10.839   3.918 -0.7110  0.1189  0.3934
  910MOL0     C22741   8.698  10.878   3.804 -0.1195 -0.5415 -0.8285
  910MOL0     C22742   8.726  10.995   3.740  0.5884 -0.1488  0.1759
  910MOL0     C22743   8.834  11.078   3.779  0.5810  0.1392  0.3470
  910MOL0     C22744   8.856  11.206   3.704 -0.3932  0.3759  1.0239
  910MOL0     O22745   8.968  11.274   3.730 -0.4129 -0.5110  0.2628
  910MOL0     C22746   8.987  11.392   3.652 -0.1446 -0.2355 -0.0798
  910MOL0     C22747   9.117  11.423   3.606 -0.5111  0.0449  0.2738
  910MOL0     C22748   9.142  11.534   3.526 -0.1924 -0.5478 -0.3991
  910MOL0     C22749   9.039  11.628   3.505 -0.2215  0.2824  0.1151
  910MOL0     O22750   9.081  11.734   3.418 -0.6706  0.4140  1.2186
  910MOL0     C22751   9.042  11.866   3.466  0.1097  0.1407  0.2732
  910MOL0     C22752   9.117  11.982   3.396  0.1358 -0.2704  0.0441
  910MOL0     C22753   9.056  11.983   3.253  0.1130  0.7050 -0.3953
  910MOL0     C22754   9.119  12.088   3.162 -0.1697  0.3797 -0.3403
  910MOL0     C22755   9.058  12.075   3.017  0.3817  0.2922  0.8256
  910MOL0     C22756   9.146  12.153   2.917  0.1323  0.3485  0.0810
  910MOL0     C22757   9.077  12.143   2.781 -0.4337  0.1536  0.2233
  910MOL0     C22758   9.166  12.198   2.665  0.5515 -0.0399 -0.8572
  910MOL0    Cl22759   9.110  12.108   2.518  0.0802 -0.1652 -0.0875
  910MOL0     C22760   8.911  11.603   3.556  0.0045  0.1026 -0.2827
  910MOL0     C22761   8.880  11.489   3.638  0.5564  0.0588 -0.4757
  910MOL0     O22762   8.774  11.228   3.613  0.3181 -0.5663 -0.1208
  910MOL0     C22763   8.909  11.041   3.894 -0.4674 -0.0023  0.2942
  910MOL0     C22764   8.881  10.915   3.957 -0.6944 -0.8747 -0.5334
  910MOL0     N22765   8.281  10.337   4.280 -0.4199  0.3386  0.2873
  910MOL0     N22766   8.156  10.353   4.246  0.1724  0.1481  0.4032
  910MOL0     C22767   7.448   9.870   4.245  0.7923 -0.2529 -0.7506
  910MOL0     C22768   7.318   9.854   4.298  0.4611 -0.2536 -0.2696
  910MOL0     C22769   6.890   9.685   4.356  0.2839 -0.0707  1.1998
  910MOL0     C22770   6.857   9.809   4.409  0.5085 -0.2345  0.5154
  910MOL0     C22771   6.741   9.842   4.472  0.3480  0.2283  0.2975
  910MOL0     C22772   6.639   9.742   4.476 -0.3756 -0.6187 -1.2259
  910MOL0     O22773   6.530   9.785   4.552  0.3562 -1.0536 -0.1361
  910MOL0     C22774   6.433   9.680   4.595  0.0617 -0.2807 -0.1808
  910MOL0     C22775   6.320   9.767   4.653  0.3995 -0.1251  0.8489
  910MOL0     C22776   6.186   9.698   4.681  0.4842  0.2231 -0.3005
  910MOL0     C22777   6.183   9.601   4.791 -0.4264 -0.3148  0.0842
  910MOL0     C22778   6.193   9.660   4.924  0.3074  0.1186  0.9188
  910MOL0     C22779   6.211   9.711   5.032  0.3263 -0.1355 -0.7620
  910MOL0     C22780   6.666   9.618   4.421 -0.1592  0.0798 -0.2881
  910MOL0     C22781   6.793   9.584   4.357  0.2142 -0.2016 -0.3865
  910MOL0     C22782   6.804   9.451   4.288  0.4933  0.8052 -0.1224
  910MOL0     H22783   7.180   9.658   4.056 -1.5301  0.1353  1.4794
  910MOL0     H22784   7.414   9.705   3.951 -1.7944  0.2665 -1.0484
  910MOL0     H22785   7.673   9.687   3.925  1.1036  0.0021  0.1601
  910MOL0     H22786   7.605   9.845   3.864 -1.0993 -0.3841  0.3901
  910MOL0     H22787   7.851   9.781   3.839 -1.2327  1.9492 -1.6716
  910MOL0     H22788   7.871   9.797   4.016 -0.4343  1.3322  1.4927
  910MOL0     H22789   7.797  10.033   3.997 -2.2105  1.9914 -1.5289
  910MOL0     H22790   7.754  10.004   3.837 -0.0800  1.0881  0.2296
  910MOL0     H22791   8.052   9.983   3.964  1.3511  1.2818 -0.8542
  910MOL0     H22792   8.022   9.946   3.799  1.2976  0.2057  0.1657
  910MOL0     H22793   8.088  10.151   3.801  0.6974 -0.4634  0.5642
  910MOL0     H22794   7.908  10.184   3.797  0.2425  1.5047  1.0135
  910MOL0     H22795   7.937  10.231   4.048  0.7027  1.4457  0.0851
  910MOL0     H22796   8.110  10.210   4.018  0.2190 -1.8346 -0.2879
  910MOL0     H22797   7.939  10.418   3.879  0.4846  1.5347  1.4758
  910MOL0     H22798   8.121  10.396   3.892 -1.1848 -1.6118 -2.5568
  910MOL0     H22799   8.024  10.571   4.026 -0.0741 -1.6094 -5.8544
  910MOL0     H22800   7.947  10.440   4.125 -0.5736  0.3642 -1.4281
  910MOL0     H22801   8.327  10.575   4.071  1.2052  1.7734  2.5920
  910MOL0     H22802   8.544  10.384   4.297 -0.2962  0.6757  1.2520
  910MOL0     H22803   8.524  10.372   4.120  1.6372  1.6232 -0.4098
  910MOL0     H22804   8.542  10.604   4.069  2.2308  1.8976 -0.4949
  910MOL0     H22805   8.548  10.657   4.236  0.7816  0.3261  0.6163
  910MOL0     H22806   8.768  10.485   4.127 -1.7825 -0.2712  0.3069
  910MOL0     H22807   8.762  10.579   4.277  0.4074  0.6107 -0.0110
  910MOL0     H22808   8.893  10.678   4.086  1.4986  2.5350  0.7954
  910MOL0     H22809   8.775  10.786   4.167  0.6303  0.6702  0.3266
  910MOL0     H22810   8.608  10.825   3.774 -2.8479  3.5938 -0.7354
  910MOL0     H22811   8.669  11.016   3.651 -1.1923 -2.5055  0.6574
  910MOL0     H22812   9.185  11.342   3.629  2.1528  2.0664  0.0760
  910MOL0     H22813   9.238  11.561   3.482 -0.9428  2.4472 -0.4324
  910MOL0     H22814   8.933  11.877   3.455  0.0707  1.6910  1.7715
  910MOL0     H22815   9.070  11.874   3.571 -1.8235 -0.6099  0.8906
  910MOL0     H22816   9.103  12.071   3.457  0.9027  0.3921 -0.7409
  910MOL0     H22817   9.225  11.973   3.382  0.3973  1.9748  0.3437
  910MOL0     H22818   9.052  11.882   3.210 -0.5274 -0.1551  1.5785
  910MOL0     H22819   8.951  12.003   3.276  0.0698 -0.8472  0.9357
  910MOL0     H22820   9.227  12.069   3.157 -0.3368 -0.5686 -0.5515
  910MOL0     H22821   9.100  12.189   3.198  0.1294 -0.4882  2.5872
  910MOL0     H22822   8.957  12.118   3.014  1.1842  2.3977 -3.4717
  910MOL0     H22823   9.057  11.971   2.986 -0.4595  0.7555 -0.8196
  910MOL0     H22824   9.163  12.256   2.952  1.6659  1.0859 -2.5633
  910MOL0     H22825   9.246  12.108   2.908 -0.9546 -1.8254 -2.1673
  910MOL0     H22826   8.982  12.195   2.796 -0.7937  1.2352 -4.1953
  910MOL0     H22827   9.073  12.035   2.767 -1.6885  0.3947 -1.5938
  910MOL0     H22828   9.157  12.305   2.644  1.0536  0.0141 -0.8301
  910MOL0     H22829   9.271  12.172   2.686  1.5578  2.2379 -2.6121
  910MOL0     H22830   8.826  11.666   3.530  0.0484  1.4844  2.5110
  910MOL0     H22831   8.778  11.473   3.671 -0.0945  1.9593 -1.4286
  910MOL0     H22832   9.000  11.094   3.920 -0.1856  0.4726 -1.5155
  910MOL0     H22833   8.946  10.887   4.039 -1.2173 -1.1389 -0.1995
  910MOL0     H22834   7.525   9.907   4.313  1.6524  1.6952 -2.6362
  910MOL0     H22835   7.284   9.907   4.387 -2.6119  3.4979 -3.2819
  910MOL0     H22836   6.930   9.888   4.396  1.5936 -1.3745 -0.5574
  910MOL0     H22837   6.718   9.939   4.515  1.1699  0.0430  1.2134
  910MOL0     H22838   6.480   9.615   4.669 -0.3291  0.1224  0.4312
  910MOL0     H22839   6.382   9.614   4.525 -3.3349 -0.8055  2.5231
  910MOL0     H22840   6.283   9.833   4.574 -1.2077 -1.1375  0.7006
  910MOL0     H22841   6.356   9.839   4.726  0.1781  3.4541 -2.2633
  910MOL0     H22842   6.144   9.649   4.592  1.0391 -0.1084 -0.3793
  910MOL0     H22843   6.112   9.774   4.710  1.2592  1.0711 -0.4763
  910MOL0     H22844   6.089   9.548   4.771  0.8711 -2.6893  0.0110
  910MOL0     H22845   6.270   9.535   4.789 -1.8609 -2.4543  2.2083
  910MOL0     H22846   6.230   9.752   5.129 -2.7844  2.3279 -1.0471
  910MOL0     H22847   6.590   9.541   4.428  2.1953 -2.5975 -1.4979
  910MOL0     H22848   6.714   9.393   4.311  0.1906  0.2289 -2.5236
  910MOL0     H22849   6.803   9.459   4.179 -1.1723 -3.1994 -0.5851
  910MOL0     H22850   6.889   9.389   4.318  1.0014  0.2650 -2.4953
  911MOL0     O22851   3.843   2.303   1.332 -1.2420  0.2368  0.8219
  911MOL0     C22852   3.808   2.411   1.384  0.0669 -0.2322 -0.1101
  911MOL0     O22853   3.857   2.454   1.507 -0.0571  0.3382  1.1048
  911MOL0     C22854   3.972   2.399   1.558  0.1261 -0.5574  0.0007
  911MOL0     C22855   3.960   2.280   1.634  0.3386  0.2945  0.0888
  911MOL0     C22856   4.067   2.231   1.712  0.1700  0.2898 -0.7589
  911MOL0     C22857   4.183   2.304   1.709 -0.0948  0.9326 -0.7512
  911MOL0     O22858   4.280   2.252   1.790  0.4097  0.4401 -0.7680
  911MOL0     C22859   4.355   2.138   1.747  0.2150  0.1041  0.7686
  911MOL0     C22860   4.459   2.189   1.648 -0.5940  0.3684  0.8155
  911MOL0     C22861   4.562   2.272   1.725 -0.3526 -0.4980  0.3630
  911MOL0     C22862   4.705   2.247   1.679 -0.8472  0.5392 -0.1587
  911MOL0     C22863   4.823   2.324   1.748  0.5983 -1.6130  0.1289
  911MOL0     C22864   4.812   2.479   1.707 -0.8156  0.5995  0.7181
  911MOL0     C22865   4.924   2.546   1.787 -0.4641 -1.0934  0.6264
  911MOL0     C22866   4.929   2.702   1.768  1.5579  0.4981 -0.5328
  911MOL0     N22867   5.000   2.767   1.879 -0.0921 -0.0729 -0.0518
  911MOL0     C22868   5.129   2.821   1.882  1.4042  0.0858 -0.4981
  911MOL0     C22869   5.143   2.867   2.006  0.0698  0.5179  0.4636
  911MOL0     C22870   5.249   2.930   2.095 -0.1996  0.4142 -0.4235
  911MOL0     C22871   5.356   2.825   2.140 -0.1210 -0.0762 -0.2348
  911MOL0     C22872   5.456   2.796   2.017 -0.1332 -1.0560  0.3544
  911MOL0     C22873   5.552   2.684   2.042 -0.6647 -0.0323 -0.7105
  911MOL0     O22874   5.477   2.559   2.027 -0.0355  0.3139  0.6306
  911MOL0     C22875   5.547   2.447   2.019  0.0419  0.8107 -0.2949
  911MOL0     C22876   5.484   2.331   1.969 -0.4217  0.4746 -0.5801
  911MOL0     C22877   5.556   2.208   1.966 -1.9626  0.1162  0.4858
  911MOL0     C22878   5.695   2.194   1.993  0.3226 -0.0504 -0.1596
  911MOL0     C22879   5.781   2.078   1.969 -0.1456  0.5999 -0.3945
  911MOL0     O22880   5.912   2.107   1.989 -0.0585  0.3354 -0.4021
  911MOL0     C22881   6.016   2.024   1.970 -0.2331  0.7443  0.6726
  911MOL0     C22882   6.015   1.907   1.883  0.2574 -0.0456 -0.5722
  911MOL0     C22883   6.137   1.835   1.872 -0.3595 -0.2371 -0.4948
  911MOL0     C22884   6.258   1.890   1.922 -0.5040 -0.1983  0.3648
  911MOL0     O22885   6.374   1.828   1.897  0.3480 -0.1080  0.6310
  911MOL0     C22886   6.383   1.720   1.798  0.0239 -0.8815 -1.1744
  911MOL0     C22887   6.533   1.689   1.774 -0.6962  0.8600  0.2220
  911MOL0     C22888   6.536   1.554   1.705 -1.1845 -0.6343 -0.3044
  911MOL0     C22889   6.674   1.515   1.641 -0.9127 -0.6543 -0.3022
  911MOL0     C22890   6.654   1.393   1.544 -0.4343 -0.8514  0.2769
  911MOL0     C22891   6.627   1.262   1.612 -0.1118  0.2088 -0.8954
  911MOL0     C22892   6.608   1.158   1.492  0.8458  0.1213 -0.8648
  911MOL0     C22893   6.642   1.018   1.547  0.7076  0.5176 -0.8066
  911MOL0    Cl22894   6.810   0.981   1.554  0.0812 -0.5015  0.0093
  911MOL0     C22895   6.257   2.001   2.005  0.1111  0.1510 -0.3370
  911MOL0     C22896   6.138   2.069   2.018 -0.3520  0.1543  0.2451
  911MOL0     O22897   5.727   1.964   1.964  0.4741  0.0217  0.0870
  911MOL0     C22898   5.748   2.315   2.046  0.1731 -0.5441 -0.1364
  911MOL0     C22899   5.679   2.434   2.063 -0.7595  0.4775  0.2119
  911MOL0     N22900   5.020   2.867   2.063 -0.4616 -0.3990 -0.0250
  911MOL0     N22901   4.935   2.802   1.988  0.4812 -0.4893  0.0687
  911MOL0     C22902   4.203   2.416   1.635 -0.9060 -0.6076  0.3068
  911MOL0     C22903   4.095   2.468   1.556 -0.1407  0.8615  0.4280
  911MOL0     C22904   3.714   2.496   1.299 -0.3768 -0.0881 -0.2524
  911MOL0     C22905   3.666   2.430   1.181 -0.5728 -0.1887 -0.1997
  911MOL0     C22906   3.580   2.500   1.100  0.2673 -1.3216  0.0256
  911MOL0     C22907   3.526   2.624   1.134  0.6717  1.1337 -1.0505
  911MOL0     O22908   3.446   2.701   1.052 -0.3938 -0.2822  0.2492
  911MOL0     C22909   3.474   2.692   0.909 -0.0495 -0.6087  0.9626
  911MOL0     C22910   3.385   2.588   0.833 -0.2598  0.1696  0.2354
  911MOL0     C22911   3.234   2.605   0.856  0.2758  0.3026 -0.8149
  911MOL0     C22912   3.149   2.481   0.825  0.2240 -1.0416 -0.3973
  911MOL0     C22913   3.167   2.452   0.691  0.4442 -0.3416 -0.5117
  911MOL0     C22914   3.183   2.403   0.582 -0.2260  0.0338  0.2524
  911MOL0     C22915   3.569   2.685   1.250  0.0748  0.3737 -0.3235
  911MOL0     C22916   3.660   2.622   1.338  0.3763  0.9531  0.5199
  911MOL0     C22917   3.718   2.705   1.449 -0.2350 -0.4470 -0.6047
  911MOL0     H22918   3.864   2.231   1.625  0.1208  0.4939  1.1816
  911MOL0     H22919   4.064   2.140   1.773 -0.5018 -0.2470 -1.5728
  911MOL0     H22920   4.395   2.077   1.829 -1.1727  0.5179  1.7845
  911MOL0     H22921   4.280   2.074   1.700  3.2517 -3.0827 -0.1097
  911MOL0     H22922   4.410   2.237   1.563  0.1422 -1.1616 -0.5451
  911MOL0     H22923   4.508   2.100   1.608 -0.6411  1.0332 -0.7869
  911MOL0     H22924   4.548   2.249   1.831  1.4532  0.7694  0.9014
  911MOL0     H22925   4.527   2.373   1.703  0.7108 -0.4667 -1.3314
  911MOL0     H22926   4.720   2.140   1.694 -2.3360  0.3695  0.2040
  911MOL0     H22927   4.712   2.264   1.571 -1.1608  2.6186  0.1138
  911MOL0     H22928   4.824   2.314   1.856  2.2995  0.6035  0.3850
  911MOL0     H22929   4.913   2.283   1.702  1.3245  0.2991 -0.2601
  911MOL0     H22930   4.809   2.504   1.601  0.4556  2.6514  1.1090
  911MOL0     H22931   4.719   2.519   1.748 -0.9578  1.9416 -0.8018
  911MOL0     H22932   5.025   2.509   1.768  0.2790  0.5501  1.1964
  911MOL0     H22933   4.918   2.523   1.894  0.7999 -0.8381  0.7709
  911MOL0     H22934   4.972   2.733   1.673  0.1042  0.3605 -1.2503
  911MOL0     H22935   4.826   2.737   1.772  1.1358 -0.7596  0.8840
  911MOL0     H22936   5.208   2.813   1.808  1.4786 -0.7952 -0.3306
  911MOL0     H22937   5.303   3.004   2.035 -0.7533 -0.4853 -2.0919
  911MOL0     H22938   5.200   2.985   2.176 -1.4217 -0.0704 -0.7976
  911MOL0     H22939   5.413   2.852   2.230  2.1750 -3.2053 -0.5877
  911MOL0     H22940   5.296   2.738   2.169  0.6537  0.0398  1.8504
  911MOL0     H22941   5.527   2.879   2.007  1.4641 -2.2601  1.2102
  911MOL0     H22942   5.402   2.770   1.926  0.9744  1.8231 -1.2718
  911MOL0     H22943   5.614   2.690   2.132  0.0256 -0.8050 -1.1202
  911MOL0     H22944   5.630   2.681   1.965  0.1655 -1.3272  0.1508
  911MOL0     H22945   5.378   2.337   1.947 -0.7698 -1.6650  0.3105
  911MOL0     H22946   5.500   2.125   1.925  2.0030 -2.2512 -0.6331
  911MOL0     H22947   5.923   1.871   1.838  2.0113 -2.0731 -2.7972
  911MOL0     H22948   6.128   1.740   1.819 -0.4685 -1.0161  0.8737
  911MOL0     H22949   6.341   1.627   1.837  0.2491 -0.4532  0.1449
  911MOL0     H22950   6.348   1.761   1.703  1.1443  1.2963 -0.7217
  911MOL0     H22951   6.578   1.769   1.713  2.6734 -0.2384  1.0913
  911MOL0     H22952   6.593   1.680   1.864 -1.0507 -2.6722  0.2232
  911MOL0     H22953   6.509   1.475   1.775  3.0569 -0.5418  1.7239
  911MOL0     H22954   6.474   1.558   1.614  2.1990 -0.0548 -2.7856
  911MOL0     H22955   6.740   1.483   1.723 -2.1235 -2.7156 -0.0676
  911MOL0     H22956   6.723   1.598   1.589  2.0813 -1.9659  0.2594
  911MOL0     H22957   6.752   1.384   1.496  0.5202  0.3977  1.8802
  911MOL0     H22958   6.592   1.414   1.456  1.3684 -1.0263 -1.0944
  911MOL0     H22959   6.702   1.227   1.684 -1.6549 -0.0455  0.6454
  911MOL0     H22960   6.533   1.274   1.666 -0.4076 -1.2560 -1.0660
  911MOL0     H22961   6.681   1.166   1.412  1.5356 -4.2476 -0.9379
  911MOL0     H22962   6.502   1.168   1.465  1.3794 -0.5692 -3.5095
  911MOL0     H22963   6.597   1.020   1.646  1.5236 -1.4217 -0.3639
  911MOL0     H22964   6.596   0.938   1.488  2.6019 -1.2655  0.0245
  911MOL0     H22965   6.348   2.031   2.056  1.1497 -1.6649 -1.0238
  911MOL0     H22966   6.124   2.150   2.089 -2.6060 -1.9419  2.3884
  911MOL0     H22967   5.845   2.326   2.095  0.3694  0.3780 -0.7068
  911MOL0     H22968   5.742   2.513   2.104 -0.6106  0.8291 -0.6828
  911MOL0     H22969   4.301   2.459   1.651  0.6451 -3.8563  0.3695
  911MOL0     H22970   4.113   2.562   1.506  0.9015  1.3633  1.6927
  911MOL0     H22971   3.684   2.326   1.158  4.1448  0.3577  0.1046
  911MOL0     H22972   3.552   2.446   1.010 -1.4214 -2.3492  1.1098
  911MOL0     H22973   3.581   2.672   0.903 -0.1991 -0.9147 -2.3128
  911MOL0     H22974   3.474   2.797   0.876  2.5333 -0.5383  0.9776
  911MOL0     H22975   3.420   2.488   0.864 -3.5581 -1.2869 -0.3238
  911MOL0     H22976   3.414   2.589   0.728  0.3561  1.8512  0.3979
  911MOL0     H22977   3.193   2.692   0.804 -0.2480  0.5725  0.0240
  911MOL0     H22978   3.233   2.618   0.965  0.9809  1.5108 -0.9405
  911MOL0     H22979   3.176   2.404   0.898 -0.7483 -0.6843  0.3625
  911MOL0     H22980   3.050   2.517   0.855  0.5826  0.3310 -0.7958
  911MOL0     H22981   3.208   2.360   0.487  1.1792  1.6678 -0.1645
  911MOL0     H22982   3.523   2.783   1.260 -1.1324 -0.1119 -0.9289
  911MOL0     H22983   3.694   2.681   1.553 -0.0057  0.6926 -0.2729
  911MOL0     H22984   3.827   2.707   1.446 -0.1499 -2.3984 -0.3375
  911MOL0     H22985   3.682   2.807   1.435 -0.8581 -0.7681 -1.4167
  912MOL0     O22986   3.158   5.017   0.133 -0.1375  0.4538 -0.4359
  912MOL0     C22987   3.076   4.944   0.074 -0.0378 -0.6717  0.4463
  912MOL0     O22988   2.961   4.895   0.121 -0.2657  0.5441  0.3892
  912MOL0     C22989   2.930   4.906   0.260  0.2434  0.3856  0.8008
  912MOL0     C22990   2.798   4.949   0.298 -0.0419 -0.7017 -0.1646
  912MOL0     C22991   2.765   4.972   0.426  0.8020  0.9116  0.2561
  912MOL0     C22992   2.857   4.935   0.529  0.1377 -0.3530 -0.7327
  912MOL0     O22993   2.823   4.946   0.663  0.2407  0.6221  0.7790
  912MOL0     C22994   2.717   4.871   0.712 -0.2931 -0.4776 -0.1070
  912MOL0     C22995   2.765   4.785   0.834 -0.5803 -1.1347 -0.9602
  912MOL0     C22996   2.695   4.846   0.959 -0.7814  0.7455 -0.0007
  912MOL0     C22997   2.737   4.780   1.087 -0.4624 -0.6556  0.3282
  912MOL0     C22998   2.870   4.821   1.153 -0.5997  0.1389 -0.3137
  912MOL0     C22999   2.916   4.729   1.270  0.3872  0.0807  0.0956
  912MOL0     C23000   3.016   4.804   1.357  0.6413 -1.1292  0.1361
  912MOL0     C23001   3.060   4.717   1.477 -0.5580 -0.1404 -0.6104
  912MOL0     N23002   3.136   4.788   1.562 -0.7808  0.1734 -0.0981
  912MOL0     C23003   3.276   4.798   1.561  0.2290  0.8440  0.6371
  912MOL0     C23004   3.307   4.856   1.686 -0.2733 -0.5609 -0.0879
  912MOL0     C23005   3.445   4.863   1.745 -0.0155  0.6112  0.1559
  912MOL0     C23006   3.512   5.005   1.742 -0.0768  0.6222 -0.0564
  912MOL0     C23007   3.652   5.006   1.669 -0.3084 -1.0299 -0.6301
  912MOL0     C23008   3.766   4.953   1.751 -0.0648 -0.1204 -0.8567
  912MOL0     O23009   3.883   4.960   1.682 -0.1037  0.0850 -1.4173
  912MOL0     C23010   4.000   4.927   1.744 -0.3559  0.5253  0.7063
  912MOL0     C23011   4.119   4.964   1.676 -0.9089  0.2567  0.0561
  912MOL0     C23012   4.252   4.962   1.728 -0.9250 -0.0690  0.7108
  912MOL0     C23013   4.271   4.923   1.862  0.1396 -0.0519 -0.1902
  912MOL0     C23014   4.408   4.915   1.926  1.2954  0.0776 -0.3418
  912MOL0     O23015   4.406   4.852   2.048  0.5353  0.6527 -0.0399
  912MOL0     C23016   4.532   4.846   2.118 -0.3220  0.0791  0.0399
  912MOL0     C23017   4.607   4.962   2.142 -0.9927  0.2686 -0.7389
  912MOL0     C23018   4.734   4.954   2.204  0.4247  0.7593  0.3043
  912MOL0     C23019   4.790   4.829   2.242  0.2670  0.0156  0.1877
  912MOL0     O23020   4.914   4.835   2.293  0.2102  0.4402 -0.2834
  912MOL0     C23021   4.947   4.760   2.411 -0.1502 -0.6895 -0.5796
  912MOL0     C23022   5.054   4.826   2.500 -0.2770  0.2905 -0.3677
  912MOL0     C23023   5.202   4.837   2.447 -0.4789 -0.4682  0.4289
  912MOL0     C23024   5.201   4.928   2.319  0.7343  0.4213 -0.5638
  912MOL0     C23025   5.343   4.940   2.253  1.0694  0.9556 -0.0993
  912MOL0     C23026   5.416   5.047   2.341 -0.0390 -0.4719  0.2891
  912MOL0     C23027   5.545   5.107   2.277  0.1104  0.4444  0.2114
  912MOL0     C23028   5.626   5.166   2.391  0.0300  0.8907  0.3363
  912MOL0    Cl23029   5.697   5.027   2.491  0.1999 -0.2220  0.1679
  912MOL0     C23030   4.712   4.709   2.225 -0.4044 -0.2638 -0.5364
  912MOL0     C23031   4.585   4.724   2.164  0.5031  0.7097 -0.1088
  912MOL0     O23032   4.501   4.939   1.858 -0.3274 -0.1105  0.0719
  912MOL0     C23033   4.154   4.898   1.937  0.3040  0.6999  0.1694
  912MOL0     C23034   4.022   4.887   1.877 -0.8382 -0.2706  0.0277
  912MOL0     N23035   3.187   4.870   1.756 -0.4219  0.3660  0.2186
  912MOL0     N23036   3.089   4.842   1.682 -0.4978  0.0106  0.7497
  912MOL0     C23037   2.981   4.878   0.493 -0.3341  0.5219 -0.0581
  912MOL0     C23038   3.016   4.864   0.361  0.7791  0.1059 -0.3833
  912MOL0     C23039   3.094   4.919  -0.071  0.0853 -0.2128 -0.1986
  912MOL0     C23040   3.014   4.818  -0.125  0.9678  0.6899  0.5452
  912MOL0     C23041   3.032   4.778  -0.257  0.3626 -0.6120 -0.1856
  912MOL0     C23042   3.120   4.832  -0.348 -0.3907 -0.1344 -0.1180
  912MOL0     O23043   3.120   4.796  -0.480 -0.0892  0.7029  0.1979
  912MOL0     C23044   3.204   4.859  -0.581 -0.2541  0.0042 -0.7550
  912MOL0     C23045   3.180   4.778  -0.712 -0.4569 -0.5814 -0.0823
  912MOL0     C23046   3.263   4.828  -0.826  0.2618 -0.7040 -0.4710
  912MOL0     C23047   3.227   4.760  -0.955 -1.3063  0.0390 -0.0707
  912MOL0     C23048   3.301   4.819  -1.061 -0.8337  0.2427  0.3019
  912MOL0     C23049   3.360   4.893  -1.143 -0.3712  0.9538  0.0719
  912MOL0     C23050   3.205   4.924  -0.293  0.4207 -0.7300 -0.3111
  912MOL0     C23051   3.195   4.972  -0.155 -0.4745  0.1904  0.6017
  912MOL0     C23052   3.300   5.069  -0.112  0.0507 -0.1313  0.6533
  912MOL0     H23053   2.720   4.956   0.223 -0.6613 -1.3416  0.4099
  912MOL0     H23054   2.665   5.003   0.455  0.1778 -0.4656 -0.3730
  912MOL0     H23055   2.638   4.940   0.742  1.3323  0.3646  2.5567
  912MOL0     H23056   2.679   4.805   0.634  1.5759  1.0555 -2.4255
  912MOL0     H23057   2.874   4.789   0.843 -0.7733 -0.6238  3.8869
  912MOL0     H23058   2.743   4.679   0.818 -2.9560 -1.0081  0.8879
  912MOL0     H23059   2.585   4.844   0.958 -0.8828  1.0572  2.7389
  912MOL0     H23060   2.728   4.949   0.977  0.6193  0.1660  0.8101
  912MOL0     H23061   2.656   4.779   1.161  1.0382 -1.1920  2.0248
  912MOL0     H23062   2.745   4.677   1.051 -2.3227 -0.2206 -1.4799
  912MOL0     H23063   2.954   4.810   1.083 -0.3778  0.0370 -0.0335
  912MOL0     H23064   2.870   4.925   1.187  0.3678 -0.2614  1.0234
  912MOL0     H23065   2.825   4.695   1.320 -2.7603  0.5580 -4.7210
  912MOL0     H23066   2.945   4.631   1.229 -1.1617 -0.8134  1.0160
  912MOL0     H23067   2.973   4.896   1.397  0.7634 -0.4948 -1.1301
  912MOL0     H23068   3.105   4.840   1.306  0.8173  1.0259  1.8287
  912MOL0     H23069   2.974   4.677   1.531  0.1258 -0.9315 -0.0844
  912MOL0     H23070   3.120   4.632   1.443  0.0058  0.4880 -1.2264
  912MOL0     H23071   3.339   4.755   1.483 -1.7709 -0.5243 -0.3093
  912MOL0     H23072   3.441   4.844   1.853  1.4449 -0.9000  0.0092
  912MOL0     H23073   3.507   4.785   1.699  1.1567  1.5314  0.1230
  912MOL0     H23074   3.454   5.081   1.689 -1.5079  0.1882  0.8363
  912MOL0     H23075   3.515   5.039   1.846 -1.0864 -0.8175  0.4749
  912MOL0     H23076   3.660   5.114   1.654  1.3971  0.1714  5.9650
  912MOL0     H23077   3.647   4.945   1.578  2.4668 -1.0529 -0.8648
  912MOL0     H23078   3.749   4.852   1.790  3.6566 -0.9606 -1.0238
  912MOL0     H23079   3.776   5.003   1.848  0.6415  0.4620 -1.2176
  912MOL0     H23080   4.106   5.009   1.578 -0.4195  2.9915  1.1694
  912MOL0     H23081   4.342   4.996   1.677 -0.7455 -2.0662 -0.4277
  912MOL0     H23082   4.573   5.061   2.113  1.6942  1.4760 -0.1404
  912MOL0     H23083   4.793   5.045   2.205  0.5898  0.7064 -1.2467
  912MOL0     H23084   4.861   4.756   2.480 -1.6295 -0.1712 -2.3165
  912MOL0     H23085   4.985   4.665   2.374  0.0066  0.2829 -3.1026
  912MOL0     H23086   5.032   4.932   2.514  3.4369  1.2030 -0.4529
  912MOL0     H23087   5.053   4.776   2.597  3.6751  0.9940  0.1936
  912MOL0     H23088   5.273   4.883   2.517  2.4643 -2.0784 -1.2917
  912MOL0     H23089   5.236   4.736   2.423  4.1103  0.7831  0.6723
  912MOL0     H23090   5.150   5.022   2.341  0.7728  0.8117 -1.9906
  912MOL0     H23091   5.146   4.871   2.243  2.1492 -2.0374  0.1369
  912MOL0     H23092   5.336   4.981   2.152 -1.1361 -1.1904 -0.9091
  912MOL0     H23093   5.381   4.838   2.240  0.4888  0.6715  0.3901
  912MOL0     H23094   5.354   5.135   2.359  1.0656  1.2041 -3.2778
  912MOL0     H23095   5.427   5.003   2.441 -2.9506  2.1634  1.9533
  912MOL0     H23096   5.514   5.167   2.191 -0.3835 -0.9301 -0.6178
  912MOL0     H23097   5.608   5.030   2.232  0.0523 -1.2863  2.8692
  912MOL0     H23098   5.709   5.227   2.356  0.4854 -1.2580 -2.7480
  912MOL0     H23099   5.563   5.222   2.461  0.8399  0.8004  1.1621
  912MOL0     H23100   4.753   4.618   2.269 -1.0497  0.5355  1.8421
  912MOL0     H23101   4.524   4.634   2.159  1.3241  0.0856  0.8127
  912MOL0     H23102   4.163   4.865   2.040  0.5716 -2.9658 -0.8726
  912MOL0     H23103   3.933   4.866   1.935  0.1144 -3.4129  0.5148
  912MOL0     H23104   3.048   4.844   0.572 -1.4591 -3.0912 -0.4692
  912MOL0     H23105   3.105   4.819   0.319 -1.0435 -0.4448 -4.1140
  912MOL0     H23106   2.939   4.760  -0.071  2.5087 -0.1336  1.9135
  912MOL0     H23107   2.959   4.712  -0.302 -0.4367  0.1289  0.0159
  912MOL0     H23108   3.307   4.849  -0.545 -0.8645  0.3162  1.2316
  912MOL0     H23109   3.183   4.965  -0.599  0.7740  0.9347  2.7048
  912MOL0     H23110   3.075   4.792  -0.741 -0.3620 -2.0491 -1.2792
  912MOL0     H23111   3.200   4.673  -0.689  2.4872 -0.0072  0.4394
  912MOL0     H23112   3.370   4.807  -0.812  0.6305  0.7371 -0.9082
  912MOL0     H23113   3.250   4.937  -0.822 -0.6473 -0.7668 -1.4394
  912MOL0     H23114   3.254   4.654  -0.952 -2.7290 -0.3137  1.7828
  912MOL0     H23115   3.121   4.758  -0.980 -1.1587  0.9377 -0.8132
  912MOL0     H23116   3.417   4.950  -1.213  0.8308 -1.4494 -0.9951
  912MOL0     H23117   3.275   4.973  -0.360 -0.4127 -1.1230 -1.4954
  912MOL0     H23118   3.271   5.158  -0.055 -4.6004 -0.5504 -0.6482
  912MOL0     H23119   3.369   5.023  -0.041  3.3041  0.4223 -1.9103
  912MOL0     H23120   3.355   5.091  -0.204 -0.5497 -3.5317 -0.6732
  913MOL0     O23121   8.620   6.060   0.873  0.4280  1.0242  1.0976
  913MOL0     C23122   8.612   6.180   0.867 -0.2931  0.0667 -0.3536
  913MOL0     O23123   8.712   6.266   0.811  0.6410  0.0533 -0.2023
  913MOL0     C23124   8.824   6.205   0.783 -1.0620  1.0847 -0.0994
  913MOL0     C23125   8.883   6.218   0.657 -1.1241  0.4547  0.4653
  913MOL0     C23126   9.008   6.151   0.641  0.7560 -0.1234  0.2646
  913MOL0     C23127   9.075   6.076   0.734  0.6441  0.1437 -0.2619
  913MOL0     O23128   9.185   5.999   0.722  0.5066 -0.5123 -0.4515
  913MOL0     C23129   9.284   6.037   0.619 -0.3776  0.1036 -0.3095
  913MOL0     C23130   9.426   6.001   0.679  0.5443 -0.5337  0.9528
  913MOL0     C23131   9.498   6.113   0.765 -0.6882  0.0198  1.4765
  913MOL0     C23132   9.408   6.163   0.876 -1.0528 -0.2366 -0.2808
  913MOL0     C23133   9.487   6.231   0.979  0.2315 -0.4054  0.0249
  913MOL0     C23134   9.390   6.298   1.081  0.6673  0.1719 -0.2814
  913MOL0     C23135   9.472   6.397   1.175 -0.5277  0.2181 -0.6889
  913MOL0     C23136   9.560   6.313   1.283 -0.0455  0.5909 -0.0810
  913MOL0     N23137   9.636   6.415   1.360 -0.2679  1.4334  0.0339
  913MOL0     C23138   9.773   6.443   1.362 -0.4431  1.0193 -0.0949
  913MOL0     C23139   9.790   6.545   1.452 -0.3314 -0.3321  0.1199
  913MOL0     C23140   9.918   6.614   1.498  0.2647  0.3973 -0.2136
  913MOL0     C23141   9.927   6.610   1.651 -0.7007  0.0887  0.4981
  913MOL0     C23142   9.922   6.473   1.721  0.7342 -0.3612 -0.8475
  913MOL0     C23143  10.041   6.377   1.686  0.7530 -0.8103  0.0239
  913MOL0     O23144  10.164   6.449   1.687  0.1975 -0.5553  0.8378
  913MOL0     C23145  10.274   6.374   1.712  0.8399  0.3954 -0.0347
  913MOL0     C23146  10.391   6.436   1.756  0.3641 -0.1089 -0.0773
  913MOL0     C23147  10.502   6.373   1.807  0.0540 -0.3237  0.5583
  913MOL0     C23148  10.505   6.235   1.818 -0.1900  0.6810 -0.3985
  913MOL0     C23149  10.619   6.157   1.886 -0.2172  0.5029  0.0274
  913MOL0     O23150  10.637   6.030   1.852  0.5354 -0.0110 -0.2101
  913MOL0     C23151  10.698   5.935   1.937  0.1993  0.1233 -0.2816
  913MOL0     C23152  10.633   5.811   1.975 -0.1463 -0.4889  0.3889
  913MOL0     C23153  10.696   5.728   2.064 -0.7386 -0.0048  0.0913
  913MOL0     C23154  10.819   5.752   2.122  0.6385  0.2008 -0.5131
  913MOL0     O23155  10.867   5.673   2.222 -0.5405 -0.3619  0.1798
  913MOL0     C23156  11.013   5.651   2.221 -0.8607  0.4762  0.1458
  913MOL0     C23157  11.074   5.590   2.090  0.4745 -0.1646 -0.3696
  913MOL0     C23158  11.005   5.467   2.023 -0.5205 -0.5268 -1.0784
  913MOL0     C23159  11.069   5.401   1.905 -0.2463  0.3964  0.3830
  913MOL0     C23160  11.097   5.495   1.792 -0.4595 -0.0035 -0.3765
  913MOL0     C23161  10.988   5.587   1.735  0.3075  0.5461 -1.1818
  913MOL0     C23162  10.860   5.512   1.693 -0.8639  0.5002 -0.9975
  913MOL0     C23163  10.742   5.617   1.661  1.2756  0.3464 -0.2059
  913MOL0    Cl23164  10.594   5.575   1.757 -0.2617  0.1885 -0.5924
  913MOL0     C23165  10.880   5.872   2.093 -0.4741 -0.3737  0.2759
  913MOL0     C23166  10.822   5.959   2.004  0.1784  0.2527 -0.1969
  913MOL0     O23167  10.672   6.207   1.990  0.0662 -0.1890  0.2571
  913MOL0     C23168  10.401   6.157   1.767  0.2156 -0.4247 -0.2338
  913MOL0     C23169  10.291   6.229   1.717 -1.6068  0.8304  0.2731
  913MOL0     N23170   9.663   6.579   1.494 -0.0047  1.4504 -0.1564
  913MOL0     N23171   9.575   6.506   1.440 -0.1670 -0.8015 -0.2203
  913MOL0     C23172   9.013   6.073   0.858 -0.7849  0.6632 -0.4307
  913MOL0     C23173   8.891   6.136   0.887  0.3936 -0.4170  0.6301
  913MOL0     C23174   8.512   6.249   0.937  0.6729  0.0893  0.3584
  913MOL0     C23175   8.385   6.210   0.898 -0.4036 -0.2538 -0.3937
  913MOL0     C23176   8.282   6.262   0.970  0.6377  0.6276  0.4570
  913MOL0     C23177   8.292   6.352   1.068  0.5036  0.4025 -0.2796
  913MOL0     O23178   8.176   6.381   1.139 -0.4519 -1.0088 -0.1523
  913MOL0     C23179   8.108   6.496   1.073  0.2231  0.8706  0.2620
  913MOL0     C23180   8.012   6.563   1.176  0.6120 -0.3436 -0.9378
  913MOL0     C23181   8.079   6.658   1.275  0.7304  1.1783  0.0983
  913MOL0     C23182   8.174   6.592   1.376 -0.6300  0.0542 -0.1107
  913MOL0     C23183   8.207   6.700   1.473  1.3018 -0.1418 -0.7196
  913MOL0     C23184   8.213   6.801   1.549  0.9571 -0.0466  0.6818
  913MOL0     C23185   8.418   6.398   1.103  0.2732 -0.4498 -0.1609
  913MOL0     C23186   8.529   6.348   1.026 -0.0951  0.6430 -0.5120
  913MOL0     C23187   8.672   6.391   1.052 -0.3430  0.3082 -0.4095
  913MOL0     H23188   8.835   6.289   0.589 -0.4379  0.0703 -0.4426
  913MOL0     H23189   9.059   6.176   0.548  0.4704  1.8838  0.5843
  913MOL0     H23190   9.258   5.984   0.527 -0.5522  1.8849 -1.3238
  913MOL0     H23191   9.296   6.145   0.608 -1.2463  0.6838  3.1839
  913MOL0     H23192   9.492   5.967   0.598 -0.5323  2.9412 -1.6239
  913MOL0     H23193   9.420   5.907   0.735  1.0694 -1.9187 -1.2039
  913MOL0     H23194   9.517   6.198   0.698 -1.0038 -1.6865 -0.9277
  913MOL0     H23195   9.591   6.066   0.798 -0.1106  0.4244  0.4702
  913MOL0     H23196   9.334   6.229   0.830 -1.9919 -0.8750  0.2651
  913MOL0     H23197   9.369   6.073   0.924  2.7710 -1.1999  1.4060
  913MOL0     H23198   9.551   6.164   1.036  1.9648  1.8671  0.8765
  913MOL0     H23199   9.561   6.298   0.935 -1.0361  0.1667 -1.3674
  913MOL0     H23200   9.319   6.357   1.022 -0.6348 -0.8621  0.2148
  913MOL0     H23201   9.335   6.224   1.140  0.8232 -1.4276 -2.0609
  913MOL0     H23202   9.403   6.460   1.233  1.9692  4.6598 -2.0810
  913MOL0     H23203   9.538   6.465   1.121  0.7879 -2.1270 -2.1959
  913MOL0     H23204   9.495   6.267   1.358  2.7507 -1.7053  1.1157
  913MOL0     H23205   9.635   6.241   1.249  1.7465  1.9284  0.8488
  913MOL0     H23206   9.853   6.396   1.305 -1.7751 -1.5008 -0.0347
  913MOL0     H23207  10.006   6.564   1.457  1.2279  1.6898  0.2122
  913MOL0     H23208   9.924   6.720   1.472 -0.8883  1.2760  2.6527
  913MOL0     H23209  10.014   6.671   1.678 -0.0468  1.2600 -3.5593
  913MOL0     H23210   9.841   6.670   1.683  1.6420  2.9953  1.8409
  913MOL0     H23211   9.841   6.400   1.715  0.7745 -0.3008 -3.0986
  913MOL0     H23212   9.928   6.487   1.829  0.9082 -0.7188 -0.8106
  913MOL0     H23213  10.030   6.325   1.591  0.2675 -2.4767  0.9650
  913MOL0     H23214  10.048   6.311   1.773 -0.0096 -1.3872 -0.3509
  913MOL0     H23215  10.386   6.544   1.741 -1.7929 -0.2630 -0.8040
  913MOL0     H23216  10.582   6.442   1.835  0.2961 -0.7337  0.8885
  913MOL0     H23217  10.533   5.797   1.937 -0.2423  2.8411 -0.9002
  913MOL0     H23218  10.635   5.649   2.107 -1.8206  0.9842  0.4302
  913MOL0     H23219  11.063   5.741   2.257  0.6180 -0.7208  1.1752
  913MOL0     H23220  11.038   5.573   2.293  1.2061 -1.0131 -2.0066
  913MOL0     H23221  11.067   5.666   2.011 -1.6110 -2.5796 -2.6908
  913MOL0     H23222  11.175   5.559   2.116 -0.1214 -0.5071  1.7201
  913MOL0     H23223  11.014   5.402   2.111  1.3417  0.7829 -0.2250
  913MOL0     H23224  10.898   5.484   2.021 -0.4664  0.4044  0.9960
  913MOL0     H23225  10.998   5.325   1.871 -2.2715  3.1321 -2.0558
  913MOL0     H23226  11.166   5.361   1.936  0.4024  0.6585 -1.1867
  913MOL0     H23227  11.149   5.447   1.709  1.5592 -0.3717  1.0208
  913MOL0     H23228  11.173   5.564   1.832  0.2833  0.1983 -2.0623
  913MOL0     H23229  10.960   5.658   1.813 -2.7709 -1.2074 -0.5156
  913MOL0     H23230  11.042   5.640   1.656  0.3165  0.3840 -1.2846
  913MOL0     H23231  10.821   5.450   1.774 -2.4990  1.5260 -0.9539
  913MOL0     H23232  10.871   5.450   1.603 -1.2848  1.4782 -1.7436
  913MOL0     H23233  10.775   5.715   1.698  2.0032  0.3000 -0.7251
  913MOL0     H23234  10.710   5.613   1.557 -1.8187 -1.9122  0.6775
  913MOL0     H23235  10.967   5.912   2.146  0.7461  0.3733 -2.1549
  913MOL0     H23236  10.875   6.043   1.960  1.9017 -0.6319  0.0951
  913MOL0     H23237  10.416   6.051   1.748  0.5466 -0.0845 -2.0319
  913MOL0     H23238  10.209   6.176   1.669 -1.0840  0.0265  0.2476
  913MOL0     H23239   9.060   6.019   0.940 -1.6885  1.8338  0.9128
  913MOL0     H23240   8.835   6.127   0.980 -0.4927 -0.8595  0.0702
  913MOL0     H23241   8.365   6.124   0.835 -0.4636 -0.5767  0.0629
  913MOL0     H23242   8.186   6.216   0.952  0.2912  0.7421  1.9192
  913MOL0     H23243   8.048   6.462   0.988 -2.9591 -1.8161  3.2965
  913MOL0     H23244   8.183   6.566   1.035  2.1396 -1.6280 -0.8417
  913MOL0     H23245   7.956   6.487   1.231 -2.2923  0.9093 -1.9634
  913MOL0     H23246   7.939   6.618   1.116 -1.0363 -0.7516  0.5821
  913MOL0     H23247   7.996   6.705   1.328 -0.8096 -0.4842 -0.7220
  913MOL0     H23248   8.135   6.736   1.223  1.9378  1.3648  1.6131
  913MOL0     H23249   8.134   6.503   1.427  0.1873 -0.2521  0.0175
  913MOL0     H23250   8.266   6.551   1.334  0.1211 -1.4299  2.7266
  913MOL0     H23251   8.225   6.872   1.629  4.3859 -0.7158  0.9111
  913MOL0     H23252   8.425   6.466   1.188  3.3800 -2.1309  1.0685
  913MOL0     H23253   8.677   6.471   1.127  1.3362  1.2393 -1.4685
  913MOL0     H23254   8.736   6.311   1.091  1.0078  2.5853  2.4514
  913MOL0     H23255   8.712   6.439   0.963 -0.9240  2.8642  0.5950
  914MOL0     O23256   3.421  10.447   2.045  0.0728 -0.5190 -0.0913
  914MOL0     C23257   3.457  10.374   1.950 -0.8035 -1.0633 -0.5684
  914MOL0     O23258   3.370  10.304   1.885 -0.5262 -0.6032 -0.4090
  914MOL0     C23259   3.234  10.302   1.905  0.5640  0.0554  0.4464
  914MOL0     C23260   3.147  10.367   1.996 -0.2426  0.5170 -0.3389
  914MOL0     C23261   3.010  10.349   1.986 -0.4237 -0.4708  0.0736
  914MOL0     C23262   2.951  10.276   1.881 -0.1953 -0.5200  0.5993
  914MOL0     O23263   2.820  10.261   1.844 -0.4100 -0.3998 -0.2232
  914MOL0     C23264   2.714  10.292   1.931 -0.5457 -0.1785 -0.2230
  914MOL0     C23265   2.596  10.318   1.833 -0.2298  0.5460 -0.3193
  914MOL0     C23266   2.472  10.368   1.914  0.2952 -0.3560  0.2219
  914MOL0     C23267   2.354  10.366   1.819 -0.5793  0.4299 -0.0000
  914MOL0     C23268   2.231  10.422   1.884  0.1174 -1.2994 -0.8802
  914MOL0     C23269   2.239  10.576   1.906  1.2104  0.9879  0.7347
  914MOL0     C23270   2.104  10.616   1.956  1.0511  0.3684  0.5251
  914MOL0     C23271   2.014  10.673   1.836 -0.0540 -0.0371  0.0927
  914MOL0     N23272   1.872  10.637   1.840 -0.0248  0.9885  0.5828
  914MOL0     C23273   1.793  10.655   1.944  0.4238  0.2585 -0.2945
  914MOL0     C23274   1.677  10.587   1.922  0.5154  0.4327 -0.1845
  914MOL0     C23275   1.567  10.567   2.022  0.5769  0.0871 -0.2257
  914MOL0     C23276   1.434  10.573   1.948 -0.0615 -0.0497  0.1407
  914MOL0     C23277   1.321  10.547   2.043 -0.1651 -0.3693  0.4568
  914MOL0     C23278   1.189  10.566   1.976  0.2819  0.0723 -0.8128
  914MOL0     O23279   1.150  10.706   1.993 -0.1694 -0.4473 -0.2245
  914MOL0     C23280   1.025  10.751   2.041  0.1185  0.5507 -0.8816
  914MOL0     C23281   1.016  10.881   2.081  0.3649  0.0419  0.2160
  914MOL0     C23282   0.891  10.937   2.121  0.0461  0.3051 -0.4599
  914MOL0     C23283   0.784  10.857   2.145 -0.2921 -0.4152  0.1271
  914MOL0     C23284   0.651  10.913   2.180 -0.6483  0.0043 -0.1767
  914MOL0     O23285   0.551  10.825   2.225 -0.5058  0.3890 -0.5907
  914MOL0     C23286   0.419  10.874   2.239  0.0936  0.8698 -0.2814
  914MOL0     C23287   0.381  10.946   2.354  0.6483 -0.1383  0.3140
  914MOL0     C23288   0.247  10.980   2.374  0.7228 -0.6191  0.2714
  914MOL0     C23289   0.149  10.940   2.282  0.2350  0.5265 -0.8834
  914MOL0     O23290   0.019  10.978   2.297 -0.0193 -0.8963 -0.0678
  914MOL0     C23291  -0.079  10.932   2.206 -1.4270  0.7935 -0.1120
  914MOL0     C23292  -0.206  10.998   2.269  0.1644 -0.2912 -0.4180
  914MOL0     C23293  -0.323  10.947   2.176  0.0228  0.5953  0.9407
  914MOL0     C23294  -0.470  10.985   2.214 -0.3581 -0.0590  1.1328
  914MOL0     C23295  -0.573  10.892   2.137 -0.4875 -0.9555  0.3411
  914MOL0     C23296  -0.718  10.955   2.141 -0.2307  0.5450  0.6803
  914MOL0     C23297  -0.827  10.853   2.096  0.0180 -0.3307 -0.4292
  914MOL0     C23298  -0.813  10.794   1.955 -0.8597  0.0456 -0.1935
  914MOL0    Cl23299  -0.953  10.677   1.940  0.1078 -0.1567 -0.2893
  914MOL0     C23300   0.185  10.841   2.184  0.5514 -0.3525  0.8022
  914MOL0     C23301   0.319  10.815   2.166 -0.2265  0.2134  1.1133
  914MOL0     O23302   0.640  11.036   2.189  0.2215 -0.3521 -0.3176
  914MOL0     C23303   0.796  10.722   2.116 -0.2985 -0.1402 -0.6291
  914MOL0     C23304   0.914  10.672   2.066  0.5448 -0.5821  0.6540
  914MOL0     N23305   1.699  10.493   1.819 -0.1581  0.1254  0.2841
  914MOL0     N23306   1.815  10.516   1.777  0.5831 -0.9388 -0.4211
  914MOL0     C23307   3.041  10.205   1.786 -0.3822  0.2831 -0.9847
  914MOL0     C23308   3.178  10.222   1.798 -0.0230  0.6177 -0.0680
  914MOL0     C23309   3.609  10.359   1.924 -0.0949 -0.0341  0.5872
  914MOL0     C23310   3.708  10.417   2.009 -0.0597  0.3012 -0.0970
  914MOL0     C23311   3.846  10.433   1.978 -0.3455  0.3418 -0.6328
  914MOL0     C23312   3.896  10.363   1.872 -0.5732  0.1478  0.4218
  914MOL0     O23313   4.030  10.346   1.841 -0.6150 -0.4251  0.5465
  914MOL0     C23314   4.130  10.323   1.952 -0.4357  0.5036  0.1330
  914MOL0     C23315   4.120  10.189   2.026  0.3321  0.3630 -1.0690
  914MOL0     C23316   4.112  10.060   1.933 -0.3793  0.3481 -0.1071
  914MOL0     C23317   4.042   9.938   1.995  1.2023 -0.0357 -0.5282
  914MOL0     C23318   4.069   9.818   1.920 -0.8179 -0.1722 -0.1140
  914MOL0     C23319   4.098   9.714   1.867  0.8768 -0.2346 -0.0539
  914MOL0     C23320   3.806  10.302   1.785 -0.2174  1.0583 -0.3661
  914MOL0     C23321   3.661  10.300   1.807 -0.6557  0.7011 -1.3695
  914MOL0     C23322   3.585  10.252   1.696  0.4990 -0.6525  0.3709
  914MOL0     H23323   3.186  10.439   2.068 -0.4290 -2.2760  2.8041
  914MOL0     H23324   2.960  10.398   2.070 -0.6383 -0.6050  0.0254
  914MOL0     H23325   2.697  10.204   1.993  3.2261 -1.3463 -0.5495
  914MOL0     H23326   2.735  10.375   1.999 -0.2045 -0.7835  0.4318
  914MOL0     H23327   2.565  10.228   1.781 -2.2462  0.3914  1.0133
  914MOL0     H23328   2.626  10.390   1.756 -0.0918  1.6512  0.7369
  914MOL0     H23329   2.486  10.471   1.950 -0.5139  0.0582 -0.5858
  914MOL0     H23330   2.447  10.302   1.997  1.0887  1.5480  2.0596
  914MOL0     H23331   2.366  10.428   1.730  0.2628 -1.3892 -1.2258
  914MOL0     H23332   2.338  10.261   1.792  1.8189  0.1205 -0.4699
  914MOL0     H23333   2.150  10.412   1.811 -2.0624  4.0891  0.3261
  914MOL0     H23334   2.199  10.370   1.975  1.6683 -0.7865 -0.0068
  914MOL0     H23335   2.311  10.597   1.985 -1.2517 -1.3522  3.8243
  914MOL0     H23336   2.265  10.636   1.818 -3.0905  0.2471 -1.3138
  914MOL0     H23337   2.119  10.699   2.026  6.3532  0.7085 -0.6372
  914MOL0     H23338   2.043  10.533   1.992  1.2722  0.9141  2.2507
  914MOL0     H23339   2.020  10.782   1.836  0.1058 -0.0295 -1.2423
  914MOL0     H23340   2.051  10.632   1.742 -0.1689 -1.2851  0.5668
  914MOL0     H23341   1.814  10.709   2.036 -0.5769 -0.5289  0.4207
  914MOL0     H23342   1.580  10.472   2.075 -0.3279 -1.1655 -2.1285
  914MOL0     H23343   1.575  10.652   2.091 -0.6335 -0.0156  0.0701
  914MOL0     H23344   1.427  10.669   1.897 -1.2796 -0.1822  0.0161
  914MOL0     H23345   1.429  10.502   1.865 -0.3496  0.5299 -0.3455
  914MOL0     H23346   1.316  10.611   2.131 -0.7116  1.0619 -0.5652
  914MOL0     H23347   1.315  10.442   2.072 -3.7930 -0.8253 -1.3267
  914MOL0     H23348   1.121  10.497   2.027  2.1974 -0.6347  0.9124
  914MOL0     H23349   1.170  10.536   1.872  0.7006 -0.3217 -0.7770
  914MOL0     H23350   1.106  10.942   2.084 -0.0866  0.6917  0.9075
  914MOL0     H23351   0.897  11.039   2.157  1.0712 -0.5015  1.8326
  914MOL0     H23352   0.451  10.965   2.435 -0.9389 -0.5662  1.8669
  914MOL0     H23353   0.231  11.051   2.454  2.0216  0.0065  0.0044
  914MOL0     H23354  -0.050  10.965   2.106  0.0698  2.4578  0.8019
  914MOL0     H23355  -0.092  10.824   2.211  1.6577  0.1526 -2.6920
  914MOL0     H23356  -0.215  10.966   2.373  2.3545 -0.4683 -0.2486
  914MOL0     H23357  -0.200  11.107   2.261 -1.3658 -0.2345 -1.2929
  914MOL0     H23358  -0.313  10.965   2.069 -2.3287 -1.3251  0.3006
  914MOL0     H23359  -0.313  10.838   2.182 -3.3860  0.0682 -0.5095
  914MOL0     H23360  -0.499  11.085   2.179 -2.4676 -1.4984 -1.6261
  914MOL0     H23361  -0.477  10.987   2.323  4.1358 -2.6108  1.6743
  914MOL0     H23362  -0.566  10.798   2.193 -0.8526  1.4634  4.9562
  914MOL0     H23363  -0.540  10.888   2.033  2.0531  1.5221  0.9416
  914MOL0     H23364  -0.740  10.994   2.241 -0.7571  0.1474  0.7251
  914MOL0     H23365  -0.713  11.032   2.063 -0.9824 -1.0269 -0.9982
  914MOL0     H23366  -0.929  10.893   2.099 -0.4216 -1.0267 -3.4156
  914MOL0     H23367  -0.817  10.773   2.170  2.2513  0.4328  0.1588
  914MOL0     H23368  -0.816  10.870   1.876  1.7752 -1.1252 -1.5474
  914MOL0     H23369  -0.717  10.741   1.947 -1.4678 -1.3398  1.2304
  914MOL0     H23370   0.117  10.798   2.111  2.8911 -3.3429  0.1805
  914MOL0     H23371   0.347  10.745   2.088  1.0044  2.8451 -0.9602
  914MOL0     H23372   0.723  10.642   2.125  1.7178 -2.0366 -0.3013
  914MOL0     H23373   0.920  10.563   2.069 -1.0417 -0.6908  0.7017
  914MOL0     H23374   2.999  10.136   1.714 -2.6549 -0.9774  1.3724
  914MOL0     H23375   3.242  10.161   1.735 -3.7823 -4.9347  0.6792
  914MOL0     H23376   3.687  10.466   2.103 -0.9537 -3.4152  1.8315
  914MOL0     H23377   3.913  10.491   2.041 -2.3734  0.3255  1.7019
  914MOL0     H23378   4.130  10.403   2.027 -0.0563 -1.8400  2.7677
  914MOL0     H23379   4.232  10.310   1.915 -0.0508 -4.0082  2.2017
  914MOL0     H23380   4.029  10.192   2.087  0.2210  0.7979 -1.2532
  914MOL0     H23381   4.202  10.176   2.098 -1.4041  0.3382  1.0252
  914MOL0     H23382   4.215  10.026   1.920  0.0536  0.6793  2.0354
  914MOL0     H23383   4.064  10.089   1.840  0.2325 -1.8266 -1.1553
  914MOL0     H23384   4.090   9.942   2.093  1.4046  0.4368 -0.6474
  914MOL0     H23385   3.936   9.962   2.009  1.7718  2.1467  0.2988
  914MOL0     H23386   4.105   9.624   1.809 -0.5292 -0.7025  0.4411
  914MOL0     H23387   3.847  10.251   1.698  0.0704 -3.6563  2.1960
  914MOL0     H23388   3.525  10.166   1.724 -3.2480  2.0289  1.3380
  914MOL0     H23389   3.514  10.330   1.665  1.4799  1.9802  4.0507
  914MOL0     H23390   3.641  10.238   1.603  0.2740 -1.5316  0.3628
  915MOL0     O23391   1.218   7.704   3.510 -0.2385  0.6835 -0.2732
  915MOL0     C23392   1.294   7.801   3.528 -0.7668 -0.3975 -0.4117
  915MOL0     O23393   1.256   7.929   3.546 -0.0750 -1.0281 -0.1237
  915MOL0     C23394   1.131   7.971   3.520  0.9640 -0.7374  0.5436
  915MOL0     C23395   1.073   8.084   3.585 -0.3444  0.1983  0.0691
  915MOL0     C23396   0.947   8.135   3.562 -0.5804  0.1075  0.0000
  915MOL0     C23397   0.870   8.062   3.469  0.9602 -0.4508 -0.4007
  915MOL0     O23398   0.742   8.104   3.447 -0.8524 -0.1429  0.0649
  915MOL0     C23399   0.727   8.242   3.399 -0.0938 -0.4243 -0.6404
  915MOL0     C23400   0.587   8.287   3.413  0.2799 -0.1385 -0.0518
  915MOL0     C23401   0.551   8.367   3.533 -0.6424  0.2905  0.7165
  915MOL0     C23402   0.510   8.270   3.649 -0.6143 -0.5705 -0.3190
  915MOL0     C23403   0.412   8.336   3.755 -0.5513 -0.5483 -0.2941
  915MOL0     C23404   0.334   8.235   3.831 -0.1880 -0.0605 -0.6711
  915MOL0     C23405   0.193   8.212   3.769 -0.7879 -0.1547 -0.0719
  915MOL0     C23406   0.117   8.109   3.853 -0.0667  0.6154  0.2903
  915MOL0     N23407   0.025   8.032   3.765  1.0519 -0.5002 -0.3622
  915MOL0     C23408  -0.085   8.084   3.691  0.4640 -0.1916 -0.7590
  915MOL0     C23409  -0.107   7.997   3.591 -0.3938  0.4581  0.6184
  915MOL0     C23410  -0.210   8.020   3.480 -0.9066  0.2069  0.0707
  915MOL0     C23411  -0.212   7.910   3.378  0.5104 -1.2268  0.5944
  915MOL0     C23412  -0.318   7.936   3.268  0.1910  0.3950 -0.8436
  915MOL0     C23413  -0.323   8.066   3.185  0.5753 -0.5545  0.5709
  915MOL0     O23414  -0.458   8.078   3.128 -0.6647  0.1342 -0.0977
  915MOL0     C23415  -0.505   8.191   3.076  0.4938  0.7580 -0.9148
  915MOL0     C23416  -0.419   8.304   3.062  0.1714 -0.6463  0.5364
  915MOL0     C23417  -0.470   8.429   3.025  0.5004 -0.1715  0.3520
  915MOL0     C23418  -0.610   8.429   2.992  0.4005 -0.2742 -0.7221
  915MOL0     C23419  -0.675   8.553   2.947 -0.8524 -0.5693  0.0848
  915MOL0     O23420  -0.807   8.548   2.912 -0.1419 -0.2142  0.3104
  915MOL0     C23421  -0.876   8.661   2.878 -0.1675  0.2821 -0.2044
  915MOL0     C23422  -0.819   8.748   2.779  0.2377  0.0708  0.0935
  915MOL0     C23423  -0.890   8.865   2.761  0.9016 -0.1742  0.6013
  915MOL0     C23424  -1.022   8.893   2.810 -0.4500  0.8876  0.3614
  915MOL0     O23425  -1.079   9.007   2.761  0.1571 -0.1333 -0.1983
  915MOL0     C23426  -1.130   8.981   2.630  0.1789  0.1424  0.2360
  915MOL0     C23427  -1.204   9.095   2.570 -0.3074  0.7829  0.7238
  915MOL0     C23428  -1.101   9.197   2.500 -0.6148  0.2935 -1.5690
  915MOL0     C23429  -1.156   9.342   2.489  0.4294 -0.0428 -0.3596
  915MOL0     C23430  -1.149   9.421   2.627  0.4104  0.2857  0.7352
  915MOL0     C23431  -1.257   9.527   2.595 -0.1210 -0.6392 -0.2550
  915MOL0     C23432  -1.251   9.637   2.710  0.3338  0.6977 -1.1305
  915MOL0     C23433  -1.113   9.705   2.704 -1.3188  0.3293  0.6125
  915MOL0    Cl23434  -1.117   9.852   2.810 -0.4294  0.5257 -0.1993
  915MOL0     C23435  -1.079   8.801   2.895 -0.1085  0.8102 -0.1213
  915MOL0     C23436  -1.004   8.681   2.928  1.1811 -0.1388 -0.6997
  915MOL0     O23437  -0.612   8.654   2.953  0.1005 -0.3942 -0.2092
  915MOL0     C23438  -0.694   8.313   2.994 -0.3529  0.0051  1.2807
  915MOL0     C23439  -0.638   8.195   3.032 -0.2015  0.1218 -0.0834
  915MOL0     N23440  -0.015   7.895   3.598 -0.2874 -0.5976 -0.3596
  915MOL0     N23441   0.062   7.915   3.705 -0.0329 -0.4607  0.4570
  915MOL0     C23442   0.922   7.957   3.386 -0.1284  0.9973 -0.5022
  915MOL0     C23443   1.046   7.911   3.419 -0.1007 -1.0196 -0.1757
  915MOL0     C23444   1.442   7.778   3.518  0.7576 -0.1088 -0.1160
  915MOL0     C23445   1.527   7.884   3.551 -0.4285  0.2002 -0.2774
  915MOL0     C23446   1.663   7.881   3.539 -0.6433  0.4130 -0.2587
  915MOL0     C23447   1.724   7.761   3.479 -0.0116 -0.5234 -0.5027
  915MOL0     O23448   1.855   7.749   3.445  0.1018  0.2287  0.2599
  915MOL0     C23449   1.954   7.859   3.443  0.2154  0.3497  0.1427
  915MOL0     C23450   2.022   7.872   3.576 -0.1110  0.3091 -0.7271
  915MOL0     C23451   2.131   7.770   3.604  0.2950  0.2435  0.3909
  915MOL0     C23452   2.256   7.796   3.523 -1.2061 -0.1228 -0.0356
  915MOL0     C23453   2.376   7.797   3.610  0.0778  0.5164  2.2835
  915MOL0     C23454   2.461   7.793   3.693  0.5558  0.0627 -0.5036
  915MOL0     C23455   1.644   7.666   3.434  0.2625  0.2975 -0.3812
  915MOL0     C23456   1.510   7.668   3.447  0.9740 -0.3306  0.1240
  915MOL0     C23457   1.422   7.567   3.392  0.8892  0.3802  0.2946
  915MOL0     H23458   1.138   8.113   3.667 -0.3105  1.6115 -0.4318
  915MOL0     H23459   0.911   8.220   3.620  2.2877  4.5998 -4.0003
  915MOL0     H23460   0.791   8.322   3.438  2.6949 -1.2988 -3.0782
  915MOL0     H23461   0.755   8.231   3.294  1.3235  3.5384 -0.8341
  915MOL0     H23462   0.522   8.199   3.415  1.4776 -1.1595 -2.4224
  915MOL0     H23463   0.556   8.335   3.320  1.1059 -0.6563 -0.6074
  915MOL0     H23464   0.471   8.433   3.499 -1.8782 -1.9510 -0.9800
  915MOL0     H23465   0.639   8.427   3.557 -0.1100 -0.3729  0.4327
  915MOL0     H23466   0.455   8.182   3.615  1.5890 -1.7223 -1.0789
  915MOL0     H23467   0.607   8.239   3.690 -0.0759  2.2653  0.7674
  915MOL0     H23468   0.468   8.405   3.818 -1.5036 -0.1553  0.1422
  915MOL0     H23469   0.349   8.411   3.705 -0.3252 -1.1394 -1.4903
  915MOL0     H23470   0.390   8.142   3.847 -0.5268 -0.0303  0.9235
  915MOL0     H23471   0.314   8.275   3.931  1.0954  2.0315 -1.2092
  915MOL0     H23472   0.204   8.176   3.666 -0.7345 -2.3189  0.6342
  915MOL0     H23473   0.151   8.312   3.758 -1.2658 -0.4052 -0.6394
  915MOL0     H23474   0.182   8.033   3.899 -0.3536 -0.2297 -0.6607
  915MOL0     H23475   0.073   8.160   3.938  0.7037  0.1037  1.0141
  915MOL0     H23476  -0.119   8.187   3.701  3.2408  0.7431  0.1605
  915MOL0     H23477  -0.308   8.027   3.528  0.9445 -0.4450  4.5018
  915MOL0     H23478  -0.171   8.111   3.435 -0.8207 -0.3638 -1.0328
  915MOL0     H23479  -0.116   7.907   3.326 -0.5319 -2.1722 -1.3906
  915MOL0     H23480  -0.225   7.817   3.435  0.0282 -0.5785  1.5694
  915MOL0     H23481  -0.417   7.943   3.313 -2.3246 -2.6864 -5.1977
  915MOL0     H23482  -0.309   7.856   3.195 -1.4161 -1.4922  0.9060
  915MOL0     H23483  -0.248   8.060   3.105 -1.3161 -1.8651 -1.2048
  915MOL0     H23484  -0.295   8.160   3.235 -3.9590  1.0893  0.4869
  915MOL0     H23485  -0.312   8.305   3.083  0.0328  0.0305  1.2344
  915MOL0     H23486  -0.410   8.519   3.035  1.0563 -0.7281  2.4666
  915MOL0     H23487  -0.724   8.732   2.730  1.2290  2.5904  1.0232
  915MOL0     H23488  -0.851   8.944   2.698  2.0665 -1.6607 -0.6132
  915MOL0     H23489  -1.049   8.958   2.561 -0.6892  1.4611 -1.3110
  915MOL0     H23490  -1.188   8.888   2.634 -0.3892  0.4447 -0.6891
  915MOL0     H23491  -1.267   9.053   2.490  1.1634 -0.2477  0.0666
  915MOL0     H23492  -1.265   9.140   2.649 -0.4860 -1.3951  1.9033
  915MOL0     H23493  -1.024   9.210   2.576 -1.3694 -0.0529 -0.7339
  915MOL0     H23494  -1.064   9.161   2.403  0.8465  0.7426 -1.2004
  915MOL0     H23495  -1.257   9.327   2.450  1.4474 -2.9374 -2.1912
  915MOL0     H23496  -1.081   9.383   2.421 -0.5517  0.5818 -1.0856
  915MOL0     H23497  -1.049   9.465   2.622  0.3965  0.1967 -1.9872
  915MOL0     H23498  -1.171   9.354   2.710 -1.5389 -1.6213 -1.1729
  915MOL0     H23499  -1.259   9.572   2.495  2.7508  3.4315  1.2407
  915MOL0     H23500  -1.354   9.477   2.600 -0.0299 -0.8595 -0.6800
  915MOL0     H23501  -1.262   9.593   2.810 -0.7820 -0.1426 -1.5996
  915MOL0     H23502  -1.336   9.706   2.699 -0.6468 -0.0426  1.2390
  915MOL0     H23503  -1.041   9.631   2.740 -1.0746 -0.8987 -2.1513
  915MOL0     H23504  -1.082   9.738   2.605 -0.5972 -2.2607 -0.0923
  915MOL0     H23505  -1.176   8.800   2.944 -0.0308 -1.3840  0.0950
  915MOL0     H23506  -1.033   8.609   3.004  1.4782  0.8015  0.3327
  915MOL0     H23507  -0.794   8.304   2.953 -0.0433  0.2007  0.4629
  915MOL0     H23508  -0.708   8.113   3.044 -4.6550  3.5282 -0.4300
  915MOL0     H23509   0.856   7.938   3.303  0.9029 -0.1576 -1.0950
  915MOL0     H23510   1.087   7.835   3.352 -0.1163 -2.8596  1.7880
  915MOL0     H23511   1.481   7.967   3.602 -2.6869 -1.2204  0.1313
  915MOL0     H23512   1.727   7.963   3.570  0.0374 -1.2811  3.4004
  915MOL0     H23513   1.910   7.955   3.413  2.2541  0.6954 -2.0748
  915MOL0     H23514   2.027   7.831   3.366 -0.4994  0.6111 -0.6531
  915MOL0     H23515   1.957   7.858   3.663  4.1153 -2.8706  2.3169
  915MOL0     H23516   2.066   7.971   3.590 -0.7008  0.4871 -0.0198
  915MOL0     H23517   2.078   7.676   3.588  1.2704  0.0420 -1.9560
  915MOL0     H23518   2.151   7.773   3.712 -0.0503  4.7629  0.5224
  915MOL0     H23519   2.279   7.727   3.441 -1.3259  0.6231 -0.7181
  915MOL0     H23520   2.253   7.897   3.482  2.2532  0.0483 -0.1386
  915MOL0     H23521   2.525   7.805   3.779 -0.1401  0.7999 -0.0701
  915MOL0     H23522   1.692   7.588   3.376  0.0184 -0.4748  0.4363
  915MOL0     H23523   1.369   7.507   3.467 -0.8994  0.0967 -1.1593
  915MOL0     H23524   1.345   7.623   3.339  0.1764  1.5744  2.4398
  915MOL0     H23525   1.467   7.498   3.320 -2.3296  0.5172 -2.0513
  916MOL0     O23526   1.672   6.002   5.664 -0.0946  0.7352 -0.8038
  916MOL0     C23527   1.704   6.062   5.565 -0.0400  0.0426 -0.1812
  916MOL0     O23528   1.833   6.096   5.535  0.5618  0.4908 -0.4282
  916MOL0     C23529   1.939   6.057   5.611 -0.5225 -0.6822  0.4786
  916MOL0     C23530   1.957   5.927   5.662 -0.3671  0.3167 -0.2636
  916MOL0     C23531   2.073   5.898   5.728  0.1013  0.2371  0.3897
  916MOL0     C23532   2.180   5.980   5.713 -0.0964 -0.6962  0.9834
  916MOL0     O23533   2.302   5.932   5.768  0.4349 -0.3238  0.6589
  916MOL0     C23534   2.398   6.043   5.771 -0.8542 -0.1578  0.6940
  916MOL0     C23535   2.514   5.990   5.856 -0.4481  0.5374  0.4263
  916MOL0     C23536   2.614   6.098   5.902  0.1974  0.7204 -0.3025
  916MOL0     C23537   2.723   6.039   5.985 -0.6866 -1.2660 -1.0281
  916MOL0     C23538   2.844   6.143   6.006 -1.3969  0.1683  0.2798
  916MOL0     C23539   2.923   6.178   5.880  0.3413 -0.2437  0.4718
  916MOL0     C23540   3.037   6.269   5.911 -1.4275  0.4278 -0.5661
  916MOL0     C23541   3.137   6.254   5.784  0.4341  0.5214 -0.1627
  916MOL0     N23542   3.260   6.336   5.800  0.3357  0.2516  0.0619
  916MOL0     C23543   3.383   6.303   5.857  0.8527  0.1286 -0.2817
  916MOL0     C23544   3.463   6.402   5.849 -0.1995  0.2360 -0.7826
  916MOL0     C23545   3.609   6.400   5.899  0.2815 -0.4484 -0.4865
  916MOL0     C23546   3.703   6.344   5.798 -0.4019  0.7735 -0.1336
  916MOL0     C23547   3.766   6.427   5.685 -0.6151 -0.2975  0.2251
  916MOL0     C23548   3.675   6.487   5.568  0.4745  0.2514  0.1030
  916MOL0     O23549   3.608   6.375   5.497 -0.1339 -0.3564 -1.0382
  916MOL0     C23550   3.516   6.408   5.401 -0.7415  0.2885 -0.4196
  916MOL0     C23551   3.386   6.396   5.444 -0.5544 -0.4186  0.3957
  916MOL0     C23552   3.281   6.411   5.352  0.4357 -0.1646 -0.6610
  916MOL0     C23553   3.305   6.454   5.223  0.4436 -0.6322 -0.4996
  916MOL0     C23554   3.206   6.473   5.117  0.4256  0.5299  0.4271
  916MOL0     O23555   3.250   6.497   4.987  0.2483  0.4164 -0.4836
  916MOL0     C23556   3.162   6.516   4.885 -0.2152 -1.0975 -0.0984
  916MOL0     C23557   3.027   6.465   4.878 -0.8951 -0.4361 -0.4388
  916MOL0     C23558   2.948   6.477   4.759 -0.5629  0.3979 -0.0815
  916MOL0     C23559   2.997   6.551   4.650  0.1800  0.3893 -0.0185
  916MOL0     O23560   2.923   6.569   4.538  0.3797  0.1262  0.2890
  916MOL0     C23561   2.922   6.452   4.447 -0.1675 -0.7323 -0.1363
  916MOL0     C23562   2.847   6.481   4.322 -0.2631 -0.4824  0.9700
  916MOL0     C23563   2.831   6.358   4.231 -0.3761  0.1926 -0.0212
  916MOL0     C23564   2.965   6.287   4.204  0.2451  0.3682  1.2134
  916MOL0     C23565   2.938   6.161   4.120 -0.5550 -0.2350 -0.3185
  916MOL0     C23566   3.068   6.082   4.073 -0.4293  0.6874 -0.0535
  916MOL0     C23567   3.108   6.115   3.927 -0.1868  0.0692  0.3375
  916MOL0     C23568   3.258   6.112   3.905 -0.0828  0.3464  0.4519
  916MOL0    Cl23569   3.344   6.259   3.984 -0.0528  0.0647 -0.0246
  916MOL0     C23570   3.132   6.598   4.652  0.9796  0.1043 -0.5802
  916MOL0     C23571   3.214   6.585   4.767 -0.1224 -0.1804  0.5208
  916MOL0     O23572   3.092   6.471   5.150 -0.5249 -0.1813 -0.0906
  916MOL0     C23573   3.443   6.482   5.192  0.0732 -0.4182  0.0269
  916MOL0     C23574   3.545   6.450   5.277  0.1605 -0.6707  0.1200
  916MOL0     N23575   3.392   6.506   5.794  0.1898 -0.8014  0.1478
  916MOL0     N23576   3.270   6.466   5.771  0.1346  0.1188 -0.5882
  916MOL0     C23577   2.166   6.102   5.650  0.6614 -0.6067 -0.3702
  916MOL0     C23578   2.046   6.143   5.597  0.1443 -0.5103  0.2227
  916MOL0     C23579   1.603   6.109   5.469 -0.8341  0.4095  0.6831
  916MOL0     C23580   1.466   6.102   5.506  0.6906 -0.8427  0.0196
  916MOL0     C23581   1.365   6.155   5.424  0.0824 -0.8374  0.1092
  916MOL0     C23582   1.396   6.191   5.293  0.0740  0.6734  1.4253
  916MOL0     O23583   1.298   6.231   5.202  0.2475  0.0554 -0.3899
  916MOL0     C23584   1.298   6.183   5.066  0.5128 -0.1856 -0.7572
  916MOL0     C23585   1.174   6.222   4.990  0.0857 -0.9753  0.4154
  916MOL0     C23586   1.052   6.133   5.017 -0.0436  0.0752 -0.9360
  916MOL0     C23587   0.998   6.148   5.156  0.6342  0.5816 -0.3864
  916MOL0     C23588   0.876   6.064   5.188 -0.2623 -0.1104  0.0524
  916MOL0     C23589   0.785   5.986   5.211  0.0523 -0.2209 -0.6303
  916MOL0     C23590   1.534   6.187   5.244  0.7824  1.7524 -0.1143
  916MOL0     C23591   1.637   6.155   5.332  0.2640  0.6627  0.3406
  916MOL0     C23592   1.778   6.168   5.278 -0.8394 -0.3030  0.0144
  916MOL0     H23593   1.889   5.843   5.656  0.0449  0.0238 -0.9873
  916MOL0     H23594   2.094   5.800   5.770 -1.4186  0.0616  0.7941
  916MOL0     H23595   2.436   6.065   5.671 -0.1186 -0.0961  0.9886
  916MOL0     H23596   2.349   6.131   5.813  1.4885  1.2923  0.5247
  916MOL0     H23597   2.564   5.914   5.796 -1.0331  3.5018 -4.3103
  916MOL0     H23598   2.483   5.933   5.944  0.4042 -1.1825 -0.3520
  916MOL0     H23599   2.560   6.173   5.959 -0.8294  0.3314 -0.7429
  916MOL0     H23600   2.651   6.156   5.816  0.2696 -1.1420 -1.6061
  916MOL0     H23601   2.680   6.013   6.082 -0.2234  4.4305  1.0490
  916MOL0     H23602   2.758   5.948   5.934 -0.5752 -0.0373 -3.2440
  916MOL0     H23603   2.804   6.235   6.050 -0.4608 -0.2278  2.0579
  916MOL0     H23604   2.913   6.088   6.070 -2.4473  0.0344  1.3306
  916MOL0     H23605   2.955   6.090   5.823  0.4592  2.5600 -4.3098
  916MOL0     H23606   2.863   6.239   5.812 -0.4599 -0.6859  0.7693
  916MOL0     H23607   3.099   6.235   5.994  0.5737  1.3835 -1.5797
  916MOL0     H23608   3.019   6.377   5.918  3.8461  1.6464 -1.6446
  916MOL0     H23609   3.169   6.150   5.777 -0.2976  0.2644  0.1404
  916MOL0     H23610   3.083   6.285   5.695 -0.1586 -2.3714 -0.9268
  916MOL0     H23611   3.405   6.209   5.905 -4.6958 -0.4705  1.7885
  916MOL0     H23612   3.645   6.500   5.926  1.9272 -1.2425  0.3939
  916MOL0     H23613   3.611   6.335   5.986 -0.4864  0.3213  0.1257
  916MOL0     H23614   3.793   6.295   5.838 -1.5820  1.2698  3.4074
  916MOL0     H23615   3.643   6.264   5.753 -0.1307  0.3004  0.3312
  916MOL0     H23616   3.842   6.367   5.633 -1.3904 -0.1887 -1.0877
  916MOL0     H23617   3.811   6.520   5.720 -1.4124  0.5551 -0.9373
  916MOL0     H23618   3.734   6.547   5.498  0.6071  1.7910  1.4706
  916MOL0     H23619   3.608   6.552   5.624 -0.4773 -3.1710  3.3595
  916MOL0     H23620   3.379   6.371   5.550  0.3417 -0.8484  0.3587
  916MOL0     H23621   3.186   6.381   5.395  0.7495 -0.9560 -0.4889
  916MOL0     H23622   2.996   6.405   4.963  0.1420  0.6273  0.7206
  916MOL0     H23623   2.849   6.432   4.753 -1.7287  2.5919  1.3736
  916MOL0     H23624   3.028   6.426   4.439 -0.1557 -1.8781  2.6655
  916MOL0     H23625   2.869   6.370   4.496 -2.3204  0.5461 -0.1808
  916MOL0     H23626   2.753   6.526   4.354  0.6171  1.5399  0.8736
  916MOL0     H23627   2.890   6.565   4.267 -1.0631 -1.5807 -1.4360
  916MOL0     H23628   2.758   6.299   4.286  1.3530 -1.2805  0.7891
  916MOL0     H23629   2.782   6.391   4.139 -1.1662 -3.9453 -1.2939
  916MOL0     H23630   3.009   6.260   4.301 -1.4099 -1.6752  1.4779
  916MOL0     H23631   3.021   6.347   4.133 -0.5900 -1.1387 -0.8215
  916MOL0     H23632   2.881   6.188   4.031 -0.8178 -0.7916 -0.3225
  916MOL0     H23633   2.872   6.094   4.177  0.6150 -2.0768 -1.0293
  916MOL0     H23634   3.154   6.110   4.135  3.4303 -3.3802 -2.9375
  916MOL0     H23635   3.046   5.976   4.095  1.9696 -0.1677 -1.4329
  916MOL0     H23636   3.083   6.219   3.905  0.8095  0.2710  0.1133
  916MOL0     H23637   3.058   6.049   3.855  1.4013 -3.7809  2.4651
  916MOL0     H23638   3.296   6.018   3.946 -0.2626  1.0660  2.3915
  916MOL0     H23639   3.272   6.123   3.797 -2.2245  0.8253  0.1792
  916MOL0     H23640   3.167   6.660   4.570 -0.7501  0.0047 -1.4354
  916MOL0     H23641   3.308   6.640   4.768 -0.6911  0.8156  1.0812
  916MOL0     H23642   3.466   6.530   5.097 -0.0446 -2.3171 -1.0085
  916MOL0     H23643   3.647   6.473   5.249  0.3922 -0.6498  0.9407
  916MOL0     H23644   2.255   6.162   5.630  1.3371 -2.2023 -2.6606
  916MOL0     H23645   2.042   6.237   5.543  1.0599 -0.3396  0.4475
  916MOL0     H23646   1.425   6.060   5.597  0.1132 -1.3639 -0.4693
  916MOL0     H23647   1.260   6.149   5.447 -0.3293  3.0250 -0.0885
  916MOL0     H23648   1.319   6.077   5.081  1.8820  0.4812  2.9374
  916MOL0     H23649   1.386   6.228   5.020  0.5530  1.1892  0.6226
  916MOL0     H23650   1.195   6.205   4.884  2.4875 -0.1349  0.7011
  916MOL0     H23651   1.166   6.331   5.000 -2.5703 -0.9107 -1.2636
  916MOL0     H23652   1.100   6.036   5.001 -0.5016 -0.6734  1.6682
  916MOL0     H23653   0.974   6.160   4.946  0.5426  1.5165 -1.0613
  916MOL0     H23654   1.071   6.129   5.235 -0.0936 -0.8663 -0.0202
  916MOL0     H23655   0.965   6.252   5.167  1.2735  0.7734 -0.2684
  916MOL0     H23656   0.706   5.915   5.222 -1.9934  1.7758 -1.7422
  916MOL0     H23657   1.562   6.225   5.146 -0.1527  0.1106 -1.0697
  916MOL0     H23658   1.778   6.195   5.172  0.2539 -0.4886 -0.0408
  916MOL0     H23659   1.847   6.241   5.321  0.6484 -1.1829 -0.8250
  916MOL0     H23660   1.829   6.072   5.288  2.4460  1.3827  1.0371
  917MOL0     O23661   6.981   4.131  10.408  0.0212  0.6153 -0.0023
  917MOL0     C23662   6.970   4.018  10.364  1.0527  0.3396 -0.7986
  917MOL0     O23663   6.978   3.981  10.234 -0.0140 -1.3504 -0.4803
  917MOL0     C23664   7.017   4.067  10.137  0.3051  0.6609  0.3109
  917MOL0     C23665   6.919   4.102  10.051  0.5230 -0.4368  0.8150
  917MOL0     C23666   6.943   4.190   9.940 -0.4734 -0.6000  1.3108
  917MOL0     C23667   7.073   4.238   9.928 -0.2820 -0.1055 -0.1018
  917MOL0     O23668   7.097   4.322   9.825 -0.6022 -0.4312  0.0603
  917MOL0     C23669   7.214   4.307   9.747  0.6897 -0.5806 -0.5093
  917MOL0     C23670   7.215   4.404   9.630  0.0229 -0.4103 -0.0804
  917MOL0     C23671   7.336   4.382   9.535  0.1243  0.4479  0.0516
  917MOL0     C23672   7.462   4.434   9.587  0.7345 -0.1273  0.5462
  917MOL0     C23673   7.558   4.477   9.464 -0.1081 -0.1292 -0.1781
  917MOL0     C23674   7.537   4.623   9.426  0.1216 -0.8526  0.0279
  917MOL0     C23675   7.628   4.655   9.308  0.4600  0.3583  0.4934
  917MOL0     C23676   7.774   4.613   9.325  0.1231 -0.8004  1.0643
  917MOL0     N23677   7.848   4.660   9.216 -0.2624  0.3900  0.1958
  917MOL0     C23678   7.878   4.792   9.202 -0.0574 -0.6256 -0.4798
  917MOL0     C23679   7.964   4.790   9.094  0.4205  0.4051  0.1167
  917MOL0     C23680   8.042   4.920   9.057 -0.0684  0.2013  0.0653
  917MOL0     C23681   8.184   4.930   9.113  0.0170 -0.7169  0.2356
  917MOL0     C23682   8.266   5.043   9.037  0.0499  0.5844 -0.0771
  917MOL0     C23683   8.407   5.062   9.097 -0.2374 -0.0379  0.8351
  917MOL0     O23684   8.393   5.090   9.236  0.2876 -0.1178 -0.2647
  917MOL0     C23685   8.495   5.058   9.319  0.2493  0.0427  0.5909
  917MOL0     C23686   8.627   5.020   9.291  0.7294 -0.0810 -0.3797
  917MOL0     C23687   8.726   4.981   9.381 -0.0957  0.2062  0.6232
  917MOL0     C23688   8.695   4.984   9.513 -0.1427  0.4959  0.2100
  917MOL0     C23689   8.798   4.939   9.607 -0.2077  0.2313  1.1162
  917MOL0     O23690   8.927   4.918   9.553 -0.7466  0.1970  0.0715
  917MOL0     C23691   9.038   4.883   9.629  0.6838  0.2560  0.4277
  917MOL0     C23692   9.030   4.792   9.736  0.3140 -0.4324 -0.6053
  917MOL0     C23693   9.149   4.754   9.802  0.0382 -0.7415 -0.3629
  917MOL0     C23694   9.267   4.799   9.753  0.0140  0.0144 -0.1094
  917MOL0     O23695   9.380   4.751   9.815  0.3494  0.2884  0.1717
  917MOL0     C23696   9.461   4.838   9.896  0.0084 -0.6825  0.3509
  917MOL0     C23697   9.613   4.831   9.874 -0.1028  1.0335  1.1128
  917MOL0     C23698   9.681   4.694   9.896  0.3173 -0.5036  0.5381
  917MOL0     C23699   9.692   4.644  10.041 -0.0531  0.4414  0.5395
  917MOL0     C23700   9.761   4.510  10.049  0.6114 -0.1068 -0.4669
  917MOL0     C23701   9.763   4.433  10.178 -0.6779  0.2530 -0.8142
  917MOL0     C23702   9.882   4.340  10.188  0.2230 -0.7176  0.2784
  917MOL0     C23703   9.913   4.296  10.327  0.4254  0.6103  0.1579
  917MOL0    Cl23704   9.973   4.435  10.414 -0.3021 -0.4656 -0.1507
  917MOL0     C23705   9.282   4.885   9.648  0.4182 -0.1865  0.6837
  917MOL0     C23706   9.163   4.926   9.589  0.6349  0.1479 -0.3036
  917MOL0     O23707   8.773   4.936   9.725 -0.3319 -0.0101 -0.6127
  917MOL0     C23708   8.563   5.011   9.548  0.4828 -0.2335 -0.1098
  917MOL0     C23709   8.466   5.052   9.458 -0.3947  0.5681  0.5841
  917MOL0     N23710   7.977   4.660   9.046  0.6826 -0.0375 -0.2111
  917MOL0     N23711   7.907   4.584   9.128  0.4279  0.0936 -0.4712
  917MOL0     C23712   7.176   4.198  10.013  0.2197 -0.2039  0.9299
  917MOL0     C23713   7.153   4.104  10.114  0.3094 -0.2129  0.1686
  917MOL0     C23714   6.936   3.914  10.469 -0.1332  0.1438  0.6938
  917MOL0     C23715   6.907   3.952  10.596 -0.5247 -0.8252 -0.4025
  917MOL0     C23716   6.858   3.869  10.697 -0.6256 -0.5285  0.2155
  917MOL0     C23717   6.829   3.731  10.668  0.1297 -0.0728 -0.6783
  917MOL0     O23718   6.774   3.649  10.767  0.5130 -0.8585  0.3416
  917MOL0     C23719   6.653   3.687  10.841 -1.0016 -0.8830 -0.5985
  917MOL0     C23720   6.531   3.672  10.751 -0.2127  0.5874 -1.3095
  917MOL0     C23721   6.526   3.540  10.664 -0.1915 -0.4179 -0.1290
  917MOL0     C23722   6.395   3.532  10.594  0.4557  0.2656  0.2900
  917MOL0     C23723   6.291   3.461  10.678  0.9280 -0.0112  0.1810
  917MOL0     C23724   6.207   3.397  10.744 -1.6292 -0.4334 -1.3811
  917MOL0     C23725   6.871   3.693  10.542  0.3712  0.1797  0.4944
  917MOL0     C23726   6.916   3.775  10.440 -1.2814  0.0717  0.1907
  917MOL0     C23727   6.950   3.717  10.302  0.4375 -0.0223  0.4426
  917MOL0     H23728   6.823   4.056  10.069  0.6089 -1.1284 -0.4072
  917MOL0     H23729   6.861   4.219   9.875 -0.1736 -3.5269 -0.5643
  917MOL0     H23730   7.304   4.321   9.808 -0.3655 -0.2001  1.0269
  917MOL0     H23731   7.216   4.209   9.698 -1.8992 -1.4393  0.8928
  917MOL0     H23732   7.209   4.510   9.658  1.5880 -0.3397  0.0424
  917MOL0     H23733   7.128   4.379   9.568  0.5477  0.4686 -1.2185
  917MOL0     H23734   7.305   4.439   9.446 -0.4337 -0.0063 -0.0467
  917MOL0     H23735   7.350   4.278   9.506 -0.1136  0.8795 -1.7742
  917MOL0     H23736   7.439   4.532   9.630  0.4769  0.3710 -0.6627
  917MOL0     H23737   7.507   4.362   9.655  0.2526 -2.1313 -1.1472
  917MOL0     H23738   7.658   4.455   9.501  0.6563 -2.5895 -3.2481
  917MOL0     H23739   7.547   4.415   9.374  0.2132  0.2327 -0.4761
  917MOL0     H23740   7.433   4.643   9.400 -0.7480 -2.4643  1.9415
  917MOL0     H23741   7.566   4.690   9.508 -0.6029  0.2404 -0.5740
  917MOL0     H23742   7.623   4.763   9.289  2.9988  0.2015 -1.5116
  917MOL0     H23743   7.591   4.610   9.216  0.2582  0.7875  0.3624
  917MOL0     H23744   7.805   4.656   9.421  5.6383 -0.5039 -0.4649
  917MOL0     H23745   7.791   4.505   9.328  0.8283 -0.7524 -0.3727
  917MOL0     H23746   7.843   4.877   9.259  1.5378 -0.0998 -0.2436
  917MOL0     H23747   8.051   4.928   8.948  2.9120  0.9455  0.2788
  917MOL0     H23748   7.976   4.998   9.097 -2.1548 -1.8636  0.8603
  917MOL0     H23749   8.174   4.950   9.220 -0.4071 -2.8123  0.6377
  917MOL0     H23750   8.230   4.831   9.106  1.0600 -0.3650  1.7003
  917MOL0     H23751   8.215   5.140   9.036 -0.6072  0.2542  0.5167
  917MOL0     H23752   8.255   5.006   8.934 -1.8017  0.1450  0.2311
  917MOL0     H23753   8.448   5.151   9.048 -0.3427 -1.7789 -2.6982
  917MOL0     H23754   8.476   4.979   9.078 -0.3358 -0.2502  1.3651
  917MOL0     H23755   8.658   5.014   9.188  1.7069 -1.0292 -0.0483
  917MOL0     H23756   8.822   4.969   9.333  0.0084 -0.0102  0.8828
  917MOL0     H23757   8.949   4.737   9.784 -0.8706  4.1044  3.4112
  917MOL0     H23758   9.143   4.679   9.880  0.4850  0.0360  0.4360
  917MOL0     H23759   9.430   4.942   9.884  3.5245  0.3625 -0.7520
  917MOL0     H23760   9.446   4.816  10.002  1.7969 -0.4736  0.6643
  917MOL0     H23761   9.638   4.874   9.776  1.5068  1.6332  1.7440
  917MOL0     H23762   9.664   4.902   9.939  0.5024  1.8213 -0.1716
  917MOL0     H23763   9.626   4.620   9.838  0.6902 -0.2087 -0.2086
  917MOL0     H23764   9.783   4.700   9.857 -0.4001 -3.6387 -2.2809
  917MOL0     H23765   9.591   4.624  10.077  0.6815 -4.1427  0.6182
  917MOL0     H23766   9.735   4.715  10.111  2.9512  1.4147 -2.0433
  917MOL0     H23767   9.866   4.529  10.025  1.6218 -3.2235  0.9108
  917MOL0     H23768   9.719   4.438   9.979  0.5197  0.4216 -0.9589
  917MOL0     H23769   9.763   4.496  10.267 -0.7839 -1.8499  0.7447
  917MOL0     H23770   9.667   4.380  10.178 -0.1599 -0.7430 -1.7419
  917MOL0     H23771   9.972   4.386  10.146 -1.4551 -0.7272 -3.8456
  917MOL0     H23772   9.856   4.251  10.130  0.0853  1.2378 -2.8731
  917MOL0     H23773   9.819   4.259  10.367 -1.3117  3.7751 -0.6826
  917MOL0     H23774   9.995   4.223  10.321  0.4250  0.3921  2.1271
  917MOL0     H23775   9.377   4.919   9.607 -1.0465  2.5876 -0.7077
  917MOL0     H23776   9.184   4.988   9.502 -2.8621 -0.8304 -2.0103
  917MOL0     H23777   8.535   5.004   9.652  4.8871 -1.4424  1.2122
  917MOL0     H23778   8.367   5.079   9.491 -0.8131  0.1155 -0.2713
  917MOL0     H23779   7.275   4.241  10.003 -0.5721  2.1433  2.5122
  917MOL0     H23780   7.236   4.057  10.167  2.3062  0.6256 -2.0149
  917MOL0     H23781   6.935   4.049  10.636 -0.1108 -0.0493 -2.4714
  917MOL0     H23782   6.844   3.912  10.796 -2.8724  0.3785 -0.4302
  917MOL0     H23783   6.656   3.788  10.883 -0.3544 -1.3257  0.4739
  917MOL0     H23784   6.649   3.632  10.936 -0.7043 -0.3387 -0.2636
  917MOL0     H23785   6.525   3.760  10.687 -1.2490  0.3044 -1.6146
  917MOL0     H23786   6.448   3.673  10.822  2.6949 -1.6846  2.5068
  917MOL0     H23787   6.539   3.448  10.721 -0.3335  0.5486  1.5240
  917MOL0     H23788   6.600   3.542  10.583  0.9273 -1.0977  0.8544
  917MOL0     H23789   6.361   3.629  10.557  0.6002  0.4286  0.5869
  917MOL0     H23790   6.409   3.470  10.505  2.2288  3.1302 -1.5859
  917MOL0     H23791   6.134   3.348  10.806 -0.2182 -2.6029 -1.2998
  917MOL0     H23792   6.862   3.589  10.512 -0.9168  0.7428 -1.2183
  917MOL0     H23793   6.957   3.608  10.294 -3.3423 -0.3489 -0.1570
  917MOL0     H23794   6.879   3.754  10.227  0.1835  0.9200  1.1410
  917MOL0     H23795   7.048   3.748  10.263  0.4635 -2.1862 -1.4405
  918MOL0     O23796   0.211   3.163   6.499  1.0609  0.4154 -0.2667
  918MOL0     C23797   0.194   3.147   6.380  0.2689  0.4301  0.3991
  918MOL0     O23798   0.125   3.044   6.316 -0.4884 -0.0225 -0.2670
  918MOL0     C23799   0.071   2.929   6.380  0.7252 -0.7600  0.3335
  918MOL0     C23800  -0.033   2.866   6.306  0.0579 -0.5680  0.1854
  918MOL0     C23801  -0.092   2.749   6.343  0.2676 -0.1965 -0.6523
  918MOL0     C23802  -0.047   2.698   6.467 -0.2087 -0.7752  1.0385
  918MOL0     O23803  -0.080   2.574   6.503 -0.1003 -0.3986 -0.3475
  918MOL0     C23804  -0.200   2.567   6.576 -0.1334 -0.6896  0.6589
  918MOL0     C23805  -0.214   2.440   6.653  0.3762  0.5038 -0.1580
  918MOL0     C23806  -0.348   2.437   6.729 -0.6888 -0.3740  0.6481
  918MOL0     C23807  -0.384   2.289   6.755  0.4146  0.0737 -0.6398
  918MOL0     C23808  -0.499   2.272   6.858 -0.2080  0.5059  0.7906
  918MOL0     C23809  -0.624   2.344   6.810  0.3456 -0.8485 -0.3089
  918MOL0     C23810  -0.735   2.341   6.915  0.4429  0.0972  0.2014
  918MOL0     C23811  -0.842   2.233   6.892  0.7555 -0.4278 -0.5029
  918MOL0     N23812  -0.976   2.277   6.946 -0.4663 -0.2383 -0.2031
  918MOL0     C23813  -1.019   2.292   7.079  1.3432  0.2712  0.0307
  918MOL0     C23814  -1.155   2.275   7.075  0.6806  0.2658  0.1995
  918MOL0     C23815  -1.256   2.279   7.183  0.4598 -0.3668  0.0330
  918MOL0     C23816  -1.204   2.343   7.311  0.0311 -0.0349 -0.0804
  918MOL0     C23817  -1.209   2.497   7.310 -0.1438  0.8111 -0.3191
  918MOL0     C23818  -1.111   2.563   7.228 -0.7471 -0.0416 -0.0514
  918MOL0     O23819  -0.980   2.516   7.287  0.8682  0.0796 -0.4878
  918MOL0     C23820  -0.870   2.549   7.222  0.8089 -0.8228  0.2241
  918MOL0     C23821  -0.852   2.655   7.130  0.3508  0.6561 -0.4443
  918MOL0     C23822  -0.723   2.669   7.073 -0.4156 -0.3741  0.1337
  918MOL0     C23823  -0.618   2.593   7.122  0.6499  0.6854 -0.3827
  918MOL0     C23824  -0.476   2.615   7.065  0.3652 -0.2775  0.8023
  918MOL0     O23825  -0.446   2.741   7.013 -0.3647  0.0272  0.0029
  918MOL0     C23826  -0.311   2.777   6.987 -0.0867  0.8545 -0.7998
  918MOL0     C23827  -0.205   2.758   7.082  0.4147  0.4075  0.7412
  918MOL0     C23828  -0.086   2.805   7.048 -0.3885 -0.2335  0.1048
  918MOL0     C23829  -0.058   2.867   6.924  0.2221 -0.6159 -1.0237
  918MOL0     O23830   0.076   2.900   6.907  0.6383 -0.1941 -0.1144
  918MOL0     C23831   0.115   3.022   6.853  0.0323  0.6800  0.4554
  918MOL0     C23832   0.161   3.104   6.976 -0.5687 -0.7801  0.3538
  918MOL0     C23833   0.040   3.155   7.058 -0.3599  0.3680 -0.5581
  918MOL0     C23834   0.093   3.265   7.158  0.0668 -0.4517 -0.5346
  918MOL0     C23835  -0.018   3.359   7.222  0.6134  0.1064 -0.0388
  918MOL0     C23836   0.038   3.439   7.345 -0.3671 -0.5036 -1.1980
  918MOL0     C23837   0.050   3.346   7.474 -0.3439 -0.9192  0.5670
  918MOL0     C23838   0.182   3.360   7.552  0.2288 -0.7439  0.5765
  918MOL0    Cl23839   0.301   3.252   7.470  0.2074  0.5522 -0.1793
  918MOL0     C23840  -0.155   2.889   6.834  0.4186  0.1912  0.0434
  918MOL0     C23841  -0.283   2.842   6.864 -0.9134 -0.2732 -0.1668
  918MOL0     O23842  -0.401   2.521   7.071  0.1884  0.3666  0.6993
  918MOL0     C23843  -0.639   2.479   7.204  0.0872  0.7861  0.0864
  918MOL0     C23844  -0.759   2.470   7.260  0.4872 -0.2164  0.2129
  918MOL0     N23845  -1.187   2.255   6.941  0.1836  0.7671  0.0101
  918MOL0     N23846  -1.081   2.246   6.869  0.3664 -0.2666  0.3614
  918MOL0     C23847   0.052   2.765   6.541 -0.2770  0.3934 -0.0638
  918MOL0     C23848   0.111   2.886   6.498  0.1604 -0.0814 -1.6310
  918MOL0     C23849   0.224   3.270   6.296 -0.3366  0.5318 -0.5721
  918MOL0     C23850   0.147   3.292   6.176  0.6864  0.2839 -0.3277
  918MOL0     C23851   0.177   3.388   6.086 -0.3173 -0.0897  1.1170
  918MOL0     C23852   0.290   3.466   6.097 -0.0537  0.2047  0.1645
  918MOL0     O23853   0.331   3.566   6.004  0.0162 -0.1257  0.2252
  918MOL0     C23854   0.257   3.574   5.883  0.6682  0.2330 -0.3167
  918MOL0     C23855   0.338   3.654   5.784  0.2343 -0.2091 -0.1230
  918MOL0     C23856   0.382   3.791   5.842  0.3977  0.4949  1.2066
  918MOL0     C23857   0.401   3.894   5.725 -0.0209  1.1539 -0.1850
  918MOL0     C23858   0.273   3.918   5.649  0.1181  0.5853  0.5696
  918MOL0     C23859   0.166   3.937   5.590  0.3236  0.7834  0.6587
  918MOL0     C23860   0.370   3.442   6.210 -0.2951 -0.5720  0.3263
  918MOL0     C23861   0.336   3.352   6.309 -1.1988  0.0108 -0.0600
  918MOL0     C23862   0.439   3.323   6.423 -0.0893  0.1426 -0.0067
  918MOL0     H23863  -0.063   2.912   6.212  0.9800  0.8542  0.5496
  918MOL0     H23864  -0.167   2.694   6.288 -0.4939 -1.4139  1.4735
  918MOL0     H23865  -0.203   2.645   6.653  1.8789 -1.4574  1.5726
  918MOL0     H23866  -0.282   2.571   6.504 -1.2066 -2.2118  1.7193
  918MOL0     H23867  -0.139   2.427   6.732 -0.9637 -0.0456  1.0492
  918MOL0     H23868  -0.208   2.361   6.577  0.3378 -0.3125  0.6753
  918MOL0     H23869  -0.426   2.487   6.670  0.7975  4.0660  2.0727
  918MOL0     H23870  -0.336   2.498   6.818 -2.7732  1.6471 -0.3299
  918MOL0     H23871  -0.418   2.227   6.672  2.9222 -0.7471 -1.1403
  918MOL0     H23872  -0.297   2.242   6.802 -0.5502 -1.7283 -0.5622
  918MOL0     H23873  -0.517   2.168   6.885  4.7704 -1.0648 -0.7651
  918MOL0     H23874  -0.454   2.315   6.949  1.6732 -1.1466  0.7030
  918MOL0     H23875  -0.610   2.451   6.790  1.1215 -0.8912 -0.0164
  918MOL0     H23876  -0.656   2.295   6.718  0.6163 -3.7727  1.0398
  918MOL0     H23877  -0.793   2.433   6.907 -0.8315 -0.6193  0.9268
  918MOL0     H23878  -0.706   2.330   7.020  2.7255 -0.1304 -0.4032
  918MOL0     H23879  -0.865   2.213   6.787 -2.9674  2.0897 -0.3894
  918MOL0     H23880  -0.809   2.146   6.950  0.7321  1.8572  3.2782
  918MOL0     H23881  -0.969   2.322   7.170 -2.7042  3.5336  1.4507
  918MOL0     H23882  -1.346   2.330   7.149 -0.0693 -2.9991 -3.0511
  918MOL0     H23883  -1.284   2.175   7.202 -0.9794  0.4933  3.1931
  918MOL0     H23884  -1.265   2.300   7.390 -2.1348  2.3062 -0.3228
  918MOL0     H23885  -1.100   2.318   7.331  0.1139  0.4690  0.1377
  918MOL0     H23886  -1.193   2.522   7.415  0.6722 -3.5298  0.8064
  918MOL0     H23887  -1.305   2.532   7.271 -1.1097 -0.7221  0.5651
  918MOL0     H23888  -1.123   2.672   7.233 -3.0574  0.0108 -3.4794
  918MOL0     H23889  -1.123   2.539   7.122 -0.0625  1.2787 -0.4527
  918MOL0     H23890  -0.930   2.718   7.089 -2.3293 -1.7237  0.7071
  918MOL0     H23891  -0.701   2.744   6.997 -0.5181  1.9739  2.2681
  918MOL0     H23892  -0.217   2.707   7.177  1.1258 -0.9687  0.1233
  918MOL0     H23893  -0.004   2.797   7.119 -0.7285 -0.7968  0.4421
  918MOL0     H23894   0.196   3.004   6.781 -1.0763 -2.9584 -0.0900
  918MOL0     H23895   0.029   3.068   6.803 -0.1803 -2.0441 -1.9311
  918MOL0     H23896   0.230   3.045   7.037 -0.2959 -0.5310  0.2898
  918MOL0     H23897   0.215   3.193   6.943  0.3000 -1.5410 -0.3284
  918MOL0     H23898  -0.048   3.189   7.003 -2.7487 -1.9402  1.5462
  918MOL0     H23899  -0.002   3.073   7.117 -1.4957  2.3382  1.5302
  918MOL0     H23900   0.164   3.322   7.097 -1.2843  0.7533 -1.0405
  918MOL0     H23901   0.145   3.212   7.239 -0.2458  0.6112  0.3890
  918MOL0     H23902  -0.107   3.303   7.252 -0.4033  0.0474 -2.9385
  918MOL0     H23903  -0.046   3.410   7.130 -2.6141 -2.4587 -0.6809
  918MOL0     H23904   0.138   3.478   7.325 -0.9224  1.8078  0.2202
  918MOL0     H23905  -0.022   3.524   7.377  1.1079 -0.5153  2.0504
  918MOL0     H23906   0.044   3.238   7.458  1.9901 -1.1350  0.7635
  918MOL0     H23907  -0.031   3.371   7.543 -1.3023  2.2865 -1.5214
  918MOL0     H23908   0.220   3.462   7.569 -2.4377  0.4748 -0.2569
  918MOL0     H23909   0.139   3.316   7.642 -0.0279 -3.2765 -0.7125
  918MOL0     H23910  -0.144   2.930   6.734 -1.6681  1.6487  0.3344
  918MOL0     H23911  -0.364   2.856   6.794  0.2390 -0.3453 -1.5667
  918MOL0     H23912  -0.557   2.413   7.230  0.7568  0.3282 -2.9015
  918MOL0     H23913  -0.781   2.404   7.344  0.9551 -1.6489 -0.7494
  918MOL0     H23914   0.096   2.714   6.626  1.8741  1.4492 -0.4842
  918MOL0     H23915   0.198   2.932   6.544 -0.2750  0.0165 -0.8964
  918MOL0     H23916   0.075   3.217   6.146  0.5974  0.1510  0.2034
  918MOL0     H23917   0.104   3.401   6.007 -0.3815  0.3787  1.2550
  918MOL0     H23918   0.162   3.625   5.900  0.9690  0.4959  0.6326
  918MOL0     H23919   0.230   3.477   5.840 -0.5899 -1.4176  3.7631
  918MOL0     H23920   0.282   3.673   5.692 -3.4733 -1.1560  1.7784
  918MOL0     H23921   0.416   3.585   5.752  1.1287  0.7167 -0.0002
  918MOL0     H23922   0.475   3.786   5.900  2.6850  3.5532 -1.7904
  918MOL0     H23923   0.305   3.815   5.916  0.5788 -1.8528  2.2218
  918MOL0     H23924   0.435   3.984   5.778 -1.8289  0.3216  2.5794
  918MOL0     H23925   0.487   3.868   5.662  0.6247 -2.0581  1.8020
  918MOL0     H23926   0.073   3.948   5.537 -0.6350  0.6567  2.2183
  918MOL0     H23927   0.464   3.496   6.208 -1.4763  1.5675 -1.4683
  918MOL0     H23928   0.535   3.346   6.377 -0.6839  0.0128 -1.3742
  918MOL0     H23929   0.430   3.385   6.512  2.5668 -1.5418  1.5713
  918MOL0     H23930   0.445   3.217   6.448 -0.5545 -0.0365 -0.6022
  919MOL0     O23931   9.598   7.558   0.565 -0.0845  0.6594 -0.0603
  919MOL0     C23932   9.696   7.483   0.538 -0.4100 -0.7336  0.6142
  919MOL0     O23933   9.683   7.366   0.468 -0.6751  0.0498  0.4803
  919MOL0     C23934   9.559   7.344   0.426 -0.2831 -0.4943  0.3125
  919MOL0     C23935   9.463   7.270   0.494  0.3687  0.8720  0.7108
  919MOL0     C23936   9.337   7.250   0.454 -0.6455 -0.7054  0.4842
  919MOL0     C23937   9.299   7.297   0.332  0.4568 -0.1757  0.8818
  919MOL0     O23938   9.172   7.262   0.284  0.2592 -0.1092  0.2553
  919MOL0     C23939   9.156   7.274   0.142  0.4212 -0.1903 -0.5845
  919MOL0     C23940   9.008   7.215   0.124 -0.6855 -0.7019 -0.1252
  919MOL0     C23941   9.016   7.061   0.146 -0.2303  0.6763  1.3534
  919MOL0     C23942   8.891   6.987   0.096 -0.0104  0.1962 -0.2972
  919MOL0     C23943   8.920   6.828   0.091 -0.2854  0.0498  0.6569
  919MOL0     C23944   8.794   6.743   0.116 -0.1017 -0.9171  1.2383
  919MOL0     C23945   8.692   6.755  -0.007 -0.2405 -0.3458 -0.6079
  919MOL0     C23946   8.753   6.677  -0.130 -0.0964 -0.6373 -1.1140
  919MOL0     N23947   8.654   6.691  -0.237  0.9076  0.5851  0.1930
  919MOL0     C23948   8.521   6.643  -0.252 -0.3592 -0.6288 -0.2506
  919MOL0     C23949   8.486   6.667  -0.381  0.1464 -0.0034 -0.4052
  919MOL0     C23950   8.351   6.637  -0.422  0.1722  0.1710  0.6600
  919MOL0     C23951   8.253   6.750  -0.422 -0.0250  0.7898  0.7891
  919MOL0     C23952   8.126   6.718  -0.344 -0.0717  0.2086  0.2194
  919MOL0     C23953   8.022   6.832  -0.341 -0.3530 -0.9023 -0.8180
  919MOL0     O23954   7.905   6.796  -0.257 -0.3241  0.3299 -1.0699
  919MOL0     C23955   7.781   6.764  -0.310  0.4086  0.4169 -0.1049
  919MOL0     C23956   7.745   6.772  -0.449 -0.1295  0.3215  0.5859
  919MOL0     C23957   7.629   6.706  -0.498  1.1848 -0.3181 -0.2989
  919MOL0     C23958   7.533   6.658  -0.411  0.1142 -0.5945 -0.2984
  919MOL0     C23959   7.400   6.614  -0.463 -0.2894 -0.2533  0.9257
  919MOL0     O23960   7.298   6.628  -0.367  0.3390 -0.8667  0.5634
  919MOL0     C23961   7.176   6.591  -0.418  0.6430  0.0596  0.2580
  919MOL0     C23962   7.113   6.479  -0.369  0.0212  0.0454  0.4540
  919MOL0     C23963   6.986   6.448  -0.427 -1.7299  0.6177 -0.3249
  919MOL0     C23964   6.928   6.521  -0.527  0.9049  0.6248 -0.2901
  919MOL0     O23965   6.810   6.467  -0.570  0.2637 -0.4724  0.0809
  919MOL0     C23966   6.767   6.498  -0.708 -0.1551 -0.1203  0.0371
  919MOL0     C23967   6.672   6.381  -0.756  0.2595  0.0152  1.3084
  919MOL0     C23968   6.665   6.384  -0.912  0.1082 -0.5222 -0.2561
  919MOL0     C23969   6.547   6.304  -0.957 -0.1621 -0.5093  0.6335
  919MOL0     C23970   6.507   6.364  -1.099 -0.5779  0.1921 -0.7498
  919MOL0     C23971   6.621   6.359  -1.204  0.5221  0.4440  0.2568
  919MOL0     C23972   6.563   6.345  -1.348 -0.1834  0.7325 -1.1900
  919MOL0     C23973   6.666   6.369  -1.454  0.5522  1.0063 -0.0649
  919MOL0    Cl23974   6.810   6.274  -1.417  0.2564  0.3831  0.3488
  919MOL0     C23975   6.988   6.641  -0.576 -0.2343  0.0950  0.3776
  919MOL0     C23976   7.107   6.676  -0.516 -0.3634 -0.6078  0.6122
  919MOL0     O23977   7.389   6.565  -0.579  0.7432 -0.7889 -0.3363
  919MOL0     C23978   7.569   6.658  -0.269  0.3254  0.1550  0.1901
  919MOL0     C23979   7.686   6.721  -0.224 -0.3736 -0.1063  1.0730
  919MOL0     N23980   8.601   6.713  -0.450  0.8419  0.1307 -1.4456
  919MOL0     N23981   8.695   6.722  -0.363 -0.1115 -0.6136 -0.6363
  919MOL0     C23982   9.393   7.374   0.248  0.5336  0.7999 -0.2532
  919MOL0     C23983   9.518   7.393   0.303 -0.4673 -0.0177  0.2400
  919MOL0     C23984   9.840   7.518   0.578  0.0136  0.7593  0.7670
  919MOL0     C23985   9.939   7.502   0.486 -1.2400  0.4187  0.6730
  919MOL0     C23986  10.076   7.516   0.517 -0.6220  0.4387  0.7014
  919MOL0     C23987  10.112   7.552   0.650 -0.2914 -0.4590 -0.3484
  919MOL0     O23988  10.241   7.563   0.704 -0.4060 -0.0246 -0.8149
  919MOL0     C23989  10.354   7.527   0.629  0.2613  0.7490 -0.5990
  919MOL0     C23990  10.378   7.377   0.631 -0.4158  0.1385  0.7535
  919MOL0     C23991  10.418   7.322   0.761  0.3570  0.5680 -0.0628
  919MOL0     C23992  10.577   7.341   0.764  0.9326 -0.0586  0.7573
  919MOL0     C23993  10.626   7.317   0.899  0.6238  0.5835 -0.2866
  919MOL0     C23994  10.655   7.284   1.015 -0.5121 -0.2802  0.8798
  919MOL0     C23995  10.009   7.578   0.731  0.6132 -0.6489 -1.0395
  919MOL0     C23996   9.869   7.567   0.707  0.0463 -0.7412  0.5729
  919MOL0     C23997   9.763   7.594   0.819 -0.3012 -0.7454  0.1864
  919MOL0     H23998   9.471   7.220   0.590 -0.4052 -2.2256 -0.6887
  919MOL0     H23999   9.271   7.191   0.517  2.3565 -2.2321  2.4335
  919MOL0     H24000   9.133   7.378   0.114 -1.5974 -0.3879  0.1823
  919MOL0     H24001   9.228   7.210   0.089  2.4653 -1.1836  3.0594
  919MOL0     H24002   8.981   7.221   0.018 -1.9580 -0.4158  0.2068
  919MOL0     H24003   8.936   7.261   0.191 -2.0533 -2.8496 -0.0185
  919MOL0     H24004   9.022   7.043   0.254 -0.3155  0.5304  1.3341
  919MOL0     H24005   9.106   7.024   0.097 -0.4158  3.9898 -1.9734
  919MOL0     H24006   8.805   7.001   0.161 -0.5189 -1.4486 -0.5853
  919MOL0     H24007   8.870   7.019  -0.007  2.1684  0.5412 -0.6836
  919MOL0     H24008   8.961   6.805  -0.007  0.5512  2.3841  0.3806
  919MOL0     H24009   8.989   6.812   0.174 -0.7499 -3.5639  0.5225
  919MOL0     H24010   8.825   6.638   0.119  1.3045 -0.5916 -0.3479
  919MOL0     H24011   8.748   6.773   0.211 -2.5729  0.1948 -0.2026
  919MOL0     H24012   8.670   6.857  -0.042 -0.3628 -0.9637 -2.4129
  919MOL0     H24013   8.598   6.705   0.015 -0.4214  0.0479 -0.4835
  919MOL0     H24014   8.849   6.717  -0.162 -0.3722  1.0065 -0.0429
  919MOL0     H24015   8.758   6.570  -0.111 -1.0736 -1.3977 -4.5069
  919MOL0     H24016   8.444   6.611  -0.181 -0.3231  0.9699  0.5536
  919MOL0     H24017   8.353   6.608  -0.527  0.2793  2.6792 -0.0825
  919MOL0     H24018   8.313   6.556  -0.359 -0.2503 -0.1931 -0.0471
  919MOL0     H24019   8.299   6.837  -0.374 -0.7142  2.3859 -1.2747
  919MOL0     H24020   8.217   6.768  -0.524 -2.1883 -0.4582  1.2562
  919MOL0     H24021   8.150   6.690  -0.241 -1.2366  1.0580  0.7432
  919MOL0     H24022   8.083   6.637  -0.404  1.8234 -0.1289 -0.7563
  919MOL0     H24023   7.999   6.854  -0.445 -0.8524 -2.0738 -0.9795
  919MOL0     H24024   8.064   6.923  -0.298 -2.9989  1.1715 -2.3552
  919MOL0     H24025   7.806   6.824  -0.522  1.4932 -4.0575 -1.5361
  919MOL0     H24026   7.607   6.705  -0.604  0.3778  2.7081 -0.2455
  919MOL0     H24027   7.158   6.421  -0.289 -0.7086  0.3384  1.0924
  919MOL0     H24028   6.943   6.358  -0.385  1.1286  0.0687  1.7475
  919MOL0     H24029   6.720   6.596  -0.713 -1.7368 -0.7460  1.6001
  919MOL0     H24030   6.856   6.502  -0.773  2.6115  5.0082  3.4395
  919MOL0     H24031   6.705   6.286  -0.711  0.5970  0.4584  2.0254
  919MOL0     H24032   6.575   6.405  -0.712 -0.6803 -2.9206  1.0545
  919MOL0     H24033   6.644   6.486  -0.944 -0.3853 -0.9518 -1.3380
  919MOL0     H24034   6.761   6.348  -0.950  0.9865 -2.1342  3.1126
  919MOL0     H24035   6.469   6.325  -0.883  0.6708  1.8729  0.9314
  919MOL0     H24036   6.566   6.198  -0.976  2.7635  0.0874 -0.4154
  919MOL0     H24037   6.457   6.461  -1.095 -0.8687  0.0986 -1.8284
  919MOL0     H24038   6.433   6.292  -1.134 -1.1484  0.9069 -1.0417
  919MOL0     H24039   6.676   6.454  -1.201 -2.1122  2.0567  0.3110
  919MOL0     H24040   6.696   6.281  -1.193  0.2828  0.2715  0.6791
  919MOL0     H24041   6.468   6.400  -1.348  0.3034  1.8150  2.0481
  919MOL0     H24042   6.538   6.238  -1.354  0.4605  0.4478  0.5800
  919MOL0     H24043   6.621   6.342  -1.550  1.7536 -1.5639  0.0171
  919MOL0     H24044   6.684   6.477  -1.461  2.4150  1.0118  2.8918
  919MOL0     H24045   6.949   6.699  -0.659  0.9789 -3.3833 -2.9276
  919MOL0     H24046   7.165   6.764  -0.543  1.4490 -0.0474  5.3512
  919MOL0     H24047   7.486   6.624  -0.207 -0.5295 -2.1299 -2.0493
  919MOL0     H24048   7.705   6.721  -0.117  1.6876 -1.7868  0.7624
  919MOL0     H24049   9.367   7.423   0.155 -2.3121 -2.1365 -1.1690
  919MOL0     H24050   9.573   7.457   0.235 -0.2506 -0.3665  0.0830
  919MOL0     H24051   9.912   7.461   0.390  0.1230 -0.1284  0.5062
  919MOL0     H24052  10.159   7.517   0.447  0.7408  2.5721  2.1989
  919MOL0     H24053  10.440   7.580   0.672  1.6480 -0.4896 -1.7504
  919MOL0     H24054  10.355   7.553   0.523 -0.6990  0.1304 -0.7655
  919MOL0     H24055  10.444   7.352   0.548 -0.3539  0.2672  0.7651
  919MOL0     H24056  10.288   7.322   0.602 -0.2406 -0.4783  1.3375
  919MOL0     H24057  10.393   7.216   0.778 -0.1405  0.7038  0.0504
  919MOL0     H24058  10.362   7.362   0.846 -1.0838 -2.2810  0.4721
  919MOL0     H24059  10.619   7.267   0.695 -0.5911  0.8501 -1.2497
  919MOL0     H24060  10.604   7.443   0.736 -1.4752  0.6597  0.8358
  919MOL0     H24061  10.678   7.256   1.116 -1.6885 -2.3304  0.6497
  919MOL0     H24062  10.041   7.615   0.828 -0.8001  1.6371 -1.3648
  919MOL0     H24063   9.734   7.698   0.798  0.7327 -1.1039 -3.8610
  919MOL0     H24064   9.669   7.537   0.821 -2.7448  2.9097  0.0981
  919MOL0     H24065   9.811   7.588   0.917 -0.6174 -2.1166  0.2810
  920MOL0     O24066   4.859   9.146   2.550 -0.3329 -0.3458  0.1473
  920MOL0     C24067   4.824   9.060   2.628 -0.4800  0.8004  0.6611
  920MOL0     O24068   4.906   9.009   2.723 -0.9495  0.5844 -0.2021
  920MOL0     C24069   5.034   9.052   2.717 -0.5994 -0.7611  0.8787
  920MOL0     C24070   5.072   9.172   2.779 -0.0361  0.1068 -0.7056
  920MOL0     C24071   5.192   9.213   2.791  0.1434  0.4895 -0.1816
  920MOL0     C24072   5.291   9.136   2.737 -0.1098 -0.9717 -0.2478
  920MOL0     O24073   5.410   9.184   2.705 -0.6951  0.3672  0.2012
  920MOL0     C24074   5.449   9.309   2.758 -0.8057 -0.5234  1.2661
  920MOL0     C24075   5.566   9.352   2.671 -0.8548 -0.2779  0.6383
  920MOL0     C24076   5.686   9.266   2.706 -0.4436 -0.3798  0.0857
  920MOL0     C24077   5.783   9.345   2.790 -0.5246 -0.4654 -0.0650
  920MOL0     C24078   5.909   9.264   2.795 -0.7629  0.5659 -0.9712
  920MOL0     C24079   6.018   9.329   2.885  0.1116 -0.1933  0.7445
  920MOL0     C24080   5.988   9.379   3.028 -0.9728 -1.0095 -0.4784
  920MOL0     C24081   5.972   9.247   3.116 -0.7838  0.2849  0.3592
  920MOL0     N24082   5.891   9.280   3.230  0.2896 -0.1618 -0.5610
  920MOL0     C24083   5.935   9.352   3.337  0.1745 -0.8400 -0.3610
  920MOL0     C24084   5.817   9.357   3.413  0.4925 -0.7116  0.0539
  920MOL0     C24085   5.811   9.375   3.565 -0.3104 -0.0443 -0.6500
  920MOL0     C24086   5.920   9.474   3.623 -0.2820  0.0025 -0.3548
  920MOL0     C24087   5.897   9.618   3.584  0.0573 -0.7156 -0.5786
  920MOL0     C24088   5.999   9.735   3.610  0.3332 -0.0402 -0.1575
  920MOL0     O24089   6.114   9.702   3.525  0.4377 -0.6273  0.8298
  920MOL0     C24090   6.241   9.713   3.587 -0.2324 -0.3081 -0.6260
  920MOL0     C24091   6.332   9.603   3.585  0.5683  0.2161 -0.3192
  920MOL0     C24092   6.469   9.621   3.619  0.6719 -0.6185 -0.4873
  920MOL0     C24093   6.523   9.746   3.656  1.0726 -0.6254  0.8025
  920MOL0     C24094   6.661   9.776   3.685  0.0382 -0.6946 -0.2800
  920MOL0     O24095   6.688   9.905   3.716 -0.3921  0.0519 -0.2036
  920MOL0     C24096   6.816   9.943   3.749 -0.1440  0.6327  0.3720
  920MOL0     C24097   6.921   9.861   3.801  1.4022  0.3933 -0.8568
  920MOL0     C24098   7.046   9.910   3.827  0.2089  0.4464  0.6981
  920MOL0     C24099   7.082  10.038   3.790  0.0309 -0.0483 -0.8430
  920MOL0     O24100   7.203  10.102   3.803 -0.9361  0.0926 -0.3687
  920MOL0     C24101   7.315  10.029   3.853 -0.5618 -0.6071 -0.8295
  920MOL0     C24102   7.434  10.123   3.857  0.4810  0.0276  0.1074
  920MOL0     C24103   7.430  10.255   3.938  0.4023  0.5684  0.4433
  920MOL0     C24104   7.552  10.345   3.913 -0.5418  0.5465 -0.2174
  920MOL0     C24105   7.558  10.474   3.993 -0.0840  0.2535  0.2498
  920MOL0     C24106   7.656  10.576   3.930  0.3613 -0.5266  0.9314
  920MOL0     C24107   7.651  10.707   4.005  0.1654 -1.0333  0.1231
  920MOL0     C24108   7.732  10.827   3.943  0.7629  0.4901  0.1993
  920MOL0    Cl24109   7.900  10.779   3.901 -0.3545 -0.2209  0.0405
  920MOL0     C24110   6.979  10.113   3.745 -0.5254 -0.1544  0.8966
  920MOL0     C24111   6.851  10.068   3.719 -0.5507 -0.2133 -0.5845
  920MOL0     O24112   6.745   9.695   3.646  0.9396  0.0694  0.1727
  920MOL0     C24113   6.429   9.855   3.653 -0.2260 -0.6775  0.2371
  920MOL0     C24114   6.292   9.837   3.623  0.1221  0.2933  0.1049
  920MOL0     N24115   5.718   9.284   3.348 -0.2103  0.0427 -0.3937
  920MOL0     N24116   5.759   9.240   3.236  0.1716 -0.0530  0.0819
  920MOL0     C24117   5.259   9.021   2.678  0.6996 -0.4451  0.1963
  920MOL0     C24118   5.129   8.974   2.663 -0.6625  0.0990  0.3434
  920MOL0     C24119   4.690   8.998   2.621  0.2976 -0.3193  0.2386
  920MOL0     C24120   4.669   8.886   2.710  0.1359 -1.0250  0.5331
  920MOL0     C24121   4.544   8.822   2.722  0.6648 -0.4130 -0.0918
  920MOL0     C24122   4.443   8.846   2.636 -0.2082 -0.0199  0.4322
  920MOL0     O24123   4.326   8.770   2.645  0.5151  0.1804  0.0277
  920MOL0     C24124   4.265   8.731   2.518 -0.1164  0.8970  0.2154
  920MOL0     C24125   4.189   8.599   2.531 -0.0436 -0.5835 -1.2026
  920MOL0     C24126   4.074   8.601   2.431 -0.3583 -0.8512 -0.3812
  920MOL0     C24127   3.992   8.477   2.449  0.1952 -0.4095  0.2074
  920MOL0     C24128   3.870   8.484   2.374 -0.2152  0.5891 -0.4462
  920MOL0     C24129   3.764   8.483   2.305 -0.8308 -0.3815 -0.1441
  920MOL0     C24130   4.465   8.949   2.539 -1.1274 -0.2126 -0.0123
  920MOL0     C24131   4.583   9.036   2.540  0.3400  0.4058  0.2281
  920MOL0     C24132   4.592   9.144   2.428  0.7799 -0.4302  0.1465
  920MOL0     H24133   4.993   9.235   2.819 -0.7932 -0.7568 -0.8149
  920MOL0     H24134   5.207   9.313   2.831 -2.0919  0.1656  1.6621
  920MOL0     H24135   5.373   9.387   2.757  1.0393  1.4890 -2.0988
  920MOL0     H24136   5.477   9.302   2.864 -0.6293  0.3637  1.2888
  920MOL0     H24137   5.590   9.456   2.694 -2.9418 -0.3677  3.9323
  920MOL0     H24138   5.528   9.346   2.569  0.5807 -2.2147  0.1624
  920MOL0     H24139   5.742   9.232   2.618  2.0680 -1.8331  2.0771
  920MOL0     H24140   5.658   9.172   2.755 -0.1750 -3.4730 -4.9189
  920MOL0     H24141   5.805   9.441   2.741  2.5443 -1.4114 -0.7645
  920MOL0     H24142   5.742   9.373   2.888  0.5606  2.1369 -0.2552
  920MOL0     H24143   5.882   9.167   2.838 -2.9303  1.1630 -0.8579
  920MOL0     H24144   5.946   9.255   2.692 -2.7936  0.9051 -1.7845
  920MOL0     H24145   6.104   9.262   2.878  0.5072 -0.0935  3.6092
  920MOL0     H24146   6.046   9.416   2.824  0.4644 -1.4956 -1.0128
  920MOL0     H24147   5.893   9.432   3.035 -1.0709 -0.7257 -3.0896
  920MOL0     H24148   6.061   9.447   3.073 -5.2482  1.6213  3.3618
  920MOL0     H24149   5.901   9.178   3.071  0.8789 -1.6731  0.5925
  920MOL0     H24150   6.065   9.195   3.141  0.1952  2.5714  1.7963
  920MOL0     H24151   6.032   9.394   3.360  0.0926 -0.9956  0.3007
  920MOL0     H24152   5.715   9.411   3.602 -0.0747 -2.8581  3.4021
  920MOL0     H24153   5.820   9.276   3.611 -0.4393 -0.3592 -1.2912
  920MOL0     H24154   5.933   9.453   3.730 -0.2197 -2.2539 -0.7500
  920MOL0     H24155   6.019   9.455   3.579 -1.0936 -1.4123 -1.6688
  920MOL0     H24156   5.813   9.641   3.651  1.9675  0.2727  1.6337
  920MOL0     H24157   5.875   9.633   3.478  0.1684  4.5010 -0.1214
  920MOL0     H24158   6.022   9.734   3.717  2.6616 -1.1648 -0.6049
  920MOL0     H24159   5.966   9.838   3.594 -1.2747 -0.7851 -2.2170
  920MOL0     H24160   6.299   9.502   3.563  2.2191 -0.4486  0.1180
  920MOL0     H24161   6.535   9.534   3.617 -2.2546 -3.0232 -1.4868
  920MOL0     H24162   6.916   9.754   3.818  1.7223  0.5312  0.1298
  920MOL0     H24163   7.130   9.850   3.860  1.4800  0.5771 -1.9918
  920MOL0     H24164   7.308   9.992   3.956  0.1416 -1.0255 -0.9284
  920MOL0     H24165   7.338   9.952   3.779  0.7521  0.0370 -1.1116
  920MOL0     H24166   7.514  10.060   3.898  0.9759 -1.2688 -2.6204
  920MOL0     H24167   7.455  10.146   3.753 -1.2033  1.5672  0.0575
  920MOL0     H24168   7.335  10.299   3.906  0.6313  0.7897  0.0517
  920MOL0     H24169   7.422  10.220   4.041 -0.0904 -1.8040 -0.3368
  920MOL0     H24170   7.549  10.368   3.807 -1.6653 -0.1008 -0.3516
  920MOL0     H24171   7.651  10.303   3.932 -0.2287  1.9205  1.4022
  920MOL0     H24172   7.581  10.450   4.097 -1.3188  2.7663  1.1920
  920MOL0     H24173   7.460  10.521   3.989 -0.4404 -0.4089  0.9708
  920MOL0     H24174   7.759  10.541   3.922  0.1345 -1.4320  1.7746
  920MOL0     H24175   7.614  10.594   3.831 -0.5043 -1.2502  1.1568
  920MOL0     H24176   7.689  10.691   4.107 -2.8018  2.5621  2.0490
  920MOL0     H24177   7.549  10.744   4.018  0.4831 -0.9193  3.0367
  920MOL0     H24178   7.680  10.859   3.852  2.3126  0.7341 -0.6199
  920MOL0     H24179   7.733  10.918   4.004 -0.8277  1.1953 -0.7590
  920MOL0     H24180   6.998  10.219   3.728  1.8040 -0.4774  1.0603
  920MOL0     H24181   6.773  10.127   3.673 -0.3798 -1.2905 -2.3458
  920MOL0     H24182   6.460   9.948   3.701  2.8506 -2.4611  2.0759
  920MOL0     H24183   6.222   9.920   3.619 -1.0712 -0.7188 -2.2602
  920MOL0     H24184   5.341   8.959   2.643  1.2429 -1.1133  2.4978
  920MOL0     H24185   5.103   8.876   2.624  0.7128 -0.7915  1.5403
  920MOL0     H24186   4.748   8.838   2.765  2.0095 -0.7635 -1.7666
  920MOL0     H24187   4.537   8.748   2.800  0.6923 -2.1949 -1.7052
  920MOL0     H24188   4.343   8.729   2.441  0.6146  0.3357  0.9429
  920MOL0     H24189   4.198   8.812   2.489 -2.0498 -1.6533 -3.1837
  920MOL0     H24190   4.150   8.574   2.631  2.4796  0.1391  0.0488
  920MOL0     H24191   4.258   8.519   2.505  1.9122 -0.6020  3.1111
  920MOL0     H24192   4.103   8.613   2.327  0.7534  2.0926  0.1565
  920MOL0     H24193   4.006   8.679   2.467 -0.8578 -0.8407 -1.3277
  920MOL0     H24194   4.052   8.392   2.416 -1.8820 -1.4184 -1.2291
  920MOL0     H24195   3.971   8.473   2.556  3.8461  0.6798  1.0741
  920MOL0     H24196   3.672   8.508   2.256 -1.0789 -4.3534 -2.0938
  920MOL0     H24197   4.386   8.965   2.466 -1.6063  1.9163  0.9031
  920MOL0     H24198   4.662   9.106   2.353 -0.0516 -1.8184  0.0387
  920MOL0     H24199   4.494   9.155   2.383  0.7309  0.7595  0.5282
  920MOL0     H24200   4.636   9.239   2.458  1.8048 -0.8658  0.0812
  921MOL0     O24201   8.803  10.759   8.998  0.2442  0.1503  0.3572
  921MOL0     C24202   8.770  10.878   9.009 -0.0177  0.1626  0.6388
  921MOL0     O24203   8.849  10.982   8.962  0.4346  0.2992 -0.2697
  921MOL0     C24204   8.986  10.964   8.980 -0.0323  0.6555  0.0826
  921MOL0     C24205   9.079  11.020   8.899 -0.2337  0.2138 -0.1906
  921MOL0     C24206   9.216  10.993   8.908  0.5568  0.2302  0.7985
  921MOL0     C24207   9.275  10.913   9.007  0.1721 -0.2788  0.1245
  921MOL0     O24208   9.413  10.887   9.027 -0.7866  0.0072  0.2559
  921MOL0     C24209   9.516  10.967   8.971  0.0807  0.5255 -0.2517
  921MOL0     C24210   9.548  10.931   8.824 -0.6719  0.2317  0.2263
  921MOL0     C24211   9.632  11.041   8.753  0.0904 -0.5941 -0.2074
  921MOL0     C24212   9.774  11.065   8.781 -0.1639  0.6155  0.0897
  921MOL0     C24213   9.811  11.116   8.918  1.0906 -0.7992  0.5495
  921MOL0     C24214   9.942  11.173   8.915  0.7138 -0.2936 -0.5772
  921MOL0     C24215  10.053  11.084   8.868  0.1893 -0.9862 -0.5062
  921MOL0     C24216  10.189  11.125   8.932  0.5803 -0.0050  0.4493
  921MOL0     N24217  10.294  11.101   8.832 -0.2673  0.0184 -0.3038
  921MOL0     C24218  10.370  10.982   8.815  0.2746 -0.2453  0.5171
  921MOL0     C24219  10.465  11.031   8.730 -0.4079  0.4577 -0.5048
  921MOL0     C24220  10.577  10.945   8.671  1.2098  0.7416  0.1746
  921MOL0     C24221  10.697  10.976   8.749 -0.5160 -0.9280 -0.0778
  921MOL0     C24222  10.804  10.904   8.658 -0.3031  0.1594  0.0684
  921MOL0     C24223  10.934  10.949   8.698  0.0525  0.0885  0.4609
  921MOL0     O24224  11.019  10.858   8.639  0.4054  0.4375  0.0950
  921MOL0     C24225  11.148  10.850   8.678  0.3387 -0.3548  0.4069
  921MOL0     C24226  11.199  10.722   8.709  0.4578  0.8154 -0.2989
  921MOL0     C24227  11.331  10.717   8.748  0.2585 -0.4291  0.1217
  921MOL0     C24228  11.420  10.824   8.769  0.3616 -0.6593  0.7196
  921MOL0     C24229  11.552  10.799   8.834 -0.2373  0.2020 -0.6258
  921MOL0     O24230  11.570  10.679   8.901  0.5120  0.7628  0.7317
  921MOL0     C24231  11.663  10.670   9.001 -0.0381 -0.6401 -1.2252
  921MOL0     C24232  11.733  10.781   9.062  0.3990 -0.4850 -0.6507
  921MOL0     C24233  11.822  10.751   9.174 -0.4394 -0.2727  1.1282
  921MOL0     C24234  11.859  10.617   9.209  0.3380 -0.1268  0.6131
  921MOL0     O24235  11.937  10.581   9.314 -0.0509  0.4038 -0.7287
  921MOL0     C24236  12.047  10.670   9.345 -0.3007 -0.5523  0.4037
  921MOL0     C24237  12.146  10.669   9.224  0.5652  1.2590  0.5477
  921MOL0     C24238  12.287  10.709   9.250 -0.6347  0.7461 -0.3292
  921MOL0     C24239  12.369  10.694   9.122  0.2579 -0.9383  0.3047
  921MOL0     C24240  12.519  10.742   9.134  0.4528  0.1147 -0.4509
  921MOL0     C24241  12.540  10.883   9.181  0.2075 -0.3222 -0.3614
  921MOL0     C24242  12.683  10.932   9.185 -0.0498  1.2955 -0.1381
  921MOL0     C24243  12.703  11.081   9.151  0.8753 -0.7055  0.2093
  921MOL0    Cl24244  12.579  11.180   9.247 -0.2411  0.0023  0.4122
  921MOL0     C24245  11.792  10.506   9.149  0.6461  0.2739  0.1839
  921MOL0     C24246  11.685  10.542   9.050 -0.0948  0.0430  0.0323
  921MOL0     O24247  11.638  10.883   8.809  0.1976 -0.9613 -1.0031
  921MOL0     C24248  11.354  10.959   8.757 -0.0132  0.6915 -1.0203
  921MOL0     C24249  11.217  10.962   8.720 -0.4334 -0.2049  1.2622
  921MOL0     N24250  10.439  11.158   8.696  0.3215  1.3402 -0.0849
  921MOL0     N24251  10.332  11.195   8.753 -0.1191 -0.1651  0.2225
  921MOL0     C24252   9.182  10.859   9.092  0.1058  0.6030 -0.4598
  921MOL0     C24253   9.046  10.886   9.086  0.7618 -0.5223 -0.0585
  921MOL0     C24254   8.638  10.908   9.040 -0.1072 -0.1484 -1.1681
  921MOL0     C24255   8.573  11.010   8.967  0.0321  0.2408  0.3242
  921MOL0     C24256   8.437  11.045   8.985 -0.5884  0.2233 -0.0541
  921MOL0     C24257   8.350  10.969   9.056 -0.1892 -0.6291  0.5151
  921MOL0     O24258   8.222  11.007   9.082  0.3883 -0.0314  0.0807
  921MOL0     C24259   8.141  11.073   8.980 -0.5677  0.0277  0.4443
  921MOL0     C24260   7.996  11.027   8.983 -0.8622 -0.4514  0.0058
  921MOL0     C24261   7.911  11.114   8.885  1.0079 -0.0491  0.2620
  921MOL0     C24262   7.866  11.248   8.934 -1.0929  0.4995 -0.2281
  921MOL0     C24263   7.759  11.230   9.032  0.4630 -0.5191  0.7734
  921MOL0     C24264   7.664  11.233   9.111  0.0105  0.1729  0.2356
  921MOL0     C24265   8.419  10.876   9.145  0.4519 -0.0315  0.1132
  921MOL0     C24266   8.558  10.842   9.134  1.1134  0.2634  0.1666
  921MOL0     C24267   8.614  10.747   9.241 -0.0505  0.2933 -0.1580
  921MOL0     H24268   9.050  11.081   8.814  0.7846  0.4845 -0.3571
  921MOL0     H24269   9.276  11.047   8.836  0.7838 -0.9678  0.0622
  921MOL0     H24270   9.491  11.073   8.977 -1.0277  0.4108 -2.1412
  921MOL0     H24271   9.605  10.936   9.026  1.0208 -1.8467 -2.8576
  921MOL0     H24272   9.452  10.921   8.772  0.0029  1.6974 -1.4069
  921MOL0     H24273   9.593  10.832   8.818 -1.0076  0.1011 -0.1342
  921MOL0     H24274   9.574  11.134   8.750  1.7476  0.5636  1.6470
  921MOL0     H24275   9.623  11.014   8.647  0.1816  0.2164 -0.4294
  921MOL0     H24276   9.830  10.974   8.756 -2.2403 -1.1342  1.4363
  921MOL0     H24277   9.798  11.147   8.713 -0.1117  2.7559  2.5398
  921MOL0     H24278   9.753  11.202   8.951  1.4577  0.3827 -1.7169
  921MOL0     H24279   9.803  11.028   8.982 -0.1158 -0.7947  0.4222
  921MOL0     H24280   9.931  11.273   8.872 -1.1190  1.1020  2.7417
  921MOL0     H24281   9.962  11.199   9.019  1.5154 -0.8339 -0.5878
  921MOL0     H24282  10.057  11.097   8.759 -4.4492 -0.7945 -0.8796
  921MOL0     H24283  10.047  10.977   8.887  2.9486 -0.8580  1.7100
  921MOL0     H24284  10.185  11.233   8.948 -0.5619  0.4816 -2.4389
  921MOL0     H24285  10.211  11.077   9.028  3.5551  1.8705  0.8313
  921MOL0     H24286  10.334  10.881   8.829  0.0361 -0.1344  0.7180
  921MOL0     H24287  10.548  10.840   8.671 -1.8306  1.5103  0.4805
  921MOL0     H24288  10.588  10.978   8.567 -2.4302  1.1497 -0.2029
  921MOL0     H24289  10.712  11.085   8.750 -4.5697 -0.0750  4.1379
  921MOL0     H24290  10.697  10.941   8.852  1.5602  0.8171  0.5968
  921MOL0     H24291  10.796  10.942   8.555  1.5245  2.1796  0.6034
  921MOL0     H24292  10.783  10.797   8.657 -1.4531  0.3202 -2.4415
  921MOL0     H24293  10.940  10.950   8.807 -0.9422 -1.3497  0.5521
  921MOL0     H24294  10.963  11.047   8.658 -1.0975  0.8467  1.4184
  921MOL0     H24295  11.149  10.626   8.705 -0.5441  1.1719  1.9296
  921MOL0     H24296  11.356  10.615   8.773 -0.6817 -0.3949  1.2820
  921MOL0     H24297  11.706  10.883   9.037 -1.6773 -0.7250  0.3800
  921MOL0     H24298  11.868  10.838   9.221  1.6530 -1.6497  1.7741
  921MOL0     H24299  12.013  10.771   9.369 -2.5601 -1.4551  1.3167
  921MOL0     H24300  12.097  10.633   9.435 -1.9624 -1.8827  0.8333
  921MOL0     H24301  12.139  10.572   9.172 -1.9140  1.6869 -0.0363
  921MOL0     H24302  12.104  10.731   9.144  0.9028 -0.4992 -1.0719
  921MOL0     H24303  12.280  10.812   9.287 -2.8654  1.7557 -3.1302
  921MOL0     H24304  12.344  10.648   9.320 -0.1175  1.6521  0.0657
  921MOL0     H24305  12.327  10.753   9.040  0.5652 -0.0677  0.7585
  921MOL0     H24306  12.369  10.588   9.095  0.5751 -0.8873  0.0979
  921MOL0     H24307  12.564  10.726   9.036 -1.6952 -1.7805 -1.2124
  921MOL0     H24308  12.561  10.674   9.208 -2.2592  0.2264  1.3492
  921MOL0     H24309  12.488  10.950   9.112  0.3885  0.8148  0.5772
  921MOL0     H24310  12.490  10.898   9.277 -0.9853  0.0743 -1.0288
  921MOL0     H24311  12.738  10.885   9.102 -1.1850  2.1844 -1.4414
  921MOL0     H24312  12.723  10.904   9.283 -1.8607  2.8644  1.1251
  921MOL0     H24313  12.808  11.095   9.180  0.4601 -0.9478  1.9244
  921MOL0     H24314  12.700  11.088   9.042  1.6393  0.9169  0.2555
  921MOL0     H24315  11.819  10.406   9.180  1.9351  0.9331  1.3067
  921MOL0     H24316  11.621  10.465   9.010  0.3373 -0.1410 -0.3187
  921MOL0     H24317  11.407  11.049   8.785 -0.7128  0.7042  0.3892
  921MOL0     H24318  11.175  11.062   8.714 -0.7363 -0.1557  3.5463
  921MOL0     H24319   9.218  10.804   9.179  0.3763 -0.8728 -1.4781
  921MOL0     H24320   8.981  10.829   9.153  1.1976 -0.9580 -0.0039
  921MOL0     H24321   8.632  11.050   8.885 -0.6343 -0.1970 -0.3866
  921MOL0     H24322   8.399  11.114   8.910 -1.9959 -1.1410 -0.6474
  921MOL0     H24323   8.182  11.056   8.880  1.6615  2.0469  0.9291
  921MOL0     H24324   8.150  11.181   8.996  3.4497 -0.4264  2.7573
  921MOL0     H24325   7.965  11.035   9.088  2.4932  0.2389  1.0832
  921MOL0     H24326   7.998  10.927   8.939  0.7252 -0.6991  0.5722
  921MOL0     H24327   7.820  11.056   8.870  0.8285 -0.8668  3.6393
  921MOL0     H24328   7.961  11.132   8.790 -1.4344 -0.2472 -1.1324
  921MOL0     H24329   7.945  11.306   8.984 -2.1552  3.4721 -1.7597
  921MOL0     H24330   7.823  11.309   8.854 -0.8545  2.9685  1.4234
  921MOL0     H24331   7.576  11.215   9.170 -1.4160 -1.4107 -2.1884
  921MOL0     H24332   8.361  10.825   9.221 -0.0404 -1.7223 -1.3135
  921MOL0     H24333   8.704  10.791   9.284  0.1700  0.7231 -1.0330
  921MOL0     H24334   8.537  10.736   9.319  0.5434  0.1409  0.4139
  921MOL0     H24335   8.643  10.649   9.203  1.1102  1.1433 -1.5436
  922MOL0     O24336   7.794  10.504   9.815  0.2120  0.1798 -0.2729
  922MOL0     C24337   7.723  10.422   9.854 -0.1767  1.3692 -1.2384
  922MOL0     O24338   7.769  10.290   9.887  0.5553  0.6673  0.0674
  922MOL0     C24339   7.904  10.267   9.910  0.4913 -0.3611 -0.5707
  922MOL0     C24340   7.978  10.183   9.837 -0.3368 -0.1549 -0.3853
  922MOL0     C24341   8.121  10.160   9.859  0.9429  0.3654 -0.0440
  922MOL0     C24342   8.182  10.235   9.961  0.1978  0.1844 -0.6885
  922MOL0     O24343   8.314  10.200   9.985 -0.8458  0.0420  0.5503
  922MOL0     C24344   8.326  10.074  10.066 -0.3556 -0.0464 -0.5250
  922MOL0     C24345   8.272  10.085  10.214  0.9493  0.9362 -0.1616
  922MOL0     C24346   8.137  10.029  10.240  0.5698  0.3187  0.1703
  922MOL0     C24347   8.147   9.878  10.275 -0.5671  0.3212  0.0451
  922MOL0     C24348   8.012   9.837  10.330  0.0450 -0.5068  0.4021
  922MOL0     C24349   7.923   9.807  10.202 -0.2646 -0.4131  0.6476
  922MOL0     C24350   7.786   9.741  10.235 -0.0748 -0.6268  0.3532
  922MOL0     C24351   7.727   9.627  10.147  0.2681  0.3565  0.4555
  922MOL0     N24352   7.593   9.578  10.184  0.0720  0.7891  1.0251
  922MOL0     C24353   7.475   9.646  10.163 -0.1119  1.1662  0.3906
  922MOL0     C24354   7.377   9.560  10.168 -0.2811  0.1107 -0.8145
  922MOL0     C24355   7.238   9.573  10.132  0.9389 -0.2751  0.1761
  922MOL0     C24356   7.173   9.711  10.158  0.3078 -0.0142 -0.0718
  922MOL0     C24357   7.023   9.715  10.160  0.2947  0.3549  0.9189
  922MOL0     C24358   6.954   9.675  10.023  0.7645  0.0431 -0.3391
  922MOL0     O24359   6.814   9.661  10.040  0.7116  0.6473  0.0679
  922MOL0     C24360   6.738   9.767  10.072 -0.5166 -0.1196  0.2000
  922MOL0     C24361   6.727   9.873   9.983  0.3565  0.3814  0.3511
  922MOL0     C24362   6.653   9.986  10.011 -0.3165 -0.3909  0.4513
  922MOL0     C24363   6.593  10.003  10.140  0.9135 -0.6266  0.1536
  922MOL0     C24364   6.512  10.122  10.171  0.1510 -1.0379  0.8381
  922MOL0     O24365   6.396  10.104  10.256  0.4793 -0.5938  0.0840
  922MOL0     C24366   6.316  10.211  10.285 -0.3510 -0.6961 -0.6777
  922MOL0     C24367   6.259  10.218  10.408 -0.7770  0.1190 -0.6559
  922MOL0     C24368   6.169  10.321  10.438  0.6370  0.1498  0.6644
  922MOL0     C24369   6.131  10.411  10.337  0.0184  0.4035  0.0909
  922MOL0     O24370   6.043  10.515  10.346 -0.6293 -0.4846  0.3168
  922MOL0     C24371   5.981  10.542  10.477  0.6234 -0.2087  0.6643
  922MOL0     C24372   5.881  10.659  10.454 -0.0077  0.1712  0.2687
  922MOL0     C24373   5.754  10.615  10.375  0.0056 -0.0006 -0.0372
  922MOL0     C24374   5.709  10.726  10.277  0.9673  0.1735  0.3113
  922MOL0     C24375   5.594  10.665  10.184  1.0265  0.1357  1.1954
  922MOL0     C24376   5.518  10.776  10.097 -0.2982 -0.5308 -0.0801
  922MOL0     C24377   5.618  10.863  10.016 -0.4554  1.5002  0.7022
  922MOL0     C24378   5.700  10.774   9.920 -0.1491 -0.8520  0.8992
  922MOL0    Cl24379   5.597  10.722   9.781 -0.3875  0.0642  0.2087
  922MOL0     C24380   6.198  10.406  10.214 -0.0614 -0.1679 -0.7094
  922MOL0     C24381   6.284  10.305  10.186  0.4292  0.2625 -0.1191
  922MOL0     O24382   6.553  10.229  10.129  0.1709  0.4005  0.5103
  922MOL0     C24383   6.591   9.894  10.228 -0.7551  0.8044 -0.2600
  922MOL0     C24384   6.663   9.776  10.195 -1.1124 -0.1676 -0.4175
  922MOL0     N24385   7.433   9.439  10.214 -0.0670  0.8307 -0.3393
  922MOL0     N24386   7.562   9.447  10.222 -0.1824  0.0389  0.0828
  922MOL0     C24387   8.101  10.331  10.040 -0.7460  0.2439 -0.1801
  922MOL0     C24388   7.962  10.337  10.013 -0.1455  0.0023 -0.2657
  922MOL0     C24389   7.583  10.463   9.862  0.5831 -0.4251 -0.7611
  922MOL0     C24390   7.545  10.601   9.863 -0.6816 -0.0173 -0.5237
  922MOL0     C24391   7.413  10.650   9.860 -0.3116 -1.1286 -0.1735
  922MOL0     C24392   7.311  10.556   9.859 -0.1532 -0.2017 -1.0001
  922MOL0     O24393   7.179  10.605   9.855 -0.4305 -0.1793 -0.6964
  922MOL0     C24394   7.070  10.520   9.864 -0.2058 -0.2836 -0.3965
  922MOL0     C24395   6.948  10.609   9.841  0.2650 -0.2571  0.9239
  922MOL0     C24396   6.824  10.514   9.866 -0.3325 -0.5158  0.0183
  922MOL0     C24397   6.722  10.582   9.959  0.0247 -0.1387  0.4577
  922MOL0     C24398   6.755  10.538  10.096 -0.5282  0.8456  0.5260
  922MOL0     C24399   6.772  10.510  10.212 -0.1197 -0.8697  0.1586
  922MOL0     C24400   7.337  10.420   9.870  0.5964 -0.4297 -0.0122
  922MOL0     C24401   7.472  10.375   9.870  0.7219  0.4864  0.3336
  922MOL0     C24402   7.488  10.224   9.862 -0.2711 -0.2334 -0.2524
  922MOL0     H24403   7.934  10.124   9.757  1.1582 -2.1736  0.1895
  922MOL0     H24404   8.177  10.093   9.794  0.7076  0.7807 -0.6878
  922MOL0     H24405   8.276   9.990  10.017  0.6551 -2.0503  1.6884
  922MOL0     H24406   8.433  10.050  10.065 -0.3527 -1.1095  4.0623
  922MOL0     H24407   8.271  10.190  10.243  0.9967  0.4899  1.5749
  922MOL0     H24408   8.336  10.031  10.285  1.4511  2.4398  0.5760
  922MOL0     H24409   8.054  10.055  10.174  0.4849 -0.3930 -0.0070
  922MOL0     H24410   8.102  10.078  10.331 -0.7045  1.4579 -0.8975
  922MOL0     H24411   8.173   9.820  10.185 -1.1303  0.8339 -0.4536
  922MOL0     H24412   8.228   9.862  10.346  2.5933  1.1024 -3.0718
  922MOL0     H24413   8.015   9.740  10.379 -1.6614 -1.8497 -1.9402
  922MOL0     H24414   7.977   9.910  10.403  2.8624  0.7673  0.6133
  922MOL0     H24415   7.904   9.900  10.148  1.4005 -0.0771  0.5812
  922MOL0     H24416   7.986   9.743  10.140 -1.2469 -1.0299  0.2621
  922MOL0     H24417   7.708   9.818  10.232 -1.1878 -1.7445 -0.3539
  922MOL0     H24418   7.792   9.702  10.337  1.4332 -0.2824  0.4307
  922MOL0     H24419   7.724   9.668  10.046 -0.2045 -0.3294  0.1904
  922MOL0     H24420   7.792   9.540  10.137  0.7561  0.8471 -0.8040
  922MOL0     H24421   7.472   9.749  10.129  1.2433  1.9621  2.4521
  922MOL0     H24422   7.241   9.544  10.027  0.7203 -1.0905  0.3877
  922MOL0     H24423   7.185   9.499  10.192  0.8784  1.0064  1.7670
  922MOL0     H24424   7.212   9.757  10.249 -1.1207  2.7485 -0.7518
  922MOL0     H24425   7.205   9.776  10.076  2.7910 -1.8040 -0.6300
  922MOL0     H24426   7.014   9.823  10.180 -0.8872  0.8720 -1.8938
  922MOL0     H24427   6.987   9.644  10.235 -0.2651 -1.4206 -0.9608
  922MOL0     H24428   6.981   9.575   9.989  0.2881 -0.1039 -0.2991
  922MOL0     H24429   6.990   9.750   9.952  1.1751  2.5919  2.3703
  922MOL0     H24430   6.806   9.882   9.909  0.9996  4.2348  1.3315
  922MOL0     H24431   6.645  10.068   9.940 -1.0653 -0.3455  0.5900
  922MOL0     H24432   6.288  10.162  10.496  0.2782  2.8468  0.8890
  922MOL0     H24433   6.131  10.324  10.539 -0.6159  0.8585  0.1848
  922MOL0     H24434   5.926  10.453  10.507  1.0500 -1.1427 -1.1240
  922MOL0     H24435   6.056  10.567  10.552  0.7969  1.4525 -0.0031
  922MOL0     H24436   5.855  10.710  10.548 -0.0191 -0.9519  0.8943
  922MOL0     H24437   5.940  10.733  10.399  1.1420 -1.6845 -1.1084
  922MOL0     H24438   5.787  10.528  10.317 -1.2554 -0.3849 -0.2251
  922MOL0     H24439   5.676  10.584  10.446  2.8972 -1.4749  2.7059
  922MOL0     H24440   5.798  10.756  10.221 -0.4493  1.9116 -1.1349
  922MOL0     H24441   5.674  10.820  10.322 -2.5086 -1.2664  0.8802
  922MOL0     H24442   5.525  10.600  10.240 -1.5223  3.2913  2.0372
  922MOL0     H24443   5.647  10.590  10.124  0.5660 -0.8052  1.9383
  922MOL0     H24444   5.436  10.727  10.044 -0.2819 -1.2868  0.5849
  922MOL0     H24445   5.462  10.845  10.161 -1.1515  1.3681 -2.6916
  922MOL0     H24446   5.686  10.916  10.084  0.7564 -1.7675  2.2743
  922MOL0     H24447   5.553  10.926   9.956 -1.1203  0.3486  0.1917
  922MOL0     H24448   5.777  10.834   9.872 -1.7459  2.6699  2.4110
  922MOL0     H24449   5.751  10.691   9.970 -0.2367 -2.8455 -2.0657
  922MOL0     H24450   6.175  10.469  10.128 -1.7807 -2.4940 -2.0895
  922MOL0     H24451   6.329  10.300  10.088  2.8828  2.1304  0.8083
  922MOL0     H24452   6.542   9.898  10.325 -2.4097 -0.7787 -0.9765
  922MOL0     H24453   6.680   9.685  10.253 -1.4361 -0.9254 -1.4827
  922MOL0     H24454   8.142  10.379  10.128 -1.9699  0.0380  0.5088
  922MOL0     H24455   7.910  10.416  10.066  1.3945  2.0789 -1.6806
  922MOL0     H24456   7.633  10.664   9.865 -0.3195 -0.3891 -2.4504
  922MOL0     H24457   7.395  10.757   9.851  1.3040 -0.7811  0.3559
  922MOL0     H24458   7.070  10.491   9.969  0.0780  1.4594  0.1079
  922MOL0     H24459   7.073  10.431   9.800 -1.1265  0.0489 -0.9130
  922MOL0     H24460   6.940  10.650   9.740  0.9617 -1.2920  0.4325
  922MOL0     H24461   6.953  10.687   9.917  2.1685 -0.4927  1.0854
  922MOL0     H24462   6.850  10.419   9.912 -0.0475  1.0955  3.4922
  922MOL0     H24463   6.785  10.490   9.766 -0.3871 -2.8293  0.5578
  922MOL0     H24464   6.726  10.691   9.944  3.9946 -0.1401  0.2234
  922MOL0     H24465   6.624  10.545   9.928 -1.2277  0.6775  3.1217
  922MOL0     H24466   6.787  10.493  10.317  4.2649  1.8080  0.2249
  922MOL0     H24467   7.266  10.339   9.860 -0.8055  0.6674  0.7223
  922MOL0     H24468   7.559  10.187   9.787  1.0723  0.3606  0.6897
  922MOL0     H24469   7.540  10.183   9.949  0.1681  3.1319  1.2149
  922MOL0     H24470   7.396  10.166   9.853 -1.2598  1.5049 -1.9776
  923MOL0     O24471  10.032   1.494  11.335  0.1419  0.3845 -0.4105
  923MOL0     C24472  10.084   1.403  11.394 -0.4459  0.6597  0.0657
  923MOL0     O24473  10.140   1.291  11.339  0.2377  0.4500 -1.2193
  923MOL0     C24474  10.143   1.267  11.205 -0.2968  0.1231  0.4760
  923MOL0     C24475  10.022   1.250  11.137  0.2807 -0.4287 -0.5991
  923MOL0     C24476  10.023   1.226  10.991 -0.4011 -0.1923  0.7993
  923MOL0     C24477  10.145   1.226  10.916  0.3414  0.5074 -0.3266
  923MOL0     O24478  10.160   1.222  10.780 -0.1277  0.5782  0.2355
  923MOL0     C24479  10.032   1.207  10.711 -0.4644  0.2651 -0.8495
  923MOL0     C24480  10.049   1.205  10.563 -0.6662  0.9920  1.3787
  923MOL0     C24481  10.146   1.099  10.509  0.4631  0.7441  0.0822
  923MOL0     C24482  10.237   1.165  10.403 -0.4627 -0.5088  0.0287
  923MOL0     C24483  10.359   1.075  10.368  0.2837  0.2760  0.4603
  923MOL0     C24484  10.457   1.136  10.264  0.1468 -0.7155  0.4423
  923MOL0     C24485  10.407   1.102  10.119 -0.0763  0.9778 -0.1411
  923MOL0     C24486  10.454   1.219  10.021  0.3138  0.2411  0.0634
  923MOL0     N24487  10.365   1.227   9.902 -0.8131  0.7683  0.2313
  923MOL0     C24488  10.403   1.177   9.778  0.5754 -0.0849  0.3097
  923MOL0     C24489  10.301   1.203   9.690 -0.6060  0.4790 -0.7194
  923MOL0     C24490  10.316   1.168   9.543 -0.2149  0.1777  0.2945
  923MOL0     C24491  10.185   1.142   9.476  0.4245 -0.7181  0.0273
  923MOL0     C24492  10.200   1.110   9.326  0.2069 -0.3174 -0.1870
  923MOL0     C24493  10.259   0.975   9.297 -0.4366 -0.5679  1.1265
  923MOL0     O24494  10.257   0.966   9.149  0.2835  0.0707  0.2024
  923MOL0     C24495  10.357   0.999   9.060 -0.7065 -0.0472 -0.6423
  923MOL0     C24496  10.463   1.087   9.076 -0.1164  0.7084  0.0086
  923MOL0     C24497  10.566   1.097   8.986 -0.0682 -0.6196 -0.3236
  923MOL0     C24498  10.544   1.046   8.858  0.1097  0.0267 -0.1724
  923MOL0     C24499  10.621   1.073   8.736  0.4851 -0.2143 -0.6070
  923MOL0     O24500  10.552   1.093   8.617 -0.0682 -0.0829 -0.1525
  923MOL0     C24501  10.617   1.115   8.498  0.9253  0.2523 -0.4089
  923MOL0     C24502  10.578   1.224   8.414  0.6161  0.8923 -0.7500
  923MOL0     C24503  10.653   1.258   8.304 -0.3511 -0.6279  0.3615
  923MOL0     C24504  10.770   1.192   8.279 -0.0009 -0.4154  0.4863
  923MOL0     O24505  10.846   1.217   8.168  0.0787  0.4671 -0.2391
  923MOL0     C24506  10.775   1.224   8.045 -0.4533 -0.7795  0.1264
  923MOL0     C24507  10.864   1.308   7.950 -0.7673 -0.1955 -0.2230
  923MOL0     C24508  10.862   1.459   7.997 -0.0095  0.8921  0.1903
  923MOL0     C24509  10.938   1.544   7.887 -0.0288 -0.9176  0.0268
  923MOL0     C24510  11.077   1.591   7.936  0.3293  0.3600 -0.9956
  923MOL0     C24511  11.160   1.635   7.822  0.0023 -0.0932  0.4375
  923MOL0     C24512  11.305   1.678   7.869  0.1832 -0.2301 -0.3741
  923MOL0     C24513  11.416   1.639   7.779 -0.3045  0.8143  0.1268
  923MOL0    Cl24514  11.562   1.718   7.845 -0.0697  0.4157  0.2223
  923MOL0     C24515  10.808   1.082   8.348  0.0243  0.2296 -0.3586
  923MOL0     C24516  10.725   1.043   8.457  0.3551  0.4856 -0.1196
  923MOL0     O24517  10.742   1.082   8.758  1.1274  0.3742  0.1750
  923MOL0     C24518  10.440   0.949   8.847 -0.6475 -0.2748  0.3417
  923MOL0     C24519  10.340   0.925   8.947  0.1133 -0.4175 -0.3131
  923MOL0     N24520  10.205   1.262   9.770 -0.7212 -0.0020 -0.0993
  923MOL0     N24521  10.239   1.269   9.896 -0.0704 -0.5198  0.8921
  923MOL0     C24522  10.265   1.252  10.989 -0.3308  0.1749  0.8898
  923MOL0     C24523  10.262   1.265  11.127  0.0605  0.7252 -0.1544
  923MOL0     C24524  10.080   1.392  11.545 -0.2735  0.4288  0.8527
  923MOL0     C24525  10.167   1.301  11.615  0.3429  0.3701 -0.2244
  923MOL0     C24526  10.176   1.297  11.753 -0.0240 -0.2490  0.1087
  923MOL0     C24527  10.096   1.375  11.830  0.1848 -0.3741  0.0043
  923MOL0     O24528  10.102   1.363  11.963  0.1882 -0.3598  0.3344
  923MOL0     C24529   9.988   1.307  12.029  0.2980 -0.4468 -0.7896
  923MOL0     C24530  10.037   1.177  12.085  0.6905  0.0544 -0.7761
  923MOL0     C24531  10.018   1.066  11.984  0.2515 -0.7253  0.9151
  923MOL0     C24532  10.039   0.933  12.046  0.1652  0.1467 -0.3723
  923MOL0     C24533  10.026   0.834  11.938 -0.8096  0.7407  0.3563
  923MOL0     C24534  10.011   0.766  11.840 -0.7221  0.4955  0.3408
  923MOL0     C24535  10.014   1.471  11.767 -0.0925 -0.4332  0.7177
  923MOL0     C24536  10.012   1.488  11.621 -0.9148  0.3988 -0.5805
  923MOL0     C24537   9.925   1.596  11.566 -0.5593 -0.2842 -0.5391
  923MOL0     H24538   9.927   1.253  11.190  0.5971 -3.1719  0.2916
  923MOL0     H24539   9.930   1.211  10.936 -0.4220 -0.1808  0.8313
  923MOL0     H24540   9.988   1.115  10.748  1.6906  0.6367  3.1672
  923MOL0     H24541   9.967   1.291  10.738 -1.5258 -0.7091 -0.3014
  923MOL0     H24542  10.089   1.305  10.547 -2.4630  1.6813  0.9202
  923MOL0     H24543   9.952   1.187  10.516  0.7112 -0.2651 -1.2056
  923MOL0     H24544  10.082   1.021  10.463 -0.3353  2.2402 -1.4805
  923MOL0     H24545  10.211   1.063  10.589 -1.2200 -4.0049 -0.3260
  923MOL0     H24546  10.192   1.206  10.313  0.5248  0.6987  0.0532
  923MOL0     H24547  10.284   1.250  10.454  2.5339 -3.0709  1.9534
  923MOL0     H24548  10.420   1.060  10.458 -0.2169 -1.0630  0.5985
  923MOL0     H24549  10.321   0.978  10.334 -1.1803  0.4715  1.4370
  923MOL0     H24550  10.458   1.240  10.296  2.2917 -0.5495 -0.0285
  923MOL0     H24551  10.558   1.095  10.268  0.1141 -0.8389  0.0694
  923MOL0     H24552  10.298   1.097  10.114 -0.2926  2.0903  2.2597
  923MOL0     H24553  10.436   1.011  10.066 -4.9157 -2.0674  1.7421
  923MOL0     H24554  10.450   1.304  10.089 -1.1538  0.4067 -0.1956
  923MOL0     H24555  10.560   1.207   9.995  0.7838  4.3714 -0.6813
  923MOL0     H24556  10.501   1.141   9.749  1.4749  1.9565  0.6297
  923MOL0     H24557  10.360   1.257   9.497  2.8814 -2.2653 -1.9045
  923MOL0     H24558  10.391   1.089   9.529 -0.7204 -0.4626  1.0779
  923MOL0     H24559  10.132   1.058   9.521  1.5229 -0.9875  0.8609
  923MOL0     H24560  10.125   1.233   9.488  1.6159  0.9169 -4.3332
  923MOL0     H24561  10.254   1.188   9.272 -0.1485  1.9188  2.4478
  923MOL0     H24562  10.107   1.113   9.269  0.7734  1.8060 -1.1088
  923MOL0     H24563  10.188   0.902   9.335 -2.1874 -0.2502 -1.2620
  923MOL0     H24564  10.361   0.968   9.337  0.7953  1.6420 -1.3092
  923MOL0     H24565  10.487   1.154   9.158  2.1066  2.2258 -1.7705
  923MOL0     H24566  10.655   1.159   8.989  0.7100 -1.4734 -2.8970
  923MOL0     H24567  10.492   1.277   8.452  1.9292  2.5002  0.0825
  923MOL0     H24568  10.605   1.339   8.251  2.6863  1.4576  0.5450
  923MOL0     H24569  10.772   1.125   7.999  2.0002 -0.2829 -1.2670
  923MOL0     H24570  10.675   1.267   8.055  0.4101  1.4635 -0.3059
  923MOL0     H24571  10.965   1.273   7.928 -0.5854  0.4166 -0.3947
  923MOL0     H24572  10.820   1.310   7.850  2.7105 -1.9441 -1.9396
  923MOL0     H24573  10.760   1.500   8.003 -1.1891 -1.7107 -0.4973
  923MOL0     H24574  10.910   1.471   8.095  1.8735  0.5280 -0.6625
  923MOL0     H24575  10.877   1.627   7.852  1.0915 -0.3116 -0.5590
  923MOL0     H24576  10.955   1.487   7.795  1.7265  0.8792 -0.8542
  923MOL0     H24577  11.136   1.512   7.984 -0.6810 -1.4116 -2.5771
  923MOL0     H24578  11.060   1.675   8.004 -1.4404 -0.2783 -0.6144
  923MOL0     H24579  11.172   1.541   7.767  0.2881 -1.3966  2.6326
  923MOL0     H24580  11.116   1.699   7.745  1.3157 -0.0078 -0.2875
  923MOL0     H24581  11.324   1.633   7.967  0.2617  2.7600  1.0857
  923MOL0     H24582  11.308   1.786   7.887 -1.0010 -0.3102  0.4830
  923MOL0     H24583  11.426   1.530   7.786 -0.6590  0.5703 -2.2488
  923MOL0     H24584  11.408   1.679   7.677  0.8643 -2.3491 -1.3369
  923MOL0     H24585  10.903   1.035   8.324  0.0859  0.5489 -0.7543
  923MOL0     H24586  10.751   0.948   8.504 -2.2927 -0.5923 -0.6139
  923MOL0     H24587  10.435   0.893   8.754 -1.1643 -0.1696  0.3049
  923MOL0     H24588  10.253   0.861   8.941  0.8213 -1.3206 -1.0895
  923MOL0     H24589  10.364   1.266  10.949  0.0272 -0.4500  1.5349
  923MOL0     H24590  10.359   1.275  11.173 -0.6969 -2.4543  2.5486
  923MOL0     H24591  10.216   1.231  11.548 -2.6929 -0.5219 -1.7359
  923MOL0     H24592  10.244   1.234  11.808  1.1986  0.7799 -0.1758
  923MOL0     H24593   9.901   1.304  11.962  1.3842  0.0550 -2.2755
  923MOL0     H24594   9.960   1.365  12.117 -1.0226  0.8037 -1.9711
  923MOL0     H24595   9.980   1.160  12.177  2.6616  0.5127  0.5978
  923MOL0     H24596  10.141   1.182  12.118  0.5375  3.8845 -0.3599
  923MOL0     H24597  10.089   1.078  11.902 -0.4385  3.1272  0.7001
  923MOL0     H24598   9.920   1.071  11.935  1.3560  2.5055 -1.2572
  923MOL0     H24599  10.133   0.921  12.100  1.2230  2.4104 -1.5724
  923MOL0     H24600   9.947   0.917  12.104 -0.5546  0.4797 -1.3928
  923MOL0     H24601   9.989   0.715  11.749 -2.1215  2.4547 -0.4817
  923MOL0     H24602   9.955   1.530  11.837  2.5316  3.0680  0.2338
  923MOL0     H24603   9.877   1.652  11.646 -2.1659  1.7479 -2.7787
  923MOL0     H24604   9.992   1.667  11.514  0.5922 -0.9261  0.0354
  923MOL0     H24605   9.844   1.550  11.509 -1.2655 -2.8131  2.2702
  924MOL0     O24606  11.357   8.858   1.386 -0.7397 -0.1474 -0.5791
  924MOL0     C24607  11.330   8.923   1.287  0.8817  0.1766  1.0099
  924MOL0     O24608  11.398   9.022   1.227 -0.3390 -1.2790 -0.3409
  924MOL0     C24609  11.517   9.056   1.289  1.0605  0.3064  0.8297
  924MOL0     C24610  11.532   9.187   1.346 -0.5108 -0.6108 -0.2620
  924MOL0     C24611  11.657   9.231   1.388 -0.5243 -0.2532 -0.1955
  924MOL0     C24612  11.770   9.148   1.383  0.4459 -0.3458 -0.2095
  924MOL0     O24613  11.879   9.193   1.448 -0.3109 -0.4564  0.8564
  924MOL0     C24614  12.012   9.170   1.390  0.1497  0.2155  0.2514
  924MOL0     C24615  12.112   9.221   1.495  0.0140 -0.0743  0.1502
  924MOL0     C24616  12.260   9.194   1.461  0.9744  0.6859  0.4862
  924MOL0     C24617  12.354   9.250   1.562 -0.5931  0.0772 -0.1763
  924MOL0     C24618  12.499   9.177   1.547  0.1609  1.1801 -0.3694
  924MOL0     C24619  12.567   9.147   1.679  0.1270 -0.5888 -1.4362
  924MOL0     C24620  12.704   9.066   1.645 -0.4152  0.5858  0.8461
  924MOL0     C24621  12.778   9.027   1.769 -0.1006  0.3115 -0.3912
  924MOL0     N24622  12.836   9.137   1.852 -0.8133 -0.4134 -0.8223
  924MOL0     C24623  12.877   9.255   1.808 -0.4023 -0.2363  0.2061
  924MOL0     C24624  12.918   9.323   1.920 -0.6823 -0.1070  0.9062
  924MOL0     C24625  12.964   9.468   1.925  0.3608 -0.1321  0.1355
  924MOL0     C24626  13.047   9.516   1.806  1.2330  0.7017 -1.0287
  924MOL0     C24627  12.967   9.581   1.699  0.2466  0.2285  0.5955
  924MOL0     C24628  13.050   9.607   1.573  0.1968 -0.1343 -0.0547
  924MOL0     O24629  13.021   9.499   1.486  0.0558 -0.2080 -0.2959
  924MOL0     C24630  12.900   9.488   1.430 -0.6257  0.0554 -0.3958
  924MOL0     C24631  12.878   9.363   1.371  0.1226  0.2334 -0.8734
  924MOL0     C24632  12.763   9.336   1.309 -0.7938 -0.3517  0.1824
  924MOL0     C24633  12.662   9.418   1.311  0.5209  0.1431  0.1232
  924MOL0     C24634  12.530   9.382   1.248  0.1915 -0.2319 -0.1594
  924MOL0     O24635  12.507   9.256   1.193  0.0349  0.2903  1.0863
  924MOL0     C24636  12.404   9.223   1.121  0.1287 -0.4932  0.5021
  924MOL0     C24637  12.318   9.308   1.038  0.1474  0.0015  0.2329
  924MOL0     C24638  12.202   9.265   0.980 -0.2524  0.8221  0.2070
  924MOL0     C24639  12.173   9.124   0.985 -0.3600 -0.4680 -0.6307
  924MOL0     O24640  12.060   9.065   0.923 -0.2218 -0.3174  0.6794
  924MOL0     C24641  11.930   9.135   0.923 -0.8564 -0.3454  0.0885
  924MOL0     C24642  11.814   9.057   0.868  0.0678 -0.7648 -0.3692
  924MOL0     C24643  11.787   8.927   0.935 -0.4505  0.0660 -0.1084
  924MOL0     C24644  11.654   8.863   0.891 -0.6875  0.2727  0.4672
  924MOL0     C24645  11.639   8.720   0.939  0.6627 -0.2527 -0.2628
  924MOL0     C24646  11.742   8.619   0.888  0.1660 -0.0820  0.2009
  924MOL0     C24647  11.701   8.482   0.936  0.3765  0.5683  0.1478
  924MOL0     C24648  11.804   8.369   0.902  0.3847 -0.2051  0.2632
  924MOL0    Cl24649  11.948   8.370   1.010  0.8236  0.0315 -0.0057
  924MOL0     C24650  12.261   9.041   1.052  0.4518 -0.9005  0.3447
  924MOL0     C24651  12.376   9.094   1.122  0.9796  0.0005  0.2082
  924MOL0     O24652  12.445   9.482   1.231 -0.3806 -0.5965 -0.0622
  924MOL0     C24653  12.685   9.544   1.373  0.5402  0.6276 -0.1671
  924MOL0     C24654  12.800   9.587   1.430 -1.5871 -0.0318  0.5234
  924MOL0     N24655  12.904   9.249   2.029 -0.0342  0.2625 -0.4213
  924MOL0     N24656  12.872   9.129   1.990 -0.3002 -0.1629  0.4566
  924MOL0     C24657  11.760   9.023   1.309 -0.0018 -0.2362  0.1226
  924MOL0     C24658  11.632   8.974   1.266  0.4119  0.3308 -0.5219
  924MOL0     C24659  11.192   8.903   1.241  0.2235  0.3141  0.0250
  924MOL0     C24660  11.089   8.901   1.338 -0.2863  0.7820 -0.6661
  924MOL0     C24661  10.960   8.863   1.303  1.0276  0.3212 -0.0935
  924MOL0     C24662  10.936   8.844   1.165  1.1251  0.6228 -0.4615
  924MOL0     O24663  10.816   8.788   1.111  0.1526  0.0559  0.0642
  924MOL0     C24664  10.701   8.785   1.199  0.0183 -0.4893 -0.8225
  924MOL0     C24665  10.574   8.746   1.127  0.5659  0.3999  0.7818
  924MOL0     C24666  10.462   8.748   1.224  0.1696 -1.3658  0.0626
  924MOL0     C24667  10.369   8.628   1.205  0.0112  0.9633 -0.0945
  924MOL0     C24668  10.408   8.516   1.290  0.9467  0.6422  0.8152
  924MOL0     C24669  10.433   8.420   1.364  0.5804  0.1676  0.1251
  924MOL0     C24670  11.038   8.858   1.071  0.7198 -0.0930  0.3331
  924MOL0     C24671  11.166   8.888   1.103 -0.4818  0.0566 -1.0994
  924MOL0     C24672  11.260   8.914   0.994  0.1336  1.3354 -0.7997
  924MOL0     H24673  11.446   9.253   1.347 -0.3850 -0.4479 -0.3211
  924MOL0     H24674  11.671   9.330   1.431 -0.0008 -0.3142 -0.2189
  924MOL0     H24675  12.027   9.062   1.379  0.6539 -0.2347  4.0189
  924MOL0     H24676  12.031   9.219   1.293  1.5846  0.7272  0.7593
  924MOL0     H24677  12.086   9.184   1.595 -1.0899  1.5528  0.5085
  924MOL0     H24678  12.101   9.329   1.509  0.3908 -0.2114  1.7937
  924MOL0     H24679  12.271   9.250   1.367 -0.8395 -0.8468 -0.7288
  924MOL0     H24680  12.268   9.085   1.451  2.8318  0.7369  1.0005
  924MOL0     H24681  12.354   9.359   1.565 -1.1835  0.0570  1.9523
  924MOL0     H24682  12.313   9.235   1.662  2.4506  1.3211  1.4050
  924MOL0     H24683  12.473   9.077   1.511 -3.6223  1.4555  1.1701
  924MOL0     H24684  12.565   9.218   1.470  2.6017  0.7186  1.3520
  924MOL0     H24685  12.589   9.246   1.721 -0.1644 -1.8169  1.8666
  924MOL0     H24686  12.499   9.092   1.744 -0.2741  0.4478 -0.9585
  924MOL0     H24687  12.773   9.124   1.583 -3.2607  3.7694  0.4268
  924MOL0     H24688  12.678   8.976   1.588 -1.4923  0.0476  2.1394
  924MOL0     H24689  12.724   8.951   1.826 -1.4563 -0.9022 -3.0942
  924MOL0     H24690  12.867   8.976   1.731  0.5856 -0.3576  1.9862
  924MOL0     H24691  12.879   9.297   1.708  3.5434  2.7835  1.2692
  924MOL0     H24692  12.876   9.533   1.925 -1.0296 -1.8780 -2.1515
  924MOL0     H24693  13.021   9.481   2.018  1.6702  1.8571 -0.8607
  924MOL0     H24694  13.129   9.581   1.837  0.4924  0.7985  0.8546
  924MOL0     H24695  13.080   9.427   1.752 -2.4286 -3.3650  2.6512
  924MOL0     H24696  12.928   9.682   1.718 -1.1434 -0.9020  5.0730
  924MOL0     H24697  12.887   9.511   1.675  1.3304 -0.8514  0.0176
  924MOL0     H24698  13.151   9.599   1.614  0.7183 -0.8556 -1.4092
  924MOL0     H24699  13.030   9.703   1.524 -2.7565 -1.0398 -0.8009
  924MOL0     H24700  12.954   9.285   1.367 -0.8828 -0.9385  1.1849
  924MOL0     H24701  12.756   9.246   1.249 -0.4913  1.7899 -3.3506
  924MOL0     H24702  12.339   9.414   1.032 -4.1032  0.9981 -0.0991
  924MOL0     H24703  12.136   9.333   0.928  0.2659  0.8512 -0.4337
  924MOL0     H24704  11.914   9.163   1.028  1.3512 -0.1336  0.4144
  924MOL0     H24705  11.938   9.221   0.856 -1.6714 -0.1439  0.2387
  924MOL0     H24706  11.722   9.115   0.880  0.9011  1.0015 -1.9948
  924MOL0     H24707  11.837   9.052   0.761  1.6080 -2.1304 -0.0116
  924MOL0     H24708  11.868   8.861   0.900  1.1478  1.3593  1.0114
  924MOL0     H24709  11.791   8.922   1.044 -1.2345 -2.9227 -0.1316
  924MOL0     H24710  11.639   8.868   0.783 -1.3846  1.4493  0.5991
  924MOL0     H24711  11.578   8.924   0.941  0.7776  2.5678  0.0356
  924MOL0     H24712  11.537   8.688   0.916  0.0507  0.2602  1.5619
  924MOL0     H24713  11.634   8.720   1.049 -1.2624 -0.4661 -0.3232
  924MOL0     H24714  11.759   8.631   0.781  3.4556 -0.4142  0.5707
  924MOL0     H24715  11.841   8.644   0.929  1.3644 -0.1640 -2.4603
  924MOL0     H24716  11.603   8.446   0.903  2.5216 -3.7690 -2.4625
  924MOL0     H24717  11.684   8.488   1.044 -1.0100  4.2778 -0.1232
  924MOL0     H24718  11.749   8.276   0.918 -0.8500  0.2443 -1.1747
  924MOL0     H24719  11.839   8.380   0.799  1.0203 -1.2886  0.3490
  924MOL0     H24720  12.248   8.933   1.043  3.5789 -1.3308 -0.0704
  924MOL0     H24721  12.447   9.030   1.173 -0.0663 -0.3971  1.2050
  924MOL0     H24722  12.594   9.603   1.378  0.2691  0.2045 -0.1169
  924MOL0     H24723  12.809   9.678   1.487  3.9473 -1.6725  2.9001
  924MOL0     H24724  11.854   8.973   1.285  0.9405  1.2938  0.5225
  924MOL0     H24725  11.618   8.875   1.223  1.9585  0.9009 -2.5229
  924MOL0     H24726  11.129   8.907   1.439  0.5053 -0.5024 -0.8869
  924MOL0     H24727  10.886   8.842   1.379  3.1834 -1.3033  1.6670
  924MOL0     H24728  10.687   8.871   1.265 -0.7541 -1.5811  0.4992
  924MOL0     H24729  10.725   8.709   1.275  0.2115  0.8910  0.5551
  924MOL0     H24730  10.587   8.649   1.079 -1.0838  0.7593 -0.4634
  924MOL0     H24731  10.539   8.806   1.042  0.0460 -0.5467  0.3129
  924MOL0     H24732  10.400   8.835   1.202  1.7200 -0.1884  0.1590
  924MOL0     H24733  10.499   8.762   1.326 -2.0802  4.8948  0.4959
  924MOL0     H24734  10.263   8.656   1.205 -0.5539 -1.0304 -0.0764
  924MOL0     H24735  10.379   8.583   1.106  0.1441 -0.7666  0.6699
  924MOL0     H24736  10.452   8.336   1.429  1.3600  0.3867  0.1870
  924MOL0     H24737  11.001   8.856   0.969  0.5789  1.8331  0.3165
  924MOL0     H24738  11.195   8.945   0.912 -1.4696 -0.2296 -0.1752
  924MOL0     H24739  11.339   8.988   1.010  0.9429  0.4846 -0.7177
  924MOL0     H24740  11.309   8.819   0.970  0.4210  1.0876  0.6918
  925MOL0     O24741   1.234   9.269   3.354 -0.7555 -0.3710 -0.0703
  925MOL0     C24742   1.175   9.202   3.440 -0.4328 -0.6079 -0.0966
  925MOL0     O24743   1.217   9.183   3.571 -0.3536  0.4864  0.3208
  925MOL0     C24744   1.350   9.205   3.602 -0.4066  0.4219 -0.1360
  925MOL0     C24745   1.375   9.262   3.731  0.0020  0.5398  0.9055
  925MOL0     C24746   1.506   9.291   3.774  0.2576  1.0519 -0.0416
  925MOL0     C24747   1.615   9.252   3.686  1.2808 -0.8013  0.2789
  925MOL0     O24748   1.745   9.277   3.711 -0.5397 -0.0057 -0.6704
  925MOL0     C24749   1.769   9.410   3.760  0.9818  1.1806 -0.2267
  925MOL0     C24750   1.887   9.480   3.688 -0.1070 -0.6791 -0.3752
  925MOL0     C24751   2.026   9.430   3.721  1.0919  0.2700  0.8208
  925MOL0     C24752   2.127   9.540   3.682 -0.1542 -0.5316  0.8287
  925MOL0     C24753   2.269   9.500   3.721  0.6678 -0.1765 -0.7865
  925MOL0     C24754   2.312   9.573   3.852  0.7415 -0.1145  1.1922
  925MOL0     C24755   2.457   9.546   3.883 -0.5620 -0.3421  0.8112
  925MOL0     C24756   2.491   9.404   3.933 -0.3305  0.1243 -0.1188
  925MOL0     N24757   2.452   9.381   4.072  1.0347 -0.3246 -0.0764
  925MOL0     C24758   2.494   9.451   4.180 -0.8238  0.2637 -0.1030
  925MOL0     C24759   2.418   9.415   4.277  0.4265 -0.6683 -0.4526
  925MOL0     C24760   2.406   9.477   4.406  0.7125  0.4965  0.0450
  925MOL0     C24761   2.535   9.469   4.492  0.4920 -0.4027 -0.7210
  925MOL0     C24762   2.509   9.548   4.622 -0.5926 -1.3630 -0.8734
  925MOL0     C24763   2.639   9.559   4.706 -0.1881  0.4345  0.5533
  925MOL0     O24764   2.712   9.442   4.702 -0.2825  0.3713  0.2682
  925MOL0     C24765   2.845   9.445   4.661 -0.9600 -0.0899 -0.2337
  925MOL0     C24766   2.900   9.312   4.648 -0.1013  0.0056  0.7161
  925MOL0     C24767   3.035   9.293   4.637 -0.2922  0.1968  0.5037
  925MOL0     C24768   3.129   9.397   4.635 -0.8925  0.3821  1.1047
  925MOL0     C24769   3.272   9.377   4.625 -0.1631  0.6576 -0.5129
  925MOL0     O24770   3.344   9.490   4.596  0.0441  0.4357 -0.0154
  925MOL0     C24771   3.483   9.494   4.601  0.1267 -0.8106 -0.2243
  925MOL0     C24772   3.581   9.392   4.634 -0.2664  0.1392  0.0373
  925MOL0     C24773   3.720   9.418   4.633 -0.8135  0.1017  0.9072
  925MOL0     C24774   3.765   9.547   4.604  0.2306 -0.2035 -0.5707
  925MOL0     O24775   3.901   9.571   4.581  0.6550 -0.2159 -0.1047
  925MOL0     C24776   3.939   9.685   4.665 -0.1599 -0.2247 -0.9060
  925MOL0     C24777   4.091   9.706   4.689 -0.0245  0.8191  0.3959
  925MOL0     C24778   4.186   9.663   4.572  0.3453  0.1576  0.8467
  925MOL0     C24779   4.336   9.675   4.618 -0.1415  0.0356 -0.2640
  925MOL0     C24780   4.445   9.718   4.507 -0.0925 -0.1377 -0.0520
  925MOL0     C24781   4.589   9.721   4.552 -0.1702 -0.2700  0.5303
  925MOL0     C24782   4.610   9.812   4.672  0.7719 -0.6583  1.1234
  925MOL0     C24783   4.579   9.957   4.630  0.4388 -0.3222 -0.5574
  925MOL0    Cl24784   4.593  10.056   4.777  0.2560  0.3541  0.2898
  925MOL0     C24785   3.674   9.654   4.584  0.2438  0.2671  0.5108
  925MOL0     C24786   3.542   9.621   4.575 -0.2008  0.5940  0.6852
  925MOL0     O24787   3.312   9.256   4.638  0.2270  0.1644  0.0723
  925MOL0     C24788   3.076   9.528   4.652 -0.1492  0.3583 -0.0127
  925MOL0     C24789   2.936   9.549   4.676  0.5652  0.6808  0.2517
  925MOL0     N24790   2.336   9.315   4.237 -0.3233  0.2619 -0.1743
  925MOL0     N24791   2.349   9.296   4.108 -0.4165 -1.2223 -0.1985
  925MOL0     C24792   1.589   9.198   3.558  0.1136  0.5299 -0.0346
  925MOL0     C24793   1.456   9.177   3.520  1.0646  0.1815 -0.7606
  925MOL0     C24794   1.039   9.153   3.408  0.0900  0.2698  0.3418
  925MOL0     C24795   0.943   9.157   3.509 -0.4986  0.4651 -0.0284
  925MOL0     C24796   0.813   9.130   3.482 -0.3643 -0.0461 -0.2825
  925MOL0     C24797   0.773   9.100   3.354 -0.0480  0.2194  0.2679
  925MOL0     O24798   0.641   9.060   3.334  0.0913 -0.3974  0.0198
  925MOL0     C24799   0.595   9.016   3.205  0.7814  0.2620  0.1177
  925MOL0     C24800   0.456   8.957   3.210 -0.2047 -0.3479  0.5798
  925MOL0     C24801   0.352   9.032   3.297  0.1899 -0.3371 -0.0767
  925MOL0     C24802   0.345   9.178   3.265  0.0388 -0.6225  0.0336
  925MOL0     C24803   0.382   9.216   3.127  1.2336  0.0042  0.0603
  925MOL0     C24804   0.416   9.267   3.020 -0.1787  0.5196  0.7691
  925MOL0     C24805   0.875   9.090   3.255  0.1782 -0.4452 -0.5264
  925MOL0     C24806   1.007   9.114   3.275 -0.0218  0.4214  0.1533
  925MOL0     C24807   1.106   9.072   3.163  0.4502  0.6407 -0.1222
  925MOL0     H24808   1.295   9.276   3.802 -0.9523 -3.4784  0.8267
  925MOL0     H24809   1.523   9.307   3.879  1.2738 -3.2014  0.6248
  925MOL0     H24810   1.688   9.482   3.752  0.8221  0.9723 -0.5186
  925MOL0     H24811   1.796   9.401   3.865 -0.2870 -0.8694 -0.0220
  925MOL0     H24812   1.887   9.584   3.723  0.6284 -1.2494  1.4885
  925MOL0     H24813   1.882   9.475   3.579 -0.0658 -2.1986 -0.3350
  925MOL0     H24814   2.040   9.340   3.660 -0.4532  0.3234  0.3261
  925MOL0     H24815   2.044   9.410   3.827  2.6403  2.5939  1.0615
  925MOL0     H24816   2.116   9.555   3.574  0.2066  2.0648  1.0932
  925MOL0     H24817   2.102   9.642   3.713 -4.4073  0.0752 -3.3163
  925MOL0     H24818   2.276   9.393   3.746  0.0897 -0.5419 -2.0893
  925MOL0     H24819   2.333   9.523   3.636 -0.4049  2.5537 -0.9610
  925MOL0     H24820   2.294   9.680   3.834  1.0464  0.0835  2.0200
  925MOL0     H24821   2.244   9.544   3.933 -1.0536 -2.9793 -1.1495
  925MOL0     H24822   2.479   9.623   3.958 -1.8347  0.6420  0.2254
  925MOL0     H24823   2.516   9.574   3.795  1.8564 -0.4047  2.3518
  925MOL0     H24824   2.439   9.332   3.869  1.4061  0.6001 -2.2255
  925MOL0     H24825   2.597   9.377   3.930 -0.5223 -0.8304  1.0640
  925MOL0     H24826   2.562   9.535   4.174 -0.4281 -0.1500 -3.1649
  925MOL0     H24827   2.370   9.581   4.406  0.0768  0.2822  0.0952
  925MOL0     H24828   2.332   9.421   4.464  0.5494 -0.0621 -0.6962
  925MOL0     H24829   2.561   9.364   4.511 -0.7327 -0.5155  0.5085
  925MOL0     H24830   2.625   9.505   4.442  1.5230 -1.5386  0.2371
  925MOL0     H24831   2.433   9.508   4.690  1.0063 -1.4910  0.9277
  925MOL0     H24832   2.479   9.650   4.596 -1.3487 -1.5043 -0.5909
  925MOL0     H24833   2.619   9.589   4.809  3.3896  0.5693  1.3445
  925MOL0     H24834   2.693   9.642   4.657 -0.9331  0.2189 -0.6667
  925MOL0     H24835   2.824   9.235   4.643 -0.3228  0.1376  1.7533
  925MOL0     H24836   3.078   9.194   4.631  2.7154  1.0568  4.1147
  925MOL0     H24837   3.547   9.291   4.653 -1.0766  0.4405  0.2341
  925MOL0     H24838   3.789   9.335   4.641 -1.1746 -0.0740  2.6138
  925MOL0     H24839   3.901   9.771   4.609 -1.3792  2.3357  3.3298
  925MOL0     H24840   3.892   9.696   4.763 -0.8448 -0.4780 -1.1986
  925MOL0     H24841   4.118   9.802   4.733 -0.9234  1.4848 -0.4599
  925MOL0     H24842   4.126   9.629   4.758 -0.7577 -2.7792 -2.8413
  925MOL0     H24843   4.167   9.557   4.550  2.1793  0.1808 -1.2284
  925MOL0     H24844   4.169   9.718   4.479 -0.6478  0.0734  0.9680
  925MOL0     H24845   4.362   9.587   4.677  0.4485  0.7791  0.6138
  925MOL0     H24846   4.341   9.749   4.699  0.6628 -2.0099  1.6326
  925MOL0     H24847   4.417   9.816   4.468 -4.6407 -1.2314 -0.0596
  925MOL0     H24848   4.440   9.660   4.414 -1.5900 -0.0838 -0.0169
  925MOL0     H24849   4.613   9.619   4.583 -3.0760 -0.5873  2.0760
  925MOL0     H24850   4.656   9.755   4.472 -0.8856 -0.5512 -0.2047
  925MOL0     H24851   4.713   9.824   4.705  1.3657  0.0927 -0.8283
  925MOL0     H24852   4.554   9.766   4.754  0.6136 -3.5324 -0.4816
  925MOL0     H24853   4.642   9.986   4.545  0.7479 -0.0013 -0.2261
  925MOL0     H24854   4.479   9.976   4.590  1.5529 -0.8214 -3.9331
  925MOL0     H24855   3.693   9.759   4.566 -4.3050  0.9231 -2.0011
  925MOL0     H24856   3.479   9.703   4.542 -2.5185 -1.8724 -1.5346
  925MOL0     H24857   3.148   9.609   4.658  3.1298 -2.2849 -0.8328
  925MOL0     H24858   2.900   9.650   4.695 -3.4602 -0.8488  1.6848
  925MOL0     H24859   1.675   9.158   3.505 -0.2111 -0.6509  0.3122
  925MOL0     H24860   1.421   9.123   3.432 -4.2947 -2.7698  2.6158
  925MOL0     H24861   0.970   9.197   3.606 -1.0737 -1.4017  0.9515
  925MOL0     H24862   0.739   9.126   3.561  0.3641 -1.7926  0.3799
  925MOL0     H24863   0.655   8.928   3.183  1.1760  0.0992  1.7405
  925MOL0     H24864   0.600   9.090   3.125 -2.6728  0.8140  0.2538
  925MOL0     H24865   0.462   8.857   3.253 -1.6999 -1.9698 -2.6963
  925MOL0     H24866   0.403   8.926   3.120 -2.4367 -0.0679  1.7196
  925MOL0     H24867   0.382   9.020   3.402 -1.2501  0.1851  0.4200
  925MOL0     H24868   0.255   8.982   3.288 -0.5545  0.9219  0.6656
  925MOL0     H24869   0.239   9.200   3.277  0.1660  0.2539 -0.3304
  925MOL0     H24870   0.395   9.244   3.337 -0.3253  0.2060 -0.4576
  925MOL0     H24871   0.453   9.314   2.931  2.1758  1.6412  2.2186
  925MOL0     H24872   0.847   9.055   3.156  2.9763 -1.8732 -0.8997
  925MOL0     H24873   1.094   8.966   3.141 -2.1714  0.1700  2.8668
  925MOL0     H24874   1.099   9.130   3.070  1.0727  1.4589  0.3312
  925MOL0     H24875   1.207   9.082   3.202  0.3246 -1.2850  0.7971
  926MOL0     O24876   7.516   4.184   6.262 -0.1412  1.0261 -0.4111
  926MOL0     C24877   7.526   4.309   6.270  0.0108 -0.0032  0.0186
  926MOL0     O24878   7.636   4.372   6.319 -0.3820  0.0409  0.7175
  926MOL0     C24879   7.755   4.314   6.340  0.0197  0.3869 -0.2815
  926MOL0     C24880   7.841   4.369   6.432  0.3728 -0.4983 -1.0095
  926MOL0     C24881   7.977   4.333   6.444  0.8674 -0.7103  0.6384
  926MOL0     C24882   8.026   4.243   6.349 -0.9958 -0.5736  0.0924
  926MOL0     O24883   8.159   4.202   6.341 -0.4227 -0.3545  0.1517
  926MOL0     C24884   8.258   4.279   6.414  0.8539 -0.2905 -0.4075
  926MOL0     C24885   8.390   4.222   6.376 -0.5151  0.1193 -0.6908
  926MOL0     C24886   8.485   4.289   6.474 -0.7753 -0.2282  1.5009
  926MOL0     C24887   8.632   4.262   6.447  0.3094  0.7568 -0.0075
  926MOL0     C24888   8.690   4.314   6.308  0.0370 -0.5905 -0.0312
  926MOL0     C24889   8.843   4.335   6.321 -0.7023 -0.4011 -0.8162
  926MOL0     C24890   8.906   4.426   6.207 -0.1584 -0.1913 -0.5572
  926MOL0     C24891   9.066   4.410   6.203  0.8401  0.6385 -0.8372
  926MOL0     N24892   9.122   4.491   6.089  0.3188 -0.5688 -0.6567
  926MOL0     C24893   9.143   4.437   5.964 -0.5785  0.0272  0.2684
  926MOL0     C24894   9.191   4.539   5.887 -0.0060  0.0372  0.8908
  926MOL0     C24895   9.215   4.551   5.731 -0.2309 -0.8490  0.0912
  926MOL0     C24896   9.366   4.534   5.703 -0.5323 -0.6401 -0.8595
  926MOL0     C24897   9.435   4.650   5.786  0.0925  0.2397  0.3294
  926MOL0     C24898   9.584   4.678   5.754  0.3058  0.1830  0.8091
  926MOL0     O24899   9.663   4.572   5.794  0.2118  0.7114 -0.0020
  926MOL0     C24900   9.800   4.598   5.796  0.1621  0.7950  0.0143
  926MOL0     C24901   9.870   4.695   5.736 -0.6260 -1.2279 -0.9498
  926MOL0     C24902  10.011   4.702   5.742  0.1683 -0.2004  1.0006
  926MOL0     C24903  10.089   4.591   5.789  0.1219 -0.5978 -0.2219
  926MOL0     C24904  10.237   4.583   5.784 -0.0714  0.1169 -0.0977
  926MOL0     O24905  10.303   4.676   5.712 -0.3187 -0.6380  0.1710
  926MOL0     C24906  10.438   4.691   5.743 -0.4754  0.5627 -0.7618
  926MOL0     C24907  10.539   4.592   5.738 -0.0204 -0.3026  1.0278
  926MOL0     C24908  10.672   4.628   5.747  0.1452  0.3478 -0.5852
  926MOL0     C24909  10.713   4.760   5.732 -0.0023 -0.6526  0.2856
  926MOL0     O24910  10.851   4.786   5.735 -0.4362  0.9130  0.1502
  926MOL0     C24911  10.899   4.918   5.753 -0.1374  0.7451 -0.2820
  926MOL0     C24912  11.058   4.915   5.755  0.3888  0.1869  0.2617
  926MOL0     C24913  11.108   4.867   5.626 -1.3785 -0.3943 -0.6067
  926MOL0     C24914  11.265   4.845   5.619 -0.0506  0.2658 -0.8023
  926MOL0     C24915  11.298   4.775   5.485  0.5164  0.5818  0.5196
  926MOL0     C24916  11.443   4.717   5.508 -0.1350 -0.5107  0.2401
  926MOL0     C24917  11.495   4.642   5.387 -0.0327 -0.4110 -0.3490
  926MOL0     C24918  11.420   4.522   5.356  0.6536 -1.4489 -0.1666
  926MOL0    Cl24919  11.479   4.417   5.224 -1.0324 -0.0956 -0.1396
  926MOL0     C24920  10.618   4.860   5.748  0.9344 -0.4842 -0.2149
  926MOL0     C24921  10.482   4.823   5.753  0.4555 -0.5389  0.6841
  926MOL0     O24922  10.296   4.505   5.868 -0.4973  0.5334  0.7152
  926MOL0     C24923  10.015   4.492   5.853  0.3043  0.1434  0.7608
  926MOL0     C24924   9.877   4.491   5.849  0.2111 -0.1607  0.4248
  926MOL0     N24925   9.195   4.647   5.974  0.4362 -0.4111 -0.2008
  926MOL0     N24926   9.148   4.623   6.090 -0.0379  0.3655 -0.2540
  926MOL0     C24927   7.947   4.185   6.250 -0.7958  0.3707 -0.5444
  926MOL0     C24928   7.807   4.218   6.244  0.2924 -1.0016 -1.2986
  926MOL0     C24929   7.423   4.401   6.215  0.0504  0.8014 -0.2486
  926MOL0     C24930   7.409   4.529   6.268 -0.3739 -0.2577 -0.1837
  926MOL0     C24931   7.308   4.613   6.227  0.7647 -1.2867  0.7662
  926MOL0     C24932   7.226   4.588   6.112 -0.9830 -0.1595 -0.3477
  926MOL0     O24933   7.166   4.699   6.045 -0.6641  0.3026 -0.3544
  926MOL0     C24934   7.155   4.690   5.903  0.3420 -0.2410  0.8638
  926MOL0     C24935   7.065   4.804   5.860 -0.2484 -0.5026  0.1728
  926MOL0     C24936   7.111   4.934   5.915 -0.1748  0.4221 -0.0927
  926MOL0     C24937   7.068   5.055   5.824  0.8521  0.3513 -1.0425
  926MOL0     C24938   7.128   5.062   5.693  0.9979  0.2710  0.2149
  926MOL0     C24939   7.157   5.058   5.578 -0.3892 -0.9023  0.0571
  926MOL0     C24940   7.233   4.456   6.069 -0.6306  0.6279 -0.0637
  926MOL0     C24941   7.328   4.362   6.113  0.3000 -0.1261  1.2337
  926MOL0     C24942   7.325   4.224   6.038 -0.2761 -0.5320  0.5150
  926MOL0     H24943   7.803   4.447   6.496  1.0951  0.2809 -1.5165
  926MOL0     H24944   8.042   4.398   6.502  0.2203  2.5041 -1.9725
  926MOL0     H24945   8.256   4.388   6.409  0.9942 -0.0498  2.5787
  926MOL0     H24946   8.239   4.258   6.520 -0.8967  1.9423 -0.2099
  926MOL0     H24947   8.409   4.239   6.270 -2.9369  0.2240 -1.1844
  926MOL0     H24948   8.395   4.115   6.399  1.6798  0.6290  1.6718
  926MOL0     H24949   8.460   4.246   6.572 -3.2274 -0.9889  0.6109
  926MOL0     H24950   8.464   4.397   6.467 -0.1646 -0.0885  1.7257
  926MOL0     H24951   8.683   4.317   6.527 -0.1558  1.8701 -0.4627
  926MOL0     H24952   8.655   4.155   6.449  0.9715  0.7246 -3.6642
  926MOL0     H24953   8.673   4.244   6.226  0.3109  1.6444 -2.0830
  926MOL0     H24954   8.640   4.408   6.284  1.2964  0.3521  0.9543
  926MOL0     H24955   8.862   4.392   6.412 -0.6343  2.0470 -2.2730
  926MOL0     H24956   8.888   4.236   6.326  3.1513  1.1535 -1.1863
  926MOL0     H24957   8.883   4.529   6.233  0.0184  0.2955 -2.2139
  926MOL0     H24958   8.853   4.405   6.114 -1.0713 -0.7474  0.0721
  926MOL0     H24959   9.104   4.449   6.298  0.9042  0.6467 -0.8666
  926MOL0     H24960   9.092   4.304   6.201 -4.3048 -1.0209  1.8884
  926MOL0     H24961   9.110   4.336   5.943 -1.4436  0.6924 -1.8301
  926MOL0     H24962   9.174   4.467   5.674  3.1996 -1.1579 -2.2710
  926MOL0     H24963   9.198   4.653   5.697  1.5862 -0.9930 -1.4257
  926MOL0     H24964   9.404   4.438   5.738  0.9899  0.5556  1.0062
  926MOL0     H24965   9.394   4.553   5.599  0.7447  0.9344 -0.2788
  926MOL0     H24966   9.436   4.632   5.894  0.5019 -1.7931  0.0232
  926MOL0     H24967   9.379   4.739   5.757 -1.4591 -0.6585  0.4456
  926MOL0     H24968   9.605   4.778   5.793 -0.0801 -0.2451  2.1459
  926MOL0     H24969   9.595   4.693   5.646  2.3318  1.6457  1.1480
  926MOL0     H24970   9.806   4.774   5.696  0.0313  0.6441  1.4285
  926MOL0     H24971  10.066   4.791   5.712  0.8037 -0.7805  0.3989
  926MOL0     H24972  10.505   4.490   5.730 -2.4504  0.4804  0.4213
  926MOL0     H24973  10.755   4.559   5.758 -1.5867 -1.5525  1.2505
  926MOL0     H24974  10.870   4.989   5.675  0.7067  1.5017  0.0689
  926MOL0     H24975  10.850   4.947   5.846 -2.5695  2.9777 -2.1202
  926MOL0     H24976  11.105   5.012   5.771  1.6117 -0.3914  0.3014
  926MOL0     H24977  11.106   4.845   5.824 -1.4759 -0.8077  0.6165
  926MOL0     H24978  11.078   4.761   5.625 -1.9239 -0.2444 -1.3166
  926MOL0     H24979  11.074   4.910   5.531 -1.7724 -2.3633 -1.4221
  926MOL0     H24980  11.292   4.787   5.708 -1.7230 -0.5354 -0.7758
  926MOL0     H24981  11.331   4.932   5.607  0.2300  0.5952  2.2233
  926MOL0     H24982  11.298   4.845   5.401  0.9198 -0.1401 -0.0913
  926MOL0     H24983  11.232   4.689   5.471  0.0047  1.2523 -1.4209
  926MOL0     H24984  11.507   4.798   5.543 -0.6741  0.2997 -0.6045
  926MOL0     H24985  11.437   4.652   5.595 -0.8005  0.5322  0.9831
  926MOL0     H24986  11.594   4.600   5.410  0.6772  1.4969  0.2254
  926MOL0     H24987  11.500   4.713   5.304  0.0918  0.7372  0.6135
  926MOL0     H24988  11.409   4.466   5.450  0.3654 -0.4584  0.4016
  926MOL0     H24989  11.323   4.566   5.330  0.7371  1.2932  3.3431
  926MOL0     H24990  10.639   4.965   5.763  0.8715 -0.6253  0.9843
  926MOL0     H24991  10.406   4.900   5.743 -0.1402 -1.3395 -1.6868
  926MOL0     H24992  10.060   4.405   5.899  0.3509 -0.3681 -0.2306
  926MOL0     H24993   9.811   4.407   5.870 -3.7080  2.2103 -1.2385
  926MOL0     H24994   7.987   4.124   6.170  0.1188  0.8395 -0.4593
  926MOL0     H24995   7.740   4.167   6.176 -0.7327 -1.5472  0.1009
  926MOL0     H24996   7.476   4.560   6.348 -0.2518 -0.1561 -0.3246
  926MOL0     H24997   7.300   4.715   6.264 -1.9362  0.0563 -2.8569
  926MOL0     H24998   7.115   4.596   5.862  0.0840  1.6313 -3.8122
  926MOL0     H24999   7.256   4.706   5.865 -0.3977  2.6898 -0.1419
  926MOL0     H25000   6.960   4.786   5.885 -0.0815 -0.8362  0.6465
  926MOL0     H25001   7.064   4.801   5.750  0.9712 -0.9413  0.1681
  926MOL0     H25002   7.220   4.921   5.917 -0.1007  0.8359  2.6151
  926MOL0     H25003   7.100   4.956   6.021  0.9918 -0.9215  0.3387
  926MOL0     H25004   6.960   5.067   5.815  0.5170 -0.7655  0.9012
  926MOL0     H25005   7.107   5.145   5.871  0.0171  2.2880 -3.8073
  926MOL0     H25006   7.176   5.050   5.473 -1.0906 -3.8052  0.0768
  926MOL0     H25007   7.175   4.414   5.988  0.0280 -2.0443  0.7446
  926MOL0     H25008   7.426   4.187   6.021 -0.3265  0.2977 -2.1765
  926MOL0     H25009   7.272   4.150   6.098  0.2067  0.3878  2.1474
  926MOL0     H25010   7.283   4.240   5.938  1.6109 -0.7936 -0.3466
  927MOL0     O25011   1.829  10.592   7.948  0.3351  0.5796 -0.2278
  927MOL0     C25012   1.768  10.655   7.868  0.0254 -0.9695 -0.7024
  927MOL0     O25013   1.818  10.760   7.800  0.0559  0.6012  0.2723
  927MOL0     C25014   1.934  10.822   7.846  0.6581 -0.0693 -0.8527
  927MOL0     C25015   2.027  10.872   7.757  0.6432 -0.5895 -0.9747
  927MOL0     C25016   2.150  10.922   7.798 -0.4772  0.1642  0.5624
  927MOL0     C25017   2.177  10.928   7.937 -0.3482  0.5533 -0.4941
  927MOL0     O25018   2.289  10.984   7.992  0.0600 -0.5787 -0.2282
  927MOL0     C25019   2.405  10.982   7.905  0.8622  0.7195  0.4553
  927MOL0     C25020   2.534  10.984   7.987  0.3262  0.0031 -1.1094
  927MOL0     C25021   2.555  10.850   8.069  0.2644  0.2562 -0.6652
  927MOL0     C25022   2.635  10.745   7.982 -0.1460  0.0843  0.4665
  927MOL0     C25023   2.656  10.626   8.069  0.0189  1.1900 -0.0351
  927MOL0     C25024   2.701  10.497   7.991 -0.8973 -0.3403 -0.1582
  927MOL0     C25025   2.712  10.368   8.074 -0.2718  0.5726  0.3850
  927MOL0     C25026   2.709  10.379   8.220 -0.0500 -0.9984 -0.9602
  927MOL0     N25027   2.743  10.255   8.287  0.5278  0.7111 -0.1432
  927MOL0     C25028   2.861  10.228   8.359 -0.6019  0.4554  0.2469
  927MOL0     C25029   2.830  10.122   8.436 -0.3845  0.2255  0.2686
  927MOL0     C25030   2.933  10.066   8.535  0.5912  0.8393 -0.5389
  927MOL0     C25031   2.883  10.106   8.678 -0.2906 -0.2338  0.3357
  927MOL0     C25032   2.879  10.259   8.707  0.2525  1.1679 -0.7383
  927MOL0     C25033   2.839  10.277   8.848 -0.5993 -0.6489 -0.6380
  927MOL0     O25034   2.950  10.242   8.933  0.0506 -0.1178 -1.1857
  927MOL0     C25035   3.041  10.334   8.977 -0.4114 -0.0432  0.1772
  927MOL0     C25036   3.162  10.301   9.041 -0.3314 -0.6753  0.0640
  927MOL0     C25037   3.244  10.407   9.086 -0.2045  0.0096 -0.7707
  927MOL0     C25038   3.221  10.548   9.074  1.1992  0.3409 -0.2810
  927MOL0     C25039   3.321  10.647   9.121 -0.7260  0.4780  0.4649
  927MOL0     O25040   3.425  10.603   9.200  0.4090  0.1771  0.3005
  927MOL0     C25041   3.514  10.707   9.227  0.2511  0.1972 -0.4329
  927MOL0     C25042   3.613  10.737   9.140  1.1421 -0.3668 -0.4058
  927MOL0     C25043   3.703  10.843   9.174 -0.3299 -0.2521 -0.7101
  927MOL0     C25044   3.698  10.902   9.307 -0.3979  0.2424  0.1832
  927MOL0     O25045   3.817  10.968   9.334  0.3534  0.8567  0.0363
  927MOL0     C25046   3.819  11.067   9.436 -0.5173 -0.2713  0.5473
  927MOL0     C25047   3.958  11.130   9.429  0.2689  0.4972 -0.1651
  927MOL0     C25048   4.078  11.025   9.445  0.7554 -0.1588  0.0631
  927MOL0     C25049   4.213  11.093   9.449  0.1811 -0.2776 -0.0112
  927MOL0     C25050   4.336  11.009   9.446 -0.9634  0.5617  0.7597
  927MOL0     C25051   4.427  11.064   9.341 -0.9589  0.4372  0.2471
  927MOL0     C25052   4.495  11.204   9.377  0.4502 -0.0141 -0.0014
  927MOL0     C25053   4.600  11.248   9.278 -0.8116  0.0936 -0.1138
  927MOL0    Cl25054   4.727  11.137   9.258 -0.0861  0.3800  0.0727
  927MOL0     C25055   3.593  10.868   9.395 -1.4150 -0.2903 -0.4648
  927MOL0     C25056   3.502  10.775   9.351 -0.5019  0.1755  0.7202
  927MOL0     O25057   3.304  10.761   9.080  0.6468  0.4316 -0.2937
  927MOL0     C25058   3.108  10.573   9.001 -0.2953 -0.4305  0.6163
  927MOL0     C25059   3.020  10.472   8.954  0.9612 -0.4880 -0.7307
  927MOL0     N25060   2.703  10.074   8.396 -0.4631 -0.0224  0.2202
  927MOL0     N25061   2.651  10.157   8.314 -0.0197  0.4780 -0.2113
  927MOL0     C25062   2.080  10.881   8.031 -0.2846 -0.9147 -0.2654
  927MOL0     C25063   1.958  10.838   7.983  0.4557 -0.0831  0.4479
  927MOL0     C25064   1.647  10.595   7.803  0.7513  0.1848  0.3655
  927MOL0     C25065   1.604  10.650   7.683  0.0856 -0.1027 -0.4598
  927MOL0     C25066   1.493  10.609   7.612  0.3276  0.1534  0.0717
  927MOL0     C25067   1.407  10.512   7.658 -0.0122  1.1259 -0.3161
  927MOL0     O25068   1.303  10.473   7.582  0.3297  0.5556 -0.0840
  927MOL0     C25069   1.242  10.346   7.603 -0.0659  0.0836 -0.2719
  927MOL0     C25070   1.208  10.285   7.468  0.3496 -0.5283  0.5463
  927MOL0     C25071   1.106  10.364   7.392 -0.5788  0.1996 -0.6235
  927MOL0     C25072   1.066  10.315   7.252  0.5367 -0.7309 -0.1955
  927MOL0     C25073   0.977  10.196   7.257 -0.4153 -0.1931 -0.2118
  927MOL0     C25074   0.906  10.092   7.261 -0.4443  0.6906  0.3172
  927MOL0     C25075   1.441  10.461   7.783  0.1498 -0.3795 -0.2164
  927MOL0     C25076   1.566  10.492   7.857  0.4495 -0.6229 -0.3987
  927MOL0     C25077   1.585  10.413   7.981  1.0913  0.1018 -0.3362
  927MOL0     H25078   2.009  10.880   7.650 -1.8401  1.0164 -0.5432
  927MOL0     H25079   2.224  10.960   7.728  1.5391  0.6321  2.8232
  927MOL0     H25080   2.408  10.888   7.848  0.0113  1.1240 -0.2831
  927MOL0     H25081   2.410  11.071   7.842 -0.9707  2.4051  2.5458
  927MOL0     H25082   2.535  11.070   8.055  3.3509 -2.2348  2.0928
  927MOL0     H25083   2.632  11.000   7.941  0.9432  2.0230  0.7559
  927MOL0     H25084   2.456  10.811   8.094  0.7503 -0.6137 -0.0293
  927MOL0     H25085   2.616  10.869   8.158 -1.4796 -0.3264  0.7136
  927MOL0     H25086   2.576  10.713   7.896  3.1159  3.6668 -3.5912
  927MOL0     H25087   2.739  10.765   7.952 -0.7040  1.7917 -0.5194
  927MOL0     H25088   2.736  10.659   8.136 -0.0890 -0.1746  0.8149
  927MOL0     H25089   2.566  10.603   8.128 -0.8009  3.0104 -0.5134
  927MOL0     H25090   2.619  10.485   7.920 -1.1032 -1.5465  0.2606
  927MOL0     H25091   2.799  10.504   7.943 -0.6680  1.6197  0.5241
  927MOL0     H25092   2.809  10.321   8.057 -0.3705  0.3321  0.4796
  927MOL0     H25093   2.631  10.298   8.052  0.7639 -0.1794 -1.2817
  927MOL0     H25094   2.780  10.455   8.256 -0.5737 -0.9508  0.0150
  927MOL0     H25095   2.605  10.389   8.253  0.7866 -0.7575  1.8172
  927MOL0     H25096   2.956  10.280   8.360  0.2440 -1.0120 -0.5124
  927MOL0     H25097   2.930   9.957   8.532 -0.2464  0.7815  1.0801
  927MOL0     H25098   3.037  10.096   8.517  1.6520 -0.4127  2.7748
  927MOL0     H25099   2.786  10.060   8.698  0.7913 -2.5197  0.6552
  927MOL0     H25100   2.955  10.065   8.749  1.5851 -0.0061 -1.3584
  927MOL0     H25101   2.814  10.305   8.632  0.0887 -0.1560 -1.4465
  927MOL0     H25102   2.969  10.317   8.684  0.3494  0.4035 -2.5210
  927MOL0     H25103   2.761  10.205   8.872  0.6865 -1.6345  0.8061
  927MOL0     H25104   2.796  10.377   8.859  0.3755 -0.2522 -0.2835
  927MOL0     H25105   3.176  10.194   9.055  0.2824 -0.9805 -2.3800
  927MOL0     H25106   3.326  10.379   9.150  0.1810 -0.9050 -1.6533
  927MOL0     H25107   3.626  10.693   9.041 -1.5724 -0.5598 -0.7556
  927MOL0     H25108   3.791  10.862   9.115  0.2292  2.6679  0.8933
  927MOL0     H25109   3.745  11.145   9.414  2.4199  2.5688  0.0231
  927MOL0     H25110   3.816  11.026   9.537 -0.4533 -0.1252  0.6084
  927MOL0     H25111   3.987  11.189   9.342  1.6245  0.0686 -0.0373
  927MOL0     H25112   3.955  11.203   9.511 -2.9620 -0.9036  1.1558
  927MOL0     H25113   4.050  10.961   9.529 -1.0330 -0.4171 -0.6802
  927MOL0     H25114   4.063  10.967   9.353  0.2167  0.8320 -0.4944
  927MOL0     H25115   4.211  11.150   9.542 -1.7970 -0.7709  0.3077
  927MOL0     H25116   4.211  11.154   9.359  0.9460 -0.4616 -0.1543
  927MOL0     H25117   4.320  10.905   9.416  0.2851  0.9946 -1.5729
  927MOL0     H25118   4.383  10.992   9.544 -1.6381 -0.2930  0.9543
  927MOL0     H25119   4.507  10.989   9.340 -0.0807  1.0752 -4.6057
  927MOL0     H25120   4.370  11.056   9.248 -1.0792 -2.0952  0.4759
  927MOL0     H25121   4.531  11.204   9.480 -1.9179 -0.5764  0.8795
  927MOL0     H25122   4.419  11.279   9.399 -2.2425 -2.4369 -0.4421
  927MOL0     H25123   4.548  11.254   9.181 -0.8336 -1.7038 -0.2473
  927MOL0     H25124   4.652  11.338   9.311 -1.0854  0.2109  0.0029
  927MOL0     H25125   3.603  10.902   9.498  0.3052 -0.6357 -0.4824
  927MOL0     H25126   3.436  10.745   9.432  0.9440 -1.2745  1.4153
  927MOL0     H25127   3.080  10.676   8.984  1.9688  0.3967  1.5210
  927MOL0     H25128   2.935  10.509   8.898 -0.4463 -1.8826  0.4098
  927MOL0     H25129   2.110  10.895   8.134 -0.4985  0.6890 -0.3956
  927MOL0     H25130   1.883  10.792   8.047  1.4438 -5.4501 -1.7257
  927MOL0     H25131   1.666  10.724   7.634  1.3938 -0.1521  1.0191
  927MOL0     H25132   1.473  10.652   7.515 -0.6223 -0.7992 -0.1676
  927MOL0     H25133   1.155  10.361   7.668 -0.3536 -3.0717  0.2272
  927MOL0     H25134   1.310  10.279   7.656  2.4593  3.8399  1.6678
  927MOL0     H25135   1.163  10.188   7.493  0.5158 -0.8413 -0.3075
  927MOL0     H25136   1.299  10.268   7.409 -0.4599  1.5735 -1.4742
  927MOL0     H25137   1.141  10.467   7.387 -1.4323  0.4566 -1.9689
  927MOL0     H25138   1.013  10.363   7.449 -2.1503 -0.0968 -3.0496
  927MOL0     H25139   1.009  10.395   7.204  3.9804  1.2852 -1.3193
  927MOL0     H25140   1.146  10.289   7.182  1.9002  0.1471  0.9525
  927MOL0     H25141   0.841  10.007   7.267  0.0103  0.2923 -0.2888
  927MOL0     H25142   1.381  10.386   7.833  0.6544 -1.7113 -1.5386
  927MOL0     H25143   1.692  10.425   8.001  1.3603 -2.0068 -0.2381
  927MOL0     H25144   1.524  10.452   8.063  1.5813 -1.0905  0.6305
  927MOL0     H25145   1.568  10.306   7.967  1.3190 -0.2732  1.9040
  928MOL0     O25146  11.318   4.234   2.539  0.3424 -0.2572  0.3650
  928MOL0     C25147  11.264   4.154   2.616  0.1555  0.3408  0.5825
  928MOL0     O25148  11.316   4.047   2.686  0.1849  0.2649 -0.2162
  928MOL0     C25149  11.453   4.040   2.722  0.3465 -0.4059 -0.5742
  928MOL0     C25150  11.479   3.941   2.823  0.2786 -0.6199  0.2614
  928MOL0     C25151  11.607   3.929   2.871  0.3863  0.2289 -1.1166
  928MOL0     C25152  11.704   4.005   2.821 -0.7398 -0.3056  0.8278
  928MOL0     O25153  11.832   3.992   2.862 -0.3986  0.4685 -0.0274
  928MOL0     C25154  11.896   3.872   2.802 -0.1344  0.4685  0.4451
  928MOL0     C25155  11.975   3.915   2.681  0.3736 -0.4373 -0.1763
  928MOL0     C25156  12.028   3.790   2.611  0.7000 -0.0606  0.2845
  928MOL0     C25157  12.159   3.743   2.665  0.5710  0.0070 -0.2724
  928MOL0     C25158  12.282   3.836   2.668  0.5872 -0.0846  1.2016
  928MOL0     C25159  12.292   3.941   2.561  0.1492 -0.5712 -0.5002
  928MOL0     C25160  12.432   4.021   2.585  0.1664 -0.6312 -0.0489
  928MOL0     C25161  12.467   4.108   2.462 -0.2418  0.7772 -0.1054
  928MOL0     N25162  12.376   4.207   2.418 -0.4987 -0.0344 -0.2719
  928MOL0     C25163  12.281   4.177   2.329 -0.8885  0.1958 -0.5898
  928MOL0     C25164  12.211   4.289   2.319 -0.0985 -0.9243 -0.2740
  928MOL0     C25165  12.089   4.313   2.241 -0.9399 -0.1312  0.0403
  928MOL0     C25166  11.965   4.245   2.273 -0.3260 -0.4371 -0.2339
  928MOL0     C25167  11.928   4.246   2.419  0.8558 -0.1720 -0.0723
  928MOL0     C25168  11.898   4.382   2.475  0.0651 -0.6644 -0.8339
  928MOL0     O25169  11.755   4.390   2.493  0.3424 -0.2064  0.0362
  928MOL0     C25170  11.673   4.455   2.406  0.0161 -0.1582  0.4409
  928MOL0     C25171  11.704   4.516   2.287  0.2325  0.2119 -0.4975
  928MOL0     C25172  11.611   4.597   2.220 -0.3208 -0.0819  0.7577
  928MOL0     C25173  11.476   4.612   2.260 -0.1745 -0.5430 -0.2230
  928MOL0     C25174  11.381   4.705   2.187 -0.5058  0.4439  0.1623
  928MOL0     O25175  11.417   4.770   2.074 -0.1852 -0.6037 -0.3290
  928MOL0     C25176  11.332   4.850   2.004 -0.0017  0.2518 -0.2256
  928MOL0     C25177  11.347   4.827   1.866 -0.9974  1.1206  0.4444
  928MOL0     C25178  11.272   4.892   1.768  0.3289  0.2857 -0.6295
  928MOL0     C25179  11.176   4.984   1.810 -0.6557  0.7122  0.1652
  928MOL0     O25180  11.088   5.048   1.724 -0.0308  0.2051 -0.4041
  928MOL0     C25181  11.056   4.991   1.598 -0.0735 -0.2760 -0.6314
  928MOL0     C25182  10.951   5.098   1.543  0.4071 -0.4637  1.2205
  928MOL0     C25183  11.022   5.220   1.472  1.1293  0.5616 -0.6798
  928MOL0     C25184  10.929   5.290   1.371 -0.7943 -0.3228 -0.3601
  928MOL0     C25185  11.011   5.398   1.295 -0.0951 -0.5311 -0.7654
  928MOL0     C25186  10.939   5.477   1.184 -0.1689  1.3862  0.1389
  928MOL0     C25187  10.881   5.607   1.240 -0.3189  0.9246  0.0791
  928MOL0     C25188  10.804   5.696   1.147  0.1184 -0.5672  0.2888
  928MOL0    Cl25189  10.670   5.607   1.063  0.1803 -0.1778 -0.1873
  928MOL0     C25190  11.167   5.008   1.949 -0.2624  0.2172  0.0537
  928MOL0     C25191  11.245   4.945   2.047 -1.2600 -0.0524 -0.2266
  928MOL0     O25192  11.266   4.705   2.229 -0.9877 -0.4811 -0.0250
  928MOL0     C25193  11.440   4.546   2.378  0.3679  0.4694  0.6766
  928MOL0     C25194  11.532   4.466   2.447 -0.1009  0.7289  0.0826
  928MOL0     N25195  12.247   4.378   2.418  0.3526  0.1247  0.2394
  928MOL0     N25196  12.356   4.331   2.467  0.3784 -0.5218 -0.0754
  928MOL0     C25197  11.688   4.104   2.717 -0.8890  0.2443 -0.0708
  928MOL0     C25198  11.560   4.114   2.669  0.5698  0.0383 -0.3881
  928MOL0     C25199  11.119   4.168   2.621  0.8493 -0.1828  0.1973
  928MOL0     C25200  11.061   4.152   2.746 -0.4722  0.6790 -0.5580
  928MOL0     C25201  10.925   4.172   2.761  0.9215  0.7764  1.5483
  928MOL0     C25202  10.840   4.206   2.656  0.9587 -0.2012  0.0178
  928MOL0     O25203  10.707   4.232   2.702 -0.7629 -0.1094 -0.4635
  928MOL0     C25204  10.608   4.227   2.607 -0.5413 -0.4037  0.0073
  928MOL0     C25205  10.553   4.086   2.573  0.3063  0.0314  0.4538
  928MOL0     C25206  10.454   4.088   2.450 -0.7405  0.5000  0.4631
  928MOL0     C25207  10.342   4.181   2.453 -0.1928  0.1234 -0.5857
  928MOL0     C25208  10.255   4.155   2.568  0.9117 -0.5886 -0.4544
  928MOL0     C25209  10.155   4.146   2.640 -0.0865  0.1666  0.2868
  928MOL0     C25210  10.892   4.212   2.527 -0.4657 -0.5099 -0.3077
  928MOL0     C25211  11.032   4.201   2.514  0.6667  0.8006 -0.8942
  928MOL0     C25212  11.085   4.185   2.371 -0.2511  0.1779  0.7310
  928MOL0     H25213  11.396   3.880   2.858 -0.3010  0.0555  0.0830
  928MOL0     H25214  11.626   3.844   2.936 -1.4097  2.5104  2.7703
  928MOL0     H25215  11.944   3.819   2.884  3.0008  0.6683 -1.1263
  928MOL0     H25216  11.810   3.813   2.769 -1.0243  2.3487 -0.7774
  928MOL0     H25217  12.049   3.990   2.714  1.3826 -0.5435 -2.0458
  928MOL0     H25218  11.917   3.971   2.607  0.9387 -0.9293 -1.0074
  928MOL0     H25219  12.043   3.810   2.505 -0.1745 -2.2727 -0.3149
  928MOL0     H25220  11.961   3.704   2.624  1.9694 -0.8861  1.7326
  928MOL0     H25221  12.147   3.701   2.765  1.1646 -0.7798 -0.5272
  928MOL0     H25222  12.173   3.657   2.599 -0.7282 -0.6730  0.2931
  928MOL0     H25223  12.271   3.899   2.757  0.9059 -0.9832  1.8922
  928MOL0     H25224  12.371   3.778   2.696 -0.7556 -2.4714  0.7431
  928MOL0     H25225  12.290   3.900   2.460 -1.1274 -0.9100 -0.3629
  928MOL0     H25226  12.210   4.011   2.579  1.9704  1.8473 -1.1581
  928MOL0     H25227  12.516   3.951   2.592  1.1836  0.2663 -2.2959
  928MOL0     H25228  12.440   4.079   2.678 -1.5649  0.6018 -0.6238
  928MOL0     H25229  12.569   4.145   2.471 -0.7333  2.2785 -0.3643
  928MOL0     H25230  12.462   4.030   2.385 -0.1876 -1.5779  2.1301
  928MOL0     H25231  12.277   4.081   2.279  1.8363  0.1410 -0.8072
  928MOL0     H25232  12.075   4.420   2.253 -0.7367 -0.3406  2.7556
  928MOL0     H25233  12.116   4.291   2.137 -1.3325  0.9835 -0.3134
  928MOL0     H25234  11.886   4.289   2.212 -2.0861 -0.7392  1.7328
  928MOL0     H25235  11.989   4.146   2.233 -1.5226  0.4761 -3.5752
  928MOL0     H25236  11.996   4.184   2.479 -2.9933 -2.8466  2.0016
  928MOL0     H25237  11.839   4.182   2.428  1.4513 -0.7551  3.2871
  928MOL0     H25238  11.931   4.470   2.419  2.1938  0.4463  1.9353
  928MOL0     H25239  11.951   4.407   2.568  1.1620 -0.3912 -1.5152
  928MOL0     H25240  11.804   4.503   2.248 -0.3292  0.4357 -2.0858
  928MOL0     H25241  11.641   4.654   2.133 -3.6724 -0.7330 -0.9797
  928MOL0     H25242  11.418   4.749   1.841 -3.8249 -0.9080 -1.9772
  928MOL0     H25243  11.315   4.881   1.669  4.7033 -2.5521  1.2733
  928MOL0     H25244  11.134   4.975   1.523 -0.4334  1.3117 -1.3817
  928MOL0     H25245  11.020   4.889   1.613  1.2991 -0.6188  0.5252
  928MOL0     H25246  10.902   5.052   1.457 -2.0404  0.0227  2.2522
  928MOL0     H25247  10.876   5.138   1.613  1.7848  0.8808  1.9981
  928MOL0     H25248  11.063   5.295   1.540  3.6121 -0.9864 -0.3510
  928MOL0     H25249  11.099   5.170   1.412 -1.0118 -1.6075 -1.8258
  928MOL0     H25250  10.839   5.332   1.417 -0.7281 -0.1745 -0.3665
  928MOL0     H25251  10.905   5.212   1.297 -0.3186 -1.0716  0.2594
  928MOL0     H25252  11.088   5.336   1.247  0.8494 -1.4685  1.7442
  928MOL0     H25253  11.057   5.463   1.370 -2.6322  0.9813 -0.4165
  928MOL0     H25254  11.009   5.497   1.102  0.0327 -1.9402 -0.6622
  928MOL0     H25255  10.861   5.419   1.134  0.1435  0.3210  0.8524
  928MOL0     H25256  10.970   5.656   1.278  0.9020 -2.0741  1.4209
  928MOL0     H25257  10.815   5.579   1.323  1.3448 -2.1199  0.5141
  928MOL0     H25258  10.761   5.779   1.204  5.4557  2.4654  0.5283
  928MOL0     H25259  10.866   5.751   1.076 -0.9732  0.1202 -0.1602
  928MOL0     H25260  11.103   5.090   1.980  0.8685  1.5942 -1.1011
  928MOL0     H25261  11.233   4.976   2.150  1.3592  3.7379 -0.8758
  928MOL0     H25262  11.345   4.552   2.430 -0.0414 -0.6458  0.1029
  928MOL0     H25263  11.500   4.412   2.536  0.3263 -0.5348 -0.5063
  928MOL0     H25264  11.760   4.175   2.678 -0.3414 -0.4844 -0.3995
  928MOL0     H25265  11.538   4.189   2.594  0.0419 -0.1818 -0.4548
  928MOL0     H25266  11.114   4.121   2.835  0.0985 -1.2905 -1.5392
  928MOL0     H25267  10.877   4.159   2.857 -0.9268 -0.5505  0.5033
  928MOL0     H25268  10.649   4.267   2.513 -1.7781  0.5673 -0.1416
  928MOL0     H25269  10.536   4.302   2.642  1.4721  1.0519  1.2377
  928MOL0     H25270  10.493   4.041   2.653 -1.0614 -0.1280 -0.6258
  928MOL0     H25271  10.638   4.020   2.552 -0.8990 -0.9578 -1.5357
  928MOL0     H25272  10.414   3.987   2.432 -0.0945  0.2731  0.2738
  928MOL0     H25273  10.509   4.105   2.357 -1.2507 -0.5486 -0.0590
  928MOL0     H25274  10.368   4.287   2.447  0.8672 -0.0217  0.8899
  928MOL0     H25275  10.289   4.159   2.360  0.8667 -0.2136 -1.1296
  928MOL0     H25276  10.063   4.151   2.695 -0.1127 -2.4842  0.6277
  928MOL0     H25277  10.836   4.218   2.435 -0.2535  0.4329 -0.3835
  928MOL0     H25278  11.131   4.088   2.350  2.4124  0.8115  3.0378
  928MOL0     H25279  11.001   4.216   2.308 -1.6109  3.7739  3.8926
  928MOL0     H25280  11.169   4.252   2.352  2.0890 -2.5075  0.8774
  929MOL0     O25281   5.196   6.299   9.119  0.4752  0.1807  0.5104
  929MOL0     C25282   5.264   6.395   9.092 -0.3936 -0.6632 -0.0608
  929MOL0     O25283   5.234   6.521   9.112 -0.4990 -0.4052 -0.2774
  929MOL0     C25284   5.115   6.555   9.172  0.1748  0.1850 -0.5968
  929MOL0     C25285   5.057   6.674   9.126 -0.3764  0.5158 -0.5170
  929MOL0     C25286   4.947   6.731   9.194 -1.4578  0.0374  0.9028
  929MOL0     C25287   4.920   6.684   9.325  0.5814 -0.3053  0.3902
  929MOL0     O25288   4.812   6.731   9.387 -0.3555 -0.0279 -1.2183
  929MOL0     C25289   4.840   6.758   9.531  0.5959 -0.0472  0.0374
  929MOL0     C25290   4.774   6.900   9.565  0.0642 -1.3302 -0.8236
  929MOL0     C25291   4.779   6.918   9.719 -0.3627  0.8697 -0.5906
  929MOL0     C25292   4.772   7.063   9.762  0.1369  0.0142  1.2192
  929MOL0     C25293   4.745   7.081   9.919  0.1449  0.2970 -1.0853
  929MOL0     C25294   4.621   7.009   9.963  0.6979  0.3229 -0.2489
  929MOL0     C25295   4.589   7.036  10.115  0.0818  0.0965 -0.3599
  929MOL0     C25296   4.487   6.946  10.177  0.3392 -0.3494 -0.4487
  929MOL0     N25297   4.380   6.882  10.098 -0.0285 -0.5123  0.1945
  929MOL0     C25298   4.394   6.794   9.988 -0.0496  0.3438 -0.0389
  929MOL0     C25299   4.265   6.746   9.975  0.0786 -1.0975  0.0394
  929MOL0     C25300   4.235   6.631   9.891 -0.7804 -0.4909  0.4519
  929MOL0     C25301   4.081   6.604   9.912  0.2722 -0.4817  0.4295
  929MOL0     C25302   4.029   6.492   9.824 -0.1808  0.2707  0.5445
  929MOL0     C25303   3.895   6.434   9.876  0.3393  0.0820  0.2990
  929MOL0     O25304   3.789   6.529   9.884 -1.0250 -0.7376 -0.7387
  929MOL0     C25305   3.663   6.488   9.860  0.2008  0.9274  0.1650
  929MOL0     C25306   3.591   6.547   9.760 -0.9695  0.0960 -0.1833
  929MOL0     C25307   3.465   6.486   9.731 -0.6888 -0.1391  0.2558
  929MOL0     C25308   3.414   6.381   9.800 -0.2614  0.0307  0.1383
  929MOL0     C25309   3.283   6.325   9.760 -0.8669 -1.2810 -0.2474
  929MOL0     O25310   3.202   6.401   9.674  0.2232 -0.3803  0.8703
  929MOL0     C25311   3.078   6.340   9.636  0.3147 -0.5757 -0.1335
  929MOL0     C25312   3.070   6.216   9.574  0.0763 -0.0017 -0.4207
  929MOL0     C25313   2.947   6.165   9.533  0.3363 -0.4399 -0.3824
  929MOL0     C25314   2.829   6.242   9.547 -0.0109  0.2175  0.1812
  929MOL0     O25315   2.711   6.205   9.490 -0.7565  0.3798  0.0782
  929MOL0     C25316   2.606   6.296   9.486 -0.0110  0.0830  0.8078
  929MOL0     C25317   2.484   6.235   9.418  0.0382  0.2908 -0.2629
  929MOL0     C25318   2.384   6.342   9.397  0.0779  0.7118 -0.4809
  929MOL0     C25319   2.250   6.290   9.350 -0.6248  0.4076  0.1255
  929MOL0     C25320   2.233   6.289   9.201  0.5754 -0.0281  0.7469
  929MOL0     C25321   2.117   6.210   9.145 -0.0433  0.5278 -0.2713
  929MOL0     C25322   2.063   6.273   9.015 -0.2289  0.0566 -0.0416
  929MOL0     C25323   2.135   6.229   8.888  0.1107 -0.7912 -0.2815
  929MOL0    Cl25324   2.280   6.325   8.858 -0.9532  0.3420 -0.2924
  929MOL0     C25325   2.839   6.360   9.629 -0.9126 -0.9093  0.3996
  929MOL0     C25326   2.962   6.414   9.672  0.2181  0.7197 -0.2736
  929MOL0     O25327   3.254   6.223   9.812 -0.1269 -0.0293 -0.7647
  929MOL0     C25328   3.490   6.322   9.905  0.4374  0.9057  0.1173
  929MOL0     C25329   3.624   6.366   9.924  0.8769  0.1399  1.2249
  929MOL0     N25330   4.177   6.825  10.060 -0.1055  0.0287  0.5605
  929MOL0     N25331   4.252   6.900  10.139  0.2955 -0.1746  0.6805
  929MOL0     C25332   4.975   6.561   9.372  0.4606 -0.4813  1.1308
  929MOL0     C25333   5.076   6.501   9.288  0.4873 -0.5259  0.1019
  929MOL0     C25334   5.397   6.389   9.016 -0.8785 -0.0392  0.7885
  929MOL0     C25335   5.445   6.504   8.947  0.4847 -0.7581  0.2284
  929MOL0     C25336   5.540   6.503   8.847  0.1260  0.2354  0.0794
  929MOL0     C25337   5.615   6.384   8.825  1.0437  0.5819 -0.2856
  929MOL0     O25338   5.723   6.371   8.739 -0.4173 -0.3123 -0.2484
  929MOL0     C25339   5.734   6.466   8.634 -0.2869  0.3426  0.5995
  929MOL0     C25340   5.840   6.567   8.651 -1.2395  1.7057  0.1782
  929MOL0     C25341   5.980   6.505   8.673  0.0361 -0.5580  0.5690
  929MOL0     C25342   6.077   6.618   8.679  0.0557 -0.9338  0.5972
  929MOL0     C25343   6.211   6.576   8.641  0.0382 -0.1861  0.1285
  929MOL0     C25344   6.318   6.546   8.614  0.5550  0.2772 -0.1864
  929MOL0     C25345   5.588   6.275   8.911 -0.3368  0.7079  0.4240
  929MOL0     C25346   5.476   6.273   9.000  0.4715 -0.6770 -0.0535
  929MOL0     C25347   5.444   6.146   9.075 -0.7539  0.5552 -1.3224
  929MOL0     H25348   5.107   6.709   9.036 -1.8774  0.0491 -1.5922
  929MOL0     H25349   4.898   6.821   9.159 -1.4588 -0.5952 -0.7998
  929MOL0     H25350   4.807   6.675   9.594  1.4386 -1.5714 -1.4481
  929MOL0     H25351   4.947   6.774   9.550  0.1450  3.5947  0.2682
  929MOL0     H25352   4.674   6.919   9.525  0.7460  0.5691 -1.7422
  929MOL0     H25353   4.836   6.982   9.529 -1.0560  0.7999  1.8078
  929MOL0     H25354   4.870   6.883   9.769  1.4581  3.6533 -1.6779
  929MOL0     H25355   4.697   6.863   9.766 -1.2312  0.8334 -2.0623
  929MOL0     H25356   4.863   7.120   9.741  0.6123 -1.5802 -1.4844
  929MOL0     H25357   4.688   7.113   9.712 -1.5174 -2.3720  1.4186
  929MOL0     H25358   4.825   7.032   9.976 -0.7005  0.4819  0.2848
  929MOL0     H25359   4.746   7.184   9.956 -0.0513 -0.1365  0.1436
  929MOL0     H25360   4.536   7.037   9.899 -0.6641  0.4288  1.5411
  929MOL0     H25361   4.640   6.901   9.958  0.1715  0.1212  1.5860
  929MOL0     H25362   4.552   7.138  10.124 -0.0164 -0.0476  1.2860
  929MOL0     H25363   4.677   7.031  10.181 -1.1196  0.7232  1.3617
  929MOL0     H25364   4.545   6.866  10.224  0.1961  0.6742  1.5584
  929MOL0     H25365   4.428   6.988  10.260  2.0395 -0.4239  0.8437
  929MOL0     H25366   4.482   6.755   9.937  1.7113  0.0535  3.0058
  929MOL0     H25367   4.270   6.642   9.789  2.0166 -1.5526  1.1906
  929MOL0     H25368   4.297   6.554   9.939 -0.9991  0.0659  1.6837
  929MOL0     H25369   4.048   6.592  10.016  0.6603  0.9913  0.7422
  929MOL0     H25370   4.030   6.694   9.876  0.5499  0.0466  1.3177
  929MOL0     H25371   4.097   6.409   9.804 -1.1327  0.3231 -3.9001
  929MOL0     H25372   4.015   6.530   9.723  0.6688 -1.9518 -0.4637
  929MOL0     H25373   3.922   6.402   9.977  0.5681  1.2315  0.6120
  929MOL0     H25374   3.869   6.340   9.825  2.2363  1.6370 -4.0222
  929MOL0     H25375   3.646   6.620   9.701 -2.1134  0.8444 -0.3731
  929MOL0     H25376   3.427   6.527   9.638  0.6074  1.6248  0.4465
  929MOL0     H25377   3.164   6.167   9.550 -0.1999  0.1572 -1.9970
  929MOL0     H25378   2.942   6.072   9.477  3.1251 -1.8579  1.4546
  929MOL0     H25379   2.574   6.323   9.587 -0.6555  1.7653  0.1964
  929MOL0     H25380   2.632   6.391   9.438  3.6478  1.2409  4.5086
  929MOL0     H25381   2.514   6.187   9.324  1.5403  0.0772  0.3024
  929MOL0     H25382   2.445   6.157   9.485  1.3216 -1.8462 -1.8438
  929MOL0     H25383   2.364   6.395   9.490 -4.4254  1.7534 -1.7916
  929MOL0     H25384   2.415   6.427   9.335  0.2321  0.8311 -0.2453
  929MOL0     H25385   2.172   6.351   9.398 -1.2552  1.4886 -2.1282
  929MOL0     H25386   2.251   6.184   9.376 -1.4503 -0.3209 -2.5375
  929MOL0     H25387   2.329   6.247   9.170  0.0096 -1.7152  1.1688
  929MOL0     H25388   2.231   6.392   9.165  1.8220 -1.4914 -4.1797
  929MOL0     H25389   2.149   6.107   9.125 -0.2159  1.0833 -4.2098
  929MOL0     H25390   2.033   6.204   9.215 -0.5076  1.3773 -0.7474
  929MOL0     H25391   2.056   6.383   9.021  0.7338  0.1161  0.1042
  929MOL0     H25392   1.960   6.244   8.993 -0.4835  0.1702  0.9168
  929MOL0     H25393   2.158   6.122   8.886  4.2223 -0.0783  0.2180
  929MOL0     H25394   2.065   6.256   8.808  0.1533 -2.4536 -0.9237
  929MOL0     H25395   2.751   6.421   9.648 -0.6331 -0.1883 -0.6127
  929MOL0     H25396   2.958   6.510   9.722 -2.0900  1.1850 -1.2345
  929MOL0     H25397   3.464   6.233   9.961  1.1198  1.7351  1.8462
  929MOL0     H25398   3.692   6.304   9.982  0.8525 -1.1429 -0.0585
  929MOL0     H25399   4.945   6.514   9.465  2.0493 -0.0525  1.8948
  929MOL0     H25400   5.137   6.419   9.324  1.4388 -0.9287 -2.2334
  929MOL0     H25401   5.394   6.598   8.959  0.3032 -0.6018 -1.4714
  929MOL0     H25402   5.549   6.600   8.800  0.8101 -0.4440 -1.2910
  929MOL0     H25403   5.640   6.516   8.608 -0.5326  0.7015  2.0958
  929MOL0     H25404   5.770   6.413   8.546  2.1535  2.2025  0.3955
  929MOL0     H25405   5.824   6.622   8.744 -2.0392 -2.8267  3.0444
  929MOL0     H25406   5.838   6.620   8.555  1.7880  0.1193 -0.8986
  929MOL0     H25407   6.001   6.432   8.594  1.4816  0.8899 -0.4573
  929MOL0     H25408   5.978   6.445   8.764 -2.0285 -1.3065  0.1019
  929MOL0     H25409   6.046   6.691   8.604 -2.7594 -2.3822  0.2071
  929MOL0     H25410   6.075   6.660   8.780 -1.0531  0.1081  0.1721
  929MOL0     H25411   6.400   6.480   8.596 -0.1980 -0.5248 -0.7906
  929MOL0     H25412   5.646   6.186   8.887  0.4295  1.4799 -0.7180
  929MOL0     H25413   5.369   6.086   9.022 -1.4981 -1.2665  1.6056
  929MOL0     H25414   5.537   6.090   9.084 -0.7301  0.9636  3.0771
  929MOL0     H25415   5.413   6.169   9.177  1.3346  2.1813 -0.9882
  930MOL0     O25416   7.121   5.334   9.502  0.1624  0.9873 -0.2397
  930MOL0     C25417   7.145   5.383   9.612 -0.3495 -0.0554 -0.8602
  930MOL0     O25418   7.059   5.403   9.710  0.7717  1.6206  0.3283
  930MOL0     C25419   6.929   5.381   9.667  0.0762 -0.1192  0.2296
  930MOL0     C25420   6.890   5.250   9.686  0.1731 -0.4742  0.1155
  930MOL0     C25421   6.755   5.220   9.669  0.0151  0.2163 -0.2767
  930MOL0     C25422   6.652   5.320   9.649  0.0930 -0.2120 -0.3655
  930MOL0     O25423   6.513   5.308   9.636 -0.2676  0.5917  0.1810
  930MOL0     C25424   6.450   5.220   9.730  0.4759  0.4935 -0.7731
  930MOL0     C25425   6.351   5.134   9.659  0.3542  0.0663  0.3334
  930MOL0     C25426   6.258   5.036   9.737  0.5135 -0.1005 -0.2262
  930MOL0     C25427   6.178   5.096   9.862  0.2817 -0.2485  0.4769
  930MOL0     C25428   6.084   4.988   9.923 -0.3278  0.1349 -0.4106
  930MOL0     C25429   5.951   4.970   9.841 -0.0828  0.4920 -0.2689
  930MOL0     C25430   5.852   5.087   9.860 -0.7524  0.5021 -0.1751
  930MOL0     C25431   5.736   5.064   9.768 -0.3556  0.0439  0.3418
  930MOL0     N25432   5.777   5.074   9.622  0.0292  0.2800 -0.3649
  930MOL0     C25433   5.788   4.961   9.545 -0.6033  0.3843 -0.1738
  930MOL0     C25434   5.819   5.016   9.430  0.1245 -0.4047 -0.5957
  930MOL0     C25435   5.840   4.938   9.302 -0.1072 -0.1595  0.2712
  930MOL0     C25436   5.709   4.911   9.225  0.6209 -0.5010  0.3632
  930MOL0     C25437   5.736   4.839   9.090  0.4737  0.3011 -0.1156
  930MOL0     C25438   5.610   4.859   8.997  0.1159  0.2010  0.0854
  930MOL0     O25439   5.524   4.755   9.052 -0.1811 -0.0947  0.2030
  930MOL0     C25440   5.392   4.765   9.028  0.3604 -0.2607  1.1931
  930MOL0     C25441   5.345   4.763   8.892  0.3468 -0.3383 -1.0847
  930MOL0     C25442   5.207   4.779   8.878  0.8826 -0.1314  0.5975
  930MOL0     C25443   5.123   4.798   8.986 -0.0120  0.1395 -0.7340
  930MOL0     C25444   4.981   4.828   8.972  0.1715 -0.2134 -0.1445
  930MOL0     O25445   4.919   4.780   8.859  0.9471 -0.7225 -0.1868
  930MOL0     C25446   4.784   4.793   8.849 -0.0268 -0.5629 -0.1074
  930MOL0     C25447   4.747   4.822   8.720  0.2702 -1.0859 -0.1183
  930MOL0     C25448   4.610   4.834   8.693  0.4619  0.0547  0.3662
  930MOL0     C25449   4.522   4.805   8.796  0.7598  0.2927  0.0335
  930MOL0     O25450   4.387   4.818   8.773 -0.6765  0.5953 -0.4500
  930MOL0     C25451   4.300   4.842   8.878 -0.7273  0.3606  0.3314
  930MOL0     C25452   4.153   4.861   8.833  0.9826 -0.8394  0.4819
  930MOL0     C25453   4.064   4.840   8.961  0.1220 -0.4678 -0.7040
  930MOL0     C25454   3.918   4.816   8.924  0.0507 -0.8961 -0.2523
  930MOL0     C25455   3.804   4.821   9.029  0.1422  0.3279 -0.1550
  930MOL0     C25456   3.783   4.960   9.077  0.7483  0.0175  0.3204
  930MOL0     C25457   3.681   4.956   9.195  0.2684 -0.3821  0.1242
  930MOL0     C25458   3.540   4.921   9.155 -0.4742 -0.4165 -0.8374
  930MOL0    Cl25459   3.424   4.897   9.279  0.0467 -0.2053  0.7244
  930MOL0     C25460   4.564   4.775   8.932  0.7312  1.1814  0.3846
  930MOL0     C25461   4.694   4.779   8.959 -0.2112 -1.2288  0.5753
  930MOL0     O25462   4.924   4.895   9.059 -0.0361 -0.9345  0.0206
  930MOL0     C25463   5.173   4.802   9.116  0.4704  0.0067 -0.4815
  930MOL0     C25464   5.307   4.787   9.137  0.3118 -0.2836  0.0074
  930MOL0     N25465   5.820   5.155   9.436 -0.7373  0.4530 -1.0438
  930MOL0     N25466   5.797   5.192   9.553 -0.4165 -0.3182  0.5655
  930MOL0     C25467   6.702   5.447   9.649 -0.0261 -0.5100 -0.1483
  930MOL0     C25468   6.837   5.481   9.646  0.5200  0.0941 -0.1513
  930MOL0     C25469   7.287   5.406   9.636  0.6906 -0.3351  0.1171
  930MOL0     C25470   7.379   5.362   9.533 -0.3388 -0.1209 -0.8931
  930MOL0     C25471   7.524   5.374   9.564  0.1581 -0.0805  0.0361
  930MOL0     C25472   7.575   5.417   9.683 -0.5622  0.4705 -0.0871
  930MOL0     O25473   7.711   5.432   9.702  0.0477  0.4706 -0.5272
  930MOL0     C25474   7.754   5.559   9.650  0.1616  0.6061 -0.2583
  930MOL0     C25475   7.905   5.562   9.672  0.0860 -0.1203  0.7343
  930MOL0     C25476   7.958   5.686   9.606 -0.5823 -0.4172 -0.5271
  930MOL0     C25477   8.095   5.716   9.672  0.5412  1.0841  0.0390
  930MOL0     C25478   8.071   5.776   9.803  0.6601 -0.5790  0.0927
  930MOL0     C25479   8.052   5.822   9.917 -0.2697  0.6347  0.0790
  930MOL0     C25480   7.487   5.432   9.785 -0.3247 -0.1154  0.6205
  930MOL0     C25481   7.346   5.433   9.760  0.5641 -0.0128  0.0777
  930MOL0     C25482   7.268   5.454   9.894 -0.2601  0.2603  1.1281
  930MOL0     H25483   6.965   5.177   9.715  1.8288  0.7992 -0.7282
  930MOL0     H25484   6.725   5.116   9.677  0.2253  0.2544  1.1750
  930MOL0     H25485   6.523   5.168   9.793  0.9273 -2.1811 -3.2800
  930MOL0     H25486   6.392   5.281   9.800  0.4016  0.4511 -0.7969
  930MOL0     H25487   6.417   5.066   9.604  1.0769 -0.0866  1.3606
  930MOL0     H25488   6.286   5.187   9.589 -0.5546 -1.9205 -0.3980
  930MOL0     H25489   6.319   4.954   9.775  1.4342  1.0063  0.7925
  930MOL0     H25490   6.181   4.988   9.677  1.2180  0.4967 -1.6512
  930MOL0     H25491   6.247   5.132   9.939 -1.6222  0.8173  1.7660
  930MOL0     H25492   6.118   5.179   9.824 -0.7962  0.3516  3.2151
  930MOL0     H25493   6.147   4.898   9.920 -1.8933 -1.0431  0.6037
  930MOL0     H25494   6.051   5.011  10.024 -1.2914 -1.1503 -0.3979
  930MOL0     H25495   5.971   4.946   9.736  1.8684  0.5900  0.0408
  930MOL0     H25496   5.900   4.885   9.888 -2.0968  0.8036 -1.7761
  930MOL0     H25497   5.911   5.178   9.846  1.7674 -1.2218 -1.5379
  930MOL0     H25498   5.832   5.087   9.968  2.6120  2.4960  0.5897
  930MOL0     H25499   5.682   4.971   9.789  2.5707 -2.4923 -2.3441
  930MOL0     H25500   5.656   5.136   9.784 -0.5387 -0.2856  0.9294
  930MOL0     H25501   5.779   4.856   9.574 -0.0389  0.0938 -1.0179
  930MOL0     H25502   5.891   5.008   9.234 -2.1090  2.2600  1.0776
  930MOL0     H25503   5.893   4.843   9.307  0.9654  0.2082 -2.3245
  930MOL0     H25504   5.644   4.856   9.294  3.3881 -1.8929  2.0332
  930MOL0     H25505   5.673   5.009   9.194  1.8866 -0.8949 -2.6840
  930MOL0     H25506   5.760   4.734   9.111  1.9378  0.6570  0.1199
  930MOL0     H25507   5.821   4.890   9.042  0.7596  1.1185  1.2244
  930MOL0     H25508   5.627   4.839   8.891 -0.0319 -0.6353  0.2146
  930MOL0     H25509   5.577   4.963   9.008  0.1650  0.3600 -1.1401
  930MOL0     H25510   5.396   4.730   8.802 -0.6236  2.9765 -3.0388
  930MOL0     H25511   5.175   4.785   8.774  0.0719 -2.2431  0.6840
  930MOL0     H25512   4.819   4.840   8.641  1.5852 -0.4177  1.1886
  930MOL0     H25513   4.579   4.863   8.593  0.0290 -1.2043  0.1280
  930MOL0     H25514   4.303   4.763   8.954 -0.9553  1.9811  2.1114
  930MOL0     H25515   4.337   4.930   8.930  1.8352  1.0557 -2.4474
  930MOL0     H25516   4.140   4.962   8.794 -3.0015 -1.4746 -0.1977
  930MOL0     H25517   4.128   4.797   8.748 -0.1047  0.9167 -0.5916
  930MOL0     H25518   4.094   4.754   9.022 -0.1205  0.4339  0.7528
  930MOL0     H25519   4.076   4.932   9.019 -0.0371 -0.6335 -0.4039
  930MOL0     H25520   3.904   4.726   8.862 -5.2364 -0.1683 -0.5754
  930MOL0     H25521   3.900   4.896   8.852  2.1793  3.6553  3.7118
  930MOL0     H25522   3.828   4.758   9.115 -0.5546  0.4625  0.1478
  930MOL0     H25523   3.721   4.777   8.972  0.6676  1.0782 -1.5506
  930MOL0     H25524   3.867   5.016   9.120 -0.0789  0.4049  1.4840
  930MOL0     H25525   3.754   5.023   8.992  0.5167 -0.9497 -0.3247
  930MOL0     H25526   3.679   5.056   9.239 -1.0790  0.5759 -1.9415
  930MOL0     H25527   3.719   4.887   9.271  2.8893 -0.6919 -1.3598
  930MOL0     H25528   3.503   5.012   9.106  4.2748  3.9374  2.5390
  930MOL0     H25529   3.541   4.838   9.085 -0.9787 -0.3092 -0.9780
  930MOL0     H25530   4.499   4.764   9.019  0.1696  1.5241  0.0147
  930MOL0     H25531   4.716   4.771   9.065 -0.5573  3.1025  1.1557
  930MOL0     H25532   5.103   4.820   9.197  2.5921 -0.0969  1.4763
  930MOL0     H25533   5.353   4.792   9.235  1.8461  2.4940 -0.7693
  930MOL0     H25534   6.628   5.527   9.646 -2.0580 -2.2938  0.1832
  930MOL0     H25535   6.865   5.585   9.657 -2.9601  1.0438  1.0980
  930MOL0     H25536   7.351   5.317   9.439  1.9136  0.6453 -1.9994
  930MOL0     H25537   7.592   5.334   9.489  0.0538 -0.0717 -0.0631
  930MOL0     H25538   7.718   5.633   9.722 -0.1926 -1.9829  2.4302
  930MOL0     H25539   7.730   5.572   9.544  2.3005 -1.9120 -1.1761
  930MOL0     H25540   7.962   5.486   9.618 -0.1141  1.2270 -1.4754
  930MOL0     H25541   7.929   5.551   9.778  0.5262  0.1550  0.6642
  930MOL0     H25542   7.893   5.772   9.624 -0.0851  0.0553 -0.9628
  930MOL0     H25543   7.975   5.667   9.500  0.5500 -3.0059  0.0414
  930MOL0     H25544   8.155   5.625   9.681  1.3129  1.5969  0.1824
  930MOL0     H25545   8.155   5.792   9.623 -1.0846  1.3700 -1.6123
  930MOL0     H25546   8.027   5.852  10.017  0.0228  2.1797 -0.2905
  930MOL0     H25547   7.527   5.447   9.885  1.7404  0.7362 -0.2766
  930MOL0     H25548   7.211   5.546   9.881  0.1322  0.2768 -0.8620
  930MOL0     H25549   7.193   5.376   9.907 -0.4938  0.3565  0.3774
  930MOL0     H25550   7.332   5.460   9.983  2.9724 -1.1082 -0.9147
  931MOL0     O25551   7.810   3.670   3.242 -0.0560 -0.3163  0.4687
  931MOL0     C25552   7.791   3.745   3.142  0.1407 -0.2506  1.8476
  931MOL0     O25553   7.852   3.862   3.112  0.2784  0.0675 -1.0393
  931MOL0     C25554   7.899   3.934   3.216  0.5672  0.3370  0.7967
  931MOL0     C25555   7.987   4.028   3.184  0.5391 -0.4009  0.7064
  931MOL0     C25556   8.038   4.110   3.272 -0.2194  0.0157 -0.0903
  931MOL0     C25557   8.003   4.100   3.407 -0.6246 -1.2470  0.6588
  931MOL0     O25558   8.061   4.181   3.492  0.0937 -0.2688 -0.2328
  931MOL0     C25559   8.015   4.205   3.636  0.1985  0.7288  0.9621
  931MOL0     C25560   7.943   4.341   3.644 -0.4083  0.2914 -0.2221
  931MOL0     C25561   7.805   4.330   3.582  0.6384 -0.0419 -0.0183
  931MOL0     C25562   7.701   4.256   3.679 -1.2419 -0.6211 -0.3072
  931MOL0     C25563   7.566   4.238   3.619 -0.9563  1.2320 -0.2270
  931MOL0     C25564   7.551   4.120   3.524  0.3840 -0.1242 -0.6788
  931MOL0     C25565   7.403   4.102   3.482 -1.2175  0.0713  1.0017
  931MOL0     C25566   7.382   3.962   3.411  0.4751  0.0831 -0.1038
  931MOL0     N25567   7.379   3.958   3.263  0.1850  0.1098 -0.0897
  931MOL0     C25568   7.489   3.980   3.196 -0.0298 -0.1699 -0.3562
  931MOL0     C25569   7.443   3.999   3.062  0.7276  0.4682 -0.2534
  931MOL0     C25570   7.540   4.027   2.941 -0.2261 -0.0692  0.0161
  931MOL0     C25571   7.534   4.172   2.889 -0.0507 -0.5231 -0.4467
  931MOL0     C25572   7.406   4.202   2.812 -0.1738 -0.3780 -0.7222
  931MOL0     C25573   7.397   4.140   2.673 -0.5992 -0.1380  0.4567
  931MOL0     O25574   7.514   4.182   2.596  0.8430  0.7868  0.0058
  931MOL0     C25575   7.478   4.227   2.475  0.3338 -0.7627 -1.3056
  931MOL0     C25576   7.440   4.364   2.448  0.5695  0.8241 -0.0198
  931MOL0     C25577   7.419   4.399   2.320  1.2842 -0.2249  0.8601
  931MOL0     C25578   7.434   4.303   2.208  0.0185 -0.5785 -0.6805
  931MOL0     C25579   7.396   4.336   2.066 -0.5042 -0.3324  0.0453
  931MOL0     O25580   7.432   4.241   1.971 -0.2213  0.6090 -0.1029
  931MOL0     C25581   7.382   4.236   1.845  0.7090  0.0439  0.0871
  931MOL0     C25582   7.383   4.114   1.777 -0.0136  0.0700  0.6219
  931MOL0     C25583   7.342   4.095   1.652  1.2295 -0.2380  0.6721
  931MOL0     C25584   7.275   4.199   1.583  0.0480 -0.3441 -0.1120
  931MOL0     O25585   7.254   4.185   1.447 -0.1293  0.0522  0.0761
  931MOL0     C25586   7.124   4.231   1.400  0.3234  0.0941 -1.1974
  931MOL0     C25587   7.112   4.200   1.254  0.4888  0.6569 -0.2225
  931MOL0     C25588   6.974   4.233   1.196  0.2821  0.9629  0.1334
  931MOL0     C25589   6.960   4.213   1.034  0.5927  0.5178 -0.3390
  931MOL0     C25590   7.035   4.327   0.967 -0.0820  0.5760  0.3663
  931MOL0     C25591   7.047   4.315   0.812  0.5376  0.1645 -0.7971
  931MOL0     C25592   7.107   4.437   0.753  0.8061  0.4648 -0.8326
  931MOL0     C25593   7.248   4.439   0.696  0.1810  0.3511 -0.0012
  931MOL0    Cl25594   7.357   4.394   0.824 -0.1299 -0.1985 -0.2920
  931MOL0     C25595   7.261   4.315   1.646  0.2732  0.0709 -0.2247
  931MOL0     C25596   7.322   4.337   1.776  0.4697 -0.6925  0.3413
  931MOL0     O25597   7.344   4.441   2.050 -0.0012  0.5792 -0.7026
  931MOL0     C25598   7.485   4.182   2.239 -0.2433  0.3203 -0.5328
  931MOL0     C25599   7.502   4.147   2.372 -0.7056  0.1554  0.7738
  931MOL0     N25600   7.304   3.979   3.061 -0.3829 -0.1388 -0.4218
  931MOL0     N25601   7.266   3.964   3.180  0.9056 -0.3905 -0.2687
  931MOL0     C25602   7.918   3.995   3.446  1.1087 -0.0554 -0.0165
  931MOL0     C25603   7.859   3.919   3.353  0.0581  0.0276  0.6608
  931MOL0     C25604   7.712   3.681   3.032  0.0375 -0.9883  0.1669
  931MOL0     C25605   7.762   3.688   2.898 -0.1177 -0.7731 -0.3235
  931MOL0     C25606   7.676   3.668   2.790  0.3571 -0.5671 -0.6176
  931MOL0     C25607   7.547   3.641   2.815 -0.2645 -0.0422  1.1083
  931MOL0     O25608   7.451   3.618   2.714  0.3820 -0.8749 -0.3177
  931MOL0     C25609   7.474   3.673   2.588 -0.8477 -0.7804 -0.1649
  931MOL0     C25610   7.337   3.689   2.510 -0.2669 -0.0880  0.0904
  931MOL0     C25611   7.294   3.825   2.459 -0.1082 -0.7487 -0.4002
  931MOL0     C25612   7.151   3.855   2.451  0.4581 -1.1029  0.8479
  931MOL0     C25613   7.133   4.001   2.404  0.3436 -0.5033 -0.8300
  931MOL0     C25614   7.131   4.115   2.363  0.1700 -0.1820 -0.3960
  931MOL0     C25615   7.498   3.628   2.945  0.1777  0.8132  0.3067
  931MOL0     C25616   7.577   3.642   3.053 -0.1428  0.3244 -0.2934
  931MOL0     C25617   7.504   3.627   3.186  0.1354 -0.1395 -0.6126
  931MOL0     H25618   8.012   4.036   3.078  0.1693 -0.6785  0.5978
  931MOL0     H25619   8.113   4.184   3.246  0.0113 -0.0683  0.3375
  931MOL0     H25620   7.945   4.131   3.674 -1.0951  2.3525  1.8787
  931MOL0     H25621   8.102   4.205   3.703  1.2957 -4.6519 -0.0529
  931MOL0     H25622   7.993   4.410   3.575 -0.4313  0.2181 -0.3120
  931MOL0     H25623   7.932   4.376   3.747  0.4068  0.5984 -0.2364
  931MOL0     H25624   7.817   4.275   3.488 -0.8891  0.9834 -0.8612
  931MOL0     H25625   7.764   4.428   3.558 -0.6003 -0.2342  1.1968
  931MOL0     H25626   7.741   4.155   3.697  0.9350  0.0985 -0.7492
  931MOL0     H25627   7.701   4.315   3.770  4.0776  0.6141 -0.7452
  931MOL0     H25628   7.498   4.224   3.704 -0.7391  1.7611  0.0436
  931MOL0     H25629   7.527   4.331   3.575 -1.6783  1.0523  0.0156
  931MOL0     H25630   7.608   4.153   3.437  1.9112  2.7474  1.2378
  931MOL0     H25631   7.603   4.034   3.568 -0.7240  0.6927  2.4842
  931MOL0     H25632   7.379   4.176   3.406  0.7809  0.2665  0.5115
  931MOL0     H25633   7.338   4.118   3.568  0.5731 -0.3103  2.4916
  931MOL0     H25634   7.446   3.888   3.460  1.1228  1.2524  0.8863
  931MOL0     H25635   7.284   3.929   3.444  0.8700  0.5438  1.6341
  931MOL0     H25636   7.592   3.977   3.229 -0.3246 -1.1648  0.5349
  931MOL0     H25637   7.643   4.013   2.973 -0.3453  0.3583  0.5759
  931MOL0     H25638   7.522   3.964   2.853  1.5758  2.0181 -1.9735
  931MOL0     H25639   7.565   4.248   2.961  0.4903 -1.1578  0.0046
  931MOL0     H25640   7.616   4.179   2.816 -0.4078  1.2400 -0.7230
  931MOL0     H25641   7.402   4.312   2.806 -1.5020 -0.3606  0.0719
  931MOL0     H25642   7.315   4.178   2.868 -0.2670 -0.8883 -1.0925
  931MOL0     H25643   7.307   4.171   2.619  0.3060 -1.4525 -1.9403
  931MOL0     H25644   7.401   4.031   2.680  1.8971 -0.0631  1.0620
  931MOL0     H25645   7.409   4.428   2.530 -2.3439 -0.4484  0.0187
  931MOL0     H25646   7.374   4.496   2.301  1.1496 -0.8012 -2.4407
  931MOL0     H25647   7.441   4.035   1.823  2.4993  1.7025  0.4820
  931MOL0     H25648   7.344   4.002   1.596 -0.8731  0.2882 -0.3983
  931MOL0     H25649   7.052   4.190   1.470  0.5850  0.9838 -0.3861
  931MOL0     H25650   7.119   4.339   1.419  0.3415 -0.5172  3.2102
  931MOL0     H25651   7.194   4.256   1.207  3.1416 -1.7086  1.2551
  931MOL0     H25652   7.130   4.093   1.235  3.2602  0.7977  1.0772
  931MOL0     H25653   6.893   4.176   1.243  0.5199  0.9491  0.5337
  931MOL0     H25654   6.954   4.337   1.225 -1.1669  0.6394  0.4015
  931MOL0     H25655   6.853   4.215   1.013  0.2633 -3.2153  0.2542
  931MOL0     H25656   7.002   4.117   1.002 -2.6866 -0.5466 -1.8345
  931MOL0     H25657   7.139   4.321   1.000  0.7701  0.6873 -2.1069
  931MOL0     H25658   6.991   4.423   0.998 -1.2728 -0.0442  0.6658
  931MOL0     H25659   7.105   4.229   0.778 -0.8351 -0.9208 -0.4727
  931MOL0     H25660   6.943   4.300   0.783  1.6622 -2.4650 -4.0533
  931MOL0     H25661   7.091   4.514   0.829 -2.8133 -1.4848  0.6491
  931MOL0     H25662   7.048   4.467   0.665  2.1971  1.5107 -1.4502
  931MOL0     H25663   7.252   4.367   0.613 -2.1948  0.6690 -0.4689
  931MOL0     H25664   7.271   4.534   0.647 -1.3416 -0.3107 -2.1986
  931MOL0     H25665   7.209   4.397   1.597 -0.9418  0.3564  1.4284
  931MOL0     H25666   7.314   4.437   1.819  1.5624 -1.8705  3.5406
  931MOL0     H25667   7.525   4.115   2.165  0.3701  0.4942 -0.3642
  931MOL0     H25668   7.538   4.045   2.375 -0.6585  0.1467  0.1205
  931MOL0     H25669   7.880   3.974   3.546 -2.2529 -3.4003 -1.7055
  931MOL0     H25670   7.785   3.847   3.387  1.0425 -0.7600  1.2081
  931MOL0     H25671   7.859   3.728   2.871  0.3635  1.5532  3.9163
  931MOL0     H25672   7.722   3.694   2.696 -1.3513  0.0309 -1.3266
  931MOL0     H25673   7.533   3.597   2.537  1.9228  1.2275 -0.1755
  931MOL0     H25674   7.531   3.766   2.597 -1.1455 -0.3691 -2.0172
  931MOL0     H25675   7.260   3.654   2.579  0.9097 -2.8205  0.1179
  931MOL0     H25676   7.332   3.624   2.423 -1.0927 -0.0215  0.0892
  931MOL0     H25677   7.334   3.853   2.361 -2.3525  1.4090 -0.8112
  931MOL0     H25678   7.351   3.897   2.519  0.1837 -0.5308 -0.9392
  931MOL0     H25679   7.097   3.796   2.376 -3.6711  1.0966  1.7948
  931MOL0     H25680   7.109   3.847   2.552 -0.3762 -1.7910  0.4610
  931MOL0     H25681   7.120   4.217   2.333  1.8115  0.6573  1.5636
  931MOL0     H25682   7.392   3.606   2.950  0.2517 -1.0386 -3.1384
  931MOL0     H25683   7.430   3.547   3.179 -2.0426  1.7515 -0.6088
  931MOL0     H25684   7.578   3.597   3.260  1.2322 -0.5115 -1.8198
  931MOL0     H25685   7.446   3.718   3.206 -1.1023 -1.0677  0.1689
  932MOL0     O25686   1.717   1.283   1.056 -0.4918  0.3530  0.3122
  932MOL0     C25687   1.776   1.193   1.116  0.7691  0.3505  0.2100
  932MOL0     O25688   1.753   1.060   1.076  0.1093 -0.1287  0.1615
  932MOL0     C25689   1.649   1.032   0.985  1.3379  0.3369 -0.2338
  932MOL0     C25690   1.676   1.034   0.849 -0.6459 -0.3834  0.1938
  932MOL0     C25691   1.576   1.024   0.753  0.0253  1.5731 -0.2766
  932MOL0     C25692   1.449   0.994   0.791  0.2632  0.0040 -0.3011
  932MOL0     O25693   1.360   0.977   0.692  0.6471  0.0006 -0.4980
  932MOL0     C25694   1.229   0.921   0.729 -0.6174 -0.1950 -0.4117
  932MOL0     C25695   1.146   0.913   0.608  0.8865 -0.1831  0.3393
  932MOL0     C25696   1.163   0.779   0.529  0.7626  0.5021 -0.2092
  932MOL0     C25697   1.095   0.789   0.392 -0.0747 -0.3165 -0.1349
  932MOL0     C25698   1.049   0.648   0.340 -0.5280 -0.8294  0.1321
  932MOL0     C25699   1.006   0.681   0.188  0.4233  0.2890 -0.2756
  932MOL0     C25700   0.881   0.602   0.147  0.0948 -0.2327  0.0267
  932MOL0     C25701   0.842   0.626  -0.007 -0.2748  0.6043  0.5377
  932MOL0     N25702   0.900   0.513  -0.090 -0.5465  0.1651 -0.8372
  932MOL0     C25703   0.857   0.383  -0.111 -0.5025  0.2065  0.8591
  932MOL0     C25704   0.968   0.327  -0.178  0.4450 -0.5502 -0.3323
  932MOL0     C25705   1.004   0.195  -0.216  0.2467  0.3469 -0.5582
  932MOL0     C25706   1.041   0.190  -0.359 -0.1875  0.3254 -0.0578
  932MOL0     C25707   0.922   0.228  -0.454 -0.6837  0.2527 -0.0763
  932MOL0     C25708   0.800   0.149  -0.425 -0.1757  0.2952  0.7712
  932MOL0     O25709   0.706   0.165  -0.531  0.6561 -0.2276  0.0803
  932MOL0     C25710   0.590   0.089  -0.532 -0.6520  0.5229 -0.6021
  932MOL0     C25711   0.504   0.106  -0.638 -0.3647  0.4681  0.8102
  932MOL0     C25712   0.389   0.034  -0.664  0.4659 -0.5332  0.7144
  932MOL0     C25713   0.337  -0.055  -0.576 -0.0962  1.0667  0.6987
  932MOL0     C25714   0.196  -0.114  -0.597 -0.2914  1.1000  0.0729
  932MOL0     O25715   0.154  -0.198  -0.498  0.5078 -0.8760  0.4723
  932MOL0     C25716   0.034  -0.268  -0.506  0.0222 -0.9125 -1.4441
  932MOL0     C25717  -0.088  -0.231  -0.558  0.5890 -0.1564 -0.1081
  932MOL0     C25718  -0.185  -0.329  -0.557 -0.3986  0.2825 -0.2540
  932MOL0     C25719  -0.175  -0.460  -0.511 -0.2806  0.9153 -0.1281
  932MOL0     O25720  -0.275  -0.550  -0.501  0.2860 -0.5283  0.3612
  932MOL0     C25721  -0.415  -0.481  -0.488  0.5909  0.6099  0.1153
  932MOL0     C25722  -0.518  -0.597  -0.430  0.2830  1.0859  0.5040
  932MOL0     C25723  -0.542  -0.711  -0.531 -0.3843  0.6581  0.6307
  932MOL0     C25724  -0.647  -0.813  -0.469 -0.5151 -1.0227 -0.6354
  932MOL0     C25725  -0.632  -0.949  -0.529 -0.2427  0.1888  0.4715
  932MOL0     C25726  -0.667  -0.964  -0.676  0.0348  0.2037  0.3926
  932MOL0     C25727  -0.815  -0.963  -0.714 -0.8891 -0.4149  0.3900
  932MOL0     C25728  -0.918  -1.012  -0.616 -0.2336 -0.0825 -0.0094
  932MOL0    Cl25729  -1.084  -1.010  -0.688  0.0622 -0.1181 -0.1602
  932MOL0     C25730  -0.052  -0.493  -0.447 -0.4245  0.8589  0.5029
  932MOL0     C25731   0.050  -0.397  -0.453  0.2883  1.7135  0.2784
  932MOL0     O25732   0.130  -0.102  -0.701 -0.1650  0.2511 -0.4750
  932MOL0     C25733   0.423  -0.093  -0.473  0.0285 -0.5333 -0.7602
  932MOL0     C25734   0.552  -0.025  -0.450  0.4076 -0.1364 -0.7035
  932MOL0     N25735   1.059   0.425  -0.193  0.2169  0.1007 -1.5662
  932MOL0     N25736   1.015   0.538  -0.148 -0.3953  0.2968 -0.4935
  932MOL0     C25737   1.422   0.984   0.935  0.3429  0.7151  1.0701
  932MOL0     C25738   1.513   1.003   1.030 -0.6433  0.2547 -0.1368
  932MOL0     C25739   1.870   1.239   1.217 -0.4045  0.5348 -0.5145
  932MOL0     C25740   1.903   1.378   1.240 -0.4647  0.1729 -0.0329
  932MOL0     C25741   1.984   1.423   1.339  0.5905 -0.3140 -0.2891
  932MOL0     C25742   2.030   1.333   1.430  0.0144 -0.9197 -0.1377
  932MOL0     O25743   2.107   1.382   1.528  0.8132 -0.0132 -0.0918
  932MOL0     C25744   2.090   1.320   1.658  0.4095 -0.3766 -0.9757
  932MOL0     C25745   2.147   1.412   1.766  0.6594 -0.2922 -0.8462
  932MOL0     C25746   2.139   1.346   1.907  0.2117  0.2331 -0.4727
  932MOL0     C25747   2.216   1.426   2.009 -0.0167  1.2328  0.2856
  932MOL0     C25748   2.158   1.412   2.136  0.8530  0.3089 -0.6597
  932MOL0     C25749   2.120   1.415   2.251  0.1917  0.3832  1.0429
  932MOL0     C25750   2.010   1.194   1.407 -0.1040  0.3286  0.2973
  932MOL0     C25751   1.933   1.142   1.302 -0.3661 -0.3670  0.4478
  932MOL0     C25752   1.947   0.988   1.279 -0.7587 -0.0465  0.1642
  932MOL0     H25753   1.779   1.050   0.819 -0.7615 -0.6384 -0.3542
  932MOL0     H25754   1.581   1.039   0.645 -0.0282 -0.7854 -0.6582
  932MOL0     H25755   1.249   0.823   0.771  1.9089 -0.4198 -1.8914
  932MOL0     H25756   1.182   0.980   0.808  2.3028 -2.7250  3.6325
  932MOL0     H25757   1.166   0.996   0.539 -2.8175  1.2225  0.7002
  932MOL0     H25758   1.041   0.929   0.634  1.2030  3.3708 -0.1356
  932MOL0     H25759   1.119   0.706   0.597 -1.7376  2.1472  0.0545
  932MOL0     H25760   1.267   0.760   0.500  0.1766  2.6585 -4.5645
  932MOL0     H25761   1.006   0.851   0.405 -0.5957 -1.5992  3.8610
  932MOL0     H25762   1.160   0.835   0.317 -0.7809 -1.2358 -1.3423
  932MOL0     H25763   1.129   0.575   0.354  0.1866 -0.4413 -1.6219
  932MOL0     H25764   0.968   0.606   0.400 -1.5419 -2.5737 -2.2997
  932MOL0     H25765   1.022   0.783   0.152  2.3388  0.3287  0.5746
  932MOL0     H25766   1.088   0.627   0.140 -0.9056 -1.8735 -0.2555
  932MOL0     H25767   0.797   0.634   0.210  1.8072  0.1930  2.2449
  932MOL0     H25768   0.897   0.497   0.173  0.5817 -0.8165 -2.3564
  932MOL0     H25769   0.733   0.624  -0.010 -0.2766  0.4362  0.7071
  932MOL0     H25770   0.878   0.724  -0.038 -0.0695  0.6874  1.0284
  932MOL0     H25771   0.767   0.335  -0.073 -1.0347 -1.4841 -2.1959
  932MOL0     H25772   1.089   0.168  -0.153  0.3175 -0.5580 -1.0184
  932MOL0     H25773   0.919   0.128  -0.199 -1.1672  2.2600  0.2823
  932MOL0     H25774   1.131   0.249  -0.380  0.7280 -1.3425 -1.0529
  932MOL0     H25775   1.063   0.087  -0.388 -1.1391 -0.1688  0.9239
  932MOL0     H25776   0.958   0.201  -0.554 -1.7368 -0.6233 -0.2309
  932MOL0     H25777   0.908   0.337  -0.462  0.2456  0.2524 -5.2888
  932MOL0     H25778   0.755   0.180  -0.331 -2.8288 -2.4596  0.5891
  932MOL0     H25779   0.833   0.045  -0.421 -2.2318 -0.3740  2.1902
  932MOL0     H25780   0.535   0.179  -0.712 -0.3591 -0.5085 -0.1796
  932MOL0     H25781   0.343   0.048  -0.761 -1.2052 -2.9022  1.0774
  932MOL0     H25782  -0.108  -0.134  -0.601 -2.6339  0.1169  1.6901
  932MOL0     H25783  -0.286  -0.302  -0.586 -0.4347 -1.1011 -1.5503
  932MOL0     H25784  -0.406  -0.405  -0.410 -0.2928 -0.0975  0.9283
  932MOL0     H25785  -0.465  -0.449  -0.580  0.8459 -0.9411 -0.5893
  932MOL0     H25786  -0.491  -0.639  -0.333 -1.4939  1.5465  1.2494
  932MOL0     H25787  -0.620  -0.562  -0.410 -0.6924 -0.3902 -1.4973
  932MOL0     H25788  -0.578  -0.671  -0.626 -0.7961 -2.2784 -0.5536
  932MOL0     H25789  -0.446  -0.759  -0.554 -1.4442 -0.2286 -2.3475
  932MOL0     H25790  -0.752  -0.786  -0.484 -0.9146 -1.2786  1.4209
  932MOL0     H25791  -0.628  -0.828  -0.362 -0.9452  1.8738 -0.0508
  932MOL0     H25792  -0.698  -1.012  -0.470 -0.9379 -0.4011 -0.8973
  932MOL0     H25793  -0.535  -0.998  -0.518 -1.1848 -2.0370 -0.5077
  932MOL0     H25794  -0.602  -0.905  -0.743  2.8427 -2.0578  0.9336
  932MOL0     H25795  -0.631  -1.061  -0.710 -2.8958 -0.6113 -0.6793
  932MOL0     H25796  -0.819  -1.033  -0.798 -2.0003  0.8499 -0.6488
  932MOL0     H25797  -0.846  -0.865  -0.750  1.3400  0.2781  0.1964
  932MOL0     H25798  -0.893  -1.111  -0.577  1.3366 -0.8909 -2.7926
  932MOL0     H25799  -0.911  -0.941  -0.532  2.0579 -1.9471  1.4999
  932MOL0     H25800  -0.049  -0.590  -0.398 -3.7774  2.3937  4.2980
  932MOL0     H25801   0.143  -0.434  -0.410 -2.2910 -1.8479  3.4205
  932MOL0     H25802   0.392  -0.185  -0.424 -0.5074 -0.5868 -1.1943
  932MOL0     H25803   0.605  -0.060  -0.362 -2.5861 -2.8145  0.2200
  932MOL0     H25804   1.319   0.971   0.967 -1.0638  1.1905 -2.7610
  932MOL0     H25805   1.497   1.007   1.137  0.8606 -2.8100  0.2881
  932MOL0     H25806   1.859   1.460   1.183 -0.6754  1.0230  1.3073
  932MOL0     H25807   2.002   1.529   1.355  0.1486  0.0937 -2.2754
  932MOL0     H25808   2.158   1.235   1.666  0.2955 -0.3020  2.2553
  932MOL0     H25809   1.987   1.296   1.684  0.7996  0.3316  1.4850
  932MOL0     H25810   2.100   1.511   1.771  2.1268  0.3555  2.6960
  932MOL0     H25811   2.246   1.449   1.737  1.0381  0.3675  1.1361
  932MOL0     H25812   2.202   1.257   1.902  2.8938  1.9952 -0.3976
  932MOL0     H25813   2.041   1.321   1.949  1.1480 -0.5621  1.3124
  932MOL0     H25814   2.319   1.390   2.010 -0.8025 -1.2615 -0.1402
  932MOL0     H25815   2.230   1.530   1.978  2.6871  0.8306 -0.0999
  932MOL0     H25816   2.078   1.411   2.349 -1.7058 -0.4220  0.2674
  932MOL0     H25817   2.056   1.114   1.465 -0.5444 -1.3052 -1.4870
  932MOL0     H25818   1.950   0.963   1.173  1.0827 -0.6130  0.3198
  932MOL0     H25819   2.037   0.948   1.327 -1.0398 -1.7977 -0.6687
  932MOL0     H25820   1.871   0.932   1.334  0.5508 -3.5484 -1.2552
  933MOL0     O25821   9.589   0.106  10.666 -0.3909  0.3915 -0.6198
  933MOL0     C25822   9.621   0.098  10.548 -0.2926  0.2509 -0.7994
  933MOL0     O25823   9.744   0.068  10.508 -0.3165 -0.3539  0.1894
  933MOL0     C25824   9.836   0.041  10.604 -0.8792  0.2655  0.2687
  933MOL0     C25825   9.836  -0.090  10.652 -0.4292  0.2147 -1.1799
  933MOL0     C25826   9.936  -0.124  10.748  0.0610 -0.3031 -0.2543
  933MOL0     C25827  10.029  -0.029  10.792 -0.5998  0.4667 -0.4672
  933MOL0     O25828  10.118  -0.047  10.899  0.1492 -0.1172 -0.8237
  933MOL0     C25829  10.128  -0.186  10.959 -0.2023  0.3313  0.1810
  933MOL0     C25830  10.203  -0.282  10.873 -0.0652 -0.1190 -0.2803
  933MOL0     C25831  10.200  -0.425  10.941 -0.5718  0.7116  0.0713
  933MOL0     C25832  10.202  -0.538  10.834 -1.0837  0.3253 -0.1653
  933MOL0     C25833  10.066  -0.548  10.757 -0.7728  0.3962 -0.2814
  933MOL0     C25834  10.071  -0.666  10.657 -0.0898 -0.1550 -0.1261
  933MOL0     C25835   9.921  -0.697  10.621  0.0201 -0.2649 -0.4208
  933MOL0     C25836   9.916  -0.829  10.544  0.4470  0.1807 -0.6103
  933MOL0     N25837  10.002  -0.849  10.420 -0.3875  0.2245 -1.2212
  933MOL0     C25838  10.121  -0.908  10.425  0.1425 -0.0431 -0.5899
  933MOL0     C25839  10.166  -0.896  10.296  0.5037 -0.2477 -0.6812
  933MOL0     C25840  10.300  -0.924  10.263 -0.5867  0.2771 -0.0402
  933MOL0     C25841  10.393  -0.804  10.278  0.7898  0.1502 -0.9994
  933MOL0     C25842  10.433  -0.783  10.427  0.3026 -0.1869  0.3669
  933MOL0     C25843  10.517  -0.656  10.448 -0.3743  0.0562  0.7133
  933MOL0     O25844  10.516  -0.629  10.584 -0.2949 -0.0369 -1.0817
  933MOL0     C25845  10.577  -0.514  10.641 -0.0793 -0.3235  0.5516
  933MOL0     C25846  10.550  -0.479  10.767  0.4783  0.5658  0.1652
  933MOL0     C25847  10.594  -0.356  10.824  0.2656  0.3954 -0.2661
  933MOL0     C25848  10.691  -0.283  10.757 -0.2488  0.0035  0.3478
  933MOL0     C25849  10.768  -0.192  10.848  0.1549  0.1809  1.2166
  933MOL0     O25850  10.832  -0.095  10.775 -0.2130 -0.5814  0.2141
  933MOL0     C25851  10.882   0.028  10.834  0.1501  0.1857  0.7081
  933MOL0     C25852  10.960   0.033  10.951  0.1412  1.0519  0.6220
  933MOL0     C25853  11.004   0.153  11.000  0.6501 -0.5341  0.2565
  933MOL0     C25854  10.976   0.275  10.938 -0.1737 -0.7525 -0.4005
  933MOL0     O25855  11.035   0.392  10.986  0.6010  0.3360 -0.0040
  933MOL0     C25856  11.142   0.448  10.905  0.3913  0.1144 -0.1806
  933MOL0     C25857  11.118   0.600  10.894 -0.1390  0.3285 -0.1130
  933MOL0     C25858  11.208   0.666  10.790 -0.0313 -0.5611 -0.3363
  933MOL0     C25859  11.355   0.649  10.824 -0.0259  0.0536  0.7207
  933MOL0     C25860  11.451   0.684  10.710  0.3196 -0.6039  0.0560
  933MOL0     C25861  11.600   0.685  10.749 -0.2246  0.2659  0.1388
  933MOL0     C25862  11.631   0.803  10.853 -0.4105  0.2884  0.0749
  933MOL0     C25863  11.750   0.784  10.938 -0.1688 -0.2371 -0.1373
  933MOL0    Cl25864  11.755   0.919  11.069  0.5499  0.0811  0.3775
  933MOL0     C25865  10.897   0.278  10.822  0.1011 -0.0742  0.2959
  933MOL0     C25866  10.845   0.156  10.770  0.4574  0.1961  0.1932
  933MOL0     O25867  10.757  -0.196  10.970  0.1250 -0.7374  0.4657
  933MOL0     C25868  10.722  -0.320  10.628  0.0110  0.4815  1.0817
  933MOL0     C25869  10.666  -0.430  10.568 -0.5170 -0.3279  0.1430
  933MOL0     N25870  10.074  -0.836  10.218  0.2732  0.3586  0.0326
  933MOL0     N25871   9.969  -0.808  10.293 -0.2967  0.3217  0.3388
  933MOL0     C25872  10.031   0.098  10.738  0.1139  0.3205  0.3971
  933MOL0     C25873   9.934   0.135  10.638  0.6581 -0.3485 -0.5032
  933MOL0     C25874   9.515   0.123  10.441 -0.1932  0.3832  0.3611
  933MOL0     C25875   9.379   0.122  10.475  0.1331  0.3114 -0.6981
  933MOL0     C25876   9.278   0.144  10.384  0.0996 -0.3171 -0.5996
  933MOL0     C25877   9.305   0.169  10.246  0.1641  0.3716 -0.1009
  933MOL0     O25878   9.214   0.193  10.148  0.0739 -0.5469  0.8195
  933MOL0     C25879   9.077   0.178  10.174 -0.2791 -0.1625 -0.4409
  933MOL0     C25880   8.991   0.192  10.044  0.2527 -1.3053  1.0306
  933MOL0     C25881   9.002   0.336   9.983 -0.5376  0.6200  0.0550
  933MOL0     C25882   8.925   0.353   9.849  0.5077 -0.6637 -0.0842
  933MOL0     C25883   8.994   0.276   9.744  0.0449  0.8069  0.8030
  933MOL0     C25884   9.051   0.198   9.676  0.1345  0.9011  0.0582
  933MOL0     C25885   9.439   0.178  10.218  0.0444  0.3665  0.6448
  933MOL0     C25886   9.545   0.148  10.304  0.2933  0.3047 -0.2080
  933MOL0     C25887   9.688   0.145  10.254 -0.2588 -0.1494  0.4655
  933MOL0     H25888   9.775  -0.172  10.618 -0.3624 -0.2480 -0.2258
  933MOL0     H25889   9.927  -0.228  10.780  0.4324 -1.2944 -3.1082
  933MOL0     H25890  10.174  -0.177  11.058  0.7882 -1.2093 -0.1002
  933MOL0     H25891  10.029  -0.224  10.985  1.3947 -1.6545  4.1992
  933MOL0     H25892  10.305  -0.244  10.866  1.0897 -3.1874 -2.1538
  933MOL0     H25893  10.146  -0.290  10.781  0.0977 -1.6282 -0.2786
  933MOL0     H25894  10.112  -0.437  11.004 -1.7132 -0.0927 -1.5831
  933MOL0     H25895  10.291  -0.432  11.000  1.0553 -0.9586 -2.4244
  933MOL0     H25896  10.271  -0.530  10.750 -2.3095 -1.7133 -1.4609
  933MOL0     H25897  10.220  -0.628  10.893  0.2364  1.7927  1.7737
  933MOL0     H25898   9.988  -0.575  10.829  0.0670 -1.2466  0.0814
  933MOL0     H25899  10.050  -0.454  10.704  0.6358  2.4110  2.6190
  933MOL0     H25900  10.133  -0.636  10.572 -2.0653  0.9822 -1.2289
  933MOL0     H25901  10.107  -0.764  10.693  0.0129  0.2853  1.0142
  933MOL0     H25902   9.883  -0.608  10.572  3.7552  1.8625  0.1821
  933MOL0     H25903   9.855  -0.702  10.708  1.1112  1.7420  0.5937
  933MOL0     H25904   9.929  -0.908  10.618 -3.5053 -1.4085 -1.3271
  933MOL0     H25905   9.815  -0.844  10.505  0.2888  1.0547 -0.5484
  933MOL0     H25906  10.171  -0.936  10.517 -1.2222  2.2340  0.9451
  933MOL0     H25907  10.336  -0.997  10.336  0.5950  0.7146 -0.1769
  933MOL0     H25908  10.309  -0.965  10.161 -1.8263 -1.6335  0.5526
  933MOL0     H25909  10.483  -0.816  10.218 -0.0302 -2.6189 -1.7972
  933MOL0     H25910  10.341  -0.714  10.243  0.7307  0.9717  1.0407
  933MOL0     H25911  10.511  -0.855  10.454  2.0564  2.1637  1.9871
  933MOL0     H25912  10.350  -0.780  10.498 -0.1449  0.3590 -0.1660
  933MOL0     H25913  10.467  -0.568  10.407  0.2109 -0.3646 -0.9954
  933MOL0     H25914  10.619  -0.664  10.408  0.9600  4.3323  2.6294
  933MOL0     H25915  10.496  -0.551  10.829 -2.1681  1.8334 -0.5452
  933MOL0     H25916  10.555  -0.329  10.922 -1.1426  0.1689 -0.7406
  933MOL0     H25917  11.001  -0.057  10.996  3.4698  2.9619  1.6956
  933MOL0     H25918  11.040   0.150  11.102  0.6509 -1.1520  0.2408
  933MOL0     H25919  11.237   0.430  10.957  0.5471  0.6149 -0.2889
  933MOL0     H25920  11.135   0.402  10.806 -3.0445 -0.8617  0.3832
  933MOL0     H25921  11.014   0.623  10.873 -1.3052  0.6339  4.7536
  933MOL0     H25922  11.135   0.635  10.997  0.9772 -0.2971 -0.0639
  933MOL0     H25923  11.177   0.637  10.689  0.6538  0.1494 -0.7714
  933MOL0     H25924  11.193   0.775  10.788 -0.7889 -0.6046 -4.0230
  933MOL0     H25925  11.392   0.549  10.847 -0.3324 -0.1106  0.5132
  933MOL0     H25926  11.370   0.707  10.916 -0.0706 -0.6134  1.1547
  933MOL0     H25927  11.433   0.777  10.655  3.1103  0.9786  1.6049
  933MOL0     H25928  11.434   0.600  10.642  2.3538 -2.0895  1.2701
  933MOL0     H25929  11.633   0.592  10.795 -1.1416  1.3414  3.2674
  933MOL0     H25930  11.655   0.692  10.655 -2.5447 -0.4282 -1.3333
  933MOL0     H25931  11.545   0.817  10.920 -1.2442  4.2420 -1.5332
  933MOL0     H25932  11.639   0.906  10.817  0.9156  1.8136  4.1282
  933MOL0     H25933  11.750   0.683  10.980  2.3916 -0.0748  0.3747
  933MOL0     H25934  11.844   0.796  10.883  0.2630 -1.9307  0.1867
  933MOL0     H25935  10.877   0.374  10.777  0.3471 -0.4803 -0.6965
  933MOL0     H25936  10.776   0.159  10.686  2.1371 -3.9218 -1.6225
  933MOL0     H25937  10.793  -0.260  10.571 -0.0721  1.0065  1.5201
  933MOL0     H25938  10.713  -0.452  10.472  1.4886  1.0760  0.7420
  933MOL0     H25939  10.095   0.181  10.766  0.5873 -0.6288  2.3029
  933MOL0     H25940   9.940   0.227  10.579 -1.2619  0.9423  1.1987
  933MOL0     H25941   9.354   0.092  10.577  1.4827 -1.5064 -0.8660
  933MOL0     H25942   9.174   0.133  10.415 -0.8550  1.6791 -2.8646
  933MOL0     H25943   9.048   0.256  10.245  0.7436 -0.8317  0.7723
  933MOL0     H25944   9.077   0.080  10.224  1.1081  1.3496  2.8788
  933MOL0     H25945   8.888   0.155  10.055  0.4816 -2.1981  0.3264
  933MOL0     H25946   9.030   0.125   9.967 -0.4587 -2.2773  1.4868
  933MOL0     H25947   9.106   0.368   9.970 -1.1059  2.0759 -1.3033
  933MOL0     H25948   8.964   0.397  10.065  0.0226  1.5150 -0.3320
  933MOL0     H25949   8.824   0.312   9.860  0.3144 -0.8124 -2.1236
  933MOL0     H25950   8.928   0.454   9.808 -0.1234 -1.8922 -3.4575
  933MOL0     H25951   9.112   0.131   9.619  1.4584  1.2100  1.0433
  933MOL0     H25952   9.463   0.186  10.112 -1.6727 -0.1834  0.1825
  933MOL0     H25953   9.748   0.232  10.284  0.5059  0.3906 -2.3923
  933MOL0     H25954   9.738   0.053  10.286 -0.1545  0.6364  2.7838
  933MOL0     H25955   9.675   0.145  10.146 -2.0829  2.4498  0.5857
  934MOL0     O25956   6.837   4.776   8.179  0.1330  0.2425 -0.7020
  934MOL0     C25957   6.935   4.698   8.166 -1.0733 -0.2995 -0.5419
  934MOL0     O25958   6.991   4.651   8.042  0.8741 -0.1268 -0.6089
  934MOL0     C25959   6.932   4.652   7.923  0.8148 -0.6598  0.6936
  934MOL0     C25960   7.017   4.658   7.811 -0.4872  0.7464  0.0374
  934MOL0     C25961   6.973   4.672   7.683 -0.0407  0.8142  0.0252
  934MOL0     C25962   6.836   4.660   7.655 -0.5147  0.6138 -0.0098
  934MOL0     O25963   6.780   4.690   7.537 -0.0789  0.0013  0.6050
  934MOL0     C25964   6.854   4.672   7.411  0.0845 -0.7937  0.7608
  934MOL0     C25965   6.911   4.526   7.393  0.7112  0.4500  0.5787
  934MOL0     C25966   6.972   4.509   7.264 -0.3307 -0.7485 -0.4549
  934MOL0     C25967   7.107   4.578   7.233  0.3394  0.5610 -0.2981
  934MOL0     C25968   7.179   4.532   7.100  0.8343 -0.2566 -0.1752
  934MOL0     C25969   7.319   4.596   7.075  0.2664 -0.0207 -0.5397
  934MOL0     C25970   7.410   4.621   7.190 -0.2078  0.6152 -0.8563
  934MOL0     C25971   7.455   4.486   7.279 -0.1586 -0.2520  0.6395
  934MOL0     N25972   7.545   4.402   7.198 -0.3997 -0.1385  0.5472
  934MOL0     C25973   7.683   4.390   7.216  0.0175 -0.4003  0.3508
  934MOL0     C25974   7.721   4.282   7.158  0.2049  0.1725 -0.8301
  934MOL0     C25975   7.867   4.244   7.146  0.0633 -0.1838  0.2282
  934MOL0     C25976   7.935   4.343   7.048  0.9464  0.0195  0.5227
  934MOL0     C25977   8.091   4.330   7.054  0.9366 -0.3253  0.6757
  934MOL0     C25978   8.164   4.422   6.952  0.3262  0.4596 -0.2508
  934MOL0     O25979   8.307   4.415   6.970 -0.2922  0.3722 -0.2268
  934MOL0     C25980   8.391   4.466   6.868 -0.2794  0.9239  0.6427
  934MOL0     C25981   8.370   4.564   6.769  0.7165 -1.0237 -0.0424
  934MOL0     C25982   8.472   4.612   6.681  1.0837  0.2436 -0.4850
  934MOL0     C25983   8.602   4.561   6.691 -0.2480  0.0422 -1.1632
  934MOL0     C25984   8.718   4.612   6.614  0.8572 -0.4539  0.0456
  934MOL0     O25985   8.700   4.720   6.522 -0.8878 -0.0051 -0.4593
  934MOL0     C25986   8.802   4.770   6.443  0.0527  0.2114  0.3580
  934MOL0     C25987   8.945   4.740   6.444 -0.3500  0.2893 -0.4050
  934MOL0     C25988   9.037   4.803   6.356 -0.1605 -0.5361  0.0621
  934MOL0     C25989   8.990   4.902   6.267  0.6317 -0.8541 -0.7563
  934MOL0     O25990   9.085   4.972   6.191  0.6452 -0.3446 -0.0240
  934MOL0     C25991   9.042   5.027   6.069  0.0650  1.2968  0.2367
  934MOL0     C25992   9.166   5.018   5.969  0.1671  0.8082  0.2820
  934MOL0     C25993   9.289   5.085   6.023  0.0238 -0.7037  0.3969
  934MOL0     C25994   9.418   5.022   5.975 -0.5836 -0.0455 -0.4142
  934MOL0     C25995   9.546   5.092   6.023  0.3855 -1.2064  0.0712
  934MOL0     C25996   9.685   5.025   5.989  0.1210  0.1558  0.6650
  934MOL0     C25997   9.809   5.089   6.051 -0.5195 -0.3066  0.4757
  934MOL0     C25998   9.837   5.233   6.022 -0.1110  0.3487 -0.1980
  934MOL0    Cl25999   9.955   5.277   5.888  0.4202 -0.3365 -0.5308
  934MOL0     C26000   8.848   4.937   6.274 -0.1114  0.8359 -0.2917
  934MOL0     C26001   8.752   4.870   6.356  0.2015 -0.5033 -0.0838
  934MOL0     O26002   8.824   4.551   6.623  0.0635 -0.3252 -0.4788
  934MOL0     C26003   8.625   4.466   6.790 -1.0595  0.9346  0.4395
  934MOL0     C26004   8.525   4.424   6.879 -0.1229 -0.2932  0.1379
  934MOL0     N26005   7.609   4.231   7.094  0.0441 -1.3575  0.3698
  934MOL0     N26006   7.503   4.303   7.122  0.0464 -0.5566 -0.1003
  934MOL0     C26007   6.743   4.640   7.758 -0.9677  0.9982  0.2476
  934MOL0     C26008   6.791   4.643   7.895 -0.4697  0.5385 -0.7230
  934MOL0     C26009   7.015   4.669   8.287 -0.1657  0.0763 -0.4593
  934MOL0     C26010   7.131   4.595   8.271  0.0159 -0.0586 -0.0031
  934MOL0     C26011   7.213   4.552   8.375 -0.3097 -0.2776 -0.5056
  934MOL0     C26012   7.177   4.588   8.515 -0.0791  0.3360 -0.0725
  934MOL0     O26013   7.244   4.547   8.627  0.1942 -0.1403 -0.0181
  934MOL0     C26014   7.298   4.416   8.639 -0.7619  0.8872 -0.2028
  934MOL0     C26015   7.197   4.300   8.583  0.1967 -0.1316  0.2807
  934MOL0     C26016   7.221   4.157   8.624 -0.7440 -0.0743 -0.6757
  934MOL0     C26017   7.200   4.121   8.773  0.4867 -0.8591 -0.3476
  934MOL0     C26018   7.097   4.190   8.853  0.0760  0.3739 -0.1244
  934MOL0     C26019   7.008   4.247   8.912 -0.0352 -0.4926  0.4129
  934MOL0     C26020   7.059   4.667   8.532 -0.3893  0.5539  0.3765
  934MOL0     C26021   6.975   4.699   8.421 -0.0321 -0.5503 -0.7846
  934MOL0     C26022   6.862   4.784   8.472 -0.2459  0.1455  0.2430
  934MOL0     H26023   7.125   4.654   7.806 -0.5643 -0.5055 -1.0708
  934MOL0     H26024   7.040   4.715   7.609  1.7831 -1.8192 -0.0075
  934MOL0     H26025   6.798   4.713   7.326 -0.0090 -1.7312  0.3496
  934MOL0     H26026   6.936   4.743   7.400 -0.6299  0.2489  1.9976
  934MOL0     H26027   6.834   4.451   7.410 -1.0509  1.0033 -3.6863
  934MOL0     H26028   6.991   4.513   7.467  1.4670 -0.3776 -0.3489
  934MOL0     H26029   6.905   4.553   7.189 -1.6726 -2.3091 -0.2225
  934MOL0     H26030   6.998   4.405   7.245  2.8881  0.2682 -2.5454
  934MOL0     H26031   7.082   4.684   7.223 -0.3423  0.1859 -3.5645
  934MOL0     H26032   7.168   4.554   7.320  2.6325 -1.3869 -2.2905
  934MOL0     H26033   7.205   4.426   7.108  0.0661 -0.4444 -0.0736
  934MOL0     H26034   7.115   4.533   7.011 -0.0551 -1.4327  0.4156
  934MOL0     H26035   7.369   4.544   6.992  0.4545 -0.0535 -0.4072
  934MOL0     H26036   7.291   4.691   7.029 -2.2530  0.4307  1.7050
  934MOL0     H26037   7.365   4.692   7.260  1.0344 -0.2363  0.8936
  934MOL0     H26038   7.497   4.676   7.152 -2.8110  4.1959 -2.1590
  934MOL0     H26039   7.501   4.516   7.373  0.0267  2.6576 -0.2785
  934MOL0     H26040   7.366   4.431   7.312 -0.3208  0.1983  0.9579
  934MOL0     H26041   7.744   4.464   7.267 -0.8056 -1.2200  2.6187
  934MOL0     H26042   7.910   4.254   7.247  2.1091  0.7131 -0.6719
  934MOL0     H26043   7.892   4.140   7.125  0.2476 -0.0125 -0.4193
  934MOL0     H26044   7.909   4.317   6.945  0.1052 -1.3720  1.0527
  934MOL0     H26045   7.900   4.445   7.065 -2.0123 -0.5610 -1.3538
  934MOL0     H26046   8.125   4.230   7.026 -0.3323 -0.2941 -1.1758
  934MOL0     H26047   8.119   4.344   7.159 -0.9429  1.7149  0.9702
  934MOL0     H26048   8.142   4.527   6.972 -3.9052 -0.6016  1.8310
  934MOL0     H26049   8.137   4.392   6.851  0.4798  0.4795 -0.2983
  934MOL0     H26050   8.267   4.599   6.774  0.2692 -2.4211  1.2252
  934MOL0     H26051   8.457   4.691   6.607 -0.0202  1.0745  0.5880
  934MOL0     H26052   8.992   4.689   6.528  0.5756  0.3141 -0.8963
  934MOL0     H26053   9.142   4.783   6.337 -0.5200 -0.7961 -1.9487
  934MOL0     H26054   8.960   4.963   6.035 -0.8676  1.7694  1.5061
  934MOL0     H26055   9.016   5.133   6.077  2.8320  2.1899 -1.4470
  934MOL0     H26056   9.187   4.912   5.951 -4.0862  0.0195 -1.2113
  934MOL0     H26057   9.134   5.046   5.869  0.3284 -1.2694 -0.3976
  934MOL0     H26058   9.270   5.190   6.003 -2.9283 -1.7726 -3.8061
  934MOL0     H26059   9.282   5.068   6.131 -1.8047  0.5878  0.5367
  934MOL0     H26060   9.424   5.009   5.867  2.9789 -2.4986 -0.1054
  934MOL0     H26061   9.416   4.919   6.012 -0.3393  0.2913  0.5759
  934MOL0     H26062   9.551   5.096   6.133  2.1605 -2.7650  0.0997
  934MOL0     H26063   9.539   5.196   5.991 -2.0702 -0.8923  1.4265
  934MOL0     H26064   9.668   4.922   6.022  0.8912 -0.4130 -0.6090
  934MOL0     H26065   9.702   5.023   5.881  1.9204 -2.5453  0.9086
  934MOL0     H26066   9.889   5.028   6.008  0.9370  2.5352 -1.1689
  934MOL0     H26067   9.821   5.063   6.156 -0.6989 -1.7928  0.1527
  934MOL0     H26068   9.739   5.278   6.006 -0.9816 -1.5259 -0.4833
  934MOL0     H26069   9.889   5.275   6.108 -0.9769  1.4781 -0.2071
  934MOL0     H26070   8.815   5.025   6.220  0.0676  0.3634 -1.1728
  934MOL0     H26071   8.651   4.909   6.359  1.0805  1.9333  0.7029
  934MOL0     H26072   8.725   4.424   6.802 -0.2844  2.3944 -0.6169
  934MOL0     H26073   8.548   4.361   6.965 -1.2302 -1.1297 -0.1474
  934MOL0     H26074   6.639   4.645   7.729 -0.5120 -1.9582 -2.5009
  934MOL0     H26075   6.717   4.652   7.973  0.1389  0.7927 -0.1657
  934MOL0     H26076   7.157   4.551   8.175 -2.3811  2.9581 -2.2278
  934MOL0     H26077   7.307   4.499   8.362  0.3021  1.1088 -2.1778
  934MOL0     H26078   7.314   4.392   8.744 -3.1769 -4.2110 -0.7120
  934MOL0     H26079   7.394   4.417   8.587  1.0515 -0.4156  2.8569
  934MOL0     H26080   7.183   4.308   8.475  0.3970 -0.6643  0.2150
  934MOL0     H26081   7.098   4.336   8.613  0.3385 -0.0116  0.6059
  934MOL0     H26082   7.325   4.130   8.609  0.0603  2.1833  0.3075
  934MOL0     H26083   7.164   4.095   8.555  0.5673 -0.1073 -1.7539
  934MOL0     H26084   7.166   4.017   8.770 -0.1045 -0.7276 -4.8549
  934MOL0     H26085   7.296   4.128   8.825  0.4048  3.7313 -0.4032
  934MOL0     H26086   6.934   4.308   8.958 -2.8407 -1.8191 -1.9816
  934MOL0     H26087   7.029   4.693   8.633 -0.9900  0.1348  0.3101
  934MOL0     H26088   6.850   4.880   8.420 -2.6338  1.1039  2.3428
  934MOL0     H26089   6.774   4.722   8.450 -0.6560  1.3527 -1.8545
  934MOL0     H26090   6.867   4.809   8.578 -0.4542 -1.5971  0.6903
  935MOL0     O26091   3.924  11.200   1.811  0.0485 -0.6702 -0.4640
  935MOL0     C26092   3.818  11.136   1.812  0.3363 -0.0657 -0.1713
  935MOL0     O26093   3.710  11.170   1.732 -0.1614  0.2582 -1.0382
  935MOL0     C26094   3.724  11.262   1.629  0.3011  0.5146  0.0255
  935MOL0     C26095   3.838  11.272   1.544 -0.1730  0.2653  0.3521
  935MOL0     C26096   3.841  11.359   1.439  0.2922 -0.5847  0.7422
  935MOL0     C26097   3.723  11.421   1.399  0.7234 -0.4418  0.8346
  935MOL0     O26098   3.704  11.492   1.279 -0.5970  0.2232  0.3313
  935MOL0     C26099   3.703  11.634   1.286 -0.3979  0.3117 -0.4006
  935MOL0     C26100   3.800  11.700   1.187  0.6716  0.3904 -0.7753
  935MOL0     C26101   3.746  11.826   1.131  0.4312  0.6949 -0.0245
  935MOL0     C26102   3.752  11.938   1.238 -0.0719  0.1333 -0.3138
  935MOL0     C26103   3.682  12.066   1.198 -1.0064 -0.3068 -0.6552
  935MOL0     C26104   3.670  12.158   1.317  0.5356 -0.3374 -0.6543
  935MOL0     C26105   3.575  12.277   1.287 -0.5174 -0.1138 -0.0232
  935MOL0     C26106   3.425  12.237   1.278 -0.3719  0.0330  0.6194
  935MOL0     N26107   3.337  12.344   1.229 -0.3885 -0.5633 -0.0930
  935MOL0     C26108   3.221  12.347   1.152  0.0597  0.9812  0.4629
  935MOL0     C26109   3.176  12.475   1.133  1.1148  0.0316 -0.4953
  935MOL0     C26110   3.069  12.523   1.045 -0.2055 -0.1642  0.2251
  935MOL0     C26111   2.931  12.507   1.102  0.9259  0.8315 -0.1860
  935MOL0     C26112   2.819  12.495   0.996 -0.4042  0.3150 -0.4772
  935MOL0     C26113   2.690  12.446   1.067  0.1214 -1.1126 -0.2583
  935MOL0     O26114   2.660  12.310   1.051  0.5086 -0.1248 -0.0936
  935MOL0     C26115   2.612  12.264   0.938  1.1134 -0.3876 -0.3073
  935MOL0     C26116   2.630  12.125   0.914 -0.2203 -0.6930 -0.0106
  935MOL0     C26117   2.564  12.068   0.802 -0.4610  0.0245  0.2949
  935MOL0     C26118   2.484  12.145   0.715 -0.6065 -1.2488  0.8966
  935MOL0     C26119   2.413  12.079   0.599  0.9031 -1.0443 -0.6516
  935MOL0     O26120   2.325  12.158   0.529 -0.2979  0.1403  0.3643
  935MOL0     C26121   2.245  12.109   0.432 -0.4072 -0.0283 -0.2614
  935MOL0     C26122   2.226  12.190   0.323 -0.1558 -0.3866  0.0962
  935MOL0     C26123   2.150  12.150   0.210 -1.0238  0.2553  0.2030
  935MOL0     C26124   2.102  12.021   0.201 -0.4317 -0.0741  0.5629
  935MOL0     O26125   2.028  11.964   0.101 -0.8446 -0.5331  0.2908
  935MOL0     C26126   1.961  12.050   0.003  0.1051 -0.8108  0.5301
  935MOL0     C26127   1.915  11.973  -0.128 -0.4748  0.7166 -0.0988
  935MOL0     C26128   1.860  12.076  -0.231 -0.7716  0.5125  0.3581
  935MOL0     C26129   1.760  12.011  -0.322  0.7330 -0.9938 -0.2692
  935MOL0     C26130   1.686  12.120  -0.393 -0.1830 -0.9739 -0.2381
  935MOL0     C26131   1.759  12.209  -0.497 -0.3076  0.2616  0.5146
  935MOL0     C26132   1.795  12.129  -0.620  0.7447 -1.0991 -0.7015
  935MOL0     C26133   1.750  12.211  -0.752 -0.0803  0.4362  0.2654
  935MOL0    Cl26134   1.577  12.166  -0.782 -0.1795 -0.1286  0.5403
  935MOL0     C26135   2.130  11.939   0.312 -0.5381  0.4344  0.7719
  935MOL0     C26136   2.194  11.978   0.430 -0.5890  0.1311  0.1759
  935MOL0     O26137   2.443  11.964   0.565 -0.9019 -0.0098  0.6671
  935MOL0     C26138   2.468  12.284   0.742  0.4631 -0.0108 -0.3147
  935MOL0     C26139   2.539  12.344   0.843 -0.1761  0.1832  0.6049
  935MOL0     N26140   3.256  12.551   1.212 -0.3322  0.4779  0.5692
  935MOL0     N26141   3.346  12.481   1.266 -0.5152 -0.4241 -0.0759
  935MOL0     C26142   3.605  11.407   1.475 -0.4060  0.5162 -0.6028
  935MOL0     C26143   3.613  11.329   1.597  0.1110  0.1031  0.0297
  935MOL0     C26144   3.790  11.032   1.918 -0.3410 -0.6355  0.3287
  935MOL0     C26145   3.657  10.973   1.937 -0.8246  1.3748  0.5054
  935MOL0     C26146   3.629  10.883   2.030 -0.0528  0.5338 -0.2068
  935MOL0     C26147   3.731  10.841   2.119  0.5952 -0.3997  0.7347
  935MOL0     O26148   3.711  10.749   2.219  0.7351  0.5413  0.1639
  935MOL0     C26149   3.573  10.703   2.235 -0.2310  0.2188  0.5506
  935MOL0     C26150   3.542  10.618   2.358 -0.3494  0.1029  0.9233
  935MOL0     C26151   3.581  10.698   2.483 -0.1998 -0.1908  0.3779
  935MOL0     C26152   3.501  10.659   2.606 -0.2019 -0.7928  0.1524
  935MOL0     C26153   3.368  10.727   2.593 -1.2983  0.4866 -0.6691
  935MOL0     C26154   3.261  10.783   2.599 -0.3527 -0.9086  0.2693
  935MOL0     C26155   3.862  10.887   2.103  0.4411  0.0533 -0.3334
  935MOL0     C26156   3.892  10.991   2.009  0.4208  0.9844  0.5139
  935MOL0     C26157   4.042  11.032   2.001  0.1652  0.7321 -0.9665
  935MOL0     H26158   3.928  11.223   1.579  0.2853  2.0526  1.8131
  935MOL0     H26159   3.925  11.360   1.371  0.3963 -1.6727  0.8290
  935MOL0     H26160   3.603  11.658   1.249 -0.9933 -0.1411  0.8721
  935MOL0     H26161   3.726  11.680   1.383 -0.8220  3.2390 -1.5743
  935MOL0     H26162   3.836  11.630   1.111  2.7373  0.7768 -0.2209
  935MOL0     H26163   3.886  11.735   1.245  1.2372  3.3974 -3.2027
  935MOL0     H26164   3.648  11.803   1.087  0.4113  0.1395  0.3022
  935MOL0     H26165   3.810  11.846   1.045  1.3768 -1.1562  0.1878
  935MOL0     H26166   3.688  11.902   1.319 -1.2266 -1.0365 -1.6731
  935MOL0     H26167   3.855  11.961   1.264 -0.4453 -0.3925  1.7885
  935MOL0     H26168   3.738  12.113   1.117 -1.5695  1.2046 -0.2068
  935MOL0     H26169   3.579  12.045   1.170 -1.5217  1.6566 -0.3873
  935MOL0     H26170   3.623  12.116   1.406  1.5483  2.0684  1.1527
  935MOL0     H26171   3.761  12.208   1.354 -0.4511  0.0933  1.3080
  935MOL0     H26172   3.602  12.329   1.195 -1.2988  2.3260  1.0279
  935MOL0     H26173   3.585  12.354   1.364 -4.5709  2.1196 -1.4314
  935MOL0     H26174   3.406  12.150   1.215 -1.4294  1.4318 -1.0689
  935MOL0     H26175   3.399  12.207   1.380  2.0482 -4.8584  0.1202
  935MOL0     H26176   3.169  12.258   1.119  1.1725  0.3545  0.3317
  935MOL0     H26177   3.085  12.630   1.029  2.1448 -0.6449 -1.0735
  935MOL0     H26178   3.076  12.476   0.946 -0.9271  0.0631  0.0587
  935MOL0     H26179   2.933  12.416   1.163  0.5008  1.5143  0.8770
  935MOL0     H26180   2.913  12.597   1.161  1.4192 -0.0085  1.3060
  935MOL0     H26181   2.850  12.427   0.917 -0.7644 -0.5517  0.1171
  935MOL0     H26182   2.797  12.596   0.960 -1.7296 -0.4420 -1.8887
  935MOL0     H26183   2.609  12.513   1.039  0.4124  0.2083  1.8047
  935MOL0     H26184   2.699  12.469   1.174 -1.2334  4.8046 -1.0647
  935MOL0     H26185   2.706  12.066   0.965  1.4450 -0.6408 -2.2794
  935MOL0     H26186   2.581  11.965   0.772  1.4928  0.8354 -1.5970
  935MOL0     H26187   2.264  12.291   0.310 -1.2957 -0.2635 -3.1110
  935MOL0     H26188   2.124  12.228   0.139  2.6113  0.7957 -0.7563
  935MOL0     H26189   1.866  12.078   0.049 -2.3649 -2.2052 -3.2251
  935MOL0     H26190   2.014  12.141  -0.029 -0.4537  0.1077  2.1477
  935MOL0     H26191   2.005  11.924  -0.166  1.3023  3.4620  0.3109
  935MOL0     H26192   1.843  11.894  -0.106 -0.4947  0.2452 -1.7541
  935MOL0     H26193   1.829  12.167  -0.180  0.2020  0.0399  1.8855
  935MOL0     H26194   1.948  12.104  -0.289  0.3511  0.1573  1.8164
  935MOL0     H26195   1.695  11.954  -0.255 -1.2695 -2.2207 -3.0720
  935MOL0     H26196   1.814  11.946  -0.391 -0.7010 -0.4463 -1.9636
  935MOL0     H26197   1.650  12.188  -0.315  0.4432 -0.8394 -0.0562
  935MOL0     H26198   1.596  12.083  -0.442 -1.5662  1.7335  0.0739
  935MOL0     H26199   1.683  12.283  -0.523 -1.9081 -1.1164  1.1526
  935MOL0     H26200   1.845  12.255  -0.446 -1.8929 -1.5952  5.4242
  935MOL0     H26201   1.744  12.033  -0.625  1.6992 -1.6372 -0.3951
  935MOL0     H26202   1.905  12.128  -0.627  0.9807  3.2163 -0.0678
  935MOL0     H26203   1.763  12.319  -0.738  2.8273  0.1766  0.2313
  935MOL0     H26204   1.815  12.188  -0.837 -3.3014  1.0287 -2.5551
  935MOL0     H26205   2.095  11.837   0.297 -1.8764  0.6966  1.9372
  935MOL0     H26206   2.192  11.913   0.517 -0.4032  0.0401  0.1121
  935MOL0     H26207   2.407  12.343   0.674  1.7486  1.5231 -0.1851
  935MOL0     H26208   2.519  12.451   0.848 -0.3176  0.3086 -1.5925
  935MOL0     H26209   3.518  11.467   1.447  0.4135  2.5245  0.8922
  935MOL0     H26210   3.519  11.310   1.649 -0.3732  1.5963 -0.2510
  935MOL0     H26211   3.586  11.001   1.860  0.5959  1.4571 -0.8208
  935MOL0     H26212   3.529  10.841   2.031  0.3359 -0.4092  0.2159
  935MOL0     H26213   3.544  10.653   2.142 -0.3275  0.5909  0.3769
  935MOL0     H26214   3.514  10.793   2.251  1.1627  1.3006 -0.1342
  935MOL0     H26215   3.608  10.531   2.348  1.4994  1.5844 -0.5150
  935MOL0     H26216   3.438  10.588   2.346 -0.0135 -0.3031 -1.4789
  935MOL0     H26217   3.568  10.803   2.455  0.8253 -0.7180 -2.4385
  935MOL0     H26218   3.687  10.677   2.500 -0.0667 -0.7636 -1.0205
  935MOL0     H26219   3.499  10.551   2.625  0.0891 -0.7053  0.7356
  935MOL0     H26220   3.547  10.713   2.690 -1.8280 -0.7605  1.0529
  935MOL0     H26221   3.163  10.824   2.613 -1.8716 -2.9875 -2.8326
  935MOL0     H26222   3.932  10.861   2.182  0.3626 -2.1673 -0.9188
  935MOL0     H26223   4.082  11.026   1.899  0.1535  1.4503 -1.0183
  935MOL0     H26224   4.057  11.137   2.027  1.4272  0.1149  0.9579
  935MOL0     H26225   4.106  10.980   2.072 -2.1412  0.9357  1.4330
  936MOL0     O26226   9.532   0.557   5.616  0.1906  0.5618 -0.2650
  936MOL0     C26227   9.511   0.638   5.525 -0.2946 -0.0876  0.4413
  936MOL0     O26228   9.556   0.760   5.529  0.4384 -0.8341  0.1810
  936MOL0     C26229   9.681   0.785   5.579  0.3389  0.4025  0.3085
  936MOL0     C26230   9.790   0.798   5.492  0.1839 -0.1508  0.2043
  936MOL0     C26231   9.924   0.833   5.544 -0.7315 -0.6219  0.5361
  936MOL0     C26232   9.940   0.863   5.678 -0.6905  0.4217 -0.3036
  936MOL0     O26233  10.058   0.887   5.743  0.0547 -0.6842 -1.2804
  936MOL0     C26234  10.165   0.959   5.675 -0.1680 -0.0876 -0.7997
  936MOL0     C26235  10.292   0.974   5.760  0.7437 -0.2986 -0.3596
  936MOL0     C26236  10.387   1.067   5.688 -0.1838 -0.9833  1.1697
  936MOL0     C26237  10.361   1.218   5.702 -0.4825 -0.2268  1.0611
  936MOL0     C26238  10.475   1.299   5.647  0.1943 -1.3877  0.3481
  936MOL0     C26239  10.448   1.444   5.674 -0.7251  0.3990 -0.2448
  936MOL0     C26240  10.563   1.526   5.620  0.1129  0.3091 -0.2868
  936MOL0     C26241  10.541   1.682   5.631  0.6578 -0.7124  0.1538
  936MOL0     N26242  10.533   1.712   5.774 -0.5054  0.5618  0.2151
  936MOL0     C26243  10.426   1.721   5.859  0.2237  0.1612 -0.3344
  936MOL0     C26244  10.486   1.758   5.971  0.3978  0.2587 -0.2071
  936MOL0     C26245  10.438   1.788   6.113 -0.1423  0.1576 -0.7721
  936MOL0     C26246  10.278   1.776   6.135  0.1298  0.6166 -0.4202
  936MOL0     C26247  10.244   1.623   6.146 -0.0676  0.7046 -0.6780
  936MOL0     C26248  10.094   1.598   6.133  0.4151 -0.5714  0.0054
  936MOL0     O26249  10.012   1.702   6.198 -0.5849  0.3347 -0.5484
  936MOL0     C26250   9.974   1.670   6.331 -0.1946 -0.2440 -0.2389
  936MOL0     C26251  10.049   1.701   6.440  0.3856  0.2026  0.3555
  936MOL0     C26252  10.015   1.650   6.565 -0.5638 -0.4718 -0.7533
  936MOL0     C26253   9.916   1.553   6.589 -0.4043 -0.1676  0.0632
  936MOL0     C26254   9.890   1.498   6.724  1.1944  0.7844  0.6959
  936MOL0     O26255   9.802   1.396   6.722 -0.5485 -0.5175 -0.3187
  936MOL0     C26256   9.752   1.370   6.856  0.0242 -0.4030  0.4093
  936MOL0     C26257   9.622   1.421   6.882  0.3479 -0.9308  0.0693
  936MOL0     C26258   9.560   1.389   7.002  0.2408  0.0098 -0.7378
  936MOL0     C26259   9.618   1.294   7.084 -1.1649  0.1407 -0.5807
  936MOL0     O26260   9.541   1.256   7.190 -0.0118  0.7056 -0.2242
  936MOL0     C26261   9.572   1.145   7.278  0.1419 -0.2982 -0.1632
  936MOL0     C26262   9.472   1.119   7.382 -0.2943 -0.1427  1.3172
  936MOL0     C26263   9.465   1.230   7.491 -1.6948 -0.5248  0.1854
  936MOL0     C26264   9.334   1.208   7.569  0.8076  0.2652 -0.2812
  936MOL0     C26265   9.253   1.343   7.566  0.2065  0.8545 -0.1467
  936MOL0     C26266   9.120   1.339   7.651 -0.6743 -0.0384 -0.9159
  936MOL0     C26267   9.017   1.247   7.589  0.6790  0.1664  0.5127
  936MOL0     C26268   8.899   1.243   7.681 -0.6815  0.0690 -1.1179
  936MOL0    Cl26269   8.845   1.412   7.744  0.6609 -0.4216 -0.2657
  936MOL0     C26270   9.742   1.240   7.056 -1.1249  0.3505 -0.1922
  936MOL0     C26271   9.815   1.284   6.946 -0.2570 -0.0239 -0.4618
  936MOL0     O26272   9.954   1.544   6.820 -0.0427 -0.6451 -0.9848
  936MOL0     C26273   9.845   1.512   6.476  0.4685 -0.1202 -0.0102
  936MOL0     C26274   9.872   1.575   6.350  0.7460 -0.5369  0.5769
  936MOL0     N26275  10.616   1.782   5.949 -1.0853  0.2634 -0.2462
  936MOL0     N26276  10.652   1.738   5.837  0.1071 -0.4752 -0.3787
  936MOL0     C26277   9.831   0.853   5.760  0.4980  1.2457  0.6647
  936MOL0     C26278   9.702   0.823   5.713  0.6184 -0.3215  0.4421
  936MOL0     C26279   9.417   0.603   5.426  0.6465  0.9059 -0.9299
  936MOL0     C26280   9.315   0.516   5.467 -0.0054 -0.0239  0.8160
  936MOL0     C26281   9.204   0.494   5.381 -0.2383 -0.9476  0.1147
  936MOL0     C26282   9.197   0.530   5.248  1.3604  1.1462 -1.4629
  936MOL0     O26283   9.102   0.503   5.152  0.0408 -0.9973 -0.3537
  936MOL0     C26284   8.964   0.515   5.185 -0.0113 -0.4519 -0.0941
  936MOL0     C26285   8.921   0.663   5.210  0.8666  0.2243 -0.4623
  936MOL0     C26286   8.781   0.678   5.265  0.0618 -0.7358 -0.4237
  936MOL0     C26287   8.749   0.649   5.406 -0.4809 -1.0399 -0.5933
  936MOL0     C26288   8.608   0.670   5.434  0.3527 -0.0857  0.1426
  936MOL0     C26289   8.491   0.696   5.435 -0.6810  0.1604 -0.5923
  936MOL0     C26290   9.303   0.610   5.201 -0.3387  0.1979  0.2037
  936MOL0     C26291   9.417   0.635   5.286 -0.0462  0.2576  0.4903
  936MOL0     C26292   9.523   0.724   5.229 -1.6642  0.2758  0.1887
  936MOL0     H26293   9.783   0.783   5.385  1.0970  0.6307  0.0251
  936MOL0     H26294  10.002   0.829   5.469 -0.5372  0.2094  0.6879
  936MOL0     H26295  10.171   0.905   5.579 -0.2236  2.2755 -2.2036
  936MOL0     H26296  10.136   1.059   5.641  0.8211  0.1041 -1.1087
  936MOL0     H26297  10.346   0.883   5.786  0.0542 -0.4368  0.6591
  936MOL0     H26298  10.254   1.023   5.850  2.2871 -0.4647  0.4190
  936MOL0     H26299  10.382   1.053   5.580 -1.5857  1.4084  0.8719
  936MOL0     H26300  10.487   1.038   5.723 -1.7469 -2.5390  4.8209
  936MOL0     H26301  10.276   1.250   5.642  1.3054  1.9205 -0.4909
  936MOL0     H26302  10.341   1.241   5.807 -0.2205  0.7075  0.9142
  936MOL0     H26303  10.576   1.266   5.675  0.9541 -0.0139 -0.6551
  936MOL0     H26304  10.468   1.283   5.540  0.5372 -1.3749  0.3197
  936MOL0     H26305  10.354   1.468   5.625 -1.4818  1.6476  1.7128
  936MOL0     H26306  10.441   1.454   5.783  0.3017 -0.4955 -0.0756
  936MOL0     H26307  10.579   1.501   5.515 -2.1708  2.3887 -1.2295
  936MOL0     H26308  10.644   1.485   5.682 -0.1745 -1.4405 -1.0125
  936MOL0     H26309  10.623   1.734   5.580 -0.3148  0.6280 -0.0928
  936MOL0     H26310  10.446   1.699   5.579  0.5312  0.3243  0.7104
  936MOL0     H26311  10.319   1.712   5.843  0.3630 -0.3019 -1.0151
  936MOL0     H26312  10.493   1.733   6.190 -2.5756 -2.7185 -0.9348
  936MOL0     H26313  10.461   1.892   6.139 -2.1214  0.2133  1.0414
  936MOL0     H26314  10.245   1.835   6.221 -2.1965 -0.8977 -0.1902
  936MOL0     H26315  10.219   1.816   6.052  0.1117 -2.7599 -2.2164
  936MOL0     H26316  10.269   1.592   6.248 -1.4581 -2.0293 -1.0598
  936MOL0     H26317  10.283   1.557   6.067 -3.4192 -1.8117 -0.4522
  936MOL0     H26318  10.058   1.500   6.167 -1.1512  0.4213  1.3619
  936MOL0     H26319  10.067   1.626   6.031 -4.1589 -0.2508  1.1019
  936MOL0     H26320  10.135   1.763   6.416  2.0967 -1.7144  1.1530
  936MOL0     H26321  10.071   1.682   6.652 -0.5643  1.4673 -1.4230
  936MOL0     H26322   9.564   1.482   6.813  0.7021  2.3323  2.3913
  936MOL0     H26323   9.459   1.422   7.024  0.6414  1.5221 -1.0247
  936MOL0     H26324   9.573   1.049   7.226  2.5253 -0.2572 -0.2851
  936MOL0     H26325   9.677   1.159   7.306  0.1552  0.8679 -0.7277
  936MOL0     H26326   9.376   1.095   7.337 -1.3767  1.3647  2.6604
  936MOL0     H26327   9.494   1.025   7.434 -0.4488 -3.6707 -4.2126
  936MOL0     H26328   9.554   1.204   7.549 -2.2621 -3.0401  0.0560
  936MOL0     H26329   9.468   1.333   7.454 -0.6096 -0.0671  1.4609
  936MOL0     H26330   9.342   1.188   7.676 -3.1191  3.3082  0.7973
  936MOL0     H26331   9.272   1.130   7.523  1.8242 -0.2575 -0.8099
  936MOL0     H26332   9.227   1.372   7.464  0.1822 -1.6869 -0.9251
  936MOL0     H26333   9.317   1.419   7.612  2.2429  0.0084 -1.4452
  936MOL0     H26334   9.142   1.316   7.756 -1.0684  1.3010 -0.5198
  936MOL0     H26335   9.085   1.442   7.654 -2.0436 -0.4773 -0.9257
  936MOL0     H26336   9.059   1.149   7.565  1.2590  0.5756 -0.1960
  936MOL0     H26337   8.986   1.297   7.497  0.6127  2.1741  1.5650
  936MOL0     H26338   8.809   1.197   7.640 -0.1091 -1.1174 -1.0766
  936MOL0     H26339   8.922   1.178   7.766  1.1455  0.4648 -1.2709
  936MOL0     H26340   9.786   1.162   7.118 -1.9766 -0.4227 -0.5352
  936MOL0     H26341   9.916   1.258   6.918  0.0809 -1.3414  1.7030
  936MOL0     H26342   9.770   1.434   6.482 -0.5674  0.9400  3.4779
  936MOL0     H26343   9.818   1.534   6.265 -0.5723  0.8680  0.7121
  936MOL0     H26344   9.845   0.879   5.865 -0.2819 -2.3137  1.7586
  936MOL0     H26345   9.623   0.830   5.787  0.8694  3.6724  0.5801
  936MOL0     H26346   9.306   0.470   5.565  1.3646 -0.2677  0.8396
  936MOL0     H26347   9.118   0.443   5.424 -1.3550 -1.9865 -3.0486
  936MOL0     H26348   8.933   0.450   5.267 -3.7855 -1.2326 -1.9245
  936MOL0     H26349   8.921   0.465   5.098  0.5578  1.1481 -1.3498
  936MOL0     H26350   8.935   0.732   5.127 -0.3980  3.5416  1.8410
  936MOL0     H26351   8.978   0.704   5.294 -2.0990  3.5891  0.1580
  936MOL0     H26352   8.721   0.602   5.213 -0.7954 -1.8905  2.1020
  936MOL0     H26353   8.748   0.778   5.236  4.2221  1.2233  0.8870
  936MOL0     H26354   8.766   0.543   5.423 -0.5245 -0.8989  0.3866
  936MOL0     H26355   8.814   0.705   5.473  0.0581 -0.2668 -1.7185
  936MOL0     H26356   8.386   0.707   5.417 -0.9704  2.9169  1.9525
  936MOL0     H26357   9.293   0.642   5.098 -1.7488  0.0711  0.2768
  936MOL0     H26358   9.503   0.830   5.245  2.5586  1.5666 -1.6239
  936MOL0     H26359   9.625   0.698   5.260 -1.7806  0.1881  0.5037
  936MOL0     H26360   9.522   0.718   5.120 -1.8596  0.0995  0.1986
  937MOL0     O26361   7.670   7.794   4.630  0.2427  0.6748  0.5969
  937MOL0     C26362   7.645   7.673   4.609  0.5589 -0.5198  1.0913
  937MOL0     O26363   7.544   7.630   4.521  0.1045 -0.7071 -0.1323
  937MOL0     C26364   7.444   7.705   4.462 -0.6780  0.5498 -0.0259
  937MOL0     C26365   7.377   7.640   4.355 -0.4265 -0.6389 -0.1083
  937MOL0     C26366   7.272   7.708   4.297 -0.6827 -0.7326 -0.6328
  937MOL0     C26367   7.229   7.828   4.337 -0.9142 -1.1623 -0.1714
  937MOL0     O26368   7.129   7.880   4.261 -0.2885 -0.3118  0.2470
  937MOL0     C26369   7.029   7.965   4.318 -0.3125  0.4726  0.3668
  937MOL0     C26370   7.049   8.115   4.303  0.3444  0.0486  0.6959
  937MOL0     C26371   6.922   8.190   4.346  1.1914 -0.2443  0.6143
  937MOL0     C26372   6.950   8.336   4.384  0.0705 -0.4286 -0.2243
  937MOL0     C26373   6.821   8.419   4.406 -0.7357 -0.2108  0.2976
  937MOL0     C26374   6.704   8.351   4.480 -0.4904  0.1574  0.7156
  937MOL0     C26375   6.599   8.455   4.510 -0.4012  0.2862  1.2173
  937MOL0     C26376   6.530   8.489   4.376  0.7051  0.0899  0.4071
  937MOL0     N26377   6.436   8.596   4.411  0.3208 -0.0147 -0.2786
  937MOL0     C26378   6.302   8.569   4.433  0.0602  0.0568 -0.1787
  937MOL0     C26379   6.248   8.692   4.433  0.4940  0.5094  1.2252
  937MOL0     C26380   6.101   8.721   4.470 -0.0586  0.8458  0.3971
  937MOL0     C26381   6.018   8.714   4.349 -0.3660 -0.2788  0.2681
  937MOL0     C26382   5.887   8.803   4.362  0.4091 -0.8900  0.2225
  937MOL0     C26383   5.775   8.727   4.415 -0.4152 -0.2319 -0.1489
  937MOL0     O26384   5.663   8.801   4.455  0.4151 -0.0274  0.0788
  937MOL0     C26385   5.537   8.740   4.446  0.5803 -0.4297 -0.0677
  937MOL0     C26386   5.422   8.804   4.470  0.4728 -0.6729 -0.8647
  937MOL0     C26387   5.293   8.746   4.467  0.4905  0.2275  0.2683
  937MOL0     C26388   5.269   8.611   4.434  0.0475  0.1497  0.3913
  937MOL0     C26389   5.137   8.557   4.410  0.4504  0.1128  0.3066
  937MOL0     O26390   5.033   8.651   4.421  0.5926 -0.3145 -0.0012
  937MOL0     C26391   4.912   8.599   4.410  0.4159  0.4015 -0.0305
  937MOL0     C26392   4.872   8.504   4.511 -0.0255  0.3396 -0.3333
  937MOL0     C26393   4.741   8.458   4.529  0.1476 -0.5656 -0.2550
  937MOL0     C26394   4.646   8.500   4.441  0.1324  0.2160  1.0439
  937MOL0     O26395   4.519   8.463   4.477  0.2842 -0.8615  0.0632
  937MOL0     C26396   4.407   8.510   4.397  0.1925  0.7821  0.1829
  937MOL0     C26397   4.283   8.416   4.411  0.6360  0.4407  1.7518
  937MOL0     C26398   4.240   8.386   4.553  0.1009 -0.8496  0.7260
  937MOL0     C26399   4.103   8.315   4.546 -0.5200 -0.2789 -0.2767
  937MOL0     C26400   4.043   8.271   4.684  0.3598 -0.2845  0.1664
  937MOL0     C26401   3.968   8.387   4.755  0.7958 -0.5571  0.8586
  937MOL0     C26402   3.962   8.378   4.912 -0.6107 -0.4799  0.0052
  937MOL0     C26403   4.081   8.446   4.983 -0.4202  0.0889 -0.5246
  937MOL0    Cl26404   4.236   8.357   4.960  0.3135  0.6382 -0.1682
  937MOL0     C26405   4.676   8.598   4.343 -0.0976  0.3239  0.1479
  937MOL0     C26406   4.804   8.645   4.334 -0.4329  1.6649 -0.2642
  937MOL0     O26407   5.124   8.437   4.401 -0.0818  0.5212  0.0522
  937MOL0     C26408   5.390   8.538   4.413  0.1632  1.0173 -0.1807
  937MOL0     C26409   5.515   8.597   4.421 -0.4179 -0.9686 -0.6541
  937MOL0     N26410   6.337   8.790   4.405  1.0893 -0.6082  0.5992
  937MOL0     N26411   6.457   8.733   4.400  0.8595  0.1020  0.4840
  937MOL0     C26412   7.289   7.889   4.447  0.1551  0.8850 -0.1211
  937MOL0     C26413   7.393   7.821   4.514 -1.8805 -0.9828  0.1211
  937MOL0     C26414   7.718   7.579   4.699  0.2450  1.4118  0.0981
  937MOL0     C26415   7.830   7.619   4.774 -0.8419  0.4648 -0.2838
  937MOL0     C26416   7.895   7.524   4.857  0.2267 -0.1605 -1.0109
  937MOL0     C26417   7.862   7.395   4.869  1.1461  0.6340  0.2701
  937MOL0     O26418   7.939   7.307   4.948 -0.4726  0.2537  0.6203
  937MOL0     C26419   7.865   7.198   5.010 -0.0801  0.4237  0.3538
  937MOL0     C26420   7.943   7.131   5.128 -0.1000  0.3770  0.1242
  937MOL0     C26421   8.004   7.231   5.233 -0.1607  0.5288  0.7546
  937MOL0     C26422   7.897   7.300   5.317 -0.6751  0.8641  0.6364
  937MOL0     C26423   7.934   7.345   5.453 -0.0245 -0.7010  0.2121
  937MOL0     C26424   7.959   7.398   5.558  0.1491  0.1965 -0.3200
  937MOL0     C26425   7.750   7.356   4.783 -0.1061 -0.3551 -0.3949
  937MOL0     C26426   7.677   7.442   4.707 -0.0395 -0.6603  0.6408
  937MOL0     C26427   7.551   7.386   4.649  0.1709  0.6570  0.2379
  937MOL0     H26428   7.417   7.546   4.317 -0.5252 -0.9900  0.6527
  937MOL0     H26429   7.220   7.679   4.207 -0.5197  0.4008 -1.1068
  937MOL0     H26430   6.940   7.933   4.263  0.9653  1.0142 -2.2035
  937MOL0     H26431   7.023   7.948   4.425  3.1620  0.4218  0.6441
  937MOL0     H26432   7.069   8.151   4.201 -1.8248 -0.3161  0.1114
  937MOL0     H26433   7.134   8.149   4.363 -0.2439 -1.3437  2.3882
  937MOL0     H26434   6.871   8.141   4.430 -0.4438  0.3713  0.0141
  937MOL0     H26435   6.853   8.195   4.262  0.5734  0.5819  1.1603
  937MOL0     H26436   7.015   8.349   4.470 -1.6495 -0.5382  1.1571
  937MOL0     H26437   6.999   8.379   4.296  0.3545  1.7460  0.9220
  937MOL0     H26438   6.856   8.511   4.453 -0.8426 -0.0692  0.0997
  937MOL0     H26439   6.787   8.454   4.308 -1.1785  0.2061  0.5969
  937MOL0     H26440   6.657   8.264   4.434  0.4983 -1.6304  2.8824
  937MOL0     H26441   6.734   8.313   4.578  3.0251  2.8358  0.8537
  937MOL0     H26442   6.651   8.547   4.537 -0.1605  0.3334  0.5907
  937MOL0     H26443   6.539   8.439   4.601  2.8306  3.4781  4.2318
  937MOL0     H26444   6.600   8.547   4.316  0.3186 -0.4367 -0.5920
  937MOL0     H26445   6.476   8.409   4.324 -0.1943  1.0066 -0.1113
  937MOL0     H26446   6.243   8.478   4.444 -0.3817  0.5941  2.9363
  937MOL0     H26447   6.059   8.650   4.542 -1.2134  0.0891 -0.9653
  937MOL0     H26448   6.083   8.821   4.512 -0.1566  0.9145  0.1922
  937MOL0     H26449   6.084   8.752   4.270  2.0167 -2.3202  1.1381
  937MOL0     H26450   5.986   8.612   4.328 -0.9267 -0.1211  0.3584
  937MOL0     H26451   5.860   8.829   4.259  1.5466 -0.9669 -0.1137
  937MOL0     H26452   5.911   8.897   4.411 -0.8316  0.2764 -1.3139
  937MOL0     H26453   5.811   8.677   4.506 -0.7150 -1.1080 -0.5032
  937MOL0     H26454   5.753   8.645   4.346 -1.7549  2.2972 -2.9311
  937MOL0     H26455   5.439   8.906   4.503 -4.2366  0.4211 -1.0047
  937MOL0     H26456   5.207   8.809   4.490  1.2919  1.0694  1.0339
  937MOL0     H26457   4.950   8.471   4.580 -1.1437  2.1826  1.9572
  937MOL0     H26458   4.726   8.402   4.621  4.3288 -0.5635  0.6412
  937MOL0     H26459   4.392   8.618   4.411  1.4766  0.6704  2.9764
  937MOL0     H26460   4.426   8.492   4.291 -1.5374 -1.7184  0.2016
  937MOL0     H26461   4.203   8.448   4.344  0.3278 -0.7674  1.5168
  937MOL0     H26462   4.320   8.323   4.366 -0.1225  0.3396  1.3323
  937MOL0     H26463   4.312   8.324   4.607  0.2821 -0.4164  0.9922
  937MOL0     H26464   4.232   8.485   4.600  2.3474  0.6163 -1.7411
  937MOL0     H26465   4.128   8.223   4.492  0.1943  0.6626 -1.6099
  937MOL0     H26466   4.029   8.377   4.495 -0.5629  2.4829  2.7675
  937MOL0     H26467   4.115   8.221   4.748  0.5970  0.0979  0.2014
  937MOL0     H26468   3.964   8.199   4.658  1.5318 -1.3920 -0.4043
  937MOL0     H26469   4.010   8.482   4.720 -3.0520  0.5256 -1.4650
  937MOL0     H26470   3.869   8.383   4.708  2.8716  0.3990 -4.3533
  937MOL0     H26471   3.966   8.276   4.951 -1.3919 -0.8208 -0.7678
  937MOL0     H26472   3.875   8.436   4.945 -0.0236 -0.4838  1.6606
  937MOL0     H26473   4.099   8.550   4.952  2.1714 -0.0618  0.2971
  937MOL0     H26474   4.066   8.445   5.092 -0.4780  0.2386 -0.5291
  937MOL0     H26475   4.595   8.647   4.290 -0.5631 -0.1049  0.4540
  937MOL0     H26476   4.823   8.728   4.267  2.3960  1.6009  0.3156
  937MOL0     H26477   5.383   8.432   4.391 -0.1138  0.6368  1.5617
  937MOL0     H26478   5.599   8.529   4.412 -1.0861 -2.0600  0.8169
  937MOL0     H26479   7.266   7.985   4.492  1.6337  1.2403 -0.0597
  937MOL0     H26480   7.434   7.869   4.603 -2.1192 -2.9978  1.3841
  937MOL0     H26481   7.854   7.724   4.766 -1.6847  0.8634  1.8475
  937MOL0     H26482   7.984   7.549   4.914 -0.1410  1.4149 -1.0814
  937MOL0     H26483   7.825   7.133   4.931  0.3886  1.0049 -0.3802
  937MOL0     H26484   7.774   7.241   5.053 -1.2520 -0.1973 -1.3919
  937MOL0     H26485   8.031   7.083   5.085 -0.3983 -0.4228  0.4022
  937MOL0     H26486   7.877   7.072   5.192  1.6694  0.2035  1.8963
  937MOL0     H26487   8.049   7.308   5.170 -1.5150 -1.3052 -2.6668
  937MOL0     H26488   8.078   7.176   5.292  1.4071  0.9120 -0.7566
  937MOL0     H26489   7.862   7.392   5.270 -3.4500  0.7028  2.1617
  937MOL0     H26490   7.808   7.235   5.319  0.0614 -0.2353 -0.6242
  937MOL0     H26491   7.976   7.433   5.658  0.7037  0.2318 -0.4211
  937MOL0     H26492   7.710   7.256   4.798  0.1763 -0.3996  0.0696
  937MOL0     H26493   7.534   7.290   4.699  4.8299 -1.1377 -1.0593
  937MOL0     H26494   7.468   7.454   4.670 -3.1739 -3.5882  2.1184
  937MOL0     H26495   7.556   7.366   4.542 -0.2366  0.0530  0.3316
  938MOL0     O26496  10.231   8.466   3.752 -0.0260  0.1151  0.2692
  938MOL0     C26497  10.196   8.580   3.737  0.3433 -0.2801  0.0144
  938MOL0     O26498  10.271   8.693   3.755  0.1920 -0.5393  1.0130
  938MOL0     C26499  10.409   8.684   3.764 -0.4894 -0.7916 -0.2591
  938MOL0     C26500  10.492   8.570   3.747  0.3866  0.3751 -0.5302
  938MOL0     C26501  10.628   8.586   3.754 -0.5904  0.1823 -0.2689
  938MOL0     C26502  10.689   8.715   3.785  1.1465  0.0147 -0.1305
  938MOL0     O26503  10.822   8.722   3.794 -0.3055 -0.8551  0.5659
  938MOL0     C26504  10.876   8.617   3.866  0.4073  0.7837 -0.3908
  938MOL0     C26505  11.003   8.660   3.932  0.2660 -0.0870  0.2224
  938MOL0     C26506  10.991   8.779   4.024  0.0863 -0.3060  0.2002
  938MOL0     C26507  11.125   8.775   4.117 -0.4901  0.1931  0.4558
  938MOL0     C26508  11.120   8.901   4.208  0.3837  0.2116  0.4476
  938MOL0     C26509  11.202   9.016   4.149  0.5003 -0.7825  0.6813
  938MOL0     C26510  11.173   9.155   4.205 -0.1675  0.8748  0.3049
  938MOL0     C26511  11.249   9.257   4.121  0.1803 -0.9765 -0.0286
  938MOL0     N26512  11.244   9.391   4.174  0.5583 -0.2929  0.4142
  938MOL0     C26513  11.263   9.497   4.095  0.3679 -0.0004  1.4711
  938MOL0     C26514  11.280   9.601   4.175 -0.7807 -0.8029 -0.3866
  938MOL0     C26515  11.298   9.750   4.152  0.0362 -0.8054  0.9158
  938MOL0     C26516  11.399   9.773   4.041  0.2721  0.0955  0.1531
  938MOL0     C26517  11.536   9.715   4.087  0.1966  0.4069 -0.4992
  938MOL0     C26518  11.648   9.752   3.978  0.6463 -0.0422  0.2019
  938MOL0     O26519  11.768   9.745   4.054 -0.2095  0.0765 -0.7599
  938MOL0     C26520  11.859   9.643   4.041 -0.2021  0.1655 -1.1175
  938MOL0     C26521  11.914   9.606   3.919  0.2518  0.5053  0.0351
  938MOL0     C26522  12.009   9.509   3.903  0.2842  0.8254 -0.7302
  938MOL0     C26523  12.045   9.440   4.017  0.4281 -0.2885 -0.4521
  938MOL0     C26524  12.135   9.320   3.991  0.6466 -0.0137  0.7399
  938MOL0     O26525  12.233   9.304   4.079  0.2749 -1.0297  0.5754
  938MOL0     C26526  12.304   9.182   4.074  0.5399 -0.6232  0.0498
  938MOL0     C26527  12.244   9.061   4.116  1.1031  0.2138 -0.9248
  938MOL0     C26528  12.313   8.938   4.099  1.2107  0.3080 -0.4789
  938MOL0     C26529  12.439   8.926   4.044 -0.1226 -0.8175  0.7234
  938MOL0     O26530  12.500   8.811   4.014  0.3420  0.1689  0.0803
  938MOL0     C26531  12.548   8.738   4.131 -0.0431 -0.5388 -0.3909
  938MOL0     C26532  12.659   8.814   4.207  0.5705 -0.8519  0.1077
  938MOL0     C26533  12.789   8.781   4.139 -0.1973 -0.5820 -0.6319
  938MOL0     C26534  12.861   8.912   4.112 -0.4564  0.3833 -0.3975
  938MOL0     C26535  13.011   8.879   4.083  0.6053  0.7639  0.1094
  938MOL0     C26536  13.101   8.993   4.121 -0.1595 -0.5237  0.2614
  938MOL0     C26537  13.249   8.967   4.097  0.5139 -0.4206 -0.4024
  938MOL0     C26538  13.319   9.088   4.169  0.3157 -0.1799  0.2739
  938MOL0    Cl26539  13.307   9.073   4.343 -0.3304 -0.1181  0.0503
  938MOL0     C26540  12.495   9.046   3.995 -0.0846  0.1347 -0.6918
  938MOL0     C26541  12.432   9.168   4.017 -0.0107  0.0830  0.5621
  938MOL0     O26542  12.112   9.247   3.896 -0.1018  0.5276  0.5813
  938MOL0     C26543  11.994   9.475   4.146  0.4129  0.2430  0.4745
  938MOL0     C26544  11.904   9.578   4.159 -0.1798 -0.1243 -0.4512
  938MOL0     N26545  11.295   9.551   4.308 -0.3842 -0.0244  0.4915
  938MOL0     N26546  11.269   9.421   4.303  0.3320  0.7660  0.3349
  938MOL0     C26547  10.603   8.826   3.789 -0.8572  0.3368  1.1640
  938MOL0     C26548  10.464   8.813   3.786 -0.5617 -0.2118  0.1252
  938MOL0     C26549  10.052   8.604   3.731 -0.1380  1.5764 -0.3879
  938MOL0     C26550  10.010   8.738   3.714  1.4586  0.5691  0.0695
  938MOL0     C26551   9.876   8.774   3.725  0.3345 -0.0662  0.3514
  938MOL0     C26552   9.786   8.675   3.750 -0.8285  0.0279  0.2141
  938MOL0     O26553   9.653   8.697   3.764  0.3502 -0.6870 -0.0671
  938MOL0     C26554   9.579   8.811   3.724  0.3229  0.4396  1.2198
  938MOL0     C26555   9.438   8.812   3.780 -0.2991 -0.5511 -0.6838
  938MOL0     C26556   9.349   8.689   3.744  0.1909  0.6158 -0.4133
  938MOL0     C26557   9.196   8.718   3.787 -0.5567  0.2040  0.5092
  938MOL0     C26558   9.191   8.713   3.928 -0.5056  0.3909  0.4255
  938MOL0     C26559   9.170   8.720   4.050 -1.3526 -0.0540  0.0141
  938MOL0     C26560   9.820   8.540   3.764 -0.7041 -1.3912 -0.0702
  938MOL0     C26561   9.951   8.500   3.763 -0.2184  0.8997 -0.0523
  938MOL0     C26562   9.971   8.348   3.775 -0.3698 -0.1227  0.0162
  938MOL0     H26563  10.461   8.469   3.723  0.7056 -0.5062  2.4067
  938MOL0     H26564  10.692   8.501   3.731 -1.5412 -1.0712  1.4864
  938MOL0     H26565  10.818   8.584   3.953  2.9658 -1.6932  0.5270
  938MOL0     H26566  10.898   8.532   3.802 -0.9255  1.3869 -1.7079
  938MOL0     H26567  11.083   8.669   3.859  0.2861  0.1020  0.2650
  938MOL0     H26568  11.032   8.580   3.999 -1.1344 -1.1093 -0.3363
  938MOL0     H26569  10.898   8.776   4.082  0.3008 -2.4726  0.5097
  938MOL0     H26570  10.988   8.871   3.965  1.4277 -0.0639  0.4775
  938MOL0     H26571  11.125   8.689   4.185 -2.6040 -0.6539 -0.5318
  938MOL0     H26572  11.212   8.765   4.052 -0.2826  0.5644  0.6676
  938MOL0     H26573  11.015   8.932   4.218  0.8275  1.2392  2.3013
  938MOL0     H26574  11.159   8.884   4.309 -0.6127 -1.1135  0.6326
  938MOL0     H26575  11.305   9.000   4.182  0.5658  0.1505  0.9718
  938MOL0     H26576  11.184   9.002   4.042  0.4349 -0.4068  0.6392
  938MOL0     H26577  11.199   9.162   4.311  1.5490 -1.1446  0.0756
  938MOL0     H26578  11.065   9.172   4.193  0.1118  1.7039 -1.1083
  938MOL0     H26579  11.357   9.244   4.122  0.0253 -2.9392  3.0675
  938MOL0     H26580  11.208   9.253   4.019 -0.9381 -2.5240  0.4375
  938MOL0     H26581  11.260   9.504   3.987  0.9010 -3.6231  1.0900
  938MOL0     H26582  11.202   9.799   4.133  1.5727  1.7603 -0.8815
  938MOL0     H26583  11.321   9.799   4.247  2.0748 -0.0513  0.1045
  938MOL0     H26584  11.362   9.722   3.952 -1.8695 -0.7487  1.4719
  938MOL0     H26585  11.409   9.880   4.021 -1.1275  0.2379  0.1351
  938MOL0     H26586  11.522   9.607   4.099  1.5530  0.2516 -0.1745
  938MOL0     H26587  11.565   9.767   4.179  1.0963  1.2655 -1.2448
  938MOL0     H26588  11.641   9.857   3.948 -1.0247 -0.3953 -0.7918
  938MOL0     H26589  11.642   9.697   3.883  1.0371  0.3367 -0.0436
  938MOL0     H26590  11.886   9.666   3.833  1.0685  0.4918 -0.2517
  938MOL0     H26591  12.044   9.474   3.806 -0.0479 -0.8891 -0.2696
  938MOL0     H26592  12.148   9.066   4.166 -0.0960  3.4378 -3.1621
  938MOL0     H26593  12.257   8.848   4.122  0.9276  0.5100 -0.3701
  938MOL0     H26594  12.466   8.724   4.201  1.1178  0.3533  1.2339
  938MOL0     H26595  12.580   8.639   4.096 -1.2606 -2.0869  2.5603
  938MOL0     H26596  12.635   8.921   4.199 -3.3652 -1.7536 -3.8362
  938MOL0     H26597  12.653   8.787   4.313 -2.3536  2.5283  0.9888
  938MOL0     H26598  12.851   8.735   4.216  2.8512  1.1762 -1.8490
  938MOL0     H26599  12.790   8.714   4.053  0.3224  1.4441 -2.2895
  938MOL0     H26600  12.851   8.968   4.206 -5.6474 -1.8404  0.7231
  938MOL0     H26601  12.810   8.970   4.034 -1.5634  0.5235  0.4059
  938MOL0     H26602  13.022   8.846   3.980 -3.1102  0.3625 -0.3093
  938MOL0     H26603  13.033   8.788   4.139 -0.3707  1.5431  1.8502
  938MOL0     H26604  13.069   9.083   4.069  1.5913  0.1208  0.2336
  938MOL0     H26605  13.087   9.016   4.227 -4.0855  2.4783 -0.6775
  938MOL0     H26606  13.279   8.970   3.992 -0.6441  0.2682 -0.7430
  938MOL0     H26607  13.285   8.873   4.140  3.1963  0.7371  0.0763
  938MOL0     H26608  13.425   9.076   4.142 -0.1231  2.5447 -3.3473
  938MOL0     H26609  13.295   9.184   4.124  4.5038  0.1595 -1.7239
  938MOL0     H26610  12.593   9.033   3.951 -1.0455  1.4168 -3.4339
  938MOL0     H26611  12.459   9.265   3.977 -0.7939 -0.4366 -1.3712
  938MOL0     H26612  12.030   9.412   4.227 -0.1629  0.3769  0.8334
  938MOL0     H26613  11.850   9.594   4.252  1.5643 -1.0737  0.7786
  938MOL0     H26614  10.648   8.924   3.800  1.5011 -0.4041 -0.8682
  938MOL0     H26615  10.403   8.902   3.796 -0.8009 -0.2165 -1.1396
  938MOL0     H26616  10.077   8.821   3.695  2.4316  0.0099  0.9179
  938MOL0     H26617   9.836   8.874   3.723  0.0412 -0.1886  0.0623
  938MOL0     H26618   9.567   8.807   3.615 -3.5769  0.8283  1.4844
  938MOL0     H26619   9.633   8.902   3.752  3.3333 -0.4827 -1.0326
  938MOL0     H26620   9.398   8.906   3.741  0.8988  0.3559  0.1923
  938MOL0     H26621   9.440   8.825   3.889 -0.3541  3.8070 -1.0175
  938MOL0     H26622   9.391   8.598   3.787 -0.2585 -0.0177 -1.2782
  938MOL0     H26623   9.361   8.666   3.638 -0.2091 -0.8816 -0.1564
  938MOL0     H26624   9.164   8.820   3.760 -2.5034  0.1916  2.5022
  938MOL0     H26625   9.122   8.647   3.749 -1.0758  0.8237  0.3279
  938MOL0     H26626   9.138   8.755   4.146 -5.7441  1.0978 -1.6390
  938MOL0     H26627   9.743   8.467   3.788 -0.3865 -1.4173  0.8784
  938MOL0     H26628  10.058   8.308   3.828 -0.4910 -1.4046 -0.7131
  938MOL0     H26629   9.888   8.306   3.832 -0.9292  0.2285 -0.5257
  938MOL0     H26630   9.977   8.306   3.674 -1.4436 -2.1704  0.7602
  939MOL0     O26631   4.571   7.179   6.055 -0.9907 -0.7904 -0.1793
  939MOL0     C26632   4.582   7.145   6.173  0.6678 -0.7640  0.0685
  939MOL0     O26633   4.685   7.086   6.233  0.1310 -0.4504  0.2223
  939MOL0     C26634   4.806   7.093   6.167  0.3886  0.4333  0.0512
  939MOL0     C26635   4.854   6.988   6.087 -0.0596 -0.4573 -0.3911
  939MOL0     C26636   4.981   7.001   6.028 -0.6482  0.3726 -0.3500
  939MOL0     C26637   5.061   7.111   6.061 -0.4911 -0.4352  0.3624
  939MOL0     O26638   5.188   7.107   6.000  0.2877  0.0619 -0.2220
  939MOL0     C26639   5.298   7.188   6.054  0.4666 -0.7021 -0.0652
  939MOL0     C26640   5.418   7.151   5.977  0.1667 -0.9557 -0.3811
  939MOL0     C26641   5.462   7.006   6.006 -0.3622  0.2314 -0.3519
  939MOL0     C26642   5.566   6.960   5.893  0.0824 -0.7004 -0.2985
  939MOL0     C26643   5.581   6.808   5.874  0.3734  0.0156  0.0518
  939MOL0     C26644   5.464   6.714   5.885  0.3059 -0.1592  0.3800
  939MOL0     C26645   5.484   6.577   5.829 -0.2491 -0.0995 -0.6158
  939MOL0     C26646   5.604   6.518   5.894 -0.4342  0.1516 -0.6401
  939MOL0     N26647   5.634   6.381   5.863  0.5433  0.0124 -0.1614
  939MOL0     C26648   5.589   6.282   5.949  0.2994  0.0798 -0.4251
  939MOL0     C26649   5.618   6.160   5.889  0.9361  0.4046  0.2022
  939MOL0     C26650   5.614   6.021   5.953  0.8607  0.0528  0.8024
  939MOL0     C26651   5.476   5.949   5.936  0.6283  0.7788 -0.4959
  939MOL0     C26652   5.437   5.887   6.072 -0.7909  0.2624  0.2847
  939MOL0     C26653   5.312   5.797   6.067  0.1261 -0.7170  0.0215
  939MOL0     O26654   5.330   5.666   6.014 -0.0850 -0.1656  0.3849
  939MOL0     C26655   5.283   5.558   6.087 -0.7044 -0.2020  0.0199
  939MOL0     C26656   5.146   5.541   6.132  0.5652 -0.2604 -0.3860
  939MOL0     C26657   5.108   5.420   6.199  0.0093 -0.3663 -1.0148
  939MOL0     C26658   5.196   5.316   6.222 -0.1449 -0.9892 -1.0459
  939MOL0     C26659   5.163   5.194   6.293  0.6968 -0.2490 -0.8004
  939MOL0     O26660   5.263   5.105   6.312 -0.5268 -0.3311  0.1572
  939MOL0     C26661   5.242   5.009   6.402 -0.1614 -1.1545  0.0056
  939MOL0     C26662   5.348   5.003   6.501  1.0691  0.6281 -0.6312
  939MOL0     C26663   5.345   4.907   6.604  0.0288 -0.3291  0.2166
  939MOL0     C26664   5.237   4.815   6.607  0.2723 -0.5996  0.5427
  939MOL0     O26665   5.233   4.707   6.699  0.4341  0.4708 -0.8539
  939MOL0     C26666   5.227   4.730   6.845 -0.2427 -0.7718  0.4338
  939MOL0     C26667   5.199   4.601   6.913 -0.2170 -0.2199 -0.0086
  939MOL0     C26668   5.048   4.590   6.933 -0.1313  0.9075  0.2224
  939MOL0     C26669   4.993   4.446   6.972  0.0647 -0.2913  0.5315
  939MOL0     C26670   5.028   4.413   7.111 -0.1380  0.1747 -0.1026
  939MOL0     C26671   4.984   4.277   7.150  0.4488  0.0584 -0.4988
  939MOL0     C26672   5.051   4.226   7.284  0.2009  0.8299 -0.0932
  939MOL0     C26673   5.018   4.077   7.314 -1.0228  0.3717  0.8101
  939MOL0    Cl26674   4.849   4.038   7.275 -0.0903  0.0368  0.5075
  939MOL0     C26675   5.130   4.829   6.518 -0.4777  0.3366  0.0478
  939MOL0     C26676   5.132   4.913   6.411 -0.7848 -0.5262 -0.4437
  939MOL0     O26677   5.058   5.198   6.360  0.2772  0.3040 -0.2120
  939MOL0     C26678   5.329   5.335   6.171  0.1430 -0.7303  0.0747
  939MOL0     C26679   5.373   5.449   6.104 -0.1142 -0.7512 -0.1440
  939MOL0     N26680   5.671   6.190   5.763 -0.0042 -0.1344  0.1401
  939MOL0     N26681   5.677   6.317   5.756  0.0108  0.4928  0.0689
  939MOL0     C26682   5.012   7.212   6.146 -1.2157  0.4346  0.0153
  939MOL0     C26683   4.884   7.205   6.197 -0.9323  0.1845 -0.0073
  939MOL0     C26684   4.449   7.140   6.229  0.3293 -0.3227 -0.1465
  939MOL0     C26685   4.350   7.081   6.154 -0.3628 -0.0889 -0.7031
  939MOL0     C26686   4.225   7.055   6.214 -0.7312 -0.5622  0.7305
  939MOL0     C26687   4.204   7.087   6.345 -0.2337  0.1346  0.3418
  939MOL0     O26688   4.073   7.074   6.380 -0.4888 -0.1820  0.1005
  939MOL0     C26689   4.037   7.092   6.518 -0.1142  1.1234  0.9053
  939MOL0     C26690   3.915   7.007   6.544 -0.4392  0.1398 -0.4411
  939MOL0     C26691   3.805   7.037   6.445  0.2225  0.1395  0.7287
  939MOL0     C26692   3.694   6.935   6.459 -0.0076  0.4577 -0.0855
  939MOL0     C26693   3.576   6.975   6.381 -0.5406 -0.7169 -0.1355
  939MOL0     C26694   3.485   7.013   6.309 -0.0108 -0.7927 -0.7248
  939MOL0     C26695   4.307   7.136   6.421 -0.1534 -0.0287 -0.8027
  939MOL0     C26696   4.427   7.163   6.364  0.1654 -0.4882 -0.0316
  939MOL0     C26697   4.521   7.251   6.446 -0.3349  0.1320  0.0239
  939MOL0     H26698   4.794   6.898   6.081 -0.2968 -0.3757  0.6241
  939MOL0     H26699   5.030   6.918   5.977 -0.6247 -0.2440  0.6568
  939MOL0     H26700   5.279   7.292   6.025 -0.8986 -0.8713  0.1559
  939MOL0     H26701   5.311   7.181   6.163 -0.4896  2.6598  0.3623
  939MOL0     H26702   5.500   7.217   6.009 -1.0924  0.6115 -0.2725
  939MOL0     H26703   5.403   7.177   5.872  2.2387  0.0207 -0.5025
  939MOL0     H26704   5.373   6.943   5.989 -0.0336 -0.3534  0.0678
  939MOL0     H26705   5.515   6.991   6.100 -0.1788  0.2893 -0.4453
  939MOL0     H26706   5.527   7.000   5.799  0.0620 -0.8450 -0.3518
  939MOL0     H26707   5.659   7.015   5.912  0.3403 -1.2555  0.0663
  939MOL0     H26708   5.622   6.785   5.776 -3.9774  0.8939 -2.2390
  939MOL0     H26709   5.654   6.776   5.949  2.6884  1.9779 -1.2157
  939MOL0     H26710   5.443   6.703   5.992  0.9089 -1.7423  0.3557
  939MOL0     H26711   5.366   6.738   5.842 -1.1760 -0.3836  3.3089
  939MOL0     H26712   5.490   6.596   5.721 -2.7536  1.6929 -0.5114
  939MOL0     H26713   5.405   6.509   5.860 -0.0734 -0.8835 -1.8034
  939MOL0     H26714   5.690   6.574   5.856 -0.1217  0.4601  0.4968
  939MOL0     H26715   5.598   6.524   6.003 -3.2873 -2.7684 -0.4818
  939MOL0     H26716   5.541   6.296   6.046  2.3896  3.4447  0.2838
  939MOL0     H26717   5.697   5.962   5.914  1.0913  0.5146  0.5832
  939MOL0     H26718   5.639   6.033   6.059 -3.5284 -0.4189  2.0974
  939MOL0     H26719   5.401   6.018   5.896  0.8064  0.8902 -0.6366
  939MOL0     H26720   5.490   5.879   5.853  0.3896  0.3661 -0.1912
  939MOL0     H26721   5.426   5.961   6.151  3.4425  1.6983 -0.2632
  939MOL0     H26722   5.519   5.821   6.101 -1.0967 -0.0761  0.3996
  939MOL0     H26723   5.231   5.838   6.006 -1.2905 -3.6236 -0.1845
  939MOL0     H26724   5.285   5.796   6.173 -1.2846  2.0436 -0.2180
  939MOL0     H26725   5.084   5.629   6.118  1.2847  0.5083  1.0119
  939MOL0     H26726   5.010   5.399   6.241 -2.7322  3.7439 -4.5092
  939MOL0     H26727   5.434   5.069   6.495  2.7641 -1.5754 -1.8484
  939MOL0     H26728   5.424   4.890   6.677  3.0249 -2.1699 -3.1217
  939MOL0     H26729   5.331   4.754   6.870  0.4170  0.0811 -2.6336
  939MOL0     H26730   5.166   4.818   6.870  3.6054  1.7337  1.9941
  939MOL0     H26731   5.246   4.514   6.865  0.6778 -0.5971  1.4731
  939MOL0     H26732   5.243   4.605   7.013  3.0302 -2.9108 -1.1357
  939MOL0     H26733   5.019   4.656   7.016  1.2962  0.9405  0.7126
  939MOL0     H26734   4.994   4.616   6.842 -0.1494 -0.2510 -0.1130
  939MOL0     H26735   5.015   4.368   6.900 -1.1503  0.0281 -0.2235
  939MOL0     H26736   4.884   4.446   6.978  0.1342  0.6113  3.5918
  939MOL0     H26737   4.991   4.489   7.180  0.0569  1.4698 -1.3725
  939MOL0     H26738   5.137   4.421   7.109 -0.1408  0.2339  0.0093
  939MOL0     H26739   4.876   4.270   7.163  0.3803  3.0996  1.4993
  939MOL0     H26740   5.014   4.197   7.081  0.1560 -0.9624  0.5140
  939MOL0     H26741   5.036   4.293   7.369 -0.7834  0.9408 -0.3499
  939MOL0     H26742   5.160   4.231   7.269  0.5207  1.2593  1.9887
  939MOL0     H26743   5.081   3.998   7.273 -2.1976 -0.9817  1.5237
  939MOL0     H26744   5.043   4.081   7.420  2.1321  2.5244  0.1327
  939MOL0     H26745   5.043   4.764   6.530 -1.3881  0.7175 -3.4745
  939MOL0     H26746   5.049   4.913   6.342  1.2870 -1.2319 -3.0860
  939MOL0     H26747   5.398   5.251   6.177  1.2595  0.2299  1.4781
  939MOL0     H26748   5.476   5.466   6.074 -0.7247 -0.0282 -1.9853
  939MOL0     H26749   5.088   7.286   6.168 -0.1319 -0.6982  0.2052
  939MOL0     H26750   4.844   7.286   6.257  0.9409  0.1980  1.3278
  939MOL0     H26751   4.352   7.052   6.050  1.9348 -1.2743 -0.3806
  939MOL0     H26752   4.146   7.010   6.154 -0.5670  0.3844 -0.2251
  939MOL0     H26753   3.999   7.194   6.517 -0.7569  0.9078 -1.6959
  939MOL0     H26754   4.116   7.063   6.589 -1.4827 -1.9551  1.3227
  939MOL0     H26755   3.888   7.008   6.650 -0.8486 -2.5841 -0.4304
  939MOL0     H26756   3.940   6.903   6.521 -0.3431 -0.5065  2.2929
  939MOL0     H26757   3.835   7.034   6.339 -1.7562 -0.1444  0.1310
  939MOL0     H26758   3.764   7.135   6.471 -0.0101  0.5652 -1.0650
  939MOL0     H26759   3.721   6.847   6.400 -0.1450  3.1089 -4.5724
  939MOL0     H26760   3.677   6.907   6.563  3.0695 -1.1279  0.1101
  939MOL0     H26761   3.399   7.042   6.251  2.0357  2.5175 -2.4110
  939MOL0     H26762   4.289   7.156   6.526 -0.1190  0.2012 -0.8412
  939MOL0     H26763   4.571   7.328   6.388  2.0994 -0.6594  0.9601
  939MOL0     H26764   4.472   7.311   6.523  1.0592  1.3966 -0.0468
  939MOL0     H26765   4.592   7.184   6.496 -2.4099 -2.2700 -0.0163
  940MOL0     O26766   6.916   4.789   1.968  0.0784 -0.2457 -0.9089
  940MOL0     C26767   6.861   4.847   1.875  0.1873 -0.4503  0.1688
  940MOL0     O26768   6.923   4.882   1.753  0.2233 -0.2301 -0.4210
  940MOL0     C26769   7.043   4.827   1.734 -0.0490  0.5725 -0.1903
  940MOL0     C26770   7.059   4.735   1.615 -0.1955 -1.0369 -0.6894
  940MOL0     C26771   7.184   4.690   1.579 -0.4020  0.6070 -0.5453
  940MOL0     C26772   7.297   4.709   1.669  0.3656 -0.3766 -0.3702
  940MOL0     O26773   7.426   4.663   1.630  0.7272 -0.0412  0.7573
  940MOL0     C26774   7.526   4.623   1.737  0.3545  0.4216  0.2768
  940MOL0     C26775   7.658   4.574   1.677 -0.4325  0.2766 -0.8768
  940MOL0     C26776   7.723   4.672   1.584  0.3303 -0.3410  0.1323
  940MOL0     C26777   7.753   4.810   1.645 -0.2514 -0.9390 -0.5701
  940MOL0     C26778   7.818   4.813   1.781 -0.0794  1.0451 -0.8723
  940MOL0     C26779   7.883   4.938   1.820  0.1909  1.1037 -0.3612
  940MOL0     C26780   7.929   4.952   1.969  0.2383 -0.0775 -0.5254
  940MOL0     C26781   7.945   5.098   2.013  0.6470  0.1046 -0.4955
  940MOL0     N26782   7.983   5.106   2.157 -0.4353  0.0140  0.8053
  940MOL0     C26783   7.914   5.055   2.264  0.1518 -0.4337 -0.0733
  940MOL0     C26784   7.999   5.074   2.371  0.7625 -0.1707  0.1696
  940MOL0     C26785   7.981   5.047   2.520 -0.2706  0.3432  0.0509
  940MOL0     C26786   7.891   5.150   2.584  0.3939  0.9199 -0.9190
  940MOL0     C26787   7.848   5.114   2.729 -0.0570 -0.2367  0.4154
  940MOL0     C26788   7.740   5.210   2.772 -0.9211  1.5696  0.9163
  940MOL0     O26789   7.623   5.198   2.681 -0.4833  1.3638 -0.2705
  940MOL0     C26790   7.512   5.274   2.713  0.3364  0.0309 -0.2202
  940MOL0     C26791   7.406   5.255   2.630  0.4307  0.3335  0.3340
  940MOL0     C26792   7.292   5.322   2.649  0.1013 -0.6066 -0.2566
  940MOL0     C26793   7.273   5.426   2.748  0.9703 -0.7170 -0.1812
  940MOL0     C26794   7.140   5.495   2.768 -0.1306  0.5186 -0.1870
  940MOL0     O26795   7.036   5.435   2.701 -0.0731 -0.4597  0.2105
  940MOL0     C26796   6.921   5.494   2.729  1.4187 -0.2230  0.9397
  940MOL0     C26797   6.810   5.434   2.802 -0.1478 -1.4412 -0.8801
  940MOL0     C26798   6.672   5.492   2.795 -0.5998 -0.5064  0.3021
  940MOL0     C26799   6.651   5.609   2.719  0.1145 -0.5192 -0.0449
  940MOL0     O26800   6.526   5.659   2.716  0.0393 -0.5775 -0.4187
  940MOL0     C26801   6.504   5.771   2.635  0.7366  0.8984  0.0687
  940MOL0     C26802   6.372   5.850   2.660 -0.2858  0.0890  0.1507
  940MOL0     C26803   6.237   5.777   2.656  0.1389  0.9713 -0.3623
  940MOL0     C26804   6.123   5.880   2.657  0.3055 -0.1303 -0.2523
  940MOL0     C26805   5.992   5.825   2.689  0.3536 -0.4874  0.8589
  940MOL0     C26806   5.881   5.928   2.676 -0.7763 -0.5886 -1.0297
  940MOL0     C26807   5.736   5.881   2.709  0.0243  0.2639 -0.9462
  940MOL0     C26808   5.651   5.851   2.588 -0.3552 -0.6764  0.1318
  940MOL0    Cl26809   5.688   5.679   2.549 -0.2934  0.5253 -0.0494
  940MOL0     C26810   6.760   5.664   2.652  0.0066  0.0552  0.7910
  940MOL0     C26811   6.889   5.617   2.654  0.1599  0.0586 -0.6935
  940MOL0     O26812   7.139   5.608   2.826  0.3746 -0.5446 -0.1889
  940MOL0     C26813   7.386   5.450   2.832 -0.3798 -0.2015  0.0523
  940MOL0     C26814   7.502   5.380   2.813 -1.0317  1.1669  0.0994
  940MOL0     N26815   8.124   5.120   2.330 -0.0050  0.3328  0.2260
  940MOL0     N26816   8.105   5.141   2.203  0.4474  0.5834 -0.5491
  940MOL0     C26817   7.277   4.785   1.794 -0.8460  0.2910  1.1825
  940MOL0     C26818   7.154   4.839   1.817 -0.7067  0.1425  0.2175
  940MOL0     C26819   6.729   4.912   1.901 -1.4780 -0.9018  0.6061
  940MOL0     C26820   6.709   5.041   1.848 -0.6819 -0.2909  0.1554
  940MOL0     C26821   6.587   5.102   1.858  0.6645 -0.9643  0.0337
  940MOL0     C26822   6.473   5.033   1.911  0.7356 -0.3887  0.8819
  940MOL0     O26823   6.347   5.083   1.920  0.1561  0.3426 -0.3036
  940MOL0     C26824   6.319   5.154   2.045 -0.3696  0.2864 -0.1231
  940MOL0     C26825   6.286   5.293   2.020  0.1317 -0.3521 -0.6010
  940MOL0     C26826   6.149   5.321   1.947  0.2076  0.3920  1.1536
  940MOL0     C26827   6.028   5.271   2.016  0.3053 -0.7847 -1.4484
  940MOL0     C26828   5.991   5.331   2.145 -0.7274 -0.4211 -0.4430
  940MOL0     C26829   5.966   5.381   2.259 -0.0099 -0.2416  0.5175
  940MOL0     C26830   6.495   4.912   1.973  0.3133 -0.0911 -0.2600
  940MOL0     C26831   6.619   4.848   1.973 -0.5605  0.7555  0.6046
  940MOL0     C26832   6.625   4.718   2.039 -0.3632  0.3992 -0.6745
  940MOL0     H26833   6.987   4.720   1.536  0.7535  1.1936 -2.0775
  940MOL0     H26834   7.198   4.639   1.485  0.7215  3.0971 -1.8262
  940MOL0     H26835   7.548   4.705   1.806 -2.7065  1.8131 -0.2255
  940MOL0     H26836   7.470   4.549   1.794  0.0096  1.5623  1.4765
  940MOL0     H26837   7.647   4.484   1.616 -1.4445 -1.9236  2.3160
  940MOL0     H26838   7.726   4.549   1.759  0.0384  0.6356 -1.1467
  940MOL0     H26839   7.655   4.671   1.498  2.9987  1.0000 -2.1531
  940MOL0     H26840   7.817   4.629   1.545 -0.8137 -2.9411 -0.0035
  940MOL0     H26841   7.816   4.870   1.578  0.2768  1.0309  1.5832
  940MOL0     H26842   7.657   4.862   1.654  0.6577  0.4199  2.7596
  940MOL0     H26843   7.738   4.789   1.851 -0.5649  0.2418 -1.6860
  940MOL0     H26844   7.883   4.726   1.793 -0.8996  0.6454  1.0044
  940MOL0     H26845   7.973   4.947   1.759 -0.2823  0.6203 -1.1535
  940MOL0     H26846   7.817   5.023   1.797  0.8307  1.2885 -1.5971
  940MOL0     H26847   8.031   4.914   1.971  0.2503 -0.0115  0.9267
  940MOL0     H26848   7.860   4.894   2.031 -0.7873  2.5048  0.9064
  940MOL0     H26849   8.017   5.158   1.956 -2.8720  4.1947 -1.1622
  940MOL0     H26850   7.847   5.146   2.004 -0.0120 -0.9352  0.8235
  940MOL0     H26851   7.814   5.014   2.270  0.6232 -1.7223 -0.7080
  940MOL0     H26852   7.933   4.949   2.523  0.3697 -0.0021 -0.6754
  940MOL0     H26853   8.076   5.035   2.573  0.5288  1.5698 -1.0299
  940MOL0     H26854   7.939   5.248   2.575 -2.2880  2.5410  1.1115
  940MOL0     H26855   7.807   5.153   2.514  0.2979  1.2269 -0.7923
  940MOL0     H26856   7.938   5.122   2.790  0.8712  0.4634 -0.9761
  940MOL0     H26857   7.835   5.006   2.726  4.3106 -1.0797  3.1175
  940MOL0     H26858   7.779   5.312   2.780 -1.3293  2.0867 -2.2797
  940MOL0     H26859   7.716   5.178   2.874  2.1477  1.0902  1.6158
  940MOL0     H26860   7.417   5.187   2.547  1.3649 -2.6542  2.7245
  940MOL0     H26861   7.211   5.308   2.578  0.6176 -0.7559 -0.8269
  940MOL0     H26862   6.822   5.340   2.855 -1.0738  0.0692  2.2593
  940MOL0     H26863   6.587   5.439   2.837 -0.3671 -1.3066 -0.2005
  940MOL0     H26864   6.585   5.844   2.637  1.6877 -0.1461  0.2930
  940MOL0     H26865   6.496   5.729   2.534  0.3488 -1.9450  1.1874
  940MOL0     H26866   6.376   5.913   2.749  0.8090 -0.7172  0.6964
  940MOL0     H26867   6.375   5.912   2.570  1.5226 -0.6306 -0.3216
  940MOL0     H26868   6.242   5.714   2.566  2.3656 -0.9293  0.9595
  940MOL0     H26869   6.238   5.706   2.740  1.6832 -0.3529 -1.4279
  940MOL0     H26870   6.119   5.917   2.554 -3.7855 -1.0584 -0.5746
  940MOL0     H26871   6.157   5.956   2.729  0.3207  1.5598 -1.9708
  940MOL0     H26872   5.984   5.795   2.794 -3.4467  0.4001  0.9805
  940MOL0     H26873   5.976   5.737   2.628 -0.4561 -1.2661  2.1273
  940MOL0     H26874   5.899   6.012   2.744  1.1339 -1.7015 -0.0664
  940MOL0     H26875   5.884   5.972   2.576 -1.3545  1.2880 -0.2798
  940MOL0     H26876   5.691   5.968   2.758 -0.4210  0.0751 -1.0152
  940MOL0     H26877   5.732   5.797   2.778 -1.4585 -0.3350 -1.7161
  940MOL0     H26878   5.546   5.870   2.614 -1.1858 -2.1501 -1.9566
  940MOL0     H26879   5.673   5.915   2.502 -2.5492 -0.9277 -0.6673
  940MOL0     H26880   6.762   5.755   2.593  2.4367 -0.8827 -0.7749
  940MOL0     H26881   6.968   5.654   2.590 -1.5121  0.4120 -2.6482
  940MOL0     H26882   7.387   5.520   2.915 -3.5562  1.0267 -0.8202
  940MOL0     H26883   7.588   5.401   2.875 -0.5597 -2.3710  0.8934
  940MOL0     H26884   7.359   4.797   1.864  0.8607  5.4874 -1.2285
  940MOL0     H26885   7.148   4.901   1.905  0.9430  1.1828 -0.3585
  940MOL0     H26886   6.790   5.096   1.799  0.6877  1.4599  4.0217
  940MOL0     H26887   6.569   5.193   1.802 -0.1674 -0.1440  1.5523
  940MOL0     H26888   6.399   5.143   2.119 -0.7033 -0.1632  0.1793
  940MOL0     H26889   6.233   5.103   2.091  0.2935 -0.3036  0.5060
  940MOL0     H26890   6.370   5.348   1.977  1.3756 -1.0603  0.8565
  940MOL0     H26891   6.279   5.335   2.121 -2.8053  0.6757 -1.1121
  940MOL0     H26892   6.150   5.268   1.851  2.5407 -2.9273  2.8003
  940MOL0     H26893   6.131   5.427   1.926 -2.5140  0.0045  1.2061
  940MOL0     H26894   5.952   5.282   1.938 -0.0670 -1.1890 -1.1484
  940MOL0     H26895   6.058   5.167   2.035  1.0760 -0.5341 -1.2400
  940MOL0     H26896   5.940   5.434   2.348  2.2864  1.5935  0.2006
  940MOL0     H26897   6.407   4.862   2.011 -1.3129  2.0324 -1.0059
  940MOL0     H26898   6.688   4.724   2.128 -2.2452  0.2859  0.7323
  940MOL0     H26899   6.524   4.685   2.063 -0.3522 -0.9356 -2.2487
  940MOL0     H26900   6.688   4.654   1.976  1.4986  1.2358  0.2483
  941MOL0     O26901   1.043   9.832   2.133 -0.1148  0.1672  0.1564
  941MOL0     C26902   1.085   9.745   2.053  0.2756  0.9356 -0.3564
  941MOL0     O26903   1.195   9.673   2.071 -0.1725  0.6572 -0.9357
  941MOL0     C26904   1.291   9.694   2.164  0.6389  0.2684 -0.2448
  941MOL0     C26905   1.379   9.589   2.185  0.3601  0.0683 -1.3121
  941MOL0     C26906   1.492   9.597   2.273 -0.0947  0.1245 -0.0699
  941MOL0     C26907   1.504   9.719   2.349  0.4312  0.1464  0.7004
  941MOL0     O26908   1.617   9.747   2.433 -0.0328  0.0824 -0.3675
  941MOL0     C26909   1.753   9.703   2.399 -0.4560  0.9622 -0.5654
  941MOL0     C26910   1.789   9.762   2.265 -0.1779 -0.4641  0.0874
  941MOL0     C26911   1.910   9.691   2.217 -0.2068 -0.2930  0.2833
  941MOL0     C26912   1.952   9.730   2.075  1.0112  0.0668 -0.3301
  941MOL0     C26913   2.097   9.686   2.041  0.1196  0.2080 -0.9724
  941MOL0     C26914   2.117   9.533   2.043 -1.2250 -0.9968 -0.2014
  941MOL0     C26915   2.263   9.493   2.006 -0.9724  0.4732  0.2900
  941MOL0     C26916   2.369   9.570   2.088 -0.0772  0.1302 -0.6044
  941MOL0     N26917   2.347   9.562   2.236 -0.0119 -0.1757  0.0646
  941MOL0     C26918   2.331   9.669   2.313  1.1571  0.4189 -0.0305
  941MOL0     C26919   2.346   9.611   2.434 -0.5895  0.1366  0.3111
  941MOL0     C26920   2.340   9.686   2.561  0.0600  0.5956 -0.2700
  941MOL0     C26921   2.439   9.803   2.557 -0.1248  0.9568 -0.0289
  941MOL0     C26922   2.414   9.909   2.661 -0.3039  0.4635 -0.2651
  941MOL0     C26923   2.543   9.982   2.704 -0.3427 -0.5169 -0.6829
  941MOL0     O26924   2.558  10.093   2.612 -0.3902 -0.0842 -0.4399
  941MOL0     C26925   2.635  10.192   2.671 -0.7727 -1.0313 -0.2188
  941MOL0     C26926   2.733  10.177   2.771 -0.6809  0.1244  0.0811
  941MOL0     C26927   2.802  10.288   2.821  0.4196  0.4586  0.1530
  941MOL0     C26928   2.763  10.423   2.789  0.1933  0.6709  1.0955
  941MOL0     C26929   2.820  10.542   2.843  0.0571  1.5632 -0.5863
  941MOL0     O26930   2.889  10.526   2.957 -0.9173  0.1445  0.4740
  941MOL0     C26931   2.997  10.608   2.990  0.2542  0.1834 -1.3136
  941MOL0     C26932   3.006  10.644   3.123 -0.1781 -0.2753  0.2233
  941MOL0     C26933   3.119  10.717   3.156 -0.8407  0.0781  0.0052
  941MOL0     C26934   3.192  10.786   3.062  1.2787  0.6230  0.2354
  941MOL0     O26935   3.283  10.887   3.105  0.5296  0.1181 -0.5083
  941MOL0     C26936   3.314  10.993   3.022  0.0189  0.1801 -0.3112
  941MOL0     C26937   3.369  11.117   3.096 -0.2992  0.9785  0.5710
  941MOL0     C26938   3.386  11.241   3.008 -0.6447  0.1551  0.7604
  941MOL0     C26939   3.508  11.328   3.043 -0.8027 -0.7645  0.6205
  941MOL0     C26940   3.532  11.418   2.921 -0.4737  0.5101  0.2125
  941MOL0     C26941   3.666  11.482   2.938 -0.7505 -1.0646 -0.3704
  941MOL0     C26942   3.707  11.519   2.798 -0.0714  0.2208  0.8093
  941MOL0     C26943   3.625  11.623   2.723  0.3308 -0.2782  0.4647
  941MOL0    Cl26944   3.694  11.678   2.569  0.0831 -0.0137  0.4414
  941MOL0     C26945   3.175  10.758   2.930  0.5377 -0.3257 -1.2738
  941MOL0     C26946   3.078  10.665   2.892 -0.0397  0.5530  0.8937
  941MOL0     O26947   2.792  10.648   2.791 -0.0110  0.0226 -0.1073
  941MOL0     C26948   2.649  10.436   2.702 -0.6318  0.4346 -0.4348
  941MOL0     C26949   2.587  10.324   2.641 -0.4756  1.0159 -1.1109
  941MOL0     N26950   2.373   9.476   2.430 -0.4953  0.9362 -0.5083
  941MOL0     N26951   2.373   9.445   2.304  0.0153 -0.3976 -0.2564
  941MOL0     C26952   1.422   9.830   2.319 -0.0965 -0.6961  0.6760
  941MOL0     C26953   1.318   9.818   2.230  0.0040  0.1145  0.7368
  941MOL0     C26954   1.024   9.751   1.916  0.6891 -0.2416  0.1462
  941MOL0     C26955   0.899   9.815   1.895 -0.5869  0.4681 -0.4565
  941MOL0     C26956   0.846   9.828   1.766 -0.3228  0.0392  0.2794
  941MOL0     C26957   0.898   9.764   1.648 -0.3446 -0.5420 -0.4464
  941MOL0     O26958   0.815   9.755   1.538  0.0946  0.4975 -0.0097
  941MOL0     C26959   0.807   9.638   1.464  0.3717 -0.1444  0.0831
  941MOL0     C26960   0.688   9.651   1.369 -0.5061  1.0171  0.2262
  941MOL0     C26961   0.660   9.531   1.265  0.0952  0.1783 -0.0818
  941MOL0     C26962   0.561   9.576   1.163  0.2239 -0.0287 -0.5824
  941MOL0     C26963   0.447   9.481   1.148 -0.4438  0.3304  0.6059
  941MOL0     C26964   0.348   9.409   1.130 -0.3172  0.4470 -0.2780
  941MOL0     C26965   1.026   9.707   1.669  1.0838  0.3501 -0.1803
  941MOL0     C26966   1.088   9.698   1.802  0.3839  0.1000 -0.3704
  941MOL0     C26967   1.221   9.621   1.795 -0.2566 -0.9273 -0.4179
  941MOL0     H26968   1.352   9.499   2.131 -1.3228  0.7044 -1.5908
  941MOL0     H26969   1.557   9.511   2.283  1.0121  0.6287 -2.1223
  941MOL0     H26970   1.818   9.756   2.469 -2.3489  0.7039  1.4870
  941MOL0     H26971   1.765   9.595   2.406  0.5205  1.1731  3.1076
  941MOL0     H26972   1.793   9.871   2.275 -3.3228 -0.4765  3.4954
  941MOL0     H26973   1.702   9.748   2.200 -1.0349  1.0865  0.8544
  941MOL0     H26974   1.885   9.584   2.212  1.6562 -0.7277 -0.6126
  941MOL0     H26975   1.993   9.722   2.281  0.3542 -0.3956 -0.3836
  941MOL0     H26976   1.878   9.704   1.998  2.3222  0.1404 -1.6717
  941MOL0     H26977   1.965   9.839   2.078 -0.5610  0.2491  1.5605
  941MOL0     H26978   2.134   9.738   1.952 -0.5464 -1.2376 -2.1343
  941MOL0     H26979   2.176   9.722   2.108  0.8568 -2.7981 -0.0859
  941MOL0     H26980   2.086   9.493   2.140  0.4857 -4.5900 -0.9878
  941MOL0     H26981   2.042   9.484   1.981  0.2427 -0.3650 -2.5987
  941MOL0     H26982   2.287   9.514   1.901 -1.5097 -0.3752 -0.0096
  941MOL0     H26983   2.289   9.388   2.022  0.2837  0.5317 -1.1285
  941MOL0     H26984   2.469   9.529   2.074 -0.3062 -0.9041  0.7082
  941MOL0     H26985   2.372   9.677   2.064 -0.1032 -0.0905 -1.6765
  941MOL0     H26986   2.316   9.769   2.274 -3.0670 -0.4665 -1.2304
  941MOL0     H26987   2.244   9.736   2.578  0.1328  0.1705  1.6259
  941MOL0     H26988   2.357   9.629   2.653  0.2046 -0.1497 -0.7604
  941MOL0     H26989   2.539   9.759   2.565 -1.0672 -1.0864  1.1215
  941MOL0     H26990   2.445   9.840   2.454  0.6798 -1.7455 -1.0571
  941MOL0     H26991   2.373   9.865   2.752  0.4324 -1.4588 -0.8204
  941MOL0     H26992   2.345   9.989   2.632 -1.6119 -0.3533  0.4939
  941MOL0     H26993   2.631   9.917   2.698 -0.5592 -0.6895 -2.7990
  941MOL0     H26994   2.527  10.019   2.806 -2.0535  2.6893 -1.9847
  941MOL0     H26995   2.762  10.076   2.801  0.0627  0.1126 -0.6340
  941MOL0     H26996   2.888  10.279   2.887 -0.2807 -1.0312  0.9245
  941MOL0     H26997   2.938  10.599   3.195 -1.2768  0.6245 -0.2239
  941MOL0     H26998   3.139  10.739   3.261 -0.3579 -1.0150  0.1540
  941MOL0     H26999   3.376  10.947   2.945 -1.7081 -2.4681 -0.2611
  941MOL0     H27000   3.217  11.026   2.982  0.3359  1.6066  0.0383
  941MOL0     H27001   3.313  11.136   3.188 -0.9778 -1.1925  0.6595
  941MOL0     H27002   3.469  11.084   3.123 -1.3320 -1.9565  1.2025
  941MOL0     H27003   3.405  11.199   2.909 -0.0673  0.3585  0.7793
  941MOL0     H27004   3.296  11.303   3.010  1.1612  3.3289 -2.6929
  941MOL0     H27005   3.594  11.264   3.063  1.1441  0.9346 -1.7652
  941MOL0     H27006   3.478  11.386   3.132 -0.5111 -0.7344  0.7002
  941MOL0     H27007   3.452  11.492   2.916 -2.1302 -1.1592  0.6622
  941MOL0     H27008   3.523  11.370   2.823 -4.5302 -0.8607  1.0729
  941MOL0     H27009   3.669  11.572   3.001  2.5480 -1.4106  0.1441
  941MOL0     H27010   3.734  11.414   2.989  0.5790 -0.1779 -0.9178
  941MOL0     H27011   3.735  11.435   2.733  2.7897 -0.3874  2.6614
  941MOL0     H27012   3.809  11.556   2.811 -0.0885 -0.2001  2.2985
  941MOL0     H27013   3.529  11.577   2.697  1.2058 -3.9262  2.8417
  941MOL0     H27014   3.605  11.709   2.788 -1.1076 -1.0867  1.1603
  941MOL0     H27015   3.230  10.800   2.846  0.6732  2.7657  0.2055
  941MOL0     H27016   3.083  10.631   2.789 -0.8908 -0.1489  1.0816
  941MOL0     H27017   2.609  10.533   2.673  1.4708  0.2425 -4.8031
  941MOL0     H27018   2.499  10.321   2.577 -1.5266 -1.3501  0.2966
  941MOL0     H27019   1.448   9.930   2.351  0.9125 -1.3793  2.0741
  941MOL0     H27020   1.268   9.914   2.225  1.3169  0.7642 -0.3299
  941MOL0     H27021   0.849   9.862   1.979  0.8497 -0.8272  1.2054
  941MOL0     H27022   0.749   9.877   1.766 -0.3967 -0.0804  1.1940
  941MOL0     H27023   0.801   9.558   1.538  4.8063  0.2642  1.1770
  941MOL0     H27024   0.888   9.624   1.393 -0.2577 -1.5737 -0.3698
  941MOL0     H27025   0.710   9.741   1.310  1.4238  0.2402 -0.3393
  941MOL0     H27026   0.589   9.663   1.413 -0.5401  2.2966 -0.1562
  941MOL0     H27027   0.619   9.448   1.323 -1.0275  0.9724  0.2971
  941MOL0     H27028   0.748   9.496   1.211  2.6259  1.7776  2.7126
  941MOL0     H27029   0.521   9.670   1.201  0.6702 -0.2727  0.5256
  941MOL0     H27030   0.605   9.595   1.065 -1.8438  3.4078 -1.0249
  941MOL0     H27031   0.254   9.360   1.113  0.8783 -1.8686 -0.6627
  941MOL0     H27032   1.063   9.659   1.579  0.3500  3.4234 -2.2634
  941MOL0     H27033   1.229   9.543   1.871 -0.2746 -3.9391 -3.2900
  941MOL0     H27034   1.228   9.562   1.703  0.2142 -0.7777 -0.4782
  941MOL0     H27035   1.302   9.694   1.800 -1.5356  0.5591 -0.4538
  942MOL0     O27036   6.174   7.111   0.082 -0.2036  0.0645 -0.0939
  942MOL0     C27037   6.093   7.201   0.098  0.2122  0.7333  0.1486
  942MOL0     O27038   6.124   7.322   0.152  0.5625 -0.1309  1.1003
  942MOL0     C27039   6.251   7.335   0.203 -1.7400 -0.0670  0.5356
  942MOL0     C27040   6.274   7.318   0.334  0.3064 -0.4356  1.6685
  942MOL0     C27041   6.408   7.333   0.386 -0.2108 -0.7092 -0.3365
  942MOL0     C27042   6.515   7.374   0.304 -0.1078  0.1878  0.5040
  942MOL0     O27043   6.639   7.395   0.366  0.8897 -0.6432  0.2376
  942MOL0     C27044   6.754   7.445   0.292 -0.7288  0.0048  0.1926
  942MOL0     C27045   6.755   7.603   0.289 -0.5194  0.5896  0.4081
  942MOL0     C27046   6.904   7.637   0.261  0.7015 -0.6844 -0.4431
  942MOL0     C27047   6.924   7.784   0.307 -0.3881  0.5354 -0.3475
  942MOL0     C27048   7.071   7.822   0.312 -0.4870  0.0324  0.2333
  942MOL0     C27049   7.130   7.862   0.173 -0.5776  0.0508 -0.6745
  942MOL0     C27050   7.265   7.934   0.173 -0.1056  0.3748 -0.1400
  942MOL0     C27051   7.380   7.842   0.166  0.5265  0.4428 -0.8162
  942MOL0     N27052   7.510   7.888   0.120 -0.3591 -0.7840 -0.0831
  942MOL0     C27053   7.623   7.801   0.107  0.9662 -0.3814 -1.0460
  942MOL0     C27054   7.719   7.883   0.056  0.3655  0.6768  0.4754
  942MOL0     C27055   7.862   7.834   0.034 -0.2367 -0.0140 -0.0178
  942MOL0     C27056   7.943   7.842   0.157 -0.0902 -0.1637  0.2557
  942MOL0     C27057   7.979   7.991   0.196 -0.0973 -0.6231 -0.8964
  942MOL0     C27058   8.083   8.019   0.297 -0.6064 -0.3617  0.2162
  942MOL0     O27059   8.204   8.026   0.214  0.0857  0.1322 -0.6811
  942MOL0     C27060   8.323   8.014   0.289 -0.5891  0.2186  0.9656
  942MOL0     C27061   8.402   7.902   0.271 -0.4671 -0.1396  0.1254
  942MOL0     C27062   8.527   7.894   0.338  0.0181 -0.9222 -0.4852
  942MOL0     C27063   8.564   7.998   0.425 -0.0201  0.6473 -0.3112
  942MOL0     C27064   8.691   7.986   0.514 -0.7416  0.3866 -0.3206
  942MOL0     O27065   8.707   8.095   0.592 -0.5044  0.6321  0.1668
  942MOL0     C27066   8.821   8.125   0.666 -0.5215  0.0093  0.2235
  942MOL0     C27067   8.817   8.247   0.730 -0.1832 -0.9426  0.0987
  942MOL0     C27068   8.934   8.315   0.781  0.1745  0.3736 -0.3940
  942MOL0     C27069   9.058   8.259   0.769  0.0344  0.2803 -0.3107
  942MOL0     O27070   9.158   8.330   0.830  0.0881 -0.0269  0.1881
  942MOL0     C27071   9.291   8.276   0.825 -0.0744  0.0767  0.8485
  942MOL0     C27072   9.369   8.385   0.874  0.1669  0.4301 -0.3156
  942MOL0     C27073   9.520   8.370   0.843 -0.0406 -0.0152  0.5790
  942MOL0     C27074   9.599   8.494   0.847 -0.3859 -0.5632  0.2235
  942MOL0     C27075   9.731   8.475   0.774  0.3356  0.3255  0.1222
  942MOL0     C27076   9.836   8.404   0.862  0.1887  0.2754  0.4140
  942MOL0     C27077   9.966   8.376   0.785  0.1282  0.6687 -0.7366
  942MOL0     C27078  10.075   8.315   0.884  0.5162 -0.2386 -0.6650
  942MOL0    Cl27079  10.170   8.444   0.970 -0.0674 -0.0308 -0.1218
  942MOL0     C27080   9.067   8.127   0.724 -0.1399 -0.0909 -0.1577
  942MOL0     C27081   8.950   8.059   0.675 -0.1983  0.3017  0.1747
  942MOL0     O27082   8.777   7.899   0.492  0.5458  0.1579  0.5924
  942MOL0     C27083   8.478   8.107   0.444 -0.4227 -0.2607 -0.7350
  942MOL0     C27084   8.356   8.115   0.373  0.7117 -1.3379 -0.7469
  942MOL0     N27085   7.674   8.016   0.068  0.1219  0.3054 -0.2090
  942MOL0     N27086   7.555   8.016   0.095  0.1588 -0.2520 -0.1419
  942MOL0     C27087   6.480   7.404   0.173  0.1256 -0.2916 -0.0687
  942MOL0     C27088   6.352   7.380   0.119 -0.6020 -0.4650  0.6026
  942MOL0     C27089   5.952   7.173   0.042 -0.2640 -1.0273 -0.3760
  942MOL0     C27090   5.872   7.287   0.010  0.2178  0.6318  0.3623
  942MOL0     C27091   5.738   7.267  -0.045 -1.0980 -1.0412  0.1245
  942MOL0     C27092   5.683   7.139  -0.045 -0.3683  0.4709 -0.0221
  942MOL0     O27093   5.544   7.113  -0.058  0.2155  0.4983 -0.2394
  942MOL0     C27094   5.491   7.163  -0.181 -0.0083  0.2181  0.0954
  942MOL0     C27095   5.418   7.049  -0.250 -0.2076  0.2117  1.6993
  942MOL0     C27096   5.371   7.103  -0.384  0.4490 -0.2373  0.0824
  942MOL0     C27097   5.294   7.003  -0.477 -0.1780 -0.4793  0.8075
  942MOL0     C27098   5.357   6.873  -0.493 -0.0272  0.2868 -0.4084
  942MOL0     C27099   5.420   6.768  -0.476  1.1212 -0.1605  0.0399
  942MOL0     C27100   5.772   7.032  -0.021 -0.4741 -0.0175 -0.2188
  942MOL0     C27101   5.900   7.042   0.027  0.1565  0.2918 -0.0755
  942MOL0     C27102   5.969   6.904   0.057 -0.5452 -0.4338 -0.8771
  942MOL0     H27103   6.195   7.306   0.407 -2.7024 -0.3467 -1.3261
  942MOL0     H27104   6.427   7.312   0.491  0.1805 -1.0846 -0.4778
  942MOL0     H27105   6.839   7.405   0.347 -3.0152 -1.2244  3.1198
  942MOL0     H27106   6.761   7.399   0.193 -2.6751  0.1246 -0.0578
  942MOL0     H27107   6.721   7.637   0.388 -1.2646  2.2572 -0.3785
  942MOL0     H27108   6.687   7.645   0.214 -0.3023 -2.2993 -1.5377
  942MOL0     H27109   6.920   7.620   0.154 -2.4366 -1.3849 -0.8937
  942MOL0     H27110   6.969   7.584   0.332  1.4242  0.9226  0.1215
  942MOL0     H27111   6.870   7.846   0.235  2.2307  2.7998 -0.5255
  942MOL0     H27112   6.878   7.798   0.405  0.8249 -0.2103  0.3501
  942MOL0     H27113   7.084   7.911   0.374 -0.9488 -1.0342  1.9406
  942MOL0     H27114   7.135   7.746   0.358  2.4208  0.5638 -2.6249
  942MOL0     H27115   7.144   7.772   0.114  2.8377 -0.3380  0.4714
  942MOL0     H27116   7.062   7.937   0.131 -1.6803 -0.8522 -0.5380
  942MOL0     H27117   7.273   7.996   0.263 -2.0733  0.7383 -0.1609
  942MOL0     H27118   7.259   7.997   0.084 -0.3598 -3.0102 -2.7235
  942MOL0     H27119   7.398   7.798   0.265  3.6152  0.7901 -1.1251
  942MOL0     H27120   7.344   7.768   0.094 -1.0832  0.2654  0.1206
  942MOL0     H27121   7.633   7.697   0.136  0.0292 -0.2563 -0.1994
  942MOL0     H27122   7.859   7.729   0.002  0.9075  0.1987 -0.9106
  942MOL0     H27123   7.906   7.896  -0.045  0.1054 -0.2884 -0.0465
  942MOL0     H27124   7.881   7.787   0.228 -1.4543 -0.9225 -1.4587
  942MOL0     H27125   8.034   7.781   0.158  1.2371  1.5878  3.8534
  942MOL0     H27126   7.887   8.036   0.234  1.4076  1.6724  0.2457
  942MOL0     H27127   8.015   8.049   0.111  3.1672 -2.9133 -1.3027
  942MOL0     H27128   8.088   7.933   0.365  2.1627 -0.9659 -0.6067
  942MOL0     H27129   8.075   8.106   0.363  0.9699 -1.4898  2.0201
  942MOL0     H27130   8.368   7.820   0.208 -1.0158  0.2238 -0.0649
  942MOL0     H27131   8.591   7.806   0.340 -2.5201 -2.9076  0.0708
  942MOL0     H27132   8.721   8.297   0.735 -0.3930 -1.1788 -1.3029
  942MOL0     H27133   8.921   8.401   0.846 -0.2546  0.0663 -0.0676
  942MOL0     H27134   9.303   8.186   0.886 -1.7584 -0.1829  0.8388
  942MOL0     H27135   9.322   8.257   0.722 -0.7609  1.0596  0.4409
  942MOL0     H27136   9.332   8.471   0.817 -2.2526 -1.8018 -2.3778
  942MOL0     H27137   9.338   8.406   0.977 -1.3825 -2.6996 -0.0285
  942MOL0     H27138   9.563   8.291   0.906  1.0322  2.2066  2.8351
  942MOL0     H27139   9.528   8.328   0.743  0.2980  4.0136 -1.2802
  942MOL0     H27140   9.621   8.518   0.951 -0.5707 -1.1563  0.4013
  942MOL0     H27141   9.559   8.583   0.797  0.8535  0.3210  0.7644
  942MOL0     H27142   9.770   8.577   0.765 -0.4554  0.6805  0.6377
  942MOL0     H27143   9.727   8.426   0.676 -1.2764  0.6855 -0.0144
  942MOL0     H27144   9.861   8.458   0.954  1.9310 -1.0515  0.7617
  942MOL0     H27145   9.808   8.306   0.901  1.4621  0.2014  1.1939
  942MOL0     H27146  10.005   8.461   0.729  0.9029 -1.1948 -3.1723
  942MOL0     H27147   9.946   8.300   0.709  3.0995 -1.1250  0.1427
  942MOL0     H27148  10.031   8.254   0.963  1.3813  0.0956  0.0845
  942MOL0     H27149  10.146   8.244   0.840  4.2918  3.1431 -0.6002
  942MOL0     H27150   9.157   8.072   0.751 -0.7934 -0.2110  2.0204
  942MOL0     H27151   8.941   7.954   0.650  1.5800  0.1364  0.0860
  942MOL0     H27152   8.495   8.178   0.524 -1.9837  2.0884 -2.3740
  942MOL0     H27153   8.290   8.196   0.402  0.7800 -1.3510 -0.5549
  942MOL0     H27154   6.549   7.446   0.100  1.4423  1.5869  2.1099
  942MOL0     H27155   6.338   7.397   0.013  0.1651  1.0412  0.7211
  942MOL0     H27156   5.909   7.388   0.022  2.1581  0.4073 -2.5259
  942MOL0     H27157   5.680   7.352  -0.077 -0.9763 -0.2788  1.8132
  942MOL0     H27158   5.572   7.199  -0.245 -0.0172 -0.6919 -0.4556
  942MOL0     H27159   5.418   7.242  -0.161 -0.1746  0.7051 -2.1493
  942MOL0     H27160   5.325   7.030  -0.195 -1.6621  0.4475 -0.5653
  942MOL0     H27161   5.472   6.954  -0.247  0.0716  0.0506 -2.5844
  942MOL0     H27162   5.459   7.148  -0.431  1.4461 -1.0990  1.0551
  942MOL0     H27163   5.295   7.177  -0.358 -1.0119 -0.9692 -1.8786
  942MOL0     H27164   5.203   6.989  -0.419 -0.0425  2.9991  2.1646
  942MOL0     H27165   5.284   7.055  -0.573  0.8205 -1.0276  0.3930
  942MOL0     H27166   5.473   6.677  -0.453 -0.3708 -0.8132  1.0732
  942MOL0     H27167   5.710   6.943  -0.027  1.2054 -1.1955 -1.1300
  942MOL0     H27168   6.030   6.876  -0.029 -1.1070 -0.2681 -1.3377
  942MOL0     H27169   6.035   6.912   0.143 -0.8609  0.8534 -0.7356
  942MOL0     H27170   5.907   6.819   0.086 -1.8935  1.4456  2.3499
  943MOL0     O27171   6.282   0.131   7.244 -0.1122 -0.7318 -0.2434
  943MOL0     C27172   6.218   0.231   7.275  0.2865 -0.0916 -0.4465
  943MOL0     O27173   6.271   0.357   7.263  0.4667 -0.6687  0.2024
  943MOL0     C27174   6.410   0.367   7.259 -0.2868 -0.2417 -0.0963
  943MOL0     C27175   6.484   0.352   7.138  0.9080  0.2561  0.1066
  943MOL0     C27176   6.621   0.370   7.136  0.3940  0.2635 -0.0271
  943MOL0     C27177   6.693   0.397   7.244 -0.2913 -1.1217 -0.3715
  943MOL0     O27178   6.828   0.422   7.243 -0.2000 -0.2529 -0.2162
  943MOL0     C27179   6.870   0.519   7.146 -0.4545 -0.0156 -0.6648
  943MOL0     C27180   6.981   0.608   7.209  0.4546  0.3498 -0.1886
  943MOL0     C27181   7.125   0.580   7.180  0.2972  0.8081  0.9258
  943MOL0     C27182   7.201   0.690   7.107  0.0254  0.4303 -0.1559
  943MOL0     C27183   7.327   0.628   7.046 -0.0520 -0.9561  0.0032
  943MOL0     C27184   7.410   0.561   7.155 -0.7209 -0.0503  0.1288
  943MOL0     C27185   7.546   0.503   7.108 -0.1438 -0.0271 -0.7073
  943MOL0     C27186   7.640   0.450   7.213 -0.6503 -0.4613 -0.1165
  943MOL0     N27187   7.756   0.391   7.140 -0.0156  0.2937  0.0703
  943MOL0     C27188   7.780   0.254   7.129 -0.8988 -0.1172  0.5141
  943MOL0     C27189   7.915   0.253   7.109 -0.7038 -0.2118 -0.2351
  943MOL0     C27190   7.976   0.133   7.044 -0.3185  0.6258  0.2383
  943MOL0     C27191   8.045   0.166   6.912 -0.1948 -0.8468 -0.3444
  943MOL0     C27192   8.099   0.054   6.828 -0.0640  0.6919 -0.2097
  943MOL0     C27193   8.147   0.088   6.685  0.3446  0.2003  0.4952
  943MOL0     O27194   8.231  -0.018   6.624  0.1724 -0.6688  0.7242
  943MOL0     C27195   8.270  -0.008   6.491  0.2997  0.8089  0.3788
  943MOL0     C27196   8.271   0.104   6.407 -0.6087 -0.3674  0.1806
  943MOL0     C27197   8.337   0.113   6.282 -0.7939  0.8888 -0.2752
  943MOL0     C27198   8.392  -0.001   6.226 -0.4519  0.3716  0.2773
  943MOL0     C27199   8.462   0.003   6.095  0.2099  0.4783 -0.0540
  943MOL0     O27200   8.485   0.125   6.029 -0.2695 -0.2550 -0.4569
  943MOL0     C27201   8.575   0.137   5.924 -0.7412  0.7973  0.0033
  943MOL0     C27202   8.534   0.068   5.807 -0.3955 -0.8113  0.5155
  943MOL0     C27203   8.630   0.020   5.723  0.1143  0.8582 -0.4389
  943MOL0     C27204   8.757   0.069   5.729  0.0998 -0.4191  1.2088
  943MOL0     O27205   8.854   0.045   5.632 -0.5494  0.0561  0.6590
  943MOL0     C27206   8.826  -0.046   5.524  0.1604 -0.7334 -0.2250
  943MOL0     C27207   8.947  -0.068   5.430 -0.8671 -0.4166  0.0260
  943MOL0     C27208   8.983   0.063   5.371  0.0231 -0.2558  1.4118
  943MOL0     C27209   9.057   0.031   5.237 -0.1328 -0.5243  0.3876
  943MOL0     C27210   9.081   0.163   5.159 -0.1473  0.1596  0.3965
  943MOL0     C27211   9.167   0.160   5.041 -0.3178  0.3664  0.2595
  943MOL0     C27212   9.312   0.142   5.087 -0.1015 -0.3429 -0.2335
  943MOL0     C27213   9.417   0.129   4.974  0.4932  0.3801  0.2799
  943MOL0    Cl27214   9.455  -0.047   4.935  0.4475 -0.6043 -0.3162
  943MOL0     C27215   8.802   0.136   5.840  0.3849 -1.1597  0.4023
  943MOL0     C27216   8.713   0.167   5.948  0.0221 -0.5670 -0.0588
  943MOL0     O27217   8.521  -0.103   6.065 -0.0388 -0.3360 -0.4553
  943MOL0     C27218   8.393  -0.114   6.305 -0.4065 -0.8673  0.0414
  943MOL0     C27219   8.333  -0.125   6.432  0.1620  0.0799 -0.6684
  943MOL0     N27220   7.967   0.380   7.102  0.5594  0.1759  0.4868
  943MOL0     N27221   7.868   0.455   7.129  0.3655 -0.7830  0.7161
  943MOL0     C27222   6.622   0.419   7.365  0.5339 -0.1020 -0.3883
  943MOL0     C27223   6.480   0.394   7.379 -0.2841 -0.0201  1.0875
  943MOL0     C27224   6.066   0.216   7.293  0.1058  0.4613  0.1500
  943MOL0     C27225   6.005   0.313   7.372 -0.0517  0.9842  0.4263
  943MOL0     C27226   5.862   0.306   7.398  0.5157 -0.3177  0.2336
  943MOL0     C27227   5.779   0.212   7.341 -0.2930 -0.3306 -0.3831
  943MOL0     O27228   5.639   0.232   7.345 -0.3058  0.1796 -0.1729
  943MOL0     C27229   5.553   0.120   7.371  0.2018  0.8773 -0.1719
  943MOL0     C27230   5.421   0.180   7.439 -0.8926 -0.1265  0.2515
  943MOL0     C27231   5.326   0.061   7.473 -0.8190  0.5176  0.0773
  943MOL0     C27232   5.219   0.096   7.573  0.1518 -0.4493  0.9559
  943MOL0     C27233   5.159   0.223   7.532  0.6653 -0.6600  0.9393
  943MOL0     C27234   5.073   0.306   7.495 -0.0172  0.8395  0.1365
  943MOL0     C27235   5.836   0.115   7.257 -0.4771  0.5985  0.3995
  943MOL0     C27236   5.972   0.125   7.228 -0.1723  1.4648 -0.3250
  943MOL0     C27237   6.035   0.015   7.147 -0.1354  0.1500 -0.3045
  943MOL0     H27238   6.438   0.310   7.049  2.8160 -0.5073 -0.5743
  943MOL0     H27239   6.674   0.343   7.046  1.6089 -2.9514  1.4874
  943MOL0     H27240   6.922   0.461   7.069  1.2521 -0.9161  1.0790
  943MOL0     H27241   6.786   0.578   7.107  0.7517  2.4722  0.3083
  943MOL0     H27242   6.968   0.609   7.318  0.2795  2.1276 -0.1956
  943MOL0     H27243   6.957   0.711   7.181 -1.5446 -0.1241 -0.3849
  943MOL0     H27244   7.138   0.485   7.127  0.0290  1.4268 -0.2669
  943MOL0     H27245   7.176   0.576   7.277  3.0723  2.4951 -0.3762
  943MOL0     H27246   7.147   0.725   7.018 -3.8793 -0.5202  1.5825
  943MOL0     H27247   7.230   0.777   7.166  3.8775 -1.2483  0.6800
  943MOL0     H27248   7.290   0.556   6.973 -2.8100 -1.9534  2.2066
  943MOL0     H27249   7.388   0.712   7.010  2.4826 -1.6156  2.4313
  943MOL0     H27250   7.419   0.636   7.234 -1.3497 -3.5209  3.8091
  943MOL0     H27251   7.359   0.478   7.205 -1.1341 -1.1821 -2.0618
  943MOL0     H27252   7.606   0.580   7.057  1.1119  2.5544  4.0123
  943MOL0     H27253   7.526   0.420   7.040  1.3583  0.5071 -1.8916
  943MOL0     H27254   7.676   0.531   7.277  2.0350 -0.0714 -1.9394
  943MOL0     H27255   7.596   0.380   7.285  0.4132  0.7479  1.7875
  943MOL0     H27256   7.720   0.163   7.128  1.0640 -1.7526 -4.9628
  943MOL0     H27257   8.049   0.084   7.109 -0.0681 -0.9299 -1.1425
  943MOL0     H27258   7.902   0.053   7.032 -0.9968  1.1520  0.8035
  943MOL0     H27259   7.988   0.235   6.849  0.7614  1.1770  0.9037
  943MOL0     H27260   8.135   0.220   6.943  0.9319 -3.3563  1.0368
  943MOL0     H27261   8.022  -0.024   6.824  0.5822 -0.0373  0.9770
  943MOL0     H27262   8.192   0.021   6.876  0.9307  0.4457 -2.2339
  943MOL0     H27263   8.199   0.183   6.698  2.0962 -0.9480  2.5309
  943MOL0     H27264   8.050   0.103   6.635 -0.9465 -2.0039  2.1709
  943MOL0     H27265   8.228   0.196   6.445 -0.6090 -1.2669  2.5570
  943MOL0     H27266   8.344   0.206   6.227 -1.9399  1.8859  1.1517
  943MOL0     H27267   8.429   0.051   5.784 -0.0307 -1.4351 -0.7993
  943MOL0     H27268   8.594  -0.028   5.633 -1.9740  0.9036  0.3302
  943MOL0     H27269   8.803  -0.145   5.565  1.0741 -0.5455  0.8066
  943MOL0     H27270   8.749  -0.013   5.454  0.6974 -1.2278 -1.0693
  943MOL0     H27271   9.024  -0.097   5.502 -0.5864 -0.7961 -0.4218
  943MOL0     H27272   8.932  -0.145   5.354 -2.7733 -1.5372  1.4546
  943MOL0     H27273   8.894   0.123   5.349  0.2536  0.3503  2.1012
  943MOL0     H27274   9.043   0.125   5.438  0.1646  0.8272  0.3134
  943MOL0     H27275   8.993  -0.030   5.172 -1.6674  1.4093 -0.0027
  943MOL0     H27276   9.145  -0.031   5.256 -1.1411 -2.3539 -0.6300
  943MOL0     H27277   9.131   0.222   5.236 -2.7115  2.6466  0.3283
  943MOL0     H27278   8.989   0.211   5.123  0.3197  1.4349  0.8431
  943MOL0     H27279   9.135   0.081   4.972  1.6179  1.0229 -1.4755
  943MOL0     H27280   9.152   0.251   4.982 -3.1757 -0.3718 -0.3296
  943MOL0     H27281   9.315   0.059   5.159 -1.9295 -0.2824 -0.0531
  943MOL0     H27282   9.337   0.229   5.148 -2.5930 -0.1853  0.6738
  943MOL0     H27283   9.380   0.187   4.889  2.0768  0.4538 -0.3894
  943MOL0     H27284   9.509   0.176   5.009  0.8457 -0.0251 -0.1117
  943MOL0     H27285   8.908   0.156   5.854  0.6935 -2.1732 -0.3956
  943MOL0     H27286   8.759   0.200   6.041  0.3108  0.3427 -0.5113
  943MOL0     H27287   8.449  -0.196   6.260  0.2243  1.3729 -3.6710
  943MOL0     H27288   8.351  -0.210   6.497 -0.0203  3.6588  4.7646
  943MOL0     H27289   6.685   0.449   7.448  0.8656  0.9589 -1.0053
  943MOL0     H27290   6.422   0.397   7.470 -2.9527  0.8345 -0.5249
  943MOL0     H27291   6.065   0.398   7.402 -0.4925  2.4037 -2.3761
  943MOL0     H27292   5.813   0.378   7.462 -1.5892 -2.7406  1.5338
  943MOL0     H27293   5.589   0.047   7.444 -0.3018  0.8639  0.0626
  943MOL0     H27294   5.521   0.071   7.278 -0.8477 -1.1768  1.1733
  943MOL0     H27295   5.364   0.260   7.390 -1.7343 -1.4204 -0.9821
  943MOL0     H27296   5.465   0.222   7.530  1.5957  0.3147 -1.0606
  943MOL0     H27297   5.374  -0.035   7.495 -4.1314 -0.9366  1.5433
  943MOL0     H27298   5.278   0.029   7.380  0.9830 -0.8917 -0.4344
  943MOL0     H27299   5.149   0.012   7.576 -3.1586  2.0131 -0.6135
  943MOL0     H27300   5.265   0.097   7.672  2.5567 -2.4124 -0.0471
  943MOL0     H27301   5.008   0.386   7.467  1.9080  1.9120 -1.5695
  943MOL0     H27302   5.778   0.031   7.219 -0.4459  2.1789 -3.5836
  943MOL0     H27303   5.960  -0.052   7.106  1.8940 -1.3127 -1.8254
  943MOL0     H27304   6.090   0.064   7.066  2.2368  1.0346  1.6884
  943MOL0     H27305   6.105  -0.037   7.213  0.0476  1.7151  0.7860
  944MOL0     O27306   5.384   8.770   0.602 -0.6761 -0.0211 -0.0182
  944MOL0     C27307   5.325   8.833   0.513 -0.7148 -0.4127  0.8093
  944MOL0     O27308   5.354   8.824   0.381 -0.1106 -0.1346  0.6699
  944MOL0     C27309   5.448   8.730   0.351  0.3262  0.6134  0.1372
  944MOL0     C27310   5.428   8.591   0.389 -0.1452  0.1045  0.8532
  944MOL0     C27311   5.507   8.484   0.341  0.5698 -0.1537 -0.3605
  944MOL0     C27312   5.614   8.514   0.255 -0.2385  1.2699  0.2801
  944MOL0     O27313   5.695   8.408   0.216 -0.1449  0.3659 -0.4160
  944MOL0     C27314   5.756   8.416   0.090  0.7281 -0.7003 -0.0771
  944MOL0     C27315   5.852   8.305   0.050  0.5057 -0.2416  0.0202
  944MOL0     C27316   5.993   8.325   0.088 -0.0580 -0.2535 -0.3307
  944MOL0     C27317   6.014   8.282   0.236  1.1388 -0.6700  0.4523
  944MOL0     C27318   6.166   8.298   0.275 -0.0743  0.1599 -0.6531
  944MOL0     C27319   6.236   8.434   0.254 -0.4233 -1.0773  0.3959
  944MOL0     C27320   6.390   8.407   0.275 -0.2149  0.1421 -0.4179
  944MOL0     C27321   6.459   8.331   0.161  0.2621  0.5690 -0.1482
  944MOL0     N27322   6.433   8.401   0.034  1.3072  0.0894 -0.4323
  944MOL0     C27323   6.489   8.518  -0.011  0.4806 -0.0866 -1.1713
  944MOL0     C27324   6.410   8.547  -0.119 -1.2861 -0.1990  0.0216
  944MOL0     C27325   6.398   8.671  -0.202  0.5179 -0.1876 -0.6390
  944MOL0     C27326   6.523   8.705  -0.289  0.0771  0.3581 -0.1292
  944MOL0     C27327   6.555   8.594  -0.386  0.0755  0.6086 -0.2846
  944MOL0     C27328   6.667   8.628  -0.484 -0.4625  0.1095  0.3363
  944MOL0     O27329   6.781   8.680  -0.400 -0.5115 -0.3054  0.3846
  944MOL0     C27330   6.902   8.715  -0.470 -0.2020 -0.4160  0.4427
  944MOL0     C27331   6.925   8.700  -0.612  0.1162  0.0502  0.2117
  944MOL0     C27332   7.043   8.738  -0.679  0.7505 -0.5799 -0.2460
  944MOL0     C27333   7.152   8.774  -0.595 -0.4887 -0.4863  0.7029
  944MOL0     C27334   7.283   8.801  -0.643 -0.3593  0.9768  0.6470
  944MOL0     O27335   7.370   8.876  -0.584 -0.9023  0.7446  0.5542
  944MOL0     C27336   7.483   8.898  -0.663 -0.0721 -0.2634 -0.0192
  944MOL0     C27337   7.611   8.895  -0.609  0.0006 -0.7183 -0.4888
  944MOL0     C27338   7.728   8.926  -0.675 -0.2826 -0.5253 -0.3984
  944MOL0     C27339   7.714   8.979  -0.804  0.3702  0.4189  0.4874
  944MOL0     O27340   7.830   8.998  -0.865 -0.1635  0.6232  0.9219
  944MOL0     C27341   7.833   8.953  -0.996  0.1733 -0.1700 -0.3435
  944MOL0     C27342   7.964   8.881  -1.035 -0.2283 -1.0394 -0.1415
  944MOL0     C27343   8.036   8.810  -0.911 -0.1834 -0.5055 -0.9203
  944MOL0     C27344   8.135   8.887  -0.823  0.1195 -0.6248 -0.8695
  944MOL0     C27345   8.284   8.864  -0.865  0.4853  0.6787  0.0199
  944MOL0     C27346   8.388   8.938  -0.784  0.5495  0.4884  1.0514
  944MOL0     C27347   8.517   8.973  -0.871  0.1099  0.4083  0.0982
  944MOL0     C27348   8.628   9.040  -0.785  0.5664 -0.5416 -0.9226
  944MOL0    Cl27349   8.742   9.115  -0.902 -0.3297  0.0567  0.3151
  944MOL0     C27350   7.587   9.005  -0.856 -0.2227  0.1213 -0.7432
  944MOL0     C27351   7.472   8.968  -0.782 -0.4098  0.6180  0.5042
  944MOL0     O27352   7.298   8.741  -0.747 -0.7084  0.1030  0.4334
  944MOL0     C27353   7.132   8.785  -0.451  0.0086 -0.0540  0.3129
  944MOL0     C27354   7.006   8.755  -0.395  0.0556 -0.1886 -1.2948
  944MOL0     N27355   6.336   8.435  -0.155 -0.2433  1.0372 -0.0589
  944MOL0     N27356   6.343   8.354  -0.057  0.6797 -0.4044  0.3384
  944MOL0     C27357   5.640   8.647   0.225  0.9099 -0.8142  0.7976
  944MOL0     C27358   5.559   8.756   0.267  0.1896 -0.4326  0.1268
  944MOL0     C27359   5.229   8.934   0.563 -0.6969 -0.6788 -0.6387
  944MOL0     C27360   5.097   8.928   0.520 -0.3570  0.1594 -0.9133
  944MOL0     C27361   5.012   9.025   0.558 -0.6996  0.1991  0.4075
  944MOL0     C27362   5.056   9.138   0.633  0.2200 -0.0418  0.4991
  944MOL0     O27363   4.987   9.256   0.667 -0.1408 -0.0201 -0.4009
  944MOL0     C27364   4.845   9.243   0.644  0.0093 -0.5545 -0.4040
  944MOL0     C27365   4.770   9.339   0.735 -0.1707  0.3006 -0.4762
  944MOL0     C27366   4.794   9.484   0.693  0.2149 -1.0052  0.0824
  944MOL0     C27367   4.735   9.521   0.562  0.0483  0.2080 -1.3574
  944MOL0     C27368   4.596   9.558   0.572  0.5870  0.9098 -0.2571
  944MOL0     C27369   4.475   9.590   0.561 -0.7185 -0.0560  0.1229
  944MOL0     C27370   5.186   9.141   0.679  0.3591 -0.1147  0.4301
  944MOL0     C27371   5.272   9.039   0.641 -0.1801 -0.0477 -0.5750
  944MOL0     C27372   5.407   9.069   0.695  0.2176  0.3164 -0.3184
  944MOL0     H27373   5.340   8.560   0.446 -2.2433  0.0707 -2.1930
  944MOL0     H27374   5.479   8.387   0.381  0.6872 -0.2205 -0.4396
  944MOL0     H27375   5.679   8.423   0.013  0.7318  1.9832  0.0470
  944MOL0     H27376   5.817   8.505   0.069 -3.3558  2.0219 -1.5199
  944MOL0     H27377   5.853   8.314  -0.059  0.5258  1.7794  0.1476
  944MOL0     H27378   5.814   8.206   0.078 -3.2803  1.4049  1.2951
  944MOL0     H27379   6.010   8.432   0.078 -0.5304  0.2802  3.1829
  944MOL0     H27380   6.046   8.271   0.009 -1.9888  0.1829 -2.0074
  944MOL0     H27381   5.955   8.344   0.304  0.8941  0.4893 -0.7712
  944MOL0     H27382   5.966   8.184   0.244 -0.5057 -0.1443 -2.0047
  944MOL0     H27383   6.154   8.270   0.380 -1.7383 -2.9578 -1.5476
  944MOL0     H27384   6.213   8.221   0.213  0.7627  1.5966 -1.8908
  944MOL0     H27385   6.222   8.478   0.155  2.2005  0.4404  0.6230
  944MOL0     H27386   6.205   8.510   0.327  3.5163  2.3249 -1.0865
  944MOL0     H27387   6.419   8.350   0.363  2.0957 -2.1091 -2.4620
  944MOL0     H27388   6.431   8.508   0.282 -0.6951  0.3041  0.1344
  944MOL0     H27389   6.568   8.322   0.172  0.0906 -1.2616  0.3778
  944MOL0     H27390   6.409   8.235   0.146 -0.4243  1.1212 -1.6270
  944MOL0     H27391   6.569   8.583   0.021  2.0923 -2.1322 -0.7875
  944MOL0     H27392   6.312   8.654  -0.267 -1.0294 -0.9564  1.5100
  944MOL0     H27393   6.377   8.753  -0.133  1.5692 -0.9597  0.6626
  944MOL0     H27394   6.507   8.803  -0.335 -0.8778  0.7742  1.0495
  944MOL0     H27395   6.607   8.717  -0.221 -0.6978  0.9855  0.7386
  944MOL0     H27396   6.462   8.569  -0.438  0.2498  0.5321 -0.5639
  944MOL0     H27397   6.586   8.504  -0.332 -0.8809  1.2755  1.4731
  944MOL0     H27398   6.619   8.693  -0.558 -0.2074 -0.5166 -0.3886
  944MOL0     H27399   6.697   8.536  -0.534  1.5937  1.2176 -0.5873
  944MOL0     H27400   6.847   8.666  -0.678 -0.4846 -2.7866  2.2244
  944MOL0     H27401   7.039   8.736  -0.787 -1.3436  1.3555 -0.2675
  944MOL0     H27402   7.621   8.861  -0.507  0.2156  1.0189  0.0981
  944MOL0     H27403   7.821   8.919  -0.620 -0.8227  1.0031  0.7781
  944MOL0     H27404   7.742   8.900  -1.024 -0.3470  1.1832 -1.3309
  944MOL0     H27405   7.826   9.046  -1.053  1.0728  1.8682  2.6580
  944MOL0     H27406   7.952   8.807  -1.115  2.2073 -0.1527 -1.4170
  944MOL0     H27407   8.037   8.955  -1.070  1.4179 -3.1418 -1.3370
  944MOL0     H27408   7.949   8.783  -0.849 -0.2421 -0.4985 -0.9985
  944MOL0     H27409   8.083   8.715  -0.937  1.7428 -0.8970  3.2557
  944MOL0     H27410   8.124   8.854  -0.720  1.0418 -0.7107 -0.7871
  944MOL0     H27411   8.112   8.993  -0.821 -2.4857 -1.1242  1.3526
  944MOL0     H27412   8.299   8.901  -0.967  0.7314  1.7508  0.4237
  944MOL0     H27413   8.315   8.759  -0.865 -0.5115  0.3748 -0.2531
  944MOL0     H27414   8.343   9.033  -0.754  0.4036  1.1764 -1.1354
  944MOL0     H27415   8.403   8.879  -0.693  0.1824 -3.0181 -0.9790
  944MOL0     H27416   8.489   9.044  -0.950 -0.9919 -0.5706 -0.4365
  944MOL0     H27417   8.562   8.889  -0.926  1.6090 -0.4708  2.5281
  944MOL0     H27418   8.588   9.120  -0.722  1.0263  2.1848 -3.8216
  944MOL0     H27419   8.681   8.978  -0.712 -0.4967  3.7324  4.0679
  944MOL0     H27420   7.573   9.061  -0.948  1.4633  1.5465 -0.1725
  944MOL0     H27421   7.376   9.003  -0.819 -0.8972 -0.9368  0.2315
  944MOL0     H27422   7.211   8.824  -0.389  0.0697 -3.0545  2.3034
  944MOL0     H27423   6.999   8.763  -0.287  0.6394  0.7256 -1.3132
  944MOL0     H27424   5.722   8.674   0.159  1.5330 -2.6290  0.7787
  944MOL0     H27425   5.571   8.857   0.228 -1.5960 -0.6631 -1.1296
  944MOL0     H27426   5.066   8.844   0.459  0.7272  0.1858 -1.5332
  944MOL0     H27427   4.921   9.033   0.500 -0.6074 -1.7743 -0.0694
  944MOL0     H27428   4.818   9.140   0.670 -0.0891 -0.1281  1.3625
  944MOL0     H27429   4.838   9.259   0.536 -0.8978  1.0797 -0.1436
  944MOL0     H27430   4.795   9.320   0.840  0.3606 -0.6763 -0.7650
  944MOL0     H27431   4.663   9.323   0.718 -0.8006  2.9088  0.5481
  944MOL0     H27432   4.902   9.499   0.680 -0.0651  0.6304 -0.4557
  944MOL0     H27433   4.754   9.553   0.768  0.1504 -0.4057 -0.5039
  944MOL0     H27434   4.776   9.616   0.526 -0.5795  1.1821  0.3942
  944MOL0     H27435   4.757   9.446   0.485  1.8994 -1.0492  0.2760
  944MOL0     H27436   4.372   9.614   0.539 -1.5708 -1.2239  2.5139
  944MOL0     H27437   5.222   9.235   0.718  2.5932 -0.0126 -1.6467
  944MOL0     H27438   5.398   9.067   0.804 -0.7514 -0.3446 -0.4035
  944MOL0     H27439   5.486   8.994   0.680  1.0950  1.0755  0.3226
  944MOL0     H27440   5.431   9.171   0.664 -1.3295  0.6032 -0.6467
  945MOL0     O27441   9.317   7.740   9.407 -0.1880 -0.1567  0.4080
  945MOL0     C27442   9.245   7.769   9.499  0.1724  0.3231 -0.5422
  945MOL0     O27443   9.260   7.721   9.633 -0.5187  0.0505 -0.1810
  945MOL0     C27444   9.380   7.657   9.660 -0.6943  0.6005 -0.4227
  945MOL0     C27445   9.468   7.702   9.753  0.2216 -0.6666  0.6375
  945MOL0     C27446   9.596   7.661   9.778 -0.1644  0.3575  1.0436
  945MOL0     C27447   9.638   7.545   9.703 -0.2574 -0.1948  0.1523
  945MOL0     O27448   9.766   7.492   9.718 -0.1274  0.6466  0.1785
  945MOL0     C27449   9.863   7.577   9.788 -0.6846  0.6187 -0.0237
  945MOL0     C27450   9.982   7.479   9.821  0.5749 -0.8691  0.9700
  945MOL0     C27451  10.097   7.564   9.857 -0.3982  0.5015 -0.1701
  945MOL0     C27452  10.183   7.492   9.966 -1.2262  0.1158  0.2809
  945MOL0     C27453  10.337   7.511   9.944 -0.6232 -0.1423  0.7226
  945MOL0     C27454  10.392   7.658   9.926  0.3763  0.0685  0.0434
  945MOL0     C27455  10.415   7.702   9.783 -0.4510  0.2076  0.5276
  945MOL0     C27456  10.474   7.834   9.786  0.1870  0.5569 -0.5216
  945MOL0     N27457  10.614   7.840   9.846  0.1462  0.2864  0.0184
  945MOL0     C27458  10.739   7.829   9.792 -0.5451  0.1971  0.3366
  945MOL0     C27459  10.819   7.859   9.893 -0.2961  0.1863 -0.5871
  945MOL0     C27460  10.971   7.851   9.879  0.5700  0.3672 -0.5019
  945MOL0     C27461  11.025   7.703   9.852 -0.2031  0.0790  0.2472
  945MOL0     C27462  11.180   7.709   9.837  0.2565  0.0412 -0.8090
  945MOL0     C27463  11.233   7.573   9.789 -0.3166 -0.3283 -0.4793
  945MOL0     O27464  11.367   7.604   9.771 -0.8398 -0.4863  0.7884
  945MOL0     C27465  11.444   7.615   9.884 -0.0534  0.1615 -1.1697
  945MOL0     C27466  11.415   7.584  10.019  0.1433  0.8116 -0.1108
  945MOL0     C27467  11.508   7.602  10.118  0.2467 -0.7178 -0.2261
  945MOL0     C27468  11.635   7.652  10.083 -0.1582  0.7740 -0.4650
  945MOL0     C27469  11.742   7.666  10.195  0.0868 -0.1311  0.3505
  945MOL0     O27470  11.862   7.722  10.159 -0.1391 -0.0701  0.0737
  945MOL0     C27471  11.975   7.697  10.221 -0.3061  0.3704 -0.9407
  945MOL0     C27472  12.000   7.568  10.277 -0.5547  0.2352 -0.1654
  945MOL0     C27473  12.137   7.529  10.301  0.8707 -1.0626 -0.1961
  945MOL0     C27474  12.236   7.619  10.281 -0.2644 -0.0452  1.5216
  945MOL0     O27475  12.375   7.596  10.295  0.5572 -0.4397 -0.4213
  945MOL0     C27476  12.415   7.475  10.360  0.2869 -0.5229  0.6451
  945MOL0     C27477  12.567   7.488  10.383 -0.1058  0.6873  0.3645
  945MOL0     C27478  12.590   7.585  10.486  0.2707 -0.6052  0.0485
  945MOL0     C27479  12.736   7.618  10.490  0.0600 -0.5787  0.5854
  945MOL0     C27480  12.779   7.721  10.600 -0.1087 -0.4411  1.1673
  945MOL0     C27481  12.925   7.755  10.594 -0.2637 -0.6460 -0.5614
  945MOL0     C27482  12.955   7.892  10.663  0.0091 -0.1269  0.3063
  945MOL0     C27483  13.105   7.929  10.672  0.1151  0.0454  0.2361
  945MOL0    Cl27484  13.136   8.096  10.721 -0.1717 -0.0819 -0.3357
  945MOL0     C27485  12.197   7.750  10.256 -0.7463  0.1642 -0.3399
  945MOL0     C27486  12.073   7.792  10.227 -0.6522  0.1872  0.0147
  945MOL0     O27487  11.713   7.610  10.301  0.2657  0.1109 -0.1473
  945MOL0     C27488  11.654   7.698   9.954 -0.0923 -0.1739 -0.5312
  945MOL0     C27489  11.562   7.678   9.850 -0.2626  0.3743 -0.8656
  945MOL0     N27490  10.756   7.886  10.006 -0.4023  0.7500 -0.5469
  945MOL0     N27491  10.630   7.882   9.974 -0.0700  0.6923 -0.0509
  945MOL0     C27492   9.553   7.497   9.604  0.4327 -0.4021 -0.3130
  945MOL0     C27493   9.424   7.546   9.591  0.0580 -1.6126 -0.5206
  945MOL0     C27494   9.117   7.853   9.469 -0.1931  0.4203 -0.1884
  945MOL0     C27495   9.071   7.935   9.576  1.1053  0.7936 -0.3939
  945MOL0     C27496   8.976   8.031   9.558 -0.4941 -0.4270 -0.6881
  945MOL0     C27497   8.916   8.042   9.435  0.0110 -0.1700  0.1964
  945MOL0     O27498   8.820   8.140   9.422  0.4056 -0.6941 -0.9282
  945MOL0     C27499   8.744   8.150   9.305  0.6714 -0.2765 -0.6191
  945MOL0     C27500   8.627   8.247   9.321 -0.1274  0.1682  0.4486
  945MOL0     C27501   8.538   8.221   9.446  0.2331 -0.0411 -1.3268
  945MOL0     C27502   8.396   8.285   9.434 -0.3442  0.6340 -0.4972
  945MOL0     C27503   8.394   8.424   9.390  0.0162  0.5191 -0.1372
  945MOL0     C27504   8.393   8.541   9.358  0.2682  0.0390  1.2369
  945MOL0     C27505   8.949   7.956   9.324  0.3546 -0.5145  0.5501
  945MOL0     C27506   9.056   7.868   9.333  0.5628 -0.1994 -0.5992
  945MOL0     C27507   9.090   7.786   9.206 -0.4277  0.4244 -0.0057
  945MOL0     H27508   9.439   7.794   9.803 -0.7968  0.1443 -1.3461
  945MOL0     H27509   9.653   7.735   9.833  1.9439 -0.0322 -0.4776
  945MOL0     H27510   9.893   7.649   9.712 -0.1920 -0.3422 -0.7680
  945MOL0     H27511   9.834   7.627   9.881  1.7164  0.8130  0.6870
  945MOL0     H27512  10.007   7.421   9.732 -1.3355 -0.1501 -0.0843
  945MOL0     H27513   9.954   7.397   9.888  0.2597  0.8548  3.0545
  945MOL0     H27514  10.048   7.651   9.901 -4.3554 -2.6323  2.4235
  945MOL0     H27515  10.161   7.582   9.771 -1.2345  0.4978 -0.8056
  945MOL0     H27516  10.159   7.528  10.066 -0.8874 -0.5322  0.5988
  945MOL0     H27517  10.158   7.386   9.960 -3.5291  0.6766 -1.3826
  945MOL0     H27518  10.399   7.474  10.026 -1.3992 -0.0573  1.3602
  945MOL0     H27519  10.357   7.450   9.855 -1.9139  0.9563 -0.3672
  945MOL0     H27520  10.338   7.736   9.980  1.4412  1.6597 -1.0920
  945MOL0     H27521  10.485   7.656   9.983  0.3135  0.8766  0.1906
  945MOL0     H27522  10.315   7.711   9.740 -0.5158 -1.1604  0.3504
  945MOL0     H27523  10.483   7.643   9.721 -1.8659  1.3884 -2.3363
  945MOL0     H27524  10.471   7.874   9.684 -2.4621  0.6613 -0.4681
  945MOL0     H27525  10.402   7.894   9.842 -0.2454 -1.4469  1.1767
  945MOL0     H27526  10.767   7.810   9.689 -0.8491 -1.2441  0.4938
  945MOL0     H27527  11.000   7.914   9.794 -0.6084  1.0962 -0.3869
  945MOL0     H27528  11.013   7.892   9.972 -0.6082 -1.0164  0.6782
  945MOL0     H27529  11.004   7.632   9.932 -1.1634  1.0032  0.8478
  945MOL0     H27530  10.969   7.678   9.762  0.1865 -0.2456  0.0928
  945MOL0     H27531  11.209   7.746   9.935 -1.5849  0.3122 -0.3224
  945MOL0     H27532  11.207   7.787   9.766 -0.9776  2.6900  1.4482
  945MOL0     H27533  11.200   7.535   9.692  1.5706  1.1413 -1.7609
  945MOL0     H27534  11.224   7.495   9.865  1.2983  0.7900  0.9387
  945MOL0     H27535  11.319   7.542  10.046 -0.1256  2.5023  1.8515
  945MOL0     H27536  11.477   7.581  10.219 -0.3698  0.3832 -0.1702
  945MOL0     H27537  11.927   7.488  10.287  0.6758 -0.6607  2.3825
  945MOL0     H27538  12.163   7.424  10.313  2.3639 -0.7122 -0.1690
  945MOL0     H27539  12.361   7.459  10.454  0.9462  1.8243  1.4828
  945MOL0     H27540  12.395   7.395  10.288  0.7217  0.7220 -0.9094
  945MOL0     H27541  12.600   7.391  10.423 -0.9034 -0.6585 -2.0700
  945MOL0     H27542  12.618   7.520  10.292 -4.2805  0.7956 -2.1604
  945MOL0     H27543  12.528   7.673  10.468  0.1239 -1.2113 -2.8195
  945MOL0     H27544  12.554   7.541  10.580  0.1788  0.7141  0.6527
  945MOL0     H27545  12.771   7.643  10.389  2.9162  0.3890  1.7234
  945MOL0     H27546  12.789   7.524  10.511  0.6309  0.1699  2.7526
  945MOL0     H27547  12.744   7.683  10.697 -0.4680 -2.4082  0.3163
  945MOL0     H27548  12.709   7.803  10.583 -0.3639 -0.5446  1.6855
  945MOL0     H27549  12.985   7.671  10.631 -1.1193 -1.7694 -1.6463
  945MOL0     H27550  12.961   7.767  10.492 -0.7643  0.7690 -0.5855
  945MOL0     H27551  12.904   7.883  10.760 -0.7420 -3.2493 -0.2608
  945MOL0     H27552  12.914   7.979  10.611  0.1714  1.5947  2.8831
  945MOL0     H27553  13.160   7.863  10.740 -0.9720 -0.2839  0.8092
  945MOL0     H27554  13.152   7.916  10.573 -0.7579  1.2224 -0.3596
  945MOL0     H27555  12.274   7.826  10.256  0.7903 -1.2448  2.4729
  945MOL0     H27556  12.052   7.896  10.208 -2.3305 -0.1399 -0.1426
  945MOL0     H27557  11.750   7.739   9.925 -0.3271 -1.7061 -3.8377
  945MOL0     H27558  11.570   7.707   9.746 -1.9462 -1.0592 -1.4522
  945MOL0     H27559   9.585   7.417   9.538 -0.8042  2.3159 -4.6804
  945MOL0     H27560   9.363   7.511   9.508 -3.9500  0.1596  1.3802
  945MOL0     H27561   9.126   7.929   9.669 -0.9800 -2.8826  0.7866
  945MOL0     H27562   8.951   8.101   9.637  0.0445 -0.9619 -0.0385
  945MOL0     H27563   8.706   8.051   9.277  0.5776  0.0079 -1.5129
  945MOL0     H27564   8.809   8.180   9.223  0.9683 -0.3535 -0.4170
  945MOL0     H27565   8.570   8.227   9.230  2.8413 -3.5953 -0.8801
  945MOL0     H27566   8.658   8.351   9.310  1.4184 -0.2842  0.3694
  945MOL0     H27567   8.593   8.251   9.536  1.0417 -2.7971 -0.8046
  945MOL0     H27568   8.527   8.113   9.455  0.1186  0.1126  0.7111
  945MOL0     H27569   8.349   8.223   9.357  1.1559 -1.5721  0.2580
  945MOL0     H27570   8.350   8.275   9.533  0.3355  0.6155 -0.1791
  945MOL0     H27571   8.411   8.639   9.318 -0.2879 -1.2066 -2.4936
  945MOL0     H27572   8.896   7.955   9.229 -0.7627  0.4329  1.1372
  945MOL0     H27573   9.138   7.858   9.140 -0.6256  1.1321  0.6065
  945MOL0     H27574   9.157   7.704   9.234 -2.1082 -1.0657 -0.1463
  945MOL0     H27575   9.000   7.740   9.163  0.5773 -2.3807  0.6291
  946MOL0     O27576   3.690  10.509   7.103 -0.2938 -0.3188 -0.5568
  946MOL0     C27577   3.729  10.540   6.999 -0.9015  0.0103  0.6589
  946MOL0     O27578   3.709  10.666   6.938 -0.1321  0.1859  0.2150
  946MOL0     C27579   3.643  10.764   7.027 -0.3062 -0.1359 -0.3601
  946MOL0     C27580   3.714  10.874   7.072 -0.0162 -1.2099 -1.1478
  946MOL0     C27581   3.655  10.978   7.154 -0.4343  0.5166 -0.4281
  946MOL0     C27582   3.521  10.954   7.198 -0.1958 -1.2367 -0.3171
  946MOL0     O27583   3.458  11.039   7.295 -0.2360 -0.3067 -0.2443
  946MOL0     C27584   3.517  11.164   7.320 -0.1494 -0.5206 -0.5537
  946MOL0     C27585   3.601  11.169   7.452 -0.0807 -0.5713 -0.5148
  946MOL0     C27586   3.652  11.302   7.499  0.3440 -0.8596  0.6581
  946MOL0     C27587   3.717  11.387   7.385 -0.3546  0.8197 -0.7151
  946MOL0     C27588   3.865  11.327   7.353  0.5478 -0.0390  0.8474
  946MOL0     C27589   3.934  11.411   7.251  0.9422  0.2244  0.0142
  946MOL0     C27590   4.074  11.369   7.233  0.0827 -1.4224  0.0511
  946MOL0     C27591   4.134  11.475   7.142 -1.3172  0.5456 -0.4492
  946MOL0     N27592   4.270  11.423   7.104  0.7903 -0.4029 -0.2864
  946MOL0     C27593   4.344  11.463   6.998 -0.3569  0.5235 -0.2034
  946MOL0     C27594   4.467  11.404   7.020  0.0686  0.1473  0.3620
  946MOL0     C27595   4.607  11.400   6.936  0.4206 -0.1542 -0.1565
  946MOL0     C27596   4.641  11.498   6.822  0.0138  0.0062  0.5030
  946MOL0     C27597   4.771  11.451   6.747 -0.2432 -0.2881  0.1780
  946MOL0     C27598   4.800  11.518   6.614 -0.1894  0.2695 -0.3355
  946MOL0     O27599   4.916  11.457   6.548  0.2473 -0.2837 -0.0199
  946MOL0     C27600   5.037  11.519   6.557 -0.2865 -0.1386 -0.5367
  946MOL0     C27601   5.129  11.491   6.454  1.1160 -0.0911 -0.4861
  946MOL0     C27602   5.244  11.562   6.438 -0.0051 -0.5438 -0.5853
  946MOL0     C27603   5.283  11.669   6.529 -0.8428 -0.8648 -0.3894
  946MOL0     C27604   5.422  11.737   6.505 -0.0991  0.0131  0.2551
  946MOL0     O27605   5.509  11.700   6.410 -0.0196  0.1229 -0.4397
  946MOL0     C27606   5.644  11.731   6.410  0.1258 -0.0960  0.0645
  946MOL0     C27607   5.699  11.833   6.478  0.1962 -1.5672  0.0140
  946MOL0     C27608   5.828  11.875   6.452 -0.3733 -0.1187 -0.5383
  946MOL0     C27609   5.910  11.793   6.372  0.7647 -0.0065 -0.9888
  946MOL0     O27610   6.045  11.823   6.374  0.3474  0.0528 -0.1861
  946MOL0     C27611   6.117  11.795   6.257 -0.2724 -0.6055 -0.3032
  946MOL0     C27612   6.256  11.834   6.286  0.2513  0.1491 -0.5536
  946MOL0     C27613   6.353  11.789   6.169  0.3255  0.3008 -0.9655
  946MOL0     C27614   6.491  11.859   6.188  0.2017  0.3109 -0.8434
  946MOL0     C27615   6.570  11.836   6.059  0.6250  1.2046 -1.1488
  946MOL0     C27616   6.715  11.890   6.075 -0.5042  0.1876 -0.5638
  946MOL0     C27617   6.807  11.815   6.176  0.1829  0.2090 -1.2450
  946MOL0     C27618   6.826  11.667   6.164 -0.1106 -0.0137  0.0950
  946MOL0    Cl27619   6.953  11.620   6.271  0.2598 -0.1301 -0.3366
  946MOL0     C27620   5.864  11.681   6.315  1.2376 -0.8414 -0.5196
  946MOL0     C27621   5.727  11.652   6.327  0.2981 -0.4922 -0.7718
  946MOL0     O27622   5.441  11.833   6.584 -0.0595 -0.2373 -0.0363
  946MOL0     C27623   5.192  11.700   6.635  0.5321  0.2504 -0.2097
  946MOL0     C27624   5.070  11.626   6.648  0.8651 -0.3214  0.1746
  946MOL0     N27625   4.453  11.327   7.136 -0.1992  0.1079 -0.6256
  946MOL0     N27626   4.344  11.355   7.191  0.0125 -0.5229  1.1268
  946MOL0     C27627   3.453  10.843   7.148  0.1298  0.0569 -1.2944
  946MOL0     C27628   3.510  10.749   7.065  0.6573 -1.1102  0.3336
  946MOL0     C27629   3.826  10.462   6.918 -0.0047  1.2164  0.5258
  946MOL0     C27630   3.923  10.517   6.837  0.0727  0.0937  0.1056
  946MOL0     C27631   4.003  10.450   6.744  0.8206  0.3380 -0.4729
  946MOL0     C27632   3.982  10.311   6.740  0.2354  0.1439 -0.1470
  946MOL0     O27633   4.072  10.258   6.660 -0.6877 -0.0129  0.5087
  946MOL0     C27634   4.103  10.121   6.654  0.3187  0.3485  0.1691
  946MOL0     C27635   4.202  10.084   6.766 -0.0576 -0.6950  0.5820
  946MOL0     C27636   4.241   9.932   6.755 -0.7319 -0.0876  0.6231
  946MOL0     C27637   4.356   9.894   6.861 -0.2701  0.1120  1.1130
  946MOL0     C27638   4.490   9.966   6.835  0.7313 -0.2307  0.0875
  946MOL0     C27639   4.591  10.019   6.804 -0.3027 -0.2154  0.7022
  946MOL0     C27640   3.880  10.245   6.803  0.0092  0.8873  0.1660
  946MOL0     C27641   3.805  10.318   6.898 -0.7026  0.2525 -0.3057
  946MOL0     C27642   3.716  10.232   6.982  0.1364  0.2059  0.1119
  946MOL0     H27643   3.814  10.891   7.034  0.1940 -3.4482 -1.7002
  946MOL0     H27644   3.714  11.069   7.160  2.3466 -1.1716 -0.6265
  946MOL0     H27645   3.566  11.197   7.228 -0.2826  0.7944 -0.1716
  946MOL0     H27646   3.443  11.241   7.341  2.6372  1.7392  1.8356
  946MOL0     H27647   3.685  11.098   7.448 -0.7046 -1.7543  3.2632
  946MOL0     H27648   3.537  11.131   7.532 -1.2042  1.2954 -0.4793
  946MOL0     H27649   3.727  11.289   7.577  0.2575 -0.1086  0.8785
  946MOL0     H27650   3.567  11.352   7.546  2.1965  2.8735  0.4263
  946MOL0     H27651   3.654  11.386   7.295 -0.4844  1.4379 -0.6348
  946MOL0     H27652   3.727  11.492   7.414 -0.9813  0.5142  0.6733
  946MOL0     H27653   3.932  11.340   7.439 -0.1928  1.8694  1.1747
  946MOL0     H27654   3.850  11.224   7.319 -3.6682  1.7962 -3.9539
  946MOL0     H27655   3.891  11.389   7.152  0.7653  1.5364 -0.2153
  946MOL0     H27656   3.917  11.516   7.276 -0.5759 -0.3441  1.6348
  946MOL0     H27657   4.078  11.269   7.189  1.2523 -1.8459  1.0583
  946MOL0     H27658   4.126  11.363   7.329 -0.1300  3.4695  0.7095
  946MOL0     H27659   4.066  11.490   7.057 -1.8763 -0.7567 -0.2576
  946MOL0     H27660   4.153  11.574   7.184  0.6317  0.8770 -1.9322
  946MOL0     H27661   4.312  11.519   6.911 -0.7835 -1.3851 -1.3299
  946MOL0     H27662   4.687  11.403   7.011 -1.2723  3.1043  1.7321
  946MOL0     H27663   4.613  11.301   6.889  0.8362  0.0659 -0.5680
  946MOL0     H27664   4.559  11.491   6.749  0.8457  0.0131 -0.4558
  946MOL0     H27665   4.641  11.600   6.861 -1.5992 -0.5196  1.9662
  946MOL0     H27666   4.766  11.345   6.720  1.1141 -0.0323 -1.2296
  946MOL0     H27667   4.855  11.469   6.814  1.3202 -6.2507  0.4222
  946MOL0     H27668   4.810  11.625   6.632  1.5988 -0.0438  0.8110
  946MOL0     H27669   4.718  11.498   6.544 -2.6255  1.2517  2.0540
  946MOL0     H27670   5.103  11.397   6.406  0.1611  0.3073 -0.7643
  946MOL0     H27671   5.311  11.529   6.359  2.3677  1.7855  0.3050
  946MOL0     H27672   5.648  11.906   6.541 -1.0172  1.1464 -3.7763
  946MOL0     H27673   5.866  11.962   6.505  0.0138 -0.1639 -0.7408
  946MOL0     H27674   6.104  11.688   6.238 -0.4066 -0.7222  0.4131
  946MOL0     H27675   6.089  11.862   6.176  0.2796  2.5464  1.9150
  946MOL0     H27676   6.247  11.939   6.314 -1.3755 -0.7246  2.5939
  946MOL0     H27677   6.298  11.782   6.372  0.7415 -0.0333 -0.8942
  946MOL0     H27678   6.367  11.681   6.181 -1.1554 -0.0073 -1.7258
  946MOL0     H27679   6.307  11.806   6.071 -2.3901  0.4127  0.2355
  946MOL0     H27680   6.533  11.828   6.284 -3.6745  0.9889  1.2615
  946MOL0     H27681   6.467  11.964   6.203 -1.7865 -0.1238 -0.7852
  946MOL0     H27682   6.509  11.890   5.986  0.7630  1.3398 -1.1647
  946MOL0     H27683   6.559  11.732   6.026 -0.2122  1.2026 -0.8884
  946MOL0     H27684   6.764  11.876   5.978 -0.1842 -1.8705 -0.1498
  946MOL0     H27685   6.720  11.997   6.097  1.8575  0.5771 -2.5050
  946MOL0     H27686   6.759  11.830   6.273  0.8161 -1.9299 -0.5516
  946MOL0     H27687   6.900  11.873   6.186  0.5025 -0.6211  1.1899
  946MOL0     H27688   6.734  11.616   6.193 -0.1971 -1.9631 -3.1249
  946MOL0     H27689   6.844  11.651   6.057 -1.1621 -1.1007  0.0594
  946MOL0     H27690   5.921  11.620   6.246 -0.1095  0.1949 -2.6347
  946MOL0     H27691   5.683  11.569   6.272 -4.3408  0.7179  0.6431
  946MOL0     H27692   5.214  11.779   6.707  0.6228 -1.8771  2.2460
  946MOL0     H27693   5.008  11.657   6.732 -2.4735  4.0774 -3.4092
  946MOL0     H27694   3.355  10.828   7.191 -0.2633 -0.4118 -2.3152
  946MOL0     H27695   3.451  10.666   7.029 -0.3882 -1.7787  3.2910
  946MOL0     H27696   3.941  10.623   6.848 -2.6975  0.5582  1.0643
  946MOL0     H27697   4.071  10.499   6.676  0.7883 -0.6154 -1.2198
  946MOL0     H27698   4.149  10.101   6.557  1.4016 -1.9902  1.0823
  946MOL0     H27699   4.018  10.052   6.660  0.9850 -0.5030  0.0811
  946MOL0     H27700   4.157  10.096   6.865  0.6239 -0.9787  0.9282
  946MOL0     H27701   4.288  10.153   6.766 -0.2345 -0.4356 -0.7781
  946MOL0     H27702   4.269   9.907   6.653  1.2067  0.6713  0.9219
  946MOL0     H27703   4.156   9.872   6.787  2.4898 -3.7600  3.1845
  946MOL0     H27704   4.319   9.921   6.960  0.9365  1.3266  1.2595
  946MOL0     H27705   4.366   9.787   6.846 -0.0927  0.1117  1.2332
  946MOL0     H27706   4.685  10.069   6.792  0.3556 -1.5118  0.2752
  946MOL0     H27707   3.869  10.138   6.795 -0.5039  0.9234  0.3528
  946MOL0     H27708   3.610  10.258   6.976  0.7147  3.2227  0.9962
  946MOL0     H27709   3.718  10.128   6.948 -1.9036  0.1462  0.0769
  946MOL0     H27710   3.752  10.247   7.085  4.2188  0.1952 -1.1431
  947MOL0     O27711  10.779  10.696  11.323  0.0778  0.8361  0.0297
  947MOL0     C27712  10.680  10.766  11.327  0.2052 -0.4242 -0.2897
  947MOL0     O27713  10.671  10.902  11.334  0.4992  0.2639  0.2352
  947MOL0     C27714  10.789  10.972  11.357 -0.1225  0.7685  0.6226
  947MOL0     C27715  10.855  10.972  11.478  0.0354 -0.6675 -0.5202
  947MOL0     C27716  10.979  11.039  11.503  0.5086 -0.0085  1.0280
  947MOL0     C27717  11.039  11.103  11.394 -0.7991  0.5002  0.1023
  947MOL0     O27718  11.141  11.195  11.414  0.2412  0.4213  0.4195
  947MOL0     C27719  11.259  11.172  11.332  0.2752 -0.5862 -0.3979
  947MOL0     C27720  11.336  11.297  11.324 -0.2776  0.4700  0.3042
  947MOL0     C27721  11.263  11.416  11.250 -0.1885 -0.1197  0.7029
  947MOL0     C27722  11.356  11.536  11.230 -0.1295 -0.5502 -0.7765
  947MOL0     C27723  11.461  11.512  11.122  0.3233  0.2895  0.4704
  947MOL0     C27724  11.535  11.642  11.083 -0.5840 -0.8939 -0.2160
  947MOL0     C27725  11.624  11.694  11.188  0.2929 -0.2415  0.4100
  947MOL0     C27726  11.709  11.812  11.146 -0.3920  0.5197  1.3151
  947MOL0     N27727  11.778  11.866  11.260 -1.2445 -0.0809 -0.7956
  947MOL0     C27728  11.759  11.984  11.328  0.2032 -0.1726 -0.1734
  947MOL0     C27729  11.830  11.975  11.443 -0.3392 -0.2413  0.2022
  947MOL0     C27730  11.832  12.059  11.566 -0.0453  0.6888  0.1846
  947MOL0     C27731  11.838  12.219  11.544 -0.0876  0.4223  0.5368
  947MOL0     C27732  11.933  12.286  11.436  1.2376  0.1497 -0.0949
  947MOL0     C27733  12.055  12.327  11.514 -0.2280  0.6270  0.0827
  947MOL0     O27734  12.152  12.374  11.421 -0.0732 -0.7313 -0.5091
  947MOL0     C27735  12.261  12.441  11.475  0.3770 -1.1560 -1.1762
  947MOL0     C27736  12.276  12.459  11.615  0.1954 -0.6044 -0.9877
  947MOL0     C27737  12.380  12.536  11.666 -0.8815 -0.6800  1.1693
  947MOL0     C27738  12.467  12.589  11.574  0.1656  0.2240  0.2418
  947MOL0     C27739  12.586  12.662  11.627  0.2613 -0.9902 -0.2865
  947MOL0     O27740  12.631  12.634  11.754 -0.0543 -0.4940  0.5773
  947MOL0     C27741  12.711  12.722  11.818  0.0425 -0.8413  0.9933
  947MOL0     C27742  12.803  12.668  11.909  1.0716 -0.0485  0.3803
  947MOL0     C27743  12.882  12.757  11.978 -0.3963  0.7069  0.7564
  947MOL0     C27744  12.874  12.895  11.978 -0.6495  0.4326 -0.0112
  947MOL0     O27745  12.971  12.970  12.041 -0.7293 -0.6342 -0.4089
  947MOL0     C27746  13.077  12.899  12.118  0.1075 -0.3310 -1.8704
  947MOL0     C27747  13.190  12.992  12.166  0.2022  0.6687 -0.2211
  947MOL0     C27748  13.319  12.925  12.224  0.6110 -0.0911  0.5856
  947MOL0     C27749  13.432  13.024  12.230  1.1426 -0.9820 -0.7700
  947MOL0     C27750  13.540  13.008  12.126 -0.1093  0.2171 -0.2822
  947MOL0     C27751  13.641  13.122  12.116  0.1155 -1.3645  0.3569
  947MOL0     C27752  13.731  13.121  12.237 -0.6444 -0.5584  0.1929
  947MOL0     C27753  13.835  13.239  12.215  1.0648  0.6182 -0.1319
  947MOL0    Cl27754  13.930  13.271  12.364 -0.4604  0.7836  0.0110
  947MOL0     C27755  12.776  12.947  11.891 -0.8436  0.1260  0.8635
  947MOL0     C27756  12.701  12.866  11.810 -0.7482 -0.0056  0.2681
  947MOL0     O27757  12.628  12.756  11.554 -0.0790 -0.8820 -0.6172
  947MOL0     C27758  12.451  12.572  11.438 -0.1388  0.7681  0.7150
  947MOL0     C27759  12.349  12.507  11.383  0.1713 -0.6384  0.3088
  947MOL0     N27760  11.919  11.863  11.436 -0.6789 -0.4387  0.2749
  947MOL0     N27761  11.875  11.795  11.332 -1.0369 -0.5450 -0.3202
  947MOL0     C27762  10.977  11.092  11.268 -0.5726  0.8520 -0.4372
  947MOL0     C27763  10.862  11.027  11.248 -0.6342 -0.4677 -1.1386
  947MOL0     C27764  10.555  10.691  11.281  0.4951 -0.9274  0.0049
  947MOL0     C27765  10.504  10.708  11.153  0.5270  0.0372  0.1921
  947MOL0     C27766  10.395  10.631  11.106  0.1910  0.3987  0.0461
  947MOL0     C27767  10.345  10.531  11.190  0.7362  0.2367  1.0072
  947MOL0     O27768  10.245  10.443  11.153  0.4219 -0.2724 -0.0544
  947MOL0     C27769  10.112  10.498  11.135 -0.0947  0.3646 -0.7445
  947MOL0     C27770  10.044  10.455  11.006 -0.5582 -0.2526  0.7528
  947MOL0     C27771   9.977  10.318  11.020 -0.7843 -0.2272  0.7752
  947MOL0     C27772   9.892  10.281  10.893  0.0787  0.4553  0.8146
  947MOL0     C27773   9.963  10.228  10.779 -0.5960 -0.6079  0.4758
  947MOL0     C27774  10.029  10.188  10.684  0.9779 -0.1733 -0.2709
  947MOL0     C27775  10.397  10.515  11.325 -0.1929 -0.7546 -0.2890
  947MOL0     C27776  10.505  10.594  11.363  0.4367  0.2083 -0.7578
  947MOL0     C27777  10.558  10.576  11.503  0.4250  0.1144 -0.5313
  947MOL0     H27778  10.804  10.921  11.558 -2.1820  2.4748  0.2466
  947MOL0     H27779  11.010  11.048  11.607 -0.8699  1.5202  1.3471
  947MOL0     H27780  11.318  11.097  11.385  2.6452  1.7482  0.4720
  947MOL0     H27781  11.248  11.144  11.227  0.7503 -0.4496 -0.4845
  947MOL0     H27782  11.427  11.273  11.268 -1.7392 -1.2570 -1.4568
  947MOL0     H27783  11.359  11.335  11.425 -0.7355  1.6337 -0.0161
  947MOL0     H27784  11.184  11.456  11.314 -0.6583  0.8472 -0.4577
  947MOL0     H27785  11.228  11.380  11.153  0.9933  0.4676  0.0370
  947MOL0     H27786  11.305  11.627  11.199  3.7915  2.2696  0.2676
  947MOL0     H27787  11.398  11.572  11.324  2.4234  1.4090 -2.4958
  947MOL0     H27788  11.537  11.446  11.166 -2.3619 -1.5635  2.6286
  947MOL0     H27789  11.410  11.463  11.038  0.1208 -1.2210  1.4269
  947MOL0     H27790  11.591  11.622  10.991  1.4935  1.8416  0.3246
  947MOL0     H27791  11.463  11.721  11.060  1.4265  2.0263  2.6342
  947MOL0     H27792  11.691  11.617  11.228 -0.0459 -0.2487  0.9584
  947MOL0     H27793  11.558  11.720  11.271  0.9619 -0.5534  1.0508
  947MOL0     H27794  11.790  11.772  11.084  1.8041  0.3568  4.1109
  947MOL0     H27795  11.657  11.883  11.081  0.5699 -2.1939 -2.8963
  947MOL0     H27796  11.688  12.065  11.313 -0.0006  0.0901  1.8971
  947MOL0     H27797  11.744  12.035  11.625  1.0639 -0.6036  1.3934
  947MOL0     H27798  11.928  12.027  11.609 -0.6519 -2.3798 -0.5212
  947MOL0     H27799  11.740  12.259  11.518  0.4479  0.7842 -1.0091
  947MOL0     H27800  11.859  12.262  11.643 -3.3518  1.0569  1.0615
  947MOL0     H27801  11.888  12.373  11.387  2.6949  0.4549 -0.9739
  947MOL0     H27802  11.966  12.203  11.372  1.0357 -1.7006  2.0875
  947MOL0     H27803  12.098  12.248  11.576  0.0175 -0.1906 -1.0925
  947MOL0     H27804  12.029  12.400  11.590 -0.7692 -0.1400  0.6504
  947MOL0     H27805  12.213  12.420  11.694 -2.9225  3.0608 -1.3355
  947MOL0     H27806  12.394  12.551  11.772  0.6785  2.9986  0.5918
  947MOL0     H27807  12.809  12.561  11.924  0.8383  0.1602  2.0942
  947MOL0     H27808  12.966  12.708  12.027  0.9991  1.2268 -1.0079
  947MOL0     H27809  13.034  12.842  12.201 -0.1344  3.5411  0.9834
  947MOL0     H27810  13.129  12.826  12.057 -1.0654 -1.5869 -1.4204
  947MOL0     H27811  13.210  13.063  12.085 -4.2497  1.6390 -0.7648
  947MOL0     H27812  13.146  13.055  12.244  0.8653  1.8401 -0.7675
  947MOL0     H27813  13.295  12.892  12.325  3.1781 -2.6458  0.4856
  947MOL0     H27814  13.340  12.835  12.165 -1.9613  0.5063 -1.4460
  947MOL0     H27815  13.484  12.997  12.322 -0.6984 -2.7566 -0.1709
  947MOL0     H27816  13.400  13.129  12.233  2.0402 -0.6802 -1.5150
  947MOL0     H27817  13.490  13.007  12.029 -0.2298 -4.4706 -0.4418
  947MOL0     H27818  13.602  12.921  12.148  1.8762  1.8819  1.0495
  947MOL0     H27819  13.697  13.106  12.023 -0.7167 -0.6285 -0.2825
  947MOL0     H27820  13.603  13.223  12.101  0.4380 -1.5444 -2.1199
  947MOL0     H27821  13.790  13.030  12.253 -0.8561 -0.4560  1.6470
  947MOL0     H27822  13.666  13.134  12.325 -2.1139 -2.2518 -0.5707
  947MOL0     H27823  13.895  13.212  12.127  0.7226 -1.5015  0.2172
  947MOL0     H27824  13.772  13.325  12.190 -0.8568  0.5577  3.7994
  947MOL0     H27825  12.763  13.055  11.883  1.4037  0.4617  1.1691
  947MOL0     H27826  12.620  12.910  11.752 -0.9116  0.6453  0.9757
  947MOL0     H27827  12.517  12.624  11.370 -0.2133  2.7123  2.0559
  947MOL0     H27828  12.338  12.496  11.276  2.9733  1.3301 -0.3039
  947MOL0     H27829  11.026  11.141  11.184 -0.7635 -1.0709 -1.7356
  947MOL0     H27830  10.815  11.020  11.151  1.1634 -2.7199 -1.9021
  947MOL0     H27831  10.534  10.795  11.095  2.5269 -1.9259 -1.9006
  947MOL0     H27832  10.357  10.650  11.006  2.1347 -0.1583 -0.8601
  947MOL0     H27833  10.112  10.606  11.154 -0.7508  0.0860  1.0792
  947MOL0     H27834  10.059  10.458  11.222 -0.4809 -2.5195 -2.1937
  947MOL0     H27835  10.122  10.453  10.930  0.2793 -0.1174  1.6014
  947MOL0     H27836   9.967  10.532  10.990  1.2086  1.3970 -0.2343
  947MOL0     H27837   9.909  10.330  11.104  0.2229  3.3250  1.2310
  947MOL0     H27838  10.052  10.239  11.033  0.8311  0.8521 -1.2216
  947MOL0     H27839   9.820  10.202  10.920 -0.4710  0.0620 -1.5412
  947MOL0     H27840   9.833  10.369  10.866  2.0330  1.8950  1.0832
  947MOL0     H27841  10.093  10.148  10.608  1.1689  0.1189 -0.2651
  947MOL0     H27842  10.361  10.431  11.384 -1.9363 -0.1056 -0.3674
  947MOL0     H27843  10.515  10.660  11.558  0.5274 -1.1950  1.6313
  947MOL0     H27844  10.529  10.479  11.543  3.5418 -1.0163 -0.7622
  947MOL0     H27845  10.666  10.584  11.514  0.3388  0.9972 -0.2461
  948MOL0     O27846   6.335  11.053   0.942 -0.1495  0.0533  0.8900
  948MOL0     C27847   6.347  10.974   1.034 -0.4595  0.0305  0.8716
  948MOL0     O27848   6.240  10.925   1.098 -0.6023  0.2818  0.2233
  948MOL0     C27849   6.111  10.939   1.061  0.7022 -0.0437  0.1865
  948MOL0     C27850   6.015  10.930   1.161  0.2995 -0.5992 -1.3794
  948MOL0     C27851   5.878  10.932   1.132  0.4565  1.0001 -0.0409
  948MOL0     C27852   5.832  10.946   0.996 -0.4069 -0.6189 -0.0024
  948MOL0     O27853   5.697  10.946   0.981  0.3805 -0.0073 -0.0160
  948MOL0     C27854   5.640  10.901   0.853 -0.4597  0.6205 -0.8914
  948MOL0     C27855   5.541  10.784   0.872 -0.2140 -0.1371 -0.1106
  948MOL0     C27856   5.615  10.649   0.888 -0.4129  0.2514 -0.9229
  948MOL0     C27857   5.555  10.525   0.819  0.9055 -0.4859  0.0371
  948MOL0     C27858   5.650  10.406   0.811  0.5541  0.0653 -0.0406
  948MOL0     C27859   5.670  10.351   0.956  0.6652 -0.3523  0.4420
  948MOL0     C27860   5.791  10.252   0.980 -0.8054  0.1189  0.1146
  948MOL0     C27861   5.781  10.189   1.121  0.5572  0.4779 -0.8337
  948MOL0     N27862   5.912  10.125   1.146 -0.0503  0.3677 -0.7490
  948MOL0     C27863   6.023  10.201   1.188  0.2093 -0.2035 -0.5537
  948MOL0     C27864   6.101  10.102   1.219 -0.7059 -0.7947 -0.0037
  948MOL0     C27865   6.247  10.118   1.242  0.1135  0.3714 -0.7452
  948MOL0     C27866   6.308   9.997   1.316  1.0780  0.6246  0.4084
  948MOL0     C27867   6.457  10.035   1.351  0.4310  0.5452  0.2049
  948MOL0     C27868   6.550   9.918   1.387  0.0104  0.0610 -0.1731
  948MOL0     O27869   6.679   9.980   1.409  0.0533  0.8546 -0.8168
  948MOL0     C27870   6.787   9.894   1.410  0.0440 -0.1373  0.1113
  948MOL0     C27871   6.906   9.935   1.342  0.3181  0.4276  0.2040
  948MOL0     C27872   7.010   9.848   1.341  0.6357 -0.5096  0.4814
  948MOL0     C27873   7.014   9.725   1.406  0.1819  0.4447 -0.8090
  948MOL0     C27874   7.137   9.632   1.398  0.1430 -0.2843  0.2502
  948MOL0     O27875   7.234   9.653   1.313 -0.1783 -0.0531  0.7459
  948MOL0     C27876   7.307   9.552   1.255 -0.2526 -0.4348 -0.5129
  948MOL0     C27877   7.446   9.562   1.263 -0.6707  1.2388 -0.1871
  948MOL0     C27878   7.527   9.449   1.208 -0.4486  0.3571 -0.1641
  948MOL0     C27879   7.463   9.326   1.163  0.4139 -0.2337 -0.4576
  948MOL0     O27880   7.532   9.228   1.114 -0.3568  0.0390  0.6192
  948MOL0     C27881   7.607   9.276   1.005 -0.8055  0.4812  0.1752
  948MOL0     C27882   7.533   9.271   0.873 -0.4340 -0.1967  0.1415
  948MOL0     C27883   7.625   9.329   0.767  0.7269 -0.7012 -0.0695
  948MOL0     C27884   7.555   9.393   0.652  0.1153 -0.1689 -1.0585
  948MOL0     C27885   7.657   9.477   0.574  0.2227  0.0515 -0.6071
  948MOL0     C27886   7.768   9.400   0.506 -0.2312 -0.4955  0.5682
  948MOL0     C27887   7.870   9.488   0.442 -0.5323 -0.0470 -0.4826
  948MOL0     C27888   7.883   9.442   0.297 -0.3098 -0.3515  0.6216
  948MOL0    Cl27889   7.726   9.475   0.206  0.3133  0.0526 -0.0862
  948MOL0     C27890   7.320   9.320   1.166 -1.1244  0.7321  0.8466
  948MOL0     C27891   7.246   9.432   1.215 -0.0235 -1.1389  0.1520
  948MOL0     O27892   7.132   9.537   1.474  0.0674 -0.8126  0.3079
  948MOL0     C27893   6.895   9.680   1.463 -0.0773 -0.4562 -0.1592
  948MOL0     C27894   6.780   9.762   1.466  0.0766 -0.2589  0.6557
  948MOL0     N27895   6.054   9.985   1.192 -0.8445  0.1621 -0.1157
  948MOL0     N27896   5.940   9.994   1.134 -0.0442 -0.6234  0.2573
  948MOL0     C27897   5.934  10.952   0.893 -0.0692 -0.0646 -0.3642
  948MOL0     C27898   6.070  10.950   0.928 -0.3773  0.3714 -0.1481
  948MOL0     C27899   6.486  10.940   1.084 -0.3424  0.0897 -0.5518
  948MOL0     C27900   6.491  10.851   1.200 -0.6221 -0.7297 -0.4349
  948MOL0     C27901   6.610  10.831   1.267 -0.2226 -0.1326 -0.2890
  948MOL0     C27902   6.730  10.893   1.227 -0.0850  0.3905  0.1076
  948MOL0     O27903   6.834  10.881   1.319 -0.2558  0.3035  0.2763
  948MOL0     C27904   6.944  10.965   1.284 -0.1790  0.8090 -0.9457
  948MOL0     C27905   7.074  10.913   1.355  0.4985  0.0352  0.0880
  948MOL0     C27906   7.083  10.766   1.318  0.4424 -0.0374 -0.0436
  948MOL0     C27907   7.216  10.704   1.350  0.0737  0.3261 -0.1558
  948MOL0     C27908   7.212  10.629   1.478 -0.4190  0.1161 -0.5541
  948MOL0     C27909   7.202  10.548   1.570 -1.3843 -0.4149  0.2226
  948MOL0     C27910   6.722  10.964   1.105 -0.2377  0.5723  0.5600
  948MOL0     C27911   6.604  10.988   1.034 -0.5412 -0.1256 -0.0482
  948MOL0     C27912   6.615  11.093   0.923  0.7535  0.5303 -0.3643
  948MOL0     H27913   6.047  10.926   1.264 -2.9841 -0.6380 -0.2486
  948MOL0     H27914   5.806  10.935   1.213  0.8479  0.8523  0.3196
  948MOL0     H27915   5.597  10.985   0.798 -0.4183  2.0024  1.0451
  948MOL0     H27916   5.723  10.873   0.788  2.4600  1.8772  1.9997
  948MOL0     H27917   5.488  10.778   0.777 -0.3707 -0.4526 -0.0036
  948MOL0     H27918   5.473  10.805   0.955  1.6561  1.8952  1.0290
  948MOL0     H27919   5.629  10.631   0.995 -1.4164 -2.8416 -1.2321
  948MOL0     H27920   5.714  10.650   0.840 -0.5337 -1.7698 -1.3070
  948MOL0     H27921   5.461  10.490   0.864 -0.0266  0.9414 -0.7470
  948MOL0     H27922   5.537  10.546   0.713  0.2054  4.3133  0.8911
  948MOL0     H27923   5.618  10.329   0.740 -2.8395  0.6460  0.7041
  948MOL0     H27924   5.745  10.451   0.781  0.5132  0.7076  0.7585
  948MOL0     H27925   5.662  10.431   1.031 -1.4664 -0.4372  0.3556
  948MOL0     H27926   5.588  10.286   0.986  1.0055 -0.7246  0.5805
  948MOL0     H27927   5.884  10.308   0.966 -1.0101  0.5938  0.6447
  948MOL0     H27928   5.781  10.167   0.911 -2.7321 -0.8167  1.4501
  948MOL0     H27929   5.747  10.261   1.196  2.0675  0.1325  0.2086
  948MOL0     H27930   5.705  10.111   1.118  0.1783  0.8523 -1.1976
  948MOL0     H27931   6.032  10.308   1.198 -0.9689 -0.1320 -0.1349
  948MOL0     H27932   6.307  10.130   1.151  0.8816 -0.2329 -0.3329
  948MOL0     H27933   6.265  10.200   1.312 -0.3445 -0.8461  0.8604
  948MOL0     H27934   6.256   9.970   1.408 -0.5464  0.1749 -0.6002
  948MOL0     H27935   6.312   9.911   1.248  1.1448  1.0940 -0.1949
  948MOL0     H27936   6.471  10.105   1.434  2.2086  1.2341 -0.6182
  948MOL0     H27937   6.498  10.093   1.268  0.7603  3.1963  2.0968
  948MOL0     H27938   6.562   9.843   1.308  4.1775 -1.0035  1.2162
  948MOL0     H27939   6.517   9.868   1.479 -0.6763 -0.1356 -0.5124
  948MOL0     H27940   6.913  10.040   1.313  1.9453  0.3688  0.2707
  948MOL0     H27941   7.107   9.878   1.304  0.4821 -0.4024  0.1556
  948MOL0     H27942   7.496   9.647   1.309  4.1364 -0.7267 -1.1107
  948MOL0     H27943   7.633   9.471   1.214 -0.3272 -0.3731  0.6589
  948MOL0     H27944   7.655   9.374   1.011 -2.6802  1.5911 -1.6430
  948MOL0     H27945   7.691   9.205   1.000  0.5331  2.0761 -1.1075
  948MOL0     H27946   7.508   9.168   0.846 -2.1117  0.4665 -0.9995
  948MOL0     H27947   7.446   9.333   0.896  0.0185  0.3518  0.3918
  948MOL0     H27948   7.681   9.409   0.815 -1.8859  1.1150  0.1672
  948MOL0     H27949   7.702   9.262   0.728  0.5675 -1.2510  0.5375
  948MOL0     H27950   7.479   9.461   0.691  1.8246  1.5142 -0.5453
  948MOL0     H27951   7.522   9.320   0.577  3.3914 -0.8501 -2.0272
  948MOL0     H27952   7.707   9.543   0.646  0.0559 -2.4302  1.9480
  948MOL0     H27953   7.598   9.531   0.500  1.5122  1.8960 -0.3589
  948MOL0     H27954   7.824   9.336   0.575  0.4118 -0.3545  0.1882
  948MOL0     H27955   7.721   9.336   0.431  0.1985  2.0244 -2.0230
  948MOL0     H27956   7.968   9.478   0.489 -0.4608  5.0568  1.0094
  948MOL0     H27957   7.852   9.596   0.442 -0.7045 -0.0643 -1.3537
  948MOL0     H27958   7.968   9.501   0.263 -2.1402  1.4461 -1.1052
  948MOL0     H27959   7.906   9.335   0.297  1.3672 -0.0397  2.0663
  948MOL0     H27960   7.270   9.225   1.145  1.5587 -0.3310 -1.4199
  948MOL0     H27961   7.139   9.446   1.226 -0.1173 -0.4598 -1.3651
  948MOL0     H27962   6.899   9.582   1.510  0.7500 -0.5583 -0.4308
  948MOL0     H27963   6.689   9.728   1.514 -0.4030 -1.7851 -1.1959
  948MOL0     H27964   5.925  10.962   0.786 -0.0800  1.7039 -0.2279
  948MOL0     H27965   6.141  10.958   0.846 -1.9391  0.1284 -1.5912
  948MOL0     H27966   6.406  10.801   1.245 -0.1480  0.5528  2.0705
  948MOL0     H27967   6.617  10.750   1.339 -0.2243 -0.7782 -1.0060
  948MOL0     H27968   6.926  11.069   1.312  2.2492  0.9023  0.5184
  948MOL0     H27969   6.971  10.968   1.178  1.4896  0.0578 -0.5757
  948MOL0     H27970   7.054  10.905   1.462  1.0554 -1.0733  0.1169
  948MOL0     H27971   7.168  10.968   1.348  1.4781 -1.3091  1.9582
  948MOL0     H27972   7.061  10.749   1.212 -1.1683  0.8654  0.1139
  948MOL0     H27973   7.004  10.717   1.376  2.8847 -1.2650  2.4586
  948MOL0     H27974   7.246  10.628   1.277  0.5515 -0.9525  1.3198
  948MOL0     H27975   7.297  10.777   1.349 -0.5912  1.0843  0.4951
  948MOL0     H27976   7.211  10.492   1.661  2.6979 -0.0209  0.2645
  948MOL0     H27977   6.811  11.000   1.053 -1.7241  1.0923 -1.7708
  948MOL0     H27978   6.574  11.191   0.952  1.7280  0.0119  3.1892
  948MOL0     H27979   6.719  11.104   0.892  0.5644  2.9852 -0.3195
  948MOL0     H27980   6.558  11.060   0.835 -2.3743  0.3639  1.5724
  949MOL0     O27981   7.374   7.218  10.342 -0.2495  0.3986  0.0355
  949MOL0     C27982   7.369   7.125  10.262 -0.4700  0.0677 -0.3243
  949MOL0     O27983   7.466   7.032  10.253  0.3651  0.0393 -0.0609
  949MOL0     C27984   7.570   7.039  10.340 -0.3590 -0.2893  0.4179
  949MOL0     C27985   7.669   7.124  10.312  0.0844  0.0963 -0.4376
  949MOL0     C27986   7.781   7.138  10.406  0.0021 -0.0124  0.4567
  949MOL0     C27987   7.795   7.035  10.502 -1.0469  0.2167 -0.3886
  949MOL0     O27988   7.899   7.060  10.595 -0.4287 -0.6419  0.0137
  949MOL0     C27989   7.925   6.960  10.689 -0.1820 -0.0917 -0.0294
  949MOL0     C27990   8.003   6.838  10.630 -0.0457  0.3841 -0.1343
  949MOL0     C27991   8.145   6.865  10.564 -0.0760  0.8976  0.1130
  949MOL0     C27992   8.222   6.735  10.578  0.5611 -0.5084  0.3454
  949MOL0     C27993   8.370   6.759  10.539  0.8702  0.9191  0.3176
  949MOL0     C27994   8.440   6.634  10.587 -0.2321 -0.2449  0.8077
  949MOL0     C27995   8.595   6.661  10.592  1.0412  1.1860  0.4010
  949MOL0     C27996   8.676   6.530  10.600 -0.0842 -0.6217  0.3717
  949MOL0     N27997   8.819   6.555  10.610  0.3819 -1.0287 -0.1406
  949MOL0     C27998   8.872   6.619  10.727 -0.6379 -0.1303 -0.0685
  949MOL0     C27999   9.004   6.628  10.696 -0.4940  0.0767 -0.2093
  949MOL0     C28000   9.103   6.705  10.760  0.3141  0.2023 -0.6174
  949MOL0     C28001   9.149   6.652  10.899  0.6097  1.2691  0.6233
  949MOL0     C28002   9.187   6.741  11.014  0.0922 -0.5384  0.3273
  949MOL0     C28003   9.341   6.770  11.022 -0.2961  1.2656 -0.0940
  949MOL0     O28004   9.387   6.829  11.146 -0.2513  0.3440  0.2046
  949MOL0     C28005   9.523   6.826  11.157  0.4297 -0.0514  0.1423
  949MOL0     C28006   9.577   6.775  11.271 -0.3882  0.6757 -0.2831
  949MOL0     C28007   9.708   6.759  11.293  0.2114  0.4417 -0.6671
  949MOL0     C28008   9.795   6.801  11.199 -1.2935  0.3199  0.6592
  949MOL0     C28009   9.939   6.776  11.218 -0.1348 -0.2679 -0.2874
  949MOL0     O28010   9.989   6.830  11.333 -0.0884  0.4097 -0.5385
  949MOL0     C28011  10.121   6.823  11.342 -0.2348 -1.0330 -0.4744
  949MOL0     C28012  10.209   6.873  11.246  0.2974 -0.8820 -0.3068
  949MOL0     C28013  10.345   6.871  11.278  0.5690 -0.2935 -0.0736
  949MOL0     C28014  10.392   6.832  11.408 -0.2034 -0.4233  0.7844
  949MOL0     O28015  10.531   6.837  11.415 -0.3082 -0.1784 -0.2659
  949MOL0     C28016  10.608   6.952  11.367  0.2316 -0.2330 -0.3930
  949MOL0     C28017  10.735   6.957  11.452 -0.4178  0.4425  0.8363
  949MOL0     C28018  10.842   6.859  11.391 -0.0690 -0.0755 -0.6845
  949MOL0     C28019  10.954   6.838  11.487 -0.6150  0.1252  0.5904
  949MOL0     C28020  11.041   6.951  11.517 -0.0347 -0.1426  0.4817
  949MOL0     C28021  11.185   6.916  11.572 -0.4368 -0.1973  0.4115
  949MOL0     C28022  11.264   7.048  11.602  0.5800  1.8922 -0.1019
  949MOL0     C28023  11.283   7.136  11.477  0.5354 -0.3060  0.3658
  949MOL0    Cl28024  11.359   7.295  11.511 -0.3213  0.1346  0.3426
  949MOL0     C28025  10.302   6.770  11.496  0.1136 -0.4995 -0.2204
  949MOL0     C28026  10.169   6.769  11.461  0.1594 -0.4772 -0.2908
  949MOL0     O28027   9.999   6.704  11.132 -0.2562  0.0424  0.0621
  949MOL0     C28028   9.746   6.855  11.075  0.2799  0.0928 -0.9619
  949MOL0     C28029   9.607   6.865  11.061 -1.1500 -0.4446 -0.2078
  949MOL0     N28030   9.028   6.570  10.567 -0.5632 -0.1394 -0.5074
  949MOL0     N28031   8.914   6.535  10.513  0.1620 -0.7197 -0.0705
  949MOL0     C28032   7.694   6.940  10.518  0.3517  0.5110  0.0005
  949MOL0     C28033   7.578   6.946  10.436  0.9709  0.4700 -0.3957
  949MOL0     C28034   7.250   7.117  10.175  0.3168  0.3894 -0.4682
  949MOL0     C28035   7.190   7.230  10.128  0.4077 -0.4595  0.3228
  949MOL0     C28036   7.077   7.238  10.053 -0.3564  0.1818 -0.2380
  949MOL0     C28037   7.026   7.110  10.014  0.2715 -0.4853  0.8901
  949MOL0     O28038   6.931   7.122   9.907  0.4096  0.0503  0.2520
  949MOL0     C28039   6.793   7.110   9.948 -0.4307 -0.1107 -0.6617
  949MOL0     C28040   6.729   7.226  10.035 -0.1905 -0.0213 -0.3787
  949MOL0     C28041   6.751   7.377   9.989 -0.0962 -0.5804  0.5877
  949MOL0     C28042   6.635   7.472  10.020  0.0011  0.5111  0.1990
  949MOL0     C28043   6.512   7.446   9.936 -0.7976 -0.1392 -0.5884
  949MOL0     C28044   6.417   7.415   9.879  0.2089  0.2987 -0.0283
  949MOL0     C28045   7.077   6.991  10.061 -0.5460  0.0936 -1.4759
  949MOL0     C28046   7.183   6.992  10.155 -0.5520 -0.2906  0.0085
  949MOL0     C28047   7.217   6.859  10.213  0.1054  0.1088  0.0867
  949MOL0     H28048   7.645   7.206  10.245  0.2865  1.4146  1.0479
  949MOL0     H28049   7.849   7.221  10.393  1.2752 -1.0641  0.0925
  949MOL0     H28050   7.996   7.014  10.753  0.9175 -2.1312  0.5795
  949MOL0     H28051   7.840   6.941  10.755 -0.2956 -2.5341 -0.7788
  949MOL0     H28052   7.940   6.798  10.550 -4.2439 -2.4618  4.0630
  949MOL0     H28053   8.014   6.763  10.709  0.1055  0.2592 -0.2746
  949MOL0     H28054   8.199   6.941  10.621 -2.3692  2.0089  0.9251
  949MOL0     H28055   8.137   6.892  10.458 -0.4634 -1.6942 -0.5843
  949MOL0     H28056   8.204   6.690  10.676 -1.2534 -2.1028 -0.6401
  949MOL0     H28057   8.178   6.654  10.519  0.0971  0.0017 -0.0121
  949MOL0     H28058   8.373   6.786  10.433  0.6153  2.6193  0.7013
  949MOL0     H28059   8.405   6.843  10.601  3.1563 -0.1803  0.5908
  949MOL0     H28060   8.401   6.593  10.680  0.0270 -3.5095 -0.4063
  949MOL0     H28061   8.421   6.559  10.510  2.2620  0.2849 -0.4475
  949MOL0     H28062   8.606   6.727  10.678  2.7099  2.0778 -0.4434
  949MOL0     H28063   8.615   6.708  10.495 -2.9891  3.2856  0.3454
  949MOL0     H28064   8.649   6.460  10.680  0.5250 -0.7240  0.4990
  949MOL0     H28065   8.661   6.466  10.512 -0.8019  0.9496 -0.6755
  949MOL0     H28066   8.816   6.654  10.813 -1.4219 -0.7863 -0.3027
  949MOL0     H28067   9.193   6.711  10.698  1.4859  0.2881  1.0287
  949MOL0     H28068   9.066   6.807  10.773  4.0867  1.5995  0.6988
  949MOL0     H28069   9.060   6.599  10.935  1.6745  0.7414  2.6513
  949MOL0     H28070   9.226   6.575  10.899 -0.0590  0.5849  0.6706
  949MOL0     H28071   9.173   6.678  11.102 -0.2790  1.1270  1.4993
  949MOL0     H28072   9.130   6.834  11.014 -0.4356 -0.7873 -1.9829
  949MOL0     H28073   9.353   6.834  10.934  1.5024  2.5358  1.0036
  949MOL0     H28074   9.401   6.679  11.007  0.5393  1.6604  0.8010
  949MOL0     H28075   9.505   6.745  11.346  0.3033  1.3363  0.6701
  949MOL0     H28076   9.752   6.718  11.383 -1.1306 -0.8006 -0.5269
  949MOL0     H28077  10.185   6.911  11.147 -1.6738 -0.5387  0.2546
  949MOL0     H28078  10.407   6.913  11.199  1.3815  0.2689  0.8433
  949MOL0     H28079  10.645   6.938  11.265 -1.0712 -2.3059 -0.6478
  949MOL0     H28080  10.555   7.048  11.375  3.4361  1.6530 -0.0781
  949MOL0     H28081  10.773   7.058  11.438  0.4899  0.0051  0.0884
  949MOL0     H28082  10.730   6.943  11.561  2.1183  1.6510  1.1773
  949MOL0     H28083  10.798   6.763  11.363 -0.5571 -0.6230  1.7119
  949MOL0     H28084  10.881   6.910  11.302  2.0606  1.0948  0.8489
  949MOL0     H28085  11.012   6.753  11.450 -2.5871 -0.2462 -1.9201
  949MOL0     H28086  10.914   6.802  11.582  0.1333 -4.7029 -0.6587
  949MOL0     H28087  10.994   7.024  11.583  3.3924  2.9504 -0.1650
  949MOL0     H28088  11.068   6.997  11.421  1.6842  2.4665  2.0878
  949MOL0     H28089  11.175   6.851  11.660  2.6400 -0.2530  0.8048
  949MOL0     H28090  11.242   6.862  11.497 -0.1952  2.1744 -1.1968
  949MOL0     H28091  11.360   7.027  11.649 -0.1284  0.5424  0.8135
  949MOL0     H28092  11.224   7.109  11.685 -0.2250 -1.2235  1.9740
  949MOL0     H28093  11.356   7.087  11.412  1.0701  0.6852  0.1920
  949MOL0     H28094  11.190   7.156  11.423  1.0470 -0.0641 -0.4437
  949MOL0     H28095  10.336   6.727  11.590  0.8065  0.0894 -0.1926
  949MOL0     H28096  10.102   6.717  11.528  1.3441 -0.1878  1.1631
  949MOL0     H28097   9.809   6.907  11.004 -1.6991  1.9105 -1.5043
  949MOL0     H28098   9.571   6.918  10.973 -0.3156 -0.7741 -0.7665
  949MOL0     H28099   7.701   6.865  10.595  0.0787 -0.4490 -0.8942
  949MOL0     H28100   7.487   6.892  10.460  0.8300  1.5462  1.7997
  949MOL0     H28101   7.246   7.320  10.152 -0.6724  1.0095 -2.2265
  949MOL0     H28102   7.037   7.328  10.008 -1.2359  0.4733  1.0715
  949MOL0     H28103   6.795   7.015  10.002  2.5857 -1.0115 -2.1082
  949MOL0     H28104   6.728   7.096   9.861 -1.2840  2.2800 -0.4580
  949MOL0     H28105   6.760   7.208  10.138  0.6140 -2.1666 -0.9470
  949MOL0     H28106   6.621   7.212  10.040  0.0139 -1.6679 -0.1636
  949MOL0     H28107   6.771   7.389   9.882  0.4366  0.1015  0.7648
  949MOL0     H28108   6.838   7.407  10.047  0.2527  1.0520 -0.7335
  949MOL0     H28109   6.608   7.467  10.126  1.3778 -0.0967  0.5407
  949MOL0     H28110   6.658   7.577   9.999  0.3240  0.9273  2.3449
  949MOL0     H28111   6.329   7.379   9.830  0.8458  2.0618 -2.6746
  949MOL0     H28112   7.041   6.898  10.017  1.5512 -0.7451 -1.5423
  949MOL0     H28113   7.266   6.805  10.131  0.4244 -2.3623  1.7951
  949MOL0     H28114   7.292   6.873  10.291  1.5818  1.8943 -1.5572
  949MOL0     H28115   7.126   6.804  10.238 -1.6516  1.7779 -2.2049
  950MOL0     O28116   2.384   5.779   7.128  0.3452 -0.0023 -0.1982
  950MOL0     C28117   2.291   5.744   7.056  0.3500  0.1735  0.0108
  950MOL0     O28118   2.246   5.620   7.052 -0.3508  0.0942 -0.4130
  950MOL0     C28119   2.319   5.518   7.110  0.7373  1.1397 -0.3772
  950MOL0     C28120   2.412   5.435   7.044 -0.0264 -0.5163  0.0182
  950MOL0     C28121   2.484   5.333   7.107  0.0681 -0.6586 -0.3805
  950MOL0     C28122   2.457   5.306   7.244  0.4979 -0.2047  0.6097
  950MOL0     O28123   2.519   5.211   7.326  0.5368 -0.3209 -0.0887
  950MOL0     C28124   2.649   5.165   7.292  0.1966 -0.1275  0.3922
  950MOL0     C28125   2.676   5.067   7.396  0.2004 -1.0421  0.0213
  950MOL0     C28126   2.808   4.996   7.380  0.5209 -0.4474 -0.3196
  950MOL0     C28127   2.822   4.858   7.444 -0.8212  0.5668  0.3475
  950MOL0     C28128   2.960   4.792   7.413  0.5175 -0.7463  1.0795
  950MOL0     C28129   3.075   4.871   7.476  0.3900 -0.3606  0.1007
  950MOL0     C28130   3.205   4.791   7.499 -0.2948 -0.3524  0.4576
  950MOL0     C28131   3.281   4.871   7.601 -0.3042  0.4035 -0.2306
  950MOL0     N28132   3.416   4.824   7.625  0.1176  0.2767 -0.9631
  950MOL0     C28133   3.457   4.719   7.704  0.6322  0.3337  0.8282
  950MOL0     C28134   3.591   4.705   7.687 -0.6280  0.1844 -0.2108
  950MOL0     C28135   3.682   4.604   7.744  1.0713  0.8742 -0.0232
  950MOL0     C28136   3.829   4.635   7.758  0.4954  0.1700 -1.1144
  950MOL0     C28137   3.898   4.638   7.624 -0.3322 -0.0226 -1.0000
  950MOL0     C28138   4.050   4.626   7.655 -0.0183 -0.4450 -0.0403
  950MOL0     O28139   4.094   4.527   7.751  0.2576 -0.3437 -0.5351
  950MOL0     C28140   4.222   4.523   7.787  0.3722 -0.2309 -0.1905
  950MOL0     C28141   4.338   4.583   7.728 -1.0906 -0.2052  0.5914
  950MOL0     C28142   4.464   4.560   7.786  0.2596 -1.0702 -0.7745
  950MOL0     C28143   4.473   4.504   7.915 -0.6008  0.5016 -0.2274
  950MOL0     C28144   4.608   4.493   7.983  0.4076 -0.3695  0.8498
  950MOL0     O28145   4.707   4.512   7.895  0.0187  0.4984  0.7148
  950MOL0     C28146   4.832   4.514   7.947 -0.9045  0.2465 -1.5490
  950MOL0     C28147   4.899   4.638   7.944 -0.0952 -0.0844 -0.0873
  950MOL0     C28148   5.035   4.647   7.990  0.5072  0.7040 -0.5230
  950MOL0     C28149   5.106   4.531   8.021  0.2617  0.1614 -0.4202
  950MOL0     O28150   5.242   4.516   8.043 -0.5522 -0.2921 -0.5751
  950MOL0     C28151   5.322   4.612   7.986  0.3535 -0.5253  0.1519
  950MOL0     C28152   5.469   4.569   8.010  0.0910  0.2211  1.1402
  950MOL0     C28153   5.562   4.687   7.989 -0.0299 -0.8639  0.0658
  950MOL0     C28154   5.711   4.655   7.986  0.4012  0.3311  0.2479
  950MOL0     C28155   5.759   4.611   8.119  0.6335 -1.1576 -0.2147
  950MOL0     C28156   5.909   4.631   8.138 -0.4800 -0.5433  0.2394
  950MOL0     C28157   5.985   4.555   8.249  0.3090  0.0565 -0.5760
  950MOL0     C28158   5.921   4.578   8.393 -0.7191 -0.4944  0.3212
  950MOL0    Cl28159   6.064   4.584   8.519 -0.1216 -0.4201  0.0203
  950MOL0     C28160   5.033   4.410   8.042 -0.5313 -0.2645 -0.2200
  950MOL0     C28161   4.906   4.400   7.996  0.8978 -0.7041 -0.1763
  950MOL0     O28162   4.627   4.484   8.103 -0.4874 -0.4586  0.3784
  950MOL0     C28163   4.365   4.447   7.981  0.1978 -0.0421 -0.2375
  950MOL0     C28164   4.245   4.463   7.914  0.3528  0.3989 -0.5365
  950MOL0     N28165   3.632   4.814   7.597 -0.6283 -0.0345 -0.4941
  950MOL0     N28166   3.526   4.875   7.563  0.4447 -0.3527 -0.1274
  950MOL0     C28167   2.366   5.394   7.312 -0.4635  0.4066 -0.4274
  950MOL0     C28168   2.302   5.501   7.249  0.3068 -0.1878 -0.2868
  950MOL0     C28169   2.218   5.835   6.968  0.4754 -1.1984 -0.2002
  950MOL0     C28170   2.100   5.800   6.915 -0.5999  0.1640  0.7708
  950MOL0     C28171   2.031   5.886   6.832  0.2736  0.2467  0.5876
  950MOL0     C28172   2.069   6.024   6.810  0.2914  0.0222  0.6865
  950MOL0     O28173   1.990   6.105   6.741 -0.0437 -0.1122  0.4121
  950MOL0     C28174   2.020   6.111   6.597 -0.3774  0.3507  0.3408
  950MOL0     C28175   1.894   6.066   6.526  0.3481 -1.7776 -1.1204
  950MOL0     C28176   1.927   6.057   6.372 -0.2001 -0.4511 -0.5058
  950MOL0     C28177   1.808   6.004   6.284 -0.1879 -0.1660  0.3977
  950MOL0     C28178   1.748   6.116   6.200  0.1328 -0.3520 -0.5393
  950MOL0     C28179   1.680   6.193   6.139  0.1556  1.1570  0.0461
  950MOL0     C28180   2.195   6.060   6.863 -0.3733  0.4177  0.4290
  950MOL0     C28181   2.267   5.968   6.940 -0.1733  1.0941 -0.7940
  950MOL0     C28182   2.410   6.013   6.974 -0.1509  0.5165 -0.3656
  950MOL0     H28183   2.423   5.448   6.936 -0.2838 -0.6060 -0.0186
  950MOL0     H28184   2.557   5.274   7.052 -0.5835  0.7804 -2.9445
  950MOL0     H28185   2.653   5.119   7.193 -1.1699 -2.1850  1.2195
  950MOL0     H28186   2.725   5.243   7.304 -0.8745  1.0898 -0.5407
  950MOL0     H28187   2.595   4.996   7.411 -0.9524 -0.3948 -2.5781
  950MOL0     H28188   2.684   5.118   7.493 -1.6655 -1.0427  0.2077
  950MOL0     H28189   2.874   5.075   7.415 -0.9433  1.3415 -1.3788
  950MOL0     H28190   2.832   4.981   7.274 -0.7981  0.4189 -0.7653
  950MOL0     H28191   2.809   4.858   7.553  1.5996 -2.1187  0.7791
  950MOL0     H28192   2.752   4.788   7.397  1.0240  0.0059 -1.7463
  950MOL0     H28193   2.961   4.698   7.470 -0.2492 -0.3606  1.7506
  950MOL0     H28194   2.977   4.783   7.306  2.8212  1.8333  1.1164
  950MOL0     H28195   3.088   4.965   7.421  0.3458  0.2354  1.0836
  950MOL0     H28196   3.045   4.904   7.576 -1.8244 -0.9234 -0.3249
  950MOL0     H28197   3.268   4.788   7.409 -0.8561 -0.5467  0.0680
  950MOL0     H28198   3.183   4.691   7.536  0.8135 -0.2464  1.4609
  950MOL0     H28199   3.300   4.968   7.553 -2.1058  0.4978 -0.8075
  950MOL0     H28200   3.215   4.889   7.686 -1.4779 -0.8812 -0.8389
  950MOL0     H28201   3.384   4.662   7.761 -4.3473  2.3223 -2.7939
  950MOL0     H28202   3.656   4.568   7.844  4.1269 -1.6924 -0.0076
  950MOL0     H28203   3.674   4.515   7.681  0.7112  2.1429 -1.8940
  950MOL0     H28204   3.830   4.738   7.794  0.8410  0.5155 -2.0871
  950MOL0     H28205   3.870   4.571   7.837 -1.9696  1.0124  0.9995
  950MOL0     H28206   3.869   4.729   7.570 -0.4556  0.0262 -0.8543
  950MOL0     H28207   3.864   4.554   7.562 -2.1927  1.4051 -2.0255
  950MOL0     H28208   4.098   4.721   7.684 -2.7003  0.7734  0.6921
  950MOL0     H28209   4.098   4.593   7.563  0.0137 -0.8218  0.1086
  950MOL0     H28210   4.330   4.638   7.635 -1.8159  0.8496  1.2580
  950MOL0     H28211   4.553   4.596   7.736 -1.2277  1.2800 -1.8807
  950MOL0     H28212   4.834   4.718   7.912 -1.8721 -0.4800  2.2737
  950MOL0     H28213   5.091   4.740   7.999  3.9797 -1.4134  2.7787
  950MOL0     H28214   5.313   4.626   7.878  1.8493 -1.1535 -0.0761
  950MOL0     H28215   5.309   4.711   8.031  0.5538 -1.2490  1.8678
  950MOL0     H28216   5.493   4.528   8.109 -0.0429 -0.6578  0.8078
  950MOL0     H28217   5.496   4.493   7.937 -3.0199 -0.5020  0.6199
  950MOL0     H28218   5.532   4.739   7.897 -1.5484 -2.7619 -0.5927
  950MOL0     H28219   5.552   4.754   8.074 -1.8677  0.2079 -0.9262
  950MOL0     H28220   5.772   4.736   7.943  0.2312  0.7904  0.8639
  950MOL0     H28221   5.722   4.567   7.922 -2.9018  0.3536 -0.4912
  950MOL0     H28222   5.731   4.510   8.150 -0.9109 -0.5803  0.4031
  950MOL0     H28223   5.729   4.689   8.190  2.9276 -0.4850  0.1182
  950MOL0     H28224   5.966   4.598   8.051  0.9940  1.7940  0.2406
  950MOL0     H28225   5.935   4.736   8.150  0.9839 -0.6215 -1.6967
  950MOL0     H28226   6.091   4.582   8.244  1.0831 -2.1129  1.7733
  950MOL0     H28227   5.972   4.450   8.223  0.8360  0.2378 -1.6285
  950MOL0     H28228   5.868   4.674   8.397  1.6453  0.8768  1.3245
  950MOL0     H28229   5.847   4.500   8.414 -1.1984 -0.1755 -0.1441
  950MOL0     H28230   5.074   4.311   8.060 -2.4605 -1.5846 -2.5167
  950MOL0     H28231   4.857   4.304   7.988  1.2311 -0.7460 -2.5070
  950MOL0     H28232   4.387   4.391   8.072  0.3693  0.9126  0.3255
  950MOL0     H28233   4.154   4.430   7.963  0.5533  3.4177  2.2477
  950MOL0     H28234   2.360   5.395   7.420  1.0746  3.3904 -0.2502
  950MOL0     H28235   2.243   5.574   7.303 -0.3121 -1.2457  0.5206
  950MOL0     H28236   2.051   5.704   6.929  0.0539 -0.7436 -2.3275
  950MOL0     H28237   1.950   5.842   6.774 -2.0919 -0.7381  4.2984
  950MOL0     H28238   2.092   6.033   6.569 -1.3618  0.0465 -1.4593
  950MOL0     H28239   2.059   6.206   6.561  3.1959 -1.2494 -0.5301
  950MOL0     H28240   1.810   6.131   6.550 -1.2111 -4.6411  2.2213
  950MOL0     H28241   1.863   5.969   6.566  0.5381 -0.7667  1.7024
  950MOL0     H28242   2.012   5.989   6.361  1.5268  1.2447  1.5359
  950MOL0     H28243   1.950   6.158   6.338 -0.2675  0.8168  2.8520
  950MOL0     H28244   1.853   5.947   6.202  1.2069  2.3030 -0.6941
  950MOL0     H28245   1.735   5.951   6.345  0.3891 -1.2855  0.1269
  950MOL0     H28246   1.608   6.258   6.094 -1.7979 -0.1018  1.2270
  950MOL0     H28247   2.242   6.153   6.833  1.8478 -0.4366  1.0556
  950MOL0     H28248   2.435   6.002   7.080  0.9117  1.2381 -0.5199
  950MOL0     H28249   2.481   5.955   6.914  0.1782 -0.6021  1.0636
  950MOL0     H28250   2.436   6.116   6.946 -0.3775  0.0058 -2.6992
  951MOL0     O28251  10.105   2.792   1.803  0.5500 -0.6240  0.2571
  951MOL0     C28252  10.020   2.808   1.717  0.0000  0.1012  0.3454
  951MOL0     O28253   9.948   2.923   1.699 -0.1902 -0.0872 -0.0703
  951MOL0     C28254   9.959   3.033   1.788  0.6202  0.4280  0.6951
  951MOL0     C28255  10.071   3.107   1.784 -0.8008 -1.1858  0.4206
  951MOL0     C28256  10.074   3.225   1.861 -0.2404  0.0682  0.8651
  951MOL0     C28257   9.970   3.260   1.944 -0.5534 -0.4224  0.1471
  951MOL0     O28258   9.966   3.378   2.004  0.7627  0.0563 -0.0807
  951MOL0     C28259   9.843   3.451   2.011 -0.6360  0.5892 -0.0168
  951MOL0     C28260   9.854   3.598   2.039 -0.0692 -0.1493  0.5625
  951MOL0     C28261   9.891   3.622   2.184  0.2046  0.0941  0.2344
  951MOL0     C28262  10.025   3.558   2.233  1.1024  0.2535 -0.8563
  951MOL0     C28263  10.085   3.658   2.344  0.6520  0.1674  0.5408
  951MOL0     C28264  10.214   3.608   2.406 -0.1517 -0.8626  0.0191
  951MOL0     C28265  10.257   3.723   2.512 -1.3641 -0.1312  0.1883
  951MOL0     C28266  10.393   3.696   2.590 -0.1605 -0.1817 -0.5102
  951MOL0     N28267  10.401   3.559   2.647  0.1190 -0.4759  0.2815
  951MOL0     C28268  10.447   3.445   2.584 -0.2380  0.0068 -0.3846
  951MOL0     C28269  10.450   3.359   2.689 -0.5132  0.0157  0.9264
  951MOL0     C28270  10.503   3.217   2.664 -0.4279 -0.1173 -0.3717
  951MOL0     C28271  10.589   3.166   2.772 -0.3410 -0.4238 -0.8387
  951MOL0     C28272  10.641   3.023   2.758  0.0586  0.2830 -0.0715
  951MOL0     C28273  10.729   2.982   2.880  0.1762 -1.5823  0.6778
  951MOL0     O28274  10.644   2.964   2.984 -0.1694  0.8219  0.6624
  951MOL0     C28275  10.686   2.877   3.084  0.5735 -0.2195 -0.2411
  951MOL0     C28276  10.810   2.895   3.148 -0.0429  0.5536  0.3521
  951MOL0     C28277  10.855   2.804   3.247  0.3224 -0.4014 -1.0216
  951MOL0     C28278  10.770   2.697   3.282  0.2442  0.2396  0.2234
  951MOL0     C28279  10.808   2.583   3.365 -0.6017  0.3539  0.2222
  951MOL0     O28280  10.941   2.565   3.366  0.7166 -0.5000 -0.1721
  951MOL0     C28281  11.003   2.473   3.444 -0.6062  0.1634 -0.2164
  951MOL0     C28282  10.969   2.339   3.449  0.5327  0.1991 -0.9120
  951MOL0     C28283  11.039   2.248   3.525  0.7090  0.3518  1.1177
  951MOL0     C28284  11.144   2.285   3.612 -0.1567  0.6668  0.0882
  951MOL0     O28285  11.205   2.185   3.692 -0.0739  0.2684  0.2075
  951MOL0     C28286  11.280   2.231   3.805 -0.2782  0.2393  0.2375
  951MOL0     C28287  11.263   2.117   3.901  0.1163  0.2501 -0.2377
  951MOL0     C28288  11.302   2.149   4.044  0.3607 -0.6489  0.1159
  951MOL0     C28289  11.295   2.021   4.140  0.6085 -0.0225  0.2736
  951MOL0     C28290  11.315   2.070   4.288  0.5408 -0.3353 -0.0163
  951MOL0     C28291  11.320   1.958   4.403  0.5474  0.0640 -0.1835
  951MOL0     C28292  11.175   1.898   4.420  0.1910  0.1180 -0.0901
  951MOL0     C28293  11.188   1.767   4.486 -0.7853  0.5806 -0.6706
  951MOL0    Cl28294  11.024   1.677   4.499 -0.1994  0.2098 -0.5363
  951MOL0     C28295  11.193   2.415   3.599  0.0434 -0.8939  0.6415
  951MOL0     C28296  11.127   2.507   3.511  1.0289  0.2358  0.2234
  951MOL0     O28297  10.743   2.529   3.446 -0.2180 -0.1995 -0.5089
  951MOL0     C28298  10.638   2.690   3.226  0.8986 -0.2180  0.5345
  951MOL0     C28299  10.606   2.776   3.126  0.0748 -0.1610 -0.0741
  951MOL0     N28300  10.390   3.413   2.798 -0.1893 -0.3179 -0.4423
  951MOL0     N28301  10.369   3.541   2.776  0.5583  0.3609 -0.2108
  951MOL0     C28302   9.861   3.174   1.951 -0.0636 -0.3990 -0.4387
  951MOL0     C28303   9.848   3.066   1.875 -1.0239  0.2380 -0.1978
  951MOL0     C28304   9.998   2.702   1.618 -0.1951 -0.0490 -0.7641
  951MOL0     C28305   9.984   2.737   1.486 -0.0341  0.8434  0.1499
  951MOL0     C28306   9.953   2.646   1.379 -0.2821 -0.1906  0.2810
  951MOL0     C28307   9.948   2.515   1.413  1.1590 -0.2516  0.1197
  951MOL0     O28308   9.949   2.418   1.316 -0.5202  0.4474 -0.4607
  951MOL0     C28309   9.887   2.452   1.189  0.2316  0.7859  0.0375
  951MOL0     C28310   9.874   2.323   1.108  1.5124 -0.2195 -0.5425
  951MOL0     C28311   9.804   2.341   0.965 -0.6387 -0.0858 -0.8445
  951MOL0     C28312   9.784   2.210   0.894  0.0384 -0.0872  0.9560
  951MOL0     C28313   9.918   2.163   0.836  0.2307 -0.1957  0.0953
  951MOL0     C28314  10.024   2.114   0.793 -0.2905 -0.2932 -0.4356
  951MOL0     C28315   9.961   2.474   1.548 -0.2434 -0.0001 -0.4566
  951MOL0     C28316   9.965   2.562   1.653 -0.4605 -0.6248 -0.1579
  951MOL0     C28317   9.979   2.508   1.794 -0.8579  0.3311 -0.1915
  951MOL0     H28318  10.153   3.086   1.716 -0.1861 -2.2048  1.4478
  951MOL0     H28319  10.170   3.275   1.853 -0.0997  0.5080  3.8636
  951MOL0     H28320   9.796   3.440   1.912  1.9065 -2.3929 -1.0966
  951MOL0     H28321   9.772   3.400   2.077 -0.1393 -1.1097 -0.7236
  951MOL0     H28322   9.757   3.643   2.017  0.0242 -1.0113 -1.9985
  951MOL0     H28323   9.927   3.644   1.971 -0.6067 -1.7274 -1.1646
  951MOL0     H28324   9.807   3.589   2.245 -0.6018 -0.0464 -0.9137
  951MOL0     H28325   9.903   3.730   2.193  1.2020 -0.0430  0.7054
  951MOL0     H28326  10.022   3.451   2.255  0.6615 -0.0331 -2.2225
  951MOL0     H28327  10.093   3.553   2.147  2.0021  1.2002 -0.2277
  951MOL0     H28328  10.111   3.754   2.300  0.5596 -0.8390 -1.8344
  951MOL0     H28329  10.006   3.676   2.417  0.6511 -2.0619  1.1759
  951MOL0     H28330  10.190   3.509   2.445  0.8191 -1.3504 -0.5734
  951MOL0     H28331  10.284   3.594   2.324 -4.2321 -1.3492 -3.7395
  951MOL0     H28332  10.179   3.736   2.589 -0.2108 -2.0983  1.8094
  951MOL0     H28333  10.262   3.820   2.463 -4.0087  1.4441  2.7110
  951MOL0     H28334  10.476   3.716   2.520  3.1620 -2.6094  2.3616
  951MOL0     H28335  10.400   3.763   2.675 -0.3807 -1.0297  0.1929
  951MOL0     H28336  10.489   3.425   2.486 -0.1265 -0.6460 -0.2097
  951MOL0     H28337  10.412   3.158   2.662  1.1681 -2.6997 -0.7636
  951MOL0     H28338  10.561   3.216   2.571  2.0851  1.2592  1.0494
  951MOL0     H28339  10.676   3.231   2.791  0.8064 -2.2524  0.4796
  951MOL0     H28340  10.533   3.172   2.866  2.8401 -1.0385  1.2674
  951MOL0     H28341  10.702   3.013   2.668  4.1775  1.9701  2.2408
  951MOL0     H28342  10.554   2.958   2.751  1.2958 -1.4545  0.0335
  951MOL0     H28343  10.797   3.059   2.918  1.3790 -1.9480 -0.6393
  951MOL0     H28344  10.794   2.899   2.852  2.8164  0.2627  0.9016
  951MOL0     H28345  10.865   2.989   3.137 -0.7963  0.8639 -1.0015
  951MOL0     H28346  10.955   2.809   3.287  0.1291 -1.1095 -0.4359
  951MOL0     H28347  10.884   2.305   3.390 -2.3149  2.1681  1.7547
  951MOL0     H28348  11.016   2.142   3.518  1.6346  0.2609 -2.5992
  951MOL0     H28349  11.389   2.227   3.791 -0.0195  1.5192  1.5664
  951MOL0     H28350  11.259   2.332   3.841  0.7914  1.3599 -2.0642
  951MOL0     H28351  11.158   2.087   3.903  0.6127 -1.5607  1.0911
  951MOL0     H28352  11.314   2.029   3.858  1.7069  1.4913 -1.0056
  951MOL0     H28353  11.401   2.196   4.047 -0.3489  1.3983 -3.2160
  951MOL0     H28354  11.233   2.224   4.083  1.8946  0.8261  0.1110
  951MOL0     H28355  11.362   1.942   4.107  1.1651  1.2891 -1.9366
  951MOL0     H28356  11.196   1.975   4.136  1.5067 -2.0807  0.5833
  951MOL0     H28357  11.238   2.144   4.311  0.6191  1.0133 -3.3715
  951MOL0     H28358  11.413   2.118   4.296  1.0838 -1.5115  0.6167
  951MOL0     H28359  11.396   1.886   4.372  1.6617  1.6088 -1.1525
  951MOL0     H28360  11.349   2.006   4.497 -0.2642  0.9716 -0.3810
  951MOL0     H28361  11.137   1.876   4.320 -0.5098  0.2565  0.1405
  951MOL0     H28362  11.110   1.971   4.469 -0.0365 -1.0547  1.4435
  951MOL0     H28363  11.258   1.701   4.433 -0.2372  0.0521  0.6808
  951MOL0     H28364  11.229   1.797   4.583 -0.9830 -0.2075 -0.3341
  951MOL0     H28365  11.296   2.447   3.612 -0.7364  1.6314  1.0703
  951MOL0     H28366  11.147   2.612   3.496  0.2803  0.1030 -2.3142
  951MOL0     H28367  10.563   2.615   3.247  1.5100 -0.6292  1.2931
  951MOL0     H28368  10.510   2.767   3.076  0.3640 -1.6311 -0.4193
  951MOL0     H28369   9.775   3.183   2.016 -1.0574 -0.2600 -1.7477
  951MOL0     H28370   9.768   2.996   1.898 -1.7597  1.5632  1.5273
  951MOL0     H28371   9.991   2.840   1.454  1.0956  0.9287  0.6045
  951MOL0     H28372   9.935   2.689   1.281  0.8809  1.2638  0.6656
  951MOL0     H28373   9.951   2.526   1.140  0.1277  2.6232  2.5137
  951MOL0     H28374   9.790   2.499   1.206 -1.6004 -3.5264  3.6685
  951MOL0     H28375   9.811   2.254   1.165  0.6044  1.2257  0.2701
  951MOL0     H28376   9.974   2.280   1.093  1.1262 -2.3633  2.1949
  951MOL0     H28377   9.862   2.411   0.905  0.2618 -1.1021 -1.1905
  951MOL0     H28378   9.705   2.381   0.990 -1.2809 -2.8646  1.7610
  951MOL0     H28379   9.743   2.134   0.961  1.1228  1.2843  3.3284
  951MOL0     H28380   9.715   2.212   0.809  0.3137 -0.8160  0.7089
  951MOL0     H28381  10.117   2.080   0.752 -0.5531  0.0132 -1.3043
  951MOL0     H28382   9.942   2.370   1.573 -1.6389  0.3403 -0.0416
  951MOL0     H28383  10.077   2.459   1.802 -0.4104  0.9806 -1.4558
  951MOL0     H28384   9.967   2.576   1.878 -1.2599 -0.3341  0.3006
  951MOL0     H28385   9.902   2.431   1.803 -0.7928  0.4823  2.0733
  952MOL0     O28386   2.442   3.597  11.404 -0.9842 -0.3770 -0.0663
  952MOL0     C28387   2.429   3.487  11.349 -0.6268 -0.1932 -0.6334
  952MOL0     O28388   2.527   3.414  11.289  0.1138 -0.8568 -0.4202
  952MOL0     C28389   2.655   3.460  11.299 -1.0062 -0.5241 -0.1273
  952MOL0     C28390   2.728   3.505  11.182  1.1090  1.1463  0.7480
  952MOL0     C28391   2.862   3.529  11.181 -0.5747  0.1433 -1.0919
  952MOL0     C28392   2.938   3.529  11.304 -0.5781 -0.6338 -0.6818
  952MOL0     O28393   3.069   3.562  11.326  0.3202 -1.3648 -0.6288
  952MOL0     C28394   3.150   3.594  11.216  0.1418  0.2340  0.2756
  952MOL0     C28395   3.290   3.649  11.259 -0.0971  0.1227 -1.3490
  952MOL0     C28396   3.376   3.535  11.310  0.1060 -0.9975 -0.5210
  952MOL0     C28397   3.501   3.593  11.380  0.1378  0.5540  0.3102
  952MOL0     C28398   3.605   3.487  11.379 -0.9801  0.5127  0.3230
  952MOL0     C28399   3.705   3.517  11.495 -0.5769 -0.2914  1.2851
  952MOL0     C28400   3.775   3.652  11.456  0.3267  0.0333 -1.0680
  952MOL0     C28401   3.884   3.689  11.561  0.9274 -0.4661 -0.0613
  952MOL0     N28402   3.979   3.583  11.598 -0.0765 -0.8368  0.1821
  952MOL0     C28403   4.083   3.524  11.521  0.6466 -0.0277  0.2286
  952MOL0     C28404   4.127   3.416  11.593 -0.6135  0.1021  0.4264
  952MOL0     C28405   4.237   3.320  11.555 -0.6202 -0.2271  0.6502
  952MOL0     C28406   4.298   3.259  11.676  0.0029 -0.2433 -0.8991
  952MOL0     C28407   4.376   3.370  11.761 -0.6788 -0.5310  0.1328
  952MOL0     C28408   4.455   3.301  11.881  0.5631  0.2381 -0.4876
  952MOL0     O28409   4.491   3.388  11.984  0.0316  0.7007  0.2690
  952MOL0     C28410   4.549   3.329  12.094  0.1001 -0.1195  0.2585
  952MOL0     C28411   4.526   3.400  12.207 -0.1549 -0.0301 -0.7467
  952MOL0     C28412   4.586   3.365  12.333  0.1557  0.8935  0.9906
  952MOL0     C28413   4.661   3.241  12.338 -0.5263  0.3102 -0.2807
  952MOL0     C28414   4.730   3.195  12.466 -0.0081 -0.1793 -0.1123
  952MOL0     O28415   4.750   3.281  12.564 -0.3272  0.3446  0.6672
  952MOL0     C28416   4.831   3.229  12.662 -0.6771 -0.2403 -0.1329
  952MOL0     C28417   4.795   3.133  12.753 -0.3052 -0.1329  0.2113
  952MOL0     C28418   4.876   3.095  12.865  0.8528  0.1362 -0.7357
  952MOL0     C28419   4.997   3.166  12.873  0.2593 -0.9143 -0.1932
  952MOL0     O28420   5.079   3.147  12.986 -0.4338 -0.2414  0.6229
  952MOL0     C28421   5.016   3.177  13.112 -0.1093 -0.6974  0.3167
  952MOL0     C28422   5.114   3.181  13.224  0.7032 -0.4285 -0.5416
  952MOL0     C28423   5.105   3.322  13.283  0.4265 -0.8551  0.0063
  952MOL0     C28424   5.207   3.358  13.393  0.4740 -0.3924  0.2661
  952MOL0     C28425   5.193   3.513  13.429 -0.1680  0.1739 -0.6291
  952MOL0     C28426   5.051   3.544  13.457 -0.6258 -1.5967 -0.0660
  952MOL0     C28427   5.026   3.691  13.509  0.4073  0.9033 -0.5207
  952MOL0     C28428   5.110   3.740  13.621 -0.0658 -0.7193  0.2261
  952MOL0    Cl28429   5.276   3.794  13.570  0.0811  0.1313  0.0485
  952MOL0     C28430   5.025   3.274  12.791 -0.7056  0.8292  1.1145
  952MOL0     C28431   4.943   3.300  12.676 -1.0769  0.0027 -1.0137
  952MOL0     O28432   4.768   3.076  12.464 -0.2343  0.1199 -0.9986
  952MOL0     C28433   4.681   3.173  12.218  1.1278 -0.9615  0.0572
  952MOL0     C28434   4.621   3.218  12.100 -0.7098  0.0357  0.3127
  952MOL0     N28435   4.046   3.402  11.707 -0.7787 -0.4171  0.1025
  952MOL0     N28436   3.967   3.505  11.711  0.4372  0.3208  0.4482
  952MOL0     C28437   2.862   3.487  11.414  0.3735  0.2535 -0.1331
  952MOL0     C28438   2.724   3.459  11.421 -0.5004 -0.2723  0.2523
  952MOL0     C28439   2.288   3.456  11.341 -0.1155  0.3546  0.6028
  952MOL0     C28440   2.211   3.487  11.453 -0.9765  0.7039  0.3298
  952MOL0     C28441   2.071   3.468  11.451 -0.2590 -0.2521  0.3462
  952MOL0     C28442   2.005   3.413  11.347  0.1523  0.3636  0.3319
  952MOL0     O28443   1.868   3.395  11.343  0.1605  0.6231  0.2076
  952MOL0     C28444   1.774   3.463  11.431  0.8010 -0.1007  0.3224
  952MOL0     C28445   1.698   3.352  11.502  0.2423  0.2568 -0.6540
  952MOL0     C28446   1.574   3.391  11.582  0.3730 -0.5906  0.2896
  952MOL0     C28447   1.502   3.267  11.644 -0.3702 -1.0398 -0.0737
  952MOL0     C28448   1.387   3.308  11.739 -0.3784  0.1350 -0.1748
  952MOL0     C28449   1.313   3.351  11.826  0.3048  0.3612 -0.5464
  952MOL0     C28450   2.080   3.377  11.234 -0.2320  0.0228 -0.3576
  952MOL0     C28451   2.221   3.407  11.223  1.2467  0.4767 -0.5915
  952MOL0     C28452   2.303   3.403  11.094  0.0925  0.6011  0.5978
  952MOL0     H28453   2.691   3.502  11.080  0.3923 -0.5672  1.0328
  952MOL0     H28454   2.924   3.538  11.092 -0.4526 -2.2583 -1.3235
  952MOL0     H28455   3.165   3.499  11.165  2.9758  1.5434 -1.6067
  952MOL0     H28456   3.112   3.660  11.137  3.9898 -0.3421 -2.3404
  952MOL0     H28457   3.264   3.720  11.337  0.1425 -1.4129  0.1855
  952MOL0     H28458   3.335   3.694  11.170 -1.4327 -1.5975 -2.9820
  952MOL0     H28459   3.395   3.470  11.224  0.1973  0.6824 -1.8289
  952MOL0     H28460   3.314   3.500  11.393  1.0224  2.1764  1.6826
  952MOL0     H28461   3.544   3.672  11.318  0.4267  0.3638  0.2667
  952MOL0     H28462   3.474   3.620  11.483  0.9599 -0.2422  0.7582
  952MOL0     H28463   3.571   3.387  11.408 -2.0747  0.6549 -0.4021
  952MOL0     H28464   3.644   3.476  11.278 -1.2432 -2.1607  0.4333
  952MOL0     H28465   3.649   3.527  11.589 -0.0602  3.3778  1.3476
  952MOL0     H28466   3.776   3.434  11.500 -0.2510 -0.1114  0.0270
  952MOL0     H28467   3.707   3.737  11.455 -0.4876 -0.3047 -6.3452
  952MOL0     H28468   3.823   3.648  11.357  1.5599  1.4191 -0.5622
  952MOL0     H28469   3.951   3.773  11.543  1.4464 -0.5030  1.4749
  952MOL0     H28470   3.821   3.716  11.646  0.1514 -0.4171 -0.6467
  952MOL0     H28471   4.133   3.565  11.434  2.0322 -1.0473  0.5132
  952MOL0     H28472   4.190   3.244  11.492  0.7458  0.4578 -1.2710
  952MOL0     H28473   4.314   3.372  11.497  0.5380 -0.6285  1.7818
  952MOL0     H28474   4.222   3.206  11.732 -0.1100 -1.1636 -1.8938
  952MOL0     H28475   4.372   3.187  11.640 -0.4612 -2.0409  1.5169
  952MOL0     H28476   4.315   3.453  11.796  1.1325  0.9509 -0.0820
  952MOL0     H28477   4.447   3.420  11.695 -2.0276  0.2247 -0.7850
  952MOL0     H28478   4.540   3.244  11.842  0.4598  0.0886 -0.4934
  952MOL0     H28479   4.385   3.231  11.928  3.0167 -2.3020 -0.3774
  952MOL0     H28480   4.480   3.498  12.209  1.2392  0.6329 -0.2667
  952MOL0     H28481   4.567   3.431  12.416 -1.3425 -0.0679  1.4450
  952MOL0     H28482   4.697   3.087  12.753  0.4464 -1.7888  0.5527
  952MOL0     H28483   4.842   3.017  12.933  1.0442  1.1414  0.5583
  952MOL0     H28484   4.965   3.274  13.106  1.5033  0.0862 -2.3584
  952MOL0     H28485   4.938   3.106  13.141  1.5549 -2.7249  0.0906
  952MOL0     H28486   5.089   3.113  13.307  0.9742 -0.3228 -0.3720
  952MOL0     H28487   5.218   3.164  13.197  0.4417  0.5141 -2.2345
  952MOL0     H28488   5.121   3.399  13.207  0.2279  1.5832  2.2464
  952MOL0     H28489   5.006   3.337  13.326  1.5403 -0.1264  2.5711
  952MOL0     H28490   5.311   3.336  13.365  1.6045  0.1320  3.6438
  952MOL0     H28491   5.181   3.311  13.488 -2.2083 -0.5080 -0.4392
  952MOL0     H28492   5.238   3.579  13.354  2.8673 -0.9290  0.0768
  952MOL0     H28493   5.250   3.526  13.522 -0.8314  0.1458 -0.2079
  952MOL0     H28494   4.993   3.538  13.364  0.5725 -1.8989 -0.8134
  952MOL0     H28495   5.026   3.470  13.533 -3.1200 -0.0305  0.7601
  952MOL0     H28496   4.922   3.691  13.543 -0.3674 -1.1176 -2.5943
  952MOL0     H28497   5.031   3.762  13.427 -1.7142  0.7987 -0.7906
  952MOL0     H28498   5.064   3.830  13.662 -4.2522 -1.6803 -1.8571
  952MOL0     H28499   5.106   3.669  13.704  0.4139 -0.1506  0.7530
  952MOL0     H28500   5.121   3.324  12.797 -1.1362  1.7506  0.5455
  952MOL0     H28501   4.968   3.377  12.604  2.3834  0.4496  0.4833
  952MOL0     H28502   4.728   3.075  12.225 -1.0097 -1.9852  1.4516
  952MOL0     H28503   4.638   3.145  12.021 -0.8782 -0.6899  0.9293
  952MOL0     H28504   2.912   3.483  11.511 -1.3784  2.7087  0.9576
  952MOL0     H28505   2.675   3.429  11.513  0.7082  0.9599  1.3533
  952MOL0     H28506   2.248   3.528  11.546  2.2669  1.0229 -0.9581
  952MOL0     H28507   2.020   3.496  11.542 -0.8246  1.0364 -0.3464
  952MOL0     H28508   1.706   3.507  11.358  2.0720  0.7339 -0.4154
  952MOL0     H28509   1.815   3.541  11.495  3.0296  0.9224 -2.1395
  952MOL0     H28510   1.769   3.312  11.575  1.0663  0.4732 -1.3222
  952MOL0     H28511   1.670   3.277  11.428  0.3420  0.0932 -0.5248
  952MOL0     H28512   1.509   3.428  11.502  0.7736 -3.0359 -1.2944
  952MOL0     H28513   1.587   3.472  11.654  0.2747 -1.0257  0.8099
  952MOL0     H28514   1.459   3.198  11.571  0.5793  1.3949 -3.1931
  952MOL0     H28515   1.578   3.217  11.704  2.7034  0.0968 -2.7050
  952MOL0     H28516   1.258   3.392  11.908 -1.0565 -1.0773 -0.6853
  952MOL0     H28517   2.014   3.329  11.162 -0.9979 -0.8563  0.8894
  952MOL0     H28518   2.393   3.340  11.092  0.7570  1.5473 -0.2716
  952MOL0     H28519   2.240   3.364  11.014  1.5749 -0.2806 -0.1983
  952MOL0     H28520   2.350   3.500  11.072  1.7772  0.9541  4.8064
  953MOL0     O28521  10.416   8.925   2.120  0.6176 -0.5591  0.3586
  953MOL0     C28522  10.305   8.906   2.169 -0.5917 -0.2877  0.5151
  953MOL0     O28523  10.278   8.830   2.274  0.2798  0.3421  0.1790
  953MOL0     C28524  10.369   8.758   2.346 -0.5460 -0.1972 -0.4491
  953MOL0     C28525  10.308   8.658   2.423 -0.5072 -0.4627  0.5355
  953MOL0     C28526  10.370   8.576   2.512 -0.4375  0.1019 -0.5319
  953MOL0     C28527  10.511   8.594   2.523  0.2321 -0.4167 -0.3716
  953MOL0     O28528  10.597   8.518   2.588 -0.1376 -0.1805  0.7587
  953MOL0     C28529  10.553   8.408   2.664  0.1220 -0.2827  0.1374
  953MOL0     C28530  10.541   8.278   2.583  1.0815  0.8007 -0.0410
  953MOL0     C28531  10.639   8.249   2.466  0.0851 -0.1422  0.5156
  953MOL0     C28532  10.777   8.244   2.525 -0.0092 -0.0185  0.3846
  953MOL0     C28533  10.872   8.174   2.429  0.4001 -0.5970 -0.3620
  953MOL0     C28534  11.016   8.204   2.467  0.3495 -0.2134 -0.2076
  953MOL0     C28535  11.121   8.155   2.360  0.6602 -1.1055 -0.3676
  953MOL0     C28536  11.265   8.161   2.428  0.3189 -0.1870 -0.1982
  953MOL0     N28537  11.288   8.045   2.515  0.2934 -0.2365  0.3413
  953MOL0     C28538  11.335   7.925   2.457  0.3033 -0.7141 -0.0217
  953MOL0     C28539  11.337   7.843   2.560  0.2754  0.0020 -0.4769
  953MOL0     C28540  11.393   7.705   2.587 -0.3728 -0.4587 -0.2659
  953MOL0     C28541  11.539   7.682   2.557 -0.0289  0.3054  0.8357
  953MOL0     C28542  11.593   7.561   2.639  0.3671  0.1109  0.6726
  953MOL0     C28543  11.685   7.475   2.557  0.8774 -0.1464  0.6248
  953MOL0     O28544  11.777   7.563   2.481 -0.1980 -0.5510 -0.0470
  953MOL0     C28545  11.881   7.643   2.540  0.9208 -0.2112 -0.0817
  953MOL0     C28546  11.968   7.710   2.460 -0.5335  0.3509  0.2497
  953MOL0     C28547  12.083   7.785   2.509 -0.6467 -0.4391 -0.1758
  953MOL0     C28548  12.120   7.782   2.645 -0.0706  0.6773  0.6727
  953MOL0     C28549  12.245   7.842   2.711  0.2630 -0.1856  0.2819
  953MOL0     O28550  12.252   7.831   2.847 -0.9704 -0.6779  0.5996
  953MOL0     C28551  12.369   7.859   2.909 -0.2754 -0.1823  0.4082
  953MOL0     C28552  12.380   7.966   3.003 -0.2915  0.8282 -0.0887
  953MOL0     C28553  12.504   7.980   3.079  1.1420 -0.4127 -0.7322
  953MOL0     C28554  12.613   7.906   3.044 -0.4914  0.5369  0.0100
  953MOL0     O28555  12.735   7.904   3.108 -0.3454 -0.2960  0.0056
  953MOL0     C28556  12.761   8.016   3.195 -0.3190  0.6632 -0.0304
  953MOL0     C28557  12.792   8.140   3.111  1.3614  0.0981 -0.3584
  953MOL0     C28558  12.897   8.113   3.004  0.7647 -0.1373  0.5400
  953MOL0     C28559  12.900   8.235   2.916  0.2776 -0.2596 -0.0504
  953MOL0     C28560  13.024   8.220   2.828  0.3210  0.0870  0.1112
  953MOL0     C28561  13.153   8.259   2.896 -0.3251  0.8858  0.0591
  953MOL0     C28562  13.264   8.233   2.794 -0.1286  1.3740 -0.2397
  953MOL0     C28563  13.293   8.336   2.693 -0.3921  0.4445  0.0361
  953MOL0    Cl28564  13.403   8.268   2.586 -0.3696  0.3441 -0.2018
  953MOL0     C28565  12.599   7.806   2.944 -0.6392  0.4256  0.4061
  953MOL0     C28566  12.484   7.780   2.883 -0.6920 -0.2717  0.2358
  953MOL0     O28567  12.323   7.902   2.641 -0.4737  0.0207 -0.1251
  953MOL0     C28568  12.032   7.716   2.721  0.4794 -0.6553  0.0244
  953MOL0     C28569  11.919   7.644   2.674  0.0030  1.0360 -0.7391
  953MOL0     N28570  11.294   7.907   2.675  0.4339  1.5300 -0.3923
  953MOL0     N28571  11.278   8.038   2.651 -0.4972 -0.1870 -0.8908
  953MOL0     C28572  10.570   8.701   2.446 -0.7574 -0.0181 -0.3479
  953MOL0     C28573  10.505   8.787   2.361 -0.1511  0.5566  1.0939
  953MOL0     C28574  10.183   8.952   2.095 -0.1839  0.3361  0.1225
  953MOL0     C28575  10.074   8.859   2.079  0.0460 -0.3059 -0.8463
  953MOL0     C28576   9.962   8.885   1.994  0.5638  0.0029  0.1231
  953MOL0     C28577   9.958   9.004   1.929  0.1939  0.0808 -0.0363
  953MOL0     O28578   9.848   9.043   1.855 -0.0540 -0.0104  0.1701
  953MOL0     C28579   9.754   9.113   1.931 -0.5976 -0.4135 -0.2339
  953MOL0     C28580   9.611   9.109   1.866 -0.0044  0.5298  0.2190
  953MOL0     C28581   9.520   9.220   1.925 -0.1803 -1.0328 -0.7140
  953MOL0     C28582   9.490   9.201   2.080  0.0939  0.4879  0.1944
  953MOL0     C28583   9.435   9.323   2.142  0.6523  0.9711 -0.4739
  953MOL0     C28584   9.381   9.410   2.198  0.5507 -1.0155 -0.1169
  953MOL0     C28585  10.056   9.098   1.954 -0.6668  0.3693  0.2537
  953MOL0     C28586  10.167   9.068   2.028 -0.5954  0.0855  1.0288
  953MOL0     C28587  10.268   9.173   2.056  1.1478 -1.5414 -0.5419
  953MOL0     H28588  10.199   8.660   2.417 -0.4958 -0.1467  0.3984
  953MOL0     H28589  10.324   8.491   2.562  1.5753 -1.2489 -0.8845
  953MOL0     H28590  10.632   8.377   2.733  0.3951 -0.8581 -0.4217
  953MOL0     H28591  10.466   8.437   2.724 -1.0598 -0.2712 -1.5013
  953MOL0     H28592  10.448   8.290   2.527  0.8446 -1.8161 -0.3624
  953MOL0     H28593  10.550   8.201   2.660  0.7067  4.2144  3.7331
  953MOL0     H28594  10.644   8.320   2.383  0.6396 -2.6877 -1.7763
  953MOL0     H28595  10.602   8.157   2.419 -1.7176 -0.0037  1.5666
  953MOL0     H28596  10.807   8.345   2.551  0.1200  0.6027 -1.9611
  953MOL0     H28597  10.770   8.201   2.625 -3.8090 -0.1141  0.2407
  953MOL0     H28598  10.853   8.068   2.447 -1.8466 -0.5291 -1.8825
  953MOL0     H28599  10.857   8.212   2.328  1.0883  2.1468  0.4822
  953MOL0     H28600  11.022   8.313   2.477 -0.0839 -0.0614 -1.5377
  953MOL0     H28601  11.030   8.156   2.565  0.7772  0.2180 -0.0491
  953MOL0     H28602  11.119   8.219   2.271  0.1272  1.5804  1.4918
  953MOL0     H28603  11.104   8.050   2.332 -0.5557 -1.9136  2.9377
  953MOL0     H28604  11.346   8.156   2.354  1.1083  0.1991  0.6310
  953MOL0     H28605  11.269   8.249   2.493  0.4709  0.0984 -0.5809
  953MOL0     H28606  11.371   7.903   2.356  1.4674 -0.9202  0.4285
  953MOL0     H28607  11.375   7.687   2.694  0.7454  0.3427  0.0688
  953MOL0     H28608  11.341   7.637   2.518 -0.7181 -1.4363  0.9002
  953MOL0     H28609  11.554   7.671   2.449 -1.5990 -0.7709  0.6939
  953MOL0     H28610  11.588   7.768   2.604 -0.5749  1.2244 -0.2501
  953MOL0     H28611  11.510   7.501   2.677  2.2573 -1.8817  1.8081
  953MOL0     H28612  11.640   7.599   2.730 -0.8160  2.4278  0.4014
  953MOL0     H28613  11.630   7.398   2.502  3.6904 -1.0000 -1.1552
  953MOL0     H28614  11.744   7.408   2.621 -0.9823 -0.2890  2.3204
  953MOL0     H28615  11.926   7.715   2.360  1.5622 -3.2052 -0.9625
  953MOL0     H28616  12.135   7.849   2.439 -1.0758 -0.2857 -0.3586
  953MOL0     H28617  12.294   8.030   3.021 -4.0060 -3.8545  0.8171
  953MOL0     H28618  12.511   8.045   3.166 -2.7669 -1.3787  0.4916
  953MOL0     H28619  12.694   8.037   3.278 -0.6406  3.6485 -0.9321
  953MOL0     H28620  12.857   7.995   3.243  0.8350  2.3056 -1.4827
  953MOL0     H28621  12.698   8.173   3.065  1.3484 -1.1708 -1.2818
  953MOL0     H28622  12.831   8.215   3.181 -0.6998 -1.6782  2.9432
  953MOL0     H28623  12.993   8.099   3.054  0.5151  1.7381  1.6584
  953MOL0     H28624  12.867   8.029   2.940 -0.7974  0.3283  0.6049
  953MOL0     H28625  12.882   8.327   2.972 -1.5608 -0.0258 -0.9678
  953MOL0     H28626  12.819   8.224   2.844  2.8405 -3.3618 -2.7736
  953MOL0     H28627  13.010   8.287   2.743  2.1157 -0.8886 -1.0279
  953MOL0     H28628  13.038   8.117   2.793  1.4272  1.2263 -3.2084
  953MOL0     H28629  13.152   8.362   2.933 -1.1029  0.7669  0.3941
  953MOL0     H28630  13.167   8.197   2.985  2.3717  5.1586  2.9977
  953MOL0     H28631  13.225   8.154   2.730  0.6584  1.2665 -0.6026
  953MOL0     H28632  13.358   8.209   2.846 -1.1517 -1.8615  0.3220
  953MOL0     H28633  13.194   8.351   2.649 -0.9655 -2.5142  0.1154
  953MOL0     H28634  13.342   8.422   2.741  0.5824 -1.4118  2.6015
  953MOL0     H28635  12.690   7.753   2.918 -2.8142 -2.3139 -2.5284
  953MOL0     H28636  12.474   7.700   2.810  1.9598  0.8978 -1.5474
  953MOL0     H28637  12.055   7.715   2.826 -0.4846 -1.3053  0.2455
  953MOL0     H28638  11.877   7.583   2.754  1.6236  0.5617 -0.2190
  953MOL0     H28639  10.675   8.720   2.463 -0.6770 -1.3222  0.6946
  953MOL0     H28640  10.550   8.852   2.287  0.8823 -0.7754  0.4912
  953MOL0     H28641  10.079   8.764   2.130  1.5889  2.1611  4.2433
  953MOL0     H28642   9.875   8.821   2.000  0.1865  0.2393 -2.0976
  953MOL0     H28643   9.795   9.212   1.950  1.9014 -1.8745  2.9255
  953MOL0     H28644   9.756   9.071   2.032  3.5858 -3.8317 -1.4735
  953MOL0     H28645   9.570   9.008   1.869  0.0125  0.3847 -2.4058
  953MOL0     H28646   9.627   9.133   1.760  1.5177 -0.5033  0.1876
  953MOL0     H28647   9.426   9.229   1.870 -1.9777 -0.2325  2.2200
  953MOL0     H28648   9.567   9.318   1.919  0.1988 -1.0610  1.1712
  953MOL0     H28649   9.415   9.123   2.096  1.9401 -1.7670 -1.3085
  953MOL0     H28650   9.576   9.162   2.135  0.4713  0.5454 -0.3427
  953MOL0     H28651   9.326   9.487   2.248  1.5377 -0.4004  0.0553
  953MOL0     H28652  10.035   9.203   1.935  0.1975  0.2989 -1.2581
  953MOL0     H28653  10.366   9.155   2.009 -0.1859 -0.0521 -4.2239
  953MOL0     H28654  10.236   9.263   2.004 -3.1331 -2.0322  0.9159
  953MOL0     H28655  10.266   9.198   2.162  1.2887 -0.0076 -0.8788
  954MOL0     O28656   1.020   6.515   0.087 -0.3438  0.5027  0.6809
  954MOL0     C28657   1.004   6.400   0.066  0.2306  0.1635 -0.0726
  954MOL0     O28658   1.100   6.311   0.055  0.1352  0.2224 -0.0469
  954MOL0     C28659   1.231   6.337   0.109 -1.1655 -0.0582  0.1881
  954MOL0     C28660   1.296   6.229   0.157  0.3721  0.6740 -0.1695
  954MOL0     C28661   1.424   6.232   0.216 -0.4217  0.5295 -0.7927
  954MOL0     C28662   1.490   6.355   0.219  0.4384 -0.0717 -0.6444
  954MOL0     O28663   1.613   6.363   0.280  0.0526  0.1625 -0.2479
  954MOL0     C28664   1.727   6.396   0.196  0.8118 -1.0710 -0.0763
  954MOL0     C28665   1.853   6.405   0.273 -0.1075 -0.2952  0.6535
  954MOL0     C28666   1.983   6.417   0.182  0.1348 -0.4420  0.6079
  954MOL0     C28667   2.029   6.284   0.123 -0.2264  0.4686  0.0955
  954MOL0     C28668   2.184   6.271   0.123  0.5114  0.5759 -0.2682
  954MOL0     C28669   2.259   6.214   0.250  0.3047  0.5154  0.5289
  954MOL0     C28670   2.415   6.233   0.255  0.7660  0.4202 -0.2487
  954MOL0     C28671   2.464   6.374   0.248 -0.1141 -0.0974  0.3731
  954MOL0     N28672   2.597   6.382   0.298 -0.7325  0.2052  0.4053
  954MOL0     C28673   2.696   6.299   0.260 -0.5549  0.6238  0.4606
  954MOL0     C28674   2.808   6.369   0.314 -1.3761  0.3503  0.3939
  954MOL0     C28675   2.955   6.317   0.296  1.0828 -0.4973 -0.0778
  954MOL0     C28676   3.067   6.411   0.355 -0.7842 -0.1672  0.0034
  954MOL0     C28677   3.076   6.542   0.272 -0.1749 -0.2654  0.6283
  954MOL0     C28678   3.194   6.635   0.313  0.3028  0.3998  0.4648
  954MOL0     O28679   3.202   6.745   0.215 -0.2981  0.2713  0.0049
  954MOL0     C28680   3.312   6.832   0.221  0.6664 -0.0445  0.0855
  954MOL0     C28681   3.391   6.838   0.111 -0.3959  0.1541 -0.1523
  954MOL0     C28682   3.502   6.927   0.109 -0.9511  1.0949 -0.3037
  954MOL0     C28683   3.508   7.027   0.210  0.1830 -0.0362  0.0380
  954MOL0     C28684   3.618   7.133   0.193  0.0886 -0.2896 -0.1041
  954MOL0     O28685   3.678   7.146   0.070 -0.3319 -0.1132 -0.4066
  954MOL0     C28686   3.768   7.246   0.047 -0.3412  0.3933 -0.7686
  954MOL0     C28687   3.907   7.234   0.079 -0.3903  0.1797  0.6061
  954MOL0     C28688   3.995   7.335   0.041 -0.5405  0.6381 -0.7825
  954MOL0     C28689   3.954   7.456  -0.007 -0.5973 -0.1882  0.5446
  954MOL0     O28690   4.029   7.568  -0.041 -0.0340 -0.4173 -0.7114
  954MOL0     C28691   4.170   7.556  -0.066 -0.7588  0.0741 -0.1434
  954MOL0     C28692   4.236   7.684  -0.080 -0.6694 -0.2012 -0.0050
  954MOL0     C28693   4.367   7.673  -0.170 -0.0069  0.1239  0.0184
  954MOL0     C28694   4.454   7.790  -0.149 -0.3178 -1.1277 -0.8034
  954MOL0     C28695   4.592   7.783  -0.226 -0.9854 -1.0497 -0.1323
  954MOL0     C28696   4.700   7.731  -0.132  0.4124 -0.0753  0.7437
  954MOL0     C28697   4.833   7.701  -0.202 -0.3890 -0.3639 -0.4700
  954MOL0     C28698   4.814   7.614  -0.329 -0.1175  0.5864 -0.2154
  954MOL0    Cl28699   4.961   7.542  -0.365  0.0350 -0.0522  0.5512
  954MOL0     C28700   3.819   7.472  -0.023  0.4848 -0.4464 -0.6154
  954MOL0     C28701   3.725   7.375  -0.008 -0.0500  0.7917 -0.7586
  954MOL0     O28702   3.648   7.204   0.288  0.1464 -0.1871 -0.1059
  954MOL0     C28703   3.422   7.020   0.316  0.2125 -0.5720 -1.4364
  954MOL0     C28704   3.329   6.920   0.328 -0.4857  0.0820  0.0629
  954MOL0     N28705   2.774   6.487   0.375 -0.2967  0.5931 -0.4843
  954MOL0     N28706   2.642   6.493   0.355 -0.0638 -0.1350  0.6123
  954MOL0     C28707   1.433   6.469   0.162 -0.5338 -0.3013  0.2607
  954MOL0     C28708   1.300   6.459   0.102 -0.8677  0.0613 -0.3232
  954MOL0     C28709   0.871   6.338   0.049  0.5014 -0.5012  0.6015
  954MOL0     C28710   0.849   6.205   0.073 -0.5118 -0.0611 -0.9029
  954MOL0     C28711   0.725   6.146   0.067 -0.2775 -0.9747  0.4072
  954MOL0     C28712   0.615   6.223   0.023 -0.0351 -0.6135  0.1916
  954MOL0     O28713   0.481   6.177   0.011 -0.2643  0.6322 -0.2498
  954MOL0     C28714   0.459   6.038  -0.006  0.1617  0.9632 -0.4495
  954MOL0     C28715   0.531   5.985  -0.127  0.5638 -0.5465  0.2298
  954MOL0     C28716   0.476   5.864  -0.205  0.1116  0.2561 -0.1121
  954MOL0     C28717   0.329   5.875  -0.265 -0.2753  0.0945  0.0925
  954MOL0     C28718   0.327   5.961  -0.384  0.1313 -0.4031 -0.2757
  954MOL0     C28719   0.319   6.011  -0.491 -0.1841 -0.8059  0.4697
  954MOL0     C28720   0.636   6.359  -0.008 -0.5100  0.2054 -0.4214
  954MOL0     C28721   0.764   6.416   0.003 -0.3867 -0.0424  0.6021
  954MOL0     C28722   0.781   6.559  -0.041 -0.4287  0.6327  0.0305
  954MOL0     H28723   1.239   6.139   0.137 -0.7942  1.2276  0.5659
  954MOL0     H28724   1.459   6.141   0.263 -0.8435  1.2236  0.9277
  954MOL0     H28725   1.733   6.319   0.118  0.1094  0.1745 -1.4251
  954MOL0     H28726   1.712   6.493   0.146 -1.7881 -2.1364 -1.5847
  954MOL0     H28727   1.856   6.319   0.341  1.3782 -0.2567  0.6782
  954MOL0     H28728   1.856   6.500   0.327 -0.7816 -2.2196  4.4431
  954MOL0     H28729   2.061   6.459   0.245  2.1490 -1.0310 -1.3615
  954MOL0     H28730   1.962   6.491   0.105  0.1158 -3.8807 -3.0242
  954MOL0     H28731   1.988   6.208   0.190 -0.8711  3.1467  2.9843
  954MOL0     H28732   1.984   6.284   0.023  1.6438  0.0130 -0.7962
  954MOL0     H28733   2.224   6.219   0.036  3.2830  1.9310  0.0786
  954MOL0     H28734   2.227   6.369   0.097 -0.2854  1.4445  1.5057
  954MOL0     H28735   2.226   6.265   0.341 -1.4977  1.5211 -0.6135
  954MOL0     H28736   2.242   6.108   0.273 -2.1857  0.4247 -1.1703
  954MOL0     H28737   2.463   6.169   0.180 -0.7895 -0.8334 -0.2266
  954MOL0     H28738   2.446   6.194   0.353 -0.4230 -0.8090 -0.3213
  954MOL0     H28739   2.477   6.401   0.143  4.3502  0.9252  0.9602
  954MOL0     H28740   2.404   6.451   0.299  1.0147  1.0959 -0.0379
  954MOL0     H28741   2.681   6.204   0.211  0.7876 -0.2639  1.6859
  954MOL0     H28742   2.968   6.226   0.355  1.2242 -2.2678 -2.6860
  954MOL0     H28743   2.987   6.306   0.192  3.2477  2.3351  0.1657
  954MOL0     H28744   3.034   6.450   0.452  0.4200  0.0696  0.3338
  954MOL0     H28745   3.165   6.365   0.345 -0.4680  0.0416  1.8183
  954MOL0     H28746   2.985   6.602   0.260 -0.1158 -0.6128 -2.0181
  954MOL0     H28747   3.099   6.512   0.169 -0.6790 -0.6049  0.6129
  954MOL0     H28748   3.292   6.586   0.310  0.8965  1.5352  0.9049
  954MOL0     H28749   3.180   6.674   0.414 -1.8487 -1.0103  0.7800
  954MOL0     H28750   3.371   6.776   0.024  1.0691  0.3857 -0.6748
  954MOL0     H28751   3.573   6.913   0.029 -2.3947 -1.0363 -1.3111
  954MOL0     H28752   3.953   7.150   0.131  2.9422  0.9302 -0.8869
  954MOL0     H28753   4.101   7.315   0.058 -0.7605  0.8421  1.0063
  954MOL0     H28754   4.226   7.494   0.005 -0.7688 -0.6232 -0.7290
  954MOL0     H28755   4.181   7.493  -0.155  1.0233 -1.3240  1.0010
  954MOL0     H28756   4.169   7.753  -0.130 -0.4585  0.8204  1.0711
  954MOL0     H28757   4.258   7.734   0.015 -1.2991  1.1964 -0.5672
  954MOL0     H28758   4.431   7.590  -0.139 -0.8639  0.0256  1.6652
  954MOL0     H28759   4.348   7.663  -0.277  0.4278 -0.4432 -0.0110
  954MOL0     H28760   4.457   7.827  -0.046 -2.6839 -0.0152 -1.0671
  954MOL0     H28761   4.400   7.872  -0.199 -1.0386 -1.7542 -1.0764
  954MOL0     H28762   4.626   7.885  -0.240 -3.7024  0.0665  0.6382
  954MOL0     H28763   4.578   7.724  -0.317 -0.0710 -1.7261  0.1445
  954MOL0     H28764   4.702   7.800  -0.048  0.4798 -0.0620  0.7303
  954MOL0     H28765   4.664   7.637  -0.090  0.7499 -0.9798 -0.8841
  954MOL0     H28766   4.904   7.643  -0.143  0.4559 -0.8108 -1.9026
  954MOL0     H28767   4.878   7.798  -0.227 -1.5949  0.9310  2.0032
  954MOL0     H28768   4.747   7.529  -0.313  0.3202  0.3695  0.4684
  954MOL0     H28769   4.776   7.677  -0.411 -0.2018  0.4830 -0.2573
  954MOL0     H28770   3.785   7.568  -0.062 -2.7078 -0.2820  2.1314
  954MOL0     H28771   3.621   7.403  -0.023 -0.9916 -1.8137  0.2856
  954MOL0     H28772   3.426   7.095   0.395 -1.4453  0.4563 -2.2874
  954MOL0     H28773   3.260   6.904   0.410 -1.6396 -0.0601 -0.9061
  954MOL0     H28774   1.500   6.554   0.159  1.8564 -2.1056 -0.7021
  954MOL0     H28775   1.256   6.545   0.053 -2.1910 -1.7500 -2.5322
  954MOL0     H28776   0.930   6.138   0.100 -1.4025 -0.8137 -0.0131
  954MOL0     H28777   0.694   6.046   0.095 -2.1072 -0.6892 -0.4154
  954MOL0     H28778   0.353   6.012  -0.012  0.7122 -1.1951 -3.0127
  954MOL0     H28779   0.499   5.984   0.080 -2.3210 -2.7578 -1.3850
  954MOL0     H28780   0.638   5.981  -0.106  0.1893  0.8585  2.8354
  954MOL0     H28781   0.524   6.070  -0.195  0.6578  2.6887  3.8995
  954MOL0     H28782   0.479   5.769  -0.149 -2.6519  0.2529  0.1900
  954MOL0     H28783   0.540   5.825  -0.284  2.1453 -1.1173  2.0613
  954MOL0     H28784   0.285   5.778  -0.289  2.4794 -0.8413 -1.5476
  954MOL0     H28785   0.259   5.910  -0.188  0.1565  0.6439  0.2436
  954MOL0     H28786   0.311   6.059  -0.586  0.7121 -0.1231  0.7230
  954MOL0     H28787   0.559   6.425  -0.049  0.2201  1.7207  0.5419
  954MOL0     H28788   0.703   6.572  -0.116  0.1869 -1.1593 -0.9806
  954MOL0     H28789   0.793   6.627   0.044  0.5633  2.1134 -1.2453
  954MOL0     H28790   0.871   6.585  -0.097 -0.4907  2.8687  0.8934
  955MOL0     O28791   1.662   1.636   2.017 -0.1792  0.0375 -0.1205
  955MOL0     C28792   1.706   1.553   2.098  0.2766 -0.5670  0.4772
  955MOL0     O28793   1.785   1.583   2.203  0.0196  0.1356  0.6875
  955MOL0     C28794   1.839   1.709   2.189  0.9359  0.3479 -0.8680
  955MOL0     C28795   1.801   1.799   2.287 -0.1509 -0.4586 -0.0513
  955MOL0     C28796   1.874   1.917   2.294  0.2950 -0.4715 -0.4579
  955MOL0     C28797   1.969   1.948   2.195  0.3860 -0.4931  0.2531
  955MOL0     O28798   2.050   2.057   2.177  0.1874 -0.0637  0.6365
  955MOL0     C28799   2.057   2.164   2.274 -0.2045  0.3957 -0.9154
  955MOL0     C28800   2.197   2.236   2.275  0.3826  0.3724 -0.6889
  955MOL0     C28801   2.221   2.314   2.151 -0.5950 -0.0097  0.9423
  955MOL0     C28802   2.357   2.387   2.152 -0.3085  0.2204  0.1764
  955MOL0     C28803   2.369   2.509   2.249  0.0878  0.5631  0.0097
  955MOL0     C28804   2.262   2.616   2.221  0.1070 -0.2442 -0.3431
  955MOL0     C28805   2.279   2.731   2.317  0.2457  0.2197  0.0760
  955MOL0     C28806   2.200   2.858   2.271 -0.5386 -0.1927 -0.1054
  955MOL0     N28807   2.061   2.838   2.230 -0.4110  0.4533  0.2514
  955MOL0     C28808   2.001   2.830   2.100 -0.1532 -0.0866 -0.1029
  955MOL0     C28809   1.874   2.807   2.132  0.3690 -0.0827 -0.0535
  955MOL0     C28810   1.763   2.785   2.030 -0.3899 -0.3620 -0.2958
  955MOL0     C28811   1.677   2.658   2.067  0.1163 -0.2951 -0.3488
  955MOL0     C28812   1.761   2.528   2.027 -0.4189 -0.7829  0.1740
  955MOL0     C28813   1.695   2.395   2.075  0.0409 -0.2226 -0.2858
  955MOL0     O28814   1.571   2.360   2.004 -0.1673 -0.4518 -0.6082
  955MOL0     C28815   1.523   2.235   2.027 -0.3170  0.6849  0.0938
  955MOL0     C28816   1.590   2.122   2.084  0.6543 -0.2797 -0.3754
  955MOL0     C28817   1.520   2.002   2.101  0.5373 -0.8276  0.1069
  955MOL0     C28818   1.386   1.979   2.049  0.0093 -0.1764 -0.3489
  955MOL0     C28819   1.316   1.853   2.066  0.2662  0.5143  0.0638
  955MOL0     O28820   1.359   1.773   2.161 -0.8639  0.5370 -0.4685
  955MOL0     C28821   1.326   1.648   2.185  0.0894  0.2201  0.6513
  955MOL0     C28822   1.237   1.567   2.113 -1.3379  0.1039 -0.3744
  955MOL0     C28823   1.209   1.435   2.146  0.0085  0.6444  0.2640
  955MOL0     C28824   1.275   1.382   2.253 -0.3262  0.7849  0.0797
  955MOL0     O28825   1.252   1.259   2.291 -0.1244 -0.9529  0.4216
  955MOL0     C28826   1.347   1.165   2.242 -0.6713  0.6559 -0.1061
  955MOL0     C28827   1.324   1.025   2.307  0.4425  0.0890 -0.4406
  955MOL0     C28828   1.176   0.970   2.278  0.3899  0.2071  0.6978
  955MOL0     C28829   1.147   0.845   2.351  1.0987 -0.6162 -0.3989
  955MOL0     C28830   1.029   0.766   2.304 -0.2968  1.0356 -0.0133
  955MOL0     C28831   1.007   0.652   2.404 -0.6523  0.9780 -0.9896
  955MOL0     C28832   0.900   0.677   2.506 -0.3890 -0.3907  0.1350
  955MOL0     C28833   0.893   0.554   2.607  0.2926  0.2473  0.4702
  955MOL0    Cl28834   1.043   0.565   2.700 -0.2977 -0.2298 -0.1127
  955MOL0     C28835   1.378   1.450   2.317  0.1630 -0.8547 -0.0513
  955MOL0     C28836   1.395   1.584   2.288 -0.3511 -0.0629 -0.8702
  955MOL0     O28837   1.216   1.837   2.003  0.1497 -0.6010  0.2496
  955MOL0     C28838   1.319   2.091   2.000  0.2895  0.8158 -0.5211
  955MOL0     C28839   1.384   2.219   1.994 -0.0236 -0.3995  0.4469
  955MOL0     N28840   1.850   2.810   2.268 -0.2231 -0.0773  0.4648
  955MOL0     N28841   1.964   2.834   2.327 -0.3055  0.3863 -0.1562
  955MOL0     C28842   2.013   1.856   2.108 -1.0292  1.1737  0.1088
  955MOL0     C28843   1.939   1.737   2.101  0.1822 -0.2204  0.0874
  955MOL0     C28844   1.685   1.409   2.074  0.3158  0.0557 -0.5884
  955MOL0     C28845   1.735   1.319   2.164 -1.0667 -0.4955  0.0817
  955MOL0     C28846   1.736   1.178   2.143  0.7214 -0.1671 -0.5545
  955MOL0     C28847   1.677   1.129   2.029  0.2486 -0.6543 -0.7663
  955MOL0     O28848   1.666   0.998   2.005 -0.7190 -0.2081 -0.6740
  955MOL0     C28849   1.791   0.922   2.029  0.8032 -1.2556 -0.3385
  955MOL0     C28850   1.802   0.785   1.957 -0.0997 -0.1181 -0.8710
  955MOL0     C28851   1.734   0.788   1.816  0.6691  0.8019 -0.3288
  955MOL0     C28852   1.784   0.904   1.715  0.2382 -0.2915  0.2393
  955MOL0     C28853   1.930   0.902   1.704 -0.1602 -0.4139  0.2253
  955MOL0     C28854   2.048   0.900   1.679 -0.2332  0.3406  0.1121
  955MOL0     C28855   1.612   1.220   1.949  0.1327  0.8664 -0.6799
  955MOL0     C28856   1.606   1.355   1.969  0.0441  0.1045 -0.5158
  955MOL0     C28857   1.528   1.431   1.860 -0.2107 -0.5988 -0.2577
  955MOL0     H28858   1.723   1.769   2.357  0.5043 -0.7798  0.5635
  955MOL0     H28859   1.850   1.983   2.377  1.6435 -3.1109  2.2416
  955MOL0     H28860   1.970   2.230   2.268 -0.3504  0.5689  1.7215
  955MOL0     H28861   2.034   2.115   2.369 -2.6156  0.2100 -1.5225
  955MOL0     H28862   2.279   2.165   2.286 -0.4539 -0.2220  2.7389
  955MOL0     H28863   2.200   2.305   2.360 -2.0730 -1.4484  1.0000
  955MOL0     H28864   2.147   2.395   2.144  2.1583  2.7892  1.9851
  955MOL0     H28865   2.223   2.244   2.067  1.5354  0.0496  0.8878
  955MOL0     H28866   2.435   2.314   2.175  2.0658  1.8317 -2.1997
  955MOL0     H28867   2.373   2.417   2.048  0.8476 -2.1379 -0.3991
  955MOL0     H28868   2.358   2.476   2.353  0.6769  1.0205  0.2223
  955MOL0     H28869   2.468   2.554   2.243  0.0930  0.3595 -2.2765
  955MOL0     H28870   2.266   2.654   2.118 -1.3415  3.2538  0.7545
  955MOL0     H28871   2.160   2.578   2.234 -1.1124  2.6560 -0.7738
  955MOL0     H28872   2.384   2.762   2.323 -0.6619  3.5038  1.2772
  955MOL0     H28873   2.234   2.715   2.416 -1.7122 -2.9415 -1.1506
  955MOL0     H28874   2.196   2.915   2.364  1.5568 -1.9870  1.1956
  955MOL0     H28875   2.257   2.903   2.189 -0.1763 -0.1112  0.1882
  955MOL0     H28876   2.048   2.840   2.002 -0.7710  1.6937 -0.2561
  955MOL0     H28877   1.695   2.871   2.037  2.3313  1.7895  1.9991
  955MOL0     H28878   1.808   2.768   1.931  2.1392 -3.3597  1.1903
  955MOL0     H28879   1.651   2.659   2.174 -4.0217 -0.0533 -1.1810
  955MOL0     H28880   1.581   2.649   2.015  1.5761 -2.3052 -2.9442
  955MOL0     H28881   1.862   2.531   2.068 -1.1170 -3.8418  2.4878
  955MOL0     H28882   1.770   2.531   1.918  0.9963 -0.2043  0.2838
  955MOL0     H28883   1.660   2.388   2.178 -1.0865 -0.8068 -0.6900
  955MOL0     H28884   1.772   2.317   2.075  1.4214  1.0946 -0.0020
  955MOL0     H28885   1.692   2.117   2.122  1.7501  1.0872 -2.8841
  955MOL0     H28886   1.554   1.910   2.148  3.0494 -0.5618 -1.0391
  955MOL0     H28887   1.184   1.599   2.024  0.9423  0.7816 -1.5930
  955MOL0     H28888   1.138   1.376   2.090  1.4340  1.1675 -2.2604
  955MOL0     H28889   1.346   1.158   2.133 -3.8251 -2.7026 -0.0710
  955MOL0     H28890   1.445   1.197   2.278 -1.5905  1.7061  1.5645
  955MOL0     H28891   1.384   0.948   2.259 -1.4948 -1.7982 -0.0037
  955MOL0     H28892   1.351   1.021   2.413 -0.1597 -2.7040 -0.3306
  955MOL0     H28893   1.107   1.051   2.303  2.2584  2.5328 -1.1363
  955MOL0     H28894   1.175   0.948   2.171 -3.0451 -0.9445  0.8370
  955MOL0     H28895   1.131   0.869   2.457  0.6866  1.4311 -0.8799
  955MOL0     H28896   1.235   0.780   2.348  0.1080 -1.9884 -0.7372
  955MOL0     H28897   1.062   0.735   2.205 -1.6489  1.1910 -0.5459
  955MOL0     H28898   0.937   0.825   2.291 -0.0826  1.5006  0.5158
  955MOL0     H28899   0.990   0.559   2.348  0.8889  0.2604 -0.3141
  955MOL0     H28900   1.103   0.631   2.452 -0.2856 -0.9608 -2.3983
  955MOL0     H28901   0.810   0.685   2.445  0.8106 -3.3100 -2.2908
  955MOL0     H28902   0.928   0.772   2.553 -1.1942  1.3545 -2.6977
  955MOL0     H28903   0.805   0.554   2.672 -0.4380 -1.2078 -0.4755
  955MOL0     H28904   0.884   0.461   2.551 -1.1890  1.5509 -1.5621
  955MOL0     H28905   1.442   1.395   2.386  2.1317 -0.3026 -1.3298
  955MOL0     H28906   1.466   1.646   2.342 -0.9573 -1.1292  1.2997
  955MOL0     H28907   1.221   2.087   1.955  0.1927 -1.2321 -0.2258
  955MOL0     H28908   1.334   2.300   1.943 -1.3630 -2.1165 -1.0839
  955MOL0     H28909   2.085   1.873   2.029 -2.1839  0.4490 -1.1405
  955MOL0     H28910   1.976   1.666   2.028  0.0244 -1.4337  1.1358
  955MOL0     H28911   1.789   1.353   2.252 -0.6166 -0.8747 -0.0456
  955MOL0     H28912   1.790   1.115   2.213 -0.8583  0.7189  1.5807
  955MOL0     H28913   1.783   0.895   2.135  2.8008  2.8580  1.0629
  955MOL0     H28914   1.876   0.990   2.016  0.1935 -0.5815 -0.8816
  955MOL0     H28915   1.751   0.717   2.025  1.3797  1.4977  2.0634
  955MOL0     H28916   1.910   0.767   1.962 -0.2682 -1.0565 -0.3615
  955MOL0     H28917   1.625   0.787   1.832  0.4238 -0.6383 -1.8051
  955MOL0     H28918   1.766   0.700   1.760 -0.7345 -0.3645  0.6366
  955MOL0     H28919   1.737   0.868   1.623  2.1734 -1.9181 -0.1820
  955MOL0     H28920   1.733   0.999   1.734 -0.2290 -0.7931  1.6295
  955MOL0     H28921   2.155   0.900   1.667 -0.2292  1.4088  0.0846
  955MOL0     H28922   1.575   1.169   1.861  0.5330 -1.6259  0.5261
  955MOL0     H28923   1.595   1.506   1.818  0.9974 -0.9800  0.9059
  955MOL0     H28924   1.491   1.359   1.787  0.0705 -0.4143 -0.5830
  955MOL0     H28925   1.451   1.486   1.914  1.6565  1.1834  0.7521
  956MOL0     O28926   1.647   6.421   2.260 -0.8074  0.0145  0.8282
  956MOL0     C28927   1.610   6.328   2.332  0.0462  0.2976  0.7850
  956MOL0     O28928   1.636   6.311   2.465  0.4567  0.0353  0.2074
  956MOL0     C28929   1.705   6.402   2.548 -0.4887 -0.9679  0.6458
  956MOL0     C28930   1.729   6.538   2.526 -0.0693  0.3902 -0.1885
  956MOL0     C28931   1.811   6.620   2.604 -0.3042  0.1100  0.1299
  956MOL0     C28932   1.871   6.561   2.723 -0.5626 -0.1613 -0.2613
  956MOL0     O28933   1.965   6.630   2.806  0.3350 -0.3508 -0.2457
  956MOL0     C28934   2.098   6.584   2.796 -0.3491 -0.2654 -0.0630
  956MOL0     C28935   2.196   6.694   2.841  0.6471  0.5847  0.3599
  956MOL0     C28936   2.336   6.636   2.876  0.4514 -0.1772  0.5892
  956MOL0     C28937   2.433   6.746   2.923 -0.3970 -0.6482  0.0024
  956MOL0     C28938   2.554   6.691   2.990 -0.1248  0.4306 -0.8849
  956MOL0     C28939   2.655   6.795   3.052  0.5929 -0.4086 -0.5018
  956MOL0     C28940   2.720   6.902   2.961  0.4058  0.9448  0.1711
  956MOL0     C28941   2.795   6.844   2.834  0.1851 -0.5338  0.0375
  956MOL0     N28942   2.894   6.946   2.787 -0.5702 -0.0405 -0.2370
  956MOL0     C28943   3.025   6.941   2.816  1.1208 -0.5468 -0.3395
  956MOL0     C28944   3.074   7.062   2.767 -1.0749 -0.4287  0.1686
  956MOL0     C28945   3.201   7.130   2.791  0.3966 -0.7264  0.4444
  956MOL0     C28946   3.175   7.226   2.909  0.8767 -0.7558 -0.4572
  956MOL0     C28947   3.079   7.188   3.017 -0.7735  1.1226 -0.5203
  956MOL0     C28948   3.089   7.282   3.135  0.3021 -0.0238  0.2917
  956MOL0     O28949   3.178   7.240   3.244 -0.6513 -0.3405  0.1949
  956MOL0     C28950   3.221   7.341   3.329  0.6096  1.0194 -0.5166
  956MOL0     C28951   3.326   7.292   3.403 -0.3239  0.1908 -0.0863
  956MOL0     C28952   3.399   7.379   3.484 -0.6273  0.7762  0.0306
  956MOL0     C28953   3.355   7.514   3.496  0.5590  0.5449  0.0322
  956MOL0     C28954   3.438   7.609   3.586  0.8902  0.3236  0.7626
  956MOL0     O28955   3.407   7.739   3.540 -0.1690 -0.2400 -0.2490
  956MOL0     C28956   3.471   7.850   3.602  0.2062 -0.2453 -0.5075
  956MOL0     C28957   3.489   7.977   3.533 -0.8825  0.5858  0.1740
  956MOL0     C28958   3.552   8.081   3.596  0.0708 -0.2966 -0.3906
  956MOL0     C28959   3.596   8.069   3.722  0.1796  0.2170  0.0048
  956MOL0     O28960   3.655   8.174   3.788 -0.3122 -0.4997  0.1861
  956MOL0     C28961   3.671   8.311   3.742  1.0984  0.1507  0.3326
  956MOL0     C28962   3.799   8.372   3.803 -1.2904  0.2044  1.1004
  956MOL0     C28963   3.928   8.334   3.724  0.4117 -0.4943 -1.0850
  956MOL0     C28964   4.050   8.428   3.767  1.3918  0.5056  0.8358
  956MOL0     C28965   4.180   8.396   3.705 -0.0586  0.0255 -0.8010
  956MOL0     C28966   4.302   8.489   3.756  0.7729  0.0928 -0.0938
  956MOL0     C28967   4.439   8.468   3.696 -0.2975 -0.4665 -0.0447
  956MOL0     C28968   4.513   8.366   3.777 -1.1321  0.6053 -0.5639
  956MOL0    Cl28969   4.547   8.426   3.944  0.0451 -0.2255 -0.1757
  956MOL0     C28970   3.571   7.958   3.794  0.6970  0.1393  0.3735
  956MOL0     C28971   3.507   7.848   3.739  0.1154  0.3122  0.3723
  956MOL0     O28972   3.514   7.563   3.672 -0.8244  0.1799  0.9682
  956MOL0     C28973   3.241   7.556   3.425  0.6625  0.5883  1.0157
  956MOL0     C28974   3.163   7.467   3.340  0.7199  0.1446 -1.0817
  956MOL0     N28975   2.969   7.124   2.704 -0.8865  0.8860 -0.3321
  956MOL0     N28976   2.861   7.050   2.715 -0.4581 -0.2514 -0.3209
  956MOL0     C28977   1.857   6.423   2.752  0.2221  0.3636  0.6949
  956MOL0     C28978   1.768   6.353   2.665  0.2997  0.8381 -0.6792
  956MOL0     C28979   1.530   6.217   2.275 -0.1000 -0.5181 -0.5857
  956MOL0     C28980   1.581   6.166   2.161  0.1563 -0.5969 -0.6708
  956MOL0     C28981   1.512   6.065   2.094  0.1210  0.0156 -0.5316
  956MOL0     C28982   1.389   6.026   2.138  0.1031  0.2252  0.1124
  956MOL0     O28983   1.326   5.925   2.061 -0.3209 -0.2238  0.4789
  956MOL0     C28984   1.226   5.850   2.123  0.1276  0.6652  0.4503
  956MOL0     C28985   1.212   5.715   2.043  0.4239  0.9117  0.5563
  956MOL0     C28986   1.310   5.605   2.097  0.5957  0.4770  0.3781
  956MOL0     C28987   1.401   5.549   1.987  0.5853  0.3136 -0.9529
  956MOL0     C28988   1.502   5.456   2.046  0.3632  0.3483  0.6439
  956MOL0     C28989   1.582   5.373   2.089  0.0497 -0.0310 -0.3658
  956MOL0     C28990   1.331   6.088   2.245 -0.6623  0.5374 -0.2755
  956MOL0     C28991   1.412   6.179   2.328  0.1751 -0.4469 -0.6916
  956MOL0     C28992   1.363   6.220   2.468  0.3318 -0.4258  0.4549
  956MOL0     H28993   1.697   6.577   2.430  2.0249  0.6159 -0.8402
  956MOL0     H28994   1.817   6.723   2.571 -0.2074  0.6878  1.8472
  956MOL0     H28995   2.104   6.490   2.852  1.5812  0.0716  0.3672
  956MOL0     H28996   2.125   6.562   2.692 -0.8782  0.9589 -0.4739
  956MOL0     H28997   2.145   6.739   2.926 -2.5916 -2.7505  0.4073
  956MOL0     H28998   2.206   6.763   2.756  2.0806 -0.6689 -0.5511
  956MOL0     H28999   2.379   6.587   2.789  1.4693  0.3089  0.7973
  956MOL0     H29000   2.315   6.563   2.955 -0.5770  0.3098  0.7809
  956MOL0     H29001   2.465   6.810   2.841 -0.7618 -0.0148  0.3510
  956MOL0     H29002   2.391   6.819   2.993 -3.3371  1.3630 -3.5321
  956MOL0     H29003   2.523   6.624   3.071 -0.2204 -0.9103 -1.9964
  956MOL0     H29004   2.609   6.631   2.917  1.7813  1.2957 -0.2121
  956MOL0     H29005   2.607   6.847   3.135  1.7652  0.1224 -0.1369
  956MOL0     H29006   2.742   6.744   3.094  0.8478  1.2127  1.0576
  956MOL0     H29007   2.784   6.970   3.018  0.1543 -0.0511  1.7123
  956MOL0     H29008   2.644   6.970   2.923  1.6909  1.5948 -1.3663
  956MOL0     H29009   2.847   6.759   2.878  2.4430 -0.0266 -1.5146
  956MOL0     H29010   2.724   6.817   2.755  0.7911 -1.9149 -0.0532
  956MOL0     H29011   3.078   6.871   2.879  1.3218 -0.8953 -0.8939
  956MOL0     H29012   3.285   7.062   2.805  1.5629  0.6761  0.5587
  956MOL0     H29013   3.237   7.186   2.704 -1.3896  2.0037  1.3465
  956MOL0     H29014   3.273   7.243   2.955  2.2961 -3.6284 -2.1472
  956MOL0     H29015   3.140   7.322   2.870 -1.5246 -0.5912  1.8417
  956MOL0     H29016   3.105   7.087   3.050  1.7180  0.6405 -3.4847
  956MOL0     H29017   2.975   7.180   2.984 -0.6113  0.8960 -0.9753
  956MOL0     H29018   2.993   7.292   3.187 -0.6839  1.4494 -1.6544
  956MOL0     H29019   3.115   7.384   3.105  0.0719 -0.3876 -1.1912
  956MOL0     H29020   3.362   7.190   3.397 -3.1926 -1.0750  1.5953
  956MOL0     H29021   3.487   7.345   3.537  1.7636 -0.0925 -4.1064
  956MOL0     H29022   3.454   7.983   3.431  1.8800  1.8807 -0.7917
  956MOL0     H29023   3.586   8.163   3.533 -1.2740  0.3461 -0.3147
  956MOL0     H29024   3.662   8.307   3.633 -0.5481 -0.8606  0.4595
  956MOL0     H29025   3.590   8.366   3.790  1.0646  1.3769 -1.0789
  956MOL0     H29026   3.779   8.479   3.797 -1.0608  0.1622 -1.4081
  956MOL0     H29027   3.810   8.332   3.904  0.8204 -0.4942  0.6551
  956MOL0     H29028   3.953   8.229   3.742  1.1904  0.1839  2.4949
  956MOL0     H29029   3.922   8.345   3.615  3.5762  0.1492 -1.2773
  956MOL0     H29030   4.058   8.415   3.876  1.6777  0.5774  0.8249
  956MOL0     H29031   4.032   8.535   3.752 -2.9294 -0.2361 -0.5304
  956MOL0     H29032   4.170   8.421   3.599  4.6460 -0.5377 -1.6034
  956MOL0     H29033   4.222   8.295   3.718  0.6977  0.4449  0.1775
  956MOL0     H29034   4.259   8.588   3.735 -1.6402 -0.9194 -0.2354
  956MOL0     H29035   4.307   8.500   3.864  2.2236  0.9615 -0.2274
  956MOL0     H29036   4.491   8.564   3.694 -0.7868 -0.1993  0.0239
  956MOL0     H29037   4.420   8.448   3.591 -3.7165  1.8900 -0.0271
  956MOL0     H29038   4.469   8.266   3.779  4.6317 -2.3884  0.0488
  956MOL0     H29039   4.613   8.355   3.733 -1.4382  0.1316 -1.1618
  956MOL0     H29040   3.617   7.961   3.893 -2.2486 -1.2961  1.9134
  956MOL0     H29041   3.476   7.766   3.802 -0.1614  0.1014 -0.0302
  956MOL0     H29042   3.195   7.653   3.437  3.8186  2.0447  2.6179
  956MOL0     H29043   3.070   7.498   3.295  0.8286  0.1346 -1.3163
  956MOL0     H29044   1.912   6.378   2.833  1.9162  1.6300  0.2942
  956MOL0     H29045   1.749   6.247   2.682  1.0872  0.5520 -1.5357
  956MOL0     H29046   1.681   6.197   2.132  0.2307  2.0144  1.8890
  956MOL0     H29047   1.563   6.008   2.017 -0.7725 -0.4143 -0.8291
  956MOL0     H29048   1.128   5.899   2.134  0.6883  2.1695 -0.8190
  956MOL0     H29049   1.265   5.832   2.223  0.7868  0.3483  0.1419
  956MOL0     H29050   1.224   5.743   1.938  3.5313  3.4332  1.4360
  956MOL0     H29051   1.112   5.671   2.040 -0.0700  1.9272 -3.0374
  956MOL0     H29052   1.248   5.532   2.150  1.1253  0.7182  1.3474
  956MOL0     H29053   1.378   5.656   2.166  0.4695  0.5412  0.4558
  956MOL0     H29054   1.339   5.494   1.915 -1.0170 -0.6738  1.0745
  956MOL0     H29055   1.446   5.632   1.933  0.5642  0.1733 -1.1885
  956MOL0     H29056   1.639   5.295   2.135  0.8811  0.6336 -0.2590
  956MOL0     H29057   1.227   6.072   2.273 -1.9396  4.7311 -1.7982
  956MOL0     H29058   1.436   6.183   2.540 -0.9564 -0.7244  1.6410
  956MOL0     H29059   1.344   6.328   2.473 -0.5581 -0.4856 -1.0011
  956MOL0     H29060   1.271   6.170   2.499 -1.1232  2.0577  0.3743
  957MOL0     O29061   5.316   4.076   6.335 -0.5108  0.0971 -0.3915
  957MOL0     C29062   5.375   3.984   6.392 -0.4454 -0.7383 -0.1019
  957MOL0     O29063   5.518   3.965   6.404  1.3255 -0.2787  1.0273
  957MOL0     C29064   5.601   4.066   6.368  0.1004 -0.6771  1.7474
  957MOL0     C29065   5.571   4.206   6.356  0.2008  0.9050  0.7792
  957MOL0     C29066   5.668   4.287   6.301 -0.2496  0.1659  0.6989
  957MOL0     C29067   5.799   4.252   6.271 -0.0464 -0.2078 -0.0531
  957MOL0     O29068   5.891   4.351   6.226  0.3120 -0.1285 -0.5125
  957MOL0     C29069   5.949   4.429   6.341 -0.1853  0.4603 -0.1262
  957MOL0     C29070   6.015   4.354   6.455  0.0989  0.1826  0.1122
  957MOL0     C29071   6.120   4.257   6.406  0.5636 -0.4548  0.0098
  957MOL0     C29072   6.165   4.158   6.513 -0.8719  0.7012 -0.6545
  957MOL0     C29073   6.059   4.065   6.583  0.5185 -0.7817  0.6305
  957MOL0     C29074   6.124   3.966   6.666 -0.2349  0.8778  0.3870
  957MOL0     C29075   6.023   3.856   6.715  0.1266  0.4247  0.3427
  957MOL0     C29076   5.919   3.916   6.816 -0.0015 -0.3605 -0.1093
  957MOL0     N29077   5.835   3.823   6.890 -0.1636  0.3996  0.6650
  957MOL0     C29078   5.887   3.704   6.941  0.1437  0.8519  0.0711
  957MOL0     C29079   5.787   3.675   7.040 -0.3779  0.3524  0.3077
  957MOL0     C29080   5.795   3.563   7.147 -0.0732 -0.0267 -0.2657
  957MOL0     C29081   5.814   3.625   7.293  0.4018  0.1822  0.1059
  957MOL0     C29082   5.677   3.661   7.357  0.2453 -0.5084  0.1084
  957MOL0     C29083   5.707   3.747   7.489  0.7375 -0.0494 -0.0401
  957MOL0     O29084   5.781   3.676   7.594  0.0319  0.6059  0.4541
  957MOL0     C29085   5.717   3.642   7.709  0.9630  0.9347 -0.6990
  957MOL0     C29086   5.781   3.536   7.762 -0.2500  0.4305 -0.9239
  957MOL0     C29087   5.761   3.491   7.892 -0.0686  0.1958  0.4924
  957MOL0     C29088   5.648   3.554   7.961 -0.3764 -0.3128 -0.2355
  957MOL0     C29089   5.615   3.497   8.089 -0.3101  0.1247 -0.6168
  957MOL0     O29090   5.493   3.532   8.148  0.0056 -0.4083  0.1149
  957MOL0     C29091   5.445   3.493   8.273 -0.5123 -0.2164 -0.6526
  957MOL0     C29092   5.318   3.539   8.291  0.0044 -1.1188 -0.1812
  957MOL0     C29093   5.243   3.505   8.405 -0.0498  0.1652 -0.0784
  957MOL0     C29094   5.301   3.425   8.509  0.5180  0.5799  0.0501
  957MOL0     O29095   5.213   3.383   8.609 -0.2176  1.0707 -0.3157
  957MOL0     C29096   5.265   3.346   8.736  0.2552 -0.2640 -0.5712
  957MOL0     C29097   5.301   3.478   8.811 -0.6659  0.0924 -0.2479
  957MOL0     C29098   5.187   3.543   8.892  0.5349  0.5420  0.6218
  957MOL0     C29099   5.202   3.676   8.957 -0.4132  0.0688 -0.3655
  957MOL0     C29100   5.079   3.714   9.040  0.4569  0.2863  0.8311
  957MOL0     C29101   5.070   3.629   9.165  0.1210 -0.2958 -0.5248
  957MOL0     C29102   4.989   3.692   9.280 -0.2880  0.8273 -0.4727
  957MOL0     C29103   4.862   3.620   9.308  0.1395  0.0008 -0.5014
  957MOL0    Cl29104   4.913   3.467   9.379 -0.1548 -0.0950  0.0634
  957MOL0     C29105   5.438   3.395   8.501  0.0512 -0.5919 -0.6065
  957MOL0     C29106   5.510   3.429   8.382  0.9397  0.1966  0.0699
  957MOL0     O29107   5.698   3.420   8.137  0.6536 -0.2680 -0.1965
  957MOL0     C29108   5.575   3.661   7.905  0.4319 -0.7255  0.5812
  957MOL0     C29109   5.614   3.707   7.779  0.6603  0.2063 -1.1846
  957MOL0     N29110   5.684   3.765   7.019 -0.5775 -0.1026 -0.0346
  957MOL0     N29111   5.719   3.858   6.936  1.0098 -0.0439 -0.6767
  957MOL0     C29112   5.829   4.118   6.286 -0.0614  0.0142 -0.2264
  957MOL0     C29113   5.728   4.035   6.329  0.2895 -0.1547  0.6518
  957MOL0     C29114   5.298   3.881   6.465 -0.2973 -0.5299  0.4145
  957MOL0     C29115   5.349   3.821   6.579  0.6865 -0.1976 -0.1680
  957MOL0     C29116   5.276   3.733   6.662 -0.3384 -0.5214 -0.3867
  957MOL0     C29117   5.147   3.698   6.623  0.1808 -0.7808 -0.3897
  957MOL0     O29118   5.071   3.603   6.685 -0.1569  0.3911 -0.4811
  957MOL0     C29119   5.125   3.541   6.796 -0.0464  1.0944 -0.8698
  957MOL0     C29120   5.019   3.452   6.857  0.2245 -0.3999 -0.0411
  957MOL0     C29121   4.893   3.512   6.916  0.3106  0.8702 -0.3242
  957MOL0     C29122   4.774   3.416   6.926  0.0646 -0.3232 -0.9780
  957MOL0     C29123   4.811   3.296   6.994 -0.3046  0.1826 -1.0459
  957MOL0     C29124   4.847   3.191   7.063  0.1353 -0.5731 -0.6246
  957MOL0     C29125   5.093   3.750   6.506  0.2754  0.0981 -0.0894
  957MOL0     C29126   5.164   3.839   6.427 -0.4810 -0.0219 -0.1643
  957MOL0     C29127   5.092   3.899   6.308  0.8148  0.5717  0.0041
  957MOL0     H29128   5.487   4.260   6.397 -0.6365 -0.4086  0.8248
  957MOL0     H29129   5.645   4.390   6.272 -0.3603  0.6382  2.3606
  957MOL0     H29130   6.034   4.478   6.292 -0.5939 -0.6274 -2.0303
  957MOL0     H29131   5.871   4.500   6.370 -2.0751 -1.7541  0.5511
  957MOL0     H29132   5.941   4.298   6.513  0.5299  0.9280  1.4299
  957MOL0     H29133   6.052   4.429   6.525 -0.4599 -1.9200  2.8340
  957MOL0     H29134   6.206   4.321   6.388  0.0527  0.0605 -0.6542
  957MOL0     H29135   6.089   4.205   6.315  1.9896  0.5249 -1.0743
  957MOL0     H29136   6.230   4.091   6.456 -2.2295 -1.0400 -0.2634
  957MOL0     H29137   6.217   4.215   6.590 -3.8374  2.3711  0.2922
  957MOL0     H29138   6.002   4.122   6.656  1.5080  0.2478  0.6330
  957MOL0     H29139   5.988   4.022   6.512  0.5302 -1.2469  0.8950
  957MOL0     H29140   6.201   3.920   6.603 -1.3216  0.1212 -0.4159
  957MOL0     H29141   6.178   4.006   6.753  0.6491 -0.9413  0.7313
  957MOL0     H29142   6.088   3.788   6.771  1.0233  0.3395 -0.7505
  957MOL0     H29143   5.974   3.809   6.628 -4.3836 -1.5203  3.5103
  957MOL0     H29144   5.961   3.980   6.894  3.3186 -1.5092 -0.7997
  957MOL0     H29145   5.857   3.984   6.757  2.2343  1.2546 -0.7219
  957MOL0     H29146   5.982   3.657   6.917 -0.9191 -0.3887 -2.0135
  957MOL0     H29147   5.711   3.494   7.141 -1.3041  1.5391 -3.7504
  957MOL0     H29148   5.885   3.501   7.135 -0.2017 -0.6747  1.7609
  957MOL0     H29149   5.849   3.548   7.361  1.9803  1.9689  1.4348
  957MOL0     H29150   5.895   3.698   7.297 -1.2684  2.3096 -1.5530
  957MOL0     H29151   5.615   3.573   7.377 -1.3705  1.0052  2.2213
  957MOL0     H29152   5.619   3.718   7.284  2.2585  0.2415 -0.9822
  957MOL0     H29153   5.612   3.786   7.526  0.8008  2.3319 -2.1496
  957MOL0     H29154   5.754   3.836   7.446 -0.2599  0.1346 -0.7752
  957MOL0     H29155   5.863   3.493   7.705  1.2798 -0.0036  1.4465
  957MOL0     H29156   5.815   3.412   7.944 -1.3040  0.9986  3.1749
  957MOL0     H29157   5.275   3.594   8.208  0.8906 -2.6308 -1.7058
  957MOL0     H29158   5.146   3.553   8.412  0.1457  0.4736  0.5531
  957MOL0     H29159   5.186   3.284   8.780  2.1502 -2.4096  0.0346
  957MOL0     H29160   5.348   3.275   8.734 -0.7891 -1.5476  0.0763
  957MOL0     H29161   5.383   3.449   8.877 -0.3636  0.7580 -0.3212
  957MOL0     H29162   5.339   3.550   8.737 -2.9194  0.6109 -0.9897
  957MOL0     H29163   5.100   3.547   8.826 -0.1438 -3.7626  0.9719
  957MOL0     H29164   5.153   3.466   8.962  0.2296 -1.9391 -2.0376
  957MOL0     H29165   5.224   3.756   8.886 -0.3480  0.1381 -0.2687
  957MOL0     H29166   5.286   3.679   9.028 -0.8741  3.2300  0.2293
  957MOL0     H29167   4.988   3.710   8.979  0.7401  1.2072  0.3352
  957MOL0     H29168   5.079   3.820   9.067 -3.0578  1.0631 -1.5549
  957MOL0     H29169   5.037   3.526   9.150  0.2641 -0.8330  2.2714
  957MOL0     H29170   5.172   3.623   9.204 -0.9039  2.4916  3.2381
  957MOL0     H29171   4.956   3.788   9.239  0.2604 -0.3350 -3.9439
  957MOL0     H29172   5.049   3.699   9.371  1.5019 -0.3033 -1.5040
  957MOL0     H29173   4.813   3.680   9.385  1.2723 -1.1407  1.1577
  957MOL0     H29174   4.799   3.614   9.218 -0.3438  0.7169 -0.2221
  957MOL0     H29175   5.491   3.330   8.570 -1.8828 -2.7435 -1.0364
  957MOL0     H29176   5.614   3.401   8.374  0.6096 -1.1280  0.1441
  957MOL0     H29177   5.486   3.711   7.942  0.1762 -0.1560 -0.7314
  957MOL0     H29178   5.568   3.799   7.744 -1.2475  0.1089  0.8446
  957MOL0     H29179   5.927   4.075   6.272  0.3146 -1.1291  4.3543
  957MOL0     H29180   5.761   3.932   6.342  1.1829 -0.1046 -0.8842
  957MOL0     H29181   5.450   3.838   6.615  0.9659 -0.8454 -0.6215
  957MOL0     H29182   5.333   3.683   6.739 -1.8884 -2.7370 -0.5724
  957MOL0     H29183   5.158   3.621   6.863  0.3452 -0.3608  0.7593
  957MOL0     H29184   5.207   3.474   6.769  0.7308  0.9757  1.4921
  957MOL0     H29185   5.076   3.386   6.922 -0.0173  0.2495  0.8417
  957MOL0     H29186   5.002   3.383   6.773  0.6288  0.2372 -0.6600
  957MOL0     H29187   4.865   3.599   6.857 -2.3171  1.3305  1.4068
  957MOL0     H29188   4.914   3.553   7.016 -0.0669 -3.9669  2.0255
  957MOL0     H29189   4.691   3.464   6.978  0.1313  2.7174 -3.4383
  957MOL0     H29190   4.739   3.394   6.825 -0.4010  1.2632 -1.1866
  957MOL0     H29191   4.876   3.109   7.124  0.6292 -0.8628 -1.2395
  957MOL0     H29192   5.002   3.710   6.461  0.4135  2.1955 -2.5092
  957MOL0     H29193   5.027   3.981   6.340 -0.2170  1.0856 -3.0584
  957MOL0     H29194   5.168   3.920   6.233  1.8076  1.1826  1.1435
  957MOL0     H29195   5.025   3.824   6.263  1.2438  0.8490 -1.1225
  958MOL0     O29196   3.652   1.802   8.310  0.1134  0.6895  0.2937
  958MOL0     C29197   3.610   1.911   8.349 -0.7144 -0.3282 -0.4974
  958MOL0     O29198   3.480   1.937   8.384 -0.0580  0.0508 -0.3374
  958MOL0     C29199   3.402   1.829   8.407  0.2439 -0.1929  1.1631
  958MOL0     C29200   3.402   1.768   8.530  0.0103  0.6085  0.1433
  958MOL0     C29201   3.326   1.652   8.566 -0.3916  0.0635  0.9732
  958MOL0     C29202   3.252   1.592   8.460 -0.4139  0.0171  0.0734
  958MOL0     O29203   3.191   1.465   8.476  0.1607  0.6641  0.5121
  958MOL0     C29204   3.090   1.456   8.579 -0.0522 -0.0365  0.4619
  958MOL0     C29205   2.946   1.425   8.521  0.2469  0.9505 -0.0497
  958MOL0     C29206   2.922   1.516   8.404 -0.3745  0.9376  0.8890
  958MOL0     C29207   2.912   1.666   8.442  0.2188 -0.2238  0.2359
  958MOL0     C29208   2.808   1.707   8.544  0.2936 -0.4083  1.2172
  958MOL0     C29209   2.674   1.641   8.510  0.0758  0.2589  1.1379
  958MOL0     C29210   2.552   1.677   8.610  0.5550  0.1092 -0.8187
  958MOL0     C29211   2.568   1.639   8.761 -0.4518 -0.6372  0.5547
  958MOL0     N29212   2.579   1.496   8.775  0.4468 -0.4183 -0.8460
  958MOL0     C29213   2.681   1.424   8.828 -0.5042 -0.1575  0.3160
  958MOL0     C29214   2.624   1.308   8.869  1.0687  0.5705  0.1196
  958MOL0     C29215   2.675   1.192   8.941 -0.2048  1.0056  0.0790
  958MOL0     C29216   2.813   1.148   8.883  0.1952 -0.8782 -0.3871
  958MOL0     C29217   2.892   1.060   8.984 -0.7676  0.0062 -0.5898
  958MOL0     C29218   2.987   0.966   8.924  0.7154  0.5072 -0.6066
  958MOL0     O29219   3.058   1.017   8.808 -0.4156  0.0649 -0.1943
  958MOL0     C29220   3.160   1.100   8.816 -0.6293  0.4933 -0.4057
  958MOL0     C29221   3.233   1.157   8.926  0.2214  1.0094 -0.8852
  958MOL0     C29222   3.348   1.224   8.910 -0.3988 -0.2877 -0.3228
  958MOL0     C29223   3.407   1.233   8.784  0.4956  0.0690  0.1650
  958MOL0     C29224   3.540   1.295   8.769  0.1879 -0.2223 -0.8321
  958MOL0     O29225   3.576   1.341   8.647  0.4896  0.6431 -0.5871
  958MOL0     C29226   3.692   1.406   8.620  0.3801  0.3275 -0.1743
  958MOL0     C29227   3.807   1.336   8.619 -0.0335 -0.4738  0.1256
  958MOL0     C29228   3.934   1.398   8.595  0.6308 -0.0574  0.3327
  958MOL0     C29229   3.938   1.529   8.574 -0.0075 -1.0689 -0.0954
  958MOL0     O29230   4.050   1.592   8.562 -0.5136 -0.3735  0.1547
  958MOL0     C29231   4.117   1.558   8.435 -0.6241 -0.6344 -0.0961
  958MOL0     C29232   4.168   1.678   8.352  0.3155 -0.6274 -0.5143
  958MOL0     C29233   4.290   1.743   8.416  0.1702  1.3141 -0.1345
  958MOL0     C29234   4.354   1.837   8.317  1.1043 -0.9761 -0.0391
  958MOL0     C29235   4.483   1.883   8.371  0.7524  0.7513  0.4642
  958MOL0     C29236   4.589   1.775   8.353 -0.1174 -0.1494 -0.2043
  958MOL0     C29237   4.727   1.815   8.422 -0.3788 -0.4386  0.1236
  958MOL0     C29238   4.720   1.814   8.581  0.0973  0.2790  0.5612
  958MOL0    Cl29239   4.879   1.759   8.646  0.2547  0.1110 -0.0800
  958MOL0     C29240   3.825   1.608   8.584 -0.5972  0.0529  0.1406
  958MOL0     C29241   3.701   1.539   8.590  0.5890 -0.3542 -0.3484
  958MOL0     O29242   3.611   1.297   8.867 -0.0363 -0.7327 -0.1690
  958MOL0     C29243   3.336   1.188   8.673  0.5118  0.4881 -0.0288
  958MOL0     C29244   3.214   1.127   8.686 -1.1905  0.2537 -0.1957
  958MOL0     N29245   2.495   1.308   8.816 -0.6288  0.3923 -0.7257
  958MOL0     N29246   2.471   1.414   8.758 -0.3728 -0.1986  0.0184
  958MOL0     C29247   3.242   1.660   8.334 -0.7527 -0.1873 -0.1722
  958MOL0     C29248   3.308   1.780   8.313  0.4775 -0.2056 -0.7380
  958MOL0     C29249   3.709   2.018   8.368 -0.2679  0.6896  0.0402
  958MOL0     C29250   3.676   2.119   8.467 -0.1865 -0.9506  0.8198
  958MOL0     C29251   3.768   2.216   8.508  0.0541  0.5686  0.6874
  958MOL0     C29252   3.896   2.225   8.442  0.1518  0.7769  0.2611
  958MOL0     O29253   3.986   2.332   8.469 -0.8862  0.2176  0.6625
  958MOL0     C29254   4.118   2.282   8.507  1.0950 -0.4075  0.6314
  958MOL0     C29255   4.209   2.399   8.518  0.4827 -0.3698  0.2493
  958MOL0     C29256   4.365   2.362   8.506  0.3835 -0.0458  0.2697
  958MOL0     C29257   4.413   2.273   8.624 -0.1377 -0.3598 -0.4256
  958MOL0     C29258   4.562   2.263   8.616  0.1040 -0.5290 -0.5718
  958MOL0     C29259   4.681   2.252   8.612  0.2623 -0.0016 -0.3981
  958MOL0     C29260   3.912   2.135   8.334  0.6464  0.2581 -0.4294
  958MOL0     C29261   3.836   2.024   8.302  0.3129 -0.0120 -0.1344
  958MOL0     C29262   3.905   1.925   8.212  0.2421  0.1788 -0.4174
  958MOL0     H29263   3.477   1.807   8.598 -1.7537  2.3165  1.2127
  958MOL0     H29264   3.342   1.581   8.646 -0.3238 -2.0182 -0.7740
  958MOL0     H29265   3.119   1.376   8.647 -2.0991 -1.9579 -0.7852
  958MOL0     H29266   3.093   1.552   8.631  1.4664  1.6218 -2.4471
  958MOL0     H29267   2.868   1.440   8.597  1.6518 -0.4976  1.7684
  958MOL0     H29268   2.948   1.320   8.490 -1.4972  0.1042  2.3206
  958MOL0     H29269   2.834   1.477   8.351 -0.9827 -0.1905  2.6441
  958MOL0     H29270   2.990   1.494   8.321 -3.0038 -0.5412 -1.0337
  958MOL0     H29271   3.002   1.709   8.487 -1.2406  2.0802  1.1162
  958MOL0     H29272   2.894   1.725   8.352 -2.7377  0.3284  1.0920
  958MOL0     H29273   2.836   1.676   8.645  3.5320  0.8112  0.8149
  958MOL0     H29274   2.794   1.815   8.550 -0.2797 -0.3853 -0.1537
  958MOL0     H29275   2.636   1.675   8.413 -0.3347 -0.2682  1.1109
  958MOL0     H29276   2.692   1.534   8.515 -0.0741  0.1963  0.4455
  958MOL0     H29277   2.462   1.623   8.580  0.1099 -2.0806  3.6244
  958MOL0     H29278   2.532   1.785   8.613  1.9274  0.3954 -1.3970
  958MOL0     H29279   2.656   1.692   8.798 -2.4592  1.3245  2.8825
  958MOL0     H29280   2.485   1.671   8.825 -0.5275 -3.5440  2.0987
  958MOL0     H29281   2.785   1.442   8.851 -0.2109 -0.2119 -0.8756
  958MOL0     H29282   2.678   1.215   9.048 -1.7015 -0.0432  0.3758
  958MOL0     H29283   2.607   1.110   8.921  0.9763 -0.0301  0.1778
  958MOL0     H29284   2.800   1.095   8.788  4.3110 -3.2485  0.1598
  958MOL0     H29285   2.884   1.229   8.863  0.6464 -1.5879 -1.7467
  958MOL0     H29286   2.831   1.003   9.054  0.0999 -1.9674 -1.3590
  958MOL0     H29287   2.960   1.132   9.030 -0.0391  0.3317 -2.0965
  958MOL0     H29288   2.919   0.891   8.882  0.2268 -0.5795  1.9249
  958MOL0     H29289   3.056   0.923   8.998 -0.0375 -0.1695 -0.2883
  958MOL0     H29290   3.203   1.148   9.030  1.7206  0.7144 -0.4588
  958MOL0     H29291   3.412   1.262   8.990 -2.3219  2.0089  0.2479
  958MOL0     H29292   3.795   1.232   8.646 -0.3445  0.2662  3.2215
  958MOL0     H29293   4.027   1.343   8.586  1.0552  0.9884 -3.3078
  958MOL0     H29294   4.206   1.499   8.461  0.3463  0.9330  0.2559
  958MOL0     H29295   4.053   1.495   8.373 -1.4584 -0.0698  0.1759
  958MOL0     H29296   4.195   1.631   8.257  0.7703 -0.4893 -0.4565
  958MOL0     H29297   4.090   1.753   8.333  1.0900 -0.6479 -4.9302
  958MOL0     H29298   4.247   1.802   8.498 -0.0218  1.5558 -0.4080
  958MOL0     H29299   4.360   1.678   8.470 -0.2685 -0.2090 -1.3456
  958MOL0     H29300   4.288   1.921   8.294  1.9943 -0.5429 -1.0435
  958MOL0     H29301   4.369   1.793   8.219  0.0822  1.1893 -1.2426
  958MOL0     H29302   4.466   1.901   8.478 -1.4661 -2.2778  0.7575
  958MOL0     H29303   4.513   1.978   8.326  0.1042 -0.1808 -2.1348
  958MOL0     H29304   4.563   1.671   8.376 -1.8331  0.3284  0.1351
  958MOL0     H29305   4.610   1.755   8.247  0.8053  0.9899 -0.2545
  958MOL0     H29306   4.753   1.916   8.391  0.8823 -1.5771 -2.9768
  958MOL0     H29307   4.805   1.744   8.393 -0.2855 -1.2109  2.1052
  958MOL0     H29308   4.709   1.921   8.601  0.9717  0.5452 -0.2594
  958MOL0     H29309   4.642   1.755   8.630 -0.3814  1.7999  1.6942
  958MOL0     H29310   3.826   1.715   8.567  0.0455  0.1089  0.5022
  958MOL0     H29311   3.611   1.598   8.576  1.2780  0.2697 -2.4315
  958MOL0     H29312   3.366   1.223   8.574 -0.3465 -0.4662 -0.6566
  958MOL0     H29313   3.159   1.108   8.595 -1.5418  6.2814 -1.5984
  958MOL0     H29314   3.196   1.611   8.250 -0.3731 -0.7192 -0.0787
  958MOL0     H29315   3.281   1.832   8.221 -2.3886 -0.1028  0.0447
  958MOL0     H29316   3.585   2.115   8.526 -1.2695 -0.6181 -0.7682
  958MOL0     H29317   3.739   2.285   8.586 -2.6527  0.1718  0.1400
  958MOL0     H29318   4.155   2.207   8.436  1.0942 -2.0227  2.2684
  958MOL0     H29319   4.118   2.246   8.610  0.4436  3.4812  2.1684
  958MOL0     H29320   4.193   2.457   8.609  0.1353 -0.1565  0.0546
  958MOL0     H29321   4.191   2.473   8.439  0.5268  2.7842  2.9555
  958MOL0     H29322   4.417   2.457   8.495  0.6091 -0.0223  1.4122
  958MOL0     H29323   4.387   2.312   8.411 -0.9483  2.6004 -1.5634
  958MOL0     H29324   4.390   2.314   8.722  0.5758  1.2893 -0.9069
  958MOL0     H29325   4.364   2.177   8.607  0.0794 -0.6811  0.6802
  958MOL0     H29326   4.786   2.231   8.610  0.0895 -1.0112  0.0147
  958MOL0     H29327   4.009   2.137   8.284 -0.1844  0.3275 -2.1033
  958MOL0     H29328   3.831   1.913   8.132 -3.1978 -3.6678  2.8435
  958MOL0     H29329   3.990   1.968   8.159 -1.9439  2.2572 -2.4843
  958MOL0     H29330   3.914   1.831   8.268 -0.6726 -0.1259 -0.7612
  959MOL0     O29331   6.764   0.682   6.337  0.6143  0.2277  0.2663
  959MOL0     C29332   6.807   0.645   6.447  0.3603 -0.0838  0.0587
  959MOL0     O29333   6.911   0.561   6.470  0.3394  0.3642  0.5323
  959MOL0     C29334   7.023   0.577   6.394  0.2732  0.1396 -1.3121
  959MOL0     C29335   7.103   0.465   6.376  0.4582  0.6068 -0.1219
  959MOL0     C29336   7.221   0.473   6.301  0.2298  0.6457  0.6033
  959MOL0     C29337   7.250   0.595   6.233 -0.1033 -0.2002 -0.7607
  959MOL0     O29338   7.361   0.617   6.150  0.1379  0.1644 -0.0278
  959MOL0     C29339   7.406   0.497   6.083  1.0649  0.5680 -0.0310
  959MOL0     C29340   7.511   0.530   5.974 -0.0032 -0.6633 -0.6564
  959MOL0     C29341   7.636   0.585   6.046  1.2697 -0.4336  1.5986
  959MOL0     C29342   7.757   0.581   5.945  0.2086 -0.0197 -0.5658
  959MOL0     C29343   7.894   0.586   6.015 -0.0842 -0.2845  1.1554
  959MOL0     C29344   8.017   0.573   5.921 -0.7558  0.5018  0.8365
  959MOL0     C29345   8.015   0.670   5.805 -0.1391  0.0882  0.0905
  959MOL0     C29346   8.148   0.680   5.736 -0.0505  0.2999 -0.5481
  959MOL0     N29347   8.135   0.735   5.596  1.1555  0.4302 -0.5066
  959MOL0     C29348   8.056   0.673   5.500 -0.5023 -0.4433  1.1891
  959MOL0     C29349   8.094   0.733   5.385  0.1368 -0.4758 -0.2813
  959MOL0     C29350   8.069   0.708   5.248  0.3749 -0.5650 -0.0955
  959MOL0     C29351   8.010   0.829   5.179  0.5722 -0.4121  0.4199
  959MOL0     C29352   7.945   0.793   5.050 -0.4250 -0.0330  0.9204
  959MOL0     C29353   7.867   0.903   4.988 -0.6079  0.0986 -0.0465
  959MOL0     O29354   7.826   0.887   4.851 -0.5178 -0.7208  0.0020
  959MOL0     C29355   7.894   0.946   4.744  0.3332  0.3052  0.3567
  959MOL0     C29356   8.026   0.992   4.755 -0.3038 -0.3974 -0.2081
  959MOL0     C29357   8.099   1.039   4.644  1.0920 -1.4167  0.1735
  959MOL0     C29358   8.035   1.035   4.514  0.0725 -0.3739 -0.8174
  959MOL0     C29359   8.110   1.083   4.393  0.3882 -0.4560 -0.1104
  959MOL0     O29360   8.048   1.065   4.273  0.7266 -0.1719 -0.4562
  959MOL0     C29361   8.121   1.082   4.156 -0.4858 -0.0929  0.4904
  959MOL0     C29362   8.167   1.211   4.126 -1.0069 -0.1317 -0.1173
  959MOL0     C29363   8.238   1.235   4.009  0.1569 -0.9242  0.1851
  959MOL0     C29364   8.264   1.128   3.915 -0.4866 -0.1609  0.1428
  959MOL0     O29365   8.331   1.144   3.800 -0.3742 -0.2365 -0.0870
  959MOL0     C29366   8.360   1.272   3.748 -0.3306  0.0561  0.3082
  959MOL0     C29367   8.426   1.259   3.603  0.3596  0.2494 -0.2072
  959MOL0     C29368   8.367   1.142   3.535 -0.1145 -0.4161  0.6672
  959MOL0     C29369   8.218   1.147   3.486 -0.1662 -0.1032 -0.1253
  959MOL0     C29370   8.115   1.129   3.598 -0.5631  0.3284 -0.8388
  959MOL0     C29371   7.986   1.107   3.523 -0.1519  0.9706 -0.6172
  959MOL0     C29372   7.864   1.105   3.627  0.4163  0.2240  0.3655
  959MOL0     C29373   7.738   1.117   3.544  0.2621  0.2682  0.2900
  959MOL0    Cl29374   7.598   1.068   3.652  0.0951 -0.3191  0.2137
  959MOL0     C29375   8.220   1.000   3.954 -0.2696  0.4134 -1.4439
  959MOL0     C29376   8.150   0.977   4.074 -0.1429 -0.0459  0.2647
  959MOL0     O29377   8.223   1.129   4.407  0.0025 -0.2280  0.6234
  959MOL0     C29378   7.902   0.991   4.503  0.9330 -0.1532 -1.2920
  959MOL0     C29379   7.836   0.953   4.612  0.2039  0.5951 -1.2382
  959MOL0     N29380   8.181   0.846   5.422 -0.2180  1.2825  0.0490
  959MOL0     N29381   8.215   0.834   5.544 -0.1578 -0.0462  0.6336
  959MOL0     C29382   7.186   0.713   6.273  0.1844  1.0651 -0.2829
  959MOL0     C29383   7.068   0.699   6.347 -0.5437  0.0710  0.8141
  959MOL0     C29384   6.756   0.704   6.572 -0.0624  0.2835  0.0027
  959MOL0     C29385   6.846   0.714   6.682 -0.2131 -0.2930 -0.1631
  959MOL0     C29386   6.820   0.778   6.807  1.0968  0.3160  0.3473
  959MOL0     C29387   6.692   0.816   6.834 -0.3607  0.0207  0.2822
  959MOL0     O29388   6.668   0.869   6.956 -0.5668  0.7908 -0.8012
  959MOL0     C29389   6.542   0.838   7.021 -0.6358  0.4538 -0.2415
  959MOL0     C29390   6.549   0.874   7.164  0.6811 -0.0079  0.1894
  959MOL0     C29391   6.412   0.861   7.226 -0.0678  0.8522  0.3774
  959MOL0     C29392   6.372   0.709   7.246  0.0030 -0.0509  0.1469
  959MOL0     C29393   6.241   0.698   7.316 -0.0329  0.2100 -0.9670
  959MOL0     C29394   6.136   0.712   7.371 -0.9210  0.4627 -1.3345
  959MOL0     C29395   6.594   0.805   6.726 -0.9833  0.5020  0.4905
  959MOL0     C29396   6.626   0.754   6.599  1.1877  0.2057  0.7183
  959MOL0     C29397   6.512   0.743   6.494  0.0190 -0.2209  0.4043
  959MOL0     H29398   7.065   0.370   6.413  4.4757 -0.5078  1.7070
  959MOL0     H29399   7.292   0.392   6.293  1.0981  1.3539  1.0162
  959MOL0     H29400   7.445   0.422   6.153  0.7816 -0.6346 -1.1101
  959MOL0     H29401   7.317   0.459   6.033  1.2078  1.5879 -1.1190
  959MOL0     H29402   7.474   0.607   5.906 -1.3823 -0.1264  0.6488
  959MOL0     H29403   7.540   0.445   5.912  3.0433 -2.0091  2.2919
  959MOL0     H29404   7.659   0.542   6.144  1.5088 -0.9071  1.3368
  959MOL0     H29405   7.621   0.691   6.067  0.0521 -0.1872 -0.2690
  959MOL0     H29406   7.753   0.487   5.889  1.2323 -1.2045  1.2232
  959MOL0     H29407   7.758   0.651   5.861 -0.5188  0.1631 -0.4255
  959MOL0     H29408   7.906   0.678   6.072 -0.9057  1.3121 -1.1107
  959MOL0     H29409   7.902   0.502   6.085  0.5785  0.4279  1.9618
  959MOL0     H29410   8.111   0.585   5.975  1.5201 -0.5973 -2.5575
  959MOL0     H29411   8.011   0.471   5.883  3.0631  1.3277 -2.7746
  959MOL0     H29412   7.970   0.767   5.828 -1.4872 -0.6771  0.7537
  959MOL0     H29413   7.951   0.631   5.725  1.0294 -2.1832  0.1890
  959MOL0     H29414   8.216   0.735   5.802 -0.8897  0.7923 -0.0723
  959MOL0     H29415   8.190   0.580   5.721 -0.0566  0.2944 -0.5307
  959MOL0     H29416   7.996   0.582   5.502  1.1074 -1.5717  0.5457
  959MOL0     H29417   8.169   0.699   5.204  0.2174  1.7571 -1.0809
  959MOL0     H29418   8.020   0.611   5.238 -2.4478  0.9527 -2.5102
  959MOL0     H29419   7.926   0.865   5.240 -1.1208 -3.0266 -0.1685
  959MOL0     H29420   8.093   0.895   5.157 -0.3884  0.4941 -0.5838
  959MOL0     H29421   7.879   0.706   5.064  1.4279 -2.5104 -3.6073
  959MOL0     H29422   8.021   0.745   4.988  3.3662  1.5363  3.9564
  959MOL0     H29423   7.915   1.000   5.007  1.4712 -0.2189 -3.0233
  959MOL0     H29424   7.775   0.914   5.046 -1.2816 -2.6004 -0.4575
  959MOL0     H29425   8.069   1.000   4.855  2.2252 -1.5877 -1.1000
  959MOL0     H29426   8.200   1.079   4.642 -0.7147  3.8505 -1.7208
  959MOL0     H29427   8.152   1.283   4.206 -1.2745 -1.4247  1.0277
  959MOL0     H29428   8.292   1.327   3.991 -1.2666 -0.6714 -3.8535
  959MOL0     H29429   8.273   1.335   3.730  0.4307  0.6898 -1.3883
  959MOL0     H29430   8.430   1.331   3.809  1.1014 -0.7284 -0.5106
  959MOL0     H29431   8.416   1.347   3.539  0.5478 -0.4727 -1.2400
  959MOL0     H29432   8.532   1.247   3.626  0.5811  2.0284 -0.1559
  959MOL0     H29433   8.416   1.139   3.437 -1.2894 -0.3285  0.0546
  959MOL0     H29434   8.384   1.047   3.586  0.2600 -0.2849  0.7901
  959MOL0     H29435   8.208   1.082   3.399 -2.7747  1.1291 -0.8513
  959MOL0     H29436   8.199   1.244   3.439  0.4568  0.1160  0.0654
  959MOL0     H29437   8.117   1.215   3.666  1.0377 -1.3295  1.3784
  959MOL0     H29438   8.121   1.039   3.660 -1.4300 -1.6034 -3.3702
  959MOL0     H29439   7.980   1.186   3.447  1.5857  0.4760 -1.3337
  959MOL0     H29440   7.991   1.008   3.477 -0.6012 -1.3894  3.8314
  959MOL0     H29441   7.866   1.177   3.710 -0.5808 -0.0149  0.6085
  959MOL0     H29442   7.871   1.007   3.675  1.2273  1.3435  2.7362
  959MOL0     H29443   7.709   1.218   3.513 -2.7158 -0.1538  1.3419
  959MOL0     H29444   7.740   1.043   3.464 -1.6257 -0.0576  0.4951
  959MOL0     H29445   8.235   0.918   3.885 -1.7270 -1.8888  0.8026
  959MOL0     H29446   8.113   0.877   4.093 -1.2074  0.5645  1.4975
  959MOL0     H29447   7.852   0.985   4.406 -0.7108 -3.0795 -0.3945
  959MOL0     H29448   7.730   0.929   4.608 -0.2965  1.4688  2.7251
  959MOL0     H29449   7.223   0.808   6.235  0.4126  2.8289  3.8925
  959MOL0     H29450   7.015   0.791   6.368  0.4271  0.8395  0.0018
  959MOL0     H29451   6.943   0.667   6.667 -0.1051 -0.2399  0.3324
  959MOL0     H29452   6.888   0.778   6.891 -1.2299 -1.8404  2.3816
  959MOL0     H29453   6.515   0.732   7.009 -0.9938  0.7467 -2.5441
  959MOL0     H29454   6.465   0.907   6.985 -0.3036  1.4665  0.9437
  959MOL0     H29455   6.582   0.977   7.183 -2.0690  1.0632 -0.2901
  959MOL0     H29456   6.629   0.817   7.212  1.2076  1.0186  0.5723
  959MOL0     H29457   6.346   0.915   7.158 -0.5893  1.0542  1.0394
  959MOL0     H29458   6.417   0.909   7.324 -1.0956  1.6176  0.0662
  959MOL0     H29459   6.371   0.656   7.150 -1.7321  0.6713 -0.2631
  959MOL0     H29460   6.445   0.667   7.316 -0.7591 -1.9564 -0.1302
  959MOL0     H29461   6.038   0.692   7.410  0.4253  0.5717  2.5362
  959MOL0     H29462   6.492   0.839   6.738 -1.1995 -0.9100  3.5898
  959MOL0     H29463   6.410   0.744   6.533  0.2896  0.2150  1.1257
  959MOL0     H29464   6.524   0.824   6.422 -0.9169 -0.2580  0.1925
  959MOL0     H29465   6.528   0.655   6.431  1.4036  1.1176 -1.2038
  960MOL0     O29466   2.017   7.115   7.324 -0.2446  0.5956 -0.0602
  960MOL0     C29467   1.958   7.010   7.301 -0.5758  0.3519 -0.3338
  960MOL0     O29468   2.022   6.883   7.273 -0.7975  0.4251 -0.6335
  960MOL0     C29469   2.159   6.875   7.284  0.6727 -0.1046 -0.8320
  960MOL0     C29470   2.225   6.871   7.405  0.7966  0.5780 -0.2295
  960MOL0     C29471   2.360   6.840   7.401  0.3861  0.1493  0.4084
  960MOL0     C29472   2.430   6.836   7.279  0.5488  0.2311  0.5867
  960MOL0     O29473   2.560   6.814   7.264  0.6164  0.0305 -0.2741
  960MOL0     C29474   2.625   6.746   7.367 -0.6958  0.6182 -0.5819
  960MOL0     C29475   2.754   6.711   7.292  0.3090 -0.2725 -0.3827
  960MOL0     C29476   2.866   6.655   7.386 -0.4970 -0.0383  0.0829
  960MOL0     C29477   2.855   6.502   7.372 -0.2204 -0.3874 -1.5146
  960MOL0     C29478   2.979   6.456   7.443 -0.1420  0.4755  0.3284
  960MOL0     C29479   2.991   6.300   7.445 -0.0731  0.1811 -0.4289
  960MOL0     C29480   2.979   6.239   7.308  0.2285 -0.2445 -0.1347
  960MOL0     C29481   3.035   6.100   7.297 -0.1151 -0.6211 -0.0812
  960MOL0     N29482   3.187   6.097   7.275 -0.9239 -1.1787 -0.4931
  960MOL0     C29483   3.285   6.085   7.375 -0.2574 -1.1017  0.6521
  960MOL0     C29484   3.401   6.119   7.308  0.0985  0.0572  0.2421
  960MOL0     C29485   3.544   6.131   7.369 -0.8562  0.3544 -1.0881
  960MOL0     C29486   3.658   6.044   7.295  0.8012 -0.4776  0.1010
  960MOL0     C29487   3.644   5.899   7.326 -0.5829  0.3941  0.0683
  960MOL0     C29488   3.776   5.827   7.299 -0.2394 -0.0439  0.4549
  960MOL0     O29489   3.775   5.701   7.375  0.3827 -0.2182  0.4502
  960MOL0     C29490   3.872   5.623   7.366 -0.3127 -0.3781 -0.1274
  960MOL0     C29491   3.989   5.636   7.293 -0.2868 -0.0330  0.6698
  960MOL0     C29492   4.079   5.527   7.275 -0.6650 -1.5019 -0.3283
  960MOL0     C29493   4.063   5.414   7.347 -0.4053  0.4262 -0.4259
  960MOL0     C29494   4.165   5.309   7.348 -0.7646  0.0118 -0.4184
  960MOL0     O29495   4.275   5.328   7.277 -0.6905  0.5600 -0.0455
  960MOL0     C29496   4.356   5.224   7.261 -1.2866 -0.5455 -0.5723
  960MOL0     C29497   4.324   5.106   7.198 -0.1023  0.2708 -0.1411
  960MOL0     C29498   4.408   4.990   7.189  1.1144 -0.3338 -0.9236
  960MOL0     C29499   4.542   5.010   7.216  0.3211  0.3692  0.0239
  960MOL0     O29500   4.638   4.909   7.195 -0.4119 -0.4842 -0.9609
  960MOL0     C29501   4.659   4.828   7.080 -0.2884 -0.3389  0.9101
  960MOL0     C29502   4.710   4.690   7.124 -0.0213 -0.0581  0.5068
  960MOL0     C29503   4.615   4.606   7.214  0.6352  0.6227  0.2304
  960MOL0     C29504   4.681   4.483   7.270  0.7337 -0.0392 -0.0069
  960MOL0     C29505   4.597   4.429   7.394  0.1088 -0.3242 -0.0605
  960MOL0     C29506   4.670   4.301   7.437 -0.8628  0.3385  0.5275
  960MOL0     C29507   4.642   4.271   7.573 -0.0848  0.2662  0.5301
  960MOL0     C29508   4.700   4.142   7.624  0.7852  0.3962  0.3050
  960MOL0    Cl29509   4.874   4.190   7.678  0.0084  0.0396 -0.2736
  960MOL0     C29510   4.580   5.125   7.269 -0.0110 -0.4720 -0.2906
  960MOL0     C29511   4.493   5.231   7.312 -0.0627 -0.1291 -0.1442
  960MOL0     O29512   4.129   5.208   7.400  0.9440  0.8376 -0.5208
  960MOL0     C29513   3.950   5.401   7.438  0.5218 -0.8388 -0.3047
  960MOL0     C29514   3.853   5.509   7.440  0.3385  0.1262  0.2565
  960MOL0     N29515   3.374   6.131   7.169 -0.4785 -0.3983  0.0532
  960MOL0     N29516   3.246   6.112   7.150  0.0370  0.7272  0.2200
  960MOL0     C29517   2.368   6.860   7.161  0.1225 -0.1845 -0.3354
  960MOL0     C29518   2.226   6.880   7.168  0.1173 -0.0831 -0.0038
  960MOL0     C29519   1.807   7.011   7.313  0.4807  0.8693 -0.2399
  960MOL0     C29520   1.762   6.945   7.426 -0.3402 -0.4021  0.0289
  960MOL0     C29521   1.626   6.909   7.436  0.1276 -0.1403  0.0103
  960MOL0     C29522   1.541   6.960   7.331  0.4633  0.0978  1.0158
  960MOL0     O29523   1.405   6.945   7.341 -0.3237 -0.0547 -0.4025
  960MOL0     C29524   1.331   7.071   7.357  0.1031  0.4894  0.5697
  960MOL0     C29525   1.293   7.090   7.502  0.0710  0.0230  0.3467
  960MOL0     C29526   1.169   7.006   7.527  0.2954  0.3840  0.6630
  960MOL0     C29527   1.123   7.029   7.666 -0.6074 -0.7799  0.0131
  960MOL0     C29528   0.993   6.970   7.684 -0.1864 -0.3253 -0.0609
  960MOL0     C29529   0.891   6.916   7.691  0.1440  0.4240  0.1411
  960MOL0     C29530   1.589   7.026   7.221  0.8886 -0.2126  0.3011
  960MOL0     C29531   1.725   7.053   7.210 -0.4576  0.0503 -0.0541
  960MOL0     C29532   1.778   7.116   7.081  0.3960 -0.4048  0.0318
  960MOL0     H29533   2.161   6.874   7.492 -1.9297  1.7218 -2.1644
  960MOL0     H29534   2.424   6.807   7.483  3.4238 -1.5404 -2.4084
  960MOL0     H29535   2.637   6.817   7.450  0.8300 -0.6932  0.3773
  960MOL0     H29536   2.574   6.654   7.396  1.9567  0.0306  3.0079
  960MOL0     H29537   2.791   6.798   7.237 -0.6879  1.3354  1.3620
  960MOL0     H29538   2.729   6.647   7.207 -0.4965 -0.6797  0.1468
  960MOL0     H29539   2.855   6.674   7.493  1.3444 -1.6117  0.6063
  960MOL0     H29540   2.964   6.692   7.356 -1.2452  2.5249  0.5249
  960MOL0     H29541   2.763   6.465   7.418  0.0158 -1.5665 -1.9463
  960MOL0     H29542   2.852   6.472   7.266 -1.3434 -0.6738 -1.4132
  960MOL0     H29543   3.065   6.501   7.393  0.2527  0.2806  0.8223
  960MOL0     H29544   2.977   6.498   7.544  2.9981 -2.6253  1.8912
  960MOL0     H29545   3.088   6.282   7.492 -0.2617 -2.5749 -0.8947
  960MOL0     H29546   2.903   6.272   7.503 -0.7527  1.4101 -0.8245
  960MOL0     H29547   3.017   6.304   7.228 -2.8868  0.1384 -1.4604
  960MOL0     H29548   2.870   6.243   7.294 -0.0329 -0.5237  1.6381
  960MOL0     H29549   3.016   6.047   7.391  0.8953  0.4948  0.7849
  960MOL0     H29550   2.983   6.042   7.220  0.0223 -2.1592  0.9312
  960MOL0     H29551   3.263   6.100   7.480 -2.8298 -0.8107  0.1273
  960MOL0     H29552   3.576   6.235   7.377 -1.8930  0.5416  1.5214
  960MOL0     H29553   3.552   6.107   7.475  1.1814 -1.5396 -1.5769
  960MOL0     H29554   3.652   6.057   7.187 -0.0692 -0.7718  0.1015
  960MOL0     H29555   3.749   6.089   7.334 -0.0842  0.7448  0.8367
  960MOL0     H29556   3.572   5.853   7.259 -0.2914 -1.1506  0.7817
  960MOL0     H29557   3.607   5.884   7.428 -0.0045  3.0042  0.7487
  960MOL0     H29558   3.864   5.883   7.331  1.5164 -1.7823 -1.1092
  960MOL0     H29559   3.780   5.821   7.190 -1.1948 -0.3491  0.4262
  960MOL0     H29560   4.006   5.727   7.236  2.7550 -2.3705 -2.6255
  960MOL0     H29561   4.172   5.544   7.222 -1.3387  1.1768 -0.7918
  960MOL0     H29562   4.223   5.101   7.158 -0.5298 -5.0973  0.7843
  960MOL0     H29563   4.373   4.890   7.168 -1.5702  0.3126  0.1489
  960MOL0     H29564   4.567   4.814   7.022  1.7954 -2.4013 -2.2321
  960MOL0     H29565   4.739   4.872   7.019  0.4568 -2.3467  0.3425
  960MOL0     H29566   4.746   4.630   7.040  2.2926  1.2528  0.4779
  960MOL0     H29567   4.804   4.702   7.178  0.5957  0.4418 -0.6563
  960MOL0     H29568   4.582   4.679   7.288 -0.4472  0.4654 -0.0885
  960MOL0     H29569   4.528   4.577   7.155 -1.4050  3.0369  1.8651
  960MOL0     H29570   4.787   4.497   7.295  0.6971 -1.5777  1.1275
  960MOL0     H29571   4.660   4.405   7.196 -0.5705  0.1940  0.0928
  960MOL0     H29572   4.493   4.408   7.366 -0.5032  1.2251  0.9177
  960MOL0     H29573   4.598   4.503   7.475 -1.0694 -3.3923  2.9652
  960MOL0     H29574   4.653   4.213   7.374  2.6129  0.7751 -1.2466
  960MOL0     H29575   4.775   4.333   7.437 -0.4085 -0.9603 -1.2200
  960MOL0     H29576   4.533   4.280   7.574 -0.1636  1.2232 -3.0543
  960MOL0     H29577   4.677   4.357   7.630 -0.0172  0.7252 -0.1883
  960MOL0     H29578   4.647   4.097   7.708  1.6079  0.9646  1.1436
  960MOL0     H29579   4.700   4.059   7.552 -2.7601 -0.3112  0.9150
  960MOL0     H29580   4.685   5.131   7.297 -0.6892  5.5058  2.5968
  960MOL0     H29581   4.519   5.323   7.363  0.2485 -0.4541  0.2882
  960MOL0     H29582   3.937   5.315   7.503 -0.4486 -1.1538 -0.8799
  960MOL0     H29583   3.761   5.502   7.498 -0.8492  1.1714 -1.4253
  960MOL0     H29584   2.431   6.862   7.072  2.1425  1.1088  1.0425
  960MOL0     H29585   2.176   6.888   7.072 -0.4453 -0.1682  0.2782
  960MOL0     H29586   1.828   6.910   7.504 -0.3395 -1.7041 -0.5349
  960MOL0     H29587   1.569   6.866   7.518 -1.8445  0.9198 -0.7523
  960MOL0     H29588   1.247   7.060   7.288  0.5919  3.2579 -0.5609
  960MOL0     H29589   1.394   7.154   7.323  1.4377 -1.2617 -1.4825
  960MOL0     H29590   1.268   7.196   7.509  0.9124  0.3654 -1.3720
  960MOL0     H29591   1.378   7.054   7.561 -1.0533 -0.0668  1.9909
  960MOL0     H29592   1.202   6.902   7.528  1.6356  0.7756 -0.5116
  960MOL0     H29593   1.094   7.030   7.452  0.6003 -0.7485 -0.0211
  960MOL0     H29594   1.187   6.991   7.746 -0.6503  1.0780  0.9916
  960MOL0     H29595   1.118   7.137   7.680 -0.8923 -0.7181 -0.5462
  960MOL0     H29596   0.795   6.869   7.700 -0.3754  1.2672 -0.7894
  960MOL0     H29597   1.531   7.056   7.134  2.1732 -1.0170 -0.8735
  960MOL0     H29598   1.813   7.218   7.101 -1.7858  0.5010 -0.4787
  960MOL0     H29599   1.860   7.063   7.031  2.5083  0.3402  2.5026
  960MOL0     H29600   1.706   7.130   7.000  2.3956  0.1208 -1.7652
  961MOL0     O29601   7.015   7.161   5.490  0.0540  0.4795  0.3460
  961MOL0     C29602   7.035   7.272   5.449 -1.0892 -0.1291 -1.4003
  961MOL0     O29603   7.157   7.335   5.451 -0.6037 -0.8885  0.8846
  961MOL0     C29604   7.265   7.291   5.532 -0.1780  0.7552  0.1400
  961MOL0     C29605   7.257   7.187   5.637 -1.3081 -0.4682  0.2442
  961MOL0     C29606   7.380   7.129   5.689  0.7599 -0.3580  0.8912
  961MOL0     C29607   7.502   7.171   5.642  0.0761 -0.3956  0.9923
  961MOL0     O29608   7.622   7.127   5.695  0.5861 -0.2967  0.0150
  961MOL0     C29609   7.619   7.023   5.800  0.1994  1.0009 -0.7325
  961MOL0     C29610   7.758   6.982   5.850 -0.4427  0.0366 -0.8673
  961MOL0     C29611   7.834   7.109   5.904 -0.1181  0.8836 -0.6149
  961MOL0     C29612   7.856   7.113   6.060 -0.5751 -0.2388  0.4428
  961MOL0     C29613   7.927   7.241   6.113 -0.0083 -0.4807  0.3019
  961MOL0     C29614   7.961   7.227   6.255 -0.1421  1.2741 -0.2113
  961MOL0     C29615   8.084   7.313   6.300 -0.0340 -0.5117  0.1111
  961MOL0     C29616   8.056   7.465   6.278 -0.7901 -0.2213  0.2662
  961MOL0     N29617   8.156   7.551   6.346 -0.0254 -0.2798  0.5799
  961MOL0     C29618   8.293   7.551   6.332 -0.1063 -0.1072  0.6683
  961MOL0     C29619   8.331   7.651   6.414 -0.4712  0.3892 -0.0965
  961MOL0     C29620   8.475   7.694   6.434 -0.0415 -0.1428 -0.6672
  961MOL0     C29621   8.583   7.589   6.429 -0.4644  0.8539  0.7536
  961MOL0     C29622   8.677   7.612   6.308  0.9125  0.7219 -0.0820
  961MOL0     C29623   8.765   7.490   6.299  0.0398  0.6612 -0.0691
  961MOL0     O29624   8.892   7.512   6.225 -0.3353  0.4287  0.2237
  961MOL0     C29625   9.008   7.542   6.296  0.8476 -1.2526  0.1035
  961MOL0     C29626   9.010   7.597   6.427  0.0837  0.0950 -0.1900
  961MOL0     C29627   9.123   7.646   6.484  0.4260  0.6174 -0.9301
  961MOL0     C29628   9.247   7.640   6.414 -0.6892 -0.1644  0.6810
  961MOL0     C29629   9.378   7.698   6.471 -0.3054  0.2051  0.2495
  961MOL0     O29630   9.490   7.685   6.391 -0.4925  0.5135  0.0826
  961MOL0     C29631   9.605   7.732   6.444 -0.2111  0.4250  0.5233
  961MOL0     C29632   9.683   7.633   6.509  0.0688  0.7316  0.5550
  961MOL0     C29633   9.811   7.663   6.548  0.0517  0.0088  0.1145
  961MOL0     C29634   9.872   7.782   6.519 -0.2794 -0.2916  0.5498
  961MOL0     O29635   9.991   7.802   6.579  0.6625  0.0802  0.1629
  961MOL0     C29636  10.044   7.934   6.581 -0.9710  0.9706 -0.1096
  961MOL0     C29637  10.160   7.950   6.477 -0.0432  0.4013  0.5358
  961MOL0     C29638  10.264   7.843   6.502 -0.0934 -0.1072  0.7726
  961MOL0     C29639  10.401   7.880   6.436  0.9843 -0.0312  0.6758
  961MOL0     C29640  10.513   7.783   6.488  0.6837  0.2167 -0.0483
  961MOL0     C29641  10.657   7.802   6.433 -0.8869 -0.5451 -0.2231
  961MOL0     C29642  10.644   7.806   6.278 -0.6904 -0.3772  0.6454
  961MOL0     C29643  10.773   7.808   6.209 -1.3274  0.1150 -0.0823
  961MOL0    Cl29644  10.824   7.635   6.207  0.1230 -0.4009  0.1422
  961MOL0     C29645   9.795   7.883   6.450  0.1870  0.3199  0.2786
  961MOL0     C29646   9.659   7.859   6.409  0.5906  0.1515 -0.4516
  961MOL0     O29647   9.382   7.737   6.589  0.1798  0.4629  0.2187
  961MOL0     C29648   9.250   7.579   6.284 -0.6856 -0.2433 -0.4928
  961MOL0     C29649   9.121   7.541   6.226  0.1050 -0.3861 -0.1366
  961MOL0     N29650   8.213   7.716   6.473 -0.5727 -0.4017  0.4329
  961MOL0     N29651   8.115   7.645   6.435 -0.7666  0.5490 -1.2284
  961MOL0     C29652   7.516   7.277   5.545  0.7425  0.4130  0.0741
  961MOL0     C29653   7.396   7.326   5.494  0.7690 -0.1693  0.0340
  961MOL0     C29654   6.926   7.357   5.398  0.1293 -0.0628 -1.1524
  961MOL0     C29655   6.957   7.488   5.366  0.2739 -0.1924  0.1797
  961MOL0     C29656   6.863   7.579   5.314 -0.4688  0.6872 -0.2503
  961MOL0     C29657   6.726   7.558   5.317  0.2602  0.5861 -0.6823
  961MOL0     O29658   6.630   7.653   5.293  0.0196  0.0638  0.4684
  961MOL0     C29659   6.656   7.782   5.346 -0.4847  0.8959  0.3824
  961MOL0     C29660   6.734   7.867   5.243  0.3189  1.0144 -0.4679
  961MOL0     C29661   6.648   7.917   5.135 -0.6866  0.6802  0.0873
  961MOL0     C29662   6.717   8.005   5.035  0.5907  0.5311 -0.5805
  961MOL0     C29663   6.837   7.946   4.967  0.5756  0.2244  0.9430
  961MOL0     C29664   6.934   7.904   4.911 -0.4305 -0.2901 -0.5240
  961MOL0     C29665   6.695   7.431   5.363  0.5022  0.1031  1.1301
  961MOL0     C29666   6.782   7.326   5.393 -0.5381 -0.1263  0.2572
  961MOL0     C29667   6.722   7.191   5.437  0.0687  0.9315  0.9980
  961MOL0     H29668   7.163   7.149   5.676 -1.5751 -1.3106 -1.1576
  961MOL0     H29669   7.365   7.066   5.776 -1.8281 -1.5032 -0.2644
  961MOL0     H29670   7.562   7.061   5.885 -0.9778  1.2226 -1.5951
  961MOL0     H29671   7.563   6.934   5.769 -3.0128  1.8775  1.9695
  961MOL0     H29672   7.807   6.941   5.761 -0.8122  0.2517 -1.1744
  961MOL0     H29673   7.757   6.904   5.927 -1.1804 -0.5507 -1.4537
  961MOL0     H29674   7.780   7.197   5.870 -2.3687 -0.4084 -0.5732
  961MOL0     H29675   7.932   7.100   5.856  0.9638  0.0480  1.5788
  961MOL0     H29676   7.764   7.090   6.115 -1.0785 -0.2631 -0.3776
  961MOL0     H29677   7.912   7.022   6.085 -1.1246 -0.2976  1.5205
  961MOL0     H29678   8.015   7.254   6.049 -0.8177  0.6664 -0.6295
  961MOL0     H29679   7.862   7.328   6.097 -0.9835 -1.6050 -2.3923
  961MOL0     H29680   7.875   7.253   6.317 -1.3583  2.4875 -2.2908
  961MOL0     H29681   7.988   7.124   6.280 -1.1082  0.9123 -0.6033
  961MOL0     H29682   8.177   7.294   6.247  0.5810  3.4430 -0.5815
  961MOL0     H29683   8.090   7.311   6.409  1.5875 -0.9291  0.0325
  961MOL0     H29684   8.076   7.484   6.171  1.4908  0.0623  0.6762
  961MOL0     H29685   7.956   7.488   6.315 -1.1215  1.1245 -1.2993
  961MOL0     H29686   8.349   7.479   6.274  0.7589  2.4280 -1.8829
  961MOL0     H29687   8.496   7.770   6.358  1.1428 -1.2875 -1.5229
  961MOL0     H29688   8.480   7.743   6.532 -1.7404 -0.4118 -0.4139
  961MOL0     H29689   8.650   7.576   6.515  1.0747 -2.5591 -0.7399
  961MOL0     H29690   8.533   7.492   6.415  0.0591  0.6791  0.0649
  961MOL0     H29691   8.727   7.709   6.312  0.5957  0.9775 -1.6973
  961MOL0     H29692   8.623   7.617   6.213  0.9166 -0.0881 -0.1344
  961MOL0     H29693   8.716   7.407   6.248  0.8952 -0.8745  1.4973
  961MOL0     H29694   8.786   7.445   6.396 -1.9293  1.2797  0.6896
  961MOL0     H29695   8.915   7.600   6.480 -0.4254 -0.2283 -1.0679
  961MOL0     H29696   9.133   7.674   6.589  0.8451 -2.4686 -0.0444
  961MOL0     H29697   9.634   7.540   6.536  0.1387  1.0876  1.9971
  961MOL0     H29698   9.867   7.602   6.618 -2.1813 -0.2227  1.8283
  961MOL0     H29699   9.971   8.016   6.575 -2.2183  0.6791  5.5386
  961MOL0     H29700  10.082   7.941   6.683 -0.6858 -2.8268  0.1744
  961MOL0     H29701  10.123   7.936   6.375 -4.1902 -2.1828  2.1436
  961MOL0     H29702  10.223   8.039   6.479 -1.7059  1.6036  1.5612
  961MOL0     H29703  10.288   7.843   6.608 -2.4085  0.8067  1.3669
  961MOL0     H29704  10.252   7.740   6.465  1.5856 -0.2055  0.4286
  961MOL0     H29705  10.432   7.983   6.456  4.3917 -0.1687 -2.7490
  961MOL0     H29706  10.381   7.874   6.329 -0.7019 -0.4809  0.9870
  961MOL0     H29707  10.475   7.683   6.468  0.6357 -0.3019  2.3480
  961MOL0     H29708  10.517   7.779   6.597 -1.8220 -0.6375  0.0790
  961MOL0     H29709  10.703   7.893   6.472 -2.9082 -0.1089  1.3341
  961MOL0     H29710  10.705   7.709   6.463  1.0148  0.8105  1.1188
  961MOL0     H29711  10.581   7.892   6.250  1.2146  1.0930  0.6971
  961MOL0     H29712  10.583   7.725   6.238  2.0303 -2.2098  0.0147
  961MOL0     H29713  10.761   7.851   6.109  1.0190  1.1187 -0.0034
  961MOL0     H29714  10.840   7.875   6.265 -0.1726  2.1628 -3.5847
  961MOL0     H29715   9.835   7.979   6.420  0.4502 -0.0105 -0.4290
  961MOL0     H29716   9.603   7.932   6.352  1.5629  1.6901  0.5013
  961MOL0     H29717   9.339   7.581   6.222 -0.2747  1.0862  0.1144
  961MOL0     H29718   9.115   7.504   6.124 -0.5081 -0.5218 -0.0552
  961MOL0     H29719   7.617   7.312   5.527  0.6452  0.4175 -0.4663
  961MOL0     H29720   7.403   7.396   5.411  0.8041  0.9282  0.9339
  961MOL0     H29721   7.060   7.523   5.375 -0.3804  1.2788  3.4111
  961MOL0     H29722   6.899   7.681   5.315 -2.0155  1.2678  1.2966
  961MOL0     H29723   6.713   7.766   5.438 -0.7434 -1.8757  0.1584
  961MOL0     H29724   6.564   7.832   5.378 -0.5218  0.1800  1.4458
  961MOL0     H29725   6.818   7.818   5.192  0.2757  0.4018  0.0344
  961MOL0     H29726   6.769   7.946   5.310 -0.6530  2.6796 -1.8627
  961MOL0     H29727   6.555   7.968   5.162 -3.0121 -1.8590 -2.5655
  961MOL0     H29728   6.613   7.828   5.083  0.1223 -0.1897  0.9812
  961MOL0     H29729   6.646   8.038   4.959  0.0657  0.7082 -0.0156
  961MOL0     H29730   6.739   8.098   5.088 -3.6057 -0.7418  4.0549
  961MOL0     H29731   7.019   7.848   4.878 -0.3147 -2.3138  2.7682
  961MOL0     H29732   6.588   7.412   5.365  0.6747 -1.8871 -1.9994
  961MOL0     H29733   6.613   7.186   5.441 -0.1509 -0.3872 -2.7016
  961MOL0     H29734   6.750   7.121   5.358 -0.8487  1.4749  0.1810
  961MOL0     H29735   6.768   7.156   5.530  2.3181 -0.3997 -0.5056
  962MOL0     O29736   7.380   0.556   2.486 -0.6072 -0.3406 -0.1346
  962MOL0     C29737   7.435   0.555   2.595  0.0226  0.4060 -0.7222
  962MOL0     O29738   7.572   0.514   2.615  0.7836  0.1978  0.2818
  962MOL0     C29739   7.627   0.421   2.528  0.3126 -0.1096  0.2756
  962MOL0     C29740   7.552   0.329   2.454 -0.0296  0.5988 -0.5820
  962MOL0     C29741   7.613   0.241   2.368 -0.6867 -0.9847  0.8686
  962MOL0     C29742   7.754   0.231   2.374  0.3063  0.2699  0.2291
  962MOL0     O29743   7.798   0.161   2.263 -1.2229  0.1766  0.1637
  962MOL0     C29744   7.942   0.130   2.261 -0.0499 -0.0483 -0.1210
  962MOL0     C29745   7.988   0.023   2.358 -0.4385  0.3786 -0.8391
  962MOL0     C29746   8.145   0.012   2.364 -1.0522  0.4105  0.3524
  962MOL0     C29747   8.185  -0.120   2.438  0.2227 -1.0160  0.0966
  962MOL0     C29748   8.333  -0.140   2.417 -0.2313  0.4022 -0.5878
  962MOL0     C29749   8.391  -0.273   2.464 -0.2324 -0.4334  0.5391
  962MOL0     C29750   8.358  -0.391   2.369 -0.0369  0.9415  1.3410
  962MOL0     C29751   8.436  -0.508   2.416 -0.4609  0.8646  0.1017
  962MOL0     N29752   8.486  -0.584   2.302 -0.1533 -0.6531 -0.3282
  962MOL0     C29753   8.616  -0.596   2.257  0.3184 -0.8355  1.7205
  962MOL0     C29754   8.601  -0.677   2.140  0.4070 -0.9315 -0.4527
  962MOL0     C29755   8.709  -0.700   2.044 -0.8559 -0.0840 -0.2501
  962MOL0     C29756   8.756  -0.843   2.042  0.0644 -0.2620  0.7345
  962MOL0     C29757   8.880  -0.864   1.972  0.3195 -0.2781 -0.4685
  962MOL0     C29758   8.875  -0.852   1.821  0.4670  0.1585  0.5547
  962MOL0     O29759   8.991  -0.904   1.757 -0.7791 -0.1215 -0.2932
  962MOL0     C29760   9.096  -0.824   1.743 -0.6007  0.6149  0.7597
  962MOL0     C29761   9.205  -0.882   1.671 -0.2661 -0.7352 -0.2844
  962MOL0     C29762   9.331  -0.817   1.659  0.0785 -0.3999  0.3327
  962MOL0     C29763   9.350  -0.696   1.726  0.6643  0.0737  0.0490
  962MOL0     C29764   9.468  -0.614   1.693  0.6296 -0.1627 -0.5189
  962MOL0     O29765   9.560  -0.665   1.602  0.1686 -0.2950 -1.3688
  962MOL0     C29766   9.658  -0.601   1.541  0.6640 -1.4698  0.3600
  962MOL0     C29767   9.656  -0.468   1.496  0.2737 -0.3535 -0.3111
  962MOL0     C29768   9.754  -0.419   1.412 -0.0327 -0.4460  0.2108
  962MOL0     C29769   9.860  -0.491   1.378 -0.3646  0.0851 -0.2852
  962MOL0     O29770   9.968  -0.430   1.317  0.6045 -0.3846 -0.7626
  962MOL0     C29771  10.091  -0.470   1.368 -0.5031 -0.0790 -0.7162
  962MOL0     C29772  10.196  -0.355   1.341 -0.0803 -0.0218 -0.0263
  962MOL0     C29773  10.339  -0.399   1.340 -0.1193  0.9429 -0.5207
  962MOL0     C29774  10.443  -0.283   1.354  0.2763 -0.2802 -0.4681
  962MOL0     C29775  10.588  -0.333   1.308  0.7671 -0.9372  0.0865
  962MOL0     C29776  10.711  -0.272   1.380  1.7418 -0.6156 -0.8659
  962MOL0     C29777  10.842  -0.305   1.325  0.1963 -0.2425  0.5965
  962MOL0     C29778  10.886  -0.227   1.198 -1.0862 -1.1032 -0.0271
  962MOL0    Cl29779  10.912  -0.050   1.241 -0.6898  0.1724  0.6661
  962MOL0     C29780   9.867  -0.630   1.421 -0.8012 -1.1153  0.0753
  962MOL0     C29781   9.766  -0.682   1.496  0.2088  0.5149  0.2611
  962MOL0     O29782   9.480  -0.507   1.758  0.8380 -0.9616  0.0106
  962MOL0     C29783   9.243  -0.645   1.806 -0.3117  0.1688  0.2353
  962MOL0     C29784   9.124  -0.707   1.812 -0.4585 -0.5560  0.8774
  962MOL0     N29785   8.472  -0.725   2.143 -0.0585 -0.1877  0.4408
  962MOL0     N29786   8.405  -0.665   2.230  0.5756 -0.0904 -0.7031
  962MOL0     C29787   7.827   0.303   2.464  0.6040  0.5907 -0.5081
  962MOL0     C29788   7.763   0.397   2.541  0.4357 -0.2047 -0.1882
  962MOL0     C29789   7.355   0.604   2.709 -0.6242 -0.5751 -0.0569
  962MOL0     C29790   7.213   0.630   2.683 -0.4652  0.0398  0.0009
  962MOL0     C29791   7.132   0.682   2.777 -0.1454  0.5403  0.4692
  962MOL0     C29792   7.178   0.705   2.903 -0.0625  0.6034  0.4353
  962MOL0     O29793   7.110   0.760   3.008 -0.5752  0.7243 -0.4873
  962MOL0     C29794   6.978   0.803   2.992  1.3457  0.1155 -0.0066
  962MOL0     C29795   6.973   0.944   2.929 -0.3207 -0.1844  0.4524
  962MOL0     C29796   6.831   0.999   2.935 -0.4724  0.0589 -0.2043
  962MOL0     C29797   6.744   0.977   2.815  0.6951  0.2519 -0.0646
  962MOL0     C29798   6.712   0.832   2.801 -0.5102  0.1601 -0.2363
  962MOL0     C29799   6.669   0.714   2.795  0.0273  0.0037  0.5032
  962MOL0     C29800   7.305   0.657   2.934 -0.3751  0.6984  0.1513
  962MOL0     C29801   7.405   0.623   2.843 -0.0035  0.0858  0.7364
  962MOL0     C29802   7.551   0.616   2.881  0.0984 -0.5360 -0.9579
  962MOL0     H29803   7.444   0.336   2.461 -0.2292 -2.3656  0.8091
  962MOL0     H29804   7.562   0.181   2.293  1.8574 -0.9229 -1.0793
  962MOL0     H29805   7.965   0.084   2.165 -0.5267 -2.1686  0.7357
  962MOL0     H29806   8.008   0.217   2.269  2.5067 -1.8480 -0.6968
  962MOL0     H29807   7.946  -0.072   2.323  1.4805 -0.8093 -0.1021
  962MOL0     H29808   7.953   0.041   2.461  5.0094 -1.6381  1.7416
  962MOL0     H29809   8.196   0.092   2.419  3.5812 -2.8836  1.4697
  962MOL0     H29810   8.188   0.006   2.263  2.6219 -0.3905  1.7932
  962MOL0     H29811   8.171  -0.120   2.547  2.4902  0.8570  0.4750
  962MOL0     H29812   8.129  -0.206   2.400  0.9724 -0.5119 -2.2744
  962MOL0     H29813   8.354  -0.125   2.311  1.0926  0.6098 -0.3154
  962MOL0     H29814   8.367  -0.057   2.480  1.8118 -1.5247  1.0320
  962MOL0     H29815   8.500  -0.267   2.461  0.1500 -3.6206  2.7423
  962MOL0     H29816   8.356  -0.277   2.568 -1.0204  2.6415  0.5026
  962MOL0     H29817   8.384  -0.369   2.265  0.4710  0.5572  1.3800
  962MOL0     H29818   8.250  -0.405   2.382 -0.4617  1.7114 -0.9162
  962MOL0     H29819   8.525  -0.474   2.471  2.3795 -3.4331 -1.3485
  962MOL0     H29820   8.377  -0.574   2.480 -0.3369 -0.4796 -1.1367
  962MOL0     H29821   8.705  -0.540   2.286  2.1658 -0.3971 -3.6861
  962MOL0     H29822   8.676  -0.674   1.943  2.8245 -1.9378 -2.1055
  962MOL0     H29823   8.781  -0.619   2.058 -0.1400 -0.9023  0.9415
  962MOL0     H29824   8.775  -0.873   2.145  0.0298  2.3480  1.5763
  962MOL0     H29825   8.683  -0.909   1.995  1.3045 -1.6333  0.6788
  962MOL0     H29826   8.910  -0.964   2.004  1.2367 -0.1332 -0.8640
  962MOL0     H29827   8.957  -0.798   2.012  0.6401 -1.0413  0.2200
  962MOL0     H29828   8.855  -0.748   1.795  2.2584  0.0416 -1.5637
  962MOL0     H29829   8.795  -0.921   1.791  1.1057 -0.8450  1.1020
  962MOL0     H29830   9.171  -0.975   1.628  0.6083 -0.9669 -0.5025
  962MOL0     H29831   9.394  -0.867   1.586 -1.0318  0.2872 -1.1455
  962MOL0     H29832   9.569  -0.409   1.525 -2.8559 -4.2501 -1.0231
  962MOL0     H29833   9.758  -0.313   1.387  2.4257 -0.2095  1.4034
  962MOL0     H29834  10.093  -0.488   1.475  3.4553  1.1348 -0.4148
  962MOL0     H29835  10.119  -0.566   1.326 -1.3149 -1.6419  2.0956
  962MOL0     H29836  10.178  -0.311   1.243 -2.4693  0.9364  0.7748
  962MOL0     H29837  10.198  -0.275   1.415  1.2010  1.0135 -1.1292
  962MOL0     H29838  10.353  -0.466   1.426 -2.1527  1.8211  0.5591
  962MOL0     H29839  10.356  -0.456   1.248 -0.5030 -3.4897  1.8780
  962MOL0     H29840  10.451  -0.254   1.459  1.4738  0.8598 -0.8577
  962MOL0     H29841  10.413  -0.194   1.297  0.3594 -0.0168 -0.0998
  962MOL0     H29842  10.589  -0.299   1.204 -1.3142 -2.4930 -0.5236
  962MOL0     H29843  10.599  -0.441   1.320  1.9827 -0.9591 -1.0560
  962MOL0     H29844  10.699  -0.165   1.397  2.5797 -0.9403  2.4722
  962MOL0     H29845  10.716  -0.317   1.479 -2.0042 -1.1082 -0.7396
  962MOL0     H29846  10.840  -0.412   1.301 -1.1116  0.0198 -0.6250
  962MOL0     H29847  10.915  -0.278   1.401  0.0446  1.2172  0.2520
  962MOL0     H29848  10.978  -0.267   1.154 -1.2056 -0.3709 -0.9877
  962MOL0     H29849  10.812  -0.235   1.117  0.3001  0.7247 -1.5621
  962MOL0     H29850   9.955  -0.694   1.407 -0.4745 -0.9093  1.1556
  962MOL0     H29851   9.773  -0.789   1.511  1.8743  0.1938 -2.1716
  962MOL0     H29852   9.243  -0.543   1.844 -1.4331  1.0811 -2.0155
  962MOL0     H29853   9.048  -0.648   1.862 -1.2405  0.0199 -0.9087
  962MOL0     H29854   7.935   0.297   2.471  0.5720  0.2946 -0.2379
  962MOL0     H29855   7.817   0.466   2.605  0.6865  0.5520 -1.1972
  962MOL0     H29856   7.181   0.634   2.579  1.3137 -2.4203 -0.7396
  962MOL0     H29857   7.036   0.723   2.748 -0.4624 -1.6807 -2.0256
  962MOL0     H29858   6.930   0.815   3.090  2.0882  1.5255  0.1984
  962MOL0     H29859   6.917   0.733   2.934  1.1630 -0.9548  1.4133
  962MOL0     H29860   6.989   0.939   2.821 -3.2260  1.4366 -0.1533
  962MOL0     H29861   7.031   1.019   2.984 -5.1104  5.1164 -0.7456
  962MOL0     H29862   6.832   1.108   2.940  2.3941  0.0445  0.9979
  962MOL0     H29863   6.788   0.956   3.026  0.9048 -0.6671  0.1326
  962MOL0     H29864   6.655   1.035   2.842  0.9523  2.0971 -2.7650
  962MOL0     H29865   6.784   1.035   2.730 -1.0356  0.1792 -0.9689
  962MOL0     H29866   6.626   0.618   2.780 -0.3000  0.3098 -0.6010
  962MOL0     H29867   7.339   0.662   3.037 -0.6316 -1.1961  0.3574
  962MOL0     H29868   7.612   0.665   2.804  0.5457 -2.4432 -1.8879
  962MOL0     H29869   7.561   0.676   2.972  3.3385 -1.6971 -0.4322
  962MOL0     H29870   7.587   0.517   2.909 -1.4639 -0.0781  3.3998
  963MOL0     O29871   0.585   0.315   9.573  0.6141 -0.1912 -0.5254
  963MOL0     C29872   0.682   0.280   9.505  1.1021 -0.6417 -0.2268
  963MOL0     O29873   0.659   0.242   9.368 -0.2410  0.3364 -0.0538
  963MOL0     C29874   0.539   0.279   9.305  0.2265  0.5392  0.1187
  963MOL0     C29875   0.506   0.408   9.273 -0.4925  0.7999  0.3110
  963MOL0     C29876   0.385   0.442   9.199 -0.1475 -0.8128 -0.3784
  963MOL0     C29877   0.286   0.340   9.184  0.0219  0.1719  0.2891
  963MOL0     O29878   0.168   0.345   9.117  0.6141  0.5381  0.0403
  963MOL0     C29879   0.141   0.463   9.044 -0.5146 -0.6324 -0.4683
  963MOL0     C29880   0.068   0.565   9.137 -0.4342  0.7625  1.0684
  963MOL0     C29881  -0.075   0.591   9.101  0.5476  0.4785  0.1430
  963MOL0     C29882  -0.157   0.472   9.074  0.5881  0.3047 -0.6595
  963MOL0     C29883  -0.313   0.513   9.117 -0.5126 -1.2528  0.6747
  963MOL0     C29884  -0.334   0.534   9.267  0.1830 -0.4467 -0.3603
  963MOL0     C29885  -0.458   0.619   9.282  0.2653  0.4944 -0.7142
  963MOL0     C29886  -0.584   0.540   9.259  0.7476  0.3591  0.2848
  963MOL0     N29887  -0.712   0.611   9.270  0.1824  0.3260  0.2962
  963MOL0     C29888  -0.809   0.561   9.349  0.3940  0.8352  0.2507
  963MOL0     C29889  -0.905   0.657   9.351 -0.2758  0.1682 -0.6693
  963MOL0     C29890  -1.041   0.642   9.406  0.4355 -0.1368  0.4283
  963MOL0     C29891  -1.068   0.688   9.545 -0.2273 -0.1793  0.3415
  963MOL0     C29892  -0.977   0.632   9.651  0.7488  0.1830  0.2053
  963MOL0     C29893  -0.845   0.701   9.674  0.1319  0.2823  0.2276
  963MOL0     O29894  -0.874   0.836   9.720  0.4913 -0.0160 -0.1021
  963MOL0     C29895  -0.774   0.925   9.708 -0.4622  0.5410  0.4465
  963MOL0     C29896  -0.743   0.982   9.587  0.4699 -0.1678  0.4100
  963MOL0     C29897  -0.656   1.089   9.587  0.3810 -0.6175  0.3873
  963MOL0     C29898  -0.595   1.145   9.702  0.0988  0.9799 -0.4289
  963MOL0     C29899  -0.498   1.252   9.708 -0.9751  0.6868  0.4801
  963MOL0     O29900  -0.455   1.293   9.830 -0.9488  0.1535 -0.3608
  963MOL0     C29901  -0.360   1.387   9.834  0.6355 -0.2118 -0.0002
  963MOL0     C29902  -0.238   1.348   9.880 -0.1644 -0.7839 -0.6410
  963MOL0     C29903  -0.136   1.446   9.905  0.0026  0.4952  0.5243
  963MOL0     C29904  -0.161   1.588   9.892 -0.1867  0.5739  0.1168
  963MOL0     O29905  -0.069   1.682   9.932 -0.8035 -0.7853 -0.0672
  963MOL0     C29906   0.068   1.637   9.938  0.2339  0.2125 -0.9028
  963MOL0     C29907   0.161   1.761   9.948 -0.1906  0.0292  0.5210
  963MOL0     C29908   0.306   1.723   9.971  0.0284  0.1783 -0.0828
  963MOL0     C29909   0.420   1.817   9.903  0.3916 -0.5808  0.2274
  963MOL0     C29910   0.466   1.760   9.766 -0.2549  0.1145 -0.3375
  963MOL0     C29911   0.537   1.855   9.674 -0.3651 -0.5270  0.2769
  963MOL0     C29912   0.685   1.872   9.710  0.7876 -0.3963  1.1188
  963MOL0     C29913   0.770   1.766   9.643  0.3247 -0.0796 -0.3180
  963MOL0    Cl29914   0.791   1.796   9.461 -0.8259 -0.1453  0.3069
  963MOL0     C29915  -0.289   1.621   9.837 -0.4501 -0.7190  0.5287
  963MOL0     C29916  -0.389   1.524   9.814 -1.0157 -0.2636  0.2576
  963MOL0     O29917  -0.431   1.273   9.605 -0.4443  0.2549  0.0914
  963MOL0     C29918  -0.627   1.081   9.816  0.5160 -0.4140 -0.0030
  963MOL0     C29919  -0.713   0.975   9.822  0.9579  0.7649  0.5298
  963MOL0     N29920  -0.858   0.764   9.282 -0.2977  0.6078  0.3277
  963MOL0     N29921  -0.741   0.740   9.242 -0.0852 -0.9952 -0.0902
  963MOL0     C29922   0.319   0.212   9.217 -0.1218  0.4298  0.1391
  963MOL0     C29923   0.438   0.182   9.275 -0.9867 -0.5177 -0.8075
  963MOL0     C29924   0.819   0.270   9.557  0.1207  0.6105  0.2386
  963MOL0     C29925   0.916   0.195   9.480  0.6879  0.0162  0.3952
  963MOL0     C29926   1.043   0.173   9.542 -0.4711 -0.8228  0.4608
  963MOL0     C29927   1.077   0.229   9.667  0.5462 -0.0112  0.5889
  963MOL0     O29928   1.196   0.204   9.728 -0.8372 -0.3455  0.0377
  963MOL0     C29929   1.288   0.112   9.672  0.6508  0.1022  0.4543
  963MOL0     C29930   1.420   0.133   9.756  0.6612 -1.1617  0.0577
  963MOL0     C29931   1.529   0.026   9.740 -0.9117 -0.1536  0.1692
  963MOL0     C29932   1.669   0.063   9.789  0.9463  0.5439 -0.6138
  963MOL0     C29933   1.660   0.109   9.935 -0.1532 -0.1943  0.0912
  963MOL0     C29934   1.649   0.135  10.052 -0.5227  0.0344 -0.1096
  963MOL0     C29935   0.984   0.302   9.733  0.5102 -0.5332  0.5358
  963MOL0     C29936   0.856   0.326   9.685  0.8501 -0.1127  0.9092
  963MOL0     C29937   0.760   0.389   9.779 -0.4733  0.8268  0.0201
  963MOL0     H29938   0.574   0.490   9.294 -1.2130  0.9729  2.1655
  963MOL0     H29939   0.366   0.545   9.169 -0.7711 -0.3202  1.5996
  963MOL0     H29940   0.230   0.511   9.004 -0.6496  0.0153 -0.0019
  963MOL0     H29941   0.079   0.439   8.957  0.3402 -0.0356 -1.2629
  963MOL0     H29942   0.113   0.663   9.120  3.1352 -1.0133 -0.8323
  963MOL0     H29943   0.084   0.540   9.243  0.7106 -0.4720  0.6314
  963MOL0     H29944  -0.078   0.647   9.007  0.9263  0.6857  0.2559
  963MOL0     H29945  -0.112   0.654   9.182  2.0679 -1.0825  2.1447
  963MOL0     H29946  -0.149   0.458   8.966  4.1191  0.6382 -0.5410
  963MOL0     H29947  -0.125   0.382   9.128  2.2245 -0.5309 -2.8843
  963MOL0     H29948  -0.340   0.604   9.063  2.1595 -0.4823  0.4797
  963MOL0     H29949  -0.378   0.433   9.081 -1.6220 -1.8364  3.6993
  963MOL0     H29950  -0.345   0.436   9.314 -1.9173 -0.3108 -0.4862
  963MOL0     H29951  -0.250   0.587   9.312 -1.2402  2.0524 -0.5135
  963MOL0     H29952  -0.451   0.704   9.214  0.5759 -0.2694 -1.6490
  963MOL0     H29953  -0.470   0.654   9.386  3.0950 -2.1038  0.6305
  963MOL0     H29954  -0.582   0.494   9.160  2.5245  0.8708  0.0423
  963MOL0     H29955  -0.575   0.457   9.330  2.4360 -0.0136 -0.2942
  963MOL0     H29956  -0.820   0.469   9.405  1.5737  0.6146  0.1385
  963MOL0     H29957  -1.115   0.682   9.336 -0.9020 -4.0115 -0.6532
  963MOL0     H29958  -1.066   0.535   9.403 -0.9691  0.1865 -1.9541
  963MOL0     H29959  -1.066   0.797   9.536  0.1741 -0.2018  0.1404
  963MOL0     H29960  -1.169   0.659   9.575 -1.3713  1.5647 -1.5803
  963MOL0     H29961  -0.968   0.524   9.632 -1.7178  0.3481 -2.6137
  963MOL0     H29962  -1.041   0.647   9.738  0.6453 -0.9424  0.3426
  963MOL0     H29963  -0.770   0.692   9.595 -0.6174 -0.6817 -0.4094
  963MOL0     H29964  -0.804   0.647   9.759  0.6177  1.7918  0.9826
  963MOL0     H29965  -0.789   0.947   9.495  1.6481 -2.6097  0.6899
  963MOL0     H29966  -0.631   1.139   9.493 -0.4325 -3.0457 -1.2207
  963MOL0     H29967  -0.205   1.248   9.906 -1.0628 -1.2422 -1.2345
  963MOL0     H29968  -0.048   1.398   9.946 -1.1668 -2.1635  0.1088
  963MOL0     H29969   0.078   1.590  10.036 -0.1671  0.8879 -0.5343
  963MOL0     H29970   0.104   1.573   9.857 -1.4389  0.7708 -2.1405
  963MOL0     H29971   0.147   1.815   9.854  0.0153  1.3939  1.2537
  963MOL0     H29972   0.128   1.834  10.023  0.9542  0.8452  0.2613
  963MOL0     H29973   0.329   1.719  10.078  0.6193 -1.8730 -0.2455
  963MOL0     H29974   0.327   1.629   9.918  0.0676  1.9514 -3.4944
  963MOL0     H29975   0.499   1.827   9.978  0.1865  5.5133  0.1777
  963MOL0     H29976   0.370   1.913   9.884 -0.0117 -0.2397  2.6253
  963MOL0     H29977   0.383   1.721   9.706  2.7926 -0.3802 -4.7455
  963MOL0     H29978   0.525   1.672   9.794  2.2309  2.3984  2.3603
  963MOL0     H29979   0.523   1.826   9.570 -2.2835 -1.0067  0.6350
  963MOL0     H29980   0.476   1.946   9.685  0.3663  0.3698 -2.3716
  963MOL0     H29981   0.678   1.866   9.819 -2.2855 -1.9857  0.9377
  963MOL0     H29982   0.717   1.975   9.690 -0.3083 -0.4223 -1.1290
  963MOL0     H29983   0.869   1.774   9.688  0.1109  2.9603 -0.1412
  963MOL0     H29984   0.724   1.667   9.653  0.8950 -0.6013 -2.4582
  963MOL0     H29985  -0.304   1.727   9.820  2.0283 -0.4166 -0.1301
  963MOL0     H29986  -0.487   1.556   9.782 -0.6926 -0.7223 -1.2620
  963MOL0     H29987  -0.574   1.108   9.907  2.1773 -0.8818 -0.8001
  963MOL0     H29988  -0.738   0.924   9.915 -4.7582 -0.3296 -1.2124
  963MOL0     H29989   0.248   0.130   9.207 -0.1546 -0.0130  2.9180
  963MOL0     H29990   0.461   0.080   9.305  0.4357 -0.1383 -0.5525
  963MOL0     H29991   0.912   0.144   9.385 -1.4750  0.0376  0.4193
  963MOL0     H29992   1.113   0.103   9.497 -0.1550  0.0733 -0.4534
  963MOL0     H29993   1.308   0.132   9.566  2.5862 -1.5258  0.4730
  963MOL0     H29994   1.253   0.009   9.680 -0.8740  0.3946 -1.6262
  963MOL0     H29995   1.390   0.140   9.861  0.9010 -1.5229  0.1552
  963MOL0     H29996   1.439   0.239   9.740 -3.3845  0.0161  1.7079
  963MOL0     H29997   1.540  -0.021   9.642  0.0917 -0.3513  0.3618
  963MOL0     H29998   1.495  -0.055   9.804 -2.5354 -0.8807 -1.5335
  963MOL0     H29999   1.724  -0.030   9.776 -0.3458 -0.6355  1.6636
  963MOL0     H30000   1.711   0.147   9.732  1.2223  1.8324  1.3828
  963MOL0     H30001   1.633   0.133  10.158  2.5210  3.8670  0.6271
  963MOL0     H30002   1.013   0.349   9.826 -2.7880 -2.1206  2.5529
  963MOL0     H30003   0.813   0.444   9.857  2.9510  2.9280 -3.4498
  963MOL0     H30004   0.701   0.460   9.719 -0.6968 -1.3129 -2.4839
  963MOL0     H30005   0.684   0.318   9.813  1.3833 -0.9645  0.6073
  964MOL0     O30006   9.153   4.410   9.575  0.1460 -0.6305  0.1451
  964MOL0     C30007   9.096   4.407   9.684 -0.0213 -0.4993  0.8409
  964MOL0     O30008   8.955   4.412   9.695 -0.4673  0.1685 -0.5014
  964MOL0     C30009   8.881   4.456   9.594 -0.5204 -0.4863  0.4463
  964MOL0     C30010   8.784   4.558   9.612 -0.7610 -0.1212  0.0327
  964MOL0     C30011   8.690   4.593   9.513 -0.0311 -0.9116  0.1942
  964MOL0     C30012   8.684   4.522   9.390  0.1813 -0.3025  0.4185
  964MOL0     O30013   8.591   4.561   9.293  0.2190  0.2011  0.0585
  964MOL0     C30014   8.549   4.467   9.196 -0.7768 -0.5153  0.1876
  964MOL0     C30015   8.422   4.517   9.130  0.5688  0.0030 -0.9259
  964MOL0     C30016   8.361   4.402   9.047 -0.6013  0.7064  0.0622
  964MOL0     C30017   8.226   4.424   8.977  0.2141 -0.7093 -0.1526
  964MOL0     C30018   8.200   4.290   8.902  0.4673 -0.5641 -0.1819
  964MOL0     C30019   8.106   4.300   8.776 -1.2284 -0.7156  0.8419
  964MOL0     C30020   7.981   4.382   8.815  0.2311  0.7650 -0.1570
  964MOL0     C30021   7.883   4.301   8.901 -1.6434  0.9663 -1.0529
  964MOL0     N30022   7.818   4.187   8.833  0.0113  0.1711 -0.0440
  964MOL0     C30023   7.701   4.183   8.761  0.3638  0.8500 -0.2629
  964MOL0     C30024   7.692   4.053   8.724  0.5313 -0.6216 -0.8730
  964MOL0     C30025   7.574   3.991   8.656  0.1957  0.4134  0.3112
  964MOL0     C30026   7.576   3.840   8.671  0.5351  0.2723  0.4710
  964MOL0     C30027   7.452   3.792   8.594 -0.2108  0.1731 -1.0877
  964MOL0     C30028   7.460   3.642   8.545  0.0235 -0.2822 -0.3067
  964MOL0     O30029   7.343   3.593   8.475  0.3259 -0.2270 -0.3094
  964MOL0     C30030   7.235   3.558   8.560  0.2980  0.1147 -0.1512
  964MOL0     C30031   7.233   3.510   8.692 -0.4937  0.1375  0.1227
  964MOL0     C30032   7.111   3.465   8.743  0.4283  0.1281 -0.3359
  964MOL0     C30033   6.996   3.466   8.670  0.1525 -0.5393 -0.4163
  964MOL0     C30034   6.872   3.424   8.743 -0.2968  0.2426 -0.3765
  964MOL0     O30035   6.762   3.472   8.690  0.9485 -0.1648  0.3396
  964MOL0     C30036   6.652   3.485   8.774 -0.3145  0.2007 -0.4463
  964MOL0     C30037   6.593   3.381   8.848  0.5539  0.2329 -0.7374
  964MOL0     C30038   6.470   3.407   8.918  0.3958 -0.0819  0.2617
  964MOL0     C30039   6.425   3.540   8.925  0.3096 -0.1384 -0.2672
  964MOL0     O30040   6.323   3.581   9.021  0.8314  0.3289  1.1702
  964MOL0     C30041   6.204   3.497   9.024  0.9837  0.0052  1.0155
  964MOL0     C30042   6.136   3.506   9.151 -1.3405  0.0605 -0.4215
  964MOL0     C30043   6.088   3.657   9.184 -0.1165  0.1290 -0.4544
  964MOL0     C30044   6.194   3.733   9.258 -0.2407  0.1415  0.6839
  964MOL0     C30045   6.135   3.843   9.344  1.1593  0.1547  0.6636
  964MOL0     C30046   6.237   3.941   9.400 -0.3031  0.6490  0.7223
  964MOL0     C30047   6.345   3.869   9.489  0.5016 -0.0799 -0.0630
  964MOL0     C30048   6.274   3.810   9.619 -0.1082  0.2920  0.6445
  964MOL0    Cl30049   6.391   3.759   9.738  0.4719 -0.2355 -0.0942
  964MOL0     C30050   6.496   3.641   8.860  0.0132  0.1505  0.4453
  964MOL0     C30051   6.591   3.610   8.769  0.1667  0.1864 -0.3637
  964MOL0     O30052   6.875   3.346   8.842 -0.0846 -0.6216  0.4540
  964MOL0     C30053   7.002   3.511   8.538  0.7113  0.0100  0.5866
  964MOL0     C30054   7.119   3.555   8.486  0.0850 -0.6697  0.6197
  964MOL0     N30055   7.809   3.989   8.762 -0.9689 -0.5065  0.2957
  964MOL0     N30056   7.879   4.066   8.840 -0.7294 -0.9880  0.5877
  964MOL0     C30057   8.776   4.422   9.370  0.9342  0.0222 -0.1787
  964MOL0     C30058   8.867   4.388   9.472  0.1282 -0.2102  0.1451
  964MOL0     C30059   9.170   4.399   9.812  0.2312 -0.0506 -0.3504
  964MOL0     C30060   9.086   4.370   9.927  0.6539 -0.1532  0.5723
  964MOL0     C30061   9.143   4.367  10.054 -0.5828 -0.2938 -0.6643
  964MOL0     C30062   9.287   4.374  10.070 -0.0692  0.2144  0.0283
  964MOL0     O30063   9.352   4.384  10.192  0.8622 -0.6318 -0.7417
  964MOL0     C30064   9.269   4.346  10.308 -0.5251  0.1559  0.2419
  964MOL0     C30065   9.348   4.327  10.437 -0.3359  0.1544  0.1837
  964MOL0     C30066   9.434   4.199  10.429 -0.0810  0.8134  0.2249
  964MOL0     C30067   9.536   4.195  10.542 -0.5876  0.6279  0.6082
  964MOL0     C30068   9.479   4.226  10.673  0.1253  0.4239 -0.1187
  964MOL0     C30069   9.410   4.247  10.766  0.6043 -0.2635  0.0081
  964MOL0     C30070   9.359   4.385   9.955 -0.1475 -0.2940 -0.8310
  964MOL0     C30071   9.311   4.409   9.835  0.1355  0.6141 -0.6103
  964MOL0     C30072   9.412   4.418   9.730  0.2021 -0.4393 -0.9793
  964MOL0     H30073   8.789   4.616   9.704 -0.3448  2.6072 -1.6229
  964MOL0     H30074   8.617   4.667   9.544 -0.6468 -1.1381 -0.6848
  964MOL0     H30075   8.634   4.463   9.127  0.3410  2.1114  1.2520
  964MOL0     H30076   8.531   4.376   9.253 -2.4734  1.6083  3.3580
  964MOL0     H30077   8.452   4.599   9.064 -2.6957  2.0163 -0.1313
  964MOL0     H30078   8.360   4.546   9.215  1.4675 -1.0987  0.1368
  964MOL0     H30079   8.342   4.319   9.115  1.2502 -3.2223 -3.6990
  964MOL0     H30080   8.442   4.379   8.977  0.3826  0.1103  1.3730
  964MOL0     H30081   8.147   4.439   9.051 -0.2883  2.5200 -1.2198
  964MOL0     H30082   8.221   4.516   8.919  0.3583 -1.5670 -1.5802
  964MOL0     H30083   8.294   4.246   8.868  2.2156  2.8534 -0.2011
  964MOL0     H30084   8.153   4.223   8.975 -0.7310 -0.3855 -0.7549
  964MOL0     H30085   8.157   4.354   8.696 -0.0842 -0.8022  1.4879
  964MOL0     H30086   8.062   4.206   8.742 -0.3738 -0.2216 -1.8411
  964MOL0     H30087   7.931   4.403   8.720  2.5550  2.7952 -1.0311
  964MOL0     H30088   8.006   4.481   8.855  1.9292 -0.3371  1.6554
  964MOL0     H30089   7.938   4.248   8.979 -0.5013  0.7320 -1.9787
  964MOL0     H30090   7.803   4.362   8.943 -0.3399  0.3037  2.7395
  964MOL0     H30091   7.633   4.267   8.748 -0.4414  0.5118  1.3870
  964MOL0     H30092   7.491   4.045   8.703  0.6038  0.9328  0.4425
  964MOL0     H30093   7.575   4.029   8.554 -1.2096 -0.6952 -0.1556
  964MOL0     H30094   7.663   3.790   8.629  0.7128  0.4795  0.5905
  964MOL0     H30095   7.571   3.815   8.778 -1.5472  1.1661  0.6340
  964MOL0     H30096   7.429   3.848   8.503 -2.4814 -0.7198 -1.1318
  964MOL0     H30097   7.371   3.818   8.663  2.3801  2.5324  1.3636
  964MOL0     H30098   7.484   3.578   8.630  1.2417  0.0129 -0.4125
  964MOL0     H30099   7.542   3.632   8.474  0.3148 -5.7268  0.4211
  964MOL0     H30100   7.329   3.497   8.742 -0.2761 -0.5420 -0.4520
  964MOL0     H30101   7.100   3.438   8.848 -0.5212 -1.8531 -0.8841
  964MOL0     H30102   6.628   3.279   8.858 -3.0585 -0.9107  2.3259
  964MOL0     H30103   6.429   3.330   8.982 -4.9619  3.8520  2.3154
  964MOL0     H30104   6.140   3.533   8.943  1.0677 -0.8952  0.5361
  964MOL0     H30105   6.221   3.394   8.992 -0.6124 -0.2766  1.0295
  964MOL0     H30106   6.051   3.438   9.159 -0.0273 -1.4942  0.8249
  964MOL0     H30107   6.207   3.463   9.222 -2.3094  1.6620  1.6208
  964MOL0     H30108   6.062   3.702   9.088  0.1431  0.0679 -0.5545
  964MOL0     H30109   6.001   3.658   9.250  1.6792  0.0162  2.0382
  964MOL0     H30110   6.277   3.765   9.194 -0.2004  0.9829  1.1336
  964MOL0     H30111   6.236   3.660   9.328 -0.9893 -1.5386 -0.5656
  964MOL0     H30112   6.063   3.800   9.415 -1.0832  2.7548  0.1235
  964MOL0     H30113   6.086   3.913   9.276  0.6285 -0.0437  0.8323
  964MOL0     H30114   6.300   3.974   9.317 -1.3832  0.8044 -0.0552
  964MOL0     H30115   6.193   4.021   9.459 -0.7907  2.2447 -1.6872
  964MOL0     H30116   6.423   3.941   9.515  1.7939 -1.5311  0.2310
  964MOL0     H30117   6.390   3.783   9.438 -3.4702 -1.9981 -0.6940
  964MOL0     H30118   6.201   3.882   9.655 -0.8039 -0.1925  0.2212
  964MOL0     H30119   6.212   3.727   9.584  1.6114 -0.9104  0.2880
  964MOL0     H30120   6.469   3.741   8.891 -0.8940 -0.8090  3.0408
  964MOL0     H30121   6.632   3.675   8.693 -0.5658  0.2219 -0.7361
  964MOL0     H30122   6.907   3.522   8.488  1.5836 -0.5379 -1.2834
  964MOL0     H30123   7.125   3.586   8.382  0.3679 -2.9481 -0.1072
  964MOL0     H30124   8.765   4.359   9.282  0.7489 -3.0246  1.8577
  964MOL0     H30125   8.932   4.302   9.459  2.4175  1.4485 -0.1123
  964MOL0     H30126   8.978   4.358   9.927  0.6575 -1.5167  4.2629
  964MOL0     H30127   9.084   4.369  10.146  2.6949  4.5975  1.7923
  964MOL0     H30128   9.206   4.258  10.292 -1.5262  0.6122  1.5242
  964MOL0     H30129   9.196   4.424  10.330 -2.3358 -0.2367 -3.6083
  964MOL0     H30130   9.283   4.305  10.522  0.0822 -1.4448  0.1156
  964MOL0     H30131   9.417   4.410  10.458 -0.2160 -0.0344  0.5341
  964MOL0     H30132   9.493   4.192  10.337  0.9614  0.3438  0.9009
  964MOL0     H30133   9.364   4.114  10.432 -0.6298  1.2791  0.9179
  964MOL0     H30134   9.571   4.093  10.530 -0.8616  0.6414 -0.3224
  964MOL0     H30135   9.623   4.255  10.514  0.9212 -2.7124 -2.6636
  964MOL0     H30136   9.340   4.271  10.843  0.4421  1.2797 -0.5834
  964MOL0     H30137   9.465   4.404   9.971  0.3624 -4.5205  2.3804
  964MOL0     H30138   9.403   4.340   9.654 -1.8198 -2.0258  0.7771
  964MOL0     H30139   9.403   4.512   9.676  0.4880  0.7825  1.0184
  964MOL0     H30140   9.510   4.395   9.773 -0.3763 -0.5366  0.3260
  965MOL0     O30141   3.420   3.922   4.872 -0.0648  0.6938  0.2610
  965MOL0     C30142   3.387   3.818   4.816  0.2063  0.5364  0.3279
  965MOL0     O30143   3.482   3.737   4.767  0.1049  0.1734 -0.1478
  965MOL0     C30144   3.613   3.771   4.744  0.2394 -0.3392 -0.1577
  965MOL0     C30145   3.708   3.671   4.789  1.2836  0.0588  0.5922
  965MOL0     C30146   3.843   3.674   4.742 -1.1740 -1.0241 -0.4322
  965MOL0     C30147   3.889   3.790   4.675 -0.2169  0.0938 -0.0226
  965MOL0     O30148   4.017   3.815   4.639  0.3487  0.4353  0.4332
  965MOL0     C30149   4.113   3.728   4.704  0.4640  0.3526  0.3785
  965MOL0     C30150   4.247   3.788   4.687  0.1863 -0.9791  0.2907
  965MOL0     C30151   4.293   3.797   4.541  0.0669  0.6089  0.6776
  965MOL0     C30152   4.417   3.885   4.525  0.6630 -0.7466 -0.2175
  965MOL0     C30153   4.471   3.899   4.383 -0.5757  0.0117  0.1725
  965MOL0     C30154   4.569   3.782   4.358 -0.7627 -0.3079 -0.3693
  965MOL0     C30155   4.600   3.783   4.202  1.2160  0.0466 -0.3109
  965MOL0     C30156   4.672   3.662   4.165  0.1960  0.0100  0.2639
  965MOL0     N30157   4.808   3.654   4.223  0.7707 -0.5113  0.2062
  965MOL0     C30158   4.920   3.741   4.224  0.0783 -0.2646 -0.3854
  965MOL0     C30159   5.015   3.672   4.292  0.4938 -0.0813 -0.1708
  965MOL0     C30160   5.153   3.727   4.328  0.4907 -0.4900 -0.1040
  965MOL0     C30161   5.266   3.660   4.256 -0.4009  0.2969 -0.8452
  965MOL0     C30162   5.285   3.520   4.317 -0.4445 -0.6455 -0.4199
  965MOL0     C30163   5.433   3.476   4.345  0.0282 -0.0061 -0.3725
  965MOL0     O30164   5.526   3.530   4.249  0.4626 -0.0309  0.5181
  965MOL0     C30165   5.657   3.538   4.281  0.0683 -1.3511  0.1087
  965MOL0     C30166   5.724   3.453   4.366  0.7608  0.8031  0.0517
  965MOL0     C30167   5.866   3.456   4.372  0.4809 -0.5817 -1.1318
  965MOL0     C30168   5.948   3.548   4.306  0.0696 -0.3535  0.4679
  965MOL0     C30169   6.096   3.540   4.319  1.0564  0.2207  0.2089
  965MOL0     O30170   6.140   3.444   4.406 -0.4281 -0.1278  0.2126
  965MOL0     C30171   6.279   3.444   4.433  0.2412  0.1464  0.0772
  965MOL0     C30172   6.303   3.404   4.557 -0.9281  0.0282 -0.0083
  965MOL0     C30173   6.442   3.385   4.616  0.3139 -0.4423 -0.0350
  965MOL0     C30174   6.550   3.409   4.526 -0.2967  0.5138  0.4380
  965MOL0     O30175   6.678   3.401   4.572 -0.4346 -0.3156  0.4034
  965MOL0     C30176   6.796   3.434   4.496  0.1977 -0.2994 -0.4386
  965MOL0     C30177   6.919   3.386   4.573  0.3984  0.2071 -0.2042
  965MOL0     C30178   7.050   3.401   4.492  1.0778  0.4301  0.3930
  965MOL0     C30179   7.178   3.335   4.551  0.8121 -0.5263 -0.0618
  965MOL0     C30180   7.153   3.196   4.609  0.4515 -0.1481 -1.0851
  965MOL0     C30181   7.285   3.120   4.616  0.4940 -0.1797  0.2065
  965MOL0     C30182   7.391   3.197   4.697 -1.2762  1.4459 -0.3071
  965MOL0     C30183   7.506   3.106   4.727 -0.9064  0.1789  0.4634
  965MOL0    Cl30184   7.650   3.211   4.790  0.0659  0.2380  0.4514
  965MOL0     C30185   6.523   3.451   4.396  0.2827  0.2769  0.5091
  965MOL0     C30186   6.387   3.471   4.351 -0.5672 -0.0989 -0.4154
  965MOL0     O30187   6.165   3.609   4.245  0.1550  0.2280 -0.7669
  965MOL0     C30188   5.875   3.645   4.225 -0.7405  0.0880  0.0587
  965MOL0     C30189   5.734   3.641   4.213 -0.6681  0.2078  0.8972
  965MOL0     N30190   4.965   3.557   4.335  0.5088  0.1197  0.0787
  965MOL0     N30191   4.838   3.545   4.301 -0.1506 -0.4724  0.6996
  965MOL0     C30192   3.801   3.900   4.658 -0.4718  0.0785  0.7136
  965MOL0     C30193   3.665   3.888   4.692  0.1056 -0.4738  0.1565
  965MOL0     C30194   3.238   3.789   4.803 -0.6107  0.7346  1.2132
  965MOL0     C30195   3.145   3.901   4.805 -0.2014 -0.0756 -0.4696
  965MOL0     C30196   3.003   3.863   4.803 -0.2290  0.4892 -0.1594
  965MOL0     C30197   2.964   3.727   4.812  0.7165 -0.2372  0.3027
  965MOL0     O30198   2.829   3.712   4.820  0.1855  0.9011  1.0708
  965MOL0     C30199   2.779   3.576   4.849  0.4283  0.4158  0.0799
  965MOL0     C30200   2.632   3.573   4.888 -0.1509 -0.0589  0.8366
  965MOL0     C30201   2.545   3.666   4.806 -0.5230  0.4329  0.1286
  965MOL0     C30202   2.501   3.587   4.678 -0.0472 -0.7621 -0.6615
  965MOL0     C30203   2.389   3.505   4.690  0.8394  0.4669 -0.7057
  965MOL0     C30204   2.295   3.431   4.707  0.3981 -0.2901  0.8401
  965MOL0     C30205   3.058   3.627   4.800  1.3622 -0.0282 -0.2431
  965MOL0     C30206   3.192   3.654   4.792  0.4374 -0.4300 -0.4226
  965MOL0     C30207   3.276   3.529   4.808  0.0707 -0.4312  0.1464
  965MOL0     H30208   3.667   3.588   4.845 -0.1973 -0.0743 -0.6179
  965MOL0     H30209   3.914   3.601   4.779  0.3835  0.9773  0.7505
  965MOL0     H30210   4.105   3.728   4.813  2.9428  1.1832  0.6098
  965MOL0     H30211   4.106   3.627   4.663 -0.4991  1.3950 -2.2680
  965MOL0     H30212   4.318   3.716   4.730 -0.4429 -3.2318 -2.1852
  965MOL0     H30213   4.248   3.891   4.724 -3.0541 -0.6592 -0.2816
  965MOL0     H30214   4.211   3.848   4.490 -1.1531 -2.8070 -1.1265
  965MOL0     H30215   4.297   3.706   4.480 -0.5865  2.1505 -1.8025
  965MOL0     H30216   4.377   3.985   4.544  1.8879  0.0854 -1.7730
  965MOL0     H30217   4.486   3.874   4.610 -0.8620 -1.6236  0.9530
  965MOL0     H30218   4.387   3.901   4.314 -0.3162 -1.0378 -0.1883
  965MOL0     H30219   4.527   3.990   4.359  2.0518 -1.4832  0.2336
  965MOL0     H30220   4.661   3.789   4.417  0.2709 -2.8986 -1.5061
  965MOL0     H30221   4.527   3.688   4.392 -0.8723 -0.5724 -1.2065
  965MOL0     H30222   4.661   3.869   4.172  1.0504 -0.4439 -2.1687
  965MOL0     H30223   4.502   3.798   4.154  1.1946  0.2035 -0.2214
  965MOL0     H30224   4.615   3.574   4.197  1.5265 -1.8110 -2.0739
  965MOL0     H30225   4.686   3.658   4.057  1.9624 -2.6907  0.4760
  965MOL0     H30226   4.923   3.840   4.180  2.2465 -0.1425 -0.0374
  965MOL0     H30227   5.151   3.834   4.304 -0.9936  0.3402  3.1512
  965MOL0     H30228   5.155   3.719   4.437 -2.9717 -3.3766 -0.0522
  965MOL0     H30229   5.257   3.656   4.147 -1.0110 -3.3519 -0.7643
  965MOL0     H30230   5.354   3.722   4.275  1.6467 -2.0511 -2.1744
  965MOL0     H30231   5.245   3.452   4.240 -0.7856 -0.4853 -0.3845
  965MOL0     H30232   5.229   3.507   4.410  0.0626 -0.8032 -0.1324
  965MOL0     H30233   5.433   3.367   4.349  1.1267  0.0035  2.3057
  965MOL0     H30234   5.461   3.503   4.448  1.7306  3.5777 -1.6081
  965MOL0     H30235   5.677   3.372   4.421  5.9086 -1.5520  1.6370
  965MOL0     H30236   5.904   3.384   4.444 -0.7313 -1.5438 -1.4179
  965MOL0     H30237   6.213   3.380   4.613 -1.4915 -0.1597 -0.9540
  965MOL0     H30238   6.466   3.350   4.716 -0.8819  0.8081  0.7217
  965MOL0     H30239   6.775   3.385   4.400 -4.3578  1.1621 -0.4088
  965MOL0     H30240   6.800   3.541   4.475  2.6744 -0.3874 -0.7326
  965MOL0     H30241   6.926   3.436   4.670  1.2565  0.3208 -0.3177
  965MOL0     H30242   6.894   3.286   4.610 -1.5508  0.7787  0.1248
  965MOL0     H30243   7.023   3.358   4.395 -1.0754  0.1912  1.0514
  965MOL0     H30244   7.074   3.507   4.476 -0.3452  1.2845  3.1584
  965MOL0     H30245   7.207   3.390   4.641  2.2072  2.2459 -2.0486
  965MOL0     H30246   7.254   3.339   4.472  0.6719  6.3948 -0.4224
  965MOL0     H30247   7.087   3.154   4.533 -1.3476  0.6418 -0.0162
  965MOL0     H30248   7.095   3.212   4.701  1.1905  0.0584 -0.6415
  965MOL0     H30249   7.271   3.029   4.676  1.4206  1.2417  2.7178
  965MOL0     H30250   7.318   3.103   4.514  2.3780  3.5630  0.0158
  965MOL0     H30251   7.358   3.240   4.791 -1.4490  3.0501 -1.0750
  965MOL0     H30252   7.428   3.279   4.635 -2.3017  2.1666  0.0158
  965MOL0     H30253   7.479   3.016   4.783 -2.1728  0.2663  0.0069
  965MOL0     H30254   7.536   3.068   4.630 -0.2191 -2.7445  1.7128
  965MOL0     H30255   6.602   3.473   4.324  0.1724  1.7125  0.8011
  965MOL0     H30256   6.371   3.513   4.252 -3.1667  0.7100  0.2828
  965MOL0     H30257   5.928   3.714   4.161 -1.0443  0.6527  0.4045
  965MOL0     H30258   5.670   3.685   4.138 -1.4957  0.6545  1.8460
  965MOL0     H30259   3.832   3.995   4.617 -2.2449  0.1138 -0.7001
  965MOL0     H30260   3.599   3.961   4.647 -0.8321 -1.7840 -0.6926
  965MOL0     H30261   3.180   4.002   4.824  0.4091 -0.2460 -0.6817
  965MOL0     H30262   2.931   3.938   4.834 -0.3193 -0.2085  1.4247
  965MOL0     H30263   2.823   3.536   4.941  0.0084  1.3260  0.6840
  965MOL0     H30264   2.798   3.498   4.774 -0.5866 -1.4352  1.6634
  965MOL0     H30265   2.619   3.616   4.988 -1.4944  2.6139 -0.3998
  965MOL0     H30266   2.594   3.470   4.891  0.1290 -0.3094 -1.8663
  965MOL0     H30267   2.596   3.756   4.771  2.0740  0.7296  4.0710
  965MOL0     H30268   2.460   3.698   4.867  0.8699 -0.3192  2.6238
  965MOL0     H30269   2.469   3.663   4.606  1.4130 -0.8212 -1.4086
  965MOL0     H30270   2.581   3.527   4.636 -1.8969 -3.6438 -0.3729
  965MOL0     H30271   2.218   3.363   4.734 -1.9007  0.4164 -3.1545
  965MOL0     H30272   3.023   3.524   4.792  0.0362  0.4209 -0.3616
  965MOL0     H30273   3.210   3.443   4.790 -1.5736  0.1940  2.5943
  965MOL0     H30274   3.354   3.528   4.731  3.3283  0.0473  3.1825
  965MOL0     H30275   3.313   3.527   4.911  3.3544  2.1640 -0.8098
  966MOL0     O30276   2.640   7.460   8.866  0.3472  0.3982 -0.1606
  966MOL0     C30277   2.565   7.534   8.935  0.1741 -0.2248 -0.3117
  966MOL0     O30278   2.523   7.512   9.065 -0.4180  0.9810 -0.2825
  966MOL0     C30279   2.567   7.399   9.124  0.6163 -0.0629 -0.4445
  966MOL0     C30280   2.596   7.393   9.261  0.8633 -0.1297 -0.4896
  966MOL0     C30281   2.621   7.283   9.337  0.1353 -0.6309 -0.6304
  966MOL0     C30282   2.611   7.157   9.277  0.6705 -0.5701  0.4108
  966MOL0     O30283   2.647   7.052   9.344 -0.0151 -0.0160  0.0361
  966MOL0     C30284   2.766   6.974   9.327  0.3151  0.5187  0.3818
  966MOL0     C30285   2.755   6.836   9.391 -0.6488 -0.0571 -0.6543
  966MOL0     C30286   2.736   6.712   9.305 -0.8290  0.7230  0.2154
  966MOL0     C30287   2.599   6.689   9.242  1.6831 -0.4233 -0.0503
  966MOL0     C30288   2.597   6.550   9.175 -0.3551  0.2715 -0.3370
  966MOL0     C30289   2.682   6.547   9.045  0.9394 -0.1405  0.6013
  966MOL0     C30290   2.702   6.404   8.984 -0.3438  1.0859 -0.4200
  966MOL0     C30291   2.772   6.298   9.077  0.6749  0.1644 -0.7971
  966MOL0     N30292   2.912   6.350   9.081  0.1116 -1.0432 -0.3550
  966MOL0     C30293   2.980   6.382   9.200  0.5199 -0.5265 -0.0370
  966MOL0     C30294   3.101   6.431   9.165 -0.1747  0.0973 -0.4504
  966MOL0     C30295   3.196   6.478   9.274  0.2801 -0.5424  0.1519
  966MOL0     C30296   3.305   6.368   9.300  0.3333  0.4314 -0.6983
  966MOL0     C30297   3.432   6.447   9.341  0.2360  0.4498 -0.1464
  966MOL0     C30298   3.529   6.356   9.415  0.3397 -0.7045  0.0569
  966MOL0     O30299   3.610   6.290   9.322 -0.6177  0.2668 -0.0126
  966MOL0     C30300   3.735   6.252   9.371 -0.1637  0.3061 -0.8198
  966MOL0     C30301   3.845   6.345   9.396  0.8929 -0.0017  0.0937
  966MOL0     C30302   3.966   6.294   9.439  0.2054  0.1491  0.0263
  966MOL0     C30303   3.980   6.163   9.467  0.5634 -0.0370 -0.1169
  966MOL0     C30304   4.110   6.117   9.539 -0.2820 -0.0006  0.4738
  966MOL0     O30305   4.155   5.988   9.526  0.5242 -0.5777  0.4766
  966MOL0     C30306   4.281   5.960   9.568  0.1067  0.1253 -0.2509
  966MOL0     C30307   4.397   6.047   9.554 -0.7084  0.0399 -0.0057
  966MOL0     C30308   4.528   6.010   9.598  0.2920 -0.6220 -0.3165
  966MOL0     C30309   4.548   5.884   9.665 -0.4014 -0.2122  0.1238
  966MOL0     O30310   4.676   5.852   9.717 -0.8620 -0.9682  0.6736
  966MOL0     C30311   4.761   5.803   9.615  0.1838  0.4916  0.3062
  966MOL0     C30312   4.881   5.730   9.658  0.2568  0.6059 -0.6358
  966MOL0     C30313   5.000   5.744   9.571  0.3514  0.0751 -0.2776
  966MOL0     C30314   5.120   5.660   9.600  0.2986  1.3167 -0.4079
  966MOL0     C30315   5.233   5.671   9.501 -0.0527  0.2879  0.0920
  966MOL0     C30316   5.350   5.584   9.555  0.2007  0.4193  0.2099
  966MOL0     C30317   5.433   5.581   9.432 -0.0041 -0.2615  0.7118
  966MOL0     C30318   5.562   5.504   9.457  0.0916  0.2141 -0.6917
  966MOL0    Cl30319   5.680   5.510   9.327 -0.2856  0.0600 -0.4407
  966MOL0     C30320   4.436   5.805   9.692  0.4841  0.4039 -0.0557
  966MOL0     C30321   4.312   5.834   9.632  0.2194 -0.3622 -0.8053
  966MOL0     O30322   4.161   6.201   9.609 -0.3594  0.2014  0.1494
  966MOL0     C30323   3.880   6.076   9.436 -0.2720  0.4684  0.0372
  966MOL0     C30324   3.757   6.116   9.397 -0.1076 -0.6004  1.1969
  966MOL0     N30325   3.106   6.426   9.029 -0.2744  0.3702 -0.1333
  966MOL0     N30326   2.998   6.382   8.985  0.4684  0.9747  0.9492
  966MOL0     C30327   2.588   7.156   9.140 -0.3339 -0.0520  0.3567
  966MOL0     C30328   2.561   7.278   9.064 -0.3588 -0.3993  1.0134
  966MOL0     C30329   2.511   7.661   8.869 -0.2601 -0.2148 -0.9515
  966MOL0     C30330   2.570   7.714   8.754 -0.3220 -1.5296  0.4465
  966MOL0     C30331   2.516   7.831   8.687  0.0216  0.6153  0.3728
  966MOL0     C30332   2.401   7.890   8.733  0.1830  0.1428 -0.1014
  966MOL0     O30333   2.332   7.995   8.672  0.3652  0.3016 -0.0601
  966MOL0     C30334   2.386   8.082   8.581 -0.7187 -0.4293  1.4389
  966MOL0     C30335   2.512   8.158   8.630  0.1421  0.0035 -0.3185
  966MOL0     C30336   2.523   8.286   8.543 -0.4057 -0.7279  0.1152
  966MOL0     C30337   2.657   8.359   8.589  0.6567 -0.2335  0.6624
  966MOL0     C30338   2.637   8.428   8.710 -0.3295 -0.4725  0.0293
  966MOL0     C30339   2.652   8.490   8.820 -0.1296 -0.0424  0.3655
  966MOL0     C30340   2.353   7.842   8.853  0.4796 -0.0808  0.2731
  966MOL0     C30341   2.412   7.734   8.931  0.0080  0.2561  0.3618
  966MOL0     C30342   2.330   7.711   9.058 -0.1645  0.8302  0.8673
  966MOL0     H30343   2.588   7.495   9.298 -2.6184  0.6403 -2.8427
  966MOL0     H30344   2.648   7.292   9.442 -3.7116  0.6041  0.4400
  966MOL0     H30345   2.780   6.961   9.219 -0.7462  1.0441  0.1696
  966MOL0     H30346   2.854   7.030   9.362  0.8199  0.1430 -0.2689
  966MOL0     H30347   2.691   6.845   9.480  1.5534  3.5297  0.7824
  966MOL0     H30348   2.854   6.836   9.437 -1.3712 -0.1672  0.9692
  966MOL0     H30349   2.752   6.622   9.366  5.1040 -0.1340 -1.9961
  966MOL0     H30350   2.818   6.704   9.233 -0.0414 -3.2084  1.3138
  966MOL0     H30351   2.519   6.690   9.315  1.3526  3.5325 -0.2141
  966MOL0     H30352   2.588   6.757   9.156 -1.2665 -1.9470 -0.9971
  966MOL0     H30353   2.624   6.467   9.242  0.5197  0.2286 -0.7259
  966MOL0     H30354   2.493   6.523   9.154  0.8078 -2.6414 -3.2013
  966MOL0     H30355   2.645   6.613   8.966  1.4032 -0.6020 -0.0015
  966MOL0     H30356   2.777   6.595   9.071  0.8072  0.3437  0.2102
  966MOL0     H30357   2.764   6.408   8.894  0.0197  1.0154 -0.1754
  966MOL0     H30358   2.611   6.360   8.941  0.6001 -1.2882 -0.1371
  966MOL0     H30359   2.746   6.304   9.183  1.7471  1.4340 -0.5689
  966MOL0     H30360   2.777   6.197   9.035 -0.8140 -0.6305  0.7974
  966MOL0     H30361   2.947   6.374   9.303  1.3224  1.4579  0.4227
  966MOL0     H30362   3.254   6.554   9.221  4.8189 -3.4977  0.3531
  966MOL0     H30363   3.144   6.524   9.359 -0.0746 -0.2599 -0.2151
  966MOL0     H30364   3.273   6.291   9.371  0.1502  0.1405 -1.0912
  966MOL0     H30365   3.323   6.318   9.204 -0.0325 -1.6470  0.2631
  966MOL0     H30366   3.406   6.525   9.414 -0.7098 -0.8080  0.9204
  966MOL0     H30367   3.483   6.500   9.260  3.3362 -0.5557  1.0041
  966MOL0     H30368   3.468   6.282   9.468 -1.6768 -0.4353 -1.7631
  966MOL0     H30369   3.582   6.416   9.490  0.7582 -1.4048  0.3232
  966MOL0     H30370   3.831   6.449   9.370  1.3275 -0.1851 -0.8967
  966MOL0     H30371   4.050   6.361   9.454 -1.6124  2.6827 -0.5065
  966MOL0     H30372   4.384   6.145   9.511 -3.5090 -0.5408 -0.6673
  966MOL0     H30373   4.613   6.073   9.574  0.4409 -1.2328 -1.4877
  966MOL0     H30374   4.716   5.740   9.538  2.8181 -1.7741  0.4531
  966MOL0     H30375   4.799   5.901   9.585 -2.2681  1.5270  0.3452
  966MOL0     H30376   4.918   5.759   9.757  0.4402 -0.2211 -0.4538
  966MOL0     H30377   4.857   5.624   9.650  0.3119  0.7204 -3.1671
  966MOL0     H30378   4.967   5.719   9.470 -1.7713  1.3634  0.0311
  966MOL0     H30379   5.041   5.846   9.580  0.1369 -0.0348  3.1659
  966MOL0     H30380   5.087   5.556   9.607 -0.2516  1.3885 -1.7436
  966MOL0     H30381   5.171   5.689   9.693  0.3709  0.0092 -0.0256
  966MOL0     H30382   5.261   5.776   9.487  0.1495  0.1109 -0.8793
  966MOL0     H30383   5.199   5.634   9.404 -3.9489  0.5191  1.2170
  966MOL0     H30384   5.393   5.637   9.641  0.2533  0.2628  0.2805
  966MOL0     H30385   5.317   5.488   9.598 -0.2723  0.9872  1.1557
  966MOL0     H30386   5.460   5.682   9.398  0.8045  0.8480  4.2648
  966MOL0     H30387   5.372   5.532   9.355  2.3634  0.2439 -1.6302
  966MOL0     H30388   5.611   5.552   9.542  1.4837 -0.5352 -1.0520
  966MOL0     H30389   5.533   5.401   9.483 -0.2096 -0.9157 -4.7850
  966MOL0     H30390   4.451   5.712   9.746 -1.8630 -0.4774 -0.7972
  966MOL0     H30391   4.222   5.775   9.645  0.0999 -0.1655 -0.7373
  966MOL0     H30392   3.893   5.968   9.447 -1.8150  0.3187  0.7736
  966MOL0     H30393   3.680   6.039   9.392  0.2407 -1.3671  4.6922
  966MOL0     H30394   2.588   7.067   9.078 -1.6741  2.5147 -3.7537
  966MOL0     H30395   2.534   7.268   8.959  1.1319  0.3941  0.5226
  966MOL0     H30396   2.660   7.666   8.716  1.8459  0.9908  2.0095
  966MOL0     H30397   2.571   7.853   8.596  1.8442 -1.4281  0.8957
  966MOL0     H30398   2.315   8.151   8.535  0.9908 -0.2707 -1.2215
  966MOL0     H30399   2.419   8.025   8.493 -1.0210  1.4352  0.0721
  966MOL0     H30400   2.599   8.097   8.607  0.5957  2.2834 -6.5051
  966MOL0     H30401   2.502   8.177   8.737  0.0718 -0.7721 -0.1828
  966MOL0     H30402   2.434   8.346   8.559 -2.3130 -3.4208  0.3981
  966MOL0     H30403   2.521   8.258   8.437  1.0186 -1.3639  0.2317
  966MOL0     H30404   2.741   8.293   8.611  2.7626  1.9461 -0.3459
  966MOL0     H30405   2.691   8.416   8.501 -2.2963 -0.0172 -0.4733
  966MOL0     H30406   2.653   8.558   8.903 -2.3010 -1.3238  1.5099
  966MOL0     H30407   2.261   7.892   8.882  2.0305  1.7513  2.2887
  966MOL0     H30408   2.237   7.767   9.046 -0.4632  0.2497  0.4528
  966MOL0     H30409   2.305   7.605   9.052  0.3477  0.7502  0.0478
  966MOL0     H30410   2.378   7.726   9.155  1.2778 -4.4747  1.2689
  967MOL0     O30411   4.570   7.361  11.229  0.6884 -0.3695 -1.0700
  967MOL0     C30412   4.550   7.244  11.279 -0.5931 -0.9609  0.6110
  967MOL0     O30413   4.645   7.165  11.332 -0.3661  0.0903  0.3889
  967MOL0     C30414   4.750   7.226  11.392 -0.4285 -0.4542 -0.1699
  967MOL0     C30415   4.869   7.151  11.401  0.6192 -0.6127  0.9457
  967MOL0     C30416   4.987   7.210  11.449 -0.5033 -0.3945  0.8458
  967MOL0     C30417   4.992   7.342  11.488 -0.4163 -0.6937 -0.1011
  967MOL0     O30418   5.110   7.394  11.556 -0.5033  0.2176  0.2570
  967MOL0     C30419   5.247   7.336  11.551  0.6691  0.0072  0.1026
  967MOL0     C30420   5.323   7.381  11.667  0.5926 -0.7261 -1.0133
  967MOL0     C30421   5.474   7.367  11.671 -0.1344 -0.1837  0.2669
  967MOL0     C30422   5.518   7.229  11.716 -0.1904 -0.2259 -1.1362
  967MOL0     C30423   5.668   7.234  11.759 -0.5277 -0.3184  0.2266
  967MOL0     C30424   5.706   7.097  11.827  0.7753 -0.8432 -0.6590
  967MOL0     C30425   5.851   7.087  11.866 -0.4778  0.3301  0.5038
  967MOL0     C30426   5.889   6.948  11.921  0.6190 -1.2884  0.4816
  967MOL0     N30427   6.031   6.915  11.939  0.2280 -0.2669  0.5406
  967MOL0     C30428   6.123   6.928  11.835 -0.4387 -1.0547  0.1804
  967MOL0     C30429   6.243   6.873  11.884  0.1456  0.2518 -0.2758
  967MOL0     C30430   6.365   6.870  11.810 -0.4631 -0.6230  0.3832
  967MOL0     C30431   6.469   6.964  11.877 -0.6451 -0.4865 -0.2181
  967MOL0     C30432   6.580   6.980  11.783  0.5553 -0.8279 -0.1216
  967MOL0     C30433   6.701   7.023  11.857  0.5703  0.3104  0.0537
  967MOL0     O30434   6.806   7.042  11.768 -0.4795 -0.8599  0.2548
  967MOL0     C30435   6.910   7.124  11.803  0.4469  0.1556 -0.9235
  967MOL0     C30436   6.933   7.181  11.926 -0.1865  0.9241  0.2231
  967MOL0     C30437   7.040   7.265  11.953  0.0473 -0.2479  0.2337
  967MOL0     C30438   7.132   7.300  11.851 -0.3962  0.6815 -0.1494
  967MOL0     C30439   7.239   7.398  11.869 -0.2783 -0.3700 -0.6473
  967MOL0     O30440   7.301   7.451  11.761 -0.3423  0.0101 -0.1942
  967MOL0     C30441   7.434   7.480  11.780  0.1647 -0.2248  0.4177
  967MOL0     C30442   7.483   7.568  11.881 -0.0464 -0.3124 -0.4544
  967MOL0     C30443   7.621   7.595  11.897  0.1149  0.4434  1.0445
  967MOL0     C30444   7.711   7.532  11.812  0.2721  0.1617  0.8523
  967MOL0     O30445   7.841   7.554  11.850 -0.7252  1.0709  0.4588
  967MOL0     C30446   7.937   7.487  11.765 -0.4110 -0.1641  0.3245
  967MOL0     C30447   8.083   7.527  11.811 -0.8023  0.4315 -0.1042
  967MOL0     C30448   8.199   7.443  11.741  0.2750 -0.3445 -0.6593
  967MOL0     C30449   8.336   7.500  11.771 -0.4846  0.6571 -0.3248
  967MOL0     C30450   8.445   7.415  11.696  0.3536 -0.5030 -0.3235
  967MOL0     C30451   8.590   7.469  11.709 -1.3543  0.5098  0.5149
  967MOL0     C30452   8.638   7.482  11.853 -0.7904  0.8235 -0.0370
  967MOL0     C30453   8.785   7.514  11.866 -0.3155 -0.2700  0.0549
  967MOL0    Cl30454   8.841   7.515  12.038  0.2334  0.5951  0.1023
  967MOL0     C30455   7.664   7.441  11.714 -0.5268  0.6333  0.5226
  967MOL0     C30456   7.526   7.428  11.689  0.5373 -0.5734 -0.1482
  967MOL0     O30457   7.263   7.424  11.986  0.4181 -0.3091 -0.2113
  967MOL0     C30458   7.106   7.243  11.726 -0.7886  0.2579  0.6442
  967MOL0     C30459   6.997   7.158  11.705  1.2960 -0.2994  0.3137
  967MOL0     N30460   6.214   6.846  12.020 -0.5016  0.3932  0.4158
  967MOL0     N30461   6.101   6.886  12.051 -0.4418  0.9493 -0.2009
  967MOL0     C30462   4.873   7.414  11.484 -0.9131 -0.4164  0.8117
  967MOL0     C30463   4.753   7.356  11.448 -0.0519 -0.3206 -0.0729
  967MOL0     C30464   4.411   7.198  11.263 -0.1722  0.1672  0.6461
  967MOL0     C30465   4.368   7.092  11.353  0.2629 -0.2304 -0.1597
  967MOL0     C30466   4.242   7.038  11.348 -0.3161  0.5092  0.1325
  967MOL0     C30467   4.153   7.086  11.257  1.2112 -0.6871 -0.3496
  967MOL0     O30468   4.026   7.038  11.245  0.2173  0.0260  0.1721
  967MOL0     C30469   3.977   6.931  11.329 -0.5718  0.2193 -0.2715
  967MOL0     C30470   3.837   6.885  11.297 -0.5612 -0.0619  0.4542
  967MOL0     C30471   3.829   6.832  11.153  0.5634  0.6645 -0.1321
  967MOL0     C30472   3.717   6.739  11.140 -0.4597  0.7613  0.4826
  967MOL0     C30473   3.581   6.795  11.158 -0.7597 -0.3297  0.1339
  967MOL0     C30474   3.468   6.835  11.162 -0.3229 -0.4334  0.5748
  967MOL0     C30475   4.197   7.171  11.155  0.2729 -0.3392  0.1840
  967MOL0     C30476   4.323   7.236  11.159 -1.1039 -0.0616  0.0757
  967MOL0     C30477   4.355   7.332  11.042  0.0377 -0.1504 -0.0037
  967MOL0     H30478   4.872   7.049  11.364  1.1769 -0.2627 -0.0361
  967MOL0     H30479   5.076   7.148  11.454 -0.1685  0.0332  0.3050
  967MOL0     H30480   5.239   7.228  11.566 -2.3339  0.0928 -0.1641
  967MOL0     H30481   5.298   7.368  11.460  2.1459 -0.9498  0.5683
  967MOL0     H30482   5.278   7.345  11.760  1.6649  3.5794  1.4601
  967MOL0     H30483   5.298   7.487  11.675 -2.3949 -1.4348  0.6244
  967MOL0     H30484   5.519   7.441  11.738  0.5575  2.4058 -2.8017
  967MOL0     H30485   5.519   7.377  11.571 -2.7607  0.4361 -0.9539
  967MOL0     H30486   5.452   7.200  11.798 -1.0757  1.8871 -1.0479
  967MOL0     H30487   5.509   7.156  11.635 -1.6382 -1.7933  0.3530
  967MOL0     H30488   5.724   7.254  11.667 -1.7194  4.0661  0.2393
  967MOL0     H30489   5.695   7.315  11.827 -2.4086 -0.0158  0.6604
  967MOL0     H30490   5.649   7.096  11.921  1.2628  1.8213 -0.2476
  967MOL0     H30491   5.691   7.018  11.753  1.0600 -1.3579 -0.1807
  967MOL0     H30492   5.874   7.173  11.929  2.8930  0.7649 -1.1551
  967MOL0     H30493   5.919   7.099  11.782  1.5037 -1.3940  1.7784
  967MOL0     H30494   5.831   6.917  12.008 -1.6317 -0.3973 -0.6365
  967MOL0     H30495   5.850   6.883  11.842 -0.1916  0.8006 -0.9308
  967MOL0     H30496   6.121   6.969  11.735  3.2173 -1.8947 -0.3530
  967MOL0     H30497   6.406   6.769  11.802 -0.5790 -0.6285 -0.1465
  967MOL0     H30498   6.353   6.908  11.708  2.0883  0.8269  0.5553
  967MOL0     H30499   6.426   7.064  11.886  2.8209  1.0991  0.2799
  967MOL0     H30500   6.495   6.936  11.980 -2.1322  4.3903  1.7674
  967MOL0     H30501   6.543   7.056  11.714 -2.1171  0.5130  2.5789
  967MOL0     H30502   6.608   6.889  11.729  0.9967  0.0969 -1.5010
  967MOL0     H30503   6.731   6.951  11.934  2.2602  0.9585  0.0439
  967MOL0     H30504   6.684   7.115  11.914  1.5835  1.1739 -0.9890
  967MOL0     H30505   6.880   7.154  12.017  0.6508 -1.1653  0.1442
  967MOL0     H30506   7.057   7.295  12.056 -0.5541 -1.0337  0.5803
  967MOL0     H30507   7.421   7.622  11.952  0.1123  1.9682 -1.9453
  967MOL0     H30508   7.651   7.658  11.979 -1.7276  0.3032  1.8791
  967MOL0     H30509   7.926   7.379  11.764  2.7448 -0.6245  1.4370
  967MOL0     H30510   7.926   7.532  11.666  1.2630 -0.9485 -0.2533
  967MOL0     H30511   8.106   7.634  11.817  0.9095  0.0377  1.2607
  967MOL0     H30512   8.081   7.493  11.915  1.3504  2.1781  0.5864
  967MOL0     H30513   8.196   7.341  11.780 -0.6701  0.4950  1.6909
  967MOL0     H30514   8.189   7.461  11.634  3.7027  1.5523 -0.7968
  967MOL0     H30515   8.358   7.493  11.878 -1.6752 -3.5346 -0.1803
  967MOL0     H30516   8.346   7.606  11.744 -1.4160  0.3353 -2.1264
  967MOL0     H30517   8.425   7.391  11.591  0.9951  1.0830 -0.8490
  967MOL0     H30518   8.440   7.321  11.751 -2.5931 -0.6428 -0.6584
  967MOL0     H30519   8.641   7.385  11.661 -4.1260 -0.6334 -0.6214
  967MOL0     H30520   8.606   7.554  11.642 -1.0741 -0.5018 -0.7551
  967MOL0     H30521   8.620   7.376  11.872  1.2880  0.2447 -0.9689
  967MOL0     H30522   8.577   7.548  11.916  1.2666  0.1477  2.8709
  967MOL0     H30523   8.838   7.450  11.794  2.1408  1.8509 -0.1630
  967MOL0     H30524   8.808   7.615  11.832  0.0304 -0.4348 -0.2133
  967MOL0     H30525   7.732   7.386  11.650 -0.1951 -0.8715  2.1133
  967MOL0     H30526   7.492   7.352  11.620 -0.0806 -2.7256  2.3275
  967MOL0     H30527   7.168   7.278  11.644  0.0818  0.6707  1.4580
  967MOL0     H30528   6.977   7.103  11.614 -1.9479  0.5272  0.4158
  967MOL0     H30529   4.883   7.516  11.521 -0.5759 -0.7376  1.6312
  967MOL0     H30530   4.664   7.417  11.464  0.1178 -0.5436  2.0128
  967MOL0     H30531   4.440   7.068  11.431 -0.1928  1.1001  0.7073
  967MOL0     H30532   4.222   6.950  11.409  0.5369 -0.2093 -0.5999
  967MOL0     H30533   3.987   6.954  11.435  1.0119  0.2153 -0.4021
  967MOL0     H30534   4.036   6.840  11.316 -0.8110  0.3282 -2.4959
  967MOL0     H30535   3.763   6.965  11.313  0.1511  0.2600  2.5192
  967MOL0     H30536   3.815   6.806  11.370  1.5042 -2.0677 -0.9591
  967MOL0     H30537   3.924   6.779  11.138 -0.2139 -1.0498  0.6806
  967MOL0     H30538   3.813   6.913  11.082 -3.1391  1.4180  1.3348
  967MOL0     H30539   3.719   6.698  11.038  3.2989 -0.1903  0.7712
  967MOL0     H30540   3.734   6.657  11.210 -2.8860 -1.0361 -0.8732
  967MOL0     H30541   3.376   6.880  11.128  0.4519  0.6420 -0.1874
  967MOL0     H30542   4.122   7.190  11.079  1.2689 -0.7827 -0.9469
  967MOL0     H30543   4.400   7.418  11.092  1.3400 -0.8459  0.0747
  967MOL0     H30544   4.414   7.295  10.958 -0.0081 -2.0040  0.7510
  967MOL0     H30545   4.268   7.360  10.982 -1.0437 -3.5764 -0.2259
  968MOL0     O30546  10.645   5.455   6.611  0.1736  0.5590 -0.3923
  968MOL0     C30547  10.577   5.465   6.710  0.1595  0.0604  0.6306
  968MOL0     O30548  10.627   5.492   6.834  0.0991  0.0954 -0.5790
  968MOL0     C30549  10.757   5.465   6.878 -0.1483 -0.8311  0.6501
  968MOL0     C30550  10.856   5.403   6.805 -0.3750  0.5395 -0.5123
  968MOL0     C30551  10.988   5.403   6.846  0.7147  0.3983 -0.3586
  968MOL0     C30552  11.026   5.449   6.973  0.0542  0.5482  0.1297
  968MOL0     O30553  11.154   5.434   7.013  0.1316 -0.0088  0.6533
  968MOL0     C30554  11.198   5.490   7.138 -0.3597  0.0212 -0.0824
  968MOL0     C30555  11.349   5.451   7.137  0.1154 -0.1758 -0.1344
  968MOL0     C30556  11.428   5.511   7.260  0.9615 -0.3151 -0.6381
  968MOL0     C30557  11.544   5.418   7.303 -0.7887  0.4202 -0.4667
  968MOL0     C30558  11.647   5.492   7.385 -0.1700 -0.1077  0.4284
  968MOL0     C30559  11.775   5.418   7.413 -0.4596  0.5233 -1.1280
  968MOL0     C30560  11.862   5.493   7.519  1.0226 -0.5489 -0.7981
  968MOL0     C30561  11.875   5.423   7.657  0.4750  0.8251  0.0760
  968MOL0     N30562  11.764   5.470   7.745  0.5605  0.7931  0.3959
  968MOL0     C30563  11.631   5.439   7.726 -0.3177 -0.8249  0.4002
  968MOL0     C30564  11.571   5.493   7.843  0.5336  0.5519  0.2864
  968MOL0     C30565  11.430   5.512   7.900  0.3241 -0.1826 -0.2556
  968MOL0     C30566  11.332   5.417   7.827 -0.7001  0.2991  0.4407
  968MOL0     C30567  11.255   5.487   7.712 -0.2876  0.0406  0.1558
  968MOL0     C30568  11.142   5.408   7.664 -0.0841  0.5623  0.3370
  968MOL0     O30569  11.087   5.493   7.563 -0.4372  0.4131 -0.1506
  968MOL0     C30570  10.970   5.454   7.498 -0.6562 -0.0783  1.3024
  968MOL0     C30571  10.930   5.321   7.477  0.6307 -0.6992 -0.1393
  968MOL0     C30572  10.805   5.292   7.413  0.2132 -0.7360  0.0980
  968MOL0     C30573  10.725   5.396   7.373 -0.3997  0.1244 -0.4017
  968MOL0     C30574  10.597   5.365   7.303 -0.3096  0.1027  0.3326
  968MOL0     O30575  10.571   5.242   7.251  0.3391  0.5702 -0.1228
  968MOL0     C30576  10.445   5.231   7.198  1.4925 -0.1318 -0.0978
  968MOL0     C30577  10.332   5.186   7.268  0.6477 -0.8892 -0.6908
  968MOL0     C30578  10.205   5.176   7.206  0.4451  0.0614 -0.0137
  968MOL0     C30579  10.184   5.212   7.073 -0.7633  0.3516 -0.2065
  968MOL0     O30580  10.061   5.222   7.019  0.4482 -0.5846  0.0359
  968MOL0     C30581  10.007   5.356   6.993 -0.3995  1.1125  0.1075
  968MOL0     C30582   9.864   5.360   7.031  0.4920  0.1765 -0.2036
  968MOL0     C30583   9.781   5.242   6.975 -0.5481  0.7347  0.6953
  968MOL0     C30584   9.628   5.273   6.969 -0.9425 -0.5195 -0.2001
  968MOL0     C30585   9.544   5.159   6.904 -0.3533 -0.5345 -0.9673
  968MOL0     C30586   9.397   5.183   6.927 -1.1638  0.5681 -0.3279
  968MOL0     C30587   9.351   5.325   6.876 -0.2428 -0.2426  0.5128
  968MOL0     C30588   9.193   5.331   6.841  0.3441  0.4786  0.0710
  968MOL0    Cl30589   9.092   5.253   6.974  0.1660 -0.0887  0.4315
  968MOL0     C30590  10.300   5.247   6.997  0.0879  0.4058 -0.1059
  968MOL0     C30591  10.420   5.262   7.061  0.0857 -0.5442  0.7846
  968MOL0     O30592  10.523   5.461   7.297 -0.3038  0.0945 -0.8413
  968MOL0     C30593  10.770   5.528   7.392  1.0929  0.0326 -0.4189
  968MOL0     C30594  10.888   5.553   7.454 -0.2424 -0.1306 -0.2006
  968MOL0     N30595  11.671   5.540   7.920 -0.2445  0.0411  0.0931
  968MOL0     N30596  11.790   5.537   7.867  0.4336  0.1210  0.3892
  968MOL0     C30597  10.926   5.499   7.056  0.3284  1.3155 -0.6411
  968MOL0     C30598  10.799   5.511   7.006 -0.5338 -1.5828 -0.1630
  968MOL0     C30599  10.425   5.478   6.694  0.1727  0.3067 -0.5809
  968MOL0     C30600  10.355   5.547   6.793  0.6163  0.4950  0.9969
  968MOL0     C30601  10.221   5.555   6.783  0.4498 -0.0603 -0.2550
  968MOL0     C30602  10.148   5.497   6.679 -0.3105  0.6827 -0.9449
  968MOL0     O30603  10.011   5.518   6.674 -0.9479  0.1768  0.5540
  968MOL0     C30604   9.933   5.520   6.561 -0.2707  0.3611  0.4179
  968MOL0     C30605   9.816   5.612   6.576 -0.5919 -0.2161  0.1215
  968MOL0     C30606   9.732   5.563   6.697  0.5700  0.9023  1.2481
  968MOL0     C30607   9.606   5.641   6.709 -0.1115 -0.2875  0.9750
  968MOL0     C30608   9.617   5.785   6.731  0.4040 -1.2874  0.4529
  968MOL0     C30609   9.609   5.906   6.735  0.4229 -0.6216  0.4584
  968MOL0     C30610  10.209   5.409   6.587 -0.2532  0.1446 -0.3802
  968MOL0     C30611  10.346   5.406   6.593 -0.0165 -0.6776 -0.5529
  968MOL0     C30612  10.412   5.316   6.497  0.1684 -0.1095  0.3810
  968MOL0     H30613  10.837   5.369   6.704  1.3219  0.6377 -0.8913
  968MOL0     H30614  11.062   5.378   6.771  0.5161 -1.0361 -0.1146
  968MOL0     H30615  11.198   5.599   7.142  0.0180 -0.0063  1.9931
  968MOL0     H30616  11.139   5.448   7.220  0.6480 -1.8390 -0.2462
  968MOL0     H30617  11.388   5.480   7.038  1.1148 -1.3206 -0.0933
  968MOL0     H30618  11.361   5.342   7.137 -1.8613 -0.4743 -2.5714
  968MOL0     H30619  11.366   5.523   7.350  4.5258  0.7767  1.8846
  968MOL0     H30620  11.463   5.612   7.239 -0.0556  0.5865  1.6262
  968MOL0     H30621  11.503   5.333   7.358  2.9607 -1.2090  0.0721
  968MOL0     H30622  11.595   5.377   7.216  1.8928 -1.1967  1.7143
  968MOL0     H30623  11.677   5.569   7.314 -0.6584  0.4245  0.7940
  968MOL0     H30624  11.594   5.525   7.475  2.9013  1.6441  1.7434
  968MOL0     H30625  11.754   5.319   7.456 -1.5818  1.0562 -0.4307
  968MOL0     H30626  11.825   5.409   7.315  0.4032 -0.8754 -0.5998
  968MOL0     H30627  11.825   5.596   7.529 -2.2252 -1.5451 -1.3420
  968MOL0     H30628  11.965   5.512   7.487  1.3378 -0.8586  0.0045
  968MOL0     H30629  11.865   5.315   7.644  1.0920  0.6705  0.8397
  968MOL0     H30630  11.966   5.452   7.710 -0.2598 -0.1849  1.9839
  968MOL0     H30631  11.578   5.383   7.649 -3.3547  2.1688  0.0574
  968MOL0     H30632  11.432   5.493   8.008  0.4470  2.7551  0.3421
  968MOL0     H30633  11.397   5.616   7.890  0.0967 -0.3723 -1.7216
  968MOL0     H30634  11.388   5.333   7.786 -0.4620 -0.5310  2.3768
  968MOL0     H30635  11.268   5.374   7.904  0.5938 -0.8847  0.8810
  968MOL0     H30636  11.323   5.507   7.628  0.2346 -2.0206  0.0290
  968MOL0     H30637  11.215   5.580   7.753 -1.0266 -0.6516  1.0256
  968MOL0     H30638  11.071   5.400   7.747 -0.7644 -0.1827 -0.2941
  968MOL0     H30639  11.161   5.303   7.636 -3.3209 -0.1618  0.4761
  968MOL0     H30640  10.992   5.247   7.527  1.8977 -0.6106 -1.5141
  968MOL0     H30641  10.771   5.192   7.387  1.9087 -0.9849 -1.4160
  968MOL0     H30642  10.341   5.189   7.376  0.6586  2.3936 -0.7075
  968MOL0     H30643  10.108   5.164   7.255  1.4641 -1.3915  1.7925
  968MOL0     H30644  10.066   5.430   7.049 -1.4226  1.2245  1.0635
  968MOL0     H30645  10.030   5.377   6.888  0.7532  0.4896  0.2120
  968MOL0     H30646   9.850   5.361   7.140 -1.9211 -0.3059 -0.4400
  968MOL0     H30647   9.829   5.458   6.998  0.6952  0.9533  1.7482
  968MOL0     H30648   9.820   5.220   6.875  2.0606 -0.1988  1.8265
  968MOL0     H30649   9.801   5.149   7.029  0.4016 -1.3159 -2.8697
  968MOL0     H30650   9.616   5.371   6.921  0.2279  0.4147  1.3030
  968MOL0     H30651   9.590   5.284   7.071 -1.9586 -1.0113 -0.5141
  968MOL0     H30652   9.569   5.066   6.956 -2.0749  0.4582  1.8423
  968MOL0     H30653   9.578   5.156   6.800  0.8960  1.0255 -0.6414
  968MOL0     H30654   9.337   5.101   6.888  1.4140 -0.6302 -2.0884
  968MOL0     H30655   9.387   5.179   7.036  1.8029  0.8496  0.0518
  968MOL0     H30656   9.405   5.354   6.786  2.9403  0.7678  2.5669
  968MOL0     H30657   9.382   5.405   6.944  1.7012 -0.9797  0.5634
  968MOL0     H30658   9.165   5.436   6.830  1.4715  0.7857  0.0417
  968MOL0     H30659   9.180   5.273   6.749 -1.3034  0.9751 -0.0372
  968MOL0     H30660  10.292   5.282   6.895  0.0862 -3.1136 -1.4695
  968MOL0     H30661  10.512   5.297   7.015  0.6726 -2.8396  0.0964
  968MOL0     H30662  10.704   5.601   7.346 -1.1829 -1.1452  0.8064
  968MOL0     H30663  10.922   5.654   7.478 -0.4770  0.0851 -0.7710
  968MOL0     H30664  10.940   5.530   7.159 -0.5689  0.6699 -0.3156
  968MOL0     H30665  10.718   5.555   7.063  0.2099  1.4801 -1.3107
  968MOL0     H30666  10.398   5.576   6.888  0.0964  0.0197  1.3838
  968MOL0     H30667  10.164   5.607   6.859  1.9551  0.1217  0.7866
  968MOL0     H30668   9.897   5.422   6.530  2.3134 -0.6305  0.3060
  968MOL0     H30669   9.990   5.546   6.471 -1.9027 -0.3730 -0.8651
  968MOL0     H30670   9.754   5.611   6.485  0.6939  3.1326 -0.9519
  968MOL0     H30671   9.858   5.710   6.598  2.2639 -2.2368  5.4584
  968MOL0     H30672   9.786   5.562   6.792  1.3904 -3.3421  0.9222
  968MOL0     H30673   9.710   5.460   6.669  2.5140  0.6977  0.2895
  968MOL0     H30674   9.545   5.629   6.620  3.6649  4.8088 -2.9087
  968MOL0     H30675   9.555   5.607   6.799  0.1067  2.2791  2.1814
  968MOL0     H30676   9.613   6.013   6.733  0.4419 -0.5917  1.6202
  968MOL0     H30677  10.141   5.360   6.518 -2.3200 -3.9739  4.0046
  968MOL0     H30678  10.467   5.236   6.548 -1.9725  0.2759  3.5751
  968MOL0     H30679  10.340   5.272   6.427  1.3926  0.1276 -1.0902
  968MOL0     H30680  10.484   5.370   6.435 -1.1810  0.9006 -0.3556
  969MOL0     O30681   7.217   8.056   5.829 -0.2120 -0.1916  0.4334
  969MOL0     C30682   7.313   8.044   5.751 -0.0340  0.2606  0.5405
  969MOL0     O30683   7.380   7.926   5.728  0.1502  0.6214 -0.8045
  969MOL0     C30684   7.357   7.820   5.805 -0.1341  0.9241 -0.8863
  969MOL0     C30685   7.306   7.703   5.749 -0.1177 -0.1689  0.8563
  969MOL0     C30686   7.289   7.591   5.835 -0.0675  0.0231 -1.0408
  969MOL0     C30687   7.332   7.596   5.970  0.2811 -0.3675 -0.1665
  969MOL0     O30688   7.334   7.484   6.050 -0.1206 -0.7564 -0.0416
  969MOL0     C30689   7.312   7.350   6.007  0.3779 -0.3089  0.3611
  969MOL0     C30690   7.301   7.265   6.138 -0.3503  0.9589  1.1094
  969MOL0     C30691   7.352   7.121   6.113 -0.2348 -0.2112  0.1552
  969MOL0     C30692   7.348   7.036   6.244  0.2207  0.5132  0.7438
  969MOL0     C30693   7.398   6.890   6.221 -0.4660  0.7281  0.4254
  969MOL0     C30694   7.348   6.786   6.328  0.0903 -0.4404 -0.0690
  969MOL0     C30695   7.469   6.738   6.415  0.2025  0.3067  0.3256
  969MOL0     C30696   7.532   6.627   6.335 -0.2792  0.3667  0.0265
  969MOL0     N30697   7.614   6.656   6.220 -0.2082  0.2498 -0.0307
  969MOL0     C30698   7.600   6.589   6.102  0.4860  0.3228 -1.0739
  969MOL0     C30699   7.697   6.630   6.018 -0.5771  0.2443 -0.1445
  969MOL0     C30700   7.707   6.593   5.873 -0.4895  0.2791  0.8057
  969MOL0     C30701   7.831   6.632   5.794 -0.2841 -0.1360  0.9415
  969MOL0     C30702   7.804   6.634   5.646  0.5798 -0.9510  0.4285
  969MOL0     C30703   7.770   6.487   5.590 -1.5442 -0.7316 -0.2303
  969MOL0     O30704   7.871   6.394   5.630  0.7526  0.5913 -0.5129
  969MOL0     C30705   7.982   6.385   5.548  0.7878  0.3694 -0.6244
  969MOL0     C30706   8.010   6.478   5.450 -0.2069  0.3407  0.1346
  969MOL0     C30707   8.137   6.481   5.387 -1.0199 -0.4049 -0.1631
  969MOL0     C30708   8.230   6.374   5.406  0.1039 -0.0005 -0.6436
  969MOL0     C30709   8.364   6.375   5.343  0.3503 -0.5962  0.4545
  969MOL0     O30710   8.396   6.499   5.276  0.1880  0.9263  0.7017
  969MOL0     C30711   8.518   6.527   5.212  0.6192 -0.2521 -0.1652
  969MOL0     C30712   8.515   6.636   5.125 -0.0358 -0.5613  0.8934
  969MOL0     C30713   8.629   6.674   5.050  0.0257 -0.5519  0.3292
  969MOL0     C30714   8.741   6.607   5.060 -0.0031  0.2284 -0.5888
  969MOL0     O30715   8.842   6.661   4.986 -0.6425  0.1116  0.4344
  969MOL0     C30716   8.948   6.584   4.940 -1.1470 -0.9438 -0.0194
  969MOL0     C30717   9.047   6.665   4.851  0.3577 -0.0404 -0.1814
  969MOL0     C30718   9.147   6.599   4.760 -0.6538  0.6536 -0.1947
  969MOL0     C30719   9.211   6.468   4.826  0.4225  0.6454 -0.4275
  969MOL0     C30720   9.312   6.413   4.724 -0.1611  0.2933 -0.0287
  969MOL0     C30721   9.369   6.277   4.765 -0.0613 -0.8715  0.5524
  969MOL0     C30722   9.453   6.199   4.663  0.4415 -0.2289  0.9413
  969MOL0     C30723   9.590   6.255   4.640  0.3148 -0.5395 -0.1851
  969MOL0    Cl30724   9.600   6.391   4.534 -0.0594 -0.6663  0.5834
  969MOL0     C30725   8.750   6.496   5.151  0.4443  0.8065 -0.3642
  969MOL0     C30726   8.641   6.450   5.219  0.4728 -0.3908  0.6899
  969MOL0     O30727   8.428   6.276   5.349 -0.4751  0.0521  0.1884
  969MOL0     C30728   8.192   6.272   5.490 -0.0522 -0.4666 -0.4299
  969MOL0     C30729   8.075   6.280   5.568  0.5551 -0.4705 -0.2775
  969MOL0     N30730   7.772   6.721   6.093  0.9197  0.0783  0.3682
  969MOL0     N30731   7.722   6.733   6.212 -0.1284 -1.4731 -0.0758
  969MOL0     C30732   7.384   7.713   6.023  0.2280 -0.8345  0.2524
  969MOL0     C30733   7.398   7.829   5.948  0.1216 -0.1827 -0.3191
  969MOL0     C30734   7.350   8.166   5.677  1.5410  0.7828  0.1331
  969MOL0     C30735   7.454   8.148   5.582 -0.3989 -0.1018 -0.8237
  969MOL0     C30736   7.499   8.261   5.518  0.0486  0.1668  0.1146
  969MOL0     C30737   7.455   8.387   5.539  0.7220 -1.0200 -1.2854
  969MOL0     O30738   7.509   8.493   5.460 -0.6247 -0.2365 -0.9016
  969MOL0     C30739   7.409   8.583   5.400  0.3691  0.4312  0.4417
  969MOL0     C30740   7.490   8.676   5.303  0.4966  0.1549 -1.3509
  969MOL0     C30741   7.587   8.770   5.370  0.0862  0.6756  0.1015
  969MOL0     C30742   7.730   8.708   5.367 -0.1490 -0.5488 -0.6957
  969MOL0     C30743   7.786   8.704   5.228 -0.3963  0.2516 -0.4942
  969MOL0     C30744   7.835   8.704   5.112 -0.7347  0.3500 -0.4683
  969MOL0     C30745   7.357   8.412   5.629  0.6743  0.1292 -1.0419
  969MOL0     C30746   7.305   8.306   5.710 -0.5343  1.0046  0.0721
  969MOL0     C30747   7.217   8.347   5.821  0.8694  0.6697 -0.6218
  969MOL0     H30748   7.305   7.691   5.641  1.3949  0.1672  0.7879
  969MOL0     H30749   7.241   7.501   5.800 -2.2151  0.6430  0.1039
  969MOL0     H30750   7.221   7.340   5.947  0.4306 -3.2443  0.6218
  969MOL0     H30751   7.388   7.321   5.933  0.9138  0.7737  0.4815
  969MOL0     H30752   7.194   7.252   6.156 -0.2222 -0.5267  0.9255
  969MOL0     H30753   7.351   7.318   6.220  0.2110  0.9480  0.7768
  969MOL0     H30754   7.454   7.140   6.079 -0.4172 -0.0677 -0.3163
  969MOL0     H30755   7.287   7.068   6.043 -1.1570 -0.7316  1.3748
  969MOL0     H30756   7.416   7.075   6.320  0.0861  2.6938 -0.1767
  969MOL0     H30757   7.246   7.030   6.284  0.9604  1.8015  3.0011
  969MOL0     H30758   7.358   6.853   6.127 -1.6936  0.7268  0.9269
  969MOL0     H30759   7.506   6.901   6.210 -0.6721  0.0618 -3.9662
  969MOL0     H30760   7.277   6.838   6.393  2.6795 -0.5093  3.1188
  969MOL0     H30761   7.290   6.702   6.288 -0.7478 -0.0433  0.2965
  969MOL0     H30762   7.425   6.698   6.507 -1.0178  0.2380 -0.2713
  969MOL0     H30763   7.541   6.816   6.444  0.7065 -0.2222  0.5099
  969MOL0     H30764   7.599   6.562   6.392  0.1266  1.0913  0.3935
  969MOL0     H30765   7.451   6.559   6.309 -1.4992  0.2051  3.6242
  969MOL0     H30766   7.540   6.499   6.099  0.8146 -0.0072  0.7471
  969MOL0     H30767   7.692   6.484   5.876  1.1500  0.0476  1.4630
  969MOL0     H30768   7.618   6.633   5.823 -0.6683  3.2276  3.1900
  969MOL0     H30769   7.869   6.731   5.824  1.4104 -0.1962 -0.7693
  969MOL0     H30770   7.910   6.559   5.811  0.3545 -0.0022 -1.0842
  969MOL0     H30771   7.884   6.685   5.591 -1.3531 -1.1445 -2.8090
  969MOL0     H30772   7.718   6.695   5.617  1.7690  0.9821  0.6987
  969MOL0     H30773   7.753   6.479   5.482 -1.6201  0.5404 -0.3230
  969MOL0     H30774   7.674   6.460   5.634 -0.8510 -2.9498  0.0503
  969MOL0     H30775   7.946   6.557   5.412 -0.6270 -0.0438  0.0424
  969MOL0     H30776   8.153   6.569   5.325  1.5792 -2.2473 -2.3752
  969MOL0     H30777   8.422   6.692   5.121 -0.2471 -0.9214  0.7349
  969MOL0     H30778   8.615   6.756   4.981 -0.9032  1.1176  2.4041
  969MOL0     H30779   8.993   6.546   5.032 -0.2647  2.4823  1.1164
  969MOL0     H30780   8.917   6.504   4.872 -0.3463  2.1081 -4.3864
  969MOL0     H30781   8.990   6.729   4.783  1.3042 -0.3708 -1.3407
  969MOL0     H30782   9.102   6.734   4.916 -0.8537 -0.5149  1.3700
  969MOL0     H30783   9.095   6.573   4.668 -2.0909 -0.3744  0.8596
  969MOL0     H30784   9.237   6.660   4.744  1.7308 -2.1884  1.3146
  969MOL0     H30785   9.134   6.395   4.850 -0.2126  1.0032 -1.3532
  969MOL0     H30786   9.268   6.498   4.915 -0.3346 -2.1206  1.0999
  969MOL0     H30787   9.388   6.490   4.702  0.2355  1.1885  3.7977
  969MOL0     H30788   9.253   6.401   4.633 -0.8956  0.9140  0.3555
  969MOL0     H30789   9.432   6.295   4.853 -1.8760  1.4343  1.4730
  969MOL0     H30790   9.280   6.216   4.785 -1.6059  0.9385 -0.5036
  969MOL0     H30791   9.416   6.193   4.561  1.4467  2.1404  0.3647
  969MOL0     H30792   9.456   6.099   4.706  0.5942 -1.4020 -1.6303
  969MOL0     H30793   9.643   6.287   4.730  3.3516 -3.4957 -0.7440
  969MOL0     H30794   9.661   6.182   4.602  2.4815  1.0097  0.6727
  969MOL0     H30795   8.846   6.446   5.156 -1.3968 -2.9018  1.2667
  969MOL0     H30796   8.646   6.364   5.285  0.2140 -0.1003  1.0953
  969MOL0     H30797   8.254   6.187   5.514 -2.5658 -2.9974 -2.1895
  969MOL0     H30798   8.061   6.215   5.654  1.4382 -0.6556 -0.2648
  969MOL0     H30799   7.412   7.727   6.127  2.6591  0.1398 -0.4591
  969MOL0     H30800   7.453   7.914   5.986 -2.2586  0.8001  1.1266
  969MOL0     H30801   7.498   8.050   5.562 -1.6634 -1.1785  1.3491
  969MOL0     H30802   7.590   8.263   5.458 -0.2736 -1.5920 -0.5136
  969MOL0     H30803   7.370   8.649   5.478 -0.3666 -2.1543  2.3574
  969MOL0     H30804   7.330   8.530   5.346 -0.4425  0.4100  1.6247
  969MOL0     H30805   7.419   8.735   5.244  0.7011  2.3493  0.4804
  969MOL0     H30806   7.546   8.607   5.240 -0.0726 -2.2760  0.6130
  969MOL0     H30807   7.558   8.776   5.475 -1.6796 -1.7787 -0.1436
  969MOL0     H30808   7.564   8.872   5.337 -1.9308  1.1444  2.6383
  969MOL0     H30809   7.794   8.765   5.435 -1.3646  0.0257  0.0017
  969MOL0     H30810   7.728   8.612   5.420  0.8568  0.5975  1.5855
  969MOL0     H30811   7.885   8.707   5.017 -2.2098  2.6863 -1.2664
  969MOL0     H30812   7.317   8.512   5.644  1.3392  0.4449 -1.3552
  969MOL0     H30813   7.131   8.285   5.845  1.8518  0.0766  1.7292
  969MOL0     H30814   7.277   8.352   5.913  0.5792  0.8329 -0.4398
  969MOL0     H30815   7.172   8.445   5.800  0.1362  0.5285  0.2114
  970MOL0     O30816   3.394   3.234   3.016 -0.6441  0.2835  0.2541
  970MOL0     C30817   3.288   3.184   3.047 -0.0326 -0.7598  0.4865
  970MOL0     O30818   3.257   3.125   3.168 -0.3860 -0.4704  0.5910
  970MOL0     C30819   3.343   3.123   3.267 -0.7996 -0.6840 -1.0356
  970MOL0     C30820   3.357   3.234   3.352 -0.3826  0.0511 -0.3239
  970MOL0     C30821   3.449   3.253   3.455 -0.6273  0.3217 -0.7232
  970MOL0     C30822   3.551   3.154   3.467  0.9451  0.6407  0.0366
  970MOL0     O30823   3.644   3.163   3.567  0.2859 -0.1154 -0.0926
  970MOL0     C30824   3.773   3.097   3.546 -0.0692  0.4008 -0.3789
  970MOL0     C30825   3.870   3.135   3.664  1.0422  0.3368 -0.1834
  970MOL0     C30826   3.928   3.273   3.650  0.2185 -0.8093 -0.5247
  970MOL0     C30827   4.022   3.324   3.765 -0.3155  0.5610  0.1859
  970MOL0     C30828   4.129   3.419   3.716  0.3186  1.1794 -1.1256
  970MOL0     C30829   4.064   3.533   3.648 -0.4251 -0.7998 -0.4027
  970MOL0     C30830   4.160   3.658   3.623  0.7253 -0.1552  0.3648
  970MOL0     C30831   4.163   3.752   3.748 -0.2834  0.2585 -0.0087
  970MOL0     N30832   4.273   3.858   3.737  0.5090  1.2367 -1.7536
  970MOL0     C30833   4.303   3.940   3.843  0.5046  0.6854  0.1522
  970MOL0     C30834   4.377   4.038   3.785 -0.3052 -0.1035  0.7347
  970MOL0     C30835   4.432   4.163   3.843 -0.3940 -0.0212 -0.2409
  970MOL0     C30836   4.581   4.188   3.825 -0.1418  0.5458 -0.5710
  970MOL0     C30837   4.664   4.085   3.910 -0.1227  0.1431  0.5556
  970MOL0     C30838   4.796   4.138   3.918  0.2597 -0.0321 -1.0879
  970MOL0     O30839   4.843   4.140   3.786  0.1777  0.2699 -0.6493
  970MOL0     C30840   4.965   4.186   3.766  0.4463 -0.1598 -0.5734
  970MOL0     C30841   5.021   4.189   3.643  0.8008  0.7975 -0.9869
  970MOL0     C30842   5.156   4.228   3.620 -0.3346  0.4668 -0.7615
  970MOL0     C30843   5.245   4.249   3.724 -0.2013  0.3416 -0.3367
  970MOL0     C30844   5.379   4.297   3.697  0.9631 -0.0055 -0.1576
  970MOL0     O30845   5.417   4.312   3.569  0.5821  0.1594 -0.2910
  970MOL0     C30846   5.550   4.341   3.540  0.2788  0.2256  0.3110
  970MOL0     C30847   5.636   4.236   3.506 -0.1801 -0.5297 -0.1687
  970MOL0     C30848   5.771   4.263   3.477  0.1182  0.0004 -0.7040
  970MOL0     C30849   5.816   4.396   3.462 -0.6342  0.7817 -0.5969
  970MOL0     O30850   5.957   4.413   3.438  0.3579 -0.3269  0.2458
  970MOL0     C30851   6.000   4.526   3.360 -0.6613 -0.3457  0.3698
  970MOL0     C30852   6.065   4.484   3.237  0.7037  0.5133  0.2814
  970MOL0     C30853   6.002   4.520   3.104  0.0877 -0.7649  0.5709
  970MOL0     C30854   5.853   4.488   3.082  0.6652  0.0330 -0.5238
  970MOL0     C30855   5.829   4.334   3.095 -0.1252 -0.7306 -0.6662
  970MOL0     C30856   5.729   4.265   2.998 -0.3210 -0.8520 -1.4953
  970MOL0     C30857   5.788   4.246   2.858  0.2378 -0.8652  0.8559
  970MOL0     C30858   5.687   4.220   2.747 -0.3019  0.2555 -0.0877
  970MOL0    Cl30859   5.585   4.079   2.810 -0.4271 -0.2617 -0.6522
  970MOL0     C30860   5.730   4.501   3.504 -0.0431 -0.9242 -0.0742
  970MOL0     C30861   5.602   4.468   3.543 -0.3693  0.9480  0.3818
  970MOL0     O30862   5.453   4.316   3.790  0.7548  0.3771 -0.9874
  970MOL0     C30863   5.184   4.259   3.851  0.4572  0.1341  0.9087
  970MOL0     C30864   5.047   4.230   3.875  0.3997 -0.3517  0.2082
  970MOL0     N30865   4.402   4.003   3.654 -0.0881 -0.1639 -0.1960
  970MOL0     N30866   4.331   3.904   3.618  0.1150  0.2140  0.2045
  970MOL0     C30867   3.539   3.036   3.389  0.4613 -0.3935  0.0157
  970MOL0     C30868   3.440   3.025   3.285  1.0099  0.0281  0.5419
  970MOL0     C30869   3.179   3.181   2.951  0.0509  0.3665  0.0565
  970MOL0     C30870   3.045   3.215   2.999 -1.1915  0.1508  0.1510
  970MOL0     C30871   2.938   3.222   2.912  0.3620  0.2395 -0.3388
  970MOL0     C30872   2.944   3.161   2.785 -0.5956  0.5053  0.7072
  970MOL0     O30873   2.835   3.170   2.703  0.9189 -0.0415  0.1778
  970MOL0     C30874   2.809   3.074   2.601  0.4452 -0.0613  0.6876
  970MOL0     C30875   2.669   3.082   2.543  0.4481  0.0554  0.2994
  970MOL0     C30876   2.643   3.199   2.448 -0.1214 -0.5537 -0.0231
  970MOL0     C30877   2.586   3.320   2.530  0.1692 -0.0306  1.4698
  970MOL0     C30878   2.578   3.445   2.459 -0.6090 -0.0349  0.6662
  970MOL0     C30879   2.582   3.554   2.416  0.1905 -0.2917  1.0052
  970MOL0     C30880   3.073   3.106   2.747  0.0977 -0.0959  0.8486
  970MOL0     C30881   3.190   3.114   2.830 -0.0645  0.3022  1.5125
  970MOL0     C30882   3.325   3.068   2.765  0.6121  0.2885 -1.4042
  970MOL0     H30883   3.279   3.306   3.329 -2.6955 -2.0399  0.5036
  970MOL0     H30884   3.445   3.340   3.518  2.1676 -1.5171  2.3085
  970MOL0     H30885   3.754   2.990   3.558  2.8721  0.0284  2.3467
  970MOL0     H30886   3.817   3.109   3.446 -1.4494 -0.3020 -1.0969
  970MOL0     H30887   3.959   3.070   3.663  1.0314  0.2020  1.9382
  970MOL0     H30888   3.821   3.123   3.761  1.1465  0.9221 -0.0552
  970MOL0     H30889   3.855   3.354   3.654  2.4514  1.3162  3.5538
  970MOL0     H30890   3.986   3.275   3.558  1.1792  0.5783  0.0704
  970MOL0     H30891   3.965   3.382   3.839  3.1372  3.7979  0.5976
  970MOL0     H30892   4.076   3.241   3.811  0.5292 -0.8329 -3.0599
  970MOL0     H30893   4.182   3.457   3.804  2.6271 -4.3770  0.3690
  970MOL0     H30894   4.212   3.373   3.661 -0.8632 -1.1772 -1.0665
  970MOL0     H30895   4.032   3.492   3.552 -2.1837  0.4313 -0.4010
  970MOL0     H30896   3.982   3.570   3.710  0.4978 -0.5143  0.6875
  970MOL0     H30897   4.126   3.716   3.537 -0.8350  0.3938  1.3155
  970MOL0     H30898   4.258   3.612   3.606  1.1899  0.4534  1.3025
  970MOL0     H30899   4.066   3.800   3.765 -0.4930 -0.6394  1.5467
  970MOL0     H30900   4.192   3.695   3.837 -0.8397  1.1139  0.7396
  970MOL0     H30901   4.272   3.921   3.945  1.3239  1.7664  0.6258
  970MOL0     H30902   4.376   4.252   3.813  0.1690  0.7443  0.8985
  970MOL0     H30903   4.428   4.156   3.953 -0.7825 -1.2778 -0.3146
  970MOL0     H30904   4.616   4.180   3.722  0.1069 -1.8372 -0.3559
  970MOL0     H30905   4.599   4.293   3.853  0.2967  0.4989 -0.6735
  970MOL0     H30906   4.650   3.986   3.866  0.5094  0.0578  0.5444
  970MOL0     H30907   4.634   4.075   4.015 -1.2945 -1.4572  0.1147
  970MOL0     H30908   4.860   4.075   3.981  0.0685 -0.3314 -1.1884
  970MOL0     H30909   4.800   4.242   3.951  1.9401 -0.1310 -0.9075
  970MOL0     H30910   4.960   4.158   3.558  0.0105 -0.7644  0.1054
  970MOL0     H30911   5.187   4.245   3.517  1.7389  2.3145  0.0761
  970MOL0     H30912   5.592   4.138   3.514 -0.6383 -0.4058 -1.0183
  970MOL0     H30913   5.840   4.181   3.460 -1.3036 -1.3769 -0.0562
  970MOL0     H30914   5.918   4.595   3.340 -1.9632 -0.9187  3.2036
  970MOL0     H30915   6.072   4.585   3.418  0.8008 -2.4389  0.8111
  970MOL0     H30916   6.163   4.533   3.234  0.5073  0.8876 -2.4350
  970MOL0     H30917   6.090   4.377   3.243  2.1068  0.9129  3.0276
  970MOL0     H30918   6.010   4.629   3.096  1.4577 -0.7204  2.0152
  970MOL0     H30919   6.052   4.471   3.020 -2.2232 -1.6625 -0.3656
  970MOL0     H30920   5.820   4.514   2.981 -0.5728 -1.5775 -0.5720
  970MOL0     H30921   5.793   4.554   3.146  0.5013  1.3299 -1.9464
  970MOL0     H30922   5.805   4.317   3.201  1.2181 -2.2455 -0.5727
  970MOL0     H30923   5.928   4.289   3.082  0.7257 -0.7442  4.0181
  970MOL0     H30924   5.697   4.169   3.040 -3.3243  0.5268 -0.3705
  970MOL0     H30925   5.649   4.340   2.992 -0.1319 -0.5355 -0.1700
  970MOL0     H30926   5.839   4.149   2.861 -0.0490 -1.0073  3.4161
  970MOL0     H30927   5.859   4.326   2.834 -0.9327 -0.3706 -1.1340
  970MOL0     H30928   5.608   4.295   2.733 -0.6297 -0.1769 -0.5594
  970MOL0     H30929   5.737   4.197   2.652 -2.4515 -0.7577 -1.0386
  970MOL0     H30930   5.763   4.605   3.505 -0.8335 -0.5109  4.7478
  970MOL0     H30931   5.528   4.543   3.568 -2.4284 -1.3181  1.5078
  970MOL0     H30932   5.235   4.316   3.928  1.2296  1.4163 -0.4924
  970MOL0     H30933   5.016   4.233   3.978  2.1002  0.8790  0.7337
  970MOL0     H30934   3.612   2.955   3.397  0.3235 -0.6957 -1.4990
  970MOL0     H30935   3.437   2.952   3.204  1.5113 -0.7921  1.2457
  970MOL0     H30936   3.029   3.248   3.101 -0.1990 -2.2928  1.1891
  970MOL0     H30937   2.843   3.270   2.927  0.3248 -0.2725  1.1562
  970MOL0     H30938   2.814   2.972   2.640  0.0507 -0.1706  0.4562
  970MOL0     H30939   2.894   3.081   2.532  2.2993 -2.3678  2.5494
  970MOL0     H30940   2.595   3.085   2.623 -1.0820  1.4652 -1.1052
  970MOL0     H30941   2.658   2.985   2.492  3.1879  0.8392 -2.0722
  970MOL0     H30942   2.571   3.165   2.373  1.9918 -2.1235 -1.4338
  970MOL0     H30943   2.736   3.230   2.400 -1.1100 -0.3813 -1.9520
  970MOL0     H30944   2.486   3.291   2.564 -0.4080  0.9322  0.6394
  970MOL0     H30945   2.657   3.330   2.613  0.4829 -0.3863  1.2474
  970MOL0     H30946   2.576   3.655   2.380 -1.4635 -0.4497  0.7677
  970MOL0     H30947   3.088   3.063   2.648  1.2528  4.3029 -1.1074
  970MOL0     H30948   3.385   2.998   2.824  2.5661  0.8310 -2.6514
  970MOL0     H30949   3.311   3.027   2.664 -0.9502 -4.2124  0.3771
  970MOL0     H30950   3.399   3.148   2.764  0.8163  0.1354 -0.1680
  971MOL0     O30951   9.757   2.976   3.508  0.1468  0.0800 -0.5394
  971MOL0     C30952   9.737   3.030   3.402 -0.1346 -0.2054  1.4373
  971MOL0     O30953   9.805   3.133   3.340  0.0120  0.2268  0.3905
  971MOL0     C30954   9.931   3.176   3.381  0.0767  0.0760 -0.8696
  971MOL0     C30955   9.956   3.312   3.360  0.9399  0.6860 -0.6146
  971MOL0     C30956  10.071   3.373   3.415  0.1572 -0.1662 -0.6959
  971MOL0     C30957  10.171   3.297   3.479 -0.0920  0.4129  0.7920
  971MOL0     O30958  10.290   3.355   3.518 -0.0768 -0.2357 -0.2727
  971MOL0     C30959  10.269   3.422   3.641  0.5790  0.9488  0.0394
  971MOL0     C30960  10.391   3.409   3.731  0.3738  0.1476 -0.9758
  971MOL0     C30961  10.478   3.530   3.726  0.6388 -0.2462  0.9696
  971MOL0     C30962  10.590   3.516   3.827  0.7353  0.0568 -0.3110
  971MOL0     C30963  10.698   3.621   3.828 -0.0222  0.9926  0.0832
  971MOL0     C30964  10.659   3.759   3.886 -0.0442  0.3179 -0.4257
  971MOL0     C30965  10.635   3.759   4.042  0.0030 -1.1579 -0.1687
  971MOL0     C30966  10.633   3.893   4.109  0.3378 -0.1748 -0.0960
  971MOL0     N30967  10.764   3.956   4.106  0.7436 -0.1480  1.0456
  971MOL0     C30968  10.783   4.072   4.037 -0.0067  0.0184  0.5910
  971MOL0     C30969  10.919   4.099   4.060 -0.1944  0.9212 -0.6369
  971MOL0     C30970  11.003   4.213   4.004  0.5903 -0.0550 -0.2118
  971MOL0     C30971  11.077   4.176   3.873  0.3970 -0.2792 -0.2406
  971MOL0     C30972  11.130   4.303   3.805 -1.7308  0.4305 -0.7422
  971MOL0     C30973  11.240   4.278   3.697 -0.0746 -0.7082 -0.8851
  971MOL0     O30974  11.326   4.386   3.712  0.3620  0.2996 -0.3866
  971MOL0     C30975  11.439   4.378   3.643 -0.6564 -0.5588 -0.1434
  971MOL0     C30976  11.473   4.436   3.519  0.1671 -0.9532 -0.0054
  971MOL0     C30977  11.592   4.408   3.452 -0.0122  0.0446  0.1116
  971MOL0     C30978  11.691   4.334   3.525 -0.7503  0.3572  0.3915
  971MOL0     C30979  11.815   4.300   3.462 -0.1999 -0.0355  0.4416
  971MOL0     O30980  11.922   4.279   3.544 -0.4324 -0.0406 -0.1277
  971MOL0     C30981  12.040   4.246   3.490  0.8139 -0.5162  0.9391
  971MOL0     C30982  12.098   4.325   3.388 -1.3300  0.2001 -0.0888
  971MOL0     C30983  12.223   4.278   3.323  0.2691  0.4233  0.1935
  971MOL0     C30984  12.295   4.163   3.377 -0.3763 -0.0374  0.3874
  971MOL0     O30985  12.416   4.116   3.330 -0.7116 -0.3224  0.6019
  971MOL0     C30986  12.516   4.204   3.262 -0.2623 -0.0377 -0.8410
  971MOL0     C30987  12.658   4.201   3.325 -0.9257 -0.1323  0.0484
  971MOL0     C30988  12.752   4.242   3.211 -0.2584 -0.2652 -0.1708
  971MOL0     C30989  12.899   4.237   3.246 -0.1668  0.0643 -0.2779
  971MOL0     C30990  12.967   4.097   3.222 -0.0216 -0.0264 -0.1787
  971MOL0     C30991  13.108   4.076   3.274 -0.1605 -1.4308 -0.0282
  971MOL0     C30992  13.101   4.069   3.428 -0.5283  0.5107 -0.3300
  971MOL0     C30993  13.233   4.006   3.476  0.9166 -0.4787 -0.4768
  971MOL0    Cl30994  13.355   4.138   3.514 -0.0841 -0.1386 -0.3461
  971MOL0     C30995  12.229   4.091   3.486 -0.1207 -0.2993  0.7507
  971MOL0     C30996  12.102   4.135   3.536  0.4417  0.7410  0.0246
  971MOL0     O30997  11.812   4.298   3.334 -0.7493 -0.2928  0.2515
  971MOL0     C30998  11.665   4.290   3.658  0.2460 -0.2098 -0.0744
  971MOL0     C30999  11.539   4.309   3.712  0.2366 -0.4641  0.1505
  971MOL0     N31000  10.968   4.000   4.143  0.0674  0.2554 -1.1616
  971MOL0     N31001  10.878   3.916   4.168 -0.1109  0.8622 -0.4491
  971MOL0     C31002  10.152   3.159   3.507 -0.8943 -0.5597 -0.3756
  971MOL0     C31003  10.030   3.105   3.452  0.1680  0.1171 -0.3914
  971MOL0     C31004   9.614   2.986   3.325  0.0075 -0.0766  0.1880
  971MOL0     C31005   9.513   2.940   3.408  0.6615  1.0508  0.9012
  971MOL0     C31006   9.378   2.922   3.360  0.6935  0.1019 -0.2135
  971MOL0     C31007   9.352   2.928   3.224  0.0229 -0.3858 -0.2180
  971MOL0     O31008   9.227   2.919   3.166 -0.0511  0.2522 -0.5977
  971MOL0     C31009   9.116   2.944   3.248  0.2158 -0.2227  0.1029
  971MOL0     C31010   9.039   2.818   3.268 -0.0700  0.7184 -0.0980
  971MOL0     C31011   9.008   2.756   3.128  0.7171  0.3221  0.3171
  971MOL0     C31012   8.887   2.664   3.128  0.2019 -0.5308 -0.0764
  971MOL0     C31013   8.864   2.605   2.999  0.9271  0.6802  0.3051
  971MOL0     C31014   8.818   2.557   2.899  0.4716  1.0188 -0.5944
  971MOL0     C31015   9.458   2.956   3.143 -0.6366  0.1780  0.8499
  971MOL0     C31016   9.585   2.997   3.192 -0.3885 -0.2658  0.5257
  971MOL0     C31017   9.686   3.043   3.094 -0.4432 -0.8197  0.2066
  971MOL0     H31018   9.878   3.368   3.310 -0.8128  1.2244  2.4558
  971MOL0     H31019  10.083   3.480   3.407 -1.3533  0.2207  1.4803
  971MOL0     H31020  10.249   3.529   3.631  0.7530  1.5427  4.1828
  971MOL0     H31021  10.182   3.387   3.697  0.5903  2.2206  0.9038
  971MOL0     H31022  10.444   3.316   3.707 -0.6145 -0.3678 -1.2338
  971MOL0     H31023  10.345   3.402   3.830 -0.9906  0.6560 -1.5429
  971MOL0     H31024  10.413   3.617   3.740  1.3393  0.0569  2.6696
  971MOL0     H31025  10.522   3.546   3.627 -2.9727 -0.7572 -0.8688
  971MOL0     H31026  10.544   3.516   3.927 -2.9266 -1.2660 -1.8167
  971MOL0     H31027  10.639   3.419   3.815 -2.4008 -2.0666  2.2788
  971MOL0     H31028  10.784   3.592   3.889  1.4574  0.7077 -2.0342
  971MOL0     H31029  10.722   3.636   3.722 -1.9053  0.3480 -0.4766
  971MOL0     H31030  10.738   3.830   3.865  0.8067 -0.1390  1.0789
  971MOL0     H31031  10.565   3.794   3.843 -1.0726 -0.0733  1.3837
  971MOL0     H31032  10.712   3.700   4.093  0.6222 -1.6278 -1.6109
  971MOL0     H31033  10.533   3.720   4.032 -0.1035 -0.2811 -3.7356
  971MOL0     H31034  10.556   3.960   4.069  0.0644  0.6139  1.6452
  971MOL0     H31035  10.600   3.896   4.213 -1.1557 -4.4085 -0.2570
  971MOL0     H31036  10.719   4.135   3.977  1.0135  0.7853  0.2777
  971MOL0     H31037  10.942   4.303   3.996  1.7430  0.8756  1.0513
  971MOL0     H31038  11.073   4.246   4.081  2.8669  0.0758 -2.2016
  971MOL0     H31039  11.161   4.115   3.906  0.2709 -0.1531  0.3320
  971MOL0     H31040  11.013   4.130   3.797 -0.3320 -2.1457  1.4150
  971MOL0     H31041  11.175   4.368   3.880 -1.7940 -0.7222  0.3312
  971MOL0     H31042  11.053   4.352   3.745 -1.0530  2.9761  0.3561
  971MOL0     H31043  11.195   4.276   3.597  0.1673  4.0834 -1.3125
  971MOL0     H31044  11.277   4.183   3.735 -1.1472 -0.7290  0.1752
  971MOL0     H31045  11.406   4.496   3.457 -0.3429  0.3090  1.6752
  971MOL0     H31046  11.609   4.434   3.348  0.0432  1.0186  0.3610
  971MOL0     H31047  12.060   4.415   3.340  2.1975  2.4910  0.9900
  971MOL0     H31048  12.264   4.341   3.245  1.2534 -1.3387 -0.7896
  971MOL0     H31049  12.511   4.155   3.164  0.0351 -3.1075  0.5432
  971MOL0     H31050  12.492   4.308   3.240  3.4583  0.8842 -1.2920
  971MOL0     H31051  12.663   4.271   3.409  2.4108  1.3473 -1.2013
  971MOL0     H31052  12.691   4.102   3.355  1.6801  0.5575 -0.2754
  971MOL0     H31053  12.730   4.186   3.120 -1.4768  0.0629 -0.0947
  971MOL0     H31054  12.736   4.349   3.192 -0.2635 -0.3056 -0.3947
  971MOL0     H31055  12.920   4.287   3.341 -2.4200 -1.4204  1.0925
  971MOL0     H31056  12.942   4.304   3.170 -0.1090 -2.5740 -2.7229
  971MOL0     H31057  12.971   4.081   3.114  0.8563  1.0813 -0.3375
  971MOL0     H31058  12.903   4.018   3.261 -0.8681  0.1177 -1.2594
  971MOL0     H31059  13.151   3.986   3.226  1.0200  0.5623 -3.0314
  971MOL0     H31060  13.170   4.163   3.251  0.0973 -1.4746  0.4964
  971MOL0     H31061  13.027   3.996   3.462  2.2428 -0.1663  5.3435
  971MOL0     H31062  13.075   4.166   3.470 -0.0362 -0.2176  1.7925
  971MOL0     H31063  13.222   3.927   3.551 -0.5629 -1.8578 -2.0810
  971MOL0     H31064  13.283   3.958   3.391  1.5884  3.9286 -2.8837
  971MOL0     H31065  12.289   4.015   3.533 -0.3017 -0.8262  0.1406
  971MOL0     H31066  12.062   4.075   3.617  0.1104  0.0123 -0.6550
  971MOL0     H31067  11.737   4.228   3.711  0.3247  0.1468  0.2430
  971MOL0     H31068  11.524   4.276   3.814  0.4591 -0.9144  0.0406
  971MOL0     H31069  10.222   3.108   3.573 -2.7128 -1.1737  1.1709
  971MOL0     H31070  10.015   3.000   3.476  3.3521 -0.8229 -1.9403
  971MOL0     H31071   9.540   2.924   3.511 -0.9980 -2.5528  0.9361
  971MOL0     H31072   9.294   2.903   3.425 -0.1635  2.8917 -0.3683
  971MOL0     H31073   9.055   3.018   3.196 -1.0126 -2.1065 -1.2426
  971MOL0     H31074   9.134   2.994   3.344  1.8627 -2.3169  0.9484
  971MOL0     H31075   8.942   2.820   3.319 -0.4835 -6.5360  0.5021
  971MOL0     H31076   9.093   2.733   3.310 -0.5894  1.2821  1.7940
  971MOL0     H31077   9.093   2.699   3.089  1.4553  1.9219 -0.5193
  971MOL0     H31078   8.978   2.837   3.061 -0.7863 -1.3225 -1.1155
  971MOL0     H31079   8.919   2.586   3.198  0.3251 -0.7470 -0.3715
  971MOL0     H31080   8.793   2.707   3.165 -0.4532 -1.6989 -0.3488
  971MOL0     H31081   8.784   2.507   2.811 -0.7777 -0.8978  0.8908
  971MOL0     H31082   9.454   2.970   3.035  1.3218  1.5053  0.8940
  971MOL0     H31083   9.661   3.027   2.989 -2.4835 -0.6196  0.6170
  971MOL0     H31084   9.694   3.152   3.103  3.2182 -0.6945 -2.4007
  971MOL0     H31085   9.785   3.000   3.112  0.1464  0.7639  0.9449
  972MOL0     O31086   7.087   9.867   2.157  0.5261 -0.0373 -0.2759
  972MOL0     C31087   6.969   9.874   2.111 -0.7980 -0.0098  0.8590
  972MOL0     O31088   6.944   9.890   1.979  0.5009 -0.0370 -0.3233
  972MOL0     C31089   7.044   9.944   1.900  0.4008 -0.5054 -1.2234
  972MOL0     C31090   7.058   9.913   1.757  0.8813 -1.4698 -0.1215
  972MOL0     C31091   7.148   9.988   1.677 -0.0247 -0.6765  1.3319
  972MOL0     C31092   7.220  10.092   1.736  0.0648  0.5215  0.7614
  972MOL0     O31093   7.298  10.173   1.664 -0.5472 -0.1956 -0.0680
  972MOL0     C31094   7.439  10.151   1.695 -0.3886 -0.2588  1.4202
  972MOL0     C31095   7.485  10.253   1.788 -0.1176  0.4406  0.0310
  972MOL0     C31096   7.630  10.297   1.778 -0.4169  0.8150  0.4355
  972MOL0     C31097   7.738  10.191   1.792  0.1503 -0.3951 -0.1325
  972MOL0     C31098   7.872  10.265   1.802  0.0051 -0.5259  0.3477
  972MOL0     C31099   7.982  10.158   1.828  0.3783  0.2956  0.6965
  972MOL0     C31100   8.130  10.207   1.823  0.0051 -0.2191 -0.6596
  972MOL0     C31101   8.240  10.108   1.816 -0.5120  0.1676  0.1894
  972MOL0     N31102   8.378  10.162   1.802  0.0320  0.4193 -0.3729
  972MOL0     C31103   8.477  10.127   1.892  0.1061 -0.9019 -0.8176
  972MOL0     C31104   8.590  10.167   1.828 -0.1103 -0.8873 -0.3142
  972MOL0     C31105   8.731  10.119   1.869  0.6373 -0.4748 -0.5922
  972MOL0     C31106   8.790  10.195   1.975  0.0623 -0.2710  0.2196
  972MOL0     C31107   8.749  10.168   2.118 -0.8378  0.3567 -0.8192
  972MOL0     C31108   8.847  10.176   2.229 -0.1855 -0.4075 -0.0262
  972MOL0     O31109   8.893  10.314   2.240 -0.3894  0.0422 -0.4496
  972MOL0     C31110   8.995  10.336   2.332  0.7093  0.1439 -0.3337
  972MOL0     C31111   9.048  10.243   2.412 -1.1471  0.2875 -0.8374
  972MOL0     C31112   9.161  10.280   2.487  0.1663  0.7732 -0.6953
  972MOL0     C31113   9.216  10.411   2.483  0.1648 -0.6139 -0.6751
  972MOL0     C31114   9.332  10.446   2.578  0.1069  0.6465 -0.2309
  972MOL0     O31115   9.407  10.338   2.614 -0.1405  0.6104 -0.1582
  972MOL0     C31116   9.485  10.335   2.727  0.0102 -0.0299 -0.0170
  972MOL0     C31117   9.462  10.416   2.844  0.3709 -0.4396  0.5256
  972MOL0     C31118   9.552  10.430   2.946 -0.7317 -0.4225 -0.5267
  972MOL0     C31119   9.657  10.341   2.952 -0.3020 -0.2313  0.1620
  972MOL0     O31120   9.744  10.383   3.058  0.5506  0.5984 -0.1672
  972MOL0     C31121   9.881  10.337   3.041  0.2424  0.3966 -0.1199
  972MOL0     C31122   9.956  10.369   3.172  0.1879 -0.5242  0.3024
  972MOL0     C31123  10.097  10.309   3.165 -0.5418  0.8907 -0.5291
  972MOL0     C31124  10.182  10.348   3.284  0.1634  0.1519  0.2348
  972MOL0     C31125  10.319  10.274   3.297  0.3753  0.0834 -0.3939
  972MOL0     C31126  10.364  10.292   3.443  0.9567 -0.2677  0.3301
  972MOL0     C31127  10.515  10.249   3.465 -0.0928 -0.6817 -0.2989
  972MOL0     C31128  10.554  10.320   3.595 -0.0577 -0.0740 -0.8727
  972MOL0    Cl31129  10.427  10.306   3.722 -0.0652 -0.2838  0.0402
  972MOL0     C31130   9.668  10.239   2.855  0.6328  0.3085  0.8495
  972MOL0     C31131   9.583  10.237   2.738  0.1774  0.0455 -1.3268
  972MOL0     O31132   9.353  10.564   2.597 -1.1910 -0.2372  0.1467
  972MOL0     C31133   9.153  10.502   2.398  0.2245 -0.7671 -0.5606
  972MOL0     C31134   9.040  10.465   2.319 -0.9865  1.1847 -0.2622
  972MOL0     N31135   8.555  10.207   1.697  0.4732 -0.0419  0.2001
  972MOL0     N31136   8.433  10.211   1.689  0.2427  0.0793 -0.5716
  972MOL0     C31137   7.205  10.125   1.866  0.1038  0.0519  0.1713
  972MOL0     C31138   7.125  10.049   1.953 -0.1364 -0.8839 -0.2138
  972MOL0     C31139   6.851   9.860   2.201  0.1564  0.5318  0.2785
  972MOL0     C31140   6.726   9.830   2.132 -0.6199  0.4577 -1.0234
  972MOL0     C31141   6.600   9.830   2.207 -0.4308  0.8175  0.1061
  972MOL0     C31142   6.604   9.856   2.344 -0.9706  0.2316  0.7967
  972MOL0     O31143   6.481   9.863   2.411  0.6450 -0.5534 -0.0997
  972MOL0     C31144   6.435   9.738   2.459 -0.1215  0.8712  0.6401
  972MOL0     C31145   6.531   9.685   2.569 -0.3520 -0.4631 -0.1030
  972MOL0     C31146   6.470   9.564   2.645  0.4775  0.7244 -0.2847
  972MOL0     C31147   6.494   9.438   2.563 -0.0995  0.5050 -0.2645
  972MOL0     C31148   6.634   9.394   2.580  0.1841  0.0548  0.4500
  972MOL0     C31149   6.751   9.360   2.590  0.5393  0.4315 -0.2942
  972MOL0     C31150   6.722   9.886   2.401  0.3994  0.3353 -0.4296
  972MOL0     C31151   6.844   9.888   2.338 -0.7135  0.3688 -0.2106
  972MOL0     C31152   6.971   9.937   2.401  0.6465 -0.4401  0.0220
  972MOL0     H31153   6.991   9.836   1.719 -3.2146  0.5565  2.2206
  972MOL0     H31154   7.149   9.985   1.569 -0.8885 -0.8232  1.3224
  972MOL0     H31155   7.463  10.055   1.739 -1.9736 -1.1115  0.5394
  972MOL0     H31156   7.485  10.150   1.595  1.2262 -1.0264  2.1434
  972MOL0     H31157   7.467  10.206   1.885  0.1634  0.4166  0.0729
  972MOL0     H31158   7.417  10.338   1.784  0.6616  1.1455  1.0014
  972MOL0     H31159   7.639  10.373   1.856  0.6514  2.1739 -0.9571
  972MOL0     H31160   7.646  10.342   1.679 -0.7422  0.7479  0.3501
  972MOL0     H31161   7.722  10.126   1.879 -2.0627 -0.6886 -0.7015
  972MOL0     H31162   7.734  10.135   1.699 -0.2283 -0.2358 -0.2151
  972MOL0     H31163   7.874  10.325   1.710 -0.4570 -0.7074  0.2153
  972MOL0     H31164   7.867  10.331   1.889  2.3001  2.4719 -1.5838
  972MOL0     H31165   7.969  10.127   1.932 -1.0991  1.1947  0.8068
  972MOL0     H31166   7.969  10.072   1.761 -0.4668  0.8217  0.1674
  972MOL0     H31167   8.145  10.272   1.910 -2.9606 -1.3826  0.8407
  972MOL0     H31168   8.141  10.262   1.729 -0.0057  0.8015 -0.0791
  972MOL0     H31169   8.252  10.056   1.911  3.3179  0.2349 -0.1024
  972MOL0     H31170   8.207  10.039   1.738  0.8869 -1.2110  0.7825
  972MOL0     H31171   8.473  10.076   1.988  0.7545 -1.1841 -0.9329
  972MOL0     H31172   8.718  10.015   1.901 -1.9438 -1.0944 -3.1306
  972MOL0     H31173   8.793  10.122   1.779  0.7584 -0.0135 -0.4969
  972MOL0     H31174   8.897  10.177   1.958 -0.1544 -0.8017 -0.5909
  972MOL0     H31175   8.785  10.302   1.952  2.9642 -0.0952  0.0481
  972MOL0     H31176   8.703  10.070   2.131  0.1753  0.3001  4.5854
  972MOL0     H31177   8.674  10.245   2.139  0.2158  2.4356 -3.9571
  972MOL0     H31178   8.931  10.109   2.211 -0.4177 -0.9968  1.0205
  972MOL0     H31179   8.804  10.144   2.324  0.4858  3.1469  1.6272
  972MOL0     H31180   9.018  10.139   2.416  1.3318 -0.4809 -0.5821
  972MOL0     H31181   9.212  10.210   2.552 -1.3466  0.4127  0.1406
  972MOL0     H31182   9.376  10.482   2.846  1.4137  1.0000 -0.1879
  972MOL0     H31183   9.547  10.510   3.020 -0.0079 -1.9563  1.2622
  972MOL0     H31184   9.868  10.233   3.007  0.8522  0.3957 -0.3544
  972MOL0     H31185   9.938  10.396   2.969 -0.7276 -0.0891 -1.3436
  972MOL0     H31186   9.968  10.477   3.160  4.7056 -0.9607 -0.8754
  972MOL0     H31187   9.919  10.340   3.270  3.5239 -1.0252  1.5378
  972MOL0     H31188  10.089  10.200   3.167  1.8581  0.6357 -2.0086
  972MOL0     H31189  10.152  10.346   3.078  1.0115  0.7563  0.3745
  972MOL0     H31190  10.118  10.334   3.372 -0.0294  0.8959  0.2203
  972MOL0     H31191  10.199  10.456   3.275  1.7349 -0.0477  0.6488
  972MOL0     H31192  10.396  10.315   3.230  1.1017  0.0991  0.4299
  972MOL0     H31193  10.313  10.166   3.285  0.2652  0.0579 -0.1095
  972MOL0     H31194  10.357  10.397   3.473  1.7217  0.0852 -0.6500
  972MOL0     H31195  10.295  10.236   3.506 -2.0205  1.6594 -0.9736
  972MOL0     H31196  10.567  10.277   3.373  1.4868 -1.0037  0.4544
  972MOL0     H31197  10.525  10.141   3.485 -0.9363 -0.9200 -1.0906
  972MOL0     H31198  10.636  10.257   3.631  0.2011 -1.4671 -3.6161
  972MOL0     H31199  10.590  10.422   3.577 -1.0092  0.6909  1.2952
  972MOL0     H31200   9.753  10.172   2.853  2.2146  2.1069  2.7751
  972MOL0     H31201   9.598  10.161   2.662 -1.3866 -0.2951 -1.3210
  972MOL0     H31202   9.189  10.603   2.384 -1.8360  0.2445  0.8652
  972MOL0     H31203   8.991  10.532   2.248  0.6442  1.2939 -1.3234
  972MOL0     H31204   7.256  10.215   1.902  3.2117 -0.7427 -1.8540
  972MOL0     H31205   7.115  10.077   2.058  0.8425 -1.1594 -0.0421
  972MOL0     H31206   6.699   9.805   2.030 -0.7237  1.0361 -1.1442
  972MOL0     H31207   6.503   9.808   2.164 -0.9025  1.4141  0.8260
  972MOL0     H31208   6.436   9.670   2.374 -2.6684 -0.6938  1.7421
  972MOL0     H31209   6.331   9.733   2.493  0.2952  2.1450  2.2277
  972MOL0     H31210   6.549   9.759   2.647 -0.3139 -2.4436  1.8556
  972MOL0     H31211   6.625   9.665   2.517  1.8455  3.1840  2.0333
  972MOL0     H31212   6.361   9.570   2.656  0.3450 -1.2313 -0.1261
  972MOL0     H31213   6.516   9.552   2.743 -1.1942 -1.6149  0.2927
  972MOL0     H31214   6.430   9.354   2.593 -0.7784  1.5158  1.2507
  972MOL0     H31215   6.480   9.456   2.456 -0.2133  1.3997 -0.1066
  972MOL0     H31216   6.857   9.344   2.598  1.0911  3.4973 -0.4484
  972MOL0     H31217   6.724   9.899   2.509 -2.1752  0.1946 -0.3078
  972MOL0     H31218   7.021  10.004   2.331 -3.8195  0.3972 -2.7979
  972MOL0     H31219   6.945   9.978   2.499 -1.5219  3.1974 -1.8447
  972MOL0     H31220   7.035   9.848   2.407 -1.0740 -1.6064  2.1899
  973MOL0     O31221   2.414   3.106   4.843  0.5759 -0.8478  0.1621
  973MOL0     C31222   2.331   3.137   4.928 -0.1806 -0.0869 -0.5766
  973MOL0     O31223   2.358   3.205   5.037 -1.0511  0.3970 -0.1128
  973MOL0     C31224   2.488   3.225   5.091  0.6432 -0.6149  0.2945
  973MOL0     C31225   2.514   3.356   5.144 -0.7812  0.4012 -0.1904
  973MOL0     C31226   2.644   3.386   5.194  0.4670 -0.8225  0.2917
  973MOL0     C31227   2.739   3.286   5.204 -0.2744 -0.0914 -0.4389
  973MOL0     O31228   2.851   3.304   5.278  0.2839  0.1014 -0.4225
  973MOL0     C31229   2.917   3.432   5.268  0.4135 -0.4658  0.0491
  973MOL0     C31230   3.064   3.432   5.298  0.4655  0.2272 -0.7789
  973MOL0     C31231   3.123   3.570   5.258 -0.3892  0.5835 -0.4601
  973MOL0     C31232   3.263   3.582   5.316 -0.0909  0.4925  0.7381
  973MOL0     C31233   3.358   3.474   5.248  1.2892  0.1614 -0.2077
  973MOL0     C31234   3.502   3.531   5.254  1.0985  0.4505 -0.8824
  973MOL0     C31235   3.512   3.653   5.153  0.5842 -0.2959  0.6321
  973MOL0     C31236   3.659   3.704   5.136  0.4881 -0.4671  0.5668
  973MOL0     N31237   3.730   3.724   5.266 -0.3750  0.4781  0.1684
  973MOL0     C31238   3.743   3.841   5.335  0.2245  0.8733  0.6128
  973MOL0     C31239   3.837   3.803   5.439 -0.0656 -0.1410 -0.6387
  973MOL0     C31240   3.897   3.910   5.530 -1.0839  0.3409 -0.3205
  973MOL0     C31241   3.803   4.009   5.583  0.1747  0.5601 -0.2755
  973MOL0     C31242   3.877   4.122   5.651  0.6186 -1.0236 -0.3800
  973MOL0     C31243   3.942   4.232   5.562 -1.0518 -0.2233  1.1041
  973MOL0     O31244   4.058   4.172   5.501  0.1129  0.3851 -0.0998
  973MOL0     C31245   4.165   4.248   5.456 -0.2980  1.2061  0.4410
  973MOL0     C31246   4.235   4.193   5.351 -0.7802 -1.0252 -0.1261
  973MOL0     C31247   4.349   4.254   5.307 -0.7862  0.3789 -0.5746
  973MOL0     C31248   4.399   4.366   5.365  0.0357  0.4639 -1.6490
  973MOL0     C31249   4.530   4.426   5.319 -0.2281  0.6327  0.1913
  973MOL0     O31250   4.608   4.334   5.255 -0.6790 -0.2744 -0.5533
  973MOL0     C31251   4.725   4.389   5.199 -0.1598  0.6825  0.7779
  973MOL0     C31252   4.843   4.347   5.255 -1.6228  0.1796  0.7214
  973MOL0     C31253   4.970   4.396   5.206 -0.4181  0.8611  0.1371
  973MOL0     C31254   4.966   4.487   5.095 -0.4175 -0.6865  0.3770
  973MOL0     O31255   5.080   4.551   5.039  0.0822 -0.6662 -0.1354
  973MOL0     C31256   5.208   4.560   5.106  0.7091  0.2390 -0.5274
  973MOL0     C31257   5.326   4.602   5.013  0.6472  0.0926  0.0452
  973MOL0     C31258   5.299   4.575   4.867  0.4795 -0.2886 -0.2796
  973MOL0     C31259   5.435   4.581   4.773  1.1678  0.8412 -0.4741
  973MOL0     C31260   5.409   4.588   4.624  0.4350 -0.2954 -0.4250
  973MOL0     C31261   5.546   4.587   4.546 -0.0487 -0.5098 -0.8361
  973MOL0     C31262   5.565   4.701   4.450  0.4254 -0.3844  0.1597
  973MOL0     C31263   5.700   4.713   4.380 -0.1371  0.0439  0.6143
  973MOL0    Cl31264   5.678   4.827   4.239  0.1059 -0.2290 -0.1546
  973MOL0     C31265   4.844   4.517   5.038  0.3463  0.4225 -0.2920
  973MOL0     C31266   4.722   4.474   5.089 -0.3054 -0.0354  0.2184
  973MOL0     O31267   4.568   4.527   5.365  0.1973  0.7346 -0.6143
  973MOL0     C31268   4.321   4.431   5.460 -0.4464  0.4906 -0.1155
  973MOL0     C31269   4.205   4.375   5.508  0.5837 -0.6171 -0.2747
  973MOL0     N31270   3.848   3.665   5.443  0.0857 -0.0308 -0.3738
  973MOL0     N31271   3.806   3.627   5.332  0.4232 -0.1800 -0.2205
  973MOL0     C31272   2.708   3.151   5.167 -0.6266 -0.3960  0.1975
  973MOL0     C31273   2.582   3.123   5.108  0.1452 -0.8722  0.0551
  973MOL0     C31274   2.190   3.109   4.898  0.5707  0.2525 -0.7140
  973MOL0     C31275   2.096   3.163   4.984 -0.3054 -0.9412  0.8794
  973MOL0     C31276   1.962   3.142   4.964  0.3121 -0.3532  0.2701
  973MOL0     C31277   1.911   3.055   4.867  0.3634 -0.0770  1.0021
  973MOL0     O31278   1.781   3.014   4.851  0.2981 -0.7840 -0.2635
  973MOL0     C31279   1.678   3.055   4.944 -0.9327 -1.0648 -0.7656
  973MOL0     C31280   1.544   2.980   4.917 -0.0346  0.0801  0.2499
  973MOL0     C31281   1.447   3.062   4.832 -0.1152 -0.2695 -1.0890
  973MOL0     C31282   1.313   2.995   4.782 -0.0657  0.4552  0.6137
  973MOL0     C31283   1.221   2.975   4.897 -0.1275 -0.7495  0.1169
  973MOL0     C31284   1.129   2.974   4.983 -0.0413 -0.0390 -0.7468
  973MOL0     C31285   2.009   3.009   4.775  1.7535  0.1808  0.5731
  973MOL0     C31286   2.148   3.025   4.795 -0.0421 -1.1543 -0.8278
  973MOL0     C31287   2.230   2.951   4.698 -0.1325 -0.7726  0.1370
  973MOL0     H31288   2.436   3.432   5.146 -1.5596 -0.3607  2.0445
  973MOL0     H31289   2.664   3.487   5.230 -1.9924 -1.0257  2.4584
  973MOL0     H31290   2.919   3.444   5.159 -1.2325 -3.0197 -0.3558
  973MOL0     H31291   2.861   3.515   5.312  1.2309 -0.2007  0.6054
  973MOL0     H31292   3.116   3.351   5.246  1.8272  0.4029  0.2451
  973MOL0     H31293   3.069   3.423   5.407  1.0693  2.4552 -0.5748
  973MOL0     H31294   3.066   3.654   5.299  1.6321  1.1527  1.3769
  973MOL0     H31295   3.132   3.593   5.151 -0.4636  0.3702 -0.5134
  973MOL0     H31296   3.311   3.678   5.295  0.5914 -0.0898 -0.4588
  973MOL0     H31297   3.245   3.555   5.421  1.8133 -1.0148  0.7228
  973MOL0     H31298   3.336   3.382   5.303  0.3285  0.5118  0.0190
  973MOL0     H31299   3.324   3.450   5.147 -1.1537  0.6427  0.4185
  973MOL0     H31300   3.527   3.555   5.357 -0.5513 -1.9143  0.1551
  973MOL0     H31301   3.570   3.446   5.238 -0.9756 -1.6147  0.5180
  973MOL0     H31302   3.457   3.739   5.191 -2.9187 -2.4962  0.9766
  973MOL0     H31303   3.463   3.623   5.059 -0.5907  0.1958  1.0701
  973MOL0     H31304   3.710   3.637   5.066 -2.7697 -0.4513 -2.0435
  973MOL0     H31305   3.642   3.796   5.079 -3.2352 -3.1113 -3.1649
  973MOL0     H31306   3.701   3.936   5.303 -1.2597  0.0989  0.1871
  973MOL0     H31307   3.949   3.855   5.608 -0.9778  1.1957  0.2266
  973MOL0     H31308   3.980   3.957   5.477 -1.8243 -0.3971 -2.2135
  973MOL0     H31309   3.760   4.060   5.496  2.1812  3.5183  0.3101
  973MOL0     H31310   3.728   3.962   5.647  0.7637 -0.9280 -0.6276
  973MOL0     H31311   3.954   4.086   5.721  0.3151  1.2784  1.2604
  973MOL0     H31312   3.805   4.178   5.711  2.0108  1.1119 -0.5836
  973MOL0     H31313   3.969   4.317   5.624  1.1564  0.9421 -1.2500
  973MOL0     H31314   3.873   4.273   5.487  0.7912  0.3652 -0.3579
  973MOL0     H31315   4.204   4.094   5.321 -1.6557 -0.9130  0.3687
  973MOL0     H31316   4.410   4.208   5.230 -0.0836 -1.0310  0.7660
  973MOL0     H31317   4.836   4.292   5.348 -0.8978  0.7464  1.1248
  973MOL0     H31318   5.070   4.368   5.238 -0.0165  1.3887 -0.6405
  973MOL0     H31319   5.209   4.629   5.190  3.6324 -2.7872  2.2037
  973MOL0     H31320   5.250   4.465   5.139  1.2164  0.1344 -1.4284
  973MOL0     H31321   5.329   4.711   5.007 -2.0939  0.1922 -0.8388
  973MOL0     H31322   5.422   4.560   5.045 -0.0624 -0.3168  1.7837
  973MOL0     H31323   5.251   4.477   4.860  1.9570 -0.9684 -1.8461
  973MOL0     H31324   5.233   4.655   4.832  1.2174  0.5888  0.2897
  973MOL0     H31325   5.493   4.489   4.781 -0.8653 -0.5849 -1.4993
  973MOL0     H31326   5.494   4.664   4.814 -0.4419  0.4688  2.9290
  973MOL0     H31327   5.342   4.675   4.613  0.4950 -0.1309  0.4319
  973MOL0     H31328   5.352   4.501   4.591 -0.8575  0.6261 -0.6994
  973MOL0     H31329   5.625   4.578   4.620 -1.9880 -0.2382  1.3696
  973MOL0     H31330   5.538   4.494   4.489 -1.0546 -0.1956 -1.2319
  973MOL0     H31331   5.528   4.796   4.490 -1.1532 -0.3917 -1.1909
  973MOL0     H31332   5.499   4.683   4.365 -1.0804 -2.9104  1.7140
  973MOL0     H31333   5.778   4.744   4.451 -1.3695 -2.6866  3.3902
  973MOL0     H31334   5.713   4.613   4.338  1.7902 -0.8922  3.1746
  973MOL0     H31335   4.847   4.584   4.953 -0.2600 -0.6479 -1.1867
  973MOL0     H31336   4.622   4.498   5.055 -0.1799  0.2549  0.0454
  973MOL0     H31337   4.352   4.529   5.496  1.8890 -0.8905  1.9279
  973MOL0     H31338   4.153   4.436   5.581 -0.0906 -0.9240 -0.4911
  973MOL0     H31339   2.788   3.078   5.176 -1.8688 -1.8621 -0.2604
  973MOL0     H31340   2.579   3.039   5.039 -1.5783  0.5253 -1.6990
  973MOL0     H31341   2.113   3.229   5.068 -1.5946 -0.2548  0.6347
  973MOL0     H31342   1.891   3.204   5.018  2.3108  1.3068  1.1751
  973MOL0     H31343   1.675   3.164   4.951  3.8110 -0.7894  3.0883
  973MOL0     H31344   1.705   3.025   5.046 -0.4224  0.7536 -0.3270
  973MOL0     H31345   1.492   2.958   5.011 -0.6963  2.5283  0.5182
  973MOL0     H31346   1.554   2.882   4.869 -1.3529 -2.4078  4.5545
  973MOL0     H31347   1.492   3.098   4.738  1.7551  0.0074 -0.1343
  973MOL0     H31348   1.418   3.149   4.890  3.1935 -1.0303  2.0342
  973MOL0     H31349   1.256   3.064   4.720  2.9527  1.9861 -0.6493
  973MOL0     H31350   1.340   2.903   4.729  0.8531  2.6359 -3.0479
  973MOL0     H31351   1.051   2.985   5.055  1.3456  1.1080  0.6418
  973MOL0     H31352   1.968   2.950   4.694 -1.8170  2.3965  0.5365
  973MOL0     H31353   2.249   3.021   4.616  0.1196  0.4084  1.1709
  973MOL0     H31354   2.316   2.919   4.759 -1.7002 -2.1414  1.7543
  973MOL0     H31355   2.188   2.858   4.660  0.3345  0.2157 -3.0839
  974MOL0     O31356   0.256   4.206   9.094 -0.2322  0.3755 -0.0718
  974MOL0     C31357   0.326   4.126   9.158  0.1469  0.5953  0.0770
  974MOL0     O31358   0.277   4.036   9.248  0.4221 -0.2718  0.6427
  974MOL0     C31359   0.143   4.010   9.290  0.7038 -0.4005  0.5370
  974MOL0     C31360   0.026   4.025   9.209  0.5586  0.5806  1.1355
  974MOL0     C31361  -0.100   3.994   9.251  0.1533  1.4385  0.2612
  974MOL0     C31362  -0.126   3.952   9.384  0.2961 -0.4383 -0.3182
  974MOL0     O31363  -0.251   3.960   9.440  0.0254 -0.1037 -0.4369
  974MOL0     C31364  -0.378   3.991   9.370 -0.1033 -0.5110 -0.5916
  974MOL0     C31365  -0.498   4.003   9.465  0.5575 -1.2808  0.1229
  974MOL0     C31366  -0.620   4.035   9.383  1.1455  0.3828  0.2446
  974MOL0     C31367  -0.753   4.047   9.470  0.1135 -1.0002  0.1980
  974MOL0     C31368  -0.876   4.058   9.371  0.4869  0.4992 -0.2886
  974MOL0     C31369  -1.001   4.028   9.457 -0.5185  0.4246 -0.2179
  974MOL0     C31370  -1.118   3.990   9.366 -0.1350 -0.6783  0.2185
  974MOL0     C31371  -1.144   3.836   9.382  0.0571 -0.1530 -0.9671
  974MOL0     N31372  -1.026   3.762   9.326  0.3791 -0.0412 -0.1227
  974MOL0     C31373  -0.926   3.707   9.396 -0.0915 -0.3435 -0.0050
  974MOL0     C31374  -0.846   3.648   9.304 -0.3541  0.3903  0.8691
  974MOL0     C31375  -0.718   3.574   9.351 -0.5818 -0.0015  0.9837
  974MOL0     C31376  -0.604   3.618   9.257 -0.2757 -1.8205  0.1740
  974MOL0     C31377  -0.476   3.557   9.324 -0.6307  0.2764  0.2707
  974MOL0     C31378  -0.355   3.607   9.247 -0.2699  0.5047 -0.0739
  974MOL0     O31379  -0.346   3.547   9.113 -0.0601 -0.0650  0.7901
  974MOL0     C31380  -0.242   3.590   9.035  0.1072 -0.2237 -0.8865
  974MOL0     C31381  -0.138   3.667   9.076 -0.9263  0.6073 -0.1116
  974MOL0     C31382  -0.023   3.690   8.999  0.2350  0.5868  0.1884
  974MOL0     C31383  -0.018   3.638   8.864  0.1259 -0.2879  0.8102
  974MOL0     C31384   0.094   3.668   8.772  0.3896  0.2688  0.2160
  974MOL0     O31385   0.183   3.757   8.813 -0.2176  0.6007 -0.3166
  974MOL0     C31386   0.292   3.793   8.738 -0.7851 -0.3518 -0.1800
  974MOL0     C31387   0.304   3.790   8.594 -0.2246 -0.4877 -0.8841
  974MOL0     C31388   0.425   3.841   8.537  0.8892  0.0088  0.6143
  974MOL0     C31389   0.519   3.909   8.615 -0.2647 -0.0583 -0.6870
  974MOL0     O31390   0.630   3.954   8.538  0.6138 -0.1190  0.5892
  974MOL0     C31391   0.746   4.012   8.612 -0.0845 -0.7283 -0.4444
  974MOL0     C31392   0.854   4.078   8.540  0.0224 -0.1673 -0.5006
  974MOL0     C31393   0.819   4.170   8.426  0.6664 -0.2839  0.2511
  974MOL0     C31394   0.938   4.197   8.337 -0.3893 -0.2321  0.9969
  974MOL0     C31395   0.900   4.305   8.238  0.5483 -0.5291 -0.7949
  974MOL0     C31396   0.994   4.311   8.123 -0.3262  0.9876  0.3320
  974MOL0     C31397   0.985   4.443   8.042  0.0035 -0.1278  0.9741
  974MOL0     C31398   0.861   4.474   7.962  0.5377  0.2726  0.1417
  974MOL0    Cl31399   0.898   4.631   7.882 -0.5407 -0.0322  0.0342
  974MOL0     C31400   0.499   3.914   8.754  0.4315 -0.4398 -0.3943
  974MOL0     C31401   0.390   3.858   8.809  0.0861 -0.1998 -0.2580
  974MOL0     O31402   0.092   3.620   8.662 -0.1660  0.4866  0.5163
  974MOL0     C31403  -0.136   3.570   8.818  0.1002 -0.0729  0.0414
  974MOL0     C31404  -0.250   3.553   8.906  0.4407  0.6898 -0.1762
  974MOL0     N31405  -0.905   3.663   9.180  0.0654 -0.7040  0.4315
  974MOL0     N31406  -1.012   3.734   9.191  0.5920  0.9612 -0.0570
  974MOL0     C31407  -0.017   3.947   9.471 -0.1092  0.4623  0.1394
  974MOL0     C31408   0.118   3.971   9.426  0.6861 -0.4694 -0.1370
  974MOL0     C31409   0.481   4.115   9.130  0.3324  0.0359  0.5295
  974MOL0     C31410   0.530   3.983   9.160 -0.4293  0.0294 -0.2873
  974MOL0     C31411   0.666   3.956   9.131 -0.6266 -0.1731  0.3091
  974MOL0     C31412   0.747   4.054   9.079  0.6151 -1.0087  0.0089
  974MOL0     O31413   0.882   4.044   9.050  0.1037 -0.5374  0.2112
  974MOL0     C31414   0.949   3.917   9.048 -0.6365  0.1302  0.5800
  974MOL0     C31415   1.087   3.934   8.978 -0.6187 -0.0766  0.1062
  974MOL0     C31416   1.081   3.978   8.835 -0.8096 -0.1912  0.4026
  974MOL0     C31417   1.225   3.992   8.775  0.2112 -0.2528 -0.5550
  974MOL0     C31418   1.307   4.098   8.840 -1.0470  0.2729 -0.5624
  974MOL0     C31419   1.371   4.185   8.892 -0.3168 -1.1705 -0.3107
  974MOL0     C31420   0.695   4.179   9.043  0.3327 -0.2321 -0.0313
  974MOL0     C31421   0.565   4.209   9.066 -0.1134  0.7435 -0.0461
  974MOL0     C31422   0.513   4.340   9.032  0.1025 -1.0374 -0.6416
  974MOL0     H31423   0.040   4.057   9.107 -3.9997  1.7217  0.6509
  974MOL0     H31424  -0.182   4.000   9.180  0.6595  0.5356 -0.4214
  974MOL0     H31425  -0.358   4.078   9.308 -0.6554 -0.0493 -0.1355
  974MOL0     H31426  -0.397   3.903   9.308  3.7356 -1.8347 -0.2152
  974MOL0     H31427  -0.471   4.089   9.528 -3.2763 -0.7930  1.3776
  974MOL0     H31428  -0.512   3.905   9.511  1.8942 -2.1751 -1.2993
  974MOL0     H31429  -0.639   3.949   9.318  0.2885  0.3118  0.5806
  974MOL0     H31430  -0.605   4.132   9.333  0.8609  0.1826 -0.2337
  974MOL0     H31431  -0.758   3.952   9.524 -2.3591 -0.0087  1.8327
  974MOL0     H31432  -0.752   4.123   9.548 -0.5810 -1.1286  0.3326
  974MOL0     H31433  -0.885   4.158   9.328  4.6968  0.5548 -1.4874
  974MOL0     H31434  -0.868   3.985   9.291 -1.8285  0.3881 -0.4763
  974MOL0     H31435  -0.990   3.948   9.531 -0.4235 -0.4745 -1.1660
  974MOL0     H31436  -1.022   4.122   9.507 -0.0102  0.1017  0.6176
  974MOL0     H31437  -1.096   3.997   9.259  1.1825  0.3816  0.5271
  974MOL0     H31438  -1.206   4.051   9.386  0.9357  2.2739 -2.9353
  974MOL0     H31439  -1.153   3.817   9.489 -0.8825  1.6643 -0.6819
  974MOL0     H31440  -1.240   3.813   9.334  0.1897  0.8762 -1.7514
  974MOL0     H31441  -0.899   3.718   9.500 -2.5277  1.4846  0.5336
  974MOL0     H31442  -0.707   3.568   9.459  0.2457 -1.2922  0.8478
  974MOL0     H31443  -0.726   3.469   9.321  1.9847 -0.0199  0.1110
  974MOL0     H31444  -0.614   3.590   9.152 -1.0260 -0.4642 -0.1476
  974MOL0     H31445  -0.610   3.727   9.265 -2.7020 -1.9217  0.4559
  974MOL0     H31446  -0.478   3.447   9.331 -1.1249  0.3013  0.5637
  974MOL0     H31447  -0.468   3.595   9.426 -0.2347  1.6020 -0.2427
  974MOL0     H31448  -0.266   3.587   9.307  0.4566 -0.8194 -1.5143
  974MOL0     H31449  -0.363   3.715   9.233  0.1447  0.6970  1.0803
  974MOL0     H31450  -0.134   3.712   9.174 -0.0006 -2.0058  1.1595
  974MOL0     H31451   0.056   3.750   9.043  0.3994 -0.4642  1.3734
  974MOL0     H31452   0.219   3.758   8.535 -2.7932  0.9015  1.7881
  974MOL0     H31453   0.438   3.826   8.431  1.8785  0.1333  0.7080
  974MOL0     H31454   0.703   4.089   8.676 -0.4603  0.9460 -2.6007
  974MOL0     H31455   0.790   3.935   8.676  1.2169  2.4121  2.7929
  974MOL0     H31456   0.899   4.134   8.623 -2.7699  1.8620 -0.2387
  974MOL0     H31457   0.906   3.990   8.501 -3.0656 -1.7136 -1.4354
  974MOL0     H31458   0.741   4.118   8.369 -0.8457  0.6641  1.3763
  974MOL0     H31459   0.773   4.265   8.455  3.6435  1.0802  0.8265
  974MOL0     H31460   0.962   4.107   8.280  2.8618 -0.6400  2.7844
  974MOL0     H31461   1.037   4.221   8.378  0.1120  0.2992 -0.4514
  974MOL0     H31462   0.890   4.403   8.287  1.7334 -1.9381  2.5722
  974MOL0     H31463   0.802   4.286   8.193  0.2630  1.9157 -1.3907
  974MOL0     H31464   1.092   4.301   8.171 -0.6156 -3.7930  0.4380
  974MOL0     H31465   0.977   4.223   8.060 -0.3462  1.6349 -0.6004
  974MOL0     H31466   1.064   4.447   7.967  0.1556  1.9335  1.2049
  974MOL0     H31467   1.004   4.523   8.114  4.0026  2.3473 -2.3883
  974MOL0     H31468   0.829   4.394   7.895  1.2265  0.8216 -0.8607
  974MOL0     H31469   0.776   4.487   8.030 -0.0629 -2.7567  0.1191
  974MOL0     H31470   0.573   3.971   8.809 -0.9528  1.7297 -0.6416
  974MOL0     H31471   0.380   3.846   8.916 -0.2818 -2.2554 -0.4725
  974MOL0     H31472  -0.133   3.524   8.720  2.1503 -4.1042  1.7526
  974MOL0     H31473  -0.340   3.500   8.879 -0.0282  1.4599 -0.1585
  974MOL0     H31474  -0.034   3.919   9.575 -1.5311 -1.6647 -0.6034
  974MOL0     H31475   0.190   3.971   9.507  0.2848 -0.2955  0.2200
  974MOL0     H31476   0.472   3.901   9.199  0.1580 -0.7838 -1.0856
  974MOL0     H31477   0.710   3.860   9.152  0.5833  0.5823  1.4007
  974MOL0     H31478   0.886   3.846   8.994 -1.7859 -0.6174  2.7831
  974MOL0     H31479   0.955   3.882   9.152 -1.0176 -3.0261 -0.3738
  974MOL0     H31480   1.153   3.850   9.001 -0.3393 -0.0531 -0.5785
  974MOL0     H31481   1.131   4.019   9.031 -0.7518  0.3875 -0.5187
  974MOL0     H31482   1.039   4.077   8.850 -1.4551 -0.7022  2.2852
  974MOL0     H31483   1.016   3.911   8.779 -2.2092 -1.2677  3.1343
  974MOL0     H31484   1.274   3.895   8.786 -1.4846 -1.0165  0.7890
  974MOL0     H31485   1.211   4.016   8.669 -0.6370  1.8031 -0.0254
  974MOL0     H31486   1.426   4.257   8.950 -0.8117 -1.0470  0.0052
  974MOL0     H31487   0.758   4.252   8.993 -0.1854  0.3913  0.2169
  974MOL0     H31488   0.598   4.401   8.998  1.0799 -0.0606  3.0722
  974MOL0     H31489   0.445   4.334   8.948 -0.9031  3.1984 -0.3444
  974MOL0     H31490   0.463   4.395   9.112  1.8040 -2.1997  1.3525
  975MOL0     O31491   7.825   5.136  10.696  0.3299  0.7309  0.0247
  975MOL0     C31492   7.928   5.075  10.729  0.1020  0.4230  0.3913
  975MOL0     O31493   8.013   5.121  10.823  0.2610  0.8671 -0.1677
  975MOL0     C31494   7.997   5.255  10.859 -0.3912 -0.1877  0.1731
  975MOL0     C31495   7.901   5.288  10.961  0.4189 -0.2430 -0.6598
  975MOL0     C31496   7.875   5.421  11.004 -0.6776  0.0038 -0.6836
  975MOL0     C31497   7.939   5.522  10.947 -0.5165 -0.6590 -0.4213
  975MOL0     O31498   7.919   5.650  10.993  0.6208 -0.5283  0.5184
  975MOL0     C31499   7.848   5.744  10.906  0.9577 -0.8003 -0.3841
  975MOL0     C31500   7.799   5.867  10.986  0.1792 -0.7797 -0.2801
  975MOL0     C31501   7.669   5.939  10.946 -0.7442 -0.8247 -0.2493
  975MOL0     C31502   7.656   6.074  11.026 -0.9549 -0.0050 -0.3659
  975MOL0     C31503   7.529   6.156  10.987  0.8504  0.0334  0.7504
  975MOL0     C31504   7.393   6.080  11.013 -0.9833 -0.1735  0.0229
  975MOL0     C31505   7.278   6.171  10.968  0.5122 -0.2188 -0.3619
  975MOL0     C31506   7.277   6.231  10.827  0.5948  0.5706  0.6383
  975MOL0     N31507   7.286   6.117  10.732  0.7160  0.1755  0.5659
  975MOL0     C31508   7.395   6.061  10.669  0.7917 -0.4358  0.2487
  975MOL0     C31509   7.340   6.011  10.556 -0.4774  0.8818 -0.6375
  975MOL0     C31510   7.417   5.949  10.445  0.8033 -0.3179 -0.0197
  975MOL0     C31511   7.502   6.067  10.382  0.3153 -0.1533 -1.0763
  975MOL0     C31512   7.636   6.090  10.465  0.1648 -0.5412  0.9487
  975MOL0     C31513   7.714   5.966  10.506  0.2874 -0.3655  0.9768
  975MOL0     O31514   7.817   6.010  10.591 -0.2821  0.2695  0.6705
  975MOL0     C31515   7.940   5.951  10.597 -0.3249  0.3383  0.4201
  975MOL0     C31516   8.033   6.008  10.683  0.2897  0.4589  1.0470
  975MOL0     C31517   8.154   5.945  10.699 -0.5463  0.4792  0.4439
  975MOL0     C31518   8.199   5.832  10.630  0.9922  0.2693  0.2939
  975MOL0     C31519   8.332   5.782  10.632  0.5675  0.0346 -0.1354
  975MOL0     O31520   8.355   5.678  10.554  0.9017  0.4621  0.3574
  975MOL0     C31521   8.484   5.647  10.528 -0.4775  0.6411  0.6579
  975MOL0     C31522   8.559   5.567  10.613 -0.8965  0.0151 -0.3091
  975MOL0     C31523   8.684   5.512  10.570 -1.0912 -0.0413  0.1988
  975MOL0     C31524   8.739   5.552  10.447  0.2718  0.9110  0.1397
  975MOL0     O31525   8.858   5.498  10.419 -0.0557  0.2435  0.6977
  975MOL0     C31526   8.914   5.487  10.284  0.9830 -0.4902 -0.7787
  975MOL0     C31527   9.065   5.493  10.282 -0.3671  0.0766  0.3300
  975MOL0     C31528   9.133   5.368  10.347  0.6146  0.4498 -0.5451
  975MOL0     C31529   9.283   5.371  10.361 -0.3465  0.0385 -0.6207
  975MOL0     C31530   9.329   5.271  10.454 -0.3909  0.4163 -0.2045
  975MOL0     C31531   9.472   5.299  10.494  0.6470 -0.0801 -0.2472
  975MOL0     C31532   9.519   5.219  10.604  0.2262  0.1946  0.0406
  975MOL0     C31533   9.628   5.280  10.699 -0.2504  0.0204  0.2927
  975MOL0    Cl31534   9.710   5.186  10.830  0.1289 -0.0436 -0.0766
  975MOL0     C31535   8.668   5.642  10.367  0.1889 -0.1914  0.9490
  975MOL0     C31536   8.538   5.696  10.411 -0.9218  0.0100  1.0361
  975MOL0     O31537   8.415   5.850  10.685 -0.7142 -0.0132 -0.3176
  975MOL0     C31538   8.102   5.775  10.546 -0.3945  0.2923 -0.3374
  975MOL0     C31539   7.972   5.834  10.535 -0.3616  0.8177 -1.0298
  975MOL0     N31540   7.205   6.008  10.557 -0.7683  0.3355  0.1784
  975MOL0     N31541   7.177   6.076  10.663 -0.1213 -0.7170  0.8338
  975MOL0     C31542   8.022   5.493  10.838 -0.3271  0.7126  1.1722
  975MOL0     C31543   8.059   5.360  10.793  0.2256 -0.2138 -0.6734
  975MOL0     C31544   7.971   4.943  10.656  0.0263  0.7591  0.6179
  975MOL0     C31545   8.098   4.885  10.697 -0.8249 -0.3153  0.3093
  975MOL0     C31546   8.151   4.770  10.640 -0.0460  0.6482 -0.0162
  975MOL0     C31547   8.078   4.704  10.540  0.5249 -0.3306 -0.5748
  975MOL0     O31548   8.118   4.591  10.467 -0.5408 -1.0738  0.1433
  975MOL0     C31549   8.249   4.538  10.496 -0.0260  0.1417  0.4077
  975MOL0     C31550   8.280   4.431  10.399  0.3408 -1.1273 -0.8880
  975MOL0     C31551   8.354   4.493  10.282  0.5115  0.5498 -0.1727
  975MOL0     C31552   8.381   4.386  10.168  0.0102  0.0055  0.2668
  975MOL0     C31553   8.255   4.324  10.128 -0.0690 -0.2170  1.0283
  975MOL0     C31554   8.155   4.275  10.079  0.0699 -0.1858 -0.6381
  975MOL0     C31555   7.955   4.757  10.500  0.4124  0.4376 -0.0051
  975MOL0     C31556   7.901   4.878  10.554 -0.6600  0.7289 -0.5273
  975MOL0     C31557   7.770   4.934  10.493 -0.4333  0.4776 -0.5236
  975MOL0     H31558   7.841   5.204  10.997 -1.4181  1.1531 -0.3293
  975MOL0     H31559   7.806   5.440  11.086  0.9364  0.7783  0.5480
  975MOL0     H31560   7.921   5.782  10.834 -0.1213 -1.1248 -1.6927
  975MOL0     H31561   7.756   5.701  10.866  1.7110 -0.4115 -2.7108
  975MOL0     H31562   7.882   5.937  10.998  0.9555 -1.7750  0.2537
  975MOL0     H31563   7.774   5.833  11.087 -0.3893  0.4423  0.0095
  975MOL0     H31564   7.584   5.871  10.956  0.3177 -2.0550  0.8618
  975MOL0     H31565   7.687   5.962  10.841  2.4119  0.8064  0.5190
  975MOL0     H31566   7.659   6.056  11.134 -1.0410 -1.8989 -0.6439
  975MOL0     H31567   7.748   6.132  11.016 -0.5987 -0.9043 -3.1224
  975MOL0     H31568   7.532   6.249  11.045  1.0244  1.2585 -1.1542
  975MOL0     H31569   7.529   6.186  10.882  0.9750 -0.7413  0.5245
  975MOL0     H31570   7.394   5.983  10.963  0.0766  0.8219 -2.0210
  975MOL0     H31571   7.378   6.061  11.119 -0.4179 -1.7492 -0.1532
  975MOL0     H31572   7.281   6.263  11.029  2.2881 -0.0722 -0.6279
  975MOL0     H31573   7.186   6.115  10.987  2.2249 -2.4288  2.0946
  975MOL0     H31574   7.183   6.281  10.800  1.4904  2.8044  1.3603
  975MOL0     H31575   7.362   6.295  10.800 -1.7153  2.9198 -1.6538
  975MOL0     H31576   7.498   6.070  10.703  0.3947  0.6703  1.2184
  975MOL0     H31577   7.471   5.859  10.475 -0.6694 -1.0440  0.5854
  975MOL0     H31578   7.352   5.913  10.365  0.4883 -0.2748  0.2140
  975MOL0     H31579   7.541   6.042  10.283 -0.0045  0.9375 -1.4954
  975MOL0     H31580   7.443   6.158  10.360  2.3452  1.3745 -0.4604
  975MOL0     H31581   7.618   6.143  10.559  1.1090  0.0163  0.8338
  975MOL0     H31582   7.712   6.153  10.417  1.9508 -0.6920  3.3591
  975MOL0     H31583   7.735   5.916  10.410  0.4236  0.6298  0.4770
  975MOL0     H31584   7.647   5.901  10.564  0.2975 -1.5881 -0.3073
  975MOL0     H31585   8.011   6.099  10.738  0.7504  0.2458  1.5970
  975MOL0     H31586   8.234   5.983  10.761  1.1287 -1.0935 -0.6398
  975MOL0     H31587   8.520   5.547  10.713 -0.0013  0.3160  0.1106
  975MOL0     H31588   8.756   5.456  10.629 -1.2482 -2.5141 -1.7883
  975MOL0     H31589   8.885   5.386  10.254  0.9853 -1.2284  1.5328
  975MOL0     H31590   8.877   5.573  10.227 -1.4873  0.7092  2.3675
  975MOL0     H31591   9.104   5.489  10.179  0.1943 -1.3864  0.5741
  975MOL0     H31592   9.084   5.590  10.329 -1.6220 -0.3342  1.7508
  975MOL0     H31593   9.100   5.370  10.451 -1.4716 -0.0648 -1.1512
  975MOL0     H31594   9.103   5.278  10.294 -3.3424 -0.3035  2.5677
  975MOL0     H31595   9.317   5.471  10.389  1.0252 -0.4904 -0.3442
  975MOL0     H31596   9.322   5.358  10.259  1.5603  0.3346  0.0395
  975MOL0     H31597   9.326   5.171  10.411 -1.0090  0.8912 -1.3041
  975MOL0     H31598   9.269   5.276  10.545 -0.9359 -0.9191 -0.4701
  975MOL0     H31599   9.533   5.282  10.405 -1.1944  2.2036 -2.0684
  975MOL0     H31600   9.485   5.406  10.515 -0.6544  0.0348  0.0359
  975MOL0     H31601   9.555   5.127  10.557  0.1834 -0.4393  1.2089
  975MOL0     H31602   9.436   5.197  10.673 -2.3893  3.0021 -1.9246
  975MOL0     H31603   9.715   5.306  10.637  1.2505  1.4793  2.8191
  975MOL0     H31604   9.592   5.376  10.737 -1.6042  1.8422 -4.8118
  975MOL0     H31605   8.696   5.676  10.268  1.6022 -1.0107  1.0386
  975MOL0     H31606   8.483   5.766  10.349 -3.2594 -1.6275  1.1283
  975MOL0     H31607   8.126   5.685  10.490  0.5913 -0.3905  1.1140
  975MOL0     H31608   7.901   5.775  10.476 -0.5535 -0.2882  0.2526
  975MOL0     H31609   8.080   5.574  10.795  0.1373  0.7212  1.8090
  975MOL0     H31610   8.139   5.355  10.720 -0.1794  2.4398 -1.4049
  975MOL0     H31611   8.160   4.924  10.777  0.6933 -1.3665 -0.3053
  975MOL0     H31612   8.247   4.739  10.677  1.7224  3.0152 -2.1927
  975MOL0     H31613   8.261   4.499  10.598  2.5803 -3.1508 -0.9668
  975MOL0     H31614   8.317   4.624  10.488 -1.7992  1.5116 -0.7598
  975MOL0     H31615   8.186   4.384  10.370 -1.6428  3.2525 -2.4963
  975MOL0     H31616   8.333   4.350  10.450  0.9508 -0.7144 -0.8457
  975MOL0     H31617   8.455   4.509  10.322 -0.7667  0.8558  3.2599
  975MOL0     H31618   8.308   4.582  10.237 -0.0886  2.0276  3.0753
  975MOL0     H31619   8.418   4.447  10.086 -2.1570  2.9903  1.3064
  975MOL0     H31620   8.454   4.307  10.186 -0.1839 -0.8492 -2.2441
  975MOL0     H31621   8.069   4.227  10.035  0.9020  0.2810 -2.9348
  975MOL0     H31622   7.893   4.717  10.421  0.6920 -0.4787  0.2224
  975MOL0     H31623   7.786   5.030  10.442 -1.2095 -0.9634 -3.7397
  975MOL0     H31624   7.717   4.869  10.423 -1.8489 -0.4955  1.3530
  975MOL0     H31625   7.686   4.943  10.562 -1.9102 -4.3330 -1.3376
  976MOL0     O31626  11.137   4.553   0.218 -0.1996  0.7298 -0.5724
  976MOL0     C31627  11.164   4.450   0.155  0.3850  0.0167  0.4121
  976MOL0     O31628  11.275   4.424   0.091 -0.2136 -0.1111 -0.1612
  976MOL0     C31629  11.394   4.498   0.119  0.5162  0.3988 -0.5665
  976MOL0     C31630  11.451   4.503   0.245 -0.6447  0.8793  0.1540
  976MOL0     C31631  11.570   4.572   0.258 -0.4537 -1.3156  0.9206
  976MOL0     C31632  11.639   4.637   0.151 -0.3928 -0.1939 -0.5327
  976MOL0     O31633  11.760   4.694   0.164 -0.0916 -0.5157 -0.1776
  976MOL0     C31634  11.850   4.679   0.051 -0.0564 -0.5148 -0.9442
  976MOL0     C31635  11.987   4.708   0.097 -0.1372 -0.4768 -0.1483
  976MOL0     C31636  12.075   4.654  -0.013 -0.3390 -0.1451  0.1322
  976MOL0     C31637  12.218   4.684   0.020 -0.4075  0.1580 -0.4086
  976MOL0     C31638  12.318   4.653  -0.087 -0.4030 -0.0078 -0.4567
  976MOL0     C31639  12.462   4.627  -0.035  0.8564 -1.0363 -0.2133
  976MOL0     C31640  12.573   4.655  -0.138 -0.3444  0.6791 -0.6905
  976MOL0     C31641  12.599   4.540  -0.241  0.8006  0.2043 -0.1217
  976MOL0     N31642  12.481   4.512  -0.322  0.6652 -0.2455 -0.1072
  976MOL0     C31643  12.405   4.589  -0.415 -0.3200  0.3017 -1.3043
  976MOL0     C31644  12.316   4.501  -0.463  1.2217 -0.3774  1.4888
  976MOL0     C31645  12.226   4.527  -0.580  0.5344  0.7596  0.0579
  976MOL0     C31646  12.130   4.644  -0.560 -0.3466  0.0581  0.5936
  976MOL0     C31647  12.018   4.635  -0.454  0.5120 -0.1204  0.2851
  976MOL0     C31648  11.926   4.519  -0.480 -1.1819 -0.5474 -0.8146
  976MOL0     O31649  11.791   4.530  -0.426  0.6879 -0.5793 -0.4061
  976MOL0     C31650  11.727   4.408  -0.417  0.5284 -0.2650  0.2115
  976MOL0     C31651  11.769   4.286  -0.450 -0.6841 -0.5717  1.2822
  976MOL0     C31652  11.689   4.179  -0.432  0.5149  0.2375  0.7349
  976MOL0     C31653  11.559   4.182  -0.386 -0.0655  0.2156 -0.2859
  976MOL0     C31654  11.483   4.068  -0.341  0.4910  0.1394 -0.1538
  976MOL0     O31655  11.350   4.090  -0.328 -0.2047 -0.0003  0.0733
  976MOL0     C31656  11.255   4.006  -0.287 -0.7884 -0.4766 -0.3090
  976MOL0     C31657  11.283   3.891  -0.217  0.2226 -0.0570 -0.2046
  976MOL0     C31658  11.180   3.805  -0.175 -0.4382  0.4393 -0.1647
  976MOL0     C31659  11.048   3.835  -0.195  1.3327 -0.7696  0.3177
  976MOL0     O31660  10.950   3.747  -0.161 -0.2043 -0.9987 -0.1559
  976MOL0     C31661  10.816   3.768  -0.208 -0.2636 -0.5503  0.0807
  976MOL0     C31662  10.741   3.647  -0.169 -0.2097 -0.3669  1.1552
  976MOL0     C31663  10.597   3.654  -0.223 -0.8092 -0.3579 -0.2970
  976MOL0     C31664  10.542   3.515  -0.279 -0.1476  0.0660 -0.1085
  976MOL0     C31665  10.390   3.510  -0.291 -0.4763 -0.8607  0.3322
  976MOL0     C31666  10.313   3.529  -0.424 -0.4417  0.2618  0.1285
  976MOL0     C31667  10.157   3.522  -0.409  0.6225  0.5890 -0.1335
  976MOL0     C31668  10.084   3.639  -0.333 -0.6389 -0.1099  0.2068
  976MOL0    Cl31669  10.111   3.781  -0.441  0.3743 -0.5371 -0.1171
  976MOL0     C31670  11.020   3.965  -0.248  0.2843  0.4940 -0.1402
  976MOL0     C31671  11.123   4.046  -0.293 -0.1241 -0.2825  0.8286
  976MOL0     O31672  11.543   3.959  -0.325 -0.0702 -0.2491 -0.5191
  976MOL0     C31673  11.504   4.311  -0.357  0.3840  0.1764 -0.6725
  976MOL0     C31674  11.593   4.417  -0.373  0.1273  0.1950 -0.6574
  976MOL0     N31675  12.321   4.381  -0.397  0.1465 -0.6419  0.5994
  976MOL0     N31676  12.422   4.394  -0.316  0.2777 -0.5094 -0.6515
  976MOL0     C31677  11.581   4.632   0.028  0.5560 -0.0570 -0.5459
  976MOL0     C31678  11.456   4.563   0.012 -0.4082  0.2572 -0.3135
  976MOL0     C31679  11.055   4.362   0.128  0.3590  0.2477 -1.1062
  976MOL0     C31680  11.034   4.328  -0.006  0.4826  0.0408 -0.0722
  976MOL0     C31681  10.918   4.266  -0.047 -0.0673 -0.1525  0.8807
  976MOL0     C31682  10.827   4.224   0.047 -0.7255  0.5640 -0.2311
  976MOL0     O31683  10.715   4.156   0.003  0.7709  0.3326  0.8438
  976MOL0     C31684  10.635   4.094   0.104  0.8222 -0.5512  0.8816
  976MOL0     C31685  10.516   4.033   0.027 -0.9118 -0.2147  0.4678
  976MOL0     C31686  10.414   3.960   0.122 -0.6251  0.3496 -0.7456
  976MOL0     C31687  10.318   3.863   0.054 -0.2375 -0.1695  0.3887
  976MOL0     C31688  10.245   3.922  -0.055 -0.1474  0.5549  0.2117
  976MOL0     C31689  10.178   3.984  -0.142  0.1410  0.5826 -0.3482
  976MOL0     C31690  10.861   4.244   0.180  0.1662 -0.1015 -0.1578
  976MOL0     C31691  10.974   4.306   0.221 -0.7153 -0.4931 -0.7486
  976MOL0     C31692  11.002   4.319   0.371 -0.5650  0.2965  0.4285
  976MOL0     H31693  11.410   4.438   0.321  0.8054  3.7172  3.6137
  976MOL0     H31694  11.604   4.582   0.361  3.6700 -0.3805 -0.3637
  976MOL0     H31695  11.835   4.577   0.015  1.0762 -0.2598 -2.2467
  976MOL0     H31696  11.825   4.746  -0.032  3.4443  2.6682  0.2985
  976MOL0     H31697  11.997   4.661   0.196  0.3984 -0.8147 -0.3586
  976MOL0     H31698  12.006   4.816   0.100  0.9403 -0.6455 -0.6061
  976MOL0     H31699  12.060   4.698  -0.112 -1.6026 -0.0302  0.3689
  976MOL0     H31700  12.073   4.545  -0.026  1.6912 -0.2364  0.2009
  976MOL0     H31701  12.235   4.787   0.053 -2.4001 -0.0014  1.2741
  976MOL0     H31702  12.247   4.629   0.110 -0.5397  2.1406  0.9143
  976MOL0     H31703  12.298   4.573  -0.159  1.3258 -1.7204  0.8349
  976MOL0     H31704  12.319   4.744  -0.148  2.2905  0.9756  0.8575
  976MOL0     H31705  12.479   4.690   0.053 -0.3160  1.4165 -1.6433
  976MOL0     H31706  12.476   4.524  -0.002  1.4156 -1.5498 -1.9792
  976MOL0     H31707  12.664   4.684  -0.084  0.9741  0.8940 -2.9012
  976MOL0     H31708  12.542   4.742  -0.197 -0.0998  1.2771  0.0504
  976MOL0     H31709  12.683   4.569  -0.305 -0.4708 -1.0353 -2.4840
  976MOL0     H31710  12.617   4.446  -0.187 -2.8905 -0.8084 -0.4184
  976MOL0     H31711  12.411   4.694  -0.439  0.8298  0.6763  0.4174
  976MOL0     H31712  12.293   4.556  -0.661 -0.0860 -0.1829 -0.8072
  976MOL0     H31713  12.181   4.433  -0.614  4.7759 -0.4379 -3.1267
  976MOL0     H31714  12.201   4.724  -0.538  0.5393 -0.3395 -0.6955
  976MOL0     H31715  12.094   4.665  -0.661 -1.1203  0.2146  0.8943
  976MOL0     H31716  11.963   4.729  -0.443 -0.2749 -0.1585 -2.5153
  976MOL0     H31717  12.062   4.604  -0.359  1.3240  0.6801  0.1825
  976MOL0     H31718  11.987   4.439  -0.437 -1.8866  0.5768  2.6367
  976MOL0     H31719  11.913   4.505  -0.587  1.0819  1.0255 -1.3666
  976MOL0     H31720  11.865   4.264  -0.496 -1.1731 -0.2148  0.0551
  976MOL0     H31721  11.735   4.081  -0.447 -1.8318 -0.6992 -1.0072
  976MOL0     H31722  11.383   3.857  -0.193  1.7094  3.7230 -0.2306
  976MOL0     H31723  11.199   3.711  -0.125  0.9147  1.9603  2.4363
  976MOL0     H31724  10.771   3.857  -0.163 -1.0855 -1.0150  0.2134
  976MOL0     H31725  10.829   3.768  -0.317  3.5506 -0.7506  0.4123
  976MOL0     H31726  10.793   3.566  -0.221 -0.8094  0.5060 -0.9056
  976MOL0     H31727  10.744   3.629  -0.062  0.0220  0.3582  1.2758
  976MOL0     H31728  10.529   3.688  -0.144  1.4434  0.9417  1.1711
  976MOL0     H31729  10.599   3.720  -0.310 -1.1981 -0.1725 -0.1697
  976MOL0     H31730  10.588   3.435  -0.221  1.5846  0.6220 -0.6667
  976MOL0     H31731  10.591   3.510  -0.377  2.6089 -1.4415  1.2387
  976MOL0     H31732  10.352   3.581  -0.217  1.0872  0.6761 -0.2764
  976MOL0     H31733  10.345   3.421  -0.246 -2.3092 -0.5037 -0.6495
  976MOL0     H31734  10.339   3.628  -0.464  2.5131 -1.1432 -1.8455
  976MOL0     H31735  10.360   3.461  -0.495 -0.0165 -0.3069  0.9485
  976MOL0     H31736  10.115   3.432  -0.364  1.0303  1.2636  1.6869
  976MOL0     H31737  10.136   3.512  -0.516 -1.3514  1.8818  0.0737
  976MOL0     H31738   9.977   3.621  -0.323 -0.6287  1.0063  6.3790
  976MOL0     H31739  10.120   3.657  -0.231  1.5286 -0.7386 -0.3970
  976MOL0     H31740  10.920   4.004  -0.262  1.1850  3.0206 -0.2077
  976MOL0     H31741  11.103   4.144  -0.334  1.9186  0.7402  2.1455
  976MOL0     H31742  11.405   4.332  -0.319 -0.3098 -0.9475 -1.7597
  976MOL0     H31743  11.552   4.515  -0.349 -0.9621 -1.1721  4.0892
  976MOL0     H31744  11.620   4.678  -0.062 -0.6043  0.8500 -0.6043
  976MOL0     H31745  11.413   4.569  -0.087 -2.0205 -1.3169  0.2367
  976MOL0     H31746  11.105   4.358  -0.083  0.1587 -1.6801 -1.1065
  976MOL0     H31747  10.893   4.257  -0.153 -2.6280  0.7936  1.3180
  976MOL0     H31748  10.594   4.171   0.171  2.8867  1.4018  0.0114
  976MOL0     H31749  10.690   4.020   0.162  1.1878 -1.2183 -0.2892
  976MOL0     H31750  10.560   3.957  -0.039  1.3368 -0.4267  2.1053
  976MOL0     H31751  10.465   4.110  -0.032  0.5429 -0.6132 -1.3921
  976MOL0     H31752  10.351   4.034   0.173  3.2373  2.0564  2.0764
  976MOL0     H31753  10.475   3.904   0.193 -0.8752 -1.4701 -1.8911
  976MOL0     H31754  10.379   3.785   0.008 -1.6522 -0.0438 -1.8245
  976MOL0     H31755  10.244   3.828   0.127  0.1963  1.6329  1.7796
  976MOL0     H31756  10.129   4.045  -0.215  2.0555  1.7097 -0.7568
  976MOL0     H31757  10.810   4.201   0.266  1.4270  0.8741  1.1374
  976MOL0     H31758  11.080   4.247   0.401  1.0176  2.4295  1.7074
  976MOL0     H31759  11.053   4.412   0.397  0.5854 -0.6287  1.7081
  976MOL0     H31760  10.923   4.302   0.445 -0.7569  1.3669  0.4809
  977MOL0     O31761  11.239   3.829   0.887 -0.0880 -0.3860 -0.4292
  977MOL0     C31762  11.297   3.787   0.786  0.4672  0.1735 -0.5495
  977MOL0     O31763  11.303   3.654   0.746  0.2883 -0.1674 -0.2130
  977MOL0     C31764  11.220   3.552   0.796 -1.2736  0.5807  0.8657
  977MOL0     C31765  11.279   3.447   0.871 -0.0959 -1.7863  0.4671
  977MOL0     C31766  11.197   3.350   0.925  1.3046  0.9147  0.3432
  977MOL0     C31767  11.059   3.354   0.908  0.0228  0.1794  0.2754
  977MOL0     O31768  10.988   3.247   0.953 -0.0985 -0.3764 -0.3097
  977MOL0     C31769  10.862   3.221   0.904  0.5832 -0.4443  0.6974
  977MOL0     C31770  10.800   3.093   0.963 -0.2665  1.1167 -0.3737
  977MOL0     C31771  10.783   3.112   1.110  0.2679 -0.3173 -0.4100
  977MOL0     C31772  10.728   2.995   1.171 -0.4201  1.1101 -0.2047
  977MOL0     C31773  10.763   2.974   1.321  0.7889 -0.5890  0.0437
  977MOL0     C31774  10.651   2.881   1.388 -0.8331 -0.2475 -0.0618
  977MOL0     C31775  10.642   2.747   1.324  0.0684  1.5057 -0.5379
  977MOL0     C31776  10.759   2.662   1.347 -0.8759 -0.5291  0.0916
  977MOL0     N31777  10.741   2.524   1.300  0.0938 -0.0858 -0.0362
  977MOL0     C31778  10.688   2.418   1.365  0.0377 -0.1147  0.3339
  977MOL0     C31779  10.714   2.314   1.279  1.1919  0.0638  0.2112
  977MOL0     C31780  10.678   2.170   1.293  0.2608 -0.2812  0.7650
  977MOL0     C31781  10.707   2.128   1.444 -0.1512 -0.0267  0.5632
  977MOL0     C31782  10.690   1.974   1.457  0.4516  0.6795 -0.4640
  977MOL0     C31783  10.733   1.927   1.601  0.1803 -0.5948 -0.1441
  977MOL0     O31784  10.755   1.785   1.604 -0.1931  0.9510  0.9442
  977MOL0     C31785  10.662   1.695   1.652 -0.4299 -0.3586  0.9518
  977MOL0     C31786  10.577   1.720   1.761  0.4902 -0.1198  0.1627
  977MOL0     C31787  10.496   1.622   1.811 -0.3015  0.3373 -0.7135
  977MOL0     C31788  10.491   1.502   1.749 -0.6592 -0.6698 -0.5232
  977MOL0     C31789  10.403   1.401   1.805  0.4882  0.4994 -0.8999
  977MOL0     O31790  10.376   1.290   1.731 -0.1757 -0.1042  0.2596
  977MOL0     C31791  10.276   1.206   1.759 -0.2944 -0.0568 -0.2946
  977MOL0     C31792  10.166   1.223   1.680  0.3833 -0.0818 -0.1968
  977MOL0     C31793  10.052   1.141   1.701 -0.1877 -0.6028  0.0721
  977MOL0     C31794  10.066   1.031   1.787  0.4199  0.8210 -0.3528
  977MOL0     O31795   9.943   0.964   1.815  0.5048 -0.3400  0.5200
  977MOL0     C31796   9.938   0.849   1.896 -1.2607  0.6812  0.3818
  977MOL0     C31797   9.801   0.825   1.952  0.0962  0.0151  0.0753
  977MOL0     C31798   9.798   0.744   2.070  0.7960  0.6582 -0.6910
  977MOL0     C31799   9.866   0.615   2.057 -0.0759 -0.1734 -0.6135
  977MOL0     C31800   9.839   0.533   2.182  0.5314  0.0394 -0.0465
  977MOL0     C31801   9.915   0.396   2.176 -0.1500 -0.1568 -0.5930
  977MOL0     C31802   9.855   0.292   2.258 -0.4661  0.4020  0.0207
  977MOL0     C31803   9.941   0.164   2.267 -0.6398  0.5552  0.3933
  977MOL0    Cl31804   9.872   0.061   2.403  0.5232 -0.0021 -0.4610
  977MOL0     C31805  10.182   0.999   1.853  0.3219 -0.2360 -0.3745
  977MOL0     C31806  10.286   1.094   1.843  0.3305  0.5048 -0.0941
  977MOL0     O31807  10.349   1.433   1.912  0.7388 -0.2900 -0.3637
  977MOL0     C31808  10.574   1.474   1.647 -0.1504 -0.2214  0.2406
  977MOL0     C31809  10.661   1.574   1.593 -0.0755 -0.9469  0.2511
  977MOL0     N31810  10.779   2.355   1.161 -0.8658 -0.7676 -0.5255
  977MOL0     N31811  10.803   2.479   1.184 -0.5973 -0.1875 -0.0325
  977MOL0     C31812  11.005   3.466   0.844  0.1500  0.3490  0.2753
  977MOL0     C31813  11.086   3.561   0.791 -0.0779 -0.1270 -0.1326
  977MOL0     C31814  11.386   3.889   0.724 -0.5419  0.0822 -0.0149
  977MOL0     C31815  11.502   3.831   0.660  0.6558 -0.7655  0.2276
  977MOL0     C31816  11.583   3.920   0.584 -0.9305  0.1740  0.3118
  977MOL0     C31817  11.558   4.060   0.567 -0.5487  0.3555 -0.9968
  977MOL0     O31818  11.622   4.148   0.489 -0.4599 -0.2440  0.1402
  977MOL0     C31819  11.750   4.118   0.426  0.6804  0.2284 -0.1049
  977MOL0     C31820  11.870   4.155   0.512 -0.3384 -0.4561 -1.3298
  977MOL0     C31821  11.881   4.298   0.562 -1.0629 -0.5598 -0.1998
  977MOL0     C31822  11.904   4.405   0.457  0.9551  0.3247  0.6260
  977MOL0     C31823  12.009   4.393   0.357 -0.7287  0.3923  0.1970
  977MOL0     C31824  12.094   4.413   0.273 -0.3303 -0.7100 -0.1229
  977MOL0     C31825  11.457   4.114   0.646 -0.4082 -0.5288 -0.7963
  977MOL0     C31826  11.368   4.029   0.721 -0.0279 -0.0570  0.9577
  977MOL0     C31827  11.256   4.105   0.793 -0.8705 -0.0969 -0.0145
  977MOL0     H31828  11.387   3.458   0.883 -0.1913 -1.8501  1.4760
  977MOL0     H31829  11.245   3.266   0.975 -1.1706  0.3239  1.9232
  977MOL0     H31830  10.799   3.304   0.937  0.7027  0.0081 -0.1803
  977MOL0     H31831  10.852   3.206   0.796 -0.9490 -4.5980  1.2181
  977MOL0     H31832  10.862   3.007   0.934 -0.6921  0.6102  0.1874
  977MOL0     H31833  10.702   3.077   0.917 -0.7396  1.9905  0.2995
  977MOL0     H31834  10.715   3.196   1.125 -1.7027 -1.8102 -0.6825
  977MOL0     H31835  10.882   3.126   1.156 -0.8295  4.4782  1.0580
  977MOL0     H31836  10.620   2.981   1.160 -0.1300  0.6088 -3.2253
  977MOL0     H31837  10.778   2.916   1.114 -1.7774 -0.2163  0.3847
  977MOL0     H31838  10.864   2.934   1.336  0.1896 -1.3744  2.5275
  977MOL0     H31839  10.768   3.077   1.358  1.4933 -0.1994 -1.0877
  977MOL0     H31840  10.673   2.872   1.495  2.0798 -0.9725 -0.6341
  977MOL0     H31841  10.553   2.928   1.380  1.0246  4.5098  1.4452
  977MOL0     H31842  10.620   2.749   1.217  1.6645  0.5557 -0.9327
  977MOL0     H31843  10.567   2.690   1.379  0.7630  2.4148  1.4520
  977MOL0     H31844  10.835   2.709   1.283 -0.2854 -2.2541 -0.5232
  977MOL0     H31845  10.785   2.651   1.452  0.7982 -1.7007 -0.4138
  977MOL0     H31846  10.628   2.403   1.455 -1.2621  4.5498  0.5072
  977MOL0     H31847  10.575   2.156   1.259  1.3231 -0.2368 -2.8958
  977MOL0     H31848  10.746   2.123   1.221  2.8855  0.2074  2.7629
  977MOL0     H31849  10.810   2.147   1.477  1.0764 -2.8821 -1.2509
  977MOL0     H31850  10.631   2.181   1.501  0.0591  0.5895  0.2751
  977MOL0     H31851  10.744   1.909   1.387 -0.2642  0.0684 -0.4584
  977MOL0     H31852  10.583   1.959   1.444 -0.0844  2.8085  0.9893
  977MOL0     H31853  10.658   1.957   1.675  2.5678  0.1124  2.1371
  977MOL0     H31854  10.829   1.974   1.625 -1.0273  2.2926 -0.5567
  977MOL0     H31855  10.562   1.815   1.811 -2.9877  0.7440 -2.1605
  977MOL0     H31856  10.441   1.648   1.901  3.2149 -0.2058  1.7952
  977MOL0     H31857  10.165   1.303   1.606 -1.1281  1.3739  1.3017
  977MOL0     H31858   9.961   1.171   1.651  1.1282  0.7553 -1.6753
  977MOL0     H31859   9.974   0.765   1.837 -1.1416  1.4505 -0.6608
  977MOL0     H31860  10.012   0.860   1.976  0.4883 -0.1161 -1.0710
  977MOL0     H31861   9.768   0.927   1.972 -1.5688 -0.3270 -0.7523
  977MOL0     H31862   9.734   0.794   1.872  0.7789  1.7161 -1.2089
  977MOL0     H31863   9.848   0.811   2.141 -1.9407  0.6365  1.4045
  977MOL0     H31864   9.695   0.740   2.107  1.3091  1.1312  0.8851
  977MOL0     H31865   9.974   0.631   2.051 -0.2796  0.7412 -2.5104
  977MOL0     H31866   9.831   0.565   1.966 -1.7339 -0.7055  0.2747
  977MOL0     H31867   9.730   0.520   2.186  0.4438  0.6974 -0.1890
  977MOL0     H31868   9.887   0.583   2.267  0.2522  0.0466  0.1081
  977MOL0     H31869   9.918   0.352   2.076 -0.8871 -2.5929  0.3775
  977MOL0     H31870  10.020   0.406   2.205 -0.5450 -3.0568  2.4065
  977MOL0     H31871   9.758   0.265   2.214  0.1552  0.1640 -1.2455
  977MOL0     H31872   9.841   0.324   2.362  2.6226 -0.3307  0.7465
  977MOL0     H31873   9.928   0.102   2.178  2.1934  1.3511 -0.6905
  977MOL0     H31874  10.048   0.163   2.289 -0.9539 -0.1137  2.0645
  977MOL0     H31875  10.208   0.914   1.915 -0.2558 -1.0475 -1.2192
  977MOL0     H31876  10.376   1.090   1.903  1.5821 -2.0766 -1.9674
  977MOL0     H31877  10.572   1.370   1.616 -0.5067  0.0583 -0.7152
  977MOL0     H31878  10.728   1.554   1.510 -0.5578  0.8470 -0.6358
  977MOL0     H31879  10.896   3.472   0.845  0.0899 -0.4491 -0.1717
  977MOL0     H31880  11.043   3.650   0.746 -0.8893 -1.4827 -2.1351
  977MOL0     H31881  11.523   3.725   0.659 -3.0524 -1.8454 -4.9285
  977MOL0     H31882  11.670   3.867   0.545  0.1681  0.8783  1.6985
  977MOL0     H31883  11.756   4.170   0.330 -3.4673 -0.2867 -0.8079
  977MOL0     H31884  11.751   4.011   0.400 -0.6791  0.3155 -0.6140
  977MOL0     H31885  11.960   4.144   0.450  0.0554  1.6475 -1.2196
  977MOL0     H31886  11.868   4.087   0.598  1.9095  1.5008  0.3947
  977MOL0     H31887  11.959   4.296   0.639 -0.7331 -4.0478 -0.4895
  977MOL0     H31888  11.788   4.331   0.609  0.3391  1.5796  1.2933
  977MOL0     H31889  11.805   4.423   0.412 -0.1627 -1.4623  2.2132
  977MOL0     H31890  11.914   4.500   0.511  2.0850  1.0188 -0.7389
  977MOL0     H31891  12.159   4.446   0.194 -0.6981  2.4401  0.7546
  977MOL0     H31892  11.434   4.219   0.661 -2.0048 -1.2148  2.3258
  977MOL0     H31893  11.165   4.046   0.806 -0.8313  0.1506  1.5455
  977MOL0     H31894  11.287   4.107   0.897 -0.5745 -3.2879  0.0688
  977MOL0     H31895  11.229   4.202   0.752  0.0229 -0.2919 -1.1305
  978MOL0     O31896   7.466  10.655   9.316 -0.0714 -0.3602  0.2927
  978MOL0     C31897   7.446  10.778   9.340 -0.3767 -0.3791  0.2035
  978MOL0     O31898   7.535  10.870   9.405 -0.5141 -0.2171  0.2925
  978MOL0     C31899   7.654  10.814   9.448 -0.2051 -0.2142 -0.0336
  978MOL0     C31900   7.749  10.760   9.363  0.5082  0.1593  0.7432
  978MOL0     C31901   7.865  10.708   9.407 -0.7358  0.9674  0.1882
  978MOL0     C31902   7.896  10.701   9.541 -0.1265  0.2882 -0.9174
  978MOL0     O31903   8.023  10.658   9.573 -0.5376  0.8263 -0.2719
  978MOL0     C31904   8.076  10.667   9.705  0.5968 -0.2411  0.1296
  978MOL0     C31905   8.189  10.555   9.728 -0.1298 -0.5269 -0.2152
  978MOL0     C31906   8.330  10.588   9.673  0.0645  0.5890  0.5033
  978MOL0     C31907   8.416  10.483   9.745 -0.4176 -0.4508  0.3430
  978MOL0     C31908   8.566  10.478   9.704  0.2503  0.5989  0.6710
  978MOL0     C31909   8.586  10.434   9.559  0.1325  0.4891 -0.4357
  978MOL0     C31910   8.726  10.481   9.514 -0.0955 -0.4516  0.1838
  978MOL0     C31911   8.781  10.424   9.377  0.7513  0.5937 -0.2180
  978MOL0     N31912   8.918  10.477   9.361  0.3078 -0.2375  0.2630
  978MOL0     C31913   9.032  10.396   9.360  1.1344 -0.5363 -0.7610
  978MOL0     C31914   9.125  10.505   9.352 -0.3709  0.7626 -0.0755
  978MOL0     C31915   9.270  10.487   9.346 -0.1597 -0.2591 -0.0373
  978MOL0     C31916   9.315  10.413   9.221 -0.2018  0.9679 -0.1445
  978MOL0     C31917   9.308  10.508   9.095 -0.2402  0.5104 -0.0181
  978MOL0     C31918   9.442  10.570   9.066  0.2861  0.4040  0.0207
  978MOL0     O31919   9.527  10.473   8.997  0.3294 -0.3756  0.1038
  978MOL0     C31920   9.611  10.527   8.907 -0.3201 -0.0472 -0.2306
  978MOL0     C31921   9.585  10.541   8.769  0.2518 -0.0740 -0.5059
  978MOL0     C31922   9.677  10.595   8.682  0.5355  0.3640 -0.1466
  978MOL0     C31923   9.796  10.639   8.720  0.2818  0.2235 -0.5826
  978MOL0     C31924   9.888  10.690   8.618 -0.1056  0.0459  0.2162
  978MOL0     O31925  10.007  10.737   8.676  0.2231  0.5387 -0.0667
  978MOL0     C31926  10.093  10.813   8.603  0.2602  0.1880  0.0037
  978MOL0     C31927  10.220  10.762   8.593  0.3464 -0.8714  0.4879
  978MOL0     C31928  10.314  10.816   8.503  0.2459  0.2490  0.7483
  978MOL0     C31929  10.282  10.930   8.425 -1.3649 -0.7207 -0.1203
  978MOL0     O31930  10.381  10.978   8.341 -0.2092 -0.2855  0.2542
  978MOL0     C31931  10.366  11.105   8.269 -0.5518 -0.0416  0.2285
  978MOL0     C31932  10.491  11.152   8.201  0.6109  0.1963 -0.6154
  978MOL0     C31933  10.611  11.161   8.298  1.3648 -0.7055  1.4955
  978MOL0     C31934  10.723  11.226   8.232  0.6703 -0.1748  0.4050
  978MOL0     C31935  10.826  11.243   8.345 -0.0130  0.0283  0.2079
  978MOL0     C31936  10.791  11.362   8.430  0.3579  0.3590  1.0094
  978MOL0     C31937  10.912  11.417   8.513  0.1703  0.4573  0.5479
  978MOL0     C31938  10.880  11.559   8.556  0.9358 -0.6776  0.1613
  978MOL0    Cl31939  10.867  11.672   8.424  0.0712 -0.6607  0.0488
  978MOL0     C31940  10.157  10.990   8.444  0.5052 -0.1936 -0.3837
  978MOL0     C31941  10.061  10.927   8.525 -0.8661  0.0778  0.4495
  978MOL0     O31942   9.859  10.714   8.506  0.3917  0.7447  0.4556
  978MOL0     C31943   9.824  10.627   8.860  0.0972  0.2261  0.2806
  978MOL0     C31944   9.732  10.582   8.948  0.3157  1.1326 -0.5407
  978MOL0     N31945   9.067  10.628   9.343  0.4337  0.1371 -0.0599
  978MOL0     N31946   8.944  10.612   9.339  0.1851 -0.4698 -0.4870
  978MOL0     C31947   7.800  10.742   9.635 -0.5770 -0.1450 -0.0514
  978MOL0     C31948   7.682  10.806   9.587  0.2407 -0.2651  0.2524
  978MOL0     C31949   7.313  10.818   9.294  0.3544  0.0178 -0.3174
  978MOL0     C31950   7.216  10.719   9.264 -0.4355 -0.1686 -0.4836
  978MOL0     C31951   7.083  10.751   9.225  0.5245 -0.9134  0.3065
  978MOL0     C31952   7.041  10.883   9.209  0.7291 -0.0165 -0.6653
  978MOL0     O31953   6.908  10.885   9.162 -0.1493  0.1533  0.7137
  978MOL0     C31954   6.881  11.017   9.100  0.0767  0.0519  0.3729
  978MOL0     C31955   6.782  11.015   8.991  0.5414  0.3562  0.5507
  978MOL0     C31956   6.757  11.156   8.945  0.8759  0.2032  0.9600
  978MOL0     C31957   6.640  11.157   8.842  0.9798 -0.1747 -0.1803
  978MOL0     C31958   6.644  11.266   8.749  0.3861  0.0800  0.1902
  978MOL0     C31959   6.645  11.360   8.677 -0.8740  0.6922  0.2072
  978MOL0     C31960   7.132  10.985   9.247 -0.9802 -0.2948 -0.1672
  978MOL0     C31961   7.268  10.954   9.282  0.0159 -0.5753  0.3635
  978MOL0     C31962   7.355  11.075   9.294 -1.2626 -0.9888 -0.8208
  978MOL0     H31963   7.723  10.752   9.258 -1.1514  2.5691  0.9041
  978MOL0     H31964   7.924  10.663   9.328 -1.8150 -0.3504  0.0735
  978MOL0     H31965   8.118  10.768   9.714 -1.0935  0.4353  1.0074
  978MOL0     H31966   8.004  10.656   9.787  0.2708 -1.0336 -0.2555
  978MOL0     H31967   8.147  10.467   9.677  0.5885 -1.2662  0.4306
  978MOL0     H31968   8.194  10.530   9.835  0.4237  2.1503  0.4464
  978MOL0     H31969   8.355  10.694   9.685  1.1000  0.2562  1.3860
  978MOL0     H31970   8.332  10.573   9.564  0.7853 -0.4981  0.6492
  978MOL0     H31971   8.406  10.496   9.853 -1.7846 -0.5217  0.2423
  978MOL0     H31972   8.378  10.384   9.717 -1.2259 -1.1356  3.4723
  978MOL0     H31973   8.599  10.582   9.703 -2.0481  1.3743  0.5830
  978MOL0     H31974   8.628  10.411   9.764  1.3242  0.6623 -0.3219
  978MOL0     H31975   8.588  10.324   9.556 -0.0509  0.4730 -0.0479
  978MOL0     H31976   8.497  10.463   9.503 -0.2194  1.3110  0.5196
  978MOL0     H31977   8.800  10.458   9.591  1.6931  2.4439 -0.5382
  978MOL0     H31978   8.725  10.590   9.504  2.1256 -0.4253 -0.4053
  978MOL0     H31979   8.780  10.315   9.381  2.7644  0.5429  0.0624
  978MOL0     H31980   8.720  10.470   9.299 -1.6692  0.6950  1.5930
  978MOL0     H31981   9.050  10.289   9.369  0.3894 -1.0595 -4.1727
  978MOL0     H31982   9.318  10.585   9.346 -0.8125  0.1059 -1.9443
  978MOL0     H31983   9.299  10.420   9.427  0.2573 -1.8262 -1.4253
  978MOL0     H31984   9.400  10.344   9.229 -0.4555  0.8628  4.3097
  978MOL0     H31985   9.237  10.338   9.205  1.6742 -0.7021 -2.3515
  978MOL0     H31986   9.234  10.585   9.118  0.2239  0.7102  0.8772
  978MOL0     H31987   9.277  10.465   8.999 -0.7856  0.3659  0.2235
  978MOL0     H31988   9.493  10.604   9.156  0.0333  2.6064 -0.6137
  978MOL0     H31989   9.423  10.658   9.004  0.6528  1.5653  1.5026
  978MOL0     H31990   9.489  10.504   8.733 -0.2383 -0.5422  1.2306
  978MOL0     H31991   9.641  10.619   8.582 -0.2795  0.0879  0.0706
  978MOL0     H31992  10.244  10.681   8.661  0.5470  0.1135  1.6283
  978MOL0     H31993  10.412  10.773   8.489  0.3143  0.4123  0.7293
  978MOL0     H31994  10.292  11.087   8.191  1.0148  1.0965 -1.6177
  978MOL0     H31995  10.337  11.183   8.341  1.2582  0.2956  0.6381
  978MOL0     H31996  10.521  11.087   8.118  0.6496  1.3866 -1.5788
  978MOL0     H31997  10.478  11.254   8.164  1.1467  1.7089  2.9657
  978MOL0     H31998  10.579  11.227   8.379 -0.2720  0.5373 -0.1112
  978MOL0     H31999  10.627  11.061   8.339  0.4984 -1.2541  0.5302
  978MOL0     H32000  10.700  11.320   8.182  2.0119 -0.5092 -0.9207
  978MOL0     H32001  10.756  11.151   8.159 -0.9741 -1.9035  1.3217
  978MOL0     H32002  10.914  11.280   8.291 -0.8703  3.3316  0.8600
  978MOL0     H32003  10.845  11.155   8.407 -2.0541  0.9881  2.3374
  978MOL0     H32004  10.751  11.441   8.366  0.3878 -1.6181 -1.5965
  978MOL0     H32005  10.708  11.343   8.499  0.9229 -1.1541  1.3322
  978MOL0     H32006  11.004  11.418   8.455 -0.4942 -2.2429 -0.6800
  978MOL0     H32007  10.921  11.354   8.602 -3.5799 -1.4021 -0.1893
  978MOL0     H32008  10.784  11.542   8.605  0.1472  1.0319 -0.7091
  978MOL0     H32009  10.952  11.601   8.628 -0.0501  1.0933  0.1605
  978MOL0     H32010  10.133  11.074   8.381 -1.3555  0.8859  1.6237
  978MOL0     H32011   9.957  10.955   8.540 -1.1329  0.4437 -1.7573
  978MOL0     H32012   9.913  10.672   8.904 -0.6614  1.1592  0.9239
  978MOL0     H32013   9.750  10.574   9.055  2.7860  2.2009 -0.8147
  978MOL0     H32014   7.815  10.730   9.742  0.1230 -0.8832 -0.2230
  978MOL0     H32015   7.605  10.848   9.651 -1.7975 -0.4897 -1.8804
  978MOL0     H32016   7.235  10.615   9.288  0.7821  0.4479  1.4843
  978MOL0     H32017   7.010  10.671   9.228  0.2202 -0.6264  3.3382
  978MOL0     H32018   6.969  11.056   9.048 -0.9148  1.8480 -0.0476
  978MOL0     H32019   6.867  11.087   9.184 -0.8971  0.5858 -0.2098
  978MOL0     H32020   6.682  10.973   9.008  0.8379 -1.2684 -1.3315
  978MOL0     H32021   6.823  10.958   8.908 -0.8237 -0.6055  0.4959
  978MOL0     H32022   6.852  11.179   8.897  2.8595 -1.0471  4.0271
  978MOL0     H32023   6.748  11.232   9.023  0.5607  1.1411  0.0329
  978MOL0     H32024   6.637  11.064   8.785 -0.3080  1.4736 -3.0334
  978MOL0     H32025   6.547  11.164   8.900 -1.0930 -1.5286 -3.1122
  978MOL0     H32026   6.667  11.431   8.600 -0.0949 -0.0389 -0.2731
  978MOL0     H32027   7.102  11.088   9.262 -0.9764 -0.5229  1.5804
  978MOL0     H32028   7.386  11.093   9.397 -2.2383  3.5734 -1.0937
  978MOL0     H32029   7.441  11.080   9.227  0.8101  1.6537  1.7960
  978MOL0     H32030   7.309  11.169   9.259  2.3814  0.6068 -1.7739
  979MOL0     O32031   2.821   6.126   3.733 -0.2488  0.3053  0.1208
  979MOL0     C32032   2.828   6.062   3.628 -0.1925  0.1517  0.1076
  979MOL0     O32033   2.915   6.091   3.529  0.2773  0.2241  0.1222
  979MOL0     C32034   3.029   6.169   3.556  0.2193  0.0219  0.3391
  979MOL0     C32035   3.146   6.121   3.505  0.3433 -1.3208 -0.2009
  979MOL0     C32036   3.262   6.201   3.526  0.1017  0.0100 -0.1859
  979MOL0     C32037   3.251   6.319   3.588 -0.0516  0.3117 -0.2009
  979MOL0     O32038   3.370   6.383   3.622  0.1035 -0.2838 -0.7584
  979MOL0     C32039   3.370   6.476   3.732 -0.3622  0.0868  0.0837
  979MOL0     C32040   3.512   6.474   3.786 -0.0043  0.2843  0.8921
  979MOL0     C32041   3.562   6.617   3.775 -0.9911 -0.1035  0.8545
  979MOL0     C32042   3.707   6.618   3.818 -0.5353 -0.2736 -0.8142
  979MOL0     C32043   3.731   6.585   3.975  0.0429  0.2577 -0.5142
  979MOL0     C32044   3.838   6.671   4.038 -0.6905  0.0224  0.2933
  979MOL0     C32045   3.982   6.646   3.984  0.0453 -0.0291  0.0536
  979MOL0     C32046   4.081   6.718   4.075  0.3827 -0.3272 -0.6165
  979MOL0     N32047   4.224   6.700   4.034 -0.1744 -0.0490 -0.2314
  979MOL0     C32048   4.280   6.586   3.987 -0.1983  0.0321 -0.3502
  979MOL0     C32049   4.414   6.615   3.969 -0.6421  0.7245 -0.2301
  979MOL0     C32050   4.528   6.507   3.942 -0.3703 -0.3080  1.2320
  979MOL0     C32051   4.667   6.586   3.936 -1.0915  0.8242  0.0375
  979MOL0     C32052   4.697   6.647   3.800  0.8425 -0.5497  0.5191
  979MOL0     C32053   4.837   6.704   3.808 -0.4043 -0.7904 -0.7813
  979MOL0     O32054   4.896   6.715   3.679 -0.1805  0.6009  0.1901
  979MOL0     C32055   5.033   6.707   3.657  0.3794 -0.0394  0.9407
  979MOL0     C32056   5.074   6.660   3.529  0.8051  0.2270 -0.3214
  979MOL0     C32057   5.209   6.674   3.492 -0.9021 -0.3514 -0.3950
  979MOL0     C32058   5.300   6.721   3.586  0.6068  0.3926  0.8569
  979MOL0     C32059   5.449   6.728   3.551  0.7063 -1.4007 -0.3437
  979MOL0     O32060   5.519   6.828   3.615  0.3963  0.0506 -0.8442
  979MOL0     C32061   5.645   6.793   3.651  0.0957  0.5155 -0.1178
  979MOL0     C32062   5.684   6.684   3.736 -0.2178  0.5547  0.3198
  979MOL0     C32063   5.814   6.663   3.773  0.4947  0.6164  0.3675
  979MOL0     C32064   5.915   6.747   3.719  0.6779  0.9479 -0.5222
  979MOL0     O32065   6.049   6.729   3.755  0.5744 -0.7686 -0.3059
  979MOL0     C32066   6.117   6.843   3.813 -0.0870 -0.7806 -0.4486
  979MOL0     C32067   6.246   6.881   3.742  0.2370  0.1776  0.2581
  979MOL0     C32068   6.346   6.768   3.726 -0.0995  0.4646  0.2593
  979MOL0     C32069   6.478   6.832   3.660 -0.0042  0.8620 -0.2844
  979MOL0     C32070   6.576   6.731   3.608  0.2929  0.0681 -0.1074
  979MOL0     C32071   6.593   6.748   3.454 -0.7653  1.0018  0.3414
  979MOL0     C32072   6.707   6.840   3.416 -1.1313 -0.4302  0.4549
  979MOL0     C32073   6.845   6.846   3.490 -0.0902 -0.4262  0.0910
  979MOL0    Cl32074   6.944   6.684   3.486 -0.2721 -0.4241  0.6405
  979MOL0     C32075   5.876   6.853   3.643  0.1381 -0.2640  0.0288
  979MOL0     C32076   5.743   6.873   3.601  0.0827  0.4544 -0.6208
  979MOL0     O32077   5.494   6.637   3.492 -0.4414  0.3318  0.1022
  979MOL0     C32078   5.259   6.765   3.711 -0.3927 -0.2118 -0.6176
  979MOL0     C32079   5.123   6.757   3.752  0.6565  0.1598  0.4846
  979MOL0     N32080   4.428   6.748   4.000 -0.3315 -0.3998  0.4046
  979MOL0     N32081   4.316   6.802   4.028  0.3701 -0.3921 -0.3343
  979MOL0     C32082   3.134   6.378   3.632  0.7232  1.0243 -0.4907
  979MOL0     C32083   3.020   6.290   3.622 -0.3603 -0.8606 -0.6687
  979MOL0     C32084   2.736   5.950   3.605 -0.9296  1.1255  0.2048
  979MOL0     C32085   2.745   5.875   3.483 -0.7864 -0.6312 -0.4250
  979MOL0     C32086   2.665   5.768   3.457  0.2038 -0.0118 -0.5488
  979MOL0     C32087   2.566   5.728   3.549  0.2418  0.3127 -0.4900
  979MOL0     O32088   2.464   5.635   3.539 -0.0032 -0.1459 -0.2396
  979MOL0     C32089   2.424   5.587   3.419  0.4683  0.1321  0.8641
  979MOL0     C32090   2.374   5.448   3.419  1.0462  0.5770 -0.6012
  979MOL0     C32091   2.226   5.442   3.464  0.7990  0.2310  1.4697
  979MOL0     C32092   2.150   5.312   3.426  0.1760 -0.0748 -0.0394
  979MOL0     C32093   2.033   5.346   3.335  0.8062 -0.0961  0.3485
  979MOL0     C32094   1.951   5.368   3.245 -0.5677 -0.3841  0.9891
  979MOL0     C32095   2.563   5.794   3.674  0.6650 -0.1259 -0.0927
  979MOL0     C32096   2.637   5.902   3.701  0.3600 -1.2517  0.4954
  979MOL0     C32097   2.606   5.970   3.832  0.0140 -0.0551  0.6693
  979MOL0     H32098   3.146   6.035   3.438 -4.8990 -1.0095 -1.0481
  979MOL0     H32099   3.359   6.166   3.491 -0.6709 -2.9512  0.3649
  979MOL0     H32100   3.338   6.578   3.708 -0.3578  0.7642  2.5964
  979MOL0     H32101   3.307   6.451   3.818 -1.4294  0.4147 -0.5874
  979MOL0     H32102   3.573   6.406   3.725  0.1575  1.3469 -0.1923
  979MOL0     H32103   3.518   6.438   3.888 -2.4021  0.7347  1.2501
  979MOL0     H32104   3.503   6.686   3.837 -1.4036  0.6110 -0.3057
  979MOL0     H32105   3.551   6.652   3.672 -0.0651  0.9398  1.0840
  979MOL0     H32106   3.774   6.546   3.770  3.3799  0.0611  3.4228
  979MOL0     H32107   3.739   6.720   3.795 -1.7456 -0.2471 -2.5417
  979MOL0     H32108   3.643   6.598   4.039 -0.0734 -0.2900 -0.5638
  979MOL0     H32109   3.778   6.488   3.992  1.1750  1.3277  3.6959
  979MOL0     H32110   3.807   6.775   4.019 -0.7381 -0.1741 -0.7226
  979MOL0     H32111   3.846   6.653   4.146  1.6373 -1.5192 -0.0812
  979MOL0     H32112   3.990   6.685   3.882  3.0706  0.6678  0.4681
  979MOL0     H32113   4.013   6.541   3.985  2.4678  0.6148 -0.4639
  979MOL0     H32114   4.052   6.823   4.078  1.1822 -0.1223  0.8164
  979MOL0     H32115   4.079   6.667   4.172  1.9320 -1.0276 -0.9314
  979MOL0     H32116   4.244   6.485   3.977 -1.4503  0.4293 -0.0714
  979MOL0     H32117   4.528   6.422   4.010 -0.0383  0.0647  1.7052
  979MOL0     H32118   4.517   6.459   3.844 -1.1370  1.5485  0.3556
  979MOL0     H32119   4.681   6.673   4.000 -1.3432  2.8273 -2.4573
  979MOL0     H32120   4.740   6.512   3.971 -2.9246 -0.0735  2.1411
  979MOL0     H32121   4.628   6.724   3.765 -0.2485 -1.2559  1.0526
  979MOL0     H32122   4.698   6.563   3.730 -3.2178 -1.5348  1.3457
  979MOL0     H32123   4.902   6.646   3.873 -0.4357  1.4931  1.4196
  979MOL0     H32124   4.833   6.810   3.834  1.5892 -0.7837 -0.4010
  979MOL0     H32125   5.009   6.631   3.448 -0.0026  0.4754  0.2179
  979MOL0     H32126   5.259   6.652   3.398 -3.4138  0.3052 -1.9703
  979MOL0     H32127   5.605   6.625   3.779 -2.4536  1.9024 -1.7050
  979MOL0     H32128   5.848   6.579   3.833  2.4301 -0.1686 -1.6771
  979MOL0     H32129   6.056   6.934   3.815 -1.9771 -1.9917  1.3679
  979MOL0     H32130   6.144   6.827   3.917  1.5858  2.6249 -0.2473
  979MOL0     H32131   6.214   6.908   3.641  2.1927 -3.3483 -1.4906
  979MOL0     H32132   6.303   6.966   3.783 -0.4950 -0.0467  1.8397
  979MOL0     H32133   6.376   6.712   3.816 -0.0343 -0.6143 -0.4194
  979MOL0     H32134   6.296   6.696   3.662  0.9940 -0.1675  0.0954
  979MOL0     H32135   6.540   6.887   3.733  0.9618 -1.9140  1.1531
  979MOL0     H32136   6.446   6.913   3.594 -2.1800 -0.1359 -0.5266
  979MOL0     H32137   6.526   6.634   3.616 -0.6752  0.5037 -0.6200
  979MOL0     H32138   6.672   6.723   3.659  1.8726 -2.1617 -3.0596
  979MOL0     H32139   6.614   6.648   3.415  0.9103  0.5206  2.2728
  979MOL0     H32140   6.495   6.782   3.420 -0.4093  0.7992 -0.9438
  979MOL0     H32141   6.670   6.942   3.423  3.0048  1.2247  0.7277
  979MOL0     H32142   6.746   6.824   3.315  4.4057  2.7147  1.6813
  979MOL0     H32143   6.911   6.920   3.443  0.3502 -0.6809  0.3118
  979MOL0     H32144   6.834   6.885   3.591  3.6376  1.5712 -0.1178
  979MOL0     H32145   5.950   6.928   3.616 -0.4645  1.7912  3.3641
  979MOL0     H32146   5.707   6.953   3.537  0.8003 -1.4467 -3.6115
  979MOL0     H32147   5.332   6.801   3.783 -1.2049 -1.0676  0.6810
  979MOL0     H32148   5.089   6.805   3.843  0.8238 -2.0388  1.7851
  979MOL0     H32149   3.129   6.471   3.688  1.9013  2.6029 -2.8753
  979MOL0     H32150   2.924   6.333   3.651 -0.0587  1.4380 -2.7270
  979MOL0     H32151   2.820   5.899   3.408  0.4687 -3.9013 -0.4047
  979MOL0     H32152   2.679   5.732   3.356 -4.0869 -1.8098 -0.7185
  979MOL0     H32153   2.506   5.586   3.346  1.0342 -0.2560  1.4923
  979MOL0     H32154   2.358   5.662   3.374  0.3045 -0.1313  0.6630
  979MOL0     H32155   2.438   5.397   3.491  2.2363  0.1438 -1.9273
  979MOL0     H32156   2.380   5.412   3.317  0.3159  1.3497 -0.9284
  979MOL0     H32157   2.174   5.522   3.411 -0.1473 -2.2693 -1.6670
  979MOL0     H32158   2.210   5.455   3.572 -0.0660  1.1541  1.2430
  979MOL0     H32159   2.218   5.242   3.377 -0.1121  0.5122 -1.3285
  979MOL0     H32160   2.111   5.274   3.521  1.3215  1.3738  1.0439
  979MOL0     H32161   1.880   5.379   3.165  0.1789  1.7996  0.5535
  979MOL0     H32162   2.490   5.758   3.745  1.6478 -3.5850 -0.5992
  979MOL0     H32163   2.555   5.891   3.887  0.6558 -1.4710 -0.6719
  979MOL0     H32164   2.703   5.993   3.876  0.0936  1.3991 -0.2070
  979MOL0     H32165   2.544   6.057   3.806  0.8995  0.6215  0.7635
  980MOL0     O32166   7.427   7.938   6.747 -0.1810  0.0122 -0.2259
  980MOL0     C32167   7.446   7.877   6.641 -1.3476 -0.2477  0.1432
  980MOL0     O32168   7.569   7.848   6.595 -0.1454  0.6229  0.5427
  980MOL0     C32169   7.674   7.862   6.682  0.6538  0.0598 -0.6053
  980MOL0     C32170   7.784   7.933   6.637  0.0166 -0.3367 -0.0512
  980MOL0     C32171   7.896   7.916   6.715 -0.0240 -0.3581  0.1194
  980MOL0     C32172   7.899   7.841   6.834 -0.2528  0.2424 -0.1337
  980MOL0     O32173   8.008   7.820   6.912  1.5187  0.3763 -0.0862
  980MOL0     C32174   8.120   7.788   6.835 -0.5718  0.8759  0.2159
  980MOL0     C32175   8.220   7.690   6.904 -0.5222 -0.3005 -0.0530
  980MOL0     C32176   8.297   7.607   6.788 -0.5396  0.3948 -0.8286
  980MOL0     C32177   8.385   7.497   6.843 -0.7231 -0.6746 -0.1896
  980MOL0     C32178   8.515   7.543   6.918  0.0411 -0.2096 -0.0888
  980MOL0     C32179   8.623   7.448   6.952 -0.4187  0.9969 -0.4234
  980MOL0     C32180   8.666   7.357   6.829 -0.4851  0.0110 -1.0945
  980MOL0     C32181   8.578   7.231   6.834 -0.8047  1.2972  0.2019
  980MOL0     N32182   8.591   7.169   6.700  0.3281 -0.2065 -0.1154
  980MOL0     C32183   8.629   7.043   6.675 -0.1089  0.4916 -0.5105
  980MOL0     C32184   8.586   7.021   6.551  0.6350  0.1149  0.5148
  980MOL0     C32185   8.566   6.890   6.484 -0.3233 -0.6982  0.4226
  980MOL0     C32186   8.706   6.812   6.481  0.9393 -0.2158 -0.5789
  980MOL0     C32187   8.666   6.671   6.482 -0.3177  1.0012 -0.2472
  980MOL0     C32188   8.766   6.574   6.427 -0.6226  0.2549  0.5854
  980MOL0     O32189   8.883   6.581   6.500 -0.4286  0.0120 -0.3603
  980MOL0     C32190   8.981   6.492   6.471  0.0034  0.0670 -0.1169
  980MOL0     C32191   8.957   6.357   6.435  0.5980 -0.3222  0.4056
  980MOL0     C32192   9.059   6.270   6.416  1.2658  0.4315 -0.1316
  980MOL0     C32193   9.194   6.309   6.442  0.6587 -0.6647  0.0770
  980MOL0     C32194   9.295   6.212   6.424  0.0362  0.6706 -0.3967
  980MOL0     O32195   9.423   6.263   6.444 -0.2861 -0.7205 -0.5702
  980MOL0     C32196   9.544   6.199   6.442  0.0920  0.6636  0.6463
  980MOL0     C32197   9.651   6.266   6.494 -0.5427 -0.7825 -0.5442
  980MOL0     C32198   9.783   6.218   6.493  0.5034  0.0751 -0.4145
  980MOL0     C32199   9.799   6.096   6.423  0.0596  0.4815 -0.0237
  980MOL0     O32200   9.915   6.025   6.403  0.9102  0.4249 -0.2798
  980MOL0     C32201   9.984   6.000   6.526  0.4992 -0.1787 -0.7450
  980MOL0     C32202  10.105   5.913   6.496 -0.5762 -0.0885 -0.6930
  980MOL0     C32203  10.213   5.939   6.607  0.1648  0.1915  0.2328
  980MOL0     C32204  10.343   5.874   6.565  0.6189  1.4240  0.8354
  980MOL0     C32205  10.459   5.889   6.669 -0.2824  0.5534  0.7234
  980MOL0     C32206  10.587   5.832   6.600 -0.1947  0.1787 -0.5960
  980MOL0     C32207  10.704   5.840   6.694  0.8302 -0.1565 -0.8987
  980MOL0     C32208  10.828   5.781   6.619  0.7669  0.3170  0.9090
  980MOL0    Cl32209  10.961   5.781   6.737 -0.0849 -0.2340  0.4634
  980MOL0     C32210   9.694   6.024   6.364  0.7811 -0.8647 -0.1162
  980MOL0     C32211   9.565   6.079   6.371  0.0929  0.4226  0.3038
  980MOL0     O32212   9.263   6.095   6.400  0.0174  0.7045 -0.3757
  980MOL0     C32213   9.223   6.441   6.482 -0.3853  0.2357  0.3448
  980MOL0     C32214   9.118   6.533   6.493 -1.2184  0.2987  0.4522
  980MOL0     N32215   8.521   7.137   6.501  0.2342 -0.0173  0.4180
  980MOL0     N32216   8.527   7.224   6.597 -0.1706  0.0036 -0.0853
  980MOL0     C32217   7.778   7.785   6.881 -0.2889 -0.2894  0.2808
  980MOL0     C32218   7.671   7.799   6.809  0.3319  0.0557  0.7294
  980MOL0     C32219   7.330   7.849   6.548 -1.0230 -0.3691 -0.3004
  980MOL0     C32220   7.362   7.775   6.432 -0.3541  0.1086  0.1067
  980MOL0     C32221   7.263   7.711   6.355 -0.8790 -0.2379 -1.3421
  980MOL0     C32222   7.128   7.736   6.370 -0.1051  0.0927 -0.1270
  980MOL0     O32223   7.026   7.678   6.297 -0.2737  0.0408  0.0145
  980MOL0     C32224   7.060   7.567   6.205 -0.2365 -0.9258 -0.4433
  980MOL0     C32225   6.937   7.492   6.183 -0.7675  0.4717 -0.5540
  980MOL0     C32226   6.821   7.559   6.100  0.9910  0.0621  0.3039
  980MOL0     C32227   6.864   7.609   5.962  0.2682  0.5871 -1.3659
  980MOL0     C32228   6.908   7.484   5.895  0.2077 -0.5266  1.1842
  980MOL0     C32229   6.949   7.381   5.838 -0.3919 -1.4972 -0.7095
  980MOL0     C32230   7.097   7.817   6.486  0.0079  0.6586  0.0463
  980MOL0     C32231   7.194   7.865   6.576  0.0734 -0.6657 -0.3783
  980MOL0     C32232   7.142   7.936   6.704 -0.2740  0.7093 -0.1490
  980MOL0     H32233   7.780   7.989   6.544 -0.5422  0.8512  0.6729
  980MOL0     H32234   7.987   7.966   6.684 -1.0940  0.0215 -2.7937
  980MOL0     H32235   8.092   7.727   6.748  3.9422 -1.1194 -0.1316
  980MOL0     H32236   8.183   7.874   6.809  1.1067 -0.7872 -1.5743
  980MOL0     H32237   8.148   7.620   6.948 -1.5366  1.4407  1.1534
  980MOL0     H32238   8.289   7.741   6.972 -0.2607 -2.6711  1.6176
  980MOL0     H32239   8.362   7.675   6.731 -0.5035  0.4240 -0.7529
  980MOL0     H32240   8.222   7.556   6.728 -0.0640  0.3666 -1.4190
  980MOL0     H32241   8.315   7.441   6.907 -1.6947  1.1424  0.4295
  980MOL0     H32242   8.414   7.435   6.758  3.0574 -0.7986  1.0217
  980MOL0     H32243   8.552   7.622   6.852 -1.3953 -0.5672 -1.3864
  980MOL0     H32244   8.496   7.602   7.008 -3.1846 -0.1411 -0.6808
  980MOL0     H32245   8.709   7.488   7.006  0.0306 -2.4970  1.7386
  980MOL0     H32246   8.576   7.383   7.026 -1.1923  2.3509  0.3201
  980MOL0     H32247   8.770   7.328   6.850 -1.0326  0.1135  2.1939
  980MOL0     H32248   8.655   7.404   6.730 -3.5150  0.9810 -0.3875
  980MOL0     H32249   8.608   7.164   6.915 -0.5215  1.4308  0.2080
  980MOL0     H32250   8.475   7.257   6.858 -0.8936  2.0949 -0.9483
  980MOL0     H32251   8.683   6.981   6.745  0.3588  1.6930  0.2274
  980MOL0     H32252   8.483   6.834   6.528 -1.7551  0.0207 -1.2051
  980MOL0     H32253   8.531   6.917   6.383  0.1285 -4.6979 -0.9704
  980MOL0     H32254   8.766   6.837   6.393  1.8345  1.9559  0.5863
  980MOL0     H32255   8.770   6.826   6.568  0.9441 -0.4270 -0.5485
  980MOL0     H32256   8.581   6.655   6.416  0.5477 -2.7045 -0.7273
  980MOL0     H32257   8.644   6.632   6.581 -2.1198 -0.2693 -1.0930
  980MOL0     H32258   8.795   6.603   6.326  1.1033  1.5359  1.3960
  980MOL0     H32259   8.719   6.475   6.432  1.1702 -0.7400 -1.0880
  980MOL0     H32260   8.855   6.325   6.414  1.0093 -0.5056 -1.4139
  980MOL0     H32261   9.027   6.180   6.364  1.7924 -0.3472  0.8675
  980MOL0     H32262   9.632   6.359   6.546 -0.3017 -0.2771 -1.3272
  980MOL0     H32263   9.857   6.277   6.547  1.8451 -2.6608  0.9686
  980MOL0     H32264  10.010   6.093   6.577  0.0105 -0.7427  0.5781
  980MOL0     H32265   9.928   5.960   6.612  1.6904  1.6296  0.9544
  980MOL0     H32266  10.090   5.807   6.473  2.7244 -1.3201  1.9128
  980MOL0     H32267  10.140   5.948   6.399  0.0615 -0.8231 -0.7435
  980MOL0     H32268  10.230   6.042   6.641 -1.5841 -0.5385  3.7524
  980MOL0     H32269  10.168   5.894   6.695 -0.8526  1.2092  0.2733
  980MOL0     H32270  10.380   5.929   6.479 -1.1379 -0.3925 -1.1921
  980MOL0     H32271  10.325   5.772   6.529  0.9803  2.8179 -3.9170
  980MOL0     H32272  10.447   5.826   6.758 -2.6426 -0.5948 -0.3098
  980MOL0     H32273  10.471   5.995   6.693 -0.0271  0.5269  0.7221
  980MOL0     H32274  10.571   5.725   6.581  3.5869 -0.9376  1.5402
  980MOL0     H32275  10.607   5.881   6.504 -2.7380 -0.9077 -1.7687
  980MOL0     H32276  10.678   5.780   6.782 -1.3510  0.6733 -0.9301
  980MOL0     H32277  10.731   5.943   6.721  0.0686  0.7212 -3.2134
  980MOL0     H32278  10.806   5.686   6.569 -2.4482  1.1945  0.4446
  980MOL0     H32279  10.855   5.842   6.532  2.1287  1.1319  1.8546
  980MOL0     H32280   9.710   5.931   6.310 -0.2216 -1.3709  0.4346
  980MOL0     H32281   9.493   6.020   6.316  0.0195  2.1732 -1.6078
  980MOL0     H32282   9.329   6.467   6.486 -0.3813  0.7754 -1.9493
  980MOL0     H32283   9.152   6.635   6.509  2.1437 -0.7122  0.4953
  980MOL0     H32284   7.773   7.727   6.972  0.6883  0.9197  1.1443
  980MOL0     H32285   7.586   7.746   6.849  0.9968 -0.6153  1.2925
  980MOL0     H32286   7.465   7.749   6.409 -0.5804 -1.0727  0.3583
  980MOL0     H32287   7.307   7.642   6.284  2.4246  2.6726 -2.3890
  980MOL0     H32288   7.127   7.500   6.260 -1.7883 -1.1233  1.2923
  980MOL0     H32289   7.118   7.593   6.116  0.6064 -2.4510 -0.3767
  980MOL0     H32290   6.885   7.471   6.277 -1.9066  1.0261 -1.0290
  980MOL0     H32291   6.960   7.397   6.134  0.4837  1.0018 -1.0368
  980MOL0     H32292   6.779   7.638   6.163  1.3060  0.4684  0.0077
  980MOL0     H32293   6.744   7.483   6.084 -0.1584  0.8854  1.6124
  980MOL0     H32294   6.775   7.654   5.917  0.9135 -0.5691 -3.9997
  980MOL0     H32295   6.940   7.687   5.957 -0.0174  0.8140 -2.2971
  980MOL0     H32296   6.957   7.294   5.776 -3.0053 -1.6672 -0.9120
  980MOL0     H32297   6.994   7.838   6.513 -0.3078 -1.5579  0.7697
  980MOL0     H32298   7.037   7.911   6.721 -0.1026 -1.4778 -1.9692
  980MOL0     H32299   7.203   7.890   6.783  0.8258 -1.0111 -1.9239
  980MOL0     H32300   7.152   8.045   6.713 -1.5396  0.6660  3.0471
  981MOL0     O32301   9.099  10.295   8.678  0.7023 -0.8053  0.4696
  981MOL0     C32302   9.116  10.413   8.725  0.7418  0.8672 -0.2375
  981MOL0     O32303   9.077  10.448   8.849 -0.8749  0.0580 -0.4952
  981MOL0     C32304   9.014  10.356   8.936 -0.7978 -0.8246  0.2538
  981MOL0     C32305   8.887  10.393   8.986 -0.8946  0.4776  0.6218
  981MOL0     C32306   8.808  10.293   9.052 -0.2251  0.0923 -0.3704
  981MOL0     C32307   8.863  10.175   9.084  0.6979 -0.0114 -0.3126
  981MOL0     O32308   8.785  10.078   9.144  0.1302 -0.2315 -0.4553
  981MOL0     C32309   8.640  10.086   9.112  1.0011 -0.3540  0.8347
  981MOL0     C32310   8.584   9.952   9.106  0.0810  0.3156 -0.1926
  981MOL0     C32311   8.430   9.958   9.080 -0.7493  0.5217 -0.7154
  981MOL0     C32312   8.382   9.807   9.088 -0.3120 -0.3339  0.2425
  981MOL0     C32313   8.389   9.742   8.953  0.3947  0.3210 -0.1140
  981MOL0     C32314   8.352   9.594   8.947 -0.9020 -0.6542 -0.0795
  981MOL0     C32315   8.355   9.533   8.809 -0.1949 -0.1480  0.1044
  981MOL0     C32316   8.499   9.519   8.755 -0.2840 -0.2866 -0.3562
  981MOL0     N32317   8.502   9.414   8.650  0.3940 -0.5642  0.3341
  981MOL0     C32318   8.549   9.415   8.517  0.4362  0.0505 -0.3452
  981MOL0     C32319   8.523   9.289   8.478 -0.3942  0.0942 -0.3248
  981MOL0     C32320   8.535   9.237   8.334  0.1591 -0.0708 -0.6397
  981MOL0     C32321   8.415   9.245   8.243 -0.3539 -0.0228 -0.6583
  981MOL0     C32322   8.303   9.147   8.287 -0.8135  0.3392  0.2665
  981MOL0     C32323   8.185   9.139   8.185 -0.5709  0.3562 -0.1604
  981MOL0     O32324   8.128   9.005   8.185  0.7292  0.6126  0.6296
  981MOL0     C32325   8.040   8.973   8.289  0.1028 -0.1084  0.0380
  981MOL0     C32326   7.962   9.068   8.361  0.5492 -0.4621 -0.2084
  981MOL0     C32327   7.879   9.020   8.465 -1.0300 -0.0060  0.1252
  981MOL0     C32328   7.873   8.883   8.499 -0.5007 -0.3123 -0.9873
  981MOL0     C32329   7.782   8.824   8.607 -0.3470 -0.4719 -0.4031
  981MOL0     O32330   7.789   8.688   8.634  0.3974  0.1809  0.4452
  981MOL0     C32331   7.697   8.648   8.728  0.1901 -0.2727  0.4413
  981MOL0     C32332   7.568   8.629   8.684 -0.9751  0.3219 -0.1334
  981MOL0     C32333   7.467   8.577   8.769  0.0687 -0.5471 -1.0868
  981MOL0     C32334   7.503   8.533   8.897 -0.8712 -0.7875 -0.9295
  981MOL0     O32335   7.402   8.496   8.983 -0.3654  0.0278  0.3478
  981MOL0     C32336   7.423   8.364   9.037 -0.1188 -0.3457  0.0913
  981MOL0     C32337   7.283   8.308   9.069 -1.0311 -0.0841 -0.0903
  981MOL0     C32338   7.196   8.317   8.938 -0.9721 -0.3373 -0.1076
  981MOL0     C32339   7.098   8.205   8.938  0.0135 -0.0711 -0.4523
  981MOL0     C32340   6.999   8.226   8.822 -0.1375  0.2128  0.3950
  981MOL0     C32341   6.884   8.129   8.855  0.2521  0.0577  0.6198
  981MOL0     C32342   6.796   8.133   8.723 -0.1177 -0.2961 -1.0784
  981MOL0     C32343   6.684   8.023   8.732  0.5152  0.4011  0.5002
  981MOL0    Cl32344   6.759   7.860   8.722  0.3417  0.0914  0.4516
  981MOL0     C32345   7.639   8.542   8.941  0.3816  0.3284  0.6505
  981MOL0     C32346   7.738   8.600   8.853  0.6203 -0.5947  0.1793
  981MOL0     O32347   7.694   8.908   8.656 -0.8985  0.1974 -0.4782
  981MOL0     C32348   7.943   8.797   8.421  0.3047 -0.5255  0.3882
  981MOL0     C32349   8.031   8.838   8.322 -1.2375  0.3189 -0.8224
  981MOL0     N32350   8.467   9.215   8.580 -0.6198  0.0072 -0.0128
  981MOL0     N32351   8.472   9.290   8.686  0.0999  0.1637 -0.9440
  981MOL0     C32352   8.994  10.154   9.053 -0.0976 -0.0321  0.5151
  981MOL0     C32353   9.067  10.236   8.976  0.3789 -0.1329 -0.4712
  981MOL0     C32354   9.184  10.523   8.635  0.5939  0.1115 -1.0889
  981MOL0     C32355   9.200  10.647   8.696 -0.9542  0.2327 -0.7387
  981MOL0     C32356   9.281  10.752   8.639 -0.5776  0.0556  0.7239
  981MOL0     C32357   9.331  10.735   8.513 -0.7579 -0.2074  0.4742
  981MOL0     O32358   9.394  10.844   8.451 -0.1950 -0.1426  0.4519
  981MOL0     C32359   9.494  10.809   8.351  0.0180  0.3409  0.1708
  981MOL0     C32360   9.616  10.909   8.343  0.1053  0.7742 -0.2272
  981MOL0     C32361   9.571  11.055   8.321 -0.2867 -0.3261 -0.3035
  981MOL0     C32362   9.658  11.170   8.375 -0.9475 -0.2853  0.6571
  981MOL0     C32363   9.785  11.171   8.312  0.2240  0.7297 -0.2377
  981MOL0     C32364   9.887  11.162   8.254  0.3590  0.0843 -0.2491
  981MOL0     C32365   9.309  10.614   8.448 -0.3632  0.4013  0.4035
  981MOL0     C32366   9.235  10.510   8.504 -0.4265  0.4528  0.0121
  981MOL0     C32367   9.221  10.384   8.421 -0.4727 -0.1272 -0.1377
  981MOL0     H32368   8.852  10.490   8.954 -0.6862  0.0501 -1.0387
  981MOL0     H32369   8.704  10.316   9.074 -0.3697 -1.4024  0.5799
  981MOL0     H32370   8.592  10.139   9.196 -0.2773 -0.5261  0.2358
  981MOL0     H32371   8.616  10.147   9.024 -0.8980  0.7054  1.9928
  981MOL0     H32372   8.598   9.907   9.206 -0.1951 -1.3706 -0.8801
  981MOL0     H32373   8.633   9.895   9.027  2.1712  2.9769 -0.9388
  981MOL0     H32374   8.399  10.016   8.993 -1.8409  1.9152  0.5499
  981MOL0     H32375   8.393   9.998   9.175 -3.4334 -3.4947  0.1955
  981MOL0     H32376   8.451   9.757   9.157 -2.4148  1.2356  3.7924
  981MOL0     H32377   8.282   9.794   9.130  0.8662  0.2704  3.5978
  981MOL0     H32378   8.323   9.793   8.882 -1.4690 -0.6715  0.8268
  981MOL0     H32379   8.492   9.752   8.917 -0.2586  0.6070 -2.0143
  981MOL0     H32380   8.418   9.539   9.015  0.8972 -0.3013 -1.4526
  981MOL0     H32381   8.249   9.591   8.983 -0.7341  2.4716  1.0038
  981MOL0     H32382   8.300   9.589   8.732  1.5030 -2.8410 -3.3600
  981MOL0     H32383   8.311   9.433   8.814 -1.6063  0.4237 -0.3813
  981MOL0     H32384   8.538   9.610   8.708 -1.9147 -0.6787 -2.6784
  981MOL0     H32385   8.554   9.484   8.843 -0.8885  0.9791  0.5601
  981MOL0     H32386   8.586   9.505   8.471 -0.2224  0.5453  0.0651
  981MOL0     H32387   8.609   9.305   8.291  3.5477 -1.4246  2.5188
  981MOL0     H32388   8.577   9.136   8.330 -0.7527 -0.4174 -2.2840
  981MOL0     H32389   8.371   9.345   8.247  1.5773  0.8447  0.5942
  981MOL0     H32390   8.456   9.220   8.145 -3.7881 -0.9015 -2.0306
  981MOL0     H32391   8.265   9.188   8.381 -2.0702  0.9513 -0.4867
  981MOL0     H32392   8.348   9.048   8.284 -0.6549  0.4234 -2.1732
  981MOL0     H32393   8.219   9.159   8.083 -0.9249 -3.4937 -1.1972
  981MOL0     H32394   8.123   9.222   8.219  0.4800  0.3279  1.9930
  981MOL0     H32395   7.968   9.175   8.344 -1.2768 -0.5589 -1.7051
  981MOL0     H32396   7.815   9.093   8.515  0.8389  1.9733 -0.2630
  981MOL0     H32397   7.545   8.658   8.582  0.3399 -0.3830 -0.6560
  981MOL0     H32398   7.371   8.565   8.720 -2.2636  0.6838  2.7154
  981MOL0     H32399   7.475   8.299   8.966 -0.2339 -1.3475  0.8959
  981MOL0     H32400   7.484   8.366   9.128 -0.1978 -2.3506  0.2446
  981MOL0     H32401   7.302   8.207   9.108  0.3463  1.5859  4.1894
  981MOL0     H32402   7.229   8.358   9.150  2.0773  1.5160  1.1642
  981MOL0     H32403   7.153   8.416   8.918 -1.1633 -0.4985 -0.4896
  981MOL0     H32404   7.269   8.302   8.858  1.8442 -0.0029  2.1974
  981MOL0     H32405   7.048   8.202   9.035  0.4839 -3.0617 -0.1935
  981MOL0     H32406   7.141   8.106   8.921 -1.5629 -1.1182  1.2211
  981MOL0     H32407   7.049   8.194   8.730 -1.3593  0.4642 -0.3763
  981MOL0     H32408   6.969   8.329   8.801  0.9228  0.1868 -1.4853
  981MOL0     H32409   6.918   8.032   8.891 -0.6820  0.2133  2.0161
  981MOL0     H32410   6.827   8.180   8.934  2.1510  4.9552 -0.7779
  981MOL0     H32411   6.863   8.118   8.638  2.1720  1.7883  0.2132
  981MOL0     H32412   6.753   8.232   8.701 -2.6732 -1.0364  0.1468
  981MOL0     H32413   6.624   8.026   8.824  0.1151  0.8535  0.2249
  981MOL0     H32414   6.611   8.049   8.655 -1.0145  0.3018  1.8410
  981MOL0     H32415   7.667   8.483   9.027  3.0903 -3.3323 -2.3973
  981MOL0     H32416   7.841   8.591   8.886  0.2677  0.3373  1.6184
  981MOL0     H32417   7.925   8.692   8.445 -1.5646 -0.6028 -1.1353
  981MOL0     H32418   8.069   8.757   8.260 -1.9491 -2.4132  2.0487
  981MOL0     H32419   9.031  10.057   9.085  0.3088  0.6455  2.2178
  981MOL0     H32420   9.158  10.194   8.933  1.4694  1.9840 -0.3627
  981MOL0     H32421   9.165  10.650   8.799  3.5112 -1.0164  1.0493
  981MOL0     H32422   9.286  10.845   8.696  1.1288  0.1174  0.5283
  981MOL0     H32423   9.448  10.810   8.252 -0.6381 -3.7694  0.2935
  981MOL0     H32424   9.532  10.710   8.376 -0.9048  0.1632  0.8842
  981MOL0     H32425   9.682  10.873   8.264  0.0733 -1.0322  0.5196
  981MOL0     H32426   9.682  10.909   8.430  0.0846  3.2983 -0.1325
  981MOL0     H32427   9.469  11.062   8.358 -0.2475 -1.6473  0.1163
  981MOL0     H32428   9.577  11.069   8.213  0.2112  4.7067  0.1485
  981MOL0     H32429   9.614  11.265   8.345 -2.7598 -0.9685  0.9766
  981MOL0     H32430   9.665  11.162   8.484 -1.1969 -0.4828  0.6616
  981MOL0     H32431   9.976  11.141   8.199  0.7638  1.6258 -0.2448
  981MOL0     H32432   9.339  10.606   8.344  1.2694  1.8073  0.7024
  981MOL0     H32433   9.126  10.332   8.431 -1.5330  1.7896  0.3548
  981MOL0     H32434   9.233  10.406   8.314  0.5570 -2.0644 -0.4659
  981MOL0     H32435   9.302  10.317   8.450 -2.3064 -2.2401  0.2872
  982MOL0     O32436   8.811   4.258   0.065 -0.4530 -0.4841 -0.4211
  982MOL0     C32437   8.794   4.373   0.085  0.7609 -0.1120  0.4643
  982MOL0     O32438   8.803   4.432   0.211  0.6983  0.3676 -0.1755
  982MOL0     C32439   8.826   4.344   0.310  0.2272  0.0699 -0.5993
  982MOL0     C32440   8.963   4.326   0.347  0.3234 -0.2454  0.7539
  982MOL0     C32441   9.010   4.248   0.454 -0.2987  0.9489 -1.4309
  982MOL0     C32442   8.915   4.196   0.542 -0.0082  0.7614  0.2056
  982MOL0     O32443   8.971   4.141   0.659 -0.0295  0.5964  0.0589
  982MOL0     C32444   8.896   4.037   0.725 -0.6023  0.1293  0.4908
  982MOL0     C32445   8.982   3.951   0.826 -0.5614  0.1420 -0.0439
  982MOL0     C32446   9.105   3.897   0.760 -0.7864  0.0924  0.4388
  982MOL0     C32447   9.182   3.804   0.860 -0.2333 -0.4923  0.2861
  982MOL0     C32448   9.329   3.778   0.814 -0.1901 -0.0187  0.6458
  982MOL0     C32449   9.351   3.749   0.664  0.2172 -1.2077  0.2198
  982MOL0     C32450   9.496   3.768   0.635  0.3511  0.3133 -0.0361
  982MOL0     C32451   9.519   3.748   0.485  0.3550  0.4790 -0.7046
  982MOL0     N32452   9.654   3.698   0.469  0.4194  0.1260  0.1935
  982MOL0     C32453   9.756   3.775   0.441 -0.1557 -0.5303 -0.1965
  982MOL0     C32454   9.866   3.707   0.455  0.0270  0.3429  0.6103
  982MOL0     C32455  10.009   3.752   0.424 -0.5037  0.3492  0.1017
  982MOL0     C32456  10.104   3.631   0.421 -0.1939  0.0876 -0.8860
  982MOL0     C32457  10.103   3.536   0.297 -0.4316 -0.3513  0.2645
  982MOL0     C32458  10.233   3.459   0.300  0.3490 -0.6885 -0.5845
  982MOL0     O32459  10.346   3.540   0.264  0.3487 -0.1657  0.4487
  982MOL0     C32460  10.456   3.480   0.201  0.7113 -0.4690 -0.4514
  982MOL0     C32461  10.443   3.387   0.100 -0.6917  0.4428 -0.2954
  982MOL0     C32462  10.557   3.354   0.032  0.5439  0.2857 -0.3388
  982MOL0     C32463  10.683   3.396   0.071  1.1099 -0.3986 -0.4867
  982MOL0     C32464  10.799   3.368  -0.012  0.2790  0.2950 -0.0605
  982MOL0     O32465  10.904   3.451  -0.010 -1.3966  0.5110  0.0281
  982MOL0     C32466  11.025   3.402  -0.073 -0.5495 -0.7078  0.4047
  982MOL0     C32467  11.073   3.452  -0.193 -0.5380 -0.4272  0.0767
  982MOL0     C32468  11.196   3.410  -0.237  0.7790  0.5179 -0.0177
  982MOL0     C32469  11.262   3.298  -0.189 -0.3710 -0.7460  0.0979
  982MOL0     O32470  11.384   3.265  -0.227  0.2187 -0.5368  0.3550
  982MOL0     C32471  11.401   3.127  -0.253 -0.7865 -0.3335 -0.5980
  982MOL0     C32472  11.547   3.096  -0.290  0.5182  0.5694 -0.8611
  982MOL0     C32473  11.577   3.106  -0.444 -0.0696  0.9481  0.8900
  982MOL0     C32474  11.724   3.092  -0.462 -0.0371 -0.8126  0.1863
  982MOL0     C32475  11.765   3.084  -0.611 -0.0399  0.8084 -0.9419
  982MOL0     C32476  11.922   3.074  -0.617 -0.0641  1.1723  0.5570
  982MOL0     C32477  11.991   3.212  -0.615 -0.5884 -0.3174  0.8758
  982MOL0     C32478  12.141   3.182  -0.629 -0.1287 -0.3925 -0.6229
  982MOL0    Cl32479  12.175   3.134  -0.796  0.1843  0.4907 -0.5123
  982MOL0     C32480  11.204   3.241  -0.066  0.0168 -0.3896  0.6244
  982MOL0     C32481  11.091   3.299  -0.004  0.0059  1.1116 -0.4036
  982MOL0     O32482  10.784   3.259  -0.071  0.3209  0.6533  0.2925
  982MOL0     C32483  10.694   3.475   0.185  0.3553 -0.4121 -0.3842
  982MOL0     C32484  10.583   3.520   0.250  0.5857  0.2746 -0.3159
  982MOL0     N32485   9.829   3.575   0.480 -0.0294 -0.4739  0.1340
  982MOL0     N32486   9.702   3.573   0.491 -0.0289 -0.7943 -0.6512
  982MOL0     C32487   8.778   4.213   0.508 -0.1676 -0.1179 -0.0904
  982MOL0     C32488   8.734   4.287   0.395 -0.4345  0.7366 -0.1614
  982MOL0     C32489   8.782   4.452  -0.035  0.7326 -0.6882  0.5240
  982MOL0     C32490   8.698   4.405  -0.146 -1.3976  0.2919  0.2198
  982MOL0     C32491   8.692   4.464  -0.267 -0.1313  0.2028 -0.3485
  982MOL0     C32492   8.777   4.572  -0.295 -0.1746  0.6196  0.5856
  982MOL0     O32493   8.765   4.629  -0.424 -0.0670  0.5158 -0.2143
  982MOL0     C32494   8.878   4.702  -0.480  0.1268  0.2284 -0.0723
  982MOL0     C32495   8.997   4.603  -0.520  0.6641 -0.4505 -0.4103
  982MOL0     C32496   8.977   4.532  -0.657 -0.4402  0.3514  0.5797
  982MOL0     C32497   9.079   4.589  -0.756  0.5646 -0.6614  0.3102
  982MOL0     C32498   9.030   4.542  -0.887 -0.0539 -0.4014  0.2242
  982MOL0     C32499   8.972   4.522  -0.994  0.8361 -0.6264 -0.2856
  982MOL0     C32500   8.862   4.625  -0.197  0.1811  0.9870 -0.2572
  982MOL0     C32501   8.860   4.571  -0.062  0.2881  0.8166  0.5752
  982MOL0     C32502   8.949   4.638   0.038 -0.1833  1.2121  0.5971
  982MOL0     H32503   9.025   4.373   0.272  2.8660 -1.2601  2.0985
  982MOL0     H32504   9.117   4.244   0.467 -0.2532  0.5780 -1.9071
  982MOL0     H32505   8.802   4.075   0.766  0.7983  2.3592  1.8606
  982MOL0     H32506   8.862   3.965   0.650 -2.6719  2.2803 -0.7802
  982MOL0     H32507   8.923   3.872   0.873 -0.9529  0.4220 -0.0627
  982MOL0     H32508   9.015   4.013   0.910 -0.9957 -0.5284  0.6335
  982MOL0     H32509   9.172   3.978   0.730 -0.0475 -1.1266 -1.3740
  982MOL0     H32510   9.078   3.842   0.670  0.8657 -0.5079  0.2811
  982MOL0     H32511   9.184   3.852   0.958 -0.1279 -1.5253  0.8089
  982MOL0     H32512   9.131   3.707   0.858 -0.4207 -0.3998  0.5479
  982MOL0     H32513   9.387   3.866   0.843 -2.6568  1.3531  1.7273
  982MOL0     H32514   9.372   3.704   0.882  1.5913  1.1131  0.8168
  982MOL0     H32515   9.325   3.649   0.629  0.1985 -0.6243 -1.5014
  982MOL0     H32516   9.293   3.834   0.626  1.1998  0.9572  3.1105
  982MOL0     H32517   9.544   3.688   0.692  0.4171  1.2047  1.1945
  982MOL0     H32518   9.520   3.870   0.666 -0.7469  0.5372  0.1299
  982MOL0     H32519   9.456   3.668   0.445 -0.8551  0.4380  1.1366
  982MOL0     H32520   9.481   3.835   0.431 -2.9832 -0.1271  0.3986
  982MOL0     H32521   9.731   3.878   0.417  2.1181  0.2710  0.5542
  982MOL0     H32522  10.016   3.804   0.328  0.3796 -1.2113 -0.7198
  982MOL0     H32523  10.043   3.816   0.506  0.5503 -1.2538  0.9670
  982MOL0     H32524  10.202   3.678   0.430 -0.5944  0.7219  0.5138
  982MOL0     H32525  10.101   3.574   0.514 -0.5283 -1.6711 -1.9256
  982MOL0     H32526  10.096   3.595   0.205  0.7848 -1.1599 -0.3642
  982MOL0     H32527  10.013   3.475   0.310 -1.9171  1.3741 -1.3095
  982MOL0     H32528  10.214   3.376   0.231 -1.8068 -0.1033 -0.7837
  982MOL0     H32529  10.243   3.412   0.397 -2.4566 -2.8579 -1.2051
  982MOL0     H32530  10.347   3.359   0.058 -0.2218 -1.2741 -0.2855
  982MOL0     H32531  10.544   3.293  -0.056 -2.2062 -1.5328  1.1775
  982MOL0     H32532  11.027   3.538  -0.240  0.7484  1.1588  1.5862
  982MOL0     H32533  11.245   3.455  -0.322  0.9232  0.1614 -0.1274
  982MOL0     H32534  11.373   3.070  -0.164  1.4061  1.1044  1.1129
  982MOL0     H32535  11.332   3.111  -0.337 -1.6591  0.0072  0.0319
  982MOL0     H32536  11.604   3.164  -0.225 -3.9414  2.2791  1.6893
  982MOL0     H32537  11.572   2.992  -0.271  0.6416  0.0334 -3.6163
  982MOL0     H32538  11.523   3.016  -0.477 -0.0825 -0.9115  5.2816
  982MOL0     H32539  11.541   3.203  -0.480 -0.2307 -0.2877 -2.7351
  982MOL0     H32540  11.761   3.009  -0.401  0.8502 -0.5197  0.0567
  982MOL0     H32541  11.778   3.178  -0.422  0.7333 -0.4843 -1.4740
  982MOL0     H32542  11.723   3.171  -0.662 -1.4627  1.4412  1.1811
  982MOL0     H32543  11.725   2.990  -0.650  1.2284 -1.2677  2.3869
  982MOL0     H32544  11.970   3.015  -0.538  0.8720  0.4120 -0.5378
  982MOL0     H32545  11.942   3.025  -0.713 -1.0401  0.6422  0.6079
  982MOL0     H32546  11.966   3.253  -0.517 -0.0636 -1.9106  1.7159
  982MOL0     H32547  11.947   3.279  -0.690  0.7093  0.1331  0.4960
  982MOL0     H32548  12.209   3.262  -0.597  1.0979 -2.0105  1.0429
  982MOL0     H32549  12.167   3.095  -0.567  2.1873  0.6377 -0.0459
  982MOL0     H32550  11.233   3.158  -0.003 -3.6281 -0.1268  2.9397
  982MOL0     H32551  11.057   3.276   0.096  2.6389 -1.9505 -0.0199
  982MOL0     H32552  10.787   3.514   0.227 -1.1830  3.0541  0.1629
  982MOL0     H32553  10.596   3.593   0.329  0.9729  0.1123 -0.2267
  982MOL0     H32554   8.710   4.167   0.580 -1.3970  0.4307 -0.8759
  982MOL0     H32555   8.630   4.305   0.368 -1.1814 -1.8391  0.7530
  982MOL0     H32556   8.644   4.311  -0.132 -2.1987  0.4218 -1.7585
  982MOL0     H32557   8.630   4.408  -0.336  0.8363 -1.9714  0.4641
  982MOL0     H32558   8.923   4.768  -0.406 -0.2737  1.6990 -1.0881
  982MOL0     H32559   8.848   4.759  -0.569  0.6555  1.9245  0.7953
  982MOL0     H32560   9.016   4.533  -0.438 -0.1200  0.0675  0.2266
  982MOL0     H32561   9.087   4.664  -0.522 -0.0230  0.6368  0.7777
  982MOL0     H32562   8.872   4.530  -0.686 -0.8376 -1.7202  1.9114
  982MOL0     H32563   9.015   4.430  -0.644 -1.0955  0.0174 -0.1129
  982MOL0     H32564   9.085   4.698  -0.763 -2.3857 -0.4968 -3.2495
  982MOL0     H32565   9.180   4.560  -0.728  1.1531  0.5775 -0.4375
  982MOL0     H32566   8.895   4.503  -1.066 -0.6852 -1.8612  1.5641
  982MOL0     H32567   8.926   4.711  -0.217  2.7307 -0.5475  0.8730
  982MOL0     H32568   9.004   4.721  -0.007  1.4224 -0.3003 -0.3613
  982MOL0     H32569   8.890   4.677   0.122 -4.4214  0.1883 -1.6120
  982MOL0     H32570   9.028   4.568   0.068  1.7459  2.0329 -2.1902
  983MOL0     O32571   2.220   1.651  11.143 -0.7148 -0.0187 -0.7415
  983MOL0     C32572   2.206   1.615  11.032  0.0780  0.2214 -0.7529
  983MOL0     O32573   2.289   1.516  10.973 -0.0409 -0.5347 -0.4806
  983MOL0     C32574   2.412   1.482  11.023  0.3970 -0.2952  0.3182
  983MOL0     C32575   2.447   1.356  11.069  0.3707 -0.4559  0.0514
  983MOL0     C32576   2.580   1.338  11.111  0.3676 -0.5743 -0.6015
  983MOL0     C32577   2.670   1.446  11.132  0.2623 -0.2864  0.4296
  983MOL0     O32578   2.802   1.422  11.168 -0.2103 -0.5642  0.6379
  983MOL0     C32579   2.896   1.362  11.070  0.0389 -0.2502  0.0076
  983MOL0     C32580   2.912   1.445  10.947 -0.1493  0.8870  0.3506
  983MOL0     C32581   2.954   1.596  10.978 -1.0365 -0.0928 -0.3857
  983MOL0     C32582   3.048   1.616  11.112 -0.1212  0.7953 -0.7454
  983MOL0     C32583   3.081   1.765  11.147 -0.1564  0.0122 -0.8147
  983MOL0     C32584   3.173   1.852  11.061  0.5661 -0.1938 -0.6078
  983MOL0     C32585   3.312   1.784  11.056 -0.8593  0.0235 -0.1075
  983MOL0     C32586   3.413   1.883  11.115  0.0696 -0.1298  0.3409
  983MOL0     N32587   3.422   2.010  11.042  0.0152  0.3018 -0.2225
  983MOL0     C32588   3.507   2.030  10.945  0.4645 -0.0946  0.0333
  983MOL0     C32589   3.497   2.163  10.915  0.2024 -0.3772 -0.3792
  983MOL0     C32590   3.587   2.231  10.817  0.3255 -0.6759  0.6434
  983MOL0     C32591   3.517   2.354  10.750  0.3488 -0.1493  0.1893
  983MOL0     C32592   3.611   2.471  10.698  0.5803 -0.1273  0.8027
  983MOL0     C32593   3.699   2.421  10.592  0.8142  0.1685 -0.7509
  983MOL0     O32594   3.824   2.362  10.630  0.0767  0.2962 -0.2363
  983MOL0     C32595   3.922   2.425  10.699 -0.9074 -0.0233  0.4546
  983MOL0     C32596   4.016   2.352  10.766 -0.8584  0.7822 -0.1334
  983MOL0     C32597   4.103   2.423  10.856 -0.2106 -0.8945  0.1790
  983MOL0     C32598   4.117   2.557  10.857 -0.5908  0.0944 -0.1020
  983MOL0     C32599   4.227   2.628  10.920  0.7378 -0.1540 -0.5885
  983MOL0     O32600   4.230   2.767  10.904 -0.1650 -0.2959 -0.8984
  983MOL0     C32601   4.308   2.853  10.973  0.1426  0.3861 -0.1475
  983MOL0     C32602   4.247   2.970  11.026 -0.8119  0.6023 -0.0089
  983MOL0     C32603   4.327   3.057  11.102  0.8797 -0.4019  0.2177
  983MOL0     C32604   4.464   3.036  11.118  0.1503  0.1732 -0.8388
  983MOL0     O32605   4.550   3.125  11.169  0.7925  0.4678 -0.0430
  983MOL0     C32606   4.514   3.244  11.239  0.0211  0.3016  0.1572
  983MOL0     C32607   4.631   3.330  11.281  0.4558  0.2952 -0.2268
  983MOL0     C32608   4.624   3.380  11.423  0.3655  0.2554  0.1926
  983MOL0     C32609   4.721   3.503  11.452  0.1455  0.4562 -0.1998
  983MOL0     C32610   4.710   3.553  11.601  0.1682  0.0066  0.0447
  983MOL0     C32611   4.605   3.662  11.632  0.4785 -0.2010  0.1873
  983MOL0     C32612   4.573   3.666  11.783  0.5554 -0.8557 -0.0693
  983MOL0     C32613   4.499   3.803  11.808 -0.0464  0.8194 -0.5446
  983MOL0    Cl32614   4.328   3.797  11.744 -0.0712 -0.4278  0.2196
  983MOL0     C32615   4.514   2.920  11.064 -0.3260  1.0266 -0.0132
  983MOL0     C32616   4.446   2.828  10.987  0.9484 -0.0130  0.4274
  983MOL0     O32617   4.316   2.560  10.969  0.4014 -0.2860  0.1272
  983MOL0     C32618   4.024   2.632  10.787 -0.3420 -0.2631 -0.1619
  983MOL0     C32619   3.927   2.570  10.704  0.2141  0.5177  0.1989
  983MOL0     N32620   3.398   2.223  10.998 -0.8393  0.0450 -0.0689
  983MOL0     N32621   3.357   2.125  11.072 -0.1455  0.8455  0.0907
  983MOL0     C32622   2.621   1.576  11.094  0.0165 -0.9432  0.8122
  983MOL0     C32623   2.492   1.598  11.038  0.1753 -0.3803 -0.1949
  983MOL0     C32624   2.079   1.649  10.962  1.2428  0.3103 -0.2923
  983MOL0     C32625   2.003   1.551  10.893  0.1477  0.0623  0.4288
  983MOL0     C32626   1.880   1.582  10.830  0.3430  0.3042 -0.0799
  983MOL0     C32627   1.832   1.718  10.826 -0.5688 -0.0412  0.3457
  983MOL0     O32628   1.717   1.764  10.761  0.7194  0.5455  0.8330
  983MOL0     C32629   1.615   1.664  10.735  0.0496  0.3360 -1.3663
  983MOL0     C32630   1.554   1.625  10.868  0.3274  0.6313 -0.2965
  983MOL0     C32631   1.398   1.593  10.860 -0.5962  0.4177 -0.3846
  983MOL0     C32632   1.315   1.718  10.830 -0.1380  0.2057 -0.1991
  983MOL0     C32633   1.173   1.703  10.815  0.0819  0.1308 -1.0343
  983MOL0     C32634   1.057   1.692  10.780 -0.3056 -0.1963  1.0709
  983MOL0     C32635   1.910   1.812  10.892 -0.0549  0.2526 -0.7573
  983MOL0     C32636   2.033   1.778  10.957  0.7272 -0.4702  0.6626
  983MOL0     C32637   2.099   1.902  11.012 -0.0195 -0.5017 -1.5626
  983MOL0     H32638   2.371   1.281  11.085  2.5489 -2.9451 -0.4824
  983MOL0     H32639   2.602   1.233  11.127 -3.1357 -1.4262 -0.5108
  983MOL0     H32640   2.998   1.362  11.110  0.4526 -0.5236 -1.0284
  983MOL0     H32641   2.864   1.261  11.042  2.3112 -0.7067 -1.1873
  983MOL0     H32642   2.827   1.446  10.877 -0.8334 -1.0444  1.0896
  983MOL0     H32643   2.985   1.393  10.884 -2.3352 -1.6912 -0.2771
  983MOL0     H32644   2.869   1.665  10.976 -0.3310  0.8151 -0.0640
  983MOL0     H32645   3.028   1.617  10.900 -0.2751  1.9508  0.8123
  983MOL0     H32646   2.997   1.569  11.196 -1.2582 -0.0754 -1.8751
  983MOL0     H32647   3.139   1.556  11.117 -0.5446  0.2277  0.5439
  983MOL0     H32648   2.996   1.825  11.179  1.9540  2.9929 -0.3200
  983MOL0     H32649   3.133   1.761  11.243 -0.1114  1.7509 -0.7442
  983MOL0     H32650   3.121   1.872  10.967 -1.2462  0.3930  0.4794
  983MOL0     H32651   3.177   1.941  11.124 -0.2290  0.0270 -0.8525
  983MOL0     H32652   3.334   1.763  10.951 -3.1754 -2.5380 -0.2117
  983MOL0     H32653   3.312   1.692  11.116 -0.7587 -0.1487 -0.3690
  983MOL0     H32654   3.391   1.898  11.221  1.9984  2.1149  0.5164
  983MOL0     H32655   3.515   1.843  11.111 -1.2252 -3.6099 -2.4549
  983MOL0     H32656   3.576   1.957  10.902  0.3448  0.0669 -0.4449
  983MOL0     H32657   3.674   2.266  10.875 -2.3390  2.6430  3.0593
  983MOL0     H32658   3.622   2.159  10.743  1.3930 -0.1830  0.6423
  983MOL0     H32659   3.475   2.309  10.659  1.7792  1.2293 -1.2117
  983MOL0     H32660   3.438   2.392  10.815  0.5187 -1.7406  1.3839
  983MOL0     H32661   3.665   2.516  10.782  1.4962 -1.8091  1.1607
  983MOL0     H32662   3.546   2.547  10.654  1.5820  0.0220 -0.4554
  983MOL0     H32663   3.719   2.510  10.531 -1.0416  1.0518 -0.1280
  983MOL0     H32664   3.648   2.342  10.536  1.4087 -0.7781  0.0108
  983MOL0     H32665   3.999   2.245  10.764 -0.5468  0.7453 -1.4363
  983MOL0     H32666   4.167   2.372  10.928  0.4267  1.3383  1.3014
  983MOL0     H32667   4.139   2.974  11.023 -0.7717  1.3841 -0.6689
  983MOL0     H32668   4.291   3.148  11.149  1.2801  0.2535 -0.7155
  983MOL0     H32669   4.445   3.309  11.185 -0.2046  0.7652  0.9838
  983MOL0     H32670   4.468   3.202  11.329  1.2148 -1.3938  0.0091
  983MOL0     H32671   4.726   3.276  11.279  1.2459  1.6569 -0.9219
  983MOL0     H32672   4.635   3.410  11.206 -1.3205 -1.5352 -2.4112
  983MOL0     H32673   4.522   3.421  11.427  1.3086  2.8619 -0.4535
  983MOL0     H32674   4.642   3.297  11.492 -0.7833 -0.4762 -0.3467
  983MOL0     H32675   4.699   3.585  11.383  2.3701 -0.5741 -2.2414
  983MOL0     H32676   4.824   3.470  11.438 -0.0991  1.0325 -4.5845
  983MOL0     H32677   4.803   3.605  11.625 -2.2615  2.9827  4.4872
  983MOL0     H32678   4.708   3.469  11.672  2.3194  0.8218  1.1656
  983MOL0     H32679   4.646   3.760  11.603 -2.6586  2.0741  2.7990
  983MOL0     H32680   4.514   3.642  11.575 -0.0959 -0.5635  1.2102
  983MOL0     H32681   4.657   3.641  11.849  1.7005  0.3009 -1.0424
  983MOL0     H32682   4.506   3.588  11.818  0.0801 -1.4206 -2.0907
  983MOL0     H32683   4.489   3.811  11.917 -0.5274 -0.6905 -0.4549
  983MOL0     H32684   4.553   3.887  11.762 -0.5993  0.4691 -1.8981
  983MOL0     H32685   4.621   2.901  11.061 -0.6563 -1.4073  1.6283
  983MOL0     H32686   4.488   2.737  10.946 -0.0485 -0.6787  0.8572
  983MOL0     H32687   4.031   2.741  10.784  1.5180 -0.3297 -2.9199
  983MOL0     H32688   3.851   2.622  10.647  0.9592  1.0081 -0.3636
  983MOL0     H32689   2.694   1.656  11.106 -0.6119  0.2955 -2.5419
  983MOL0     H32690   2.458   1.694  11.001  0.3441 -0.2937 -0.1273
  983MOL0     H32691   2.040   1.449  10.891  0.4288  0.1657  0.2545
  983MOL0     H32692   1.827   1.507  10.772 -0.5881  1.1925 -0.3969
  983MOL0     H32693   1.652   1.576  10.682 -1.9030 -0.9891 -0.6575
  983MOL0     H32694   1.542   1.715  10.671  2.3034 -0.3067 -4.7302
  983MOL0     H32695   1.568   1.695  10.951 -4.5514 -1.1326  2.4419
  983MOL0     H32696   1.605   1.533  10.896 -1.1591 -0.5788 -1.3837
  983MOL0     H32697   1.364   1.557  10.958  4.3628  0.0060  1.5045
  983MOL0     H32698   1.375   1.515  10.787  2.2428  0.8051 -1.8202
  983MOL0     H32699   1.339   1.797  10.903  1.5257  1.1788 -1.7050
  983MOL0     H32700   1.345   1.765  10.736  0.0647  0.2896 -0.0944
  983MOL0     H32701   0.953   1.702  10.756 -0.3997  0.5610  1.7291
  983MOL0     H32702   1.878   1.915  10.900  0.0017  0.2880 -0.9829
  983MOL0     H32703   2.057   1.993  10.967 -1.5887 -0.0335  0.6864
  983MOL0     H32704   2.084   1.919  11.119 -0.5688  1.0691 -1.8604
  983MOL0     H32705   2.207   1.887  11.002 -0.0474 -1.6502 -0.3275
  984MOL0     O32706   1.997   2.049   7.378  0.2845  0.0278 -0.4356
  984MOL0     C32707   2.090   2.117   7.419  0.0731 -0.2903  0.4629
  984MOL0     O32708   2.204   2.145   7.357  0.1039  0.6206 -0.0652
  984MOL0     C32709   2.208   2.092   7.233 -1.2913 -0.1810  0.6580
  984MOL0     C32710   2.146   2.148   7.123 -0.2160 -0.0984 -0.3355
  984MOL0     C32711   2.149   2.087   7.001 -1.2976  0.2548  0.7370
  984MOL0     C32712   2.249   1.990   6.982 -0.7158  0.4380  0.9127
  984MOL0     O32713   2.288   1.935   6.862 -0.7453 -0.5844 -0.4011
  984MOL0     C32714   2.410   1.990   6.798 -0.0965 -0.2589 -0.0479
  984MOL0     C32715   2.378   2.104   6.706 -0.1668 -0.2014  0.4894
  984MOL0     C32716   2.325   2.054   6.570 -0.2075 -0.1687  0.2989
  984MOL0     C32717   2.188   1.977   6.576 -0.1615  0.1213  0.2583
  984MOL0     C32718   2.130   1.954   6.440 -0.1823 -0.1646  0.8126
  984MOL0     C32719   1.990   1.900   6.442 -0.4125  0.7800  0.4094
  984MOL0     C32720   1.932   1.871   6.299  0.3374  0.1654  0.5294
  984MOL0     C32721   1.797   1.789   6.308 -0.4474 -0.7795 -0.2972
  984MOL0     N32722   1.811   1.663   6.376  0.1393  0.4600  0.0123
  984MOL0     C32723   1.756   1.631   6.504  0.4177 -0.2755 -0.0360
  984MOL0     C32724   1.775   1.498   6.509  0.3868  0.1354  1.1963
  984MOL0     C32725   1.764   1.415   6.639  0.6604 -0.2539  0.1603
  984MOL0     C32726   1.845   1.285   6.602  0.4647 -0.2456  0.1263
  984MOL0     C32727   1.882   1.207   6.725  0.5532  0.0464 -0.0234
  984MOL0     C32728   1.921   1.058   6.715  0.7319 -0.2113 -0.8021
  984MOL0     O32729   2.007   1.031   6.601 -0.9434  0.3569  0.4877
  984MOL0     C32730   2.143   1.080   6.600 -0.3531 -0.3019  0.5991
  984MOL0     C32731   2.218   1.084   6.478  0.4867 -0.2755 -0.7576
  984MOL0     C32732   2.346   1.140   6.473  0.9519  0.4133 -0.1573
  984MOL0     C32733   2.404   1.195   6.583 -0.2722  0.0335  0.9153
  984MOL0     C32734   2.542   1.261   6.558 -0.6958 -0.2406 -1.3318
  984MOL0     O32735   2.600   1.316   6.668  0.2523  0.0641  0.0061
  984MOL0     C32736   2.698   1.408   6.646  0.2057  0.7290 -1.1219
  984MOL0     C32737   2.830   1.367   6.608  0.3609  1.1761 -0.3753
  984MOL0     C32738   2.929   1.459   6.583  0.0047 -0.6543  0.0835
  984MOL0     C32739   2.903   1.600   6.591 -0.2699 -0.2332 -0.2011
  984MOL0     O32740   3.017   1.680   6.558 -0.2855 -0.2985  0.5304
  984MOL0     C32741   3.045   1.784   6.654 -0.6226  0.2243 -0.4737
  984MOL0     C32742   3.188   1.827   6.638  0.0528 -0.3383 -0.2730
  984MOL0     C32743   3.247   1.920   6.753 -0.0965  0.0176  0.0607
  984MOL0     C32744   3.151   2.047   6.792 -0.9382  0.4694 -0.1757
  984MOL0     C32745   3.235   2.145   6.880  0.7648 -0.1017  0.3006
  984MOL0     C32746   3.162   2.272   6.900  0.6491  0.5300  1.0344
  984MOL0     C32747   3.258   2.373   6.975 -0.3841  0.4035  0.2160
  984MOL0     C32748   3.154   2.473   7.039  0.2247  0.0394  0.2089
  984MOL0    Cl32749   3.220   2.629   7.070 -0.0033 -0.5648 -0.3388
  984MOL0     C32750   2.775   1.646   6.639 -0.5935 -0.8209 -0.8877
  984MOL0     C32751   2.668   1.546   6.662 -0.3657 -0.5324 -0.3594
  984MOL0     O32752   2.589   1.263   6.447  0.3880  0.5753  0.4493
  984MOL0     C32753   2.336   1.193   6.706  0.3974 -0.0120 -0.3055
  984MOL0     C32754   2.208   1.133   6.715 -0.4655  0.5972 -1.8901
  984MOL0     N32755   1.827   1.455   6.385  0.6827 -0.5056  0.1498
  984MOL0     N32756   1.859   1.552   6.315  0.6484 -0.2862  0.9047
  984MOL0     C32757   2.327   1.939   7.092 -0.5869 -0.2262  0.5723
  984MOL0     C32758   2.300   1.996   7.214 -0.6994 -0.5221  0.2050
  984MOL0     C32759   2.080   2.155   7.566 -0.2773 -1.1158  0.2575
  984MOL0     C32760   2.199   2.139   7.637 -0.1345 -0.1370  0.1092
  984MOL0     C32761   2.212   2.170   7.768  0.1860 -0.0548  0.0654
  984MOL0     C32762   2.118   2.242   7.827  0.7066 -0.3143 -0.0924
  984MOL0     O32763   2.110   2.286   7.955  0.4216 -0.4918  0.4600
  984MOL0     C32764   2.199   2.239   8.055 -0.2785  0.5901  0.4767
  984MOL0     C32765   2.342   2.312   8.055 -0.1452 -0.0734  1.1620
  984MOL0     C32766   2.455   2.236   8.124 -0.3991  0.4398 -0.0442
  984MOL0     C32767   2.422   2.199   8.268 -0.7982 -0.3553  0.1534
  984MOL0     C32768   2.529   2.117   8.318  0.0002 -0.3893  0.7975
  984MOL0     C32769   2.616   2.045   8.352 -0.1028 -0.3148 -0.2807
  984MOL0     C32770   1.994   2.274   7.757  0.0474 -0.1630 -0.2492
  984MOL0     C32771   1.974   2.228   7.627 -0.9447 -0.1937 -0.1392
  984MOL0     C32772   1.842   2.234   7.566  0.6974 -0.7580 -0.6927
  984MOL0     H32773   2.080   2.231   7.148 -0.2274 -0.6988  1.7748
  984MOL0     H32774   2.078   2.104   6.921  0.9754  0.9653 -1.2461
  984MOL0     H32775   2.478   2.030   6.873 -0.0214  0.9572 -0.7391
  984MOL0     H32776   2.459   1.911   6.742  1.4048 -0.4724  1.4971
  984MOL0     H32777   2.471   2.160   6.689 -2.8624  4.4423 -0.7166
  984MOL0     H32778   2.310   2.178   6.749 -0.3676  1.3537 -2.3037
  984MOL0     H32779   2.403   1.994   6.522  0.7340  0.6298  0.8225
  984MOL0     H32780   2.304   2.144   6.511  0.0221  1.3657  2.4404
  984MOL0     H32781   2.218   1.883   6.624 -2.3727 -1.1552 -0.7333
  984MOL0     H32782   2.120   2.038   6.636  1.6917  1.5964  0.9977
  984MOL0     H32783   2.143   2.045   6.380 -1.7262 -0.4239  0.0213
  984MOL0     H32784   2.196   1.883   6.390  1.0604 -0.0266  2.1829
  984MOL0     H32785   1.989   1.808   6.500 -0.0025  0.1969 -0.4824
  984MOL0     H32786   1.941   1.976   6.502  1.8570  2.0773  0.7530
  984MOL0     H32787   1.996   1.807   6.240 -1.2346 -0.4282 -0.5960
  984MOL0     H32788   1.910   1.959   6.237  2.3803 -0.2996 -0.9332
  984MOL0     H32789   1.729   1.853   6.364 -2.3065 -0.9346 -2.2247
  984MOL0     H32790   1.749   1.778   6.210 -1.9024 -1.4716  0.4580
  984MOL0     H32791   1.741   1.698   6.588  0.1664 -0.0357 -0.2727
  984MOL0     H32792   1.806   1.468   6.726  0.0107 -0.1516  0.4205
  984MOL0     H32793   1.656   1.414   6.661  0.8896  0.6378  1.4964
  984MOL0     H32794   1.767   1.221   6.558  0.4865 -0.6930  0.7326
  984MOL0     H32795   1.924   1.307   6.530 -1.3169  3.5504 -0.9528
  984MOL0     H32796   1.802   1.208   6.801  1.6244 -1.8524  1.2060
  984MOL0     H32797   1.967   1.258   6.771  2.1116 -0.4587 -2.1952
  984MOL0     H32798   1.828   1.007   6.692 -0.9075  1.6222  1.2979
  984MOL0     H32799   1.957   1.012   6.808  0.6073  0.8620 -0.2045
  984MOL0     H32800   2.163   1.037   6.397 -1.2765  2.0742 -1.0322
  984MOL0     H32801   2.398   1.136   6.377  0.9404  0.0785 -0.1511
  984MOL0     H32802   2.851   1.261   6.602  0.9159  1.3532 -1.8976
  984MOL0     H32803   3.028   1.443   6.542  1.7452  2.5008  2.5657
  984MOL0     H32804   2.978   1.866   6.628 -3.1295 -1.6201 -0.2281
  984MOL0     H32805   3.032   1.751   6.758 -0.1004  0.7285 -0.2470
  984MOL0     H32806   3.237   1.730   6.621 -1.1590 -0.7804 -1.3852
  984MOL0     H32807   3.195   1.887   6.547  3.1601  0.4459  0.3637
  984MOL0     H32808   3.276   1.863   6.842 -0.6763 -0.4518 -0.0443
  984MOL0     H32809   3.342   1.962   6.721 -0.7911  1.1787 -0.5431
  984MOL0     H32810   3.064   2.008   6.846 -1.7029  1.0795 -0.9377
  984MOL0     H32811   3.114   2.088   6.698  3.7806  2.1491 -1.6069
  984MOL0     H32812   3.330   2.167   6.830  1.1875 -0.0988  1.0912
  984MOL0     H32813   3.246   2.099   6.978  0.9062 -1.3042 -0.2643
  984MOL0     H32814   3.127   2.317   6.806  2.8689  1.4318  0.5567
  984MOL0     H32815   3.073   2.250   6.958 -0.0281 -0.8633 -0.4529
  984MOL0     H32816   3.315   2.431   6.902  1.4944 -2.4276 -0.6998
  984MOL0     H32817   3.325   2.327   7.049  1.6703  0.1411 -1.7083
  984MOL0     H32818   3.056   2.480   6.990 -0.0333 -6.0881 -0.8898
  984MOL0     H32819   3.122   2.425   7.131 -2.6990  0.7422 -0.3385
  984MOL0     H32820   2.774   1.744   6.685 -0.4748 -1.7313  1.1668
  984MOL0     H32821   2.581   1.568   6.723  0.2920 -2.0923  1.2432
  984MOL0     H32822   2.383   1.234   6.795 -1.9730  1.7212  0.2383
  984MOL0     H32823   2.153   1.129   6.809  1.6518  0.1276 -0.5990
  984MOL0     H32824   2.405   1.864   7.085  0.6658  0.9481  1.5428
  984MOL0     H32825   2.372   1.974   7.292 -0.8380 -1.4762  0.0769
  984MOL0     H32826   2.277   2.084   7.584  0.0295 -0.7571  0.9674
  984MOL0     H32827   2.309   2.151   7.814  0.8831 -1.0669 -1.7147
  984MOL0     H32828   2.215   2.133   8.036 -0.9914  0.3812  1.0061
  984MOL0     H32829   2.148   2.242   8.152 -0.5023 -1.1138  0.4301
  984MOL0     H32830   2.317   2.409   8.100 -1.9209  0.0260  0.0679
  984MOL0     H32831   2.379   2.330   7.954  1.6927  0.1046  1.8290
  984MOL0     H32832   2.548   2.293   8.118  0.3516 -0.4875  2.0787
  984MOL0     H32833   2.471   2.139   8.075  1.0261  0.1712  0.9070
  984MOL0     H32834   2.410   2.287   8.332  1.3626 -0.3974  0.6956
  984MOL0     H32835   2.324   2.153   8.285 -2.3791  2.9268  0.8384
  984MOL0     H32836   2.688   1.973   8.385 -0.1845 -0.0661  0.4555
  984MOL0     H32837   1.916   2.326   7.812  1.3574 -1.3880  2.9791
  984MOL0     H32838   1.844   2.253   7.458  0.3119  0.6419 -0.4761
  984MOL0     H32839   1.795   2.136   7.568 -0.9808 -0.0168  2.2405
  984MOL0     H32840   1.773   2.302   7.617 -0.4476 -3.1068  1.0108
  985MOL0     O32841   3.401   0.285   4.312  0.3938  0.1933 -0.0947
  985MOL0     C32842   3.443   0.386   4.370  0.0750 -0.2799 -0.1448
  985MOL0     O32843   3.559   0.394   4.442  0.6308 -0.0971  0.3074
  985MOL0     C32844   3.673   0.317   4.419 -0.4381 -0.2325 -0.1791
  985MOL0     C32845   3.690   0.223   4.312 -0.3517  0.1296  0.8367
  985MOL0     C32846   3.819   0.177   4.275  0.5794  0.2262  0.1752
  985MOL0     C32847   3.931   0.226   4.346 -0.2993  0.1014  0.8233
  985MOL0     O32848   4.053   0.179   4.303 -0.1225  0.2852  0.8571
  985MOL0     C32849   4.139   0.138   4.414  0.2061  0.1196  0.4483
  985MOL0     C32850   4.281   0.197   4.391  0.5330 -0.9790  0.2723
  985MOL0     C32851   4.290   0.338   4.438  0.1883  0.3691  0.3011
  985MOL0     C32852   4.442   0.392   4.442 -0.3812 -0.4573 -0.5464
  985MOL0     C32853   4.442   0.508   4.547 -0.9637  0.4531  0.6062
  985MOL0     C32854   4.574   0.598   4.538  0.3748  0.8010  0.6081
  985MOL0     C32855   4.541   0.722   4.609  0.2709 -0.2334  0.0838
  985MOL0     C32856   4.525   0.702   4.759 -0.0477 -0.0969 -1.0270
  985MOL0     N32857   4.649   0.653   4.836  0.2339  0.1735  0.5468
  985MOL0     C32858   4.776   0.676   4.789 -0.2816 -0.8694 -0.7115
  985MOL0     C32859   4.855   0.592   4.869 -0.4437 -0.1809  0.5951
  985MOL0     C32860   5.008   0.565   4.857 -0.6630 -0.1748  0.0946
  985MOL0     C32861   5.075   0.468   4.964 -0.0810 -0.6179  0.4078
  985MOL0     C32862   5.225   0.460   4.945  0.8933 -0.5475 -0.1445
  985MOL0     C32863   5.248   0.369   4.826  0.1976 -0.1425  0.0189
  985MOL0     O32864   5.208   0.232   4.841  0.0988  0.1561  0.1438
  985MOL0     C32865   5.317   0.144   4.821  0.7332 -0.9012  0.6793
  985MOL0     C32866   5.435   0.138   4.899 -0.6144  0.3080 -0.2122
  985MOL0     C32867   5.545   0.059   4.862 -0.4125  0.5054 -0.3869
  985MOL0     C32868   5.540  -0.022   4.746 -0.8563  0.6579  0.0871
  985MOL0     C32869   5.660  -0.098   4.708  0.2572  1.3521  0.1415
  985MOL0     O32870   5.781  -0.085   4.765 -0.3630 -0.4212 -0.2322
  985MOL0     C32871   5.875  -0.189   4.768  0.2250  0.1701  0.5685
  985MOL0     C32872   5.976  -0.166   4.852  0.0706 -0.0234 -0.3431
  985MOL0     C32873   6.087  -0.242   4.861  0.2857 -0.0416  0.6926
  985MOL0     C32874   6.098  -0.356   4.791  0.1405 -0.5317  0.3225
  985MOL0     O32875   6.216  -0.443   4.797 -0.4368  0.0179  0.2989
  985MOL0     C32876   6.343  -0.393   4.848  0.0002 -0.6467 -0.5422
  985MOL0     C32877   6.434  -0.368   4.727  0.6509 -0.3395  0.9430
  985MOL0     C32878   6.381  -0.258   4.630 -0.3735  0.4055 -0.2149
  985MOL0     C32879   6.398  -0.116   4.690  0.8613  0.4694 -0.0038
  985MOL0     C32880   6.376   0.007   4.605 -0.3212  0.2324  0.2664
  985MOL0     C32881   6.223   0.046   4.585 -1.1457 -0.0919 -0.4250
  985MOL0     C32882   6.218   0.184   4.523  0.0607 -0.6771 -0.0578
  985MOL0     C32883   6.090   0.220   4.456 -0.2641 -0.3084  0.2316
  985MOL0    Cl32884   5.964   0.218   4.577 -0.0610 -0.1858 -0.7920
  985MOL0     C32885   5.997  -0.395   4.694 -1.1220 -0.5641 -0.3586
  985MOL0     C32886   5.891  -0.302   4.681  0.0581  0.5416  0.3058
  985MOL0     O32887   5.633  -0.184   4.623  0.4534  0.1254  0.9858
  985MOL0     C32888   5.419  -0.018   4.672 -0.4242  0.6734 -0.7447
  985MOL0     C32889   5.310   0.055   4.714  0.6232  0.0349 -0.2038
  985MOL0     N32890   4.766   0.542   4.966  0.5297  0.0397  1.1888
  985MOL0     N32891   4.641   0.573   4.940 -1.4277  0.3746 -0.6014
  985MOL0     C32892   3.914   0.319   4.451  0.1534  0.0234  0.0800
  985MOL0     C32893   3.784   0.362   4.490 -0.0118  0.5535  0.0842
  985MOL0     C32894   3.368   0.509   4.361 -0.4614  1.2980 -0.2144
  985MOL0     C32895   3.428   0.631   4.353  0.4826  0.4754  0.1623
  985MOL0     C32896   3.361   0.747   4.317 -0.5142 -0.0596  1.2334
  985MOL0     C32897   3.217   0.749   4.301 -0.3729  0.2014 -0.1071
  985MOL0     O32898   3.152   0.872   4.286  0.0284  0.0778  0.5508
  985MOL0     C32899   3.054   0.916   4.382  0.3905  0.2467 -0.1393
  985MOL0     C32900   3.115   0.971   4.510 -0.3860  0.1840 -0.0292
  985MOL0     C32901   3.227   1.078   4.481 -0.4242 -0.1761 -0.7020
  985MOL0     C32902   3.278   1.131   4.622  0.8280 -0.7376  0.0182
  985MOL0     C32903   3.346   1.038   4.704 -0.3742 -0.1265  0.4152
  985MOL0     C32904   3.389   0.951   4.772 -0.6094 -0.8162  0.0900
  985MOL0     C32905   3.155   0.633   4.335  0.4689  0.5214 -0.3154
  985MOL0     C32906   3.224   0.515   4.357 -0.0076  0.6761  0.1613
  985MOL0     C32907   3.135   0.398   4.385 -0.0126  0.3976 -0.3080
  985MOL0     H32908   3.604   0.194   4.253  1.1466 -0.1300 -1.3532
  985MOL0     H32909   3.839   0.101   4.200  1.0660  0.9008 -0.3983
  985MOL0     H32910   4.105   0.170   4.513  0.3546 -1.7401  1.1353
  985MOL0     H32911   4.145   0.030   4.398  1.2775  0.4476 -1.7050
  985MOL0     H32912   4.324   0.168   4.295  1.4458  0.4419  0.2174
  985MOL0     H32913   4.356   0.143   4.450  2.6604  0.9876 -0.4483
  985MOL0     H32914   4.252   0.342   4.541  2.0174 -2.1075  1.1645
  985MOL0     H32915   4.230   0.395   4.366 -0.8786  1.3541  1.9151
  985MOL0     H32916   4.506   0.310   4.476  2.5621  1.7108 -0.5824
  985MOL0     H32917   4.473   0.432   4.346  1.6704  1.9933  1.0326
  985MOL0     H32918   4.346   0.558   4.540 -0.2401  1.9916  1.2825
  985MOL0     H32919   4.440   0.456   4.643  0.4457  0.0384  0.4392
  985MOL0     H32920   4.654   0.541   4.585 -0.3405 -1.7707 -1.0312
  985MOL0     H32921   4.591   0.626   4.433  0.1872 -2.5382 -0.4371
  985MOL0     H32922   4.461   0.773   4.556  1.8774  0.6223 -1.6627
  985MOL0     H32923   4.624   0.792   4.592 -0.2391  0.4802  0.4752
  985MOL0     H32924   4.499   0.797   4.807 -2.0812 -1.6620  1.2121
  985MOL0     H32925   4.444   0.632   4.780 -1.0238  1.4094  0.5224
  985MOL0     H32926   4.813   0.734   4.705 -1.2101  0.5361 -0.1633
  985MOL0     H32927   5.016   0.522   4.756 -0.6114 -0.0304  0.0361
  985MOL0     H32928   5.048   0.666   4.867 -0.5831 -0.3332  1.6288
  985MOL0     H32929   5.056   0.514   5.062  0.5384  0.6667 -0.0508
  985MOL0     H32930   5.027   0.370   4.965  1.7516 -1.5807 -0.2845
  985MOL0     H32931   5.270   0.420   5.036  0.0120  0.4773  0.7677
  985MOL0     H32932   5.261   0.563   4.933  3.0462 -1.0660  1.2979
  985MOL0     H32933   5.356   0.378   4.807  0.4830 -2.7065  0.1657
  985MOL0     H32934   5.202   0.402   4.732  1.8268 -1.1437 -1.2008
  985MOL0     H32935   5.427   0.203   4.986  2.3560  1.2153 -0.5228
  985MOL0     H32936   5.630   0.071   4.928 -1.5384  3.6169  0.6233
  985MOL0     H32937   5.983  -0.077   4.914 -1.3067 -1.9016  2.7341
  985MOL0     H32938   6.168  -0.231   4.932  1.9032  0.2095 -1.1111
  985MOL0     H32939   6.351  -0.309   4.917 -0.2875 -0.1852 -1.0555
  985MOL0     H32940   6.397  -0.477   4.891  0.1727 -1.4860 -2.2922
  985MOL0     H32941   6.527  -0.322   4.761 -0.0792  2.2399 -0.2155
  985MOL0     H32942   6.449  -0.464   4.678 -0.0715 -0.2554  0.5279
  985MOL0     H32943   6.434  -0.278   4.537 -0.3677 -0.7302  0.0123
  985MOL0     H32944   6.275  -0.272   4.608 -0.1265  3.8324 -5.4252
  985MOL0     H32945   6.495  -0.102   4.738  1.7906 -0.6876 -1.4204
  985MOL0     H32946   6.323  -0.114   4.769  2.9987  1.8736  2.1370
  985MOL0     H32947   6.416   0.000   4.504 -1.5080 -0.7203 -0.1596
  985MOL0     H32948   6.407   0.098   4.658  1.3328 -2.3823  4.2203
  985MOL0     H32949   6.177  -0.021   4.512 -0.6102 -1.0542  0.0979
  985MOL0     H32950   6.167   0.034   4.679  1.1477  1.6557  1.2837
  985MOL0     H32951   6.305   0.199   4.459  2.6027 -0.7250  3.1067
  985MOL0     H32952   6.222   0.250   4.610  0.6395  0.7477 -1.1342
  985MOL0     H32953   6.096   0.316   4.405  0.5785  1.1346  2.8591
  985MOL0     H32954   6.069   0.143   4.381  1.2318 -1.0624  0.5498
  985MOL0     H32955   6.006  -0.472   4.619 -6.8832 -0.3457 -1.6910
  985MOL0     H32956   5.816  -0.321   4.605 -1.8485  0.7186  2.0552
  985MOL0     H32957   5.412  -0.090   4.591  3.3711 -0.9880  0.1587
  985MOL0     H32958   5.219   0.044   4.657 -1.0490 -0.3458  2.3769
  985MOL0     H32959   4.001   0.367   4.494  0.3075  1.8997 -2.1549
  985MOL0     H32960   3.772   0.443   4.561  1.5598  0.7014  0.2265
  985MOL0     H32961   3.537   0.635   4.360  0.3956  1.2863  1.4834
  985MOL0     H32962   3.410   0.840   4.290 -1.3941 -0.2842 -1.5107
  985MOL0     H32963   3.002   0.823   4.408  0.6523 -0.2061 -1.2101
  985MOL0     H32964   2.972   0.980   4.348 -0.1412 -0.3422 -0.0013
  985MOL0     H32965   3.165   0.885   4.554  1.7071 -0.4677 -3.3090
  985MOL0     H32966   3.035   1.012   4.573 -0.5327  0.1804 -0.2088
  985MOL0     H32967   3.188   1.163   4.424  0.3015  0.5106 -0.1974
  985MOL0     H32968   3.297   1.029   4.413  0.9213  1.1825 -0.3471
  985MOL0     H32969   3.346   1.217   4.615  0.7213 -0.7968 -3.5497
  985MOL0     H32970   3.190   1.170   4.674  0.2153 -0.4239 -1.2110
  985MOL0     H32971   3.425   0.868   4.830 -3.0459 -5.6312 -4.3996
  985MOL0     H32972   3.047   0.630   4.326  0.3518  0.2243  1.0147
  985MOL0     H32973   3.176   0.316   4.443 -2.2122  0.9557  2.2307
  985MOL0     H32974   3.043   0.433   4.433  0.7330  2.5286 -0.3002
  985MOL0     H32975   3.100   0.362   4.288  0.9305 -0.1554 -0.4526
  986MOL0     O32976   6.923   1.574   4.751  0.1400 -0.2439  0.6660
  986MOL0     C32977   6.870   1.589   4.863 -0.0135 -0.8654 -0.2584
  986MOL0     O32978   6.937   1.633   4.973 -0.1592 -0.0430  0.4907
  986MOL0     C32979   7.067   1.667   4.966 -0.0129 -0.4054 -0.4022
  986MOL0     C32980   7.162   1.596   5.026 -0.7704 -0.3803 -0.4305
  986MOL0     C32981   7.297   1.623   5.031  0.0125 -0.4182  0.3147
  986MOL0     C32982   7.348   1.734   4.966 -0.5780  0.0473 -0.8691
  986MOL0     O32983   7.477   1.784   4.972 -0.0616  0.0615 -0.1973
  986MOL0     C32984   7.577   1.724   5.058  0.0446 -0.0588  0.5652
  986MOL0     C32985   7.707   1.764   4.997 -0.2043 -0.5039  0.7011
  986MOL0     C32986   7.745   1.684   4.865 -0.2681 -0.6379 -0.1176
  986MOL0     C32987   7.837   1.570   4.899 -0.7740  0.0966  0.0095
  986MOL0     C32988   7.871   1.461   4.789 -0.5107 -1.0040 -0.4725
  986MOL0     C32989   7.799   1.322   4.810 -0.7535 -0.0882  0.7033
  986MOL0     C32990   7.646   1.331   4.775 -0.4323 -0.9299 -0.8245
  986MOL0     C32991   7.570   1.214   4.816 -0.1264  0.3513 -0.6366
  986MOL0     N32992   7.424   1.242   4.835 -0.4435  0.5618  0.4973
  986MOL0     C32993   7.325   1.239   4.742  0.0106  0.4113  0.0141
  986MOL0     C32994   7.210   1.255   4.814  0.2952  0.6496 -0.0180
  986MOL0     C32995   7.071   1.236   4.760  0.2537  0.0453  0.7530
  986MOL0     C32996   7.023   1.093   4.813 -0.1013  0.9010 -0.0506
  986MOL0     C32997   6.953   1.104   4.950  0.1513  0.3115  0.2544
  986MOL0     C32998   6.941   0.960   5.006  0.1443  0.1990 -0.2385
  986MOL0     O32999   6.829   0.896   4.947  0.1644  0.2635  0.9284
  986MOL0     C33000   6.701   0.922   4.984  0.8184  0.4217  0.2418
  986MOL0     C33001   6.673   1.011   5.088 -0.3449 -0.8847  0.6000
  986MOL0     C33002   6.543   1.054   5.131  0.3601  1.0081  0.3267
  986MOL0     C33003   6.436   0.982   5.077  0.4592 -0.0893  0.6441
  986MOL0     C33004   6.298   1.019   5.119 -0.6367  0.1332 -0.2261
  986MOL0     O33005   6.192   0.937   5.087  0.5967  0.4251 -0.7647
  986MOL0     C33006   6.070   0.964   5.148 -0.2809  0.3386  0.1497
  986MOL0     C33007   5.969   1.019   5.078 -0.2252  0.4716  0.3421
  986MOL0     C33008   5.843   1.036   5.135  0.0825 -0.9868 -0.7421
  986MOL0     C33009   5.825   1.019   5.266 -0.2510  0.2262 -0.8275
  986MOL0     O33010   5.708   1.034   5.328 -0.0255  0.3289 -0.6973
  986MOL0     C33011   5.633   1.150   5.289  0.1285  0.3328  0.3248
  986MOL0     C33012   5.714   1.281   5.330 -0.4183  0.9620  0.2563
  986MOL0     C33013   5.637   1.418   5.330  0.2410 -0.9239 -0.1140
  986MOL0     C33014   5.585   1.446   5.193  0.1991  0.1095  0.1311
  986MOL0     C33015   5.494   1.568   5.186 -0.8674 -0.3818  0.8601
  986MOL0     C33016   5.347   1.527   5.133 -0.5366  0.4172 -0.1002
  986MOL0     C33017   5.258   1.460   5.244 -0.2419 -0.8577 -0.2038
  986MOL0     C33018   5.119   1.505   5.247 -0.5953  0.5476 -0.0204
  986MOL0    Cl33019   5.100   1.668   5.329  0.3791 -0.3107 -0.4352
  986MOL0     C33020   5.928   0.972   5.346 -0.3979 -0.6566  0.6724
  986MOL0     C33021   6.056   0.941   5.282  1.1024  0.4818 -0.4070
  986MOL0     O33022   6.282   1.120   5.184  0.0985  0.2597  0.2391
  986MOL0     C33023   6.459   0.890   4.979  0.0848  0.4824  0.5278
  986MOL0     C33024   6.590   0.863   4.931  0.3125  0.2289 -0.2461
  986MOL0     N33025   7.244   1.284   4.946 -0.7008  0.3401 -0.0321
  986MOL0     N33026   7.375   1.268   4.948  0.4129 -0.5900  0.1468
  986MOL0     C33027   7.256   1.812   4.895 -0.0453 -0.7200 -0.2679
  986MOL0     C33028   7.122   1.778   4.897  0.2774 -0.6829  0.4154
  986MOL0     C33029   6.723   1.571   4.893  0.4113 -0.6433  0.0723
  986MOL0     C33030   6.673   1.619   5.015  0.2793  0.0534 -0.0720
  986MOL0     C33031   6.534   1.611   5.044 -0.1099  0.6951 -0.1069
  986MOL0     C33032   6.447   1.558   4.953  0.0659  0.3374 -0.3842
  986MOL0     O33033   6.315   1.542   4.985  0.0325  0.0550 -0.2210
  986MOL0     C33034   6.300   1.412   5.033 -0.3942 -0.2348  0.0356
  986MOL0     C33035   6.147   1.386   5.044 -0.5578  0.3250  0.7776
  986MOL0     C33036   6.086   1.387   4.906 -0.3151  0.0714 -0.3040
  986MOL0     C33037   5.933   1.367   4.893  0.4611  0.9247 -0.9936
  986MOL0     C33038   5.890   1.306   4.769 -0.6339  0.1033 -0.2293
  986MOL0     C33039   5.854   1.265   4.661 -0.4030  0.9519  0.6216
  986MOL0     C33040   6.502   1.510   4.836 -0.1049 -0.5916  0.1946
  986MOL0     C33041   6.637   1.507   4.798  0.3182 -0.1571 -0.4389
  986MOL0     C33042   6.669   1.462   4.660  0.1180 -0.5093 -0.2975
  986MOL0     H33043   7.147   1.502   5.077  3.4823 -2.9684 -3.2339
  986MOL0     H33044   7.369   1.560   5.083  1.8065 -0.7387 -2.3404
  986MOL0     H33045   7.578   1.765   5.159 -0.0017 -0.7736  0.8535
  986MOL0     H33046   7.579   1.615   5.052  2.3960 -0.1056  1.2015
  986MOL0     H33047   7.784   1.742   5.072  1.4099  1.9438 -0.1152
  986MOL0     H33048   7.713   1.868   4.962  3.1100 -1.8155 -3.5057
  986MOL0     H33049   7.796   1.750   4.794  0.5434 -1.2792 -0.1303
  986MOL0     H33050   7.651   1.650   4.819 -1.8139  0.9450  1.6574
  986MOL0     H33051   7.929   1.623   4.923  0.2560 -2.3394  1.8894
  986MOL0     H33052   7.798   1.522   4.990  1.6074 -3.9085 -0.8084
  986MOL0     H33053   7.857   1.496   4.687 -1.7374 -3.2074 -1.1271
  986MOL0     H33054   7.978   1.444   4.805 -0.1826  1.6118  0.6120
  986MOL0     H33055   7.834   1.257   4.730 -0.3814 -0.3580  1.0788
  986MOL0     H33056   7.818   1.281   4.910 -1.7371 -0.3519  0.7900
  986MOL0     H33057   7.618   1.349   4.670  0.6332  0.0923 -0.9484
  986MOL0     H33058   7.606   1.416   4.832  0.8716 -0.4756 -0.5601
  986MOL0     H33059   7.597   1.133   4.748  1.0185 -1.8255  2.1622
  986MOL0     H33060   7.617   1.187   4.911  2.0721 -0.1129 -1.7956
  986MOL0     H33061   7.331   1.210   4.638  1.2118 -1.4618  0.5512
  986MOL0     H33062   7.004   1.322   4.775 -0.0324 -0.3522  1.8868
  986MOL0     H33063   7.070   1.226   4.651 -0.6212  2.4020  0.4785
  986MOL0     H33064   6.948   1.054   4.744 -1.9868  0.6517  2.0152
  986MOL0     H33065   7.105   1.020   4.813  0.4155  1.4569 -0.7857
  986MOL0     H33066   6.856   1.155   4.946 -0.7029 -1.2845 -2.9516
  986MOL0     H33067   7.015   1.167   5.015  2.7727  0.3131 -2.0840
  986MOL0     H33068   6.936   0.964   5.115  1.6176  0.3860 -0.1496
  986MOL0     H33069   7.021   0.888   4.987 -2.3062 -3.1329  1.2055
  986MOL0     H33070   6.754   1.049   5.149  0.4195 -1.3975 -0.0728
  986MOL0     H33071   6.528   1.123   5.213  0.4145  0.2441  0.9879
  986MOL0     H33072   5.998   1.037   4.975  1.6326  0.0608  0.7530
  986MOL0     H33073   5.756   1.067   5.078  0.8760 -0.8986 -1.9385
  986MOL0     H33074   5.621   1.148   5.180  1.0883  0.9651  0.1934
  986MOL0     H33075   5.538   1.159   5.342  0.9733 -0.1423  2.0088
  986MOL0     H33076   5.739   1.263   5.434 -1.8963 -0.3813  0.4172
  986MOL0     H33077   5.801   1.294   5.265 -1.4541  0.0888 -1.3963
  986MOL0     H33078   5.556   1.432   5.402  0.8487  1.0557  0.2409
  986MOL0     H33079   5.714   1.494   5.350  2.0019 -2.8911  0.9211
  986MOL0     H33080   5.522   1.362   5.160 -1.9045  2.1155 -1.2387
  986MOL0     H33081   5.668   1.475   5.129  0.9858  0.8533  1.4541
  986MOL0     H33082   5.532   1.646   5.120 -2.2075 -1.9103 -1.8970
  986MOL0     H33083   5.488   1.623   5.280 -2.6885  0.5367  0.2582
  986MOL0     H33084   5.288   1.613   5.101 -2.0808 -0.3249  0.6702
  986MOL0     H33085   5.350   1.466   5.043 -2.1747 -0.0991  0.1590
  986MOL0     H33086   5.297   1.475   5.346  1.3533 -0.7512 -0.7923
  986MOL0     H33087   5.259   1.352   5.224 -1.1435 -0.6825 -1.2553
  986MOL0     H33088   5.091   1.511   5.142 -0.2370  0.5140 -0.1165
  986MOL0     H33089   5.055   1.428   5.293 -1.2992 -0.5337 -2.6522
  986MOL0     H33090   5.921   0.966   5.454  2.5702  1.9863  1.1580
  986MOL0     H33091   6.127   0.900   5.352 -0.3823 -2.3418 -0.3956
  986MOL0     H33092   6.374   0.836   4.938 -0.5831  1.7972  0.1111
  986MOL0     H33093   6.614   0.794   4.851  1.0860  0.3798 -0.1556
  986MOL0     H33094   7.284   1.898   4.834 -1.2858  1.0933  1.5915
  986MOL0     H33095   7.054   1.857   4.866 -0.2254 -0.6041  1.6649
  986MOL0     H33096   6.732   1.662   5.095 -1.3456  0.2299  1.0698
  986MOL0     H33097   6.502   1.649   5.141  2.4745  0.8852  0.7336
  986MOL0     H33098   6.344   1.389   5.131 -2.1804 -0.7105  0.7771
  986MOL0     H33099   6.339   1.330   4.974 -0.1007 -0.8183  1.0095
  986MOL0     H33100   6.093   1.457   5.107 -2.6408  0.3936 -0.9631
  986MOL0     H33101   6.126   1.288   5.089 -0.8050  1.0613  2.3208
  986MOL0     H33102   6.149   1.325   4.841  0.1919 -0.7136  0.9015
  986MOL0     H33103   6.107   1.486   4.864 -2.4162  0.2248 -1.1252
  986MOL0     H33104   5.900   1.312   4.981  2.6108 -0.1849 -0.8387
  986MOL0     H33105   5.877   1.460   4.906 -1.0108 -0.1072  0.4774
  986MOL0     H33106   5.825   1.231   4.564  2.2590 -0.4499  0.2278
  986MOL0     H33107   6.437   1.476   4.755  0.0349  3.5150 -1.8959
  986MOL0     H33108   6.654   1.543   4.588  4.6368  1.3959  0.5563
  986MOL0     H33109   6.771   1.426   4.649  0.1786  0.1622 -2.3193
  986MOL0     H33110   6.596   1.388   4.627 -1.1532  0.4299  0.3117
  987MOL0     O33111   2.420  10.336   0.992 -0.2407  0.0452 -0.3758
  987MOL0     C33112   2.397  10.216   1.035 -0.3788 -0.0078  0.8004
  987MOL0     O33113   2.494  10.125   1.054 -0.3115  0.1185 -0.4279
  987MOL0     C33114   2.619  10.155   0.999 -0.0890 -0.0835 -0.0823
  987MOL0     C33115   2.667  10.078   0.891  0.4919  0.4027  0.8667
  987MOL0     C33116   2.800  10.104   0.846 -0.0490  0.8554  0.3986
  987MOL0     C33117   2.880  10.199   0.917 -0.3318  0.3997 -0.0881
  987MOL0     O33118   3.011  10.220   0.885  0.1952  0.3776 -0.7330
  987MOL0     C33119   3.085  10.147   0.785  0.8219  0.1595 -0.9797
  987MOL0     C33120   3.230  10.128   0.818 -0.1496  0.8609 -0.4734
  987MOL0     C33121   3.293  10.268   0.847  0.0643  0.5698 -0.0420
  987MOL0     C33122   3.446  10.265   0.827 -0.1630 -0.7755 -1.4972
  987MOL0     C33123   3.507  10.395   0.850 -0.5530 -0.2339 -0.4147
  987MOL0     C33124   3.655  10.388   0.825  0.3321 -0.0235  0.2408
  987MOL0     C33125   3.710  10.532   0.847  0.6217 -0.1128 -0.3551
  987MOL0     C33126   3.842  10.557   0.771  0.7338  0.3501 -0.1313
  987MOL0     N33127   3.963  10.485   0.812 -0.0293  0.0099 -0.1030
  987MOL0     C33128   4.049  10.541   0.909 -0.8434 -0.2498  0.2234
  987MOL0     C33129   4.125  10.434   0.945  0.4256 -0.7228 -0.1228
  987MOL0     C33130   4.257  10.447   1.009  0.1531 -0.5777 -0.3384
  987MOL0     C33131   4.370  10.424   0.919  0.0045  0.3284 -0.1575
  987MOL0     C33132   4.503  10.429   0.985  0.3660  0.2369  0.2016
  987MOL0     C33133   4.538  10.548   1.077  0.3912  0.2782  0.0561
  987MOL0     O33134   4.670  10.559   1.137  0.1989 -0.1556  0.0624
  987MOL0     C33135   4.772  10.585   1.053  0.6215  0.4968 -0.4897
  987MOL0     C33136   4.763  10.645   0.925 -0.1823 -0.8146  0.3583
  987MOL0     C33137   4.871  10.669   0.847  0.2135  0.3233 -0.8460
  987MOL0     C33138   4.998  10.641   0.895 -1.0643  0.7901 -0.7735
  987MOL0     C33139   5.122  10.669   0.821 -0.0033 -0.0529  0.6852
  987MOL0     O33140   5.105  10.703   0.688 -0.2701 -0.3874 -0.3116
  987MOL0     C33141   5.215  10.754   0.616 -0.3430  0.5305  0.2881
  987MOL0     C33142   5.318  10.665   0.563  0.0602  0.4208  0.3158
  987MOL0     C33143   5.429  10.727   0.510 -0.4451  0.4551  1.1243
  987MOL0     C33144   5.435  10.863   0.487 -1.0426 -1.0398  1.1862
  987MOL0     O33145   5.545  10.925   0.427 -0.7557 -0.9897  0.0485
  987MOL0     C33146   5.636  10.847   0.351 -0.4820  0.2441  0.6203
  987MOL0     C33147   5.750  10.813   0.439  0.5577  0.2153 -0.2629
  987MOL0     C33148   5.853  10.929   0.446  0.0739  0.2898  0.2101
  987MOL0     C33149   6.001  10.878   0.465  0.4534 -0.1600  0.1386
  987MOL0     C33150   6.093  10.995   0.519 -0.1127 -0.0312  0.3333
  987MOL0     C33151   6.241  10.957   0.529  0.0858 -0.2809 -0.1052
  987MOL0     C33152   6.315  11.084   0.549 -0.9011 -0.1092  0.2529
  987MOL0     C33153   6.456  11.085   0.485 -0.0131 -0.6537 -0.0694
  987MOL0    Cl33154   6.551  11.211   0.561 -0.4808 -0.1488 -0.3683
  987MOL0     C33155   5.332  10.950   0.529  1.0932  0.5280  0.1080
  987MOL0     C33156   5.226  10.891   0.591 -0.5974  0.2361  0.5979
  987MOL0     O33157   5.232  10.660   0.878  0.7267 -0.4306  0.0481
  987MOL0     C33158   5.010  10.582   1.024  0.8240  0.6751 -1.0763
  987MOL0     C33159   4.902  10.553   1.099  0.9047  0.2885 -0.3259
  987MOL0     N33160   4.083  10.322   0.878  0.2977  0.0372  0.7054
  987MOL0     N33161   3.999  10.360   0.790  0.7295 -0.0191 -0.5948
  987MOL0     C33162   2.823  10.289   1.012  0.0607  0.0528 -0.9210
  987MOL0     C33163   2.703  10.254   1.052  0.6006  1.0430 -0.2243
  987MOL0     C33164   2.260  10.183   1.059  0.0963  0.0926 -0.6166
  987MOL0     C33165   2.156  10.287   1.061  0.1061 -0.0362  0.3608
  987MOL0     C33166   2.014  10.265   1.086  0.2444  0.2089  0.5316
  987MOL0     C33167   1.968  10.132   1.086  0.5946 -0.0337  0.0807
  987MOL0     O33168   1.837  10.084   1.098 -0.7063 -0.1896 -0.3977
  987MOL0     C33169   1.736  10.187   1.130  0.0002  0.5609  0.0030
  987MOL0     C33170   1.683  10.239   0.996  0.0117 -0.1601 -0.7176
  987MOL0     C33171   1.616  10.120   0.913  0.4326 -0.0349 -0.4296
  987MOL0     C33172   1.458  10.119   0.908 -0.4584 -0.4039 -0.0145
  987MOL0     C33173   1.402   9.992   0.866  0.2381  0.7498  0.6265
  987MOL0     C33174   1.360   9.881   0.834  0.3813 -0.1273 -0.0445
  987MOL0     C33175   2.068  10.029   1.072 -0.1861  0.7625 -0.4283
  987MOL0     C33176   2.203  10.051   1.072 -0.5604 -0.1419  1.0087
  987MOL0     C33177   2.281   9.916   1.063 -0.9117 -0.3517 -1.4477
  987MOL0     H33178   2.610  10.006   0.832  2.4389  1.8016 -3.1021
  987MOL0     H33179   2.829  10.036   0.766  2.1563  2.1233  0.0311
  987MOL0     H33180   3.053  10.042   0.775  1.7227 -0.2579  0.2625
  987MOL0     H33181   3.069  10.204   0.693  1.9126 -0.7948 -1.7909
  987MOL0     H33182   3.278  10.080   0.732  2.5660 -3.0314  2.8199
  987MOL0     H33183   3.240  10.065   0.907 -1.5149 -1.9429 -2.1727
  987MOL0     H33184   3.279  10.290   0.953 -1.4335  2.2523 -0.5377
  987MOL0     H33185   3.256  10.353   0.789 -1.8093  0.8778  1.5125
  987MOL0     H33186   3.490  10.191   0.895  1.6341  0.9240 -0.7067
  987MOL0     H33187   3.470  10.228   0.727  3.4035  3.3077 -2.4674
  987MOL0     H33188   3.457  10.464   0.781 -1.2280 -0.4210 -0.1143
  987MOL0     H33189   3.496  10.433   0.951  2.1542  1.3498 -0.6226
  987MOL0     H33190   3.709  10.319   0.891  0.8453  2.6375  2.8319
  987MOL0     H33191   3.668  10.367   0.718  3.6578  0.4527  0.4245
  987MOL0     H33192   3.708  10.552   0.954 -1.5776  0.4924 -0.4694
  987MOL0     H33193   3.645  10.610   0.808 -1.0812 -1.7760 -1.0197
  987MOL0     H33194   3.823  10.508   0.676 -0.5685  0.6183 -0.0343
  987MOL0     H33195   3.858  10.664   0.755 -2.4475  0.9836  0.2235
  987MOL0     H33196   4.064  10.645   0.938  0.9768 -1.2932  3.4450
  987MOL0     H33197   4.276  10.543   1.057  0.9504  0.8850 -3.3145
  987MOL0     H33198   4.260  10.373   1.089  0.3974  0.9770  1.1368
  987MOL0     H33199   4.364  10.323   0.876  2.5096  0.7318 -1.6506
  987MOL0     H33200   4.369  10.497   0.838  0.2361 -0.5360 -0.9649
  987MOL0     H33201   4.574  10.427   0.902  0.1589 -1.4856  0.0151
  987MOL0     H33202   4.514  10.342   1.050 -2.3313 -0.9587 -0.7606
  987MOL0     H33203   4.467  10.552   1.161  1.4733  0.8709  0.9831
  987MOL0     H33204   4.506  10.638   1.024  0.2510  1.6305  2.3017
  987MOL0     H33205   4.675  10.684   0.875  0.1805  0.2760  0.5426
  987MOL0     H33206   4.850  10.709   0.748 -3.9825 -1.8495 -1.0555
  987MOL0     H33207   5.312  10.556   0.565  0.1972  0.3472 -1.8646
  987MOL0     H33208   5.507  10.664   0.469  2.2035  3.8090  0.6467
  987MOL0     H33209   5.592  10.752   0.322  2.3728 -0.8485 -0.4915
  987MOL0     H33210   5.668  10.892   0.257 -0.5472  0.8459  0.8773
  987MOL0     H33211   5.726  10.784   0.542  0.3111 -1.2437 -0.7208
  987MOL0     H33212   5.805  10.733   0.389  2.1635  0.9543  0.2454
  987MOL0     H33213   5.841  10.986   0.353  0.2370  1.1783  0.7254
  987MOL0     H33214   5.822  10.993   0.529 -2.3797 -0.9877  0.3846
  987MOL0     H33215   6.038  10.835   0.372  0.1808 -0.6968  0.2716
  987MOL0     H33216   5.997  10.792   0.533  1.1290 -0.1282  0.2238
  987MOL0     H33217   6.054  11.023   0.617 -1.6276 -4.1819  1.1303
  987MOL0     H33218   6.088  11.075   0.444  0.7610  1.6280  1.9967
  987MOL0     H33219   6.259  10.885   0.609  1.0408  1.4502  1.3148
  987MOL0     H33220   6.279  10.923   0.432 -0.3254  2.5196 -1.3379
  987MOL0     H33221   6.332  11.104   0.655  0.5127  1.3334 -0.2000
  987MOL0     H33222   6.256  11.174   0.528 -1.7623 -0.9788 -1.1969
  987MOL0     H33223   6.501  10.987   0.506  1.2289  0.3627  2.2599
  987MOL0     H33224   6.450  11.097   0.376 -0.5880 -1.5260 -0.1483
  987MOL0     H33225   5.339  11.058   0.515  1.7731  0.6639  1.3881
  987MOL0     H33226   5.147  10.954   0.630 -1.6855  0.0979 -1.2461
  987MOL0     H33227   5.110  10.553   1.056  0.2343 -0.4182 -0.1834
  987MOL0     H33228   4.901  10.510   1.199 -1.2122  0.4554 -0.2245
  987MOL0     H33229   2.863  10.387   1.035  2.0793 -0.4996 -1.8388
  987MOL0     H33230   2.650  10.312   1.126  1.0330  0.1316  0.8335
  987MOL0     H33231   2.184  10.392   1.066  2.1236 -0.3749 -1.9187
  987MOL0     H33232   1.955  10.351   1.115  2.5970  1.9108  0.6416
  987MOL0     H33233   1.773  10.268   1.193  1.6205  1.6119 -2.1647
  987MOL0     H33234   1.655  10.154   1.195  0.9234  2.8380  2.4994
  987MOL0     H33235   1.766  10.279   0.937 -0.0373 -2.1785 -2.2713
  987MOL0     H33236   1.615  10.322   1.016  1.5785  1.0282 -0.1117
  987MOL0     H33237   1.654  10.027   0.958 -0.2386 -0.1244 -0.0297
  987MOL0     H33238   1.642  10.122   0.807  2.5035  0.9517  0.0427
  987MOL0     H33239   1.408  10.145   1.002 -1.9363  0.2612 -0.9478
  987MOL0     H33240   1.417  10.199   0.846 -1.6778 -0.7013  0.3706
  987MOL0     H33241   1.320   9.788   0.800 -1.2814  0.1509  1.0615
  987MOL0     H33242   2.035   9.927   1.090  1.8951  0.4492  2.2162
  987MOL0     H33243   2.250   9.845   1.140  2.1638  1.8637  2.1830
  987MOL0     H33244   2.252   9.871   0.967 -1.2078 -1.6434 -0.7768
  987MOL0     H33245   2.389   9.932   1.070 -1.1710  0.7051  1.3505
  988MOL0     O33246  10.516   6.984  10.501 -0.2890  0.2835  0.2989
  988MOL0     C33247  10.451   6.974  10.603 -0.6249 -0.6871  0.6432
  988MOL0     O33248  10.518   6.977  10.728 -0.0899 -0.0279  0.2155
  988MOL0     C33249  10.654   6.946  10.746  0.5338 -0.1721  0.4935
  988MOL0     C33250  10.748   7.038  10.720  0.5801 -0.0486  0.3370
  988MOL0     C33251  10.881   7.009  10.727 -0.5371  0.8040  0.0708
  988MOL0     C33252  10.919   6.877  10.743  0.2144  0.8432  0.3235
  988MOL0     O33253  11.049   6.841  10.738 -0.5450  0.0188 -0.2326
  988MOL0     C33254  11.114   6.874  10.621  0.5219 -0.7375 -0.8569
  988MOL0     C33255  11.166   6.751  10.552  0.2086 -0.5085 -0.3086
  988MOL0     C33256  11.245   6.797  10.429  0.2223 -0.6221  0.2274
  988MOL0     C33257  11.311   6.677  10.360 -0.0621  0.2581 -0.2357
  988MOL0     C33258  11.415   6.721  10.254  0.2310 -0.8217  0.0896
  988MOL0     C33259  11.556   6.750  10.314  0.1415 -0.7016 -1.0255
  988MOL0     C33260  11.669   6.752  10.204  0.1015  0.9824  0.0674
  988MOL0     C33261  11.805   6.759  10.259 -0.0499  0.7436  0.0902
  988MOL0     N33262  11.834   6.669  10.374  0.1541  0.2859 -0.6153
  988MOL0     C33263  11.801   6.538  10.383  0.1716  0.1908  0.2222
  988MOL0     C33264  11.864   6.494  10.490  0.2948 -0.5326  0.0693
  988MOL0     C33265  11.859   6.371  10.562  0.0973 -0.2283  0.1061
  988MOL0     C33266  11.986   6.286  10.554 -0.2480 -0.7798  0.3590
  988MOL0     C33267  12.125   6.345  10.586  0.5186  0.4431 -0.9620
  988MOL0     C33268  12.232   6.251  10.575  0.6818  0.4601  0.4669
  988MOL0     O33269  12.340   6.324  10.632  0.3681  0.2054 -0.6460
  988MOL0     C33270  12.459   6.283  10.607  0.3132 -0.2354 -0.7483
  988MOL0     C33271  12.558   6.362  10.663  0.1194 -0.2361 -0.2158
  988MOL0     C33272  12.690   6.315  10.668 -1.2509  0.4835 -0.3561
  988MOL0     C33273  12.731   6.197  10.597  0.0988 -1.0906  0.5107
  988MOL0     C33274  12.866   6.148  10.597 -0.1247 -0.3679  0.3981
  988MOL0     O33275  12.950   6.209  10.679  0.1510 -0.3887 -1.2575
  988MOL0     C33276  13.084   6.171  10.685 -0.0391  0.0465  0.0915
  988MOL0     C33277  13.176   6.134  10.578  0.4644 -0.2689  0.5908
  988MOL0     C33278  13.310   6.091  10.608 -0.0541  0.8185  0.7198
  988MOL0     C33279  13.362   6.103  10.742 -0.6440  0.0451 -0.4521
  988MOL0     O33280  13.484   6.063  10.791  0.1114 -0.2796 -0.4085
  988MOL0     C33281  13.531   5.940  10.733 -0.6253 -1.1746  0.0959
  988MOL0     C33282  13.656   5.902  10.816  0.1720 -0.0851 -0.5032
  988MOL0     C33283  13.610   5.860  10.954 -0.2855 -0.2392 -0.0632
  988MOL0     C33284  13.728   5.846  11.045 -0.0321  0.1112  0.0223
  988MOL0     C33285  13.778   5.702  11.060  0.0634 -0.4572 -0.1366
  988MOL0     C33286  13.881   5.674  11.169  0.5957 -0.3341  0.4264
  988MOL0     C33287  13.857   5.538  11.232 -0.3476 -0.3999 -1.1030
  988MOL0     C33288  13.978   5.510  11.330  0.2257 -0.1406  0.7722
  988MOL0    Cl33289  14.141   5.495  11.230 -0.0070 -0.0129  0.2319
  988MOL0     C33290  13.281   6.161  10.839  0.0550 -0.3741  0.1456
  988MOL0     C33291  13.148   6.197  10.809 -0.1181 -0.0677 -0.7461
  988MOL0     O33292  12.898   6.068  10.508  0.2950 -0.2744 -0.0065
  988MOL0     C33293  12.626   6.112  10.544  1.2116 -0.2382 -0.7017
  988MOL0     C33294  12.495   6.161  10.550 -1.3333  0.2734  0.1543
  988MOL0     N33295  11.925   6.607  10.553 -0.3629  0.6521 -0.2932
  988MOL0     N33296  11.908   6.706  10.474 -0.2945 -0.3958  0.6120
  988MOL0     C33297  10.827   6.778  10.762 -0.0552 -0.8132 -0.2545
  988MOL0     C33298  10.694   6.813  10.776  0.0882  0.1592 -0.2680
  988MOL0     C33299  10.298   6.957  10.601  0.4958 -0.7189 -0.6417
  988MOL0     C33300  10.241   6.954  10.728  0.1809  0.2524 -0.2723
  988MOL0     C33301  10.105   6.947  10.744 -0.7331  0.2228 -0.3420
  988MOL0     C33302  10.017   6.936  10.632 -0.3175 -0.2290  0.2919
  988MOL0     O33303   9.882   6.925  10.651  0.3860 -0.0165 -0.6263
  988MOL0     C33304   9.850   6.792  10.667  0.5041  0.3019  0.5969
  988MOL0     C33305   9.701   6.778  10.681  0.1666 -0.0338 -0.4141
  988MOL0     C33306   9.641   6.786  10.543 -0.3402 -0.0172 -0.4178
  988MOL0     C33307   9.497   6.777  10.563  0.1096 -1.3705  1.2753
  988MOL0     C33308   9.446   6.653  10.617  0.9889  0.3051 -0.0096
  988MOL0     C33309   9.402   6.541  10.655  0.5341 -0.4876  0.7211
  988MOL0     C33310  10.067   6.941  10.503 -0.1809  0.5454  0.1478
  988MOL0     C33311  10.207   6.952  10.485  0.9385  0.8091  0.7153
  988MOL0     C33312  10.260   6.954  10.344 -0.1874 -0.4051 -0.2659
  988MOL0     H33313  10.724   7.143  10.704 -0.1620 -0.0360  1.4235
  988MOL0     H33314  10.952   7.086  10.697  1.5420 -2.1989 -3.5127
  988MOL0     H33315  11.047   6.921  10.549  2.2493  5.2971  0.8876
  988MOL0     H33316  11.188   6.950  10.648 -1.1575  0.7203 -0.1768
  988MOL0     H33317  11.084   6.685  10.523 -0.8458  0.4058  0.5009
  988MOL0     H33318  11.237   6.698  10.616  1.6190 -1.8322 -2.8092
  988MOL0     H33319  11.330   6.853  10.467  1.7202 -1.1928 -2.0442
  988MOL0     H33320  11.184   6.865  10.369  1.1498  0.0846  0.0541
  988MOL0     H33321  11.346   6.597  10.427 -1.1115 -0.8509 -0.9709
  988MOL0     H33322  11.226   6.628  10.313 -1.8902  3.2263 -0.2703
  988MOL0     H33323  11.421   6.643  10.178  0.3391 -0.7066 -0.0208
  988MOL0     H33324  11.369   6.797  10.190  2.4498 -1.5443 -2.5012
  988MOL0     H33325  11.575   6.845  10.366  0.9174 -2.4781  2.1759
  988MOL0     H33326  11.587   6.668  10.379 -0.3587 -0.1902 -0.1189
  988MOL0     H33327  11.651   6.830  10.129  0.8730  1.3535  0.2531
  988MOL0     H33328  11.652   6.668  10.136 -2.1410  1.7245 -0.3455
  988MOL0     H33329  11.870   6.730  10.176 -2.9470  1.5986 -2.6956
  988MOL0     H33330  11.838   6.862  10.276  2.2074  0.2207 -0.7442
  988MOL0     H33331  11.727   6.501  10.314 -1.9852  3.3551  0.6058
  988MOL0     H33332  11.849   6.400  10.667 -1.4736 -0.7447  0.1175
  988MOL0     H33333  11.771   6.314  10.532  0.9308  0.1689 -3.4847
  988MOL0     H33334  11.974   6.190  10.604  0.4355 -0.5756  0.9255
  988MOL0     H33335  11.987   6.258  10.448  0.1916  1.7029 -0.3765
  988MOL0     H33336  12.101   6.380  10.687 -1.1052  0.1334 -1.2052
  988MOL0     H33337  12.135   6.438  10.528 -1.6824  0.4617 -1.4026
  988MOL0     H33338  12.245   6.234  10.468 -4.7221  3.9802 -1.0913
  988MOL0     H33339  12.212   6.161  10.634  1.8622 -1.9520 -2.5479
  988MOL0     H33340  12.538   6.458  10.709  0.9467 -0.5771  0.9021
  988MOL0     H33341  12.774   6.368  10.712  0.0617 -1.3515 -0.5599
  988MOL0     H33342  13.130   6.128  10.481  0.3748 -0.8250  0.6667
  988MOL0     H33343  13.366   6.038  10.533  0.0262  0.0814  1.2931
  988MOL0     H33344  13.469   5.850  10.736  0.6719 -2.0720  1.0525
  988MOL0     H33345  13.572   5.949  10.632  0.1071 -4.2700  0.0379
  988MOL0     H33346  13.717   5.821  10.775  0.9832  0.8464 -1.1669
  988MOL0     H33347  13.725   5.987  10.815  3.8417 -2.7602  1.2304
  988MOL0     H33348  13.540   5.930  11.001 -0.2395 -0.1263 -0.1614
  988MOL0     H33349  13.555   5.766  10.947  0.1080 -0.4363 -0.6388
  988MOL0     H33350  13.694   5.889  11.139  2.9358  1.6276  0.5331
  988MOL0     H33351  13.807   5.917  11.018  1.4502 -1.3995  0.2542
  988MOL0     H33352  13.832   5.671  10.969  3.4740  2.5258  0.6511
  988MOL0     H33353  13.691   5.640  11.085 -2.0820  2.4548  0.0444
  988MOL0     H33354  13.985   5.690  11.139  0.4699  0.4595  0.4030
  988MOL0     H33355  13.871   5.741  11.255 -0.7880 -0.7800  0.6469
  988MOL0     H33356  13.853   5.452  11.164  0.7809 -1.7129  0.3836
  988MOL0     H33357  13.765   5.541  11.290  0.8789  1.0558  0.9077
  988MOL0     H33358  13.982   5.584  11.410 -1.9026 -1.6896  2.4289
  988MOL0     H33359  13.958   5.410  11.369  0.2069 -0.8500 -0.9305
  988MOL0     H33360  13.309   6.177  10.942 -0.2378 -0.0799  0.1824
  988MOL0     H33361  13.092   6.225  10.897  2.6698  0.6051  0.9680
  988MOL0     H33362  12.647   6.011  10.511  0.2515 -0.4558 -0.6859
  988MOL0     H33363  12.417   6.099  10.507  0.4096 -1.8087 -0.1243
  988MOL0     H33364  10.858   6.675  10.770 -4.5473 -2.4895 -1.4156
  988MOL0     H33365  10.621   6.735  10.792 -0.4552  0.5545 -0.7850
  988MOL0     H33366  10.305   6.970  10.815  1.9727  0.5085 -1.5762
  988MOL0     H33367  10.068   6.958  10.845 -0.7341 -2.9655  0.1085
  988MOL0     H33368   9.897   6.758  10.760 -1.7795 -0.0210  1.6941
  988MOL0     H33369   9.890   6.739  10.580 -0.4883  2.6565 -1.4052
  988MOL0     H33370   9.663   6.858  10.744  0.7268 -2.2086  2.9415
  988MOL0     H33371   9.679   6.683  10.731  0.1372 -0.4811 -1.2391
  988MOL0     H33372   9.680   6.711  10.475  1.9401  0.4342  0.2685
  988MOL0     H33373   9.669   6.879  10.492 -1.7873  0.7421  0.1264
  988MOL0     H33374   9.459   6.866  10.614 -0.5874 -0.5820 -0.5458
  988MOL0     H33375   9.451   6.787  10.464 -0.2530 -1.1347  1.4668
  988MOL0     H33376   9.357   6.444  10.665  1.9676 -1.0387  2.3328
  988MOL0     H33377  10.006   6.932  10.413  1.7974 -0.6385 -1.1366
  988MOL0     H33378  10.180   6.925  10.275 -0.2140  0.9625 -0.8456
  988MOL0     H33379  10.291   7.055  10.313 -1.9403  0.4987  0.7509
  988MOL0     H33380  10.347   6.889  10.346 -0.0544 -0.2085  1.0320
  989MOL0     O33381   3.893   1.444   2.690  0.7365  0.0650 -0.0615
  989MOL0     C33382   3.839   1.387   2.790 -0.3316 -0.6327 -0.7234
  989MOL0     O33383   3.896   1.390   2.915 -0.4407  0.6490 -0.1234
  989MOL0     C33384   4.024   1.439   2.931  0.1159  0.2468 -0.1406
  989MOL0     C33385   4.062   1.564   2.880  0.6401  0.0301  0.2740
  989MOL0     C33386   4.184   1.621   2.917  0.7269 -0.3165 -0.0749
  989MOL0     C33387   4.262   1.558   3.017 -0.3721  0.2832  0.2341
  989MOL0     O33388   4.376   1.614   3.071  0.6815 -0.3666  0.4699
  989MOL0     C33389   4.425   1.748   3.039 -0.4949 -0.2365  0.8288
  989MOL0     C33390   4.542   1.786   3.129  0.4836  0.2941 -0.4022
  989MOL0     C33391   4.508   1.800   3.282 -0.5263 -0.6716 -0.3426
  989MOL0     C33392   4.387   1.888   3.315 -0.7184  0.5210 -0.3946
  989MOL0     C33393   4.356   1.874   3.464  1.0826  0.4416  0.8908
  989MOL0     C33394   4.226   1.933   3.502  0.3921  1.0505  0.4686
  989MOL0     C33395   4.185   1.889   3.640 -0.1138 -0.0881 -0.2474
  989MOL0     C33396   4.050   1.942   3.678 -0.1775 -0.8037  0.5809
  989MOL0     N33397   3.946   1.854   3.626 -0.8229  0.1413 -0.1678
  989MOL0     C33398   3.880   1.869   3.506 -0.0460 -0.5953  0.2309
  989MOL0     C33399   3.801   1.761   3.510  1.1952 -1.3808  0.2705
  989MOL0     C33400   3.712   1.716   3.400  0.0730  0.8893  0.0681
  989MOL0     C33401   3.780   1.617   3.303  0.3253 -0.7260  0.7656
  989MOL0     C33402   3.843   1.488   3.370  0.5650  0.0767 -0.3471
  989MOL0     C33403   3.995   1.494   3.369  0.6095 -0.6129 -0.2994
  989MOL0     O33404   4.034   1.371   3.420  0.1556 -0.5510  0.1209
  989MOL0     C33405   4.177   1.346   3.418  0.1450 -0.3888 -0.1613
  989MOL0     C33406   4.273   1.448   3.434 -0.2500 -0.5337  0.8847
  989MOL0     C33407   4.410   1.423   3.404  1.6020 -0.7821 -0.0203
  989MOL0     C33408   4.449   1.297   3.354  0.3928 -0.3010  0.1709
  989MOL0     C33409   4.590   1.269   3.325 -1.1777  0.6185 -0.1874
  989MOL0     O33410   4.634   1.146   3.348 -0.6241  0.3218  0.5077
  989MOL0     C33411   4.771   1.130   3.333 -0.1912 -0.9383 -0.5461
  989MOL0     C33412   4.853   1.187   3.227 -0.8077  0.0210  0.1803
  989MOL0     C33413   4.990   1.151   3.218  0.7981  0.1317 -0.1357
  989MOL0     C33414   5.046   1.063   3.310  0.0675  0.0297  0.0178
  989MOL0     O33415   5.174   1.015   3.323  0.3771 -0.4140 -0.1038
  989MOL0     C33416   5.261   1.033   3.206 -0.3232 -0.3688 -0.2439
  989MOL0     C33417   5.393   0.950   3.247  0.4140 -0.4232 -0.1571
  989MOL0     C33418   5.386   0.794   3.234  1.1611  1.2613  0.2752
  989MOL0     C33419   5.463   0.721   3.340 -1.3118  0.2117 -0.5643
  989MOL0     C33420   5.615   0.749   3.338 -0.5618 -1.2199  1.0484
  989MOL0     C33421   5.689   0.676   3.454  0.1011 -0.4525  0.2622
  989MOL0     C33422   5.837   0.730   3.457  0.4388 -0.6620 -0.0491
  989MOL0     C33423   5.915   0.661   3.568 -0.5867 -0.3887 -0.2567
  989MOL0    Cl33424   5.835   0.695   3.714 -0.3459 -0.0127 -0.1099
  989MOL0     C33425   4.957   1.007   3.412  0.6249  0.2759 -0.5986
  989MOL0     C33426   4.822   1.033   3.421  0.3721 -0.4265  0.9181
  989MOL0     O33427   4.661   1.373   3.308  0.2314  0.1519  0.1256
  989MOL0     C33428   4.353   1.200   3.344 -0.0149  0.3422 -0.0647
  989MOL0     C33429   4.222   1.224   3.372  0.2226  0.1961  0.8092
  989MOL0     N33430   3.810   1.688   3.626  0.6559 -1.3078  0.5657
  989MOL0     N33431   3.898   1.749   3.690  0.8815 -0.2851 -0.7652
  989MOL0     C33432   4.218   1.433   3.062 -0.4615 -0.0427 -0.2569
  989MOL0     C33433   4.102   1.373   3.022 -0.3705  0.5716 -0.5162
  989MOL0     C33434   3.684   1.347   2.787  1.2469 -0.4411  0.7530
  989MOL0     C33435   3.622   1.325   2.912  0.0859 -0.3137 -0.1895
  989MOL0     C33436   3.483   1.295   2.923 -0.5237  0.2904  0.5091
  989MOL0     C33437   3.402   1.311   2.816 -0.2151 -0.5881 -0.2160
  989MOL0     O33438   3.259   1.301   2.826 -0.6575  0.5521  0.4542
  989MOL0     C33439   3.209   1.166   2.837 -0.5090 -0.3856 -0.5141
  989MOL0     C33440   3.063   1.178   2.844 -1.0728  0.4662 -0.2437
  989MOL0     C33441   2.997   1.030   2.846  0.2994  0.3552 -0.2222
  989MOL0     C33442   2.848   1.040   2.861  0.5315  0.2849 -0.0910
  989MOL0     C33443   2.777   0.914   2.883  0.3917  0.5283  0.4588
  989MOL0     C33444   2.725   0.805   2.899  0.2841 -0.2799  0.6340
  989MOL0     C33445   3.467   1.331   2.694  0.2580  0.3848 -0.0407
  989MOL0     C33446   3.602   1.338   2.674 -0.7753  0.0736 -0.3355
  989MOL0     C33447   3.664   1.338   2.538 -0.0922  0.1907  0.0063
  989MOL0     H33448   4.001   1.619   2.810 -0.6486 -1.2092  0.3748
  989MOL0     H33449   4.222   1.709   2.867 -0.1371  0.5476  0.7464
  989MOL0     H33450   4.473   1.733   2.941  0.7178 -4.5184  1.8703
  989MOL0     H33451   4.347   1.825   3.038  1.2901  1.6724 -0.4079
  989MOL0     H33452   4.585   1.883   3.101  1.2377 -0.0071 -0.3073
  989MOL0     H33453   4.621   1.711   3.128 -1.2672 -1.6528 -1.8253
  989MOL0     H33454   4.595   1.861   3.310 -1.6836  1.0161 -0.2826
  989MOL0     H33455   4.499   1.698   3.320 -0.4536  0.0388  1.7230
  989MOL0     H33456   4.400   1.993   3.287  0.6048  0.3169 -0.6220
  989MOL0     H33457   4.301   1.847   3.263 -0.1774  1.1165 -1.8000
  989MOL0     H33458   4.339   1.770   3.491 -0.8774  0.5471  0.1883
  989MOL0     H33459   4.440   1.919   3.518  1.4448  1.3747 -0.4043
  989MOL0     H33460   4.232   2.042   3.491  1.4142  1.2049  2.2412
  989MOL0     H33461   4.143   1.893   3.443  0.3094  0.7902  0.7619
  989MOL0     H33462   4.266   1.914   3.710 -1.0269 -0.5953  1.0260
  989MOL0     H33463   4.180   1.780   3.644  3.7444 -0.3614  1.7837
  989MOL0     H33464   4.045   1.938   3.787  0.4579 -0.0792  0.6456
  989MOL0     H33465   4.042   2.049   3.655 -0.2291 -0.3131  2.7047
  989MOL0     H33466   3.883   1.935   3.420  0.6146 -1.6101 -0.5352
  989MOL0     H33467   3.626   1.663   3.440  2.4727 -2.3392  1.4350
  989MOL0     H33468   3.682   1.801   3.337  1.0776  1.6469  0.5695
  989MOL0     H33469   3.705   1.579   3.234 -0.2792  1.2838  0.2492
  989MOL0     H33470   3.848   1.674   3.239 -1.2731  2.7054  1.8937
  989MOL0     H33471   3.815   1.395   3.320  1.7770 -0.2587 -0.4391
  989MOL0     H33472   3.804   1.491   3.472  2.3419  1.1673  0.3335
  989MOL0     H33473   4.035   1.573   3.433 -0.2323 -0.6054  0.2340
  989MOL0     H33474   4.037   1.504   3.268 -0.9287  1.4773 -0.8026
  989MOL0     H33475   4.249   1.545   3.478  2.7259 -0.3068  2.2390
  989MOL0     H33476   4.485   1.502   3.407  0.4995  0.2579  1.4526
  989MOL0     H33477   4.811   1.254   3.152  1.6794  0.4267 -0.9350
  989MOL0     H33478   5.048   1.204   3.143 -0.1813  1.5590  0.0686
  989MOL0     H33479   5.211   0.991   3.118 -1.1735 -2.5924  1.2049
  989MOL0     H33480   5.285   1.138   3.186 -1.2097 -0.0057  0.5243
  989MOL0     H33481   5.472   0.978   3.176 -1.8396  2.7409 -1.6651
  989MOL0     H33482   5.414   0.987   3.347  2.9444 -0.6607 -0.5253
  989MOL0     H33483   5.284   0.761   3.253  1.2312  1.3840  0.8848
  989MOL0     H33484   5.417   0.760   3.135 -3.0644  3.9058 -2.2496
  989MOL0     H33485   5.455   0.614   3.318 -0.2154  0.0250 -0.1165
  989MOL0     H33486   5.426   0.734   3.442  2.6634  0.0333  1.0809
  989MOL0     H33487   5.618   0.857   3.355 -2.1469 -0.6027 -1.9231
  989MOL0     H33488   5.651   0.730   3.237 -2.6872  2.8232 -0.7191
  989MOL0     H33489   5.628   0.696   3.542  1.0225 -4.1532  1.9429
  989MOL0     H33490   5.694   0.568   3.435 -1.7304  0.1166 -5.1001
  989MOL0     H33491   5.834   0.837   3.481  0.2304 -1.2807  3.2399
  989MOL0     H33492   5.900   0.712   3.370  2.0320  1.1450  0.6570
  989MOL0     H33493   5.914   0.553   3.551 -0.4035 -0.5827  0.9121
  989MOL0     H33494   6.019   0.689   3.586 -0.0240 -0.9359 -2.3721
  989MOL0     H33495   4.998   0.935   3.482 -1.4063  0.5189  0.9312
  989MOL0     H33496   4.765   0.976   3.494  0.0938  0.6942  1.6006
  989MOL0     H33497   4.393   1.100   3.329 -1.3541 -0.6047  2.0596
  989MOL0     H33498   4.143   1.152   3.354 -0.9475  1.2108  1.7430
  989MOL0     H33499   4.275   1.386   3.141 -1.5248 -1.2127 -0.1522
  989MOL0     H33500   4.065   1.285   3.072 -1.2370  1.3159  0.1839
  989MOL0     H33501   3.673   1.338   3.007 -0.5331  2.4478 -0.1479
  989MOL0     H33502   3.430   1.288   3.017  1.3634 -0.4312  1.5661
  989MOL0     H33503   3.235   1.112   2.928 -0.4998 -1.8145 -1.3324
  989MOL0     H33504   3.247   1.113   2.749  2.8095  3.0373 -1.3964
  989MOL0     H33505   3.026   1.238   2.761  0.0149  0.7438 -0.5509
  989MOL0     H33506   3.033   1.236   2.932  0.6002  2.2845 -0.8031
  989MOL0     H33507   3.043   0.967   2.923 -0.3985 -0.2049 -0.2541
  989MOL0     H33508   3.017   0.969   2.757 -1.0692  0.9814 -0.9855
  989MOL0     H33509   2.816   1.114   2.934 -1.0946 -0.8197  0.3870
  989MOL0     H33510   2.804   1.078   2.769 -2.3195  2.4610  1.9657
  989MOL0     H33511   2.702   0.700   2.908  3.2428 -0.9133  2.1072
  989MOL0     H33512   3.387   1.339   2.621 -0.8864 -1.5122  0.9336
  989MOL0     H33513   3.728   1.252   2.521 -0.5188  0.3972 -3.1684
  989MOL0     H33514   3.587   1.317   2.463 -3.0522  1.4139  2.4451
  989MOL0     H33515   3.721   1.426   2.508 -1.5952  0.9199 -0.8379
  990MOL0     O33516   5.558   5.624   3.311  0.0981  0.4165 -0.3412
  990MOL0     C33517   5.486   5.694   3.386  0.8681 -0.3756 -0.2679
  990MOL0     O33518   5.528   5.765   3.490 -0.2932  0.1699 -0.7065
  990MOL0     C33519   5.666   5.771   3.518 -0.0382  0.8549  0.9451
  990MOL0     C33520   5.739   5.892   3.488  0.7747 -0.9249 -1.1025
  990MOL0     C33521   5.874   5.893   3.525 -0.3316 -0.0074 -0.3943
  990MOL0     C33522   5.938   5.778   3.565 -0.4373  0.2658  0.3713
  990MOL0     O33523   6.078   5.779   3.593 -0.5867  0.2087  0.7082
  990MOL0     C33524   6.145   5.689   3.692  0.1428 -0.4322 -0.6383
  990MOL0     C33525   6.290   5.737   3.692  0.9282  0.1167  0.2723
  990MOL0     C33526   6.372   5.649   3.784 -0.5677  0.2209 -0.5384
  990MOL0     C33527   6.482   5.561   3.711 -1.3251 -0.0050  0.1594
  990MOL0     C33528   6.627   5.613   3.725  0.2344 -0.1414  0.5789
  990MOL0     C33529   6.723   5.539   3.626 -0.0620 -0.5479 -0.1388
  990MOL0     C33530   6.860   5.596   3.651 -0.8312 -0.8914  0.2913
  990MOL0     C33531   6.968   5.524   3.563 -0.1873 -0.5772 -0.3048
  990MOL0     N33532   7.098   5.599   3.571 -0.1298 -0.2067 -0.9574
  990MOL0     C33533   7.108   5.733   3.542 -1.0226  0.0607 -0.5284
  990MOL0     C33534   7.239   5.755   3.560  0.4973 -1.1597  0.5841
  990MOL0     C33535   7.304   5.898   3.544  0.1790  0.8650  0.3152
  990MOL0     C33536   7.325   5.942   3.402  0.2489 -0.1770 -0.6054
  990MOL0     C33537   7.369   6.088   3.392  0.2746  0.6568 -0.8180
  990MOL0     C33538   7.507   6.110   3.347 -0.5735  0.3113 -0.0756
  990MOL0     O33539   7.523   6.048   3.213  0.1886 -0.8961 -0.4437
  990MOL0     C33540   7.634   6.071   3.137  0.5690 -0.0574 -0.0035
  990MOL0     C33541   7.749   6.138   3.175 -0.5549  0.3838 -0.6545
  990MOL0     C33542   7.862   6.140   3.100 -0.5554  0.2607  0.9148
  990MOL0     C33543   7.871   6.070   2.981  1.4470 -0.2998  0.2811
  990MOL0     C33544   7.996   6.064   2.907 -0.3490  0.7874  0.6521
  990MOL0     O33545   8.103   6.092   2.974 -0.4278 -0.2382 -0.0981
  990MOL0     C33546   8.225   6.080   2.915 -0.1457  0.3096 -0.5134
  990MOL0     C33547   8.281   5.961   2.863  0.7398  0.7420  0.2468
  990MOL0     C33548   8.418   5.975   2.821 -0.2239 -0.1695  0.4719
  990MOL0     C33549   8.494   6.086   2.830  0.0190  0.5582  0.2235
  990MOL0     O33550   8.624   6.080   2.773  0.6188 -0.6822 -0.4081
  990MOL0     C33551   8.643   6.179   2.668 -0.5026 -0.3519 -1.2308
  990MOL0     C33552   8.579   6.140   2.532 -0.4426  0.2325 -0.2148
  990MOL0     C33553   8.654   6.014   2.482  0.0195  0.8656 -0.5604
  990MOL0     C33554   8.592   5.975   2.346  0.2621  0.3797 -0.3412
  990MOL0     C33555   8.680   5.858   2.289  0.7421 -0.7533 -0.2996
  990MOL0     C33556   8.626   5.795   2.161  0.5481 -0.6993 -0.0346
  990MOL0     C33557   8.711   5.678   2.107 -0.3097 -1.1063  0.3315
  990MOL0     C33558   8.658   5.628   1.970  0.3237  1.3518  0.4254
  990MOL0    Cl33559   8.714   5.750   1.845 -0.1636 -0.1951  0.0067
  990MOL0     C33560   8.439   6.198   2.897  0.5255  0.0421  0.2497
  990MOL0     C33561   8.303   6.198   2.935 -0.5774 -0.2969 -0.0612
  990MOL0     O33562   7.988   6.036   2.781  1.1888 -0.3025 -0.4754
  990MOL0     C33563   7.753   6.015   2.932 -0.1729  0.3068 -0.4038
  990MOL0     C33564   7.632   6.015   3.008  0.1869  1.1897 -0.3541
  990MOL0     N33565   7.302   5.640   3.589  0.3565 -0.3487 -0.3441
  990MOL0     N33566   7.219   5.548   3.591  0.1438  0.0057  0.3335
  990MOL0     C33567   5.868   5.658   3.584  0.7228  0.1657  0.2096
  990MOL0     C33568   5.726   5.655   3.564 -0.3166 -0.9203 -0.7227
  990MOL0     C33569   5.344   5.694   3.359 -0.2845 -0.0546 -1.0123
  990MOL0     C33570   5.298   5.804   3.285 -0.0504 -0.1439 -0.3787
  990MOL0     C33571   5.162   5.814   3.257  0.5403  0.0001  0.6269
  990MOL0     C33572   5.070   5.731   3.312  0.0510  0.2904 -0.2882
  990MOL0     O33573   4.938   5.756   3.279 -0.0822 -0.5385 -0.4279
  990MOL0     C33574   4.828   5.665   3.317  0.3657  0.1014  1.0805
  990MOL0     C33575   4.701   5.725   3.266 -0.7284 -0.0060  0.4271
  990MOL0     C33576   4.568   5.663   3.304  0.6169  0.5129  1.0134
  990MOL0     C33577   4.441   5.731   3.241  0.4264  0.2473 -0.6327
  990MOL0     C33578   4.327   5.645   3.261  0.6524  0.4862  0.7102
  990MOL0     C33579   4.225   5.573   3.265 -0.2147 -0.2471  0.2603
  990MOL0     C33580   5.119   5.615   3.389 -0.2423  0.3557 -0.8242
  990MOL0     C33581   5.257   5.597   3.405  0.0224  0.7658  0.3122
  990MOL0     C33582   5.303   5.483   3.496 -0.9871 -0.2016  0.1105
  990MOL0     H33583   5.689   5.976   3.441  3.5714  0.3683 -2.0157
  990MOL0     H33584   5.952   5.966   3.504  1.2644 -1.0077  1.7445
  990MOL0     H33585   6.087   5.695   3.785 -0.2403 -0.6164 -0.8625
  990MOL0     H33586   6.139   5.586   3.656  1.2719  0.3604 -3.3425
  990MOL0     H33587   6.300   5.840   3.728  5.8824 -0.6470  1.6983
  990MOL0     H33588   6.327   5.746   3.589 -1.8838 -2.5320 -1.1310
  990MOL0     H33589   6.316   5.582   3.850  1.7024 -0.1497  1.1388
  990MOL0     H33590   6.432   5.707   3.854  1.8133  0.3000 -2.5026
  990MOL0     H33591   6.483   5.466   3.766  2.8251 -0.2724 -0.0316
  990MOL0     H33592   6.451   5.547   3.607  1.5433 -0.7182 -0.7056
  990MOL0     H33593   6.630   5.720   3.705 -0.0701 -0.2790 -0.2315
  990MOL0     H33594   6.662   5.602   3.828 -2.3556  3.3443  2.0312
  990MOL0     H33595   6.718   5.432   3.647 -1.8174 -0.4968 -0.1202
  990MOL0     H33596   6.695   5.550   3.521 -1.0153  1.9592  0.3158
  990MOL0     H33597   6.893   5.591   3.755 -1.7286 -0.0454  0.6294
  990MOL0     H33598   6.858   5.704   3.633 -0.7676 -1.2482 -2.2907
  990MOL0     H33599   6.967   5.419   3.595 -1.2410 -0.4362  0.1505
  990MOL0     H33600   6.938   5.533   3.459  0.5712  2.5022 -0.3275
  990MOL0     H33601   7.037   5.802   3.498  0.2603  1.8122  0.0502
  990MOL0     H33602   7.236   5.964   3.598 -1.0440  0.6863 -0.9461
  990MOL0     H33603   7.397   5.896   3.601  0.7582 -1.5356 -0.5891
  990MOL0     H33604   7.406   5.880   3.361  3.1974  2.3463  1.0055
  990MOL0     H33605   7.236   5.925   3.341  0.7302 -1.0730 -1.0889
  990MOL0     H33606   7.377   6.124   3.495  1.3053  1.2630 -1.0959
  990MOL0     H33607   7.286   6.130   3.334 -2.0895  0.4482  2.1955
  990MOL0     H33608   7.583   6.060   3.407 -0.5988  2.2437  1.6856
  990MOL0     H33609   7.523   6.218   3.353 -2.0135  0.4724  3.1015
  990MOL0     H33610   7.743   6.199   3.264  0.0859  0.5682 -0.7330
  990MOL0     H33611   7.947   6.200   3.130 -1.0114  0.9390  0.8545
  990MOL0     H33612   8.220   5.872   2.850  0.3118  1.2781 -1.8601
  990MOL0     H33613   8.470   5.883   2.797 -0.6994 -2.0181  5.2502
  990MOL0     H33614   8.631   6.280   2.708  2.1424 -0.8721  1.1294
  990MOL0     H33615   8.749   6.174   2.645  0.1051 -2.2368  1.5902
  990MOL0     H33616   8.471   6.126   2.535 -0.2117 -1.6224  0.6156
  990MOL0     H33617   8.595   6.231   2.473  2.1072  1.1122  1.6194
  990MOL0     H33618   8.759   6.043   2.474 -0.1559  3.4606  3.4529
  990MOL0     H33619   8.640   5.932   2.553  0.9676 -1.4491 -2.8950
  990MOL0     H33620   8.603   6.069   2.292 -0.4818  2.4066  2.8129
  990MOL0     H33621   8.487   5.946   2.361 -0.3561  2.9416  0.6434
  990MOL0     H33622   8.673   5.789   2.374 -1.4873  1.2711  1.3139
  990MOL0     H33623   8.781   5.897   2.274  0.9067 -1.1513 -0.2346
  990MOL0     H33624   8.524   5.760   2.178 -0.4240  2.0749  0.2600
  990MOL0     H33625   8.620   5.873   2.085  2.5067  0.5041  0.9495
  990MOL0     H33626   8.705   5.593   2.176 -1.3964 -0.8762  0.5470
  990MOL0     H33627   8.815   5.711   2.105 -1.0564  1.5032  0.8350
  990MOL0     H33628   8.695   5.526   1.959  1.9302  1.7429  1.7816
  990MOL0     H33629   8.548   5.631   1.973  0.2469 -0.7520  0.9606
  990MOL0     H33630   8.504   6.284   2.913  0.3531 -0.0025  1.3040
  990MOL0     H33631   8.245   6.285   2.965 -4.8177 -2.5732 -0.7993
  990MOL0     H33632   7.760   5.969   2.833 -1.1843  1.2358 -0.9284
  990MOL0     H33633   7.539   5.967   2.977  1.5681 -1.3309 -0.8666
  990MOL0     H33634   5.909   5.561   3.607  1.7109 -0.6020 -3.8958
  990MOL0     H33635   5.665   5.569   3.587  0.3417 -1.1705  0.1463
  990MOL0     H33636   5.365   5.880   3.246  1.3002 -0.3975  1.3512
  990MOL0     H33637   5.144   5.902   3.196 -0.0111 -0.3353  0.3016
  990MOL0     H33638   4.820   5.650   3.425 -0.4902  0.2571  1.0433
  990MOL0     H33639   4.865   5.568   3.282  0.1466  0.6828 -0.8862
  990MOL0     H33640   4.710   5.725   3.157  1.3760  3.6270  0.4435
  990MOL0     H33641   4.696   5.831   3.291 -1.1663  0.4307 -1.3730
  990MOL0     H33642   4.559   5.663   3.413 -0.7854  1.2474  0.9224
  990MOL0     H33643   4.562   5.561   3.265 -2.4476  0.7728  0.5931
  990MOL0     H33644   4.427   5.828   3.290  1.7609 -1.0539  2.5753
  990MOL0     H33645   4.460   5.768   3.140  1.8222  0.6185 -0.2508
  990MOL0     H33646   4.125   5.533   3.272 -0.2258 -0.3214 -0.2646
  990MOL0     H33647   5.045   5.552   3.436  0.2153  0.5270  0.1439
  990MOL0     H33648   5.315   5.537   3.591 -3.8461  2.1902 -0.7320
  990MOL0     H33649   5.219   5.414   3.507 -0.6841 -0.6309 -0.2554
  990MOL0     H33650   5.389   5.433   3.451  0.4642  2.6895 -0.6016
  991MOL0     O33651   2.600   5.333   9.731 -0.6587  0.3771  0.3584
  991MOL0     C33652   2.569   5.316   9.846  0.7779  0.2178 -0.0010
  991MOL0     O33653   2.638   5.366   9.953  0.5531 -1.3178  0.4962
  991MOL0     C33654   2.770   5.359   9.937 -1.1082 -0.1181 -0.1289
  991MOL0     C33655   2.857   5.465   9.907  0.0148  0.4209  0.6299
  991MOL0     C33656   2.992   5.435   9.873  0.2001 -0.4580 -0.2443
  991MOL0     C33657   3.040   5.303   9.874  1.0280  0.0527 -0.8379
  991MOL0     O33658   3.174   5.274   9.841 -0.0167 -0.0243 -0.7910
  991MOL0     C33659   3.272   5.372   9.871  0.1311 -0.2083  0.1351
  991MOL0     C33660   3.407   5.297   9.885  0.4357 -0.5204 -0.1649
  991MOL0     C33661   3.521   5.401   9.909  0.4981 -0.0890  0.2260
  991MOL0     C33662   3.653   5.337   9.970 -0.4951  0.0968  0.6500
  991MOL0     C33663   3.758   5.448   9.992  0.4426 -0.0349  0.3747
  991MOL0     C33664   3.886   5.402  10.069 -0.0317  0.1927  0.2099
  991MOL0     C33665   3.977   5.526  10.095 -0.9496  0.8812 -0.2693
  991MOL0     C33666   4.043   5.596   9.971 -0.9683  0.2671  0.3297
  991MOL0     N33667   4.106   5.488   9.892 -0.2668  0.4520  0.1592
  991MOL0     C33668   4.072   5.431   9.772 -0.1787 -0.4498 -0.3408
  991MOL0     C33669   4.155   5.324   9.763  0.0071  1.1294 -0.3477
  991MOL0     C33670   4.164   5.214   9.659  0.5971 -0.7558  0.1512
  991MOL0     C33671   4.039   5.134   9.672  0.0014 -0.9478 -1.1496
  991MOL0     C33672   4.027   5.057   9.534  0.8272 -0.7034 -0.6808
  991MOL0     C33673   3.908   4.963   9.539 -1.1680 -0.0667 -0.1804
  991MOL0     O33674   3.782   5.027   9.534  0.0993  0.0119  0.4491
  991MOL0     C33675   3.677   4.962   9.581  0.7769  0.5442  0.6101
  991MOL0     C33676   3.655   4.821   9.564 -0.7930 -0.4155 -0.2620
  991MOL0     C33677   3.536   4.766   9.602  0.4450  1.0560  0.1405
  991MOL0     C33678   3.429   4.843   9.654  0.0277  0.4945  0.3493
  991MOL0     C33679   3.302   4.781   9.700 -0.3129  1.0380  0.2939
  991MOL0     O33680   3.235   4.856   9.796  0.5126  0.3425  0.3005
  991MOL0     C33681   3.157   4.777   9.872  1.0264 -0.5335  0.6882
  991MOL0     C33682   3.189   4.710   9.987  0.0827  0.2256 -0.0108
  991MOL0     C33683   3.115   4.606  10.042  0.5035  0.2284 -0.1286
  991MOL0     C33684   2.988   4.580   9.999 -0.0255 -0.0369 -0.3667
  991MOL0     O33685   2.896   4.498  10.057  0.3163  0.2828  0.5870
  991MOL0     C33686   2.921   4.447  10.182  0.3322 -0.2636 -0.4564
  991MOL0     C33687   2.791   4.361  10.229 -0.8874  0.3968  0.3725
  991MOL0     C33688   2.701   4.299  10.115  0.6332 -0.1986  0.7572
  991MOL0     C33689   2.779   4.197  10.026  0.4553 -0.0886 -0.2164
  991MOL0     C33690   2.710   4.115   9.927 -0.6434 -0.5139  0.2731
  991MOL0     C33691   2.604   4.175   9.844 -0.1649 -0.5700  0.0929
  991MOL0     C33692   2.646   4.271   9.728  0.0604 -0.1104  0.0456
  991MOL0     C33693   2.543   4.382   9.702 -1.0701  0.2512  0.3955
  991MOL0    Cl33694   2.545   4.513   9.839 -0.0724  0.4460  0.2443
  991MOL0     C33695   2.948   4.643   9.880 -0.5399 -0.2585  0.4181
  991MOL0     C33696   3.028   4.740   9.819 -0.3455 -0.0605  0.8575
  991MOL0     O33697   3.279   4.659   9.677  0.2553  0.3662  0.5615
  991MOL0     C33698   3.456   4.982   9.657 -0.5500 -0.1500  0.2640
  991MOL0     C33699   3.583   5.033   9.645  0.1532  0.1153  0.2855
  991MOL0     N33700   4.247   5.326   9.866 -0.5101 -0.0178 -0.1871
  991MOL0     N33701   4.218   5.423   9.941 -0.1611  0.2340 -0.4550
  991MOL0     C33702   2.954   5.201   9.915 -0.2324 -0.6392  0.0905
  991MOL0     C33703   2.823   5.230   9.952 -0.2608 -0.3054  0.3676
  991MOL0     C33704   2.437   5.253   9.869 -0.7311  0.1841 -0.4592
  991MOL0     C33705   2.418   5.218  10.008 -0.0135  0.1748 -0.6419
  991MOL0     C33706   2.302   5.140  10.046 -0.4093  0.3322  0.3124
  991MOL0     C33707   2.214   5.095   9.943 -0.9227 -0.7098 -0.2639
  991MOL0     O33708   2.109   5.023   9.990 -0.3279 -0.6270  0.0958
  991MOL0     C33709   1.976   5.034   9.930 -0.4380  0.2696 -0.6098
  991MOL0     C33710   1.917   4.892   9.942  0.7734 -0.5445  0.3910
  991MOL0     C33711   1.899   4.847  10.079 -0.2799  0.3157  0.5716
  991MOL0     C33712   1.856   4.696  10.096 -0.2223  0.4994  0.8874
  991MOL0     C33713   1.734   4.655  10.018  0.6766 -0.8124  0.2686
  991MOL0     C33714   1.630   4.630   9.949  0.0013  0.1488  0.6165
  991MOL0     C33715   2.234   5.131   9.813 -0.4118 -0.3278 -1.0166
  991MOL0     C33716   2.347   5.211   9.773  0.6100  1.1914  0.7405
  991MOL0     C33717   2.350   5.246   9.622  0.3091  0.3784 -0.0646
  991MOL0     H33718   2.812   5.564   9.903  0.7463  0.9815  3.6688
  991MOL0     H33719   3.056   5.521   9.854 -0.4754  0.2338  0.5151
  991MOL0     H33720   3.266   5.435   9.781 -0.1370 -1.4855 -0.7703
  991MOL0     H33721   3.261   5.442   9.954  1.4445  0.3469 -0.1241
  991MOL0     H33722   3.422   5.246   9.789 -3.4802  0.2051 -1.3503
  991MOL0     H33723   3.397   5.215   9.956  0.7595 -0.9542 -0.6100
  991MOL0     H33724   3.482   5.476   9.978  1.1932  0.5572 -0.0679
  991MOL0     H33725   3.538   5.450   9.813  0.6969  0.0383  0.3243
  991MOL0     H33726   3.639   5.288  10.067 -2.0377 -0.1263  0.3465
  991MOL0     H33727   3.674   5.268   9.889 -0.8139  1.9344 -1.0715
  991MOL0     H33728   3.779   5.493   9.894 -3.3145  1.6809  0.2208
  991MOL0     H33729   3.718   5.535  10.045 -2.4818 -1.3389  0.4698
  991MOL0     H33730   3.860   5.340  10.155  1.2373 -0.7775 -0.0687
  991MOL0     H33731   3.935   5.320  10.014  0.2587 -2.9959  4.6434
  991MOL0     H33732   4.055   5.478  10.156 -1.9484  0.0310  0.3759
  991MOL0     H33733   3.932   5.596  10.166  0.4668  0.6120  0.9454
  991MOL0     H33734   3.975   5.654   9.909  1.2516 -0.6356 -3.2866
  991MOL0     H33735   4.117   5.672   9.997 -0.5086 -0.4517  1.1931
  991MOL0     H33736   3.986   5.454   9.710 -0.4376  2.3312  0.8965
  991MOL0     H33737   4.179   5.262   9.562  1.4746 -1.5214 -0.1055
  991MOL0     H33738   4.251   5.147   9.654  0.7899 -0.5130  0.1984
  991MOL0     H33739   4.042   5.062   9.754 -0.4785 -0.8282 -1.0209
  991MOL0     H33740   3.951   5.198   9.683  2.3047  2.1047  1.0411
  991MOL0     H33741   4.109   4.986   9.522  0.6722 -0.5967 -2.7651
  991MOL0     H33742   4.012   5.122   9.446  0.1241 -0.7863 -0.6317
  991MOL0     H33743   3.924   4.899   9.626 -1.1181 -0.3291 -0.3826
  991MOL0     H33744   3.912   4.906   9.446  1.5277 -0.8191  0.3123
  991MOL0     H33745   3.730   4.759   9.518 -0.1836 -1.5951  2.1311
  991MOL0     H33746   3.531   4.658   9.593 -1.7399  0.9431  1.8086
  991MOL0     H33747   3.288   4.736  10.024  1.2283  0.1592 -2.8395
  991MOL0     H33748   3.169   4.552  10.119 -1.0422  2.5066  2.7699
  991MOL0     H33749   3.006   4.379  10.177  0.6192  0.1350 -1.2900
  991MOL0     H33750   2.940   4.530  10.251  0.3776  0.4807 -1.3289
  991MOL0     H33751   2.819   4.294  10.311 -0.7868  0.7385  0.6204
  991MOL0     H33752   2.720   4.428  10.278 -1.2126 -2.1971  3.8657
  991MOL0     H33753   2.621   4.249  10.169 -2.3135  0.6772 -2.4224
  991MOL0     H33754   2.650   4.374  10.052 -0.3269 -2.1195 -0.8592
  991MOL0     H33755   2.842   4.131  10.087  2.6295  1.3899 -0.7657
  991MOL0     H33756   2.858   4.254   9.978 -0.2286 -0.3341 -1.6814
  991MOL0     H33757   2.660   4.035   9.983 -0.6209  0.1909  1.3339
  991MOL0     H33758   2.784   4.068   9.861 -1.5464 -2.1913  0.3905
  991MOL0     H33759   2.544   4.094   9.802  0.2184 -1.6857  1.5974
  991MOL0     H33760   2.538   4.221   9.918 -0.9885 -1.8695  0.2007
  991MOL0     H33761   2.646   4.211   9.636 -2.3054 -1.5864  0.9157
  991MOL0     H33762   2.746   4.306   9.755 -0.8344  1.9473  0.9229
  991MOL0     H33763   2.566   4.435   9.609 -0.4952  0.8851  0.8871
  991MOL0     H33764   2.444   4.336   9.694 -1.9476  1.8250  1.5316
  991MOL0     H33765   2.845   4.619   9.855 -0.7177 -3.5442  3.5054
  991MOL0     H33766   2.984   4.790   9.733 -2.8446  3.2990  3.7865
  991MOL0     H33767   3.377   5.048   9.691 -1.1264  0.3252 -1.8333
  991MOL0     H33768   3.604   5.137   9.669 -2.3252  0.7735 -0.0736
  991MOL0     H33769   2.993   5.100   9.915 -0.8288 -0.9375  2.2542
  991MOL0     H33770   2.762   5.148   9.991  1.1097 -1.0507  1.0150
  991MOL0     H33771   2.486   5.252  10.085 -1.5233  0.5273  0.5979
  991MOL0     H33772   2.285   5.111  10.150  0.4390 -0.9290  0.1223
  991MOL0     H33773   1.972   5.073   9.828 -1.4869 -1.8095 -1.4215
  991MOL0     H33774   1.916   5.103   9.990  2.0009  1.2901  0.8062
  991MOL0     H33775   1.986   4.832   9.883  0.1467  0.9067 -1.9884
  991MOL0     H33776   1.817   4.895   9.898  0.7281 -2.0526  0.3390
  991MOL0     H33777   1.831   4.915  10.131 -2.9284 -0.3909 -1.7182
  991MOL0     H33778   1.998   4.854  10.124 -0.2887 -0.1071  0.6627
  991MOL0     H33779   1.945   4.633  10.085 -0.3258  0.5129 -0.1784
  991MOL0     H33780   1.831   4.689  10.202  2.4138 -0.1826  1.5200
  991MOL0     H33781   1.544   4.626   9.886 -0.0639  2.9433  0.3895
  991MOL0     H33782   2.151   5.110   9.746 -0.2866 -1.0721 -0.9452
  991MOL0     H33783   2.394   5.343   9.599 -0.8213  0.6913 -1.0319
  991MOL0     H33784   2.394   5.156   9.576 -1.4857 -2.9755  4.0903
  991MOL0     H33785   2.247   5.259   9.586 -0.2299 -0.7610  0.9821
  992MOL0     O33786   8.247   1.742   6.192 -0.3124  0.3797  0.2555
  992MOL0     C33787   8.155   1.680   6.141 -0.2312  0.6313  0.5295
  992MOL0     O33788   8.173   1.591   6.032 -0.2934 -0.1494 -0.0509
  992MOL0     C33789   8.296   1.533   6.014  0.1929 -0.2686  0.3984
  992MOL0     C33790   8.385   1.608   5.949 -0.0263  0.2247  0.4022
  992MOL0     C33791   8.519   1.568   5.926  0.6565  0.3622  0.3178
  992MOL0     C33792   8.563   1.443   5.973  0.5436 -0.1762 -0.7180
  992MOL0     O33793   8.701   1.429   5.954 -0.4409 -0.0888 -0.4554
  992MOL0     C33794   8.753   1.301   5.971  0.1505  0.0885 -0.1122
  992MOL0     C33795   8.895   1.279   5.908 -0.0023 -0.5323  0.3631
  992MOL0     C33796   8.918   1.362   5.779  0.6838 -0.3341 -0.1388
  992MOL0     C33797   9.061   1.325   5.714  0.8447 -0.6210 -0.4064
  992MOL0     C33798   9.070   1.361   5.565 -0.3949  0.6378  0.6802
  992MOL0     C33799   9.039   1.504   5.543 -0.5101  0.4590  0.1328
  992MOL0     C33800   9.022   1.563   5.395  0.1224  0.6188 -0.1749
  992MOL0     C33801   8.999   1.715   5.404  0.4442  0.5294  0.3158
  992MOL0     N33802   8.966   1.775   5.267 -0.5833  0.2200  0.3760
  992MOL0     C33803   9.041   1.865   5.204 -0.2885  0.3101  0.5502
  992MOL0     C33804   8.988   1.894   5.080  0.1726 -0.6396  0.0550
  992MOL0     C33805   9.047   1.977   4.968 -0.0623  0.3095  0.3364
  992MOL0     C33806   9.145   2.075   5.019 -0.3191 -0.0197 -0.1549
  992MOL0     C33807   9.203   2.161   4.909 -0.2173  0.3194  1.2829
  992MOL0     C33808   9.294   2.084   4.819  0.0122 -0.3583  0.1017
  992MOL0     O33809   9.233   1.998   4.728  0.0956  0.9294  0.5902
  992MOL0     C33810   9.300   1.931   4.631 -0.0616 -0.7863  0.0141
  992MOL0     C33811   9.240   1.843   4.544 -0.0283 -0.4145  0.4291
  992MOL0     C33812   9.314   1.768   4.454 -0.6589 -0.4979 -0.4723
  992MOL0     C33813   9.453   1.789   4.436 -0.3326  0.0166 -0.2636
  992MOL0     C33814   9.525   1.728   4.322 -0.3087 -0.0974  0.8859
  992MOL0     O33815   9.662   1.727   4.326  0.2257 -0.0262  0.2598
  992MOL0     C33816   9.732   1.709   4.210  0.7307 -1.2896 -0.1396
  992MOL0     C33817   9.805   1.812   4.136  0.4230 -0.0868  0.2912
  992MOL0     C33818   9.882   1.781   4.021  0.4458 -0.2626  0.6230
  992MOL0     C33819   9.890   1.646   3.988 -1.1600  0.8737  1.0794
  992MOL0     O33820   9.976   1.607   3.877 -0.3508 -0.5086  0.4388
  992MOL0     C33821  10.058   1.706   3.806  0.1958 -0.3149  0.8833
  992MOL0     C33822  10.180   1.754   3.887  0.1629 -0.9367  0.2921
  992MOL0     C33823  10.266   1.841   3.791 -0.1087 -0.4051 -0.3358
  992MOL0     C33824  10.349   1.756   3.692  0.6289  0.1141  0.1762
  992MOL0     C33825  10.481   1.802   3.661 -0.5585 -0.4211 -0.2543
  992MOL0     C33826  10.581   1.796   3.772 -0.4545 -0.0705 -0.6122
  992MOL0     C33827  10.687   1.911   3.756 -0.1488  0.2017  0.6776
  992MOL0     C33828  10.820   1.883   3.819 -0.0856  0.0659 -0.4021
  992MOL0    Cl33829  10.922   2.014   3.759 -0.1726  0.4440 -0.0847
  992MOL0     C33830   9.835   1.544   4.053 -0.2673  0.0794 -1.1780
  992MOL0     C33831   9.746   1.569   4.165 -0.4896 -0.3240  0.3066
  992MOL0     O33832   9.451   1.710   4.226 -0.7053  0.5433  0.0199
  992MOL0     C33833   9.524   1.872   4.525  0.6868  0.5917 -0.6852
  992MOL0     C33834   9.445   1.935   4.619  0.3630  0.1446 -0.9011
  992MOL0     N33835   8.870   1.823   5.068  0.1938 -0.0784 -0.4114
  992MOL0     N33836   8.866   1.751   5.180 -0.4601 -0.0699 -0.3769
  992MOL0     C33837   8.475   1.366   6.062 -0.1169 -0.2875  0.1835
  992MOL0     C33838   8.342   1.415   6.086  1.2375 -0.4968  0.2344
  992MOL0     C33839   8.020   1.701   6.183 -0.2947 -1.0059 -1.2298
  992MOL0     C33840   7.955   1.822   6.160 -0.5139  0.6615  1.3220
  992MOL0     C33841   7.824   1.832   6.195  0.7566  0.2736 -0.0814
  992MOL0     C33842   7.756   1.729   6.263  0.2702 -0.1023 -0.1406
  992MOL0     O33843   7.620   1.722   6.291 -0.3518 -0.0507 -0.5545
  992MOL0     C33844   7.549   1.843   6.320 -0.3585  0.5842 -0.0695
  992MOL0     C33845   7.595   1.868   6.468 -0.0603 -0.6549  0.6318
  992MOL0     C33846   7.532   1.764   6.569 -0.2370 -0.4338 -0.2000
  992MOL0     C33847   7.524   1.815   6.710  0.2881 -0.8868  0.3170
  992MOL0     C33848   7.459   1.725   6.795 -0.2685  0.1315  0.0707
  992MOL0     C33849   7.408   1.637   6.869  0.1219 -0.2323 -0.0867
  992MOL0     C33850   7.820   1.609   6.290 -0.0267  0.6616  0.6702
  992MOL0     C33851   7.951   1.589   6.239 -0.2456 -1.1574 -0.3958
  992MOL0     C33852   8.016   1.453   6.252  0.4277  0.3110  0.0475
  992MOL0     H33853   8.357   1.707   5.913  1.4221 -0.5267 -3.2080
  992MOL0     H33854   8.586   1.637   5.875 -0.8876  1.4428 -0.3050
  992MOL0     H33855   8.752   1.283   6.079 -0.7003  0.5478 -0.0274
  992MOL0     H33856   8.689   1.230   5.918 -0.0188 -0.3314  0.6483
  992MOL0     H33857   8.891   1.176   5.871 -1.3615 -1.0441  1.8058
  992MOL0     H33858   8.968   1.311   5.983 -0.8414  0.2137  0.8941
  992MOL0     H33859   8.936   1.465   5.812  4.5763 -0.5511 -1.0911
  992MOL0     H33860   8.834   1.364   5.708  0.8697  0.4382 -0.3559
  992MOL0     H33861   9.138   1.372   5.776  1.9761 -0.1996 -2.0577
  992MOL0     H33862   9.077   1.217   5.710 -0.9576 -1.0305  1.5144
  992MOL0     H33863   9.164   1.336   5.516 -1.2651 -0.4014 -0.5183
  992MOL0     H33864   8.986   1.309   5.518 -1.9114  1.2925  2.5471
  992MOL0     H33865   8.951   1.543   5.595 -0.3635 -2.4298  2.8158
  992MOL0     H33866   9.122   1.561   5.585  0.8955 -1.1129 -0.4027
  992MOL0     H33867   8.930   1.522   5.353 -1.4348  2.9215  0.7601
  992MOL0     H33868   9.107   1.533   5.333 -2.6161 -3.9976 -2.1942
  992MOL0     H33869   8.916   1.744   5.469  0.6547  0.1793  0.7459
  992MOL0     H33870   9.088   1.756   5.451  0.4631 -2.2535  3.0289
  992MOL0     H33871   9.137   1.904   5.237  1.2500 -1.4113 -1.5192
  992MOL0     H33872   9.085   1.895   4.906 -3.3009  2.2003 -4.7905
  992MOL0     H33873   8.959   2.019   4.918 -0.7630 -1.1716  0.2640
  992MOL0     H33874   9.092   2.138   5.091 -0.8394 -0.5044 -0.1061
  992MOL0     H33875   9.227   2.028   5.073 -0.4869 -2.1030 -1.5713
  992MOL0     H33876   9.258   2.244   4.956  3.9596 -0.9999 -0.7857
  992MOL0     H33877   9.119   2.196   4.848  2.1742  0.5108 -2.1630
  992MOL0     H33878   9.368   2.026   4.875  0.3555 -0.0410 -0.0208
  992MOL0     H33879   9.350   2.156   4.760 -0.1257  0.1888  0.6319
  992MOL0     H33880   9.133   1.826   4.551 -0.1894  0.5307  0.3257
  992MOL0     H33881   9.262   1.702   4.385 -1.4483 -1.4038  0.9510
  992MOL0     H33882   9.793   1.911   4.179  1.5469 -1.0193  2.9378
  992MOL0     H33883   9.917   1.857   3.953 -2.0145 -0.6486 -1.2243
  992MOL0     H33884  10.086   1.669   3.707 -1.0134 -0.8027  0.7036
  992MOL0     H33885   9.986   1.786   3.786  0.4084  0.4732  3.0138
  992MOL0     H33886  10.148   1.799   3.981 -0.9362  0.0499 -0.5229
  992MOL0     H33887  10.240   1.672   3.928 -1.0239 -1.1813  1.5817
  992MOL0     H33888  10.193   1.908   3.743 -0.4962  0.4356  1.3323
  992MOL0     H33889  10.327   1.899   3.861  0.2790 -0.8779 -0.2808
  992MOL0     H33890  10.291   1.754   3.599  1.3853 -3.4051 -0.3323
  992MOL0     H33891  10.366   1.654   3.726 -2.4379  0.2796  2.7448
  992MOL0     H33892  10.467   1.907   3.636  0.2760 -0.6068 -1.5746
  992MOL0     H33893  10.517   1.747   3.573 -2.1097 -1.1955 -0.4480
  992MOL0     H33894  10.522   1.797   3.865 -2.6419 -1.4107 -1.8975
  992MOL0     H33895  10.630   1.699   3.768 -0.6321 -0.3148  1.5803
  992MOL0     H33896  10.646   2.011   3.769 -1.0512 -0.2302  1.2249
  992MOL0     H33897  10.720   1.900   3.652 -0.6528  1.8653  0.3224
  992MOL0     H33898  10.817   1.883   3.929  0.1287  0.2035 -0.3937
  992MOL0     H33899  10.865   1.790   3.785 -1.0923 -0.9496  0.9539
  992MOL0     H33900   9.858   1.442   4.024  0.3193  0.3319 -1.6187
  992MOL0     H33901   9.712   1.478   4.213 -2.1427 -0.9573 -1.8849
  992MOL0     H33902   9.629   1.899   4.524  1.0316 -0.3003  2.4271
  992MOL0     H33903   9.504   1.992   4.690  2.1831 -3.1500  0.4438
  992MOL0     H33904   8.517   1.273   6.100 -1.3634 -0.2973  1.6170
  992MOL0     H33905   8.268   1.365   6.148  0.8202  1.8513  1.7590
  992MOL0     H33906   8.010   1.898   6.105 -2.6694  1.5422  0.2647
  992MOL0     H33907   7.781   1.930   6.174  0.8533  1.2076  3.4267
  992MOL0     H33908   7.442   1.821   6.308 -1.0520  4.1766 -1.9430
  992MOL0     H33909   7.569   1.917   6.242  0.6469  0.7344  0.3204
  992MOL0     H33910   7.556   1.968   6.492 -0.0070 -0.2119 -1.0092
  992MOL0     H33911   7.704   1.873   6.479  0.0150 -2.8794  1.3973
  992MOL0     H33912   7.593   1.674   6.573  0.6300  0.1747  1.1935
  992MOL0     H33913   7.434   1.743   6.525 -0.0915 -0.9798 -0.2611
  992MOL0     H33914   7.622   1.831   6.754  1.2924  2.4374 -2.6348
  992MOL0     H33915   7.468   1.909   6.708  0.5986 -0.6827  1.1378
  992MOL0     H33916   7.350   1.576   6.935  0.7206  0.4936  1.1518
  992MOL0     H33917   7.768   1.528   6.340 -1.3251 -0.7004 -2.5457
  992MOL0     H33918   8.032   1.411   6.152 -0.2188  2.6596 -1.1229
  992MOL0     H33919   8.119   1.454   6.289 -0.0062  0.7652  1.3034
  992MOL0     H33920   7.954   1.400   6.324  0.6681  0.9546  0.7462
  993MOL0     O33921   1.333   2.140  10.216 -0.4273 -0.7021  0.5790
  993MOL0     C33922   1.244   2.080  10.154  0.8804  0.6826 -0.2725
  993MOL0     O33923   1.225   2.067  10.020  0.5139  1.4913 -0.0223
  993MOL0     C33924   1.331   2.093   9.945 -0.4487  0.9172  0.3219
  993MOL0     C33925   1.402   1.989   9.886 -0.1543  0.1181  0.1832
  993MOL0     C33926   1.513   2.024   9.801 -0.5508  0.1688 -0.8368
  993MOL0     C33927   1.580   2.148   9.803  1.1776  1.2402  0.3174
  993MOL0     O33928   1.704   2.165   9.745 -1.1288  0.5624  0.9019
  993MOL0     C33929   1.747   2.296   9.705 -1.0318  0.4749  0.8803
  993MOL0     C33930   1.873   2.285   9.619  0.0329  0.0978 -0.1134
  993MOL0     C33931   1.937   2.416   9.601 -0.9479 -0.9440 -0.6795
  993MOL0     C33932   2.046   2.409   9.499  0.7263 -0.6514 -0.1368
  993MOL0     C33933   2.101   2.550   9.484 -0.2901  0.7319 -0.6909
  993MOL0     C33934   2.215   2.556   9.383 -0.5488  0.0532 -0.2424
  993MOL0     C33935   2.337   2.482   9.435 -0.1870 -0.0364 -0.3887
  993MOL0     C33936   2.456   2.486   9.335  0.9380 -0.4662 -0.3450
  993MOL0     N33937   2.550   2.376   9.353  0.3613 -0.4589  0.2221
  993MOL0     C33938   2.655   2.367   9.438 -0.3799  0.5418  0.1525
  993MOL0     C33939   2.688   2.238   9.447  0.1670 -0.4401  0.0613
  993MOL0     C33940   2.801   2.187   9.524 -0.3830  0.7565  0.2616
  993MOL0     C33941   2.850   2.052   9.476 -0.1585 -0.5389 -0.0443
  993MOL0     C33942   2.955   2.062   9.368  0.0430  1.1770 -0.0361
  993MOL0     C33943   3.034   1.936   9.351 -0.0474  0.1880  0.0841
  993MOL0     O33944   3.177   1.953   9.385 -0.3413  0.6157 -0.3500
  993MOL0     C33945   3.273   1.857   9.354 -0.2742  0.3269 -0.3800
  993MOL0     C33946   3.244   1.722   9.330 -0.2904 -0.5426  0.1415
  993MOL0     C33947   3.348   1.635   9.307  0.0983  0.8996  0.7902
  993MOL0     C33948   3.481   1.677   9.301 -0.9393  0.8224  0.5472
  993MOL0     C33949   3.588   1.582   9.257  0.0975 -0.5984  0.0199
  993MOL0     O33950   3.719   1.624   9.255  0.0056 -1.0437  0.1597
  993MOL0     C33951   3.815   1.564   9.178  0.3299  0.3093  0.0187
  993MOL0     C33952   3.794   1.470   9.072  0.1954 -0.4316  0.4588
  993MOL0     C33953   3.903   1.424   8.995  0.5422 -0.9226  0.2174
  993MOL0     C33954   4.030   1.479   9.011 -0.4746  0.1989 -0.4232
  993MOL0     O33955   4.121   1.435   8.921 -0.1752  0.3891 -0.4119
  993MOL0     C33956   4.256   1.454   8.954 -0.7914  0.5819  0.0532
  993MOL0     C33957   4.331   1.329   8.900  1.0808 -0.0785 -0.9176
  993MOL0     C33958   4.473   1.357   8.850  0.0796  0.4121  0.0848
  993MOL0     C33959   4.527   1.240   8.770 -0.0454  0.3837 -0.5141
  993MOL0     C33960   4.676   1.262   8.739  0.1396 -0.1371  0.1548
  993MOL0     C33961   4.719   1.124   8.685  0.1800  0.9655  0.0756
  993MOL0     C33962   4.863   1.133   8.628 -0.0301  0.4652 -0.0835
  993MOL0     C33963   4.915   0.989   8.586  0.6837 -0.6004  0.4262
  993MOL0    Cl33964   4.803   0.926   8.466  0.0269 -0.0037 -0.6343
  993MOL0     C33965   4.046   1.567   9.121  0.4807  0.9323 -0.3750
  993MOL0     C33966   3.944   1.603   9.205  0.7291 -0.1487  0.2793
  993MOL0     O33967   3.539   1.472   9.211  0.1352 -0.4225 -0.1623
  993MOL0     C33968   3.512   1.815   9.321  0.8595 -0.5655 -0.3797
  993MOL0     C33969   3.408   1.903   9.340 -0.9465 -0.6318  0.2936
  993MOL0     N33970   2.593   2.175   9.366 -0.0285  0.3470  0.0267
  993MOL0     N33971   2.510   2.251   9.311  0.0934  0.9608  0.0779
  993MOL0     C33972   1.511   2.249   9.874  0.4604 -0.1388  0.0490
  993MOL0     C33973   1.387   2.221   9.936  0.4332 -0.6113 -0.3102
  993MOL0     C33974   1.136   2.012  10.248 -1.0792  0.2514  0.2642
  993MOL0     C33975   1.017   1.978  10.185 -1.0989  0.0964  0.5099
  993MOL0     C33976   0.930   1.902  10.262  0.0519  0.4593 -0.3979
  993MOL0     C33977   0.953   1.862  10.391 -0.4943 -0.0323  0.4265
  993MOL0     O33978   0.864   1.785  10.455 -0.2928  0.8991  0.1273
  993MOL0     C33979   0.871   1.645  10.408 -0.7469  0.4661 -0.0106
  993MOL0     C33980   0.745   1.587  10.334  0.2131  0.0238 -0.2684
  993MOL0     C33981   0.620   1.608  10.419  0.4486 -0.6639  0.3015
  993MOL0     C33982   0.491   1.570  10.338  0.0850  0.1215 -0.0060
  993MOL0     C33983   0.381   1.559  10.438 -0.0567  0.1482 -0.6495
  993MOL0     C33984   0.291   1.555  10.524  0.0870  0.4614 -0.2878
  993MOL0     C33985   1.082   1.888  10.456  0.5021 -0.5599 -0.6160
  993MOL0     C33986   1.171   1.975  10.388  0.1834 -0.3904  0.0898
  993MOL0     C33987   1.304   1.977  10.464  0.7981 -0.0597 -0.0384
  993MOL0     H33988   1.363   1.888   9.893  1.3596 -0.8368 -3.1546
  993MOL0     H33989   1.575   1.959   9.740 -0.3303 -0.4165 -0.0069
  993MOL0     H33990   1.676   2.354   9.646  1.2163  2.7757  0.2396
  993MOL0     H33991   1.779   2.353   9.793  0.4864  0.7648  0.1766
  993MOL0     H33992   1.846   2.233   9.527  5.7093 -4.4748  0.2444
  993MOL0     H33993   1.947   2.216   9.661  1.2042  0.4160 -1.5740
  993MOL0     H33994   1.990   2.448   9.691  2.0342 -1.7659 -2.0330
  993MOL0     H33995   1.859   2.490   9.581 -1.8879 -1.7985 -0.2439
  993MOL0     H33996   2.111   2.326   9.528 -1.9817 -2.9655 -0.1806
  993MOL0     H33997   2.005   2.386   9.400  1.8875 -0.3660 -0.6969
  993MOL0     H33998   2.024   2.623   9.459  0.0260  1.3711  0.1609
  993MOL0     H33999   2.146   2.587   9.577 -0.6260 -1.1185  0.2591
  993MOL0     H34000   2.199   2.505   9.288 -0.0713 -1.9993  0.7406
  993MOL0     H34001   2.256   2.657   9.367  0.7037 -0.3282  0.4754
  993MOL0     H34002   2.299   2.388   9.474 -3.8003  1.4213 -0.0187
  993MOL0     H34003   2.359   2.535   9.528  0.2821  1.5569 -1.3503
  993MOL0     H34004   2.412   2.490   9.235 -1.0766 -0.4004  0.4885
  993MOL0     H34005   2.491   2.589   9.344 -1.5679  0.2869  2.4750
  993MOL0     H34006   2.700   2.446   9.498  3.0980 -0.3616 -1.0684
  993MOL0     H34007   2.884   2.257   9.534  1.9234 -1.2219 -3.0932
  993MOL0     H34008   2.760   2.167   9.624 -1.3164 -0.3559 -0.3178
  993MOL0     H34009   2.892   2.001   9.564 -0.2704 -0.9494 -0.2285
  993MOL0     H34010   2.769   1.990   9.439  1.2347 -1.7316 -1.2043
  993MOL0     H34011   3.024   2.146   9.378  0.2358  0.8748  1.4613
  993MOL0     H34012   2.907   2.072   9.270  1.4813  1.0441 -0.7734
  993MOL0     H34013   3.034   1.911   9.244 -2.1774  0.8105 -0.0968
  993MOL0     H34014   2.986   1.858   9.411  1.7067 -1.4544 -0.5279
  993MOL0     H34015   3.137   1.701   9.336 -1.2891  4.0358  3.2597
  993MOL0     H34016   3.336   1.528   9.314 -0.6410  1.0303  1.9113
  993MOL0     H34017   3.695   1.434   9.044 -0.0794 -0.4570  1.4390
  993MOL0     H34018   3.881   1.363   8.908  1.3991  1.1871 -1.5770
  993MOL0     H34019   4.297   1.534   8.892 -0.0854  1.9177  2.1678
  993MOL0     H34020   4.285   1.457   9.059  1.2902 -0.3478 -0.4228
  993MOL0     H34021   4.348   1.257   8.981  1.3126  0.0295 -0.8697
  993MOL0     H34022   4.269   1.291   8.818 -2.0429 -1.8838  2.0174
  993MOL0     H34023   4.479   1.450   8.792 -0.7768  0.5536  0.2029
  993MOL0     H34024   4.546   1.363   8.931  0.0181  2.0357  0.0505
  993MOL0     H34025   4.469   1.225   8.679  0.3814  2.9096 -1.3021
  993MOL0     H34026   4.521   1.153   8.836  0.2227  4.3998  5.6621
  993MOL0     H34027   4.736   1.287   8.827 -0.7871  2.3283  0.1641
  993MOL0     H34028   4.675   1.343   8.665  1.9617 -1.2447 -1.1776
  993MOL0     H34029   4.721   1.054   8.769  0.6463  0.0721 -0.6574
  993MOL0     H34030   4.653   1.084   8.607  1.0664 -2.3651  0.8787
  993MOL0     H34031   4.937   1.177   8.696  0.5806  1.9534 -1.6334
  993MOL0     H34032   4.863   1.200   8.541 -2.6959 -0.1484 -0.6201
  993MOL0     H34033   5.019   1.005   8.553  0.7528  2.9995  2.0122
  993MOL0     H34034   4.920   0.907   8.659 -1.3382  1.2594  2.7989
  993MOL0     H34035   4.142   1.612   9.142  1.4422 -1.2367  0.1194
  993MOL0     H34036   3.953   1.684   9.276 -0.5205  1.4083 -1.2604
  993MOL0     H34037   3.614   1.847   9.302  1.1778 -1.5174 -0.3415
  993MOL0     H34038   3.427   2.009   9.347 -1.5607 -0.3949 -1.3213
  993MOL0     H34039   1.560   2.341   9.904  0.1204 -0.1311  0.6158
  993MOL0     H34040   1.344   2.303   9.993 -3.0347 -2.7113  0.3724
  993MOL0     H34041   1.010   2.001  10.079  0.0332 -0.7227  0.2327
  993MOL0     H34042   0.838   1.864  10.218 -1.1223  0.7446  1.6687
  993MOL0     H34043   0.879   1.579  10.495 -3.1476  1.5909  1.1468
  993MOL0     H34044   0.958   1.620  10.347 -0.6527 -1.1857  0.7345
  993MOL0     H34045   0.757   1.480  10.317  0.4849  0.1193 -0.7068
  993MOL0     H34046   0.724   1.634  10.237 -1.8599  2.9252  1.4093
  993MOL0     H34047   0.605   1.716  10.424 -1.4547 -0.8906  0.2883
  993MOL0     H34048   0.623   1.552  10.513  0.4464 -4.7736 -1.9049
  993MOL0     H34049   0.467   1.652  10.270 -1.1996  1.3106  1.7821
  993MOL0     H34050   0.499   1.482  10.275 -1.5610 -1.4271  1.7941
  993MOL0     H34051   0.217   1.560  10.602  0.3710 -2.0169  0.2481
  993MOL0     H34052   1.106   1.833  10.546  1.4411  0.0156 -0.5045
  993MOL0     H34053   1.386   1.968  10.393  0.4725  0.0482 -0.4325
  993MOL0     H34054   1.308   2.070  10.522 -1.4958  0.9099 -1.2883
  993MOL0     H34055   1.321   1.891  10.531 -3.2404 -1.2899 -0.3242
  994MOL0     O34056  10.434   1.121   0.015 -0.6027 -0.3109  0.2185
  994MOL0     C34057  10.536   1.104   0.088 -1.5115 -0.1792  0.1970
  994MOL0     O34058  10.609   0.984   0.087 -0.0552 -0.3277  0.0096
  994MOL0     C34059  10.602   0.894  -0.014 -0.7065 -0.2601  0.6591
  994MOL0     C34060  10.625   0.766   0.017  0.9234 -0.1800 -0.1026
  994MOL0     C34061  10.592   0.661  -0.075 -0.2960  0.6842 -0.0455
  994MOL0     C34062  10.565   0.696  -0.208 -0.5220  0.3970  0.4836
  994MOL0     O34063  10.544   0.593  -0.298 -1.7363  0.2042  0.0014
  994MOL0     C34064  10.609   0.599  -0.427 -0.2219  1.0044  0.5833
  994MOL0     C34065  10.609   0.465  -0.495  0.0355  0.7395 -0.4617
  994MOL0     C34066  10.479   0.413  -0.563 -0.4071  0.8699  0.1173
  994MOL0     C34067  10.495   0.270  -0.581 -0.6120  0.2364  0.2028
  994MOL0     C34068  10.425   0.221  -0.709 -0.2096 -0.0863 -0.2478
  994MOL0     C34069  10.450   0.074  -0.715 -0.0241  1.0799  0.7002
  994MOL0     C34070  10.367   0.005  -0.830 -0.6340  0.3876 -1.0586
  994MOL0     C34071  10.425  -0.123  -0.873  0.4863 -0.4648 -0.3663
  994MOL0     N34072  10.520  -0.084  -0.971 -1.1859  0.4047  0.1897
  994MOL0     C34073  10.510  -0.108  -1.103  0.1646 -0.1354 -0.3200
  994MOL0     C34074  10.619  -0.063  -1.165  1.1169 -0.5857 -0.9372
  994MOL0     C34075  10.645  -0.062  -1.315  0.4551 -0.4899 -0.0565
  994MOL0     C34076  10.769   0.032  -1.361  0.2268  0.0684  0.0838
  994MOL0     C34077  10.746   0.181  -1.345 -0.2478  0.5143 -0.8190
  994MOL0     C34078  10.845   0.272  -1.421  0.4349  0.6949  1.0119
  994MOL0     O34079  10.794   0.396  -1.388 -0.5389  0.0316 -0.6795
  994MOL0     C34080  10.869   0.507  -1.426 -0.0474 -0.2229  0.3428
  994MOL0     C34081  10.838   0.632  -1.382  0.0909 -0.8087  0.5679
  994MOL0     C34082  10.922   0.744  -1.388  0.6289  0.0208 -0.3081
  994MOL0     C34083  11.039   0.733  -1.455  0.4081 -0.2879  0.2408
  994MOL0     C34084  11.116   0.850  -1.479 -0.9665 -0.0203  0.1112
  994MOL0     O34085  11.209   0.848  -1.574  0.1673 -0.0164 -0.3349
  994MOL0     C34086  11.272   0.960  -1.616 -0.3376 -0.0688 -0.5530
  994MOL0     C34087  11.404   0.974  -1.567  0.0971  0.7047  0.6955
  994MOL0     C34088  11.483   1.076  -1.622 -0.4399 -0.8719  0.1980
  994MOL0     C34089  11.427   1.161  -1.721  0.1143 -0.6294  0.0848
  994MOL0     O34090  11.497   1.267  -1.774 -0.6678  0.5642 -0.4896
  994MOL0     C34091  11.626   1.245  -1.829  0.2702 -0.2761  0.0916
  994MOL0     C34092  11.614   1.337  -1.955  0.4466  0.1486 -0.0682
  994MOL0     C34093  11.743   1.312  -2.038 -0.2838 -0.1745  0.1844
  994MOL0     C34094  11.864   1.375  -1.967 -0.2816 -0.2565  1.5854
  994MOL0     C34095  11.974   1.414  -2.073 -0.4580  0.8710  0.2034
  994MOL0     C34096  12.066   1.302  -2.075 -0.5773  1.5139  0.6299
  994MOL0     C34097  12.166   1.307  -2.190  1.3570 -0.6502  0.0260
  994MOL0     C34098  12.211   1.167  -2.225 -0.2009  0.0748  0.6282
  994MOL0    Cl34099  12.331   1.117  -2.103 -0.4285 -0.2889 -0.3236
  994MOL0     C34100  11.301   1.146  -1.763  0.3212  0.4175 -0.4178
  994MOL0     C34101  11.221   1.044  -1.714  0.0795 -0.2026 -0.0914
  994MOL0     O34102  11.091   0.954  -1.422  0.0870  0.3192  1.0061
  994MOL0     C34103  11.081   0.607  -1.494 -0.1604 -0.4255 -0.3151
  994MOL0     C34104  10.992   0.495  -1.489  0.4631  0.3226 -0.2253
  994MOL0     N34105  10.706  -0.023  -1.065  0.3607  0.5076  0.7413
  994MOL0     N34106  10.650  -0.028  -0.950  0.6948  0.0898  0.7151
  994MOL0     C34107  10.577   0.826  -0.245 -0.3695 -0.7901 -0.3907
  994MOL0     C34108  10.588   0.931  -0.151  0.6998  0.3841  0.2350
  994MOL0     C34109  10.576   1.200   0.192  0.6981  0.0344 -0.6118
  994MOL0     C34110  10.651   1.154   0.301  0.9190 -0.1887 -0.1765
  994MOL0     C34111  10.695   1.239   0.400 -0.2550 -0.3346 -1.1820
  994MOL0     C34112  10.661   1.372   0.400 -0.2108 -0.7459  0.2719
  994MOL0     O34113  10.698   1.445   0.511  0.4396  0.6160  0.1831
  994MOL0     C34114  10.686   1.589   0.517  0.0355  0.2812  0.1863
  994MOL0     C34115  10.560   1.636   0.595  0.1504 -0.1832  0.4313
  994MOL0     C34116  10.433   1.615   0.512 -0.0156 -1.1193  0.1830
  994MOL0     C34117  10.295   1.663   0.561 -1.0012 -0.9466  0.1133
  994MOL0     C34118  10.297   1.816   0.579 -1.1830  0.2916  1.1744
  994MOL0     C34119  10.313   1.936   0.589  0.1372  0.7185  0.1089
  994MOL0     C34120  10.598   1.428   0.287  1.0635 -0.1349 -0.1434
  994MOL0     C34121  10.541   1.342   0.191  0.2398 -1.6808 -0.1217
  994MOL0     C34122  10.467   1.414   0.075  0.6416 -0.0078 -0.8619
  994MOL0     H34123  10.645   0.740   0.121 -3.8830 -2.4768  0.5088
  994MOL0     H34124  10.602   0.558  -0.040  0.2044  0.4344 -0.8917
  994MOL0     H34125  10.564   0.678  -0.488  3.5344  0.4408 -3.4029
  994MOL0     H34126  10.714   0.629  -0.412  1.1802 -1.8758 -2.2386
  994MOL0     H34127  10.638   0.387  -0.425  0.1097 -0.5790 -1.9232
  994MOL0     H34128  10.686   0.456  -0.571 -3.0611  0.8008 -3.9054
  994MOL0     H34129  10.469   0.465  -0.659  5.5951  2.2608 -0.1936
  994MOL0     H34130  10.391   0.424  -0.499  0.4675  1.7028  1.2417
  994MOL0     H34131  10.600   0.239  -0.586  0.2671  3.1746 -3.8163
  994MOL0     H34132  10.440   0.228  -0.496 -0.3483 -1.7539 -0.5612
  994MOL0     H34133  10.320   0.249  -0.694 -0.2958 -1.3444  1.7847
  994MOL0     H34134  10.446   0.282  -0.798 -2.4865  1.1475 -0.0262
  994MOL0     H34135  10.558   0.061  -0.732 -0.5129  0.7706 -3.0961
  994MOL0     H34136  10.434   0.023  -0.619 -0.7883  1.6550  0.8844
  994MOL0     H34137  10.368   0.076  -0.913  0.7279  1.9104  0.1937
  994MOL0     H34138  10.264  -0.006  -0.793  0.2610  0.9760  1.8448
  994MOL0     H34139  10.477  -0.164  -0.787 -0.3785 -1.0667 -0.1245
  994MOL0     H34140  10.351  -0.194  -0.911 -3.6566  1.9187  2.4585
  994MOL0     H34141  10.434  -0.161  -1.159  0.8245 -1.5555  0.0904
  994MOL0     H34142  10.678  -0.163  -1.340  5.4939  0.7992  0.3612
  994MOL0     H34143  10.550  -0.033  -1.360 -0.1485  0.8452  1.9561
  994MOL0     H34144  10.864  -0.008  -1.326  0.2170 -0.3419 -0.3467
  994MOL0     H34145  10.772   0.028  -1.471 -1.4660 -1.1740  0.0393
  994MOL0     H34146  10.745   0.207  -1.239  2.3325  1.2591 -0.9268
  994MOL0     H34147  10.646   0.198  -1.386 -0.9428 -3.6827 -1.3523
  994MOL0     H34148  10.840   0.253  -1.528  2.1329 -1.2176  1.2111
  994MOL0     H34149  10.950   0.259  -1.390  0.5693 -1.2427 -0.1600
  994MOL0     H34150  10.746   0.648  -1.327 -0.8645  2.3752 -1.6409
  994MOL0     H34151  10.880   0.840  -1.360 -1.8866 -0.4386 -2.1139
  994MOL0     H34152  11.449   0.896  -1.507 -1.6801 -1.9960 -1.2773
  994MOL0     H34153  11.587   1.099  -1.601 -0.7380 -0.6014  1.4559
  994MOL0     H34154  11.707   1.289  -1.770  2.1164  1.7536 -3.6050
  994MOL0     H34155  11.648   1.141  -1.855  0.0210  0.0547 -1.5067
  994MOL0     H34156  11.533   1.322  -2.026  0.2542 -1.1348  0.4091
  994MOL0     H34157  11.619   1.445  -1.935  0.4955  0.1391 -0.0289
  994MOL0     H34158  11.750   1.203  -2.049  0.2634 -0.1860  0.6038
  994MOL0     H34159  11.721   1.369  -2.128 -2.4488  0.4224  1.0093
  994MOL0     H34160  11.896   1.306  -1.887 -2.9044 -3.2017  0.3226
  994MOL0     H34161  11.837   1.468  -1.917 -1.4072 -0.3250  1.1460
  994MOL0     H34162  12.037   1.497  -2.040  1.9018 -0.0425 -1.7598
  994MOL0     H34163  11.932   1.438  -2.171  1.2921  1.4815 -0.4397
  994MOL0     H34164  12.113   1.276  -1.980 -0.1583  4.3453  1.3023
  994MOL0     H34165  12.002   1.217  -2.100 -1.6863  1.5924  2.9549
  994MOL0     H34166  12.247   1.372  -2.156  2.1771 -2.6004  2.0232
  994MOL0     H34167  12.118   1.341  -2.282  0.8181  0.3419  0.6456
  994MOL0     H34168  12.124   1.099  -2.225  0.8551 -1.8030 -4.7377
  994MOL0     H34169  12.258   1.166  -2.323  0.4682 -1.0551  0.9442
  994MOL0     H34170  11.272   1.206  -1.848  2.6488  1.4175 -0.5934
  994MOL0     H34171  11.116   1.032  -1.738  0.0550  0.4016 -0.3062
  994MOL0     H34172  11.179   0.586  -1.536 -1.3543 -2.3637 -2.3558
  994MOL0     H34173  11.031   0.402  -1.530 -1.1176 -0.2391 -0.5516
  994MOL0     H34174  10.580   0.857  -0.349 -3.6486 -1.1443 -0.6758
  994MOL0     H34175  10.598   1.036  -0.176  0.4962  0.5344  0.7615
  994MOL0     H34176  10.685   1.052   0.315  0.7528  0.0072  1.8593
  994MOL0     H34177  10.742   1.213   0.494  0.3626  1.1571 -1.0495
  994MOL0     H34178  10.693   1.638   0.419 -0.3846 -0.1478 -0.0637
  994MOL0     H34179  10.768   1.626   0.579  0.4866  3.9751 -2.3040
  994MOL0     H34180  10.565   1.734   0.643 -0.2586  0.4977 -0.8818
  994MOL0     H34181  10.544   1.568   0.679 -2.9934 -1.4825 -1.0614
  994MOL0     H34182  10.416   1.507   0.508 -2.5484 -0.7274 -1.7606
  994MOL0     H34183  10.449   1.646   0.409 -0.3986  0.4543  0.5632
  994MOL0     H34184  10.229   1.625   0.483  0.9751 -4.4496 -0.0662
  994MOL0     H34185  10.279   1.600   0.649 -1.4241 -3.6767 -1.8074
  994MOL0     H34186  10.330   2.040   0.609  0.0179  0.1536  3.5946
  994MOL0     H34187  10.596   1.533   0.263  5.8631  0.2541  0.2937
  994MOL0     H34188  10.378   1.359   0.045  1.0416 -1.9125  1.1786
  994MOL0     H34189  10.426   1.514   0.094  0.5736  0.5994 -3.7244
  994MOL0     H34190  10.539   1.419  -0.007  1.7747 -0.1887  0.0812
  995MOL0     O34191   3.639   5.881   0.399 -0.1100 -0.5059  0.5568
  995MOL0     C34192   3.661   5.766   0.351 -0.0046 -0.6740 -0.4965
  995MOL0     O34193   3.785   5.712   0.336  0.4440 -0.2833 -0.8789
  995MOL0     C34194   3.887   5.796   0.356 -0.4179  0.1895  0.0696
  995MOL0     C34195   3.964   5.796   0.475  0.2453  0.2452 -0.1020
  995MOL0     C34196   4.082   5.880   0.484 -0.4975  0.3995  0.2421
  995MOL0     C34197   4.119   5.970   0.383  0.4796  1.2982 -0.2501
  995MOL0     O34198   4.236   6.036   0.418 -0.4558 -0.1860  0.1181
  995MOL0     C34199   4.310   6.084   0.303  1.3098 -0.7187 -0.4942
  995MOL0     C34200   4.444   6.164   0.323  0.1620 -0.1377  0.0720
  995MOL0     C34201   4.497   6.193   0.184  0.2085 -0.1872  0.5129
  995MOL0     C34202   4.641   6.253   0.191 -0.2421  0.0985  0.4977
  995MOL0     C34203   4.718   6.228   0.070 -0.1056  0.2423  0.1768
  995MOL0     C34204   4.760   6.087   0.035 -0.4718 -0.0368 -0.0335
  995MOL0     C34205   4.877   6.081  -0.061  0.6884 -0.3977 -0.5020
  995MOL0     C34206   4.837   6.083  -0.215  0.3682  0.5950 -0.3485
  995MOL0     N34207   4.956   6.108  -0.297  0.0070 -0.8003  0.1655
  995MOL0     C34208   5.091   6.102  -0.256 -0.0456  0.0690 -0.3079
  995MOL0     C34209   5.154   6.111  -0.371 -0.5258  0.1890 -0.0179
  995MOL0     C34210   5.304   6.117  -0.389  0.7711  0.5948 -0.3372
  995MOL0     C34211   5.377   6.005  -0.316  0.4724 -0.1695 -0.3193
  995MOL0     C34212   5.497   5.960  -0.405 -0.2406  0.4678  0.8440
  995MOL0     C34213   5.600   6.070  -0.422 -0.2930 -0.3749  0.6703
  995MOL0     O34214   5.720   6.007  -0.474  0.8372  0.2755 -0.2809
  995MOL0     C34215   5.829   6.059  -0.404 -0.4870 -0.7481  0.6362
  995MOL0     C34216   5.878   5.980  -0.303  1.1553  0.4545 -0.0729
  995MOL0     C34217   5.992   6.012  -0.225 -0.2512  0.2163  1.2515
  995MOL0     C34218   6.050   6.144  -0.238  0.7449 -0.0948 -0.2220
  995MOL0     C34219   6.159   6.187  -0.147  0.0899  0.0567 -0.3880
  995MOL0     O34220   6.237   6.096  -0.084 -0.1870 -0.3954  0.4075
  995MOL0     C34221   6.311   6.134   0.024 -0.7874 -1.4453  0.0195
  995MOL0     C34222   6.435   6.063   0.037  0.4845  1.3080 -0.9368
  995MOL0     C34223   6.498   6.074   0.167  0.0111  0.6048  0.1214
  995MOL0     C34224   6.446   6.158   0.263  0.0943 -0.6730 -0.1227
  995MOL0     O34225   6.509   6.174   0.386  0.6900 -0.7798  0.3243
  995MOL0     C34226   6.474   6.069   0.473  0.5785  0.4517 -0.3732
  995MOL0     C34227   6.569   6.069   0.593  0.4821 -0.1805 -0.3151
  995MOL0     C34228   6.698   6.001   0.555  0.2498  0.3032 -0.2462
  995MOL0     C34229   6.809   6.033   0.656  0.2088  0.7404 -0.3411
  995MOL0     C34230   6.944   5.958   0.643 -0.7650 -0.7927 -0.3965
  995MOL0     C34231   7.046   6.031   0.719 -0.0061  0.7448  0.0744
  995MOL0     C34232   7.177   5.954   0.693  0.3307  0.0088 -0.1519
  995MOL0     C34233   7.301   6.033   0.732  0.7678  0.4197  0.1731
  995MOL0    Cl34234   7.455   5.961   0.689  0.1128 -0.2669  0.4073
  995MOL0     C34235   6.350   6.251   0.236 -0.2252 -0.1426  0.4355
  995MOL0     C34236   6.277   6.236   0.117  0.4582 -0.4669  0.2614
  995MOL0     O34237   6.177   6.311  -0.144  0.2822  0.7727  0.2977
  995MOL0     C34238   6.001   6.224  -0.340 -0.8501  0.0960  0.6202
  995MOL0     C34239   5.893   6.181  -0.421  0.2293 -0.4446 -0.3745
  995MOL0     N34240   5.061   6.125  -0.474 -0.4110  0.9972 -0.2463
  995MOL0     N34241   4.940   6.120  -0.429  0.7761 -0.0096  0.7797
  995MOL0     C34242   4.052   5.958   0.259  0.6343 -0.2567 -0.7303
  995MOL0     C34243   3.935   5.874   0.247  0.2743 -0.1623 -0.2344
  995MOL0     C34244   3.546   5.672   0.328  0.7391  1.2398  0.0415
  995MOL0     C34245   3.420   5.706   0.381  0.6320  0.5407 -0.0969
  995MOL0     C34246   3.309   5.621   0.366 -0.7145 -0.9461  0.6493
  995MOL0     C34247   3.320   5.508   0.289  0.4029  0.5915 -0.0708
  995MOL0     O34248   3.201   5.446   0.270 -0.5319 -0.8513 -0.3526
  995MOL0     C34249   3.183   5.309   0.291  0.7186 -0.8485 -0.2546
  995MOL0     C34250   3.044   5.275   0.325  0.3172 -0.1445 -0.1417
  995MOL0     C34251   2.945   5.321   0.208 -0.1606 -0.2156 -0.7888
  995MOL0     C34252   2.868   5.447   0.230  0.2933 -0.4899  0.5545
  995MOL0     C34253   2.786   5.445   0.353  1.0894  0.3147  0.2727
  995MOL0     C34254   2.711   5.430   0.447  0.4992  0.3543  1.1016
  995MOL0     C34255   3.442   5.468   0.242 -0.6914  0.3762  0.3702
  995MOL0     C34256   3.557   5.551   0.251  0.5766 -0.3956  0.3156
  995MOL0     C34257   3.682   5.513   0.184 -0.7228 -0.1087 -0.2223
  995MOL0     H34258   3.947   5.724   0.554 -0.3469  1.6659  1.1093
  995MOL0     H34259   4.145   5.887   0.572 -0.5052  2.4394  0.1393
  995MOL0     H34260   4.334   6.004   0.232  1.3755  0.1041 -1.4166
  995MOL0     H34261   4.236   6.148   0.254  0.2219 -1.9802 -0.5619
  995MOL0     H34262   4.514   6.102   0.381  0.4253 -1.1642 -1.3050
  995MOL0     H34263   4.431   6.261   0.372  1.5015  0.7839 -1.3098
  995MOL0     H34264   4.434   6.258   0.123 -0.4045 -0.7021  0.5881
  995MOL0     H34265   4.482   6.099   0.130 -0.6164 -0.1235  0.6214
  995MOL0     H34266   4.642   6.361   0.210 -2.4601  0.0318  1.2701
  995MOL0     H34267   4.702   6.203   0.268  0.0499  3.4253  2.6467
  995MOL0     H34268   4.669   6.277  -0.015  1.4809  1.3743 -0.1326
  995MOL0     H34269   4.813   6.280   0.085  0.8664 -2.1600  3.4403
  995MOL0     H34270   4.798   6.044   0.128  0.2284 -0.5192 -0.5375
  995MOL0     H34271   4.676   6.034  -0.010 -1.6377  1.5002  0.2373
  995MOL0     H34272   4.934   5.996  -0.022 -0.3522 -0.3162  1.3061
  995MOL0     H34273   4.951   6.159  -0.040 -0.4982  1.2893 -2.2375
  995MOL0     H34274   4.790   5.986  -0.236  1.5590 -0.3558  1.2125
  995MOL0     H34275   4.755   6.156  -0.224 -0.9376 -0.3841  2.4481
  995MOL0     H34276   5.134   6.092  -0.156 -1.1457 -2.8465 -0.0089
  995MOL0     H34277   5.327   6.103  -0.495  1.4354  1.3637 -0.2952
  995MOL0     H34278   5.352   6.211  -0.361  0.7113  0.0484  1.7932
  995MOL0     H34279   5.419   6.037  -0.219  2.2389 -2.0928 -0.3808
  995MOL0     H34280   5.304   5.924  -0.311  0.9424 -0.7179 -1.9265
  995MOL0     H34281   5.467   5.914  -0.500  2.4895 -3.8392  1.7985
  995MOL0     H34282   5.547   5.878  -0.354  0.1932 -0.0411 -0.3518
  995MOL0     H34283   5.607   6.108  -0.319 -3.3163  0.7975  0.5500
  995MOL0     H34284   5.569   6.156  -0.482  4.5617  2.6428  1.8696
  995MOL0     H34285   5.829   5.887  -0.275 -1.0506  0.8253 -2.3807
  995MOL0     H34286   6.028   5.948  -0.145  0.3242  2.7293  3.1402
  995MOL0     H34287   6.467   5.985  -0.031  3.4455 -0.7694  2.5088
  995MOL0     H34288   6.584   6.012   0.193 -0.6365 -0.7964 -0.9419
  995MOL0     H34289   6.375   6.096   0.510 -0.3094  1.8253 -3.4136
  995MOL0     H34290   6.464   5.969   0.432  1.7533 -1.5687  3.7111
  995MOL0     H34291   6.581   6.172   0.627  1.6590 -0.8692  1.5198
  995MOL0     H34292   6.523   6.008   0.672  1.6040 -0.8522 -0.1556
  995MOL0     H34293   6.686   5.893   0.547 -0.6641  0.4254 -0.6820
  995MOL0     H34294   6.731   6.027   0.454 -3.5329 -2.6579 -2.5185
  995MOL0     H34295   6.784   6.016   0.762 -1.2856  4.2937  0.0303
  995MOL0     H34296   6.834   6.139   0.646  0.5962  0.7082  0.1997
  995MOL0     H34297   6.978   5.953   0.539 -1.3838 -0.8638 -0.6001
  995MOL0     H34298   6.932   5.855   0.680 -1.0851 -0.9642 -0.9595
  995MOL0     H34299   7.057   6.134   0.684  3.6993  0.2970 -0.3731
  995MOL0     H34300   7.020   6.034   0.826 -1.4807  2.5364 -0.2722
  995MOL0     H34301   7.184   5.922   0.588 -1.9740 -0.6062 -0.1795
  995MOL0     H34302   7.170   5.860   0.749  1.5778  0.0483  0.0850
  995MOL0     H34303   7.303   6.137   0.702 -3.9125  0.4464 -0.7474
  995MOL0     H34304   7.308   6.026   0.841  4.2725 -1.7390 -0.0045
  995MOL0     H34305   6.324   6.316   0.318 -0.4787 -0.8181  0.8997
  995MOL0     H34306   6.187   6.295   0.110 -0.3700 -1.8863 -1.7278
  995MOL0     H34307   6.031   6.328  -0.353  1.4927 -0.7636 -1.9655
  995MOL0     H34308   5.847   6.253  -0.488  3.3532  2.0721 -0.0705
  995MOL0     H34309   4.092   6.014   0.175 -3.3649  5.3934  0.5445
  995MOL0     H34310   3.904   5.873   0.143  3.5381 -0.2281 -1.3215
  995MOL0     H34311   3.412   5.797   0.438  2.8182  0.7525 -0.0388
  995MOL0     H34312   3.220   5.660   0.413  0.1872 -0.2239  1.8061
  995MOL0     H34313   3.240   5.275   0.378  1.0116  0.3761  0.0481
  995MOL0     H34314   3.228   5.251   0.210  2.0325 -2.2648  1.3963
  995MOL0     H34315   3.025   5.323   0.421  3.2407  0.0046  0.4362
  995MOL0     H34316   3.034   5.168   0.346 -1.5203  0.4178  2.3507
  995MOL0     H34317   2.876   5.237   0.194  0.1051 -0.8916  1.5414
  995MOL0     H34318   3.004   5.339   0.117 -1.9333 -1.5368 -2.2973
  995MOL0     H34319   2.933   5.535   0.231  1.8644 -1.6027  0.4214
  995MOL0     H34320   2.805   5.464   0.142  0.5074 -0.5405  0.3896
  995MOL0     H34321   2.636   5.413   0.522 -1.3336 -2.4215 -1.1462
  995MOL0     H34322   3.459   5.372   0.195  1.0861 -0.6065  2.8163
  995MOL0     H34323   3.767   5.512   0.253  1.0584 -1.6248 -2.2791
  995MOL0     H34324   3.685   5.411   0.143 -0.3530 -0.7883  1.4140
  995MOL0     H34325   3.710   5.581   0.104  1.0067 -0.3057  0.1784
  996MOL0     O34326   7.572   5.343  11.264  0.3819 -0.0320 -0.0291
  996MOL0     C34327   7.522   5.317  11.155 -0.6376  0.3470  0.1847
  996MOL0     O34328   7.413   5.374  11.102  0.5476 -0.0657 -0.2075
  996MOL0     C34329   7.371   5.488  11.162  0.2674  0.3569  0.6955
  996MOL0     C34330   7.457   5.604  11.164 -0.0009 -0.0117 -0.1007
  996MOL0     C34331   7.402   5.725  11.207  0.7884 -0.3367 -0.6953
  996MOL0     C34332   7.271   5.739  11.251 -0.8537  1.0029 -0.3901
  996MOL0     O34333   7.227   5.869  11.277  0.3054  0.1163 -0.0201
  996MOL0     C34334   7.099   5.896  11.334 -0.0694 -0.0835  0.6637
  996MOL0     C34335   6.992   5.909  11.217  0.4093  0.3315 -0.6129
  996MOL0     C34336   6.969   6.055  11.173 -0.2546  0.1612  0.2205
  996MOL0     C34337   6.874   6.125  11.258  0.0737 -0.8435 -0.2297
  996MOL0     C34338   6.721   6.067  11.272  1.0718  0.9635  0.4179
  996MOL0     C34339   6.645   6.053  11.136 -0.1106  0.1090  0.0798
  996MOL0     C34340   6.602   6.173  11.053 -1.1109 -0.4352  0.5544
  996MOL0     C34341   6.502   6.260  11.133 -0.3817  0.1877  0.5434
  996MOL0     N34342   6.459   6.377  11.062 -0.3373 -1.0429 -0.7695
  996MOL0     C34343   6.541   6.489  11.035  0.4692  0.4925  0.5913
  996MOL0     C34344   6.469   6.580  10.973  0.0218  0.2192  0.0139
  996MOL0     C34345   6.521   6.720  10.934 -0.7294  0.8507 -0.6753
  996MOL0     C34346   6.615   6.774  11.044 -0.6945  0.0875 -0.6088
  996MOL0     C34347   6.680   6.912  11.008  0.1563  0.1046  0.2668
  996MOL0     C34348   6.755   6.966  11.119 -0.0940 -0.3052  0.5494
  996MOL0     O34349   6.874   6.894  11.128  0.1596  0.4288 -0.4829
  996MOL0     C34350   6.987   6.958  11.160  0.6736 -0.4343 -0.2253
  996MOL0     C34351   7.002   7.010  11.289 -0.1632 -0.7417  0.0344
  996MOL0     C34352   7.111   7.098  11.314  0.0248 -0.5758  0.0329
  996MOL0     C34353   7.197   7.141  11.211  0.2491 -0.0570 -0.2445
  996MOL0     C34354   7.303   7.249  11.234  0.2284 -0.2415 -0.2641
  996MOL0     O34355   7.378   7.282  11.120  0.5638 -0.1394  0.1817
  996MOL0     C34356   7.473   7.382  11.122  0.7306 -0.2051 -0.5011
  996MOL0     C34357   7.545   7.402  11.011 -0.4397 -0.6645 -0.0503
  996MOL0     C34358   7.631   7.506  10.994 -0.2856 -0.5942  0.0162
  996MOL0     C34359   7.650   7.596  11.098  0.0828  0.1445 -0.7879
  996MOL0     O34360   7.755   7.685  11.092  0.0711  0.8754 -0.1340
  996MOL0     C34361   7.727   7.823  11.123  0.6148  0.2671 -0.0171
  996MOL0     C34362   7.747   7.895  10.983  0.4727  0.3028  0.3621
  996MOL0     C34363   7.764   8.054  11.010 -0.2246  0.5574 -0.4243
  996MOL0     C34364   7.904   8.104  11.014 -0.9323  0.4530 -0.3853
  996MOL0     C34365   7.994   8.032  11.115  0.1232  0.4454 -0.6226
  996MOL0     C34366   8.124   8.117  11.118 -0.6345  0.3576  0.6047
  996MOL0     C34367   8.224   8.049  11.210 -0.6344 -0.9555  1.2289
  996MOL0     C34368   8.360   8.101  11.185  0.8244  0.1035  0.1304
  996MOL0    Cl34369   8.380   8.266  11.250 -0.8081  0.0060  0.3632
  996MOL0     C34370   7.577   7.586  11.219  0.3806  0.3456  0.8313
  996MOL0     C34371   7.477   7.485  11.220  0.0528 -0.5849 -0.4103
  996MOL0     O34372   7.309   7.291  11.347  0.1606  0.0000  0.1331
  996MOL0     C34373   7.177   7.094  11.081 -0.6805  0.9839  0.2394
  996MOL0     C34374   7.078   7.004  11.054 -0.1626  0.2344 -0.4156
  996MOL0     N34375   6.347   6.517  10.947  0.0430  0.2955 -0.6092
  996MOL0     N34376   6.343   6.400  11.002 -0.1065 -0.2605  0.0526
  996MOL0     C34377   7.187   5.622  11.247 -0.2843  0.4723  0.6740
  996MOL0     C34378   7.238   5.497  11.212 -0.6482  0.2477 -0.0787
  996MOL0     C34379   7.577   5.187  11.096  0.2220 -0.1487 -0.1315
  996MOL0     C34380   7.612   5.075  11.182  0.1256  0.4295  0.9397
  996MOL0     C34381   7.629   4.947  11.124 -1.1464 -0.3178  0.5570
  996MOL0     C34382   7.630   4.926  10.985  0.5458 -0.0284  0.3366
  996MOL0     O34383   7.644   4.793  10.950 -0.3895  0.7426  1.2073
  996MOL0     C34384   7.532   4.733  10.885  0.4504 -0.2642 -0.2232
  996MOL0     C34385   7.574   4.648  10.768 -0.3010 -0.5540 -0.4145
  996MOL0     C34386   7.453   4.589  10.708 -0.5510 -0.2398  0.0393
  996MOL0     C34387   7.487   4.511  10.570 -0.3020 -0.1901 -0.6951
  996MOL0     C34388   7.374   4.430  10.515  0.6325  0.2195  0.2518
  996MOL0     C34389   7.278   4.361  10.488  0.1409 -0.8901 -0.1282
  996MOL0     C34390   7.600   5.032  10.904  0.0233 -0.7215  0.2103
  996MOL0     C34391   7.575   5.161  10.957 -0.7758  0.0495  0.0231
  996MOL0     C34392   7.537   5.272  10.859  0.3710 -1.0371 -0.4912
  996MOL0     H34393   7.556   5.605  11.121 -0.0117  0.2165 -0.1222
  996MOL0     H34394   7.451   5.821  11.215  0.1031 -0.1147  1.6806
  996MOL0     H34395   7.080   5.813  11.402  1.0350 -0.2563  0.7726
  996MOL0     H34396   7.106   5.985  11.397  0.9182 -0.8291  1.6503
  996MOL0     H34397   6.894   5.883  11.259 -1.1949  2.7219 -2.5419
  996MOL0     H34398   7.015   5.847  11.129  2.0707 -2.7580  1.8027
  996MOL0     H34399   6.939   6.057  11.068  2.2735  2.5078 -0.5460
  996MOL0     H34400   7.060   6.110  11.195 -0.0270 -0.3702  0.6365
  996MOL0     H34401   6.919   6.130  11.358 -0.9836 -3.2703  0.4360
  996MOL0     H34402   6.865   6.227  11.218 -0.8120 -1.6698 -2.2731
  996MOL0     H34403   6.722   5.968  11.320  3.0073  0.1545 -1.1300
  996MOL0     H34404   6.675   6.138  11.341 -0.2665 -1.4201  2.1311
  996MOL0     H34405   6.703   5.985  11.074  1.2009  0.0859  1.2728
  996MOL0     H34406   6.553   5.997  11.156  0.2904  0.0444  1.9311
  996MOL0     H34407   6.559   6.135  10.960  0.2675 -1.9584  0.4822
  996MOL0     H34408   6.692   6.227  11.022 -1.4033 -0.4746 -0.3796
  996MOL0     H34409   6.413   6.200  11.153  2.2388 -3.5997  1.8524
  996MOL0     H34410   6.538   6.287  11.233 -1.0428 -4.5433  2.2947
  996MOL0     H34411   6.642   6.497  11.074  0.0979  0.8895  1.5122
  996MOL0     H34412   6.569   6.717  10.836  1.2258  0.8795  0.2450
  996MOL0     H34413   6.429   6.780  10.936 -2.3363 -1.4765  0.2406
  996MOL0     H34414   6.556   6.781  11.136  1.6081 -3.7679  1.4560
  996MOL0     H34415   6.694   6.702  11.071 -2.1697 -0.5841  2.4034
  996MOL0     H34416   6.608   6.981  10.965 -0.1420 -1.1805 -1.3931
  996MOL0     H34417   6.755   6.882  10.935 -0.0700  0.2999 -0.0451
  996MOL0     H34418   6.695   6.944  11.208  0.9146  0.9796  1.6011
  996MOL0     H34419   6.777   7.069  11.087 -2.2954 -0.1935 -0.8089
  996MOL0     H34420   6.947   6.972  11.375  1.2913 -0.0085  1.3517
  996MOL0     H34421   7.120   7.131  11.417  2.4144 -0.7786 -0.0657
  996MOL0     H34422   7.531   7.330  10.931 -1.0290 -0.2850 -0.2927
  996MOL0     H34423   7.689   7.519  10.903 -2.5356  3.7693 -1.0914
  996MOL0     H34424   7.627   7.835  11.166  0.4494  2.5994 -0.9329
  996MOL0     H34425   7.812   7.841  11.188  0.6302  0.7040 -0.1583
  996MOL0     H34426   7.836   7.869  10.925  0.2577  3.5626 -1.6361
  996MOL0     H34427   7.657   7.876  10.924 -0.1489 -1.8339  1.8412
  996MOL0     H34428   7.718   8.122  10.938 -2.8549  0.4626  1.0497
  996MOL0     H34429   7.721   8.078  11.108 -0.2937  1.6608 -0.7103
  996MOL0     H34430   7.898   8.212  11.032  0.9019  0.0043  4.0921
  996MOL0     H34431   7.956   8.101  10.918  3.8742 -0.5602  1.9706
  996MOL0     H34432   8.011   7.926  11.095  0.9680  0.7747 -1.7267
  996MOL0     H34433   7.950   8.041  11.215  0.0068 -0.3662 -0.5973
  996MOL0     H34434   8.160   8.130  11.016  1.8035 -1.6145  1.1166
  996MOL0     H34435   8.095   8.219  11.142 -2.4741  0.4425 -1.6159
  996MOL0     H34436   8.227   7.942  11.187 -1.6184 -1.8614  4.6439
  996MOL0     H34437   8.196   8.062  11.315  0.3509 -1.4142  1.5542
  996MOL0     H34438   8.424   8.023  11.226  0.3097 -0.7342 -0.6268
  996MOL0     H34439   8.384   8.115  11.079 -0.8474  2.4553 -0.0298
  996MOL0     H34440   7.587   7.662  11.295 -2.4283  1.2747  0.4039
  996MOL0     H34441   7.415   7.478  11.308  0.5709  0.9793  0.1138
  996MOL0     H34442   7.236   7.122  10.994  2.9120  0.8283  2.4348
  996MOL0     H34443   7.066   6.981  10.948 -0.4168 -0.8815 -0.1576
  996MOL0     H34444   7.081   5.627  11.267 -0.4810  1.5357 -0.4954
  996MOL0     H34445   7.178   5.407  11.207  1.4875 -1.2314 -0.9198
  996MOL0     H34446   7.617   5.083  11.290 -4.1888  1.2525  1.2823
  996MOL0     H34447   7.657   4.876  11.201  3.1291 -1.0099 -1.3468
  996MOL0     H34448   7.466   4.809  10.843  2.6791  0.4291 -2.7456
  996MOL0     H34449   7.485   4.679  10.968  1.5579 -1.2209 -0.1851
  996MOL0     H34450   7.630   4.559  10.799 -0.3086 -0.0300  1.1570
  996MOL0     H34451   7.642   4.699  10.698  0.7119  0.3267  1.1548
  996MOL0     H34452   7.382   4.670  10.689  1.1184  2.1328  3.1411
  996MOL0     H34453   7.402   4.522  10.778  0.5349 -0.9842  0.1448
  996MOL0     H34454   7.528   4.573  10.490 -3.5110 -1.4185 -3.5108
  996MOL0     H34455   7.567   4.441  10.597  0.1685  0.6528  0.1488
  996MOL0     H34456   7.187   4.307  10.471 -1.1230  1.0725  0.0005
  996MOL0     H34457   7.576   5.026  10.798 -1.5866 -2.1773  0.6136
  996MOL0     H34458   7.430   5.278  10.882  0.6095  4.6147  0.7003
  996MOL0     H34459   7.579   5.372  10.878 -5.1194  1.4597  0.6801
  996MOL0     H34460   7.553   5.249  10.754 -0.8172 -0.9804 -0.7052
  997MOL0     O34461   7.976   4.615   6.753 -0.1467 -0.0557 -0.2657
  997MOL0     C34462   7.891   4.685   6.697 -0.1160  0.2533  1.3761
  997MOL0     O34463   7.917   4.813   6.647  0.1850  0.4275 -0.3979
  997MOL0     C34464   8.047   4.861   6.660  1.6215 -0.0437 -0.4793
  997MOL0     C34465   8.136   4.838   6.561 -0.2556  0.2314  0.6773
  997MOL0     C34466   8.273   4.865   6.573 -0.3799 -0.0915  0.4130
  997MOL0     C34467   8.326   4.919   6.689 -0.3623  0.0863 -0.0677
  997MOL0     O34468   8.463   4.939   6.674 -0.8262  0.0131 -1.4210
  997MOL0     C34469   8.539   4.975   6.795 -0.0615 -0.1560  0.4894
  997MOL0     C34470   8.677   5.025   6.762 -0.2075 -0.3320 -0.0467
  997MOL0     C34471   8.662   5.161   6.679  0.5079  0.1220  0.0005
  997MOL0     C34472   8.792   5.237   6.667  0.3005 -0.3944  0.0419
  997MOL0     C34473   8.875   5.194   6.546 -0.6179 -0.8939 -0.1806
  997MOL0     C34474   8.992   5.284   6.517  0.2965 -0.4102 -0.0185
  997MOL0     C34475   9.069   5.224   6.402  0.6637 -1.0887 -0.0959
  997MOL0     C34476   9.183   5.309   6.350  0.3513  0.4079  0.7047
  997MOL0     N34477   9.313   5.285   6.430  0.2179 -0.3148 -0.5232
  997MOL0     C34478   9.389   5.175   6.399  0.6556 -0.0001  0.6586
  997MOL0     C34479   9.510   5.201   6.448 -1.0472  0.6239 -0.5886
  997MOL0     C34480   9.640   5.113   6.433  1.4155 -0.5921 -0.6051
  997MOL0     C34481   9.765   5.208   6.416 -0.5375 -0.4644 -0.9533
  997MOL0     C34482   9.901   5.139   6.433  0.8343 -0.2299 -1.2466
  997MOL0     C34483   9.938   5.079   6.579  1.0170 -0.1349  0.6896
  997MOL0     O34484  10.069   5.028   6.568  0.2552  1.0208 -0.5529
  997MOL0     C34485  10.129   4.988   6.689 -0.0681  0.2678  1.5148
  997MOL0     C34486  10.075   4.992   6.814  0.4664  0.8528 -0.7177
  997MOL0     C34487  10.129   4.931   6.927  0.0335 -0.1454  0.2850
  997MOL0     C34488  10.263   4.873   6.912 -0.1505 -0.3241  0.6122
  997MOL0     C34489  10.344   4.816   7.025  0.0800 -0.8312  0.3776
  997MOL0     O34490  10.477   4.793   7.001 -0.1538 -0.4610  0.2409
  997MOL0     C34491  10.564   4.756   7.097  0.3823  1.2305  0.6683
  997MOL0     C34492  10.575   4.818   7.221  0.9193 -0.2836 -0.1318
  997MOL0     C34493  10.654   4.758   7.317 -0.1912  1.1494  0.2892
  997MOL0     C34494  10.729   4.650   7.283 -0.0753 -0.0067  0.2755
  997MOL0     O34495  10.790   4.599   7.393  0.3222  0.1439 -0.3687
  997MOL0     C34496  10.896   4.498   7.371  0.0932 -0.3617 -0.3322
  997MOL0     C34497  10.978   4.453   7.496 -0.3213  1.0770  0.1941
  997MOL0     C34498  11.012   4.569   7.584 -0.1205  0.3516 -0.3286
  997MOL0     C34499  11.133   4.530   7.672 -0.3446  1.2685 -0.0762
  997MOL0     C34500  11.175   4.647   7.763 -0.9792 -0.3921  0.6766
  997MOL0     C34501  11.306   4.615   7.822 -0.5670  0.9030  1.1146
  997MOL0     C34502  11.409   4.533   7.731  0.9641  0.2142 -0.9412
  997MOL0     C34503  11.535   4.516   7.811 -0.1715 -1.2352 -0.3308
  997MOL0    Cl34504  11.522   4.394   7.941  0.3528  0.3688 -0.0330
  997MOL0     C34505  10.728   4.595   7.152 -0.1937 -0.4366 -0.6390
  997MOL0     C34506  10.636   4.645   7.059 -0.5233 -0.5981  0.3949
  997MOL0     O34507  10.284   4.797   7.130  0.0759  0.6823 -0.2559
  997MOL0     C34508  10.319   4.887   6.784 -0.6040  0.0135  0.1307
  997MOL0     C34509  10.254   4.942   6.679 -0.8923  0.3803 -0.2257
  997MOL0     N34510   9.504   5.328   6.504 -0.2773  0.3707  0.0448
  997MOL0     N34511   9.386   5.375   6.495  0.0772 -0.3033  0.2964
  997MOL0     C34512   8.234   4.951   6.799  0.3904  0.3294  0.1783
  997MOL0     C34513   8.100   4.917   6.780  1.1272 -0.1278  1.4779
  997MOL0     C34514   7.751   4.643   6.699 -0.5139 -0.0095 -0.5375
  997MOL0     C34515   7.710   4.566   6.803 -0.1320 -0.1113  0.3616
  997MOL0     C34516   7.575   4.526   6.822  0.2559  1.1482  1.0798
  997MOL0     C34517   7.482   4.548   6.726  0.5464  0.2195  0.5074
  997MOL0     O34518   7.356   4.493   6.725 -0.6944  0.3686  0.5589
  997MOL0     C34519   7.332   4.392   6.627  0.0944 -0.8864 -0.6655
  997MOL0     C34520   7.198   4.327   6.650 -0.4434 -0.0006  0.4088
  997MOL0     C34521   7.085   4.406   6.589  0.3891  1.0391  0.7681
  997MOL0     C34522   6.948   4.339   6.615 -0.1795 -0.0499 -0.5713
  997MOL0     C34523   6.919   4.359   6.756  0.6217 -0.9105 -0.4962
  997MOL0     C34524   6.911   4.396   6.874  0.1422  0.3574 -0.0207
  997MOL0     C34525   7.523   4.625   6.611 -0.0884  0.6907  0.0519
  997MOL0     C34526   7.658   4.669   6.596 -0.0684 -0.6852 -0.3366
  997MOL0     C34527   7.685   4.757   6.475 -0.0220  0.0839  0.5818
  997MOL0     H34528   8.107   4.798   6.465  0.9683  0.0082  0.3866
  997MOL0     H34529   8.349   4.856   6.496  1.0862 -0.0476  1.7819
  997MOL0     H34530   8.477   5.051   6.843 -0.5859  0.0335 -0.4834
  997MOL0     H34531   8.537   4.896   6.871  0.9097 -2.0615 -1.3694
  997MOL0     H34532   8.734   4.951   6.705  0.6217  1.0693 -1.0883
  997MOL0     H34533   8.730   5.040   6.857  0.8306  0.3537 -0.7160
  997MOL0     H34534   8.597   5.222   6.742  1.2345 -0.1555  1.0412
  997MOL0     H34535   8.609   5.141   6.586 -2.4028 -0.2193  1.6291
  997MOL0     H34536   8.767   5.343   6.665 -0.0905 -0.4875 -0.5073
  997MOL0     H34537   8.845   5.224   6.762  4.8539  0.1314 -2.1490
  997MOL0     H34538   8.904   5.088   6.547 -0.4487 -0.9707 -3.1416
  997MOL0     H34539   8.813   5.200   6.456 -3.2780  0.5876  1.6450
  997MOL0     H34540   8.968   5.387   6.487  4.5267  0.2669 -1.8702
  997MOL0     H34541   9.051   5.280   6.609  2.1078 -1.3663 -1.1701
  997MOL0     H34542   8.987   5.215   6.330  2.3005 -2.7225 -1.8551
  997MOL0     H34543   9.100   5.123   6.430  2.4885 -0.1284  1.5990
  997MOL0     H34544   9.192   5.289   6.243  0.6221  2.8832  0.2078
  997MOL0     H34545   9.161   5.416   6.354 -2.2596 -0.0455  0.1501
  997MOL0     H34546   9.365   5.094   6.331  3.0614 -0.6386  0.4951
  997MOL0     H34547   9.657   5.048   6.519  0.5798  4.1318  3.6138
  997MOL0     H34548   9.632   5.048   6.345 -0.2861 -2.0250  0.5656
  997MOL0     H34549   9.762   5.264   6.322 -0.2146 -0.9123 -1.2363
  997MOL0     H34550   9.746   5.287   6.489 -0.1272  0.5127 -1.8735
  997MOL0     H34551   9.975   5.215   6.404  1.6557 -1.2093 -1.7836
  997MOL0     H34552   9.918   5.068   6.351  1.4513 -2.0740  0.3984
  997MOL0     H34553   9.862   5.004   6.605  0.4738 -0.3756 -1.3989
  997MOL0     H34554   9.933   5.162   6.650  2.2074  0.4747  0.0860
  997MOL0     H34555   9.974   5.032   6.817 -0.3607 -1.1583  1.1325
  997MOL0     H34556  10.067   4.935   7.016 -0.5567  0.5260 -0.1355
  997MOL0     H34557  10.520   4.907   7.250  0.7712 -0.6359  0.7106
  997MOL0     H34558  10.647   4.794   7.419  0.7875  0.3963  0.6431
  997MOL0     H34559  10.847   4.414   7.321  1.3638 -1.2421 -0.1433
  997MOL0     H34560  10.977   4.536   7.308  0.6339 -0.3213  0.3748
  997MOL0     H34561  10.927   4.382   7.562 -3.4024  3.1038  0.1961
  997MOL0     H34562  11.069   4.414   7.448 -0.8649 -0.5965  0.4665
  997MOL0     H34563  11.043   4.656   7.526 -0.8491 -1.5522 -3.8320
  997MOL0     H34564  10.921   4.596   7.639 -0.5411  0.7608 -1.2076
  997MOL0     H34565  11.205   4.511   7.592 -0.8592  1.2846 -0.5475
  997MOL0     H34566  11.111   4.438   7.727 -0.6520  0.7707 -1.0089
  997MOL0     H34567  11.109   4.659   7.850  2.3205  0.5219  3.2301
  997MOL0     H34568  11.182   4.738   7.703 -0.7798 -0.9533 -0.1768
  997MOL0     H34569  11.347   4.702   7.874 -0.0596  1.0339  0.5147
  997MOL0     H34570  11.281   4.538   7.895 -1.6828 -1.3301 -1.4239
  997MOL0     H34571  11.444   4.588   7.643  2.6738  1.6882  0.5641
  997MOL0     H34572  11.374   4.433   7.704 -0.4758  1.0074 -2.1810
  997MOL0     H34573  11.617   4.493   7.742 -0.3431  2.3211 -1.9063
  997MOL0     H34574  11.561   4.611   7.857  0.9186  0.7844 -4.6006
  997MOL0     H34575  10.790   4.507   7.140 -0.3098 -0.7931  1.0698
  997MOL0     H34576  10.629   4.616   6.955 -0.6030  1.2437 -0.1434
  997MOL0     H34577  10.425   4.870   6.770 -0.6502 -0.0448 -0.1549
  997MOL0     H34578  10.300   4.941   6.580  0.5326 -1.4987  0.4074
  997MOL0     H34579   8.271   4.994   6.892 -0.4163  2.5930 -0.5055
  997MOL0     H34580   8.033   4.923   6.865  0.2767  1.2425  0.7424
  997MOL0     H34581   7.775   4.537   6.885  1.0060 -0.5588 -0.6834
  997MOL0     H34582   7.568   4.459   6.908  0.0114  0.0795  0.2504
  997MOL0     H34583   7.406   4.312   6.629  1.1583  0.0789  0.7854
  997MOL0     H34584   7.332   4.443   6.530  1.7161  1.4473  0.4683
  997MOL0     H34585   7.184   4.323   6.758  1.0430  1.0361  0.6725
  997MOL0     H34586   7.208   4.232   6.596 -0.1117 -0.0214  0.5035
  997MOL0     H34587   7.107   4.414   6.483 -0.8286 -1.0548  0.3038
  997MOL0     H34588   7.093   4.501   6.643  1.8639 -0.0429  2.5553
  997MOL0     H34589   6.871   4.391   6.558 -1.6639  0.7766  2.0106
  997MOL0     H34590   6.958   4.235   6.582 -1.9764  0.1232 -1.8774
  997MOL0     H34591   6.916   4.438   6.972  1.1241 -1.0761  0.5847
  997MOL0     H34592   7.449   4.645   6.534  2.8724 -0.1163 -3.3111
  997MOL0     H34593   7.701   4.862   6.502  1.4520 -0.2638  1.1425
  997MOL0     H34594   7.776   4.734   6.418  1.5755  2.0077  2.1995
  997MOL0     H34595   7.597   4.759   6.409  0.3072 -0.0648  0.1290
  998MOL0     O34596   6.699   6.754   7.297  0.4915  0.1152 -0.9289
  998MOL0     C34597   6.749   6.869   7.286  0.4835  0.4449  0.0440
  998MOL0     O34598   6.728   6.972   7.375 -0.4499 -0.2170  0.4201
  998MOL0     C34599   6.670   6.959   7.500  0.3949  0.0759 -0.7068
  998MOL0     C34600   6.663   6.839   7.574  0.5719 -0.2409  0.1505
  998MOL0     C34601   6.614   6.834   7.706  0.1586  0.2803 -0.0029
  998MOL0     C34602   6.564   6.948   7.765 -0.5596  0.3624  0.2254
  998MOL0     O34603   6.501   6.947   7.892 -1.2262  0.3986  0.2110
  998MOL0     C34604   6.390   6.851   7.901 -0.4654 -0.5151 -0.0649
  998MOL0     C34605   6.319   6.881   8.038 -0.6111  0.2051  0.1387
  998MOL0     C34606   6.426   6.842   8.157 -0.0798  0.8988 -0.3761
  998MOL0     C34607   6.349   6.846   8.295  0.0845 -0.4948 -0.1012
  998MOL0     C34608   6.305   6.992   8.351  0.3283  0.2735 -0.4486
  998MOL0     C34609   6.428   7.089   8.363 -0.9086  0.5872 -0.4951
  998MOL0     C34610   6.519   7.071   8.485 -0.3684 -0.7318  0.3096
  998MOL0     C34611   6.442   7.042   8.608 -0.5414 -0.2855 -0.0240
  998MOL0     N34612   6.539   7.024   8.709  0.0527  0.2571 -0.0700
  998MOL0     C34613   6.589   7.115   8.807  0.2312 -0.2239  0.9919
  998MOL0     C34614   6.699   7.052   8.856 -0.3094  0.3309 -0.6958
  998MOL0     C34615   6.790   7.113   8.958  0.9065 -0.0391  0.2002
  998MOL0     C34616   6.720   7.190   9.074  0.4115 -0.1932  0.5654
  998MOL0     C34617   6.808   7.285   9.159 -0.2551  0.3326 -0.0695
  998MOL0     C34618   6.959   7.239   9.183  0.1653  0.5287 -0.0603
  998MOL0     O34619   7.022   7.354   9.247  0.6966  0.2042 -0.4646
  998MOL0     C34620   7.147   7.328   9.293 -0.3886 -0.6475 -0.2012
  998MOL0     C34621   7.249   7.324   9.205  0.1169 -0.3561  0.1743
  998MOL0     C34622   7.383   7.294   9.251  0.0531  0.5881  0.0492
  998MOL0     C34623   7.413   7.276   9.383  0.0917  0.3816  0.5159
  998MOL0     C34624   7.551   7.250   9.443  0.1244 -0.8776 -0.3924
  998MOL0     O34625   7.654   7.273   9.362  0.2901 -0.6943  0.0808
  998MOL0     C34626   7.783   7.241   9.407 -0.9038  0.5441  0.3216
  998MOL0     C34627   7.886   7.323   9.367  0.4053 -0.8418  0.1561
  998MOL0     C34628   8.017   7.294   9.393 -0.8353 -0.0744  0.3562
  998MOL0     C34629   8.050   7.177   9.465  0.4312 -0.5389 -0.1255
  998MOL0     O34630   8.177   7.154   9.490  0.6365  0.3612  0.0531
  998MOL0     C34631   8.257   7.072   9.408 -0.2720  0.6324  0.2920
  998MOL0     C34632   8.402   7.077   9.458  0.3236 -0.0338  0.0483
  998MOL0     C34633   8.487   6.967   9.405  0.0106  0.1026 -1.2031
  998MOL0     C34634   8.490   6.951   9.253  0.2591 -0.2368  0.0073
  998MOL0     C34635   8.429   6.823   9.193  0.2901 -0.3007  0.0137
  998MOL0     C34636   8.477   6.690   9.255  0.7835 -0.0876 -0.5801
  998MOL0     C34637   8.631   6.683   9.277 -0.5298  0.2846  0.8808
  998MOL0     C34638   8.674   6.536   9.285 -0.7773  0.6670  0.1961
  998MOL0    Cl34639   8.848   6.503   9.260 -0.1957 -0.2790  0.0457
  998MOL0     C34640   7.944   7.096   9.505 -0.4598 -0.9797  0.0170
  998MOL0     C34641   7.816   7.131   9.481  0.2874  0.2862  0.1410
  998MOL0     O34642   7.556   7.201   9.557  0.6249 -0.0808 -0.4950
  998MOL0     C34643   7.302   7.283   9.470  0.5088  0.9283  0.0218
  998MOL0     C34644   7.170   7.294   9.423 -0.7627 -0.3669  0.5103
  998MOL0     N34645   6.714   6.927   8.803  0.2456  0.6971 -0.5301
  998MOL0     N34646   6.618   6.903   8.721  0.8580 -0.3978 -0.1935
  998MOL0     C34647   6.562   7.073   7.693 -0.6213  0.3711  0.2801
  998MOL0     C34648   6.613   7.065   7.555 -0.7082 -0.1226 -0.0723
  998MOL0     C34649   6.812   6.903   7.156  0.1490 -0.2990  0.5363
  998MOL0     C34650   6.924   6.989   7.170 -0.3318 -0.0895 -0.1838
  998MOL0     C34651   6.990   7.039   7.057 -0.4447 -0.7147  0.4812
  998MOL0     C34652   6.957   7.019   6.928 -0.3101 -0.0040 -0.1647
  998MOL0     O34653   7.026   7.082   6.826 -0.2603 -0.4043 -0.0445
  998MOL0     C34654   7.012   7.036   6.688  0.2061 -0.4061  0.0655
  998MOL0     C34655   6.929   7.133   6.602 -0.7518 -0.7205  0.5940
  998MOL0     C34656   6.945   7.126   6.446  0.1043 -0.2272  0.0441
  998MOL0     C34657   6.895   6.992   6.382  0.4285 -0.2301 -0.7140
  998MOL0     C34658   6.945   7.005   6.250  0.3146  0.4466  0.0085
  998MOL0     C34659   6.970   7.024   6.136 -0.0826  0.1233  0.5245
  998MOL0     C34660   6.848   6.930   6.917  0.0714  0.2142 -0.3041
  998MOL0     C34661   6.779   6.860   7.023  0.8420 -0.8166 -0.1717
  998MOL0     C34662   6.664   6.769   7.001 -0.0363  0.8156  0.0669
  998MOL0     H34663   6.708   6.748   7.537  1.9436  0.0014  1.1571
  998MOL0     H34664   6.620   6.741   7.762  1.7103  1.4419  1.8952
  998MOL0     H34665   6.324   6.868   7.815  1.2174 -3.7394 -2.1953
  998MOL0     H34666   6.416   6.745   7.896 -0.7089 -0.5320 -1.4206
  998MOL0     H34667   6.222   6.830   8.045 -0.5338 -0.1336 -1.0218
  998MOL0     H34668   6.297   6.988   8.044 -0.0439  0.4091 -1.0405
  998MOL0     H34669   6.513   6.909   8.156  1.8170 -1.3998 -1.5774
  998MOL0     H34670   6.459   6.739   8.141 -0.0606  0.9925 -0.9552
  998MOL0     H34671   6.258   6.787   8.282  0.6849 -1.2298 -1.1074
  998MOL0     H34672   6.408   6.806   8.378 -1.7002  0.7750  1.8551
  998MOL0     H34673   6.232   7.034   8.281 -0.3243 -0.1189 -0.0092
  998MOL0     H34674   6.267   6.978   8.452  2.0598  0.0202  0.2070
  998MOL0     H34675   6.480   7.085   8.267 -0.1401 -0.7636 -0.0405
  998MOL0     H34676   6.378   7.185   8.380  0.6826  1.7277 -1.9963
  998MOL0     H34677   6.566   7.168   8.506 -4.0221  0.8572  2.1368
  998MOL0     H34678   6.600   7.000   8.469  0.4968  0.0341  1.1677
  998MOL0     H34679   6.375   7.127   8.627 -1.1441 -1.1372  2.0168
  998MOL0     H34680   6.384   6.950   8.603 -1.2841  0.2155 -0.9770
  998MOL0     H34681   6.556   7.213   8.838  1.5169  0.5100  0.1342
  998MOL0     H34682   6.843   7.024   8.995 -0.3796 -2.0349 -2.4542
  998MOL0     H34683   6.857   7.184   8.910 -2.2320  2.2362 -1.1631
  998MOL0     H34684   6.634   7.243   9.031  2.6391  3.6779  0.4911
  998MOL0     H34685   6.681   7.119   9.148 -0.3991 -0.3418  0.0132
  998MOL0     H34686   6.755   7.303   9.253 -0.1100 -4.2330  1.1344
  998MOL0     H34687   6.807   7.382   9.109 -1.2535 -0.5799 -1.9374
  998MOL0     H34688   7.010   7.221   9.088 -1.9021 -0.4820 -1.0611
  998MOL0     H34689   6.966   7.150   9.247  1.2511 -0.5042 -1.5423
  998MOL0     H34690   7.227   7.359   9.105 -1.9036  0.5340  0.8624
  998MOL0     H34691   7.463   7.294   9.178  0.8166 -1.7509  0.7856
  998MOL0     H34692   7.859   7.412   9.312 -0.7077 -1.3839 -0.2248
  998MOL0     H34693   8.088   7.371   9.365 -3.1520  1.4800 -1.7087
  998MOL0     H34694   8.227   6.967   9.412  0.0831  0.5473  0.7362
  998MOL0     H34695   8.253   7.109   9.305 -0.2490 -2.0068 -0.7149
  998MOL0     H34696   8.452   7.171   9.432 -0.4833 -0.3587 -3.1938
  998MOL0     H34697   8.411   7.062   9.566  1.1117 -0.7172 -0.1057
  998MOL0     H34698   8.588   6.959   9.448 -1.3341  1.7950  2.7492
  998MOL0     H34699   8.440   6.876   9.445  1.2723  0.5210  1.4465
  998MOL0     H34700   8.597   6.956   9.229  0.4797 -3.3753 -0.0263
  998MOL0     H34701   8.433   7.040   9.224  0.7225  0.3797  0.9225
  998MOL0     H34702   8.463   6.814   9.089  0.0341 -2.4423  0.0550
  998MOL0     H34703   8.321   6.837   9.190  0.3112 -0.3270 -1.6624
  998MOL0     H34704   8.422   6.683   9.350 -0.1545 -0.2480 -1.1170
  998MOL0     H34705   8.449   6.615   9.180  1.8064  0.4012 -1.4678
  998MOL0     H34706   8.661   6.722   9.375  5.2661  2.2374 -1.2753
  998MOL0     H34707   8.689   6.739   9.204  0.4164  0.2834  1.6162
  998MOL0     H34708   8.658   6.501   9.387  3.0708 -1.0335  0.3892
  998MOL0     H34709   8.616   6.477   9.214  1.7926 -2.7619  0.6734
  998MOL0     H34710   7.980   7.015   9.567  1.5686 -4.0923 -4.6757
  998MOL0     H34711   7.746   7.068   9.535 -0.4885  1.9157  1.1125
  998MOL0     H34712   7.309   7.269   9.578  0.5901 -2.0856 -0.3023
  998MOL0     H34713   7.085   7.287   9.491 -0.8619 -2.1803  0.2536
  998MOL0     H34714   6.526   7.171   7.723  0.2906  0.8648 -0.1943
  998MOL0     H34715   6.597   7.153   7.494 -3.5650 -0.3286  0.2448
  998MOL0     H34716   6.942   7.025   7.271 -1.5444 -1.4075  0.5424
  998MOL0     H34717   7.067   7.112   7.082 -1.2622 -0.6899  3.2463
  998MOL0     H34718   6.964   6.938   6.685  1.4945 -1.0680 -3.5153
  998MOL0     H34719   7.105   7.016   6.634  0.6603 -1.7293  1.2808
  998MOL0     H34720   6.970   7.232   6.626  1.4810 -0.8580 -2.1035
  998MOL0     H34721   6.824   7.123   6.631 -0.1103 -1.2419  2.9422
  998MOL0     H34722   7.051   7.148   6.434 -0.0634  2.7284  2.7369
  998MOL0     H34723   6.887   7.207   6.399 -0.8248 -0.0907  1.3805
  998MOL0     H34724   6.939   6.901   6.423 -0.8791 -2.7188 -4.3502
  998MOL0     H34725   6.787   6.992   6.395  0.7661  0.1153  3.1645
  998MOL0     H34726   6.983   7.038   6.030 -1.1078 -2.0150  0.0603
  998MOL0     H34727   6.805   6.917   6.818 -0.5700 -0.9345  0.1080
  998MOL0     H34728   6.620   6.774   6.902 -2.1618 -2.7692  0.6433
  998MOL0     H34729   6.690   6.666   7.030 -2.3532  0.9422  3.1300
  998MOL0     H34730   6.575   6.793   7.060  0.2804  2.3534 -0.0488
  999MOL0     O34731   9.474  11.193   6.133  0.1750  0.3674 -0.4380
  999MOL0     C34732   9.424  11.208   6.239 -0.4070 -0.4380 -0.2638
  999MOL0     O34733   9.468  11.289   6.336 -0.7538  0.1590  0.0181
  999MOL0     C34734   9.579  11.370   6.306 -0.3312  0.7258 -0.6008
  999MOL0     C34735   9.566  11.501   6.274  0.2802 -0.3413  0.3412
  999MOL0     C34736   9.676  11.582   6.244  0.0164 -1.0167 -0.3727
  999MOL0     C34737   9.805  11.519   6.231 -0.3379 -0.0795 -0.5059
  999MOL0     O34738   9.929  11.588   6.202 -0.2860 -0.4913  0.0495
  999MOL0     C34739   9.928  11.727   6.156  0.2783 -0.3122 -0.7255
  999MOL0     C34740  10.061  11.801   6.127 -0.5974  0.1766  0.0303
  999MOL0     C34741  10.144  11.818   6.258  0.3187 -0.8060 -0.4364
  999MOL0     C34742  10.290  11.848   6.238 -1.1898  0.1490  0.2550
  999MOL0     C34743  10.344  11.972   6.317  0.5827 -0.4125 -0.5259
  999MOL0     C34744  10.488  12.003   6.311 -0.7193  0.1423  0.5976
  999MOL0     C34745  10.553  12.083   6.429  0.5365  0.3998 -0.3976
  999MOL0     C34746  10.704  12.099   6.416  0.5920 -0.5058 -0.1127
  999MOL0     N34747  10.765  12.199   6.515  0.2558  0.2858 -0.6541
  999MOL0     C34748  10.747  12.330   6.510 -0.2556  0.8969 -0.3799
  999MOL0     C34749  10.813  12.380   6.617 -0.4324 -0.2972 -0.8999
  999MOL0     C34750  10.843  12.532   6.639 -0.2635  0.5645 -1.0789
  999MOL0     C34751  10.716  12.611   6.603 -0.1386  0.5069 -0.3072
  999MOL0     C34752  10.606  12.615   6.715 -0.1986  0.2421  0.0707
  999MOL0     C34753  10.547  12.481   6.754  0.3654 -0.0990 -0.2071
  999MOL0     O34754  10.478  12.427   6.638 -1.3891  0.3852 -0.5347
  999MOL0     C34755  10.383  12.335   6.661  0.1552 -0.0290 -0.6462
  999MOL0     C34756  10.287  12.320   6.564 -0.1373 -0.6984  0.1820
  999MOL0     C34757  10.177  12.239   6.567  0.9533  0.6545 -0.4690
  999MOL0     C34758  10.160  12.156   6.677  0.7416  0.0969  0.6530
  999MOL0     C34759  10.051  12.061   6.675 -0.2836 -0.7353  0.7843
  999MOL0     O34760   9.929  12.099   6.632 -0.6913  0.2487 -0.5309
  999MOL0     C34761   9.826  12.013   6.619 -0.0411  0.6757 -0.1000
  999MOL0     C34762   9.703  12.045   6.673 -0.7341  0.9341 -0.8551
  999MOL0     C34763   9.598  11.949   6.665  0.4495 -0.5439 -0.4181
  999MOL0     C34764   9.619  11.820   6.608 -0.8125  0.9153 -0.2358
  999MOL0     O34765   9.522  11.729   6.614 -0.3876  0.1069 -0.1569
  999MOL0     C34766   9.480  11.692   6.746 -0.2411  0.3971  0.4435
  999MOL0     C34767   9.347  11.749   6.809 -0.7496  0.0883 -0.0387
  999MOL0     C34768   9.239  11.772   6.702 -0.0218  0.4178 -0.5576
  999MOL0     C34769   9.190  11.651   6.622 -0.3159 -0.1813 -0.2297
  999MOL0     C34770   9.071  11.698   6.526  0.1217  0.1152 -0.6739
  999MOL0     C34771   8.938  11.714   6.581  0.3721 -0.7979  0.3085
  999MOL0     C34772   8.886  11.851   6.554  0.3396  0.3280 -0.3157
  999MOL0     C34773   8.734  11.865   6.578  0.4830  0.1642  0.5447
  999MOL0    Cl34774   8.631  11.787   6.439 -0.0037 -0.2697  0.2506
  999MOL0     C34775   9.745  11.796   6.542  0.0065  0.7719 -0.9646
  999MOL0     C34776   9.848  11.889   6.546 -0.2340 -0.2243 -0.6874
  999MOL0     O34777  10.088  11.944   6.705 -0.3677  0.0317 -0.6832
  999MOL0     C34778  10.265  12.161   6.776 -0.3431 -0.0742 -1.2461
  999MOL0     C34779  10.370  12.258   6.771  0.1105 -0.1574 -1.3854
  999MOL0     N34780  10.877  12.281   6.690  0.0674 -0.1753  0.2143
  999MOL0     N34781  10.845  12.172   6.619  0.2193 -0.2482  0.4314
  999MOL0     C34782   9.820  11.380   6.246 -0.2983  0.3068  0.8017
  999MOL0     C34783   9.707  11.310   6.286  0.5663 -0.1720 -0.2181
  999MOL0     C34784   9.300  11.129   6.261 -0.4215 -0.0787 -0.4347
  999MOL0     C34785   9.240  11.148   6.386 -0.4613  0.1105 -0.5276
  999MOL0     C34786   9.131  11.071   6.435 -0.6555  0.2859  0.5079
  999MOL0     C34787   9.061  10.991   6.348 -0.4949  0.3845 -0.1677
  999MOL0     O34788   8.950  10.922   6.384  0.9856 -0.0854  0.1271
  999MOL0     C34789   8.835  11.000   6.411  0.7249  0.3191 -0.1716
  999MOL0     C34790   8.812  10.993   6.565  0.5445  0.2048 -0.1210
  999MOL0     C34791   8.669  11.046   6.593 -0.1388 -0.1552 -0.2438
  999MOL0     C34792   8.563  10.934   6.595 -0.2947  0.3747  1.0041
  999MOL0     C34793   8.554  10.892   6.738 -0.3661 -1.1591  0.3069
  999MOL0     C34794   8.540  10.874   6.857 -0.0382 -0.1920  0.3056
  999MOL0     C34795   9.116  10.975   6.220  0.1660 -0.0247 -0.1817
  999MOL0     C34796   9.237  11.036   6.178 -0.2663 -0.0069 -0.0116
  999MOL0     C34797   9.279  11.021   6.031  0.3132  0.4084 -0.1105
  999MOL0     H34798   9.467  11.546   6.266  0.7498  0.3932 -2.5624
  999MOL0     H34799   9.675  11.690   6.235  2.2203 -0.7319  1.9237
  999MOL0     H34800   9.866  11.729   6.065 -2.3310 -4.0949  0.7354
  999MOL0     H34801   9.873  11.771   6.240  0.4955 -3.5846  1.3039
  999MOL0     H34802  10.029  11.893   6.077  0.1137 -0.3027 -1.3492
  999MOL0     H34803  10.121  11.743   6.057 -1.9168 -3.3433  1.5650
  999MOL0     H34804  10.132  11.727   6.317 -0.2396 -0.3701  0.1345
  999MOL0     H34805  10.094  11.895   6.318  0.6451  0.7593 -2.0895
  999MOL0     H34806  10.354  11.761   6.259 -4.2509 -1.9136  1.7981
  999MOL0     H34807  10.310  11.878   6.135  1.4336 -3.8388 -0.6270
  999MOL0     H34808  10.283  12.059   6.291 -3.3984 -2.2458  1.7027
  999MOL0     H34809  10.323  11.948   6.422  4.4883 -2.2613  0.0169
  999MOL0     H34810  10.536  11.905   6.301 -3.7829 -1.4801  0.8180
  999MOL0     H34811  10.503  12.048   6.213  1.1067 -0.5709  0.5102
  999MOL0     H34812  10.525  12.042   6.527 -0.3044 -1.6920 -1.4348
  999MOL0     H34813  10.500  12.178   6.433  0.3690  0.2709  2.2232
  999MOL0     H34814  10.739  11.996   6.424 -1.7731 -1.5032 -1.6258
  999MOL0     H34815  10.729  12.137   6.317 -1.5235 -2.1178 -1.3272
  999MOL0     H34816  10.699  12.393   6.435 -1.3965  0.6040  0.0795
  999MOL0     H34817  10.868  12.560   6.742  2.5605  1.5445 -1.9298
  999MOL0     H34818  10.922  12.574   6.576 -0.2447  3.3005  0.6154
  999MOL0     H34819  10.747  12.714   6.582  0.4986  0.3604 -0.1018
  999MOL0     H34820  10.683  12.591   6.500  0.6276  0.4361 -0.5412
  999MOL0     H34821  10.521  12.669   6.671  0.9083 -1.0316 -4.1393
  999MOL0     H34822  10.648  12.662   6.804  0.2949  0.6568 -0.3762
  999MOL0     H34823  10.466  12.504   6.823  1.0606 -1.7065  1.2051
  999MOL0     H34824  10.616  12.410   6.801  0.3786 -0.2707 -0.4863
  999MOL0     H34825  10.311  12.377   6.476  0.5728 -0.4374  0.5409
  999MOL0     H34826  10.111  12.235   6.481  1.4735 -0.9649 -0.8309
  999MOL0     H34827   9.693  12.141   6.721  0.3944  0.4432  0.4026
  999MOL0     H34828   9.501  11.977   6.704  0.8791 -0.4199  0.5912
  999MOL0     H34829   9.451  11.587   6.735  1.4895 -0.0342 -0.2948
  999MOL0     H34830   9.557  11.687   6.823  2.1481 -0.8687 -1.8743
  999MOL0     H34831   9.318  11.683   6.892  0.4566 -1.1870 -0.5875
  999MOL0     H34832   9.370  11.847   6.851 -1.2167  0.0833  0.2412
  999MOL0     H34833   9.157  11.822   6.754  1.3710  1.2735  0.9065
  999MOL0     H34834   9.272  11.845   6.627  1.0316  0.2032 -0.3293
  999MOL0     H34835   9.155  11.576   6.693  0.2967  1.1863  1.5898
  999MOL0     H34836   9.273  11.609   6.564  0.4287 -1.2150  1.5014
  999MOL0     H34837   9.057  11.614   6.457 -0.4930  0.0838 -0.5104
  999MOL0     H34838   9.110  11.776   6.460 -0.4512  0.7450 -0.2779
  999MOL0     H34839   8.865  11.650   6.530 -0.5275  1.3228 -1.2062
  999MOL0     H34840   8.937  11.689   6.687  0.7928 -0.4883  0.3869
  999MOL0     H34841   8.915  11.875   6.451  3.0428  3.5009  0.9978
  999MOL0     H34842   8.946  11.918   6.616  0.6088 -1.1693  1.0860
  999MOL0     H34843   8.707  11.816   6.672 -3.0533  0.6997 -0.0530
  999MOL0     H34844   8.699  11.967   6.595  1.0160  0.6162 -0.9060
  999MOL0     H34845   9.758  11.708   6.481  2.6749  0.8196 -0.5854
  999MOL0     H34846   9.942  11.869   6.496  0.8574  0.7730  0.8559
  999MOL0     H34847  10.239  12.092   6.856 -3.2978  2.2387 -0.0253
  999MOL0     H34848  10.440  12.263   6.855 -1.8498  0.1953  0.3135
  999MOL0     H34849   9.919  11.340   6.228  1.3076  3.3033  2.2638
  999MOL0     H34850   9.721  11.203   6.298  0.1663 -0.5755 -2.7390
  999MOL0     H34851   9.288  11.219   6.453  0.6433  0.2099 -1.3920
  999MOL0     H34852   9.106  11.096   6.538  1.5888 -0.2544  1.2389
  999MOL0     H34853   8.746  10.955   6.365  0.7053  1.0955 -0.9251
  999MOL0     H34854   8.850  11.102   6.376 -0.1305  0.9025  1.0865
  999MOL0     H34855   8.873  11.062   6.625 -1.7232  1.4515  0.9246
  999MOL0     H34856   8.827  10.893   6.608  1.6899 -1.0371 -3.1567
  999MOL0     H34857   8.647  11.130   6.526  4.7209  1.6073 -0.0623
  999MOL0     H34858   8.670  11.095   6.691  0.2323  3.0795 -1.7147
  999MOL0     H34859   8.466  10.970   6.562  0.7117  1.3049 -1.1095
  999MOL0     H34860   8.607  10.852   6.537  2.2284  2.7009 -0.6360
  999MOL0     H34861   8.543  10.855   6.962  4.3731  0.1390  0.4187
  999MOL0     H34862   9.060  10.912   6.151  0.4106 -1.3473  0.7858
  999MOL0     H34863   9.388  11.017   6.020  0.2536 -2.6135 -0.4693
  999MOL0     H34864   9.251  10.920   5.998  0.1916  0.0024  1.2050
  999MOL0     H34865   9.237  11.103   5.971 -2.0299  0.2906  1.2489
 1000MOL0     O34866   9.863   9.032   7.470 -0.2914  0.9866  0.2598
 1000MOL0     C34867   9.813   9.117   7.400  1.4094 -0.1157 -0.2749
 1000MOL0     O34868   9.855   9.250   7.397 -0.4221 -0.2160  0.8577
 1000MOL0     C34869   9.990   9.262   7.416 -1.1949 -0.1915 -0.0255
 1000MOL0     C34870  10.092   9.190   7.337  0.3199 -0.1407 -0.6148
 1000MOL0     C34871  10.230   9.211   7.368 -0.4262 -0.9796  0.0049
 1000MOL0     C34872  10.268   9.314   7.455  0.7174  1.6300 -0.0449
 1000MOL0     O34873  10.396   9.341   7.471  0.3907 -0.5165  0.0890
 1000MOL0     C34874  10.452   9.406   7.591  1.2438  0.7281  0.0147
 1000MOL0     C34875  10.601   9.383   7.587  0.1357  0.6162 -0.2212
 1000MOL0     C34876  10.634   9.228   7.610  0.3750  0.2920 -0.6521
 1000MOL0     C34877  10.751   9.224   7.705  1.0668  0.3519  0.1527
 1000MOL0     C34878  10.788   9.075   7.732  0.9811 -0.1317 -0.2237
 1000MOL0     C34879  10.670   9.001   7.811 -0.7864 -1.0425  0.5691
 1000MOL0     C34880  10.718   8.848   7.839 -0.3569  0.1211  0.3286
 1000MOL0     C34881  10.602   8.768   7.882  0.9448 -0.7669  0.0279
 1000MOL0     N34882  10.642   8.636   7.926 -0.1215 -0.3683  0.8680
 1000MOL0     C34883  10.707   8.606   8.042 -0.1177 -0.3725  0.2981
 1000MOL0     C34884  10.708   8.472   8.055 -0.3301  0.4852 -0.0540
 1000MOL0     C34885  10.759   8.374   8.159  0.8876 -0.1814 -0.2024
 1000MOL0     C34886  10.763   8.444   8.296  0.2050  0.3172  0.4735
 1000MOL0     C34887  10.812   8.339   8.405 -0.4752 -0.7345  1.2303
 1000MOL0     C34888  10.883   8.399   8.524 -0.6957  0.9534  0.3377
 1000MOL0     O34889  11.009   8.443   8.469 -0.3543 -0.2228  0.8001
 1000MOL0     C34890  11.108   8.501   8.545 -0.4950 -0.0040  0.4807
 1000MOL0     C34891  11.094   8.547   8.674 -0.0206  0.2275  0.3852
 1000MOL0     C34892  11.200   8.607   8.748  0.4755 -0.3651  0.0286
 1000MOL0     C34893  11.319   8.633   8.682 -0.9986  0.9226 -0.7529
 1000MOL0     C34894  11.431   8.696   8.758  0.2477  0.5243 -1.2134
 1000MOL0     O34895  11.396   8.763   8.873 -0.2331  0.2813 -0.0587
 1000MOL0     C34896  11.487   8.826   8.948 -0.4748 -0.9123 -0.2695
 1000MOL0     C34897  11.506   8.798   9.078 -0.6351  0.7471 -0.6221
 1000MOL0     C34898  11.600   8.863   9.158  0.2802 -0.4654  0.5451
 1000MOL0     C34899  11.685   8.959   9.102  0.5664 -0.5799 -0.6973
 1000MOL0     O34900  11.780   9.024   9.181 -0.0871 -0.3590  0.3934
 1000MOL0     C34901  11.869   8.930   9.235  0.7876 -0.1881  0.6901
 1000MOL0     C34902  12.005   8.993   9.265  0.1380  0.0165  0.4183
 1000MOL0     C34903  11.999   9.095   9.377  0.0431  0.4407 -0.2776
 1000MOL0     C34904  12.120   9.183   9.371  0.6749 -0.8328  0.1454
 1000MOL0     C34905  12.194   9.207   9.507 -0.1004 -0.2978  0.0192
 1000MOL0     C34906  12.296   9.098   9.531  0.3465  0.0294  0.1742
 1000MOL0     C34907  12.357   9.124   9.669 -0.5649  0.7035 -0.3123
 1000MOL0     C34908  12.301   9.031   9.768  0.0595  0.3756 -0.2873
 1000MOL0    Cl34909  12.345   8.866   9.715 -0.0740 -0.4440  0.1364
 1000MOL0     C34910  11.665   8.997   8.975  0.0427  0.3077 -0.1279
 1000MOL0     C34911  11.569   8.932   8.899 -1.0188 -0.3464 -0.2350
 1000MOL0     O34912  11.545   8.687   8.717  0.6325  0.5615 -0.2703
 1000MOL0     C34913  11.339   8.588   8.549  0.7586  0.3587 -0.6423
 1000MOL0     C34914  11.229   8.525   8.481  0.6640 -0.9295 -0.3552
 1000MOL0     N34915  10.636   8.414   7.948 -1.2787  0.1233 -0.8705
 1000MOL0     N34916  10.605   8.518   7.870  0.1201  0.7877  0.8482
 1000MOL0     C34917  10.174   9.384   7.527 -0.3654  0.0075  0.6265
 1000MOL0     C34918  10.039   9.363   7.502  0.0746  0.0946  0.6602
 1000MOL0     C34919   9.684   9.078   7.338  0.0734  0.3774 -0.3148
 1000MOL0     C34920   9.598   9.182   7.293  0.0233  0.5743 -0.5761
 1000MOL0     C34921   9.472   9.155   7.239  0.1001 -0.6243 -0.4236
 1000MOL0     C34922   9.429   9.030   7.212  0.7123  0.0016 -0.5666
 1000MOL0     O34923   9.308   8.994   7.156 -0.3109 -0.3948  0.1493
 1000MOL0     C34924   9.218   9.108   7.125  0.0638  0.8289  0.1623
 1000MOL0     C34925   9.086   9.074   7.057 -0.2498  0.1625 -0.3472
 1000MOL0     C34926   9.100   9.031   6.907 -0.0148 -0.2346 -0.3924
 1000MOL0     C34927   8.966   8.998   6.855  0.8317 -0.0198  0.8561
 1000MOL0     C34928   8.882   9.110   6.800 -0.4012  0.9668 -0.3272
 1000MOL0     C34929   8.808   9.188   6.755  0.5891 -0.9121  1.2288
 1000MOL0     C34930   9.512   8.928   7.260  0.6904 -0.6623  0.2736
 1000MOL0     C34931   9.640   8.945   7.313  1.2393 -0.6367  0.5181
 1000MOL0     C34932   9.725   8.820   7.341  0.9678  0.2461 -0.3860
 1000MOL0     H34933  10.064   9.130   7.250  1.6233  1.9924 -2.6273
 1000MOL0     H34934  10.304   9.149   7.318 -0.1040 -0.4032 -0.2391
 1000MOL0     H34935  10.428   9.511   7.609 -2.1829 -0.1942  1.6774
 1000MOL0     H34936  10.417   9.361   7.685 -1.8595  3.2296  0.2319
 1000MOL0     H34937  10.654   9.445   7.660  1.3603 -0.6549  0.0029
 1000MOL0     H34938  10.636   9.408   7.486  2.2786 -1.7810 -0.1811
 1000MOL0     H34939  10.673   9.181   7.519 -0.2320 -0.2613 -0.6289
 1000MOL0     H34940  10.543   9.178   7.645 -0.4119 -0.4272 -3.4739
 1000MOL0     H34941  10.837   9.271   7.655 -0.9002 -0.3430 -4.3431
 1000MOL0     H34942  10.729   9.273   7.800  3.6664 -2.2202  2.2863
 1000MOL0     H34943  10.803   9.013   7.642 -0.5200 -2.6067  1.0967
 1000MOL0     H34944  10.874   9.060   7.798  1.6764 -0.7587 -1.2386
 1000MOL0     H34945  10.640   9.041   7.909 -0.4248 -3.3032  1.6566
 1000MOL0     H34946  10.580   9.005   7.749 -0.6477  0.6412  0.4301
 1000MOL0     H34947  10.794   8.851   7.918  0.5701 -1.3665 -0.4815
 1000MOL0     H34948  10.769   8.795   7.759 -0.3134  0.4617  0.1300
 1000MOL0     H34949  10.547   8.827   7.956 -0.2488  0.7127 -1.9467
 1000MOL0     H34950  10.531   8.750   7.801  1.5328 -2.3238 -0.1814
 1000MOL0     H34951  10.735   8.680   8.117 -1.4873  0.9998 -0.4712
 1000MOL0     H34952  10.695   8.286   8.154  1.3995 -0.4989 -2.8558
 1000MOL0     H34953  10.858   8.343   8.124  0.6947 -0.3790 -0.5762
 1000MOL0     H34954  10.822   8.536   8.289  2.2937 -0.9802  0.0691
 1000MOL0     H34955  10.664   8.480   8.326 -0.3626 -0.6269 -0.2177
 1000MOL0     H34956  10.879   8.264   8.361 -0.6636 -0.4941  0.5152
 1000MOL0     H34957  10.724   8.281   8.434 -1.6946  0.4736  0.0913
 1000MOL0     H34958  10.899   8.334   8.611  1.3665  0.6314 -0.2251
 1000MOL0     H34959  10.829   8.486   8.563 -4.6944 -0.3391 -1.7405
 1000MOL0     H34960  10.998   8.533   8.724 -0.1119  1.1120  0.4633
 1000MOL0     H34961  11.188   8.652   8.846 -1.4121 -1.2130  0.2184
 1000MOL0     H34962  11.449   8.718   9.125  2.4630  0.5772  3.4472
 1000MOL0     H34963  11.615   8.835   9.262  0.7289  1.1706  0.9601
 1000MOL0     H34964  11.832   8.888   9.329  0.5896 -4.0450 -0.9198
 1000MOL0     H34965  11.891   8.845   9.170 -0.3450 -0.7361  1.0091
 1000MOL0     H34966  12.067   8.909   9.300  2.2995  0.0509 -2.8598
 1000MOL0     H34967  12.057   9.035   9.178 -1.0746  3.6475  1.2974
 1000MOL0     H34968  11.910   9.155   9.357 -0.7321 -0.4050  0.5036
 1000MOL0     H34969  11.992   9.057   9.479  0.0442  0.3231 -0.3212
 1000MOL0     H34970  12.086   9.282   9.338  2.3867 -0.2437  0.0599
 1000MOL0     H34971  12.184   9.145   9.291 -2.5157 -2.2228 -2.0121
 1000MOL0     H34972  12.126   9.205   9.593 -2.2612  0.0513 -1.5839
 1000MOL0     H34973  12.229   9.311   9.509 -0.9955  0.0556  3.2184
 1000MOL0     H34974  12.252   8.998   9.524  1.8473 -0.5460 -2.1354
 1000MOL0     H34975  12.371   9.099   9.451 -1.6274  4.0642 -1.9602
 1000MOL0     H34976  12.334   9.226   9.703  0.1830 -0.0124  2.6820
 1000MOL0     H34977  12.465   9.111   9.670 -0.5813  0.3001  2.1210
 1000MOL0     H34978  12.327   9.055   9.871 -1.1652 -2.5998  0.8384
 1000MOL0     H34979  12.192   9.033   9.760  0.0119 -2.0963 -1.4366
 1000MOL0     H34980  11.706   9.094   8.949  0.5805  0.0135 -0.3798
 1000MOL0     H34981  11.540   8.969   8.801 -3.1973  0.1703  0.5522
 1000MOL0     H34982  11.427   8.606   8.488  1.6259 -1.8905 -0.1559
 1000MOL0     H34983  11.243   8.514   8.374 -1.3108  0.1980 -0.7626
 1000MOL0     H34984  10.207   9.458   7.599 -2.5313  0.1501  1.5364
 1000MOL0     H34985   9.962   9.408   7.565  1.4613  1.1189  1.6854
 1000MOL0     H34986   9.637   9.281   7.318 -0.1029  0.4908 -0.0396
 1000MOL0     H34987   9.414   9.237   7.198 -0.0104 -0.7383 -0.5000
 1000MOL0     H34988   9.266   9.184   7.064 -0.1303  1.7185  1.0944
 1000MOL0     H34989   9.184   9.152   7.219  1.5781 -0.2588  1.2754
 1000MOL0     H34990   9.015   9.158   7.056  0.0899  0.5695  2.2847
 1000MOL0     H34991   9.050   8.990   7.116 -2.4259  1.5174  0.3538
 1000MOL0     H34992   9.168   8.945   6.899 -2.0705 -2.0312  0.4386
 1000MOL0     H34993   9.140   9.121   6.860 -0.6376  0.2056 -0.0824
 1000MOL0     H34994   8.990   8.929   6.774  0.7588 -0.5627  1.2985
 1000MOL0     H34995   8.904   8.940   6.924 -1.1144 -0.3199 -1.0322
 1000MOL0     H34996   8.741   9.258   6.709  1.7277  0.3102  1.3893
 1000MOL0     H34997   9.469   8.830   7.244 -1.8915  0.3033  0.7639
 1000MOL0     H34998   9.828   8.831   7.307  0.6303 -1.0275 -1.9502
 1000MOL0     H34999   9.717   8.799   7.448  0.1695  0.2772 -0.4326
 1000MOL0     H35000   9.681   8.732   7.293 -0.2043 -0.3795  1.7069
 1001MOL0     O35001  10.317   9.791   3.891  0.2744 -0.5245  0.2392
 1001MOL0     C35002  10.349   9.908   3.905  0.3039  0.2092 -0.4428
 1001MOL0     O35003  10.312  10.011   3.824  0.2080 -0.5861  0.5135
 1001MOL0     C35004  10.218   9.986   3.732 -1.1789 -1.1561  0.6135
 1001MOL0     C35005  10.101  10.057   3.738  0.2817 -0.0585 -1.0925
 1001MOL0     C35006  10.006  10.038   3.641  0.3298  0.6558 -0.1690
 1001MOL0     C35007  10.019   9.952   3.526 -0.7123  1.3414  0.2758
 1001MOL0     O35008   9.935   9.927   3.421  0.3288  0.2567 -0.2265
 1001MOL0     C35009   9.849  10.043   3.403 -0.4892 -0.0320  0.1814
 1001MOL0     C35010   9.753  10.013   3.287 -0.7652  0.1151  0.4481
 1001MOL0     C35011   9.639   9.914   3.316  0.3818 -0.7387  0.3303
 1001MOL0     C35012   9.524   9.901   3.209 -0.2722  0.3057 -0.8643
 1001MOL0     C35013   9.571   9.809   3.091 -0.4411  0.2632 -0.1502
 1001MOL0     C35014   9.602   9.901   2.967 -0.0785  0.1556 -1.2221
 1001MOL0     C35015   9.667   9.830   2.856 -0.5671 -0.0180  0.4096
 1001MOL0     C35016   9.815   9.783   2.874  0.4398 -0.2327 -0.1581
 1001MOL0     N35017   9.912   9.888   2.879 -0.2856  0.3542  0.3083
 1001MOL0     C35018   9.938   9.960   2.763 -0.7517  0.4416 -1.0553
 1001MOL0     C35019  10.036  10.056   2.802  0.1011  0.2570 -0.1699
 1001MOL0     C35020  10.110  10.151   2.707  0.1186  0.1085 -0.0003
 1001MOL0     C35021  10.182  10.268   2.787  0.7057  0.2021  0.3795
 1001MOL0     C35022  10.319  10.214   2.826 -1.1606  0.0484 -0.4913
 1001MOL0     C35023  10.400  10.318   2.901 -0.0167  0.4411  0.9391
 1001MOL0     O35024  10.481  10.409   2.813 -0.0353 -0.2350 -0.9666
 1001MOL0     C35025  10.577  10.487   2.876 -1.3800 -0.7695 -0.1320
 1001MOL0     C35026  10.627  10.593   2.800  0.3747  0.2912  1.1236
 1001MOL0     C35027  10.735  10.667   2.849 -0.1345 -0.1784 -0.7381
 1001MOL0     C35028  10.814  10.622   2.959 -0.6783  0.2369  0.4223
 1001MOL0     C35029  10.935  10.686   2.993  0.4820  0.2617 -0.5880
 1001MOL0     O35030  11.040  10.596   3.022 -0.2541 -0.4057 -0.1432
 1001MOL0     C35031  11.164  10.644   3.070  0.2160  0.1827  1.0972
 1001MOL0     C35032  11.276  10.574   3.034 -0.3623  0.1516  0.3589
 1001MOL0     C35033  11.409  10.616   3.077 -0.1281  0.1497 -0.3525
 1001MOL0     C35034  11.420  10.707   3.177 -0.9456 -0.9604 -0.2800
 1001MOL0     O35035  11.546  10.750   3.229 -0.1014 -0.2458 -0.5146
 1001MOL0     C35036  11.669  10.693   3.194  0.3383  0.1996  0.5309
 1001MOL0     C35037  11.772  10.721   3.297 -0.7286  0.6145 -0.3921
 1001MOL0     C35038  11.875  10.829   3.258  1.2981  0.6753  0.9808
 1001MOL0     C35039  11.953  10.789   3.130 -0.3570  0.4996 -0.4368
 1001MOL0     C35040  12.079  10.876   3.123  0.2620  0.1791  0.3298
 1001MOL0     C35041  12.184  10.835   3.022  0.0795 -0.6199 -1.0540
 1001MOL0     C35042  12.298  10.937   3.022 -0.2898 -0.3030 -0.6465
 1001MOL0     C35043  12.436  10.885   2.967  0.3705 -1.4614 -0.6794
 1001MOL0    Cl35044  12.482  10.726   3.028  0.1942 -0.1808  0.1089
 1001MOL0     C35045  11.302  10.773   3.225 -0.5205  0.1421  0.5871
 1001MOL0     C35046  11.177  10.739   3.174  0.4033 -1.0397  0.8690
 1001MOL0     O35047  10.943  10.806   2.998  0.3815 -0.0379  0.4816
 1001MOL0     C35048  10.756  10.522   3.042 -0.5349  0.0282  0.8744
 1001MOL0     C35049  10.643  10.454   2.996  0.4628 -0.1132  0.8758
 1001MOL0     N35050  10.052  10.038   2.942 -0.8073  0.5077 -0.1415
 1001MOL0     N35051   9.991   9.928   2.984  0.5471 -0.2519  0.7274
 1001MOL0     C35052  10.139   9.882   3.532  1.0978 -0.2375 -0.2172
 1001MOL0     C35053  10.235   9.895   3.627  0.5472 -0.3592 -1.1281
 1001MOL0     C35054  10.428   9.940   4.032 -0.3873  0.2068  0.3380
 1001MOL0     C35055  10.447  10.077   4.046 -0.2894  0.0416 -0.4298
 1001MOL0     C35056  10.517  10.124   4.157  0.5739 -0.5617 -0.0530
 1001MOL0     C35057  10.569  10.047   4.255 -0.7759 -0.2701  0.1488
 1001MOL0     O35058  10.635  10.110   4.358 -0.0378  0.4844 -0.6438
 1001MOL0     C35059  10.624  10.047   4.478  0.3137 -0.3096  0.3934
 1001MOL0     C35060  10.581  10.172   4.555  0.7466  0.4143 -0.2952
 1001MOL0     C35061  10.536  10.137   4.701 -0.1211  0.4596 -0.1101
 1001MOL0     C35062  10.623  10.037   4.775 -0.8259 -0.3472  0.3849
 1001MOL0     C35063  10.759  10.097   4.789  0.7006 -0.4175 -0.0462
 1001MOL0     C35064  10.868  10.157   4.809  0.7459  0.4646  0.5330
 1001MOL0     C35065  10.571   9.910   4.228 -0.9367  0.2231  0.5481
 1001MOL0     C35066  10.490   9.852   4.119  0.1519  0.0760 -0.1668
 1001MOL0     C35067  10.487   9.698   4.100 -0.4195 -0.4936 -0.1755
 1001MOL0     H35068  10.075  10.126   3.818  1.5473  2.9255 -3.0653
 1001MOL0     H35069   9.911  10.083   3.670  0.6439  0.8973  0.5141
 1001MOL0     H35070   9.778  10.071   3.481  0.0897 -4.6364  2.6569
 1001MOL0     H35071   9.911  10.128   3.372 -1.4327  0.0971 -1.4855
 1001MOL0     H35072   9.810   9.973   3.203 -0.5867 -0.8076  0.9957
 1001MOL0     H35073   9.709  10.109   3.258  0.8169 -0.1736 -3.5302
 1001MOL0     H35074   9.603   9.949   3.413  0.5527  0.9941 -0.2041
 1001MOL0     H35075   9.678   9.812   3.326  0.3405 -0.5869  2.3714
 1001MOL0     H35076   9.438   9.849   3.253  0.4778 -1.2899 -1.1952
 1001MOL0     H35077   9.492   9.996   3.166  0.9956  1.4442  0.6123
 1001MOL0     H35078   9.658   9.746   3.115 -0.7087 -0.8165 -1.8273
 1001MOL0     H35079   9.495   9.735   3.063  0.5296 -0.6119 -0.5724
 1001MOL0     H35080   9.508   9.949   2.937 -1.4201 -3.1785 -2.9537
 1001MOL0     H35081   9.673   9.977   3.001  0.0705 -1.1286  1.6535
 1001MOL0     H35082   9.674   9.903   2.774  1.1711 -0.8037 -0.1956
 1001MOL0     H35083   9.611   9.747   2.812 -2.2011  1.9005 -1.4173
 1001MOL0     H35084   9.813   9.743   2.976  0.3637  2.9506  1.2095
 1001MOL0     H35085   9.844   9.713   2.795 -0.1251 -1.3817  0.6049
 1001MOL0     H35086   9.910   9.953   2.658  1.6946  1.2928 -1.8275
 1001MOL0     H35087  10.173  10.099   2.633  0.6918  0.6913  0.0717
 1001MOL0     H35088  10.047  10.209   2.639  2.6185 -0.7242 -3.2895
 1001MOL0     H35089  10.191  10.352   2.718  1.3875  1.2145  1.6579
 1001MOL0     H35090  10.124  10.296   2.875 -0.6971 -0.2222 -0.3943
 1001MOL0     H35091  10.380  10.170   2.747  1.1245  1.7375  0.2171
 1001MOL0     H35092  10.323  10.135   2.903  3.6279 -1.8355 -2.2607
 1001MOL0     H35093  10.464  10.261   2.969  1.1505 -1.0140 -1.2715
 1001MOL0     H35094  10.336  10.381   2.963  0.8750  1.8479  0.4721
 1001MOL0     H35095  10.574  10.615   2.708  0.8530 -0.6998  0.6073
 1001MOL0     H35096  10.752  10.766   2.807 -1.1248  1.0611  1.6018
 1001MOL0     H35097  11.249  10.510   2.951 -0.7699 -0.6870  1.1193
 1001MOL0     H35098  11.496  10.564   3.037  1.3510  1.3856  1.0880
 1001MOL0     H35099  11.666  10.586   3.173 -1.1485  0.3306 -0.0796
 1001MOL0     H35100  11.682  10.754   3.104 -0.3357 -1.3804 -0.6894
 1001MOL0     H35101  11.729  10.734   3.397  0.7593 -2.7031  0.8244
 1001MOL0     H35102  11.821  10.625   3.315 -0.0203  0.5907 -2.2426
 1001MOL0     H35103  11.815  10.919   3.247  0.1864 -0.3702 -3.0890
 1001MOL0     H35104  11.945  10.851   3.340 -0.3290  3.4433  1.7702
 1001MOL0     H35105  11.894  10.783   3.038  0.8328 -2.9067 -1.1192
 1001MOL0     H35106  11.992  10.687   3.137 -0.1531  0.2130 -4.0107
 1001MOL0     H35107  12.129  10.881   3.220  1.7508  0.3844 -0.4327
 1001MOL0     H35108  12.054  10.982   3.109  2.1552  1.1243  3.2577
 1001MOL0     H35109  12.212  10.730   3.035 -1.0741 -1.0106 -1.5676
 1001MOL0     H35110  12.144  10.823   2.921 -1.3941 -1.5011 -0.4016
 1001MOL0     H35111  12.310  10.973   3.124  0.9546  1.8787 -1.5114
 1001MOL0     H35112  12.274  11.019   2.954  1.9593 -0.0091 -1.1657
 1001MOL0     H35113  12.423  10.870   2.860 -0.3640 -0.9819 -0.6600
 1001MOL0     H35114  12.508  10.967   2.981 -0.2876 -0.1536 -4.0587
 1001MOL0     H35115  11.314  10.849   3.303  0.4645  0.3676  0.2355
 1001MOL0     H35116  11.089  10.790   3.213 -0.7300 -0.8088 -1.7915
 1001MOL0     H35117  10.808  10.493   3.133  1.3585  0.4749 -0.0136
 1001MOL0     H35118  10.611  10.371   3.058 -0.0285  0.3610  1.2632
 1001MOL0     H35119  10.161   9.810   3.453  2.6637  0.3085 -0.3204
 1001MOL0     H35120  10.316   9.823   3.633 -0.8897 -1.9251  1.8060
 1001MOL0     H35121  10.424  10.148   3.966 -0.5301 -2.0461 -2.3122
 1001MOL0     H35122  10.530  10.232   4.161  1.1658 -0.6470  3.4218
 1001MOL0     H35123  10.719  10.011   4.519 -0.6775  0.5800  3.8818
 1001MOL0     H35124  10.549   9.967   4.477  2.0783 -2.0224 -0.3451
 1001MOL0     H35125  10.492  10.210   4.504  0.1398  0.2914  0.6413
 1001MOL0     H35126  10.671  10.234   4.545  2.0880 -1.1404  1.5082
 1001MOL0     H35127  10.434  10.099   4.688  0.1959 -1.2885  1.9370
 1001MOL0     H35128  10.523  10.230   4.758  0.4739  1.7201 -1.9623
 1001MOL0     H35129  10.595  10.019   4.879 -2.3831  0.1078  0.0685
 1001MOL0     H35130  10.626   9.946   4.715  0.6203  0.3782 -0.7152
 1001MOL0     H35131  10.956  10.217   4.821  0.0134  2.5056 -2.8415
 1001MOL0     H35132  10.626   9.838   4.287 -0.8702  0.0135  0.2355
 1001MOL0     H35133  10.516   9.681   3.995  0.9733 -1.5479  0.3403
 1001MOL0     H35134  10.571   9.655   4.156 -1.4257 -0.0631  1.7398
 1001MOL0     H35135  10.395   9.647   4.130  0.8051 -1.2016  2.6585
 1002MOL0     O35136   3.712   2.578   4.723 -0.0764  0.2399 -0.2792
 1002MOL0     C35137   3.772   2.585   4.834 -0.0754  0.7523  1.5505
 1002MOL0     O35138   3.733   2.533   4.948  0.9036 -0.4062 -0.2277
 1002MOL0     C35139   3.606   2.480   4.952 -0.0752  0.0001  0.3722
 1002MOL0     C35140   3.574   2.362   4.885 -0.0474 -0.0348 -0.0597
 1002MOL0     C35141   3.459   2.286   4.907  0.0764 -0.7103  0.1526
 1002MOL0     C35142   3.359   2.337   4.997 -0.1570 -0.1771  0.5020
 1002MOL0     O35143   3.249   2.273   5.041 -0.4524 -0.1428 -0.9256
 1002MOL0     C35144   3.282   2.154   5.121 -0.3311 -0.7655 -0.8254
 1002MOL0     C35145   3.151   2.064   5.139  0.8764 -0.3192  1.0996
 1002MOL0     C35146   3.107   2.018   4.996  0.1689  0.4682 -0.0772
 1002MOL0     C35147   3.166   1.880   4.962  0.6285  0.0975 -0.4031
 1002MOL0     C35148   3.127   1.820   4.818 -0.5968 -0.5202  0.3583
 1002MOL0     C35149   3.177   1.678   4.815 -0.3907 -0.8659  0.4548
 1002MOL0     C35150   3.173   1.614   4.672  0.9591 -0.4073  0.5504
 1002MOL0     C35151   3.286   1.508   4.640 -0.4238 -0.3395  0.7051
 1002MOL0     N35152   3.426   1.562   4.665  0.0841  0.5079 -0.1892
 1002MOL0     C35153   3.482   1.663   4.595 -0.3722 -0.7378  0.7356
 1002MOL0     C35154   3.603   1.684   4.656  0.4134  0.6966 -0.2825
 1002MOL0     C35155   3.704   1.778   4.614 -0.0337 -0.3485 -0.8188
 1002MOL0     C35156   3.835   1.710   4.570  0.0672 -0.0430  0.2882
 1002MOL0     C35157   3.947   1.811   4.551 -0.0776 -0.6407 -0.3551
 1002MOL0     C35158   4.061   1.753   4.480  0.7881  0.9294 -0.2092
 1002MOL0     O35159   4.142   1.860   4.437 -0.1121 -0.6127  0.4730
 1002MOL0     C35160   4.265   1.838   4.383  0.5314 -0.0179 -0.8802
 1002MOL0     C35161   4.323   1.714   4.360  0.1254  0.2438 -1.3099
 1002MOL0     C35162   4.456   1.703   4.305  0.6829  0.0838  0.3569
 1002MOL0     C35163   4.529   1.819   4.265  0.3690 -0.4334 -1.4461
 1002MOL0     C35164   4.672   1.806   4.220 -0.4629  0.3811 -0.3892
 1002MOL0     O35165   4.729   1.682   4.230 -1.0344  0.6203  0.7626
 1002MOL0     C35166   4.855   1.660   4.186  1.1911 -0.1784 -0.4315
 1002MOL0     C35167   4.868   1.545   4.112 -0.0640 -1.1942 -0.0711
 1002MOL0     C35168   4.990   1.514   4.049  1.1805  0.0179 -0.6173
 1002MOL0     C35169   5.102   1.598   4.076 -0.4066 -0.3900 -0.4250
 1002MOL0     O35170   5.221   1.563   4.019 -0.4724  0.3884 -0.5838
 1002MOL0     C35171   5.288   1.460   4.091  0.3578  0.3548  0.0831
 1002MOL0     C35172   5.403   1.410   4.012 -0.1829 -0.9999  0.0615
 1002MOL0     C35173   5.513   1.510   4.035  0.6220 -0.3761  0.3554
 1002MOL0     C35174   5.629   1.480   3.941 -0.5481 -0.4978  0.5256
 1002MOL0     C35175   5.772   1.511   3.986  0.6805  0.5514 -0.0080
 1002MOL0     C35176   5.821   1.412   4.093 -0.7648  0.2145 -0.3717
 1002MOL0     C35177   5.884   1.290   4.029 -0.3031 -0.4091  0.2577
 1002MOL0     C35178   5.959   1.198   4.135 -0.5165  0.5298  0.7855
 1002MOL0    Cl35179   5.857   1.147   4.278 -0.1630  0.2847 -0.3578
 1002MOL0     C35180   5.086   1.709   4.154  0.5722  0.6032 -0.5469
 1002MOL0     C35181   4.960   1.746   4.196 -0.2641  0.3744  1.0582
 1002MOL0     O35182   4.727   1.905   4.168  0.2346  0.4577  0.4098
 1002MOL0     C35183   4.469   1.944   4.296  0.3290  0.2496 -0.5144
 1002MOL0     C35184   4.327   1.954   4.340 -0.9999  0.9762  0.1465
 1002MOL0     N35185   3.620   1.593   4.761 -0.0216  0.7914 -0.1656
 1002MOL0     N35186   3.510   1.522   4.765 -0.3751 -0.3795 -0.3009
 1002MOL0     C35187   3.386   2.464   5.058 -0.3820 -0.5627 -0.5326
 1002MOL0     C35188   3.505   2.536   5.038 -0.1047  0.8310 -0.5554
 1002MOL0     C35189   3.904   2.645   4.816 -0.1041 -0.0550 -0.3204
 1002MOL0     C35190   4.020   2.580   4.868 -0.4021  0.2101  0.6140
 1002MOL0     C35191   4.149   2.622   4.838 -0.1985 -0.5673 -0.5267
 1002MOL0     C35192   4.170   2.735   4.759 -0.6384 -0.1357  0.7948
 1002MOL0     O35193   4.288   2.794   4.727  0.0032 -0.6168 -0.4143
 1002MOL0     C35194   4.399   2.774   4.815  0.1735  0.5234 -0.0881
 1002MOL0     C35195   4.517   2.856   4.765  0.0433 -0.4432 -0.1763
 1002MOL0     C35196   4.630   2.868   4.865  0.4349  0.0726 -0.0490
 1002MOL0     C35197   4.740   2.955   4.801  0.3987  0.0888 -0.4517
 1002MOL0     C35198   4.836   2.889   4.717 -0.2813 -0.5301  0.6110
 1002MOL0     C35199   4.914   2.840   4.637 -0.0134  0.4433 -0.4283
 1002MOL0     C35200   4.058   2.795   4.714  0.0751 -0.0051  0.3046
 1002MOL0     C35201   3.926   2.760   4.741 -0.1627  0.3027 -0.5513
 1002MOL0     C35202   3.821   2.851   4.674  0.4347 -0.4795 -0.1462
 1002MOL0     H35203   3.635   2.330   4.802 -1.4664 -2.2697 -0.3230
 1002MOL0     H35204   3.429   2.203   4.844 -1.4667  0.2713 -0.4641
 1002MOL0     H35205   3.359   2.094   5.072  1.9104  0.7553  0.6030
 1002MOL0     H35206   3.328   2.182   5.217  0.2693 -2.7558 -0.4777
 1002MOL0     H35207   3.076   2.116   5.199  2.6794  0.1411  3.0849
 1002MOL0     H35208   3.182   1.982   5.204 -0.0749 -2.4361 -0.9567
 1002MOL0     H35209   3.153   2.086   4.923  3.2461 -1.1218  0.2236
 1002MOL0     H35210   2.998   2.024   4.991 -0.2705 -2.9028  2.3954
 1002MOL0     H35211   3.275   1.885   4.964  0.5975  2.8047 -0.9918
 1002MOL0     H35212   3.134   1.804   5.033 -0.8431 -0.7580 -1.8992
 1002MOL0     H35213   3.019   1.835   4.805 -1.2570 -3.0449  2.0372
 1002MOL0     H35214   3.180   1.871   4.738 -1.1305  0.0030  0.3272
 1002MOL0     H35215   3.276   1.662   4.857 -0.1519 -1.1250 -0.1875
 1002MOL0     H35216   3.103   1.618   4.869 -1.5370 -0.8428 -0.9990
 1002MOL0     H35217   3.187   1.701   4.608 -1.6851 -1.4913 -1.7140
 1002MOL0     H35218   3.073   1.576   4.652  1.0963 -0.2026 -0.5965
 1002MOL0     H35219   3.265   1.419   4.699 -0.7522 -0.6502  0.1273
 1002MOL0     H35220   3.283   1.482   4.534  1.7778 -2.0309  0.9971
 1002MOL0     H35221   3.435   1.712   4.511 -0.1597 -4.2390 -1.6496
 1002MOL0     H35222   3.662   1.843   4.537  0.1598  1.3930  0.4617
 1002MOL0     H35223   3.717   1.843   4.701 -6.0186 -1.6487  1.5437
 1002MOL0     H35224   3.866   1.636   4.644  1.2536 -0.2946 -0.4195
 1002MOL0     H35225   3.826   1.644   4.482  3.1231  0.6590 -0.6806
 1002MOL0     H35226   3.972   1.840   4.654 -2.9813  1.9803 -0.2672
 1002MOL0     H35227   3.912   1.901   4.501 -2.1242  0.2144  2.3718
 1002MOL0     H35228   4.026   1.694   4.395 -1.3177  1.6215  0.1254
 1002MOL0     H35229   4.115   1.694   4.555 -0.9906  0.3524  0.6647
 1002MOL0     H35230   4.270   1.624   4.388 -0.4179  0.4463 -1.6588
 1002MOL0     H35231   4.497   1.605   4.284 -1.9982 -1.7611  3.0248
 1002MOL0     H35232   4.780   1.481   4.108 -0.4502 -0.8164  1.5338
 1002MOL0     H35233   5.006   1.423   3.992  3.9512 -0.9652  1.5153
 1002MOL0     H35234   5.333   1.504   4.181  0.6102 -0.3758  0.3176
 1002MOL0     H35235   5.226   1.371   4.103 -1.4255  1.5820  0.3757
 1002MOL0     H35236   5.438   1.312   4.044 -0.6457 -1.8769 -1.9705
 1002MOL0     H35237   5.370   1.400   3.908  2.1598 -1.5415 -0.6882
 1002MOL0     H35238   5.478   1.611   4.011  0.8854  0.4075  2.9821
 1002MOL0     H35239   5.547   1.511   4.139  2.3797 -0.3016 -0.1759
 1002MOL0     H35240   5.610   1.545   3.855  0.3026 -0.5992  0.2488
 1002MOL0     H35241   5.620   1.375   3.909  0.2193 -0.4099 -0.0084
 1002MOL0     H35242   5.767   1.616   4.014 -1.7573  0.6093 -0.4593
 1002MOL0     H35243   5.834   1.503   3.896 -0.2079  1.5855 -0.7469
 1002MOL0     H35244   5.895   1.475   4.143 -0.6481  2.4941 -3.1419
 1002MOL0     H35245   5.746   1.382   4.167 -0.8312 -1.1274 -0.9489
 1002MOL0     H35246   5.947   1.321   3.945 -2.7326  0.6422 -1.3205
 1002MOL0     H35247   5.802   1.235   3.982 -0.5199  1.8687 -2.3098
 1002MOL0     H35248   5.989   1.104   4.087  0.4101  1.4683 -0.5413
 1002MOL0     H35249   6.054   1.249   4.155  0.7588 -1.3340 -0.2396
 1002MOL0     H35250   5.179   1.761   4.174  0.3889  1.2308 -1.2776
 1002MOL0     H35251   4.949   1.844   4.241  1.4863  2.9162 -3.4121
 1002MOL0     H35252   4.528   2.032   4.273  1.4826 -0.5846 -0.7596
 1002MOL0     H35253   4.272   2.048   4.342 -1.8748  0.4669  0.2568
 1002MOL0     H35254   3.314   2.487   5.136  0.7877 -0.3276  0.5086
 1002MOL0     H35255   3.510   2.615   5.112  1.1437  0.0972  0.1833
 1002MOL0     H35256   3.995   2.492   4.926 -1.4329 -0.5506 -0.9050
 1002MOL0     H35257   4.222   2.559   4.888 -1.6384 -1.4644  0.5298
 1002MOL0     H35258   4.412   2.666   4.821  1.8563  0.7077  0.1320
 1002MOL0     H35259   4.367   2.808   4.914  1.2609 -0.3714  0.5941
 1002MOL0     H35260   4.483   2.957   4.738  2.4289 -0.1682 -2.6411
 1002MOL0     H35261   4.549   2.801   4.676 -0.6848 -0.2299 -0.5859
 1002MOL0     H35262   4.677   2.770   4.881  2.7808  1.3382  1.2967
 1002MOL0     H35263   4.600   2.916   4.958 -1.2337 -1.8903  0.4769
 1002MOL0     H35264   4.701   3.045   4.753  0.2219  0.9952  1.2873
 1002MOL0     H35265   4.792   2.998   4.888 -1.5831 -1.1376  1.4359
 1002MOL0     H35266   4.976   2.789   4.566  0.1366  0.3017 -0.1942
 1002MOL0     H35267   4.069   2.883   4.651  0.1593  1.9200  2.8262
 1002MOL0     H35268   3.722   2.831   4.716  1.1264 -0.2182  1.7100
 1002MOL0     H35269   3.841   2.958   4.670  0.2748 -0.4492 -0.1197
 1002MOL0     H35270   3.822   2.828   4.567 -1.2059 -3.8773  0.4384
 1003MOL0     O35271   8.394   3.180   1.354  0.1970 -0.3641 -0.4150
 1003MOL0     C35272   8.348   3.126   1.458 -0.5290  0.0511  0.3195
 1003MOL0     O35273   8.406   3.004   1.518  0.4350  0.2343 -0.4083
 1003MOL0     C35274   8.505   2.940   1.450 -0.2856 -0.1212 -0.6105
 1003MOL0     C35275   8.485   2.876   1.323 -0.5153  0.2491 -0.5121
 1003MOL0     C35276   8.591   2.796   1.274  0.5413  1.0597  0.8747
 1003MOL0     C35277   8.721   2.811   1.337 -0.1282  1.1064 -0.0687
 1003MOL0     O35278   8.822   2.755   1.265  0.1945  0.1185  0.8501
 1003MOL0     C35279   8.846   2.621   1.291 -0.7940 -0.2811  0.3301
 1003MOL0     C35280   8.945   2.591   1.178 -0.4685 -0.0086  0.3647
 1003MOL0     C35281   8.873   2.577   1.036 -0.8058  0.2703 -0.9747
 1003MOL0     C35282   8.968   2.522   0.936  0.0305  0.8894  0.1644
 1003MOL0     C35283   8.915   2.479   0.797  0.0194 -0.6618  0.3271
 1003MOL0     C35284   9.023   2.382   0.727 -0.2393 -0.0935  0.1307
 1003MOL0     C35285   8.977   2.332   0.586 -0.1389 -0.9909 -0.0346
 1003MOL0     C35286   9.079   2.264   0.503 -0.4992 -0.6243  0.5815
 1003MOL0     N35287   9.198   2.345   0.471  0.4085 -0.5265 -0.4217
 1003MOL0     C35288   9.206   2.439   0.372  0.2431  0.5086 -0.9510
 1003MOL0     C35289   9.326   2.501   0.407  0.3682  0.2144  1.1474
 1003MOL0     C35290   9.407   2.597   0.327 -0.5556  0.0229 -0.1181
 1003MOL0     C35291   9.529   2.511   0.281 -0.0864 -0.5027  0.0476
 1003MOL0     C35292   9.652   2.583   0.250 -0.7175  0.8907  1.1005
 1003MOL0     C35293   9.751   2.476   0.183  0.2717 -0.9401 -0.2768
 1003MOL0     O35294   9.889   2.519   0.207 -0.1233  0.1227 -0.7012
 1003MOL0     C35295   9.996   2.462   0.138  0.4201 -0.5588  0.5341
 1003MOL0     C35296   9.988   2.389   0.021 -0.3588 -0.1476 -0.5742
 1003MOL0     C35297  10.103   2.351  -0.047  0.8177 -0.0151 -0.2826
 1003MOL0     C35298  10.226   2.387  -0.002  0.9863 -0.2615  0.2716
 1003MOL0     C35299  10.359   2.365  -0.080 -0.8707 -0.3092 -0.4410
 1003MOL0     O35300  10.345   2.303  -0.203 -0.3020  0.2882 -0.0130
 1003MOL0     C35301  10.455   2.288  -0.275  0.6235 -0.5182 -0.5376
 1003MOL0     C35302  10.569   2.215  -0.237  0.1992 -0.8065  0.6375
 1003MOL0     C35303  10.676   2.194  -0.323 -0.2858  0.3120  0.2599
 1003MOL0     C35304  10.683   2.251  -0.443 -0.9140  0.5040 -0.9904
 1003MOL0     O35305  10.790   2.214  -0.518  0.3581 -0.2569 -0.5277
 1003MOL0     C35306  10.873   2.311  -0.583 -0.3883 -0.9546  0.1803
 1003MOL0     C35307  10.963   2.232  -0.680  0.0526 -0.0017 -0.3011
 1003MOL0     C35308  11.051   2.127  -0.610 -0.6775 -0.3687 -0.4565
 1003MOL0     C35309  11.148   2.063  -0.712  0.4383  0.6302 -0.6703
 1003MOL0     C35310  11.248   1.967  -0.650 -0.2484 -0.3798  0.9458
 1003MOL0     C35311  11.337   1.897  -0.758  0.4247  0.4529  1.0280
 1003MOL0     C35312  11.442   1.803  -0.686 -0.2826  0.4087  0.4039
 1003MOL0     C35313  11.576   1.880  -0.653  0.2438 -0.0995 -0.0789
 1003MOL0    Cl35314  11.540   1.968  -0.507 -0.2307 -0.0644  0.2320
 1003MOL0     C35315  10.583   2.338  -0.481 -0.0404  0.0177 -0.0221
 1003MOL0     C35316  10.460   2.340  -0.401  0.1227 -0.3580  0.7695
 1003MOL0     O35317  10.467   2.399  -0.030 -0.5737 -0.1712  0.2569
 1003MOL0     C35318  10.236   2.462   0.120  0.4509  0.3282 -0.4775
 1003MOL0     C35319  10.121   2.497   0.182  0.0850 -0.8262  0.5584
 1003MOL0     N35320   9.370   2.443   0.524 -0.4479 -0.8407 -0.4204
 1003MOL0     N35321   9.291   2.358   0.562  0.6227  0.3286  0.1351
 1003MOL0     C35322   8.738   2.888   1.447 -0.2581  0.1537  0.5448
 1003MOL0     C35323   8.629   2.945   1.510  0.9752 -0.0671 -0.0562
 1003MOL0     C35324   8.224   3.172   1.538 -0.1381 -0.2004  0.0310
 1003MOL0     C35325   8.164   3.078   1.619 -1.4541  0.1244  0.0393
 1003MOL0     C35326   8.064   3.110   1.712  0.3042  0.1408  0.5525
 1003MOL0     C35327   8.005   3.238   1.711 -0.1335 -0.0635 -0.5987
 1003MOL0     O35328   7.904   3.272   1.792 -0.6607  0.5301 -0.2488
 1003MOL0     C35329   7.865   3.185   1.903  0.2766 -0.1235 -0.8080
 1003MOL0     C35330   7.769   3.274   1.986  0.3092  0.4761  0.9925
 1003MOL0     C35331   7.685   3.373   1.911 -0.1093 -0.3281 -0.4798
 1003MOL0     C35332   7.561   3.320   1.835  1.3663  0.1519 -0.5000
 1003MOL0     C35333   7.446   3.280   1.918  0.4903  0.6627  0.0015
 1003MOL0     C35334   7.343   3.274   1.977 -0.3004 -0.5730 -0.5788
 1003MOL0     C35335   8.054   3.330   1.620  0.3540 -0.2751  0.6805
 1003MOL0     C35336   8.172   3.298   1.533  0.3580 -0.8770 -1.2551
 1003MOL0     C35337   8.246   3.408   1.471 -0.5210 -0.3827 -0.2995
 1003MOL0     H35338   8.390   2.890   1.273  1.0122  1.5567 -3.3804
 1003MOL0     H35339   8.579   2.729   1.189 -2.4484  1.7669  0.6337
 1003MOL0     H35340   8.896   2.614   1.388 -0.9861  0.2931  0.4795
 1003MOL0     H35341   8.762   2.552   1.280 -2.0396  1.0076  1.2951
 1003MOL0     H35342   8.997   2.500   1.208  3.9677  2.2231  0.1576
 1003MOL0     H35343   9.024   2.666   1.180 -0.3748 -0.1249  1.2857
 1003MOL0     H35344   8.832   2.668   0.990  1.7220  4.0371  3.3740
 1003MOL0     H35345   8.787   2.515   1.063  0.4152 -0.8880  0.4360
 1003MOL0     H35346   9.043   2.601   0.922 -1.1344  1.8669 -0.7134
 1003MOL0     H35347   9.012   2.436   0.988 -0.9038  0.8067  0.8406
 1003MOL0     H35348   8.824   2.423   0.820 -0.5943  0.7232  1.4574
 1003MOL0     H35349   8.886   2.562   0.732  3.8242  0.1952 -0.5226
 1003MOL0     H35350   9.125   2.423   0.726  0.6766 -2.2167 -1.1261
 1003MOL0     H35351   9.025   2.299   0.798 -0.9207 -0.7716 -0.6223
 1003MOL0     H35352   8.943   2.420   0.532  0.2905 -1.9339 -1.9392
 1003MOL0     H35353   8.897   2.260   0.606  0.2598 -1.0850  1.3618
 1003MOL0     H35354   9.108   2.170   0.550  1.7949 -3.0223 -4.7755
 1003MOL0     H35355   9.038   2.232   0.407  1.3028  1.3160 -0.9756
 1003MOL0     H35356   9.165   2.455   0.273 -0.5384 -1.9004 -1.0896
 1003MOL0     H35357   9.348   2.640   0.246 -0.6716  3.4743  1.6311
 1003MOL0     H35358   9.447   2.681   0.385  2.1964  0.7212 -2.7919
 1003MOL0     H35359   9.547   2.444   0.365 -1.4152 -0.6351  0.2586
 1003MOL0     H35360   9.490   2.447   0.201  3.2156 -2.5810 -0.0682
 1003MOL0     H35361   9.703   2.627   0.337  0.9039  4.5739 -1.4783
 1003MOL0     H35362   9.640   2.652   0.167 -2.2237  0.7785  1.2008
 1003MOL0     H35363   9.731   2.464   0.076 -1.2151 -0.3087 -0.0868
 1003MOL0     H35364   9.731   2.380   0.233 -3.3395  0.9679  2.4557
 1003MOL0     H35365   9.894   2.344  -0.008  0.6157 -2.8723  0.1307
 1003MOL0     H35366  10.105   2.315  -0.150  3.0926  0.4449 -0.4625
 1003MOL0     H35367  10.586   2.162  -0.145  1.1936 -1.5887  0.0256
 1003MOL0     H35368  10.759   2.137  -0.283  0.6526  2.0236  0.8790
 1003MOL0     H35369  10.827   2.391  -0.641  0.6396  0.6344  1.4840
 1003MOL0     H35370  10.938   2.364  -0.513  0.3440 -1.7496  0.1230
 1003MOL0     H35371  10.902   2.186  -0.759 -0.0852  0.6939 -0.6013
 1003MOL0     H35372  11.028   2.303  -0.731 -1.5098  1.2472 -0.6202
 1003MOL0     H35373  11.114   2.179  -0.537 -4.0116  1.6833  1.2070
 1003MOL0     H35374  10.993   2.053  -0.554  0.1796  0.6122  1.8643
 1003MOL0     H35375  11.190   2.142  -0.774 -2.1208  0.1327 -3.2789
 1003MOL0     H35376  11.091   2.005  -0.786  0.8568  2.2755 -2.3570
 1003MOL0     H35377  11.190   1.889  -0.598 -0.1818  0.2559  2.0052
 1003MOL0     H35378  11.312   2.028  -0.586  3.3721  1.7851 -4.1269
 1003MOL0     H35379  11.268   1.831  -0.811 -1.3828  2.6734  0.4807
 1003MOL0     H35380  11.380   1.966  -0.831 -1.6699  1.4822  0.6971
 1003MOL0     H35381  11.466   1.724  -0.757 -1.3423  0.3218  0.1230
 1003MOL0     H35382  11.389   1.753  -0.604 -1.3843  0.8324 -0.0365
 1003MOL0     H35383  11.656   1.808  -0.635  0.6332 -0.1817 -1.9414
 1003MOL0     H35384  11.616   1.934  -0.739 -0.5039 -0.2168 -0.5081
 1003MOL0     H35385  10.567   2.371  -0.583 -0.0012 -0.3088 -0.1367
 1003MOL0     H35386  10.368   2.384  -0.438  0.7059 -0.6490 -1.1678
 1003MOL0     H35387  10.320   2.511   0.169  1.6861 -2.8063  0.8216
 1003MOL0     H35388  10.123   2.566   0.266  0.5954 -0.6577  0.4164
 1003MOL0     H35389   8.841   2.898   1.481  0.2605  3.3337 -1.4943
 1003MOL0     H35390   8.652   3.005   1.597  0.0039  2.7279 -1.6036
 1003MOL0     H35391   8.218   2.985   1.633  1.7905  1.9072  0.2266
 1003MOL0     H35392   8.021   3.037   1.779  0.3624 -0.4946 -0.0961
 1003MOL0     H35393   7.952   3.155   1.962  0.0943 -0.3806 -0.6696
 1003MOL0     H35394   7.806   3.099   1.868 -1.5231  1.1582 -1.0835
 1003MOL0     H35395   7.835   3.338   2.046  3.2308  0.0434 -1.4881
 1003MOL0     H35396   7.708   3.216   2.056 -1.4229  1.8285  0.6773
 1003MOL0     H35397   7.750   3.436   1.849  0.8479  1.6183  2.3062
 1003MOL0     H35398   7.632   3.435   1.983  0.4219  1.1211 -1.2832
 1003MOL0     H35399   7.540   3.384   1.749  0.1170  1.5124  0.7614
 1003MOL0     H35400   7.598   3.227   1.791 -0.7196 -0.8215 -0.3185
 1003MOL0     H35401   7.253   3.268   2.036  0.6429  0.4852  1.0265
 1003MOL0     H35402   8.016   3.430   1.602  1.7250  0.3377  1.0914
 1003MOL0     H35403   8.347   3.408   1.512 -0.7497  0.8585  0.3091
 1003MOL0     H35404   8.250   3.400   1.362  1.2222 -0.6879 -0.2423
 1003MOL0     H35405   8.203   3.502   1.507 -1.9845 -0.1215 -2.5228
 1004MOL0     O35406   3.474   5.702   8.731  0.1649 -1.0964  0.6162
 1004MOL0     C35407   3.484   5.633   8.831  0.1104 -0.0626  0.2452
 1004MOL0     O35408   3.601   5.580   8.872 -0.9235  0.4440  0.3245
 1004MOL0     C35409   3.718   5.632   8.836 -1.1293 -0.6273  0.0135
 1004MOL0     C35410   3.833   5.546   8.837 -0.9573  0.1987  0.3050
 1004MOL0     C35411   3.960   5.602   8.792  0.6792  0.5849  0.4996
 1004MOL0     C35412   3.974   5.738   8.787  0.0740 -0.6439  0.4650
 1004MOL0     O35413   4.094   5.794   8.774 -0.8421  0.4350  0.0174
 1004MOL0     C35414   4.147   5.850   8.890 -0.0489 -0.2829  0.7743
 1004MOL0     C35415   4.258   5.759   8.943 -0.1798 -0.1084  0.4926
 1004MOL0     C35416   4.385   5.730   8.849  0.5372  0.2514 -0.7387
 1004MOL0     C35417   4.494   5.646   8.919 -0.8883  0.5539 -0.6470
 1004MOL0     C35418   4.613   5.606   8.827  0.6332 -0.2184 -0.8411
 1004MOL0     C35419   4.709   5.719   8.797 -0.2269  0.5348 -0.5428
 1004MOL0     C35420   4.820   5.690   8.703 -1.0378 -0.0613  0.3824
 1004MOL0     C35421   4.881   5.548   8.737 -0.0813 -0.4105  0.3865
 1004MOL0     N35422   5.013   5.548   8.667 -0.8831 -0.0366  0.2378
 1004MOL0     C35423   5.123   5.620   8.711 -0.8759  0.3520  1.0708
 1004MOL0     C35424   5.196   5.635   8.597 -0.4253  0.5744  0.0464
 1004MOL0     C35425   5.332   5.689   8.584 -1.5463  0.2605  0.9544
 1004MOL0     C35426   5.437   5.574   8.598 -0.4336 -0.2410  0.0183
 1004MOL0     C35427   5.577   5.639   8.605  1.1845 -0.4263  0.0487
 1004MOL0     C35428   5.690   5.545   8.585  0.1163  0.6371 -0.1686
 1004MOL0     O35429   5.667   5.449   8.478 -0.9463 -0.2528 -0.2076
 1004MOL0     C35430   5.762   5.454   8.370 -0.0864  0.6519 -0.4470
 1004MOL0     C35431   5.895   5.422   8.390 -0.9606  0.1098 -0.1043
 1004MOL0     C35432   5.987   5.433   8.282  0.5174 -0.5577 -0.3806
 1004MOL0     C35433   5.947   5.472   8.158 -0.3538 -0.3099  0.3059
 1004MOL0     C35434   6.047   5.475   8.043  0.3868 -0.2651  0.4755
 1004MOL0     O35435   6.159   5.402   8.069 -0.3649  0.0909  0.0298
 1004MOL0     C35436   6.276   5.435   7.999  0.4382  0.8562  0.1135
 1004MOL0     C35437   6.386   5.345   8.008  0.2307 -0.2679 -0.3570
 1004MOL0     C35438   6.507   5.383   7.955 -0.6241 -0.3903  0.2969
 1004MOL0     C35439   6.529   5.502   7.890 -0.6412  0.4358  0.1683
 1004MOL0     O35440   6.645   5.546   7.834  0.1414 -0.3482 -0.3056
 1004MOL0     C35441   6.768   5.468   7.846  0.7607 -0.1574 -0.1552
 1004MOL0     C35442   6.864   5.516   7.735 -0.4489 -0.0128 -0.2035
 1004MOL0     C35443   6.975   5.598   7.794 -0.1740  0.2040  0.3128
 1004MOL0     C35444   7.089   5.509   7.850 -0.4575 -0.3062  1.2243
 1004MOL0     C35445   7.201   5.587   7.918 -0.3048 -0.4063  0.7194
 1004MOL0     C35446   7.320   5.499   7.948 -0.9183  0.0141  0.6524
 1004MOL0     C35447   7.451   5.573   7.973  0.9738 -0.0804  0.0030
 1004MOL0     C35448   7.570   5.490   8.037  0.7533  1.1200  0.1079
 1004MOL0    Cl35449   7.716   5.596   8.036  0.5997  0.4136  0.4202
 1004MOL0     C35450   6.420   5.585   7.868 -0.7300  0.0815 -0.4241
 1004MOL0     C35451   6.295   5.559   7.932 -0.4634  0.2632  1.2900
 1004MOL0     O35452   6.022   5.539   7.947 -0.0714 -0.0644  0.5667
 1004MOL0     C35453   5.812   5.504   8.137 -1.0181  0.6924  0.1967
 1004MOL0     C35454   5.723   5.493   8.247  0.1380  0.4896  0.7983
 1004MOL0     N35455   5.144   5.567   8.493 -0.0906 -0.8389  0.5111
 1004MOL0     N35456   5.026   5.518   8.532  0.2894  0.1675 -0.4634
 1004MOL0     C35457   3.863   5.824   8.791  0.1051  0.1229  0.2209
 1004MOL0     C35458   3.737   5.766   8.808 -0.1159 -0.0627 -0.1811
 1004MOL0     C35459   3.363   5.603   8.911 -0.0569  0.3170 -0.5772
 1004MOL0     C35460   3.379   5.509   9.020  0.4658 -0.8700  0.2247
 1004MOL0     C35461   3.276   5.482   9.109 -0.0745 -0.3595  0.3000
 1004MOL0     C35462   3.148   5.535   9.075 -0.2315 -0.3870 -0.2320
 1004MOL0     O35463   3.059   5.521   9.172  0.1016 -0.0008  0.6739
 1004MOL0     C35464   2.921   5.545   9.149  0.9172  0.6083  0.7446
 1004MOL0     C35465   2.847   5.471   9.267 -0.8824 -0.5541  0.4437
 1004MOL0     C35466   2.697   5.450   9.247  0.2701 -0.0658  0.1028
 1004MOL0     C35467   2.616   5.385   9.355 -0.3259  0.5793  0.2509
 1004MOL0     C35468   2.472   5.420   9.341  1.2306 -0.1824 -0.3575
 1004MOL0     C35469   2.356   5.449   9.336  0.0676  0.1982 -0.0785
 1004MOL0     C35470   3.137   5.626   8.968 -0.0510  0.1072 -1.0451
 1004MOL0     C35471   3.241   5.671   8.896 -0.6119  0.9009 -0.0322
 1004MOL0     C35472   3.215   5.786   8.809  0.4367 -0.0644 -0.6270
 1004MOL0     H35473   3.823   5.441   8.862 -0.2272  0.1834  0.5306
 1004MOL0     H35474   4.048   5.540   8.780  0.2435  0.2989 -1.6478
 1004MOL0     H35475   4.205   5.940   8.872 -2.1086  1.1589  1.0211
 1004MOL0     H35476   4.075   5.865   8.971  0.5899 -2.1530  1.7407
 1004MOL0     H35477   4.196   5.672   8.967  1.7650 -1.8658 -0.5592
 1004MOL0     H35478   4.302   5.789   9.039  1.6018 -0.4750 -0.1846
 1004MOL0     H35479   4.424   5.828   8.822 -1.6075  1.5167  0.4941
 1004MOL0     H35480   4.348   5.669   8.766 -2.5238  0.6346  0.2172
 1004MOL0     H35481   4.548   5.701   8.997 -4.8346 -0.1814  2.9854
 1004MOL0     H35482   4.450   5.563   8.974 -0.4796 -0.8814 -2.4069
 1004MOL0     H35483   4.671   5.529   8.878  0.2125  0.8506  1.3308
 1004MOL0     H35484   4.562   5.567   8.738  0.8593 -3.6097  0.3837
 1004MOL0     H35485   4.667   5.808   8.751  1.2998  0.5618 -1.9765
 1004MOL0     H35486   4.756   5.746   8.893 -0.3068  1.9469 -0.8801
 1004MOL0     H35487   4.894   5.771   8.701 -2.5911  1.5017 -3.3833
 1004MOL0     H35488   4.779   5.680   8.602 -2.2374 -0.0639  0.8596
 1004MOL0     H35489   4.898   5.539   8.845 -0.6282  2.5859  0.8003
 1004MOL0     H35490   4.814   5.469   8.702 -0.8555  0.5690 -0.4252
 1004MOL0     H35491   5.136   5.671   8.806  0.6569 -0.3249  1.2514
 1004MOL0     H35492   5.357   5.729   8.485 -3.3395 -0.5221  0.1336
 1004MOL0     H35493   5.347   5.770   8.656 -0.6911  1.4607 -0.5208
 1004MOL0     H35494   5.423   5.505   8.683  3.1817  0.5280  1.4039
 1004MOL0     H35495   5.421   5.511   8.510 -2.2371  1.6304 -1.0833
 1004MOL0     H35496   5.607   5.664   8.707  4.0564 -1.9015 -0.3149
 1004MOL0     H35497   5.582   5.719   8.530 -1.2105 -0.2170  0.0454
 1004MOL0     H35498   5.697   5.479   8.672 -4.8187  0.9907  0.7683
 1004MOL0     H35499   5.782   5.604   8.576  1.8758 -1.6766  1.3602
 1004MOL0     H35500   5.918   5.385   8.490 -0.7087  0.4517 -0.0317
 1004MOL0     H35501   6.092   5.410   8.300  1.4210  3.3183  0.2977
 1004MOL0     H35502   6.386   5.246   8.052  5.5523 -0.1887  0.3728
 1004MOL0     H35503   6.591   5.314   7.965 -1.6717 -1.5609  1.3271
 1004MOL0     H35504   6.816   5.481   7.943  0.7800  1.0677 -0.3104
 1004MOL0     H35505   6.737   5.364   7.833  0.2215 -0.1283  0.8238
 1004MOL0     H35506   6.894   5.425   7.683 -1.4418  0.4322 -1.6426
 1004MOL0     H35507   6.810   5.588   7.671 -1.4487 -0.1514  0.4602
 1004MOL0     H35508   7.026   5.654   7.716  2.0900 -2.3805 -0.2424
 1004MOL0     H35509   6.933   5.657   7.876 -0.3972  0.3924  0.0628
 1004MOL0     H35510   7.134   5.446   7.772 -1.4626 -2.4741  2.2834
 1004MOL0     H35511   7.047   5.441   7.925 -1.6251  0.3446  1.1861
 1004MOL0     H35512   7.160   5.627   8.011 -3.0675 -1.7553  0.1819
 1004MOL0     H35513   7.233   5.668   7.851  0.5914  1.0470  2.8214
 1004MOL0     H35514   7.292   5.430   8.028  0.0302 -1.0337  0.0928
 1004MOL0     H35515   7.340   5.428   7.867  0.8633  0.3502  0.7530
 1004MOL0     H35516   7.426   5.661   8.033 -2.7792 -1.0175  0.0580
 1004MOL0     H35517   7.487   5.607   7.875 -0.4484  1.1273 -0.1304
 1004MOL0     H35518   7.532   5.467   8.137  2.8184  2.2438  1.2256
 1004MOL0     H35519   7.584   5.390   7.996  0.4620  1.2906 -0.4294
 1004MOL0     H35520   6.432   5.677   7.813 -4.4657  0.5966 -0.6257
 1004MOL0     H35521   6.232   5.647   7.915  1.8139  1.7760  0.0727
 1004MOL0     H35522   5.783   5.543   8.041 -3.4287  1.0758  1.0267
 1004MOL0     H35523   5.618   5.516   8.233  0.2996  0.0049 -1.4982
 1004MOL0     H35524   3.880   5.927   8.761 -0.6452  0.2863  0.3415
 1004MOL0     H35525   3.653   5.832   8.789 -2.0520 -1.5892  2.4311
 1004MOL0     H35526   3.479   5.468   9.034  0.5261 -0.9139 -0.3048
 1004MOL0     H35527   3.294   5.435   9.204 -2.7248  2.8524  2.6533
 1004MOL0     H35528   2.898   5.495   9.054  4.0693  0.9007 -0.2944
 1004MOL0     H35529   2.882   5.646   9.136  0.2784  0.5372  1.9511
 1004MOL0     H35530   2.860   5.523   9.362  0.6803 -1.8826  1.0102
 1004MOL0     H35531   2.897   5.376   9.287 -0.1375  0.0875  1.7172
 1004MOL0     H35532   2.679   5.395   9.154  0.2341 -0.8244  0.5539
 1004MOL0     H35533   2.652   5.548   9.226  0.5137  0.0397  0.0605
 1004MOL0     H35534   2.631   5.277   9.357 -0.9547  0.4973  1.2545
 1004MOL0     H35535   2.648   5.435   9.448 -0.9798 -0.0793  0.8394
 1004MOL0     H35536   2.252   5.471   9.353  0.2834 -0.4646  2.4792
 1004MOL0     H35537   3.039   5.671   8.970  0.4128  1.1601  1.1145
 1004MOL0     H35538   3.295   5.852   8.842  0.9543 -1.7924  1.8294
 1004MOL0     H35539   3.214   5.751   8.705 -0.4429 -2.8647  0.2392
 1004MOL0     H35540   3.117   5.830   8.829 -0.6732 -2.4328 -0.5383
 1005MOL0     O35541   7.639   7.955   2.466 -0.8069  0.1569 -0.3863
 1005MOL0     C35542   7.549   7.935   2.388 -0.7200  0.1180 -0.5857
 1005MOL0     O35543   7.512   8.030   2.288 -0.2370 -0.4189  0.5523
 1005MOL0     C35544   7.604   8.128   2.256 -0.2339 -0.3570 -1.2670
 1005MOL0     C35545   7.679   8.107   2.137 -0.1693  0.2559  0.0445
 1005MOL0     C35546   7.792   8.191   2.116  0.4564 -1.0541 -0.2512
 1005MOL0     C35547   7.822   8.292   2.201 -0.1644 -0.6204 -0.4006
 1005MOL0     O35548   7.933   8.374   2.193 -0.2295  0.0137 -0.1943
 1005MOL0     C35549   8.029   8.352   2.087  0.1836 -0.4395  0.2918
 1005MOL0     C35550   8.125   8.470   2.117  0.3345  0.2476 -0.4637
 1005MOL0     C35551   8.246   8.442   2.028  0.4814 -0.9355 -0.3144
 1005MOL0     C35552   8.364   8.529   2.080 -0.1265  1.0383  0.2101
 1005MOL0     C35553   8.452   8.425   2.141  0.0424 -0.4293 -0.4743
 1005MOL0     C35554   8.576   8.481   2.202  0.6230  0.0710 -0.1557
 1005MOL0     C35555   8.695   8.393   2.171  0.4958 -0.0573  0.1048
 1005MOL0     C35556   8.825   8.466   2.205 -0.2456  1.1780  0.1122
 1005MOL0     N35557   8.851   8.570   2.106  0.2842 -0.7514  0.3842
 1005MOL0     C35558   8.842   8.707   2.125  0.7554  1.0176  0.1593
 1005MOL0     C35559   8.869   8.768   2.012 -0.0518  0.2525  1.1038
 1005MOL0     C35560   8.889   8.910   1.980  0.5544  0.2363 -0.5248
 1005MOL0     C35561   9.014   8.974   2.042  0.1809  0.6809 -0.2461
 1005MOL0     C35562   9.153   8.924   2.001 -0.2250  1.0069  1.6674
 1005MOL0     C35563   9.194   8.996   1.874 -0.0231  0.2967 -0.9177
 1005MOL0     O35564   9.312   8.941   1.820  0.1156  0.2234  0.0122
 1005MOL0     C35565   9.298   8.826   1.745 -0.4496 -0.1264 -0.2914
 1005MOL0     C35566   9.185   8.742   1.720  0.1846 -0.9991  0.3026
 1005MOL0     C35567   9.187   8.622   1.662 -0.4274  0.6169 -0.0061
 1005MOL0     C35568   9.306   8.584   1.596 -0.9313 -0.4662  1.3132
 1005MOL0     C35569   9.306   8.461   1.523  0.5952 -0.1086  0.0385
 1005MOL0     O35570   9.178   8.404   1.497  0.0923  0.7778  0.0659
 1005MOL0     C35571   9.178   8.284   1.436  0.3480 -0.5911  0.2786
 1005MOL0     C35572   9.074   8.269   1.344 -0.1520 -0.3990  0.0971
 1005MOL0     C35573   9.067   8.153   1.266 -0.5960  0.1137 -0.2043
 1005MOL0     C35574   9.167   8.061   1.284  0.7347  0.4360 -0.3651
 1005MOL0     O35575   9.153   7.939   1.222 -0.4192 -0.0338 -0.2744
 1005MOL0     C35576   9.109   7.941   1.089  0.1233  0.6278 -0.2347
 1005MOL0     C35577   9.174   7.819   1.017  0.3751 -0.2859  0.0367
 1005MOL0     C35578   9.140   7.685   1.090  0.2362  0.3264 -0.3904
 1005MOL0     C35579   8.984   7.665   1.118  0.5492 -0.8064  0.9779
 1005MOL0     C35580   8.947   7.517   1.164 -0.2679  0.2219 -0.3060
 1005MOL0     C35581   8.939   7.498   1.320  0.2149  0.1163  0.6806
 1005MOL0     C35582   9.060   7.544   1.410 -0.7038 -0.3741  0.3198
 1005MOL0     C35583   9.142   7.417   1.454 -0.3802 -0.9213  0.7561
 1005MOL0    Cl35584   9.204   7.332   1.323 -0.1914 -0.5667  0.1885
 1005MOL0     C35585   9.262   8.068   1.380 -0.2899  0.2226 -0.2079
 1005MOL0     C35586   9.272   8.182   1.455  0.4044  0.2173 -0.6162
 1005MOL0     O35587   9.417   8.418   1.495  0.0440  0.0709  0.0215
 1005MOL0     C35588   9.421   8.666   1.616 -0.4349  0.0171  0.6827
 1005MOL0     C35589   9.414   8.785   1.693  0.5098 -0.1765  0.2964
 1005MOL0     N35590   8.902   8.675   1.920 -0.6533  0.3793 -0.3643
 1005MOL0     N35591   8.893   8.556   1.977 -0.4344  0.2498 -0.1158
 1005MOL0     C35592   7.743   8.317   2.317  0.0369  0.3272 -0.3475
 1005MOL0     C35593   7.630   8.238   2.341 -0.0773 -0.9870 -0.0485
 1005MOL0     C35594   7.463   7.812   2.396 -0.2403  0.6951 -0.3993
 1005MOL0     C35595   7.357   7.816   2.305  0.2767 -0.5463  0.6621
 1005MOL0     C35596   7.260   7.707   2.316  0.3110 -0.3471  0.3252
 1005MOL0     C35597   7.271   7.601   2.403 -0.3332 -0.2590  0.2834
 1005MOL0     O35598   7.181   7.500   2.388 -0.0505  0.0767  0.6154
 1005MOL0     C35599   7.152   7.433   2.513  0.6556 -0.3918 -0.0390
 1005MOL0     C35600   7.031   7.334   2.496 -0.0774 -0.5514  0.3835
 1005MOL0     C35601   6.998   7.259   2.636 -0.8071 -0.2489 -0.3485
 1005MOL0     C35602   6.866   7.196   2.622 -0.6392  0.8196  0.0500
 1005MOL0     C35603   6.767   7.301   2.622  0.7308 -0.8366 -0.6919
 1005MOL0     C35604   6.687   7.389   2.597 -0.2607  0.0889 -0.2631
 1005MOL0     C35605   7.374   7.608   2.496 -0.8185  0.9957 -0.0762
 1005MOL0     C35606   7.473   7.710   2.500  0.1685  0.4469  0.2198
 1005MOL0     C35607   7.577   7.707   2.612  1.3897 -0.3634  0.0967
 1005MOL0     H35608   7.658   8.029   2.065  2.1369  1.6327 -2.2844
 1005MOL0     H35609   7.859   8.167   2.034  1.5176  1.7266 -0.3055
 1005MOL0     H35610   8.092   8.264   2.100 -0.1478 -0.9585 -1.2954
 1005MOL0     H35611   7.983   8.347   1.988  0.9819 -0.7161 -0.0766
 1005MOL0     H35612   8.152   8.465   2.223  1.3340 -0.7578 -0.7474
 1005MOL0     H35613   8.077   8.566   2.095 -2.3812 -0.9605 -0.2616
 1005MOL0     H35614   8.228   8.473   1.925  2.8780  0.9021 -0.2708
 1005MOL0     H35615   8.267   8.335   2.032  2.6192 -0.5466 -0.1049
 1005MOL0     H35616   8.411   8.577   1.994 -2.6356  0.0368 -1.8501
 1005MOL0     H35617   8.342   8.610   2.150  0.1688  3.9430 -2.8247
 1005MOL0     H35618   8.398   8.371   2.219 -0.9297  0.8315 -0.2443
 1005MOL0     H35619   8.476   8.348   2.067 -1.9009 -0.5981 -0.9821
 1005MOL0     H35620   8.585   8.584   2.168  1.4919 -0.2493 -0.9323
 1005MOL0     H35621   8.564   8.494   2.309 -0.8122  0.1047 -0.2991
 1005MOL0     H35622   8.703   8.360   2.067 -3.8040 -1.5243  0.0436
 1005MOL0     H35623   8.684   8.296   2.220 -0.6545 -1.1381 -2.1036
 1005MOL0     H35624   8.823   8.498   2.310 -2.8263  3.8479 -0.6124
 1005MOL0     H35625   8.907   8.394   2.206  0.6729  2.1659  1.9185
 1005MOL0     H35626   8.812   8.760   2.215 -0.6853  1.3152 -0.4774
 1005MOL0     H35627   8.900   8.918   1.872  0.9999 -0.4858 -0.5383
 1005MOL0     H35628   8.803   8.965   2.020  0.9675 -0.5377  1.6004
 1005MOL0     H35629   9.021   9.082   2.031  0.5840  0.5195 -1.9506
 1005MOL0     H35630   9.005   8.949   2.148 -0.0670  1.6050 -0.0408
 1005MOL0     H35631   9.145   8.818   1.977 -1.5151  1.5264 -0.4521
 1005MOL0     H35632   9.220   8.942   2.086  2.2390  1.4982 -0.2560
 1005MOL0     H35633   9.215   9.099   1.903 -2.2299  0.1752  1.5274
 1005MOL0     H35634   9.113   9.006   1.802 -2.7998 -2.6043  1.5140
 1005MOL0     H35635   9.090   8.783   1.754 -0.7340 -0.9932 -2.0939
 1005MOL0     H35636   9.103   8.554   1.655  1.7603 -2.1457 -1.9981
 1005MOL0     H35637   9.002   8.350   1.341  0.2619 -0.0068  0.5809
 1005MOL0     H35638   8.987   8.137   1.194  1.0907 -5.0009 -1.3634
 1005MOL0     H35639   8.999   7.939   1.090  0.1087  1.3061  0.3115
 1005MOL0     H35640   9.143   8.033   1.041 -1.0186  0.5389 -1.2787
 1005MOL0     H35641   9.155   7.808   0.910 -1.8254 -2.0647  0.5419
 1005MOL0     H35642   9.283   7.832   1.021  0.2450  1.1496 -0.6178
 1005MOL0     H35643   9.174   7.600   1.030  1.2058  1.6193 -1.7667
 1005MOL0     H35644   9.195   7.677   1.184 -1.0910  0.0725  0.3815
 1005MOL0     H35645   8.934   7.678   1.021  0.2656 -0.8309  1.1199
 1005MOL0     H35646   8.955   7.737   1.195  1.4912  0.7946 -0.0994
 1005MOL0     H35647   9.029   7.453   1.131  0.8276  0.7140  1.3239
 1005MOL0     H35648   8.856   7.483   1.115  0.7736  0.9218 -2.8976
 1005MOL0     H35649   8.847   7.552   1.348 -0.6547  1.7546 -4.3160
 1005MOL0     H35650   8.911   7.394   1.336  1.7457 -0.5395 -0.6495
 1005MOL0     H35651   9.022   7.593   1.500 -0.8374  1.8817 -0.8877
 1005MOL0     H35652   9.126   7.621   1.368 -0.3101  1.3825  3.7947
 1005MOL0     H35653   9.221   7.439   1.526 -0.7345 -2.9862  1.8599
 1005MOL0     H35654   9.072   7.353   1.508  0.1019 -1.4110  0.8153
 1005MOL0     H35655   9.327   7.981   1.381  0.1481  0.5428  0.9949
 1005MOL0     H35656   9.351   8.200   1.527 -0.8591  0.0920  0.8401
 1005MOL0     H35657   9.514   8.649   1.563  0.6770  4.1874  0.9629
 1005MOL0     H35658   9.501   8.849   1.693  0.9977 -0.8167 -0.3449
 1005MOL0     H35659   7.776   8.393   2.387 -0.9926  0.1178  0.3890
 1005MOL0     H35660   7.573   8.245   2.433 -0.1657 -2.2759  0.0243
 1005MOL0     H35661   7.338   7.900   2.239 -0.7355  0.5465  2.2669
 1005MOL0     H35662   7.173   7.706   2.251  1.1884  0.0817 -0.9013
 1005MOL0     H35663   7.124   7.495   2.598  1.5131  0.6932 -0.5281
 1005MOL0     H35664   7.234   7.371   2.550  0.6236 -1.3871 -1.5379
 1005MOL0     H35665   7.055   7.255   2.425 -1.8196  0.4127 -1.3594
 1005MOL0     H35666   6.946   7.395   2.466  0.2182 -0.0319  0.5893
 1005MOL0     H35667   7.009   7.322   2.724 -2.2604 -0.3678 -0.0587
 1005MOL0     H35668   7.069   7.176   2.637  0.4195  0.7677 -0.2727
 1005MOL0     H35669   6.873   7.130   2.535  1.0261  0.3671  0.5039
 1005MOL0     H35670   6.834   7.122   2.695  2.6959  0.3021  1.1476
 1005MOL0     H35671   6.631   7.471   2.557 -4.2539 -1.3591  1.7976
 1005MOL0     H35672   7.386   7.536   2.576  1.7673  3.0707  1.5672
 1005MOL0     H35673   7.558   7.642   2.698  1.6961  1.5382  1.6647
 1005MOL0     H35674   7.671   7.666   2.575  2.1244 -0.8967  2.4031
 1005MOL0     H35675   7.593   7.806   2.657 -0.5083 -0.9532  2.2480
 1006MOL0     O35676   3.160   8.917  11.104 -0.3663  0.2213  0.7887
 1006MOL0     C35677   3.174   8.818  11.182 -0.1010 -0.3466 -0.4520
 1006MOL0     O35678   3.127   8.817  11.304 -0.0347 -0.1432 -0.6051
 1006MOL0     C35679   3.042   8.919  11.358 -1.1217  0.1832  0.1291
 1006MOL0     C35680   3.088   9.036  11.415  0.0276  0.3440 -0.0694
 1006MOL0     C35681   2.997   9.127  11.456  0.8757  0.6478 -0.1040
 1006MOL0     C35682   2.859   9.100  11.465  0.3314 -0.0807  0.5973
 1006MOL0     O35683   2.781   9.205  11.510  0.1863  0.6469 -0.0933
 1006MOL0     C35684   2.650   9.171  11.553  0.2982  0.1976  0.1994
 1006MOL0     C35685   2.576   9.282  11.630 -0.0386  0.1278 -0.6694
 1006MOL0     C35686   2.451   9.250  11.708 -0.4767 -0.4111 -0.5390
 1006MOL0     C35687   2.498   9.164  11.830 -0.6203 -0.3509 -0.0327
 1006MOL0     C35688   2.388   9.153  11.930  0.6301  1.0659  0.1905
 1006MOL0     C35689   2.442   9.095  12.066 -0.5042  0.0344 -1.1563
 1006MOL0     C35690   2.508   9.197  12.155  1.1744  0.2141  0.4414
 1006MOL0     C35691   2.551   9.141  12.285 -0.6601  0.2978 -0.4569
 1006MOL0     N35692   2.561   9.253  12.378 -0.2381  0.7136 -0.1925
 1006MOL0     C35693   2.654   9.359  12.384 -0.2661 -0.6930  0.5833
 1006MOL0     C35694   2.594   9.449  12.469  0.8130 -0.0718 -0.6941
 1006MOL0     C35695   2.650   9.588  12.503 -0.6185 -0.7827  0.4233
 1006MOL0     C35696   2.754   9.594  12.617  0.5666  0.0578  0.0793
 1006MOL0     C35697   2.747   9.462  12.701 -0.0109 -0.1469  0.8319
 1006MOL0     C35698   2.838   9.477  12.821  0.1379  0.1637 -0.5678
 1006MOL0     O35699   2.830   9.361  12.906  0.1093  0.5528 -0.3798
 1006MOL0     C35700   2.902   9.370  13.024 -0.3106 -0.4401 -0.0424
 1006MOL0     C35701   2.967   9.486  13.079  0.0904  0.3217  0.3852
 1006MOL0     C35702   3.048   9.475  13.194  0.3067  0.0673  0.7747
 1006MOL0     C35703   3.042   9.363  13.271  0.1012 -0.2197  0.3619
 1006MOL0     C35704   3.123   9.350  13.395 -0.4126 -0.5341 -0.1866
 1006MOL0     O35705   3.239   9.424  13.398 -0.0144 -0.0305  0.0035
 1006MOL0     C35706   3.337   9.414  13.504 -0.6904  0.3507  0.7830
 1006MOL0     C35707   3.303   9.440  13.634  0.4483  0.5867  0.2773
 1006MOL0     C35708   3.395   9.433  13.739  0.1595  0.4830  0.7650
 1006MOL0     C35709   3.531   9.421  13.711 -0.4686 -0.0361 -0.2684
 1006MOL0     O35710   3.633   9.413  13.806 -0.3120 -0.4434  0.4669
 1006MOL0     C35711   3.607   9.339  13.919  0.3283  1.0709  0.2777
 1006MOL0     C35712   3.735   9.338  14.003 -0.4637  1.4850 -0.1001
 1006MOL0     C35713   3.786   9.477  14.052  0.2114 -0.1079 -0.4247
 1006MOL0     C35714   3.916   9.448  14.128 -0.3571 -0.2468  1.9222
 1006MOL0     C35715   3.985   9.577  14.178 -0.1980 -0.0398  0.5032
 1006MOL0     C35716   4.078   9.559  14.294 -0.0419  0.6670  0.4681
 1006MOL0     C35717   4.149   9.690  14.317  0.2438 -0.4388 -0.2995
 1006MOL0     C35718   4.231   9.688  14.448  0.7523  0.5898 -0.5116
 1006MOL0    Cl35719   4.344   9.814  14.426 -0.2268 -0.2374 -0.1438
 1006MOL0     C35720   3.572   9.417  13.575 -0.2554  0.4234  0.0364
 1006MOL0     C35721   3.476   9.422  13.478  0.8516 -0.6944  0.0251
 1006MOL0     O35722   3.077   9.277  13.483  0.5998 -0.2063 -0.6613
 1006MOL0     C35723   2.986   9.247  13.223 -0.4493 -0.1606  0.0742
 1006MOL0     C35724   2.919   9.249  13.095  1.1703 -0.4381 -0.7903
 1006MOL0     N35725   2.477   9.390  12.526  0.3343  0.5080 -0.3505
 1006MOL0     N35726   2.457   9.287  12.455 -0.4188  0.2815 -1.1773
 1006MOL0     C35727   2.804   8.984  11.412  0.3327  0.0952  0.4269
 1006MOL0     C35728   2.904   8.893  11.360 -0.0482  1.0220 -0.1659
 1006MOL0     C35729   3.263   8.713  11.146  0.2803 -0.2914 -0.4485
 1006MOL0     C35730   3.320   8.726  11.018  0.1551 -0.2361 -0.3544
 1006MOL0     C35731   3.430   8.650  10.982  0.4627  0.6252  0.2110
 1006MOL0     C35732   3.463   8.542  11.058 -0.9067 -0.2739 -0.2773
 1006MOL0     O35733   3.574   8.470  11.027 -0.8140  0.1351 -1.2818
 1006MOL0     C35734   3.698   8.546  11.049  0.2587  0.0467 -0.1723
 1006MOL0     C35735   3.824   8.469  11.074 -0.1536  0.3512  0.8981
 1006MOL0     C35736   3.839   8.433  11.222 -0.2726 -0.2238 -0.9926
 1006MOL0     C35737   3.922   8.536  11.296 -0.7279  0.3386 -0.0538
 1006MOL0     C35738   3.837   8.656  11.335 -0.1399 -1.0020 -0.2038
 1006MOL0     C35739   3.783   8.757  11.372  0.1334 -0.3028 -0.4976
 1006MOL0     C35740   3.411   8.526  11.190 -0.5043  1.1792  0.4532
 1006MOL0     C35741   3.307   8.611  11.233 -0.3775 -0.7085 -0.1245
 1006MOL0     C35742   3.277   8.605  11.381 -0.0555  0.3272  0.0616
 1006MOL0     H35743   3.192   9.063  11.404  0.1812 -0.8949 -2.1412
 1006MOL0     H35744   3.021   9.227  11.489 -0.9274  1.3550 -0.7986
 1006MOL0     H35745   2.588   9.139  11.469 -1.6423  0.0315  1.6401
 1006MOL0     H35746   2.661   9.086  11.621 -1.2144 -0.7498 -0.6999
 1006MOL0     H35747   2.555   9.359  11.556 -0.2422 -0.5489 -1.3270
 1006MOL0     H35748   2.637   9.315  11.714  0.0732 -0.2291 -0.6076
 1006MOL0     H35749   2.376   9.195  11.649 -0.9926  0.1792 -0.4518
 1006MOL0     H35750   2.412   9.347  11.741 -1.0107 -0.6530 -0.4418
 1006MOL0     H35751   2.528   9.064  11.799  0.7179 -0.0621  0.2536
 1006MOL0     H35752   2.583   9.207  11.884 -0.4553 -0.3188 -0.3149
 1006MOL0     H35753   2.350   9.254  11.950 -0.2347  0.9256 -0.6881
 1006MOL0     H35754   2.318   9.082  11.885  2.6732  0.0337 -1.5247
 1006MOL0     H35755   2.367   9.043  12.127  1.7979 -2.2286 -0.0678
 1006MOL0     H35756   2.497   9.004  12.041 -1.3342 -1.4130  1.8182
 1006MOL0     H35757   2.427   9.264  12.183  0.3599  0.1587 -1.6253
 1006MOL0     H35758   2.583   9.263  12.110 -1.5687  2.7665 -0.7158
 1006MOL0     H35759   2.484   9.072  12.336 -0.0727 -0.0372 -0.1257
 1006MOL0     H35760   2.651   9.096  12.280 -0.3762  0.8904 -0.2761
 1006MOL0     H35761   2.738   9.375  12.318 -0.9277  1.3891  0.1650
 1006MOL0     H35762   2.673   9.650  12.416 -0.5584 -2.1302 -0.5545
 1006MOL0     H35763   2.561   9.638  12.542  0.1472  2.7750 -1.9321
 1006MOL0     H35764   2.857   9.588  12.581  1.3407 -1.4821  2.3393
 1006MOL0     H35765   2.739   9.682  12.681  1.4311  0.1868  0.1211
 1006MOL0     H35766   2.756   9.365  12.651 -2.3401 -0.4438  0.8572
 1006MOL0     H35767   2.647   9.457  12.746 -0.9276 -1.9571 -1.2204
 1006MOL0     H35768   2.824   9.577  12.865  2.7967  1.0588 -1.5354
 1006MOL0     H35769   2.937   9.495  12.778 -0.5679  2.1754 -1.5206
 1006MOL0     H35770   2.957   9.581  13.028 -0.6347  1.0855  1.8643
 1006MOL0     H35771   3.094   9.570  13.221  1.3545 -0.8062  2.1503
 1006MOL0     H35772   3.199   9.436  13.665  0.8442 -1.5992  1.6123
 1006MOL0     H35773   3.355   9.444  13.839 -1.9497  1.5268 -0.1219
 1006MOL0     H35774   3.523   9.375  13.979 -0.6190 -1.5251  0.6240
 1006MOL0     H35775   3.593   9.233  13.900  0.3740  1.0620  0.2929
 1006MOL0     H35776   3.717   9.272  14.089  3.3501 -2.3253 -1.8488
 1006MOL0     H35777   3.810   9.290  13.939 -0.2031  0.3902  0.9757
 1006MOL0     H35778   3.808   9.545  13.969  1.8844 -0.1460 -0.0382
 1006MOL0     H35779   3.718   9.528  14.122 -0.3903 -1.8865  0.3242
 1006MOL0     H35780   3.990   9.390  14.072 -2.8639 -3.0019  1.2156
 1006MOL0     H35781   3.897   9.386  14.216 -0.1790  0.4625  2.4685
 1006MOL0     H35782   3.910   9.642  14.224 -1.1173 -1.2314  0.7437
 1006MOL0     H35783   4.019   9.644  14.099  1.8601  2.3249  3.1794
 1006MOL0     H35784   4.021   9.518  14.378  3.5545 -3.0539  1.4415
 1006MOL0     H35785   4.146   9.481  14.258 -3.1991 -1.0285 -2.4302
 1006MOL0     H35786   4.075   9.768  14.337  0.9766  0.6497 -1.5987
 1006MOL0     H35787   4.203   9.717  14.226  1.8214 -1.8061  0.1786
 1006MOL0     H35788   4.177   9.708  14.541  0.2829  0.6466 -0.7896
 1006MOL0     H35789   4.286   9.594  14.438  1.2713  0.7485  0.7272
 1006MOL0     H35790   3.673   9.396  13.542  0.7405  0.8526  2.5660
 1006MOL0     H35791   3.506   9.424  13.374 -1.1644  3.2357 -0.6782
 1006MOL0     H35792   2.991   9.161  13.289 -0.9960 -1.0586 -1.0357
 1006MOL0     H35793   2.865   9.163  13.055  1.0341 -1.2710  1.0506
 1006MOL0     H35794   2.702   8.963  11.382  0.3829  3.7003 -3.2268
 1006MOL0     H35795   2.862   8.809  11.307 -0.6915  0.1698  1.6006
 1006MOL0     H35796   3.294   8.806  10.949  1.5660  2.7915  2.3538
 1006MOL0     H35797   3.463   8.656  10.879  1.2598 -1.6541  0.2937
 1006MOL0     H35798   3.675   8.605  11.138  0.1995 -2.3254  1.4630
 1006MOL0     H35799   3.721   8.615  10.967  0.3031 -0.7262 -0.8137
 1006MOL0     H35800   3.910   8.524  11.035 -0.8234  1.1963  0.5709
 1006MOL0     H35801   3.812   8.374  11.019 -1.0779  0.7179  0.4494
 1006MOL0     H35802   3.897   8.343  11.243  0.7351  0.4906 -0.6433
 1006MOL0     H35803   3.743   8.414  11.272 -0.2833 -1.4543 -1.4629
 1006MOL0     H35804   3.955   8.488  11.389  1.2797  2.0054  0.1793
 1006MOL0     H35805   4.011   8.567  11.240 -2.7102  2.5646 -2.2013
 1006MOL0     H35806   3.728   8.837  11.416  1.0889 -1.1775  2.5273
 1006MOL0     H35807   3.440   8.439  11.249 -0.9569  1.7187  1.5000
 1006MOL0     H35808   3.333   8.679  11.439  1.7414  1.1207 -2.4981
 1006MOL0     H35809   3.172   8.603  11.412  0.6022  1.9635  2.6968
 1006MOL0     H35810   3.302   8.504  11.416 -1.8015  0.8761  3.2960
 1007MOL0     O35811   4.429   3.855  10.609  0.0267  0.3370 -0.5652
 1007MOL0     C35812   4.469   3.741  10.644 -0.2120 -0.0295 -0.5287
 1007MOL0     O35813   4.550   3.713  10.761  0.4175  0.1148  0.1806
 1007MOL0     C35814   4.562   3.808  10.860 -0.7338 -0.7784 -0.1306
 1007MOL0     C35815   4.472   3.907  10.887  0.5197 -0.2794 -0.0330
 1007MOL0     C35816   4.501   4.006  10.986 -0.4443 -0.1487 -0.6686
 1007MOL0     C35817   4.632   4.006  11.045  0.6068  0.0265  0.0529
 1007MOL0     O35818   4.656   4.103  11.135 -0.2252  0.2002  0.1436
 1007MOL0     C35819   4.734   4.213  11.084 -0.7413 -0.5162 -0.1312
 1007MOL0     C35820   4.792   4.295  11.206  0.4572  0.4776 -0.0738
 1007MOL0     C35821   4.871   4.428  11.180 -0.8239  0.3714  0.3208
 1007MOL0     C35822   4.774   4.540  11.130 -0.0878 -0.2537 -0.0378
 1007MOL0     C35823   4.846   4.670  11.106  0.1382 -0.1196 -0.4096
 1007MOL0     C35824   4.932   4.665  10.982  0.1788 -0.5991  0.3691
 1007MOL0     C35825   4.982   4.800  10.928 -0.3865  0.0902  0.3529
 1007MOL0     C35826   5.069   4.879  11.026  0.3730  1.2236  0.0715
 1007MOL0     N35827   5.095   5.024  10.997 -0.0504 -0.0105 -0.3666
 1007MOL0     C35828   5.165   5.072  10.896 -0.2491 -0.2557  0.1785
 1007MOL0     C35829   5.144   5.208  10.890  0.2319 -0.2170 -0.0348
 1007MOL0     C35830   5.188   5.301  10.782  0.2352 -0.0525 -0.8977
 1007MOL0     C35831   5.325   5.358  10.836  0.2913 -0.1892  0.5515
 1007MOL0     C35832   5.390   5.482  10.764 -0.3086  0.0983 -1.2844
 1007MOL0     C35833   5.487   5.537  10.869 -0.0784  0.0135  0.1298
 1007MOL0     O35834   5.431   5.590  10.986 -0.6161  0.4491  0.0039
 1007MOL0     C35835   5.503   5.604  11.103 -1.6087  0.1056  0.6594
 1007MOL0     C35836   5.450   5.603  11.223  0.0637 -0.3426 -0.2473
 1007MOL0     C35837   5.528   5.618  11.342 -0.7336  0.5983  0.1932
 1007MOL0     C35838   5.668   5.637  11.332 -0.2538 -0.8963  0.1941
 1007MOL0     C35839   5.758   5.635  11.452  0.8749  0.6069 -0.0111
 1007MOL0     O35840   5.702   5.601  11.570 -0.3680  0.3916 -0.8921
 1007MOL0     C35841   5.768   5.615  11.686  0.9651 -0.1308  0.0843
 1007MOL0     C35842   5.698   5.677  11.795  0.1397  0.8151  0.8742
 1007MOL0     C35843   5.757   5.690  11.916  0.0607 -0.9466  0.9503
 1007MOL0     C35844   5.881   5.626  11.948  0.0583 -0.1627  0.8044
 1007MOL0     O35845   5.941   5.623  12.068  0.8275  0.3668  0.1125
 1007MOL0     C35846   5.870   5.656  12.192  0.4999  0.2255 -0.4219
 1007MOL0     C35847   5.934   5.608  12.321 -0.0820 -0.2103 -0.4447
 1007MOL0     C35848   5.863   5.480  12.374 -0.3033  0.2133 -0.5557
 1007MOL0     C35849   5.931   5.419  12.494  0.0050 -0.2204 -0.0319
 1007MOL0     C35850   5.910   5.492  12.625 -0.0532  0.5689 -0.9318
 1007MOL0     C35851   6.028   5.490  12.729  0.0665  0.0227 -0.2623
 1007MOL0     C35852   6.049   5.347  12.772 -0.2063  0.0174 -0.3933
 1007MOL0     C35853   6.134   5.339  12.898 -0.5377  0.8324 -0.1159
 1007MOL0    Cl35854   6.022   5.386  13.026 -0.5677 -0.4012 -0.2917
 1007MOL0     C35855   5.941   5.552  11.840  0.2355 -0.0897  1.0410
 1007MOL0     C35856   5.887   5.549  11.714 -0.1832 -0.1204  0.0923
 1007MOL0     O35857   5.865   5.688  11.434  0.2457 -0.6814  0.0960
 1007MOL0     C35858   5.725   5.641  11.204 -0.0212 -0.1688 -0.4163
 1007MOL0     C35859   5.644   5.619  11.095  0.1158 -0.1806 -0.2090
 1007MOL0     N35860   5.063   5.243  10.995  0.2076  0.2322  0.0896
 1007MOL0     N35861   5.028   5.133  11.055 -1.0290  1.3015 -0.3768
 1007MOL0     C35862   4.719   3.901  11.017 -0.8790  0.7158  0.0846
 1007MOL0     C35863   4.681   3.806  10.929 -1.1290  0.6641  0.3917
 1007MOL0     C35864   4.467   3.637  10.545 -0.1221 -1.2354 -0.7283
 1007MOL0     C35865   4.563   3.531  10.548  0.5666 -0.4146  0.1335
 1007MOL0     C35866   4.572   3.436  10.445 -0.6278 -0.5089 -0.6514
 1007MOL0     C35867   4.492   3.437  10.334 -0.1559  0.6278 -1.1010
 1007MOL0     O35868   4.520   3.342  10.231  0.9732 -0.4187 -0.2033
 1007MOL0     C35869   4.460   3.358  10.105  0.5790  1.1417 -0.1501
 1007MOL0     C35870   4.518   3.267   9.989  0.3897 -0.6116 -0.3557
 1007MOL0     C35871   4.513   3.117  10.019 -0.2195  0.2921 -0.5014
 1007MOL0     C35872   4.550   3.022   9.901 -0.7854  0.0289  1.0080
 1007MOL0     C35873   4.668   3.067   9.831 -0.0187 -0.1700 -0.0307
 1007MOL0     C35874   4.774   3.106   9.791  0.4426 -0.8532 -0.5871
 1007MOL0     C35875   4.390   3.538  10.332  1.2367  0.8539  0.8143
 1007MOL0     C35876   4.381   3.636  10.434  0.0390 -0.4207 -0.0943
 1007MOL0     C35877   4.262   3.729  10.436 -0.1457  0.5604 -0.5418
 1007MOL0     H35878   4.372   3.904  10.844  0.6378 -2.5583 -0.2922
 1007MOL0     H35879   4.425   4.076  11.017 -2.2584 -3.1856  2.5087
 1007MOL0     H35880   4.813   4.185  11.014 -2.2647  1.5196 -2.8746
 1007MOL0     H35881   4.680   4.286  11.024 -0.8475 -0.2445  0.2913
 1007MOL0     H35882   4.863   4.232  11.259  1.5410 -0.6388 -2.6646
 1007MOL0     H35883   4.718   4.318  11.284  1.0592  1.7471  0.1525
 1007MOL0     H35884   4.960   4.430  11.116  0.2929  2.0856  1.8224
 1007MOL0     H35885   4.911   4.458  11.277  1.5164 -1.1837 -0.0891
 1007MOL0     H35886   4.718   4.514  11.039  0.1356 -0.8421 -0.0080
 1007MOL0     H35887   4.690   4.549  11.199  0.4964 -2.1470  0.9825
 1007MOL0     H35888   4.768   4.746  11.093  0.0414  0.0264  0.8754
 1007MOL0     H35889   4.913   4.702  11.186 -2.6673 -0.7133  2.3958
 1007MOL0     H35890   5.014   4.599  11.010 -1.3382 -1.6986  2.5151
 1007MOL0     H35891   4.875   4.614  10.904 -1.9365  0.6986  0.9925
 1007MOL0     H35892   4.891   4.849  10.893 -1.1761  1.7421  4.2011
 1007MOL0     H35893   5.047   4.804  10.840  3.1691 -0.2693  2.7165
 1007MOL0     H35894   5.037   4.875  11.131  1.7128  1.3065  0.5025
 1007MOL0     H35895   5.165   4.828  11.035 -0.7561 -0.6204  4.3661
 1007MOL0     H35896   5.222   5.016  10.823  0.9134 -0.6837  1.3618
 1007MOL0     H35897   5.207   5.252  10.686 -0.2428 -2.6907  0.2594
 1007MOL0     H35898   5.119   5.384  10.765  1.9176  1.1890 -1.9971
 1007MOL0     H35899   5.302   5.389  10.938 -0.5996 -0.4088  0.4296
 1007MOL0     H35900   5.395   5.276  10.849  0.5818 -0.2137 -0.9414
 1007MOL0     H35901   5.313   5.558  10.750  0.8870  1.3405 -1.3088
 1007MOL0     H35902   5.445   5.451  10.675  3.5858  0.9559  0.6185
 1007MOL0     H35903   5.545   5.617  10.820 -2.4107  0.4199 -2.1996
 1007MOL0     H35904   5.552   5.452  10.891  0.5029  0.7096  1.1795
 1007MOL0     H35905   5.343   5.592  11.227  0.1644 -1.6564 -0.7671
 1007MOL0     H35906   5.476   5.615  11.437  1.4336 -3.5485  1.4817
 1007MOL0     H35907   5.599   5.716  11.776  0.9049  3.0981  1.2607
 1007MOL0     H35908   5.694   5.749  11.982 -0.0447  0.0657 -0.0314
 1007MOL0     H35909   5.869   5.765  12.204 -1.1134 -0.0380  3.0568
 1007MOL0     H35910   5.771   5.611  12.185 -0.0897  0.8728  2.5411
 1007MOL0     H35911   6.039   5.580  12.305 -0.3995 -0.2587 -2.9481
 1007MOL0     H35912   5.937   5.688  12.395  3.2009 -3.2432  3.1213
 1007MOL0     H35913   5.764   5.506  12.412  0.3407  1.6788  0.1872
 1007MOL0     H35914   5.853   5.403  12.297 -1.9411  0.2872 -0.4557
 1007MOL0     H35915   6.036   5.421  12.465 -0.5000 -2.2558 -2.3539
 1007MOL0     H35916   5.894   5.317  12.509  2.1314 -1.1870 -1.0195
 1007MOL0     H35917   5.814   5.466  12.670 -0.6315  0.8426 -1.9838
 1007MOL0     H35918   5.905   5.599  12.604 -0.5540  0.8639  0.5659
 1007MOL0     H35919   6.124   5.534  12.700  0.5624 -0.0037  1.2414
 1007MOL0     H35920   5.996   5.554  12.811 -3.7858 -1.4816 -0.3858
 1007MOL0     H35921   6.098   5.293  12.690  1.0867 -0.7519  0.8365
 1007MOL0     H35922   5.953   5.298  12.790 -0.5022  1.0898  1.0834
 1007MOL0     H35923   6.167   5.237  12.920 -1.3250  1.0769  2.5226
 1007MOL0     H35924   6.220   5.406  12.898  1.2068 -1.2924  0.2426
 1007MOL0     H35925   6.029   5.493  11.866 -0.0522 -0.6301  0.7903
 1007MOL0     H35926   5.928   5.497  11.628 -0.4368  1.2080 -0.8683
 1007MOL0     H35927   5.827   5.667  11.179 -0.2295  1.5879  0.4567
 1007MOL0     H35928   5.697   5.608  11.001 -0.1768 -1.8052 -0.2175
 1007MOL0     H35929   4.817   3.890  11.064 -1.5769  2.1347  2.0088
 1007MOL0     H35930   4.753   3.727  10.911 -2.5285 -0.1642 -1.9275
 1007MOL0     H35931   4.632   3.525  10.631  2.0019 -0.2020 -0.9890
 1007MOL0     H35932   4.643   3.356  10.460 -2.1072 -1.2347  3.7324
 1007MOL0     H35933   4.455   3.465  10.081 -1.8129  0.4862 -3.3533
 1007MOL0     H35934   4.356   3.324  10.119  1.1227 -0.7011 -0.3531
 1007MOL0     H35935   4.622   3.299   9.976 -0.1324  1.0776 -0.7289
 1007MOL0     H35936   4.476   3.299   9.893  0.9470 -0.1053 -0.4378
 1007MOL0     H35937   4.408   3.109  10.049 -0.6999  1.2100 -1.8724
 1007MOL0     H35938   4.585   3.099  10.100 -1.1538  1.0882  0.5317
 1007MOL0     H35939   4.549   2.920   9.941 -3.2365 -0.5453 -0.2943
 1007MOL0     H35940   4.466   3.038   9.833 -0.8343  0.6658  1.2115
 1007MOL0     H35941   4.869   3.138   9.753  0.8162 -0.6647  0.4670
 1007MOL0     H35942   4.322   3.542  10.247 -2.1266  1.0130  3.3234
 1007MOL0     H35943   4.306   3.828  10.419  1.9370 -0.4560 -1.3893
 1007MOL0     H35944   4.183   3.702  10.366 -2.8619  0.2382  2.4207
 1007MOL0     H35945   4.211   3.726  10.533 -0.4886 -2.3799 -0.7299
 1008MOL0     O35946   6.268   0.016  10.390 -0.2526 -0.2008 -0.6014
 1008MOL0     C35947   6.276  -0.056  10.486 -0.1131  0.0430  0.2479
 1008MOL0     O35948   6.373  -0.149  10.513 -0.1866 -0.0640 -0.1106
 1008MOL0     C35949   6.466  -0.169  10.418 -0.2019  0.5665 -0.2269
 1008MOL0     C35950   6.438  -0.257  10.313  0.1639 -0.3649  0.2651
 1008MOL0     C35951   6.537  -0.294  10.228 -0.8886  0.6383  0.0941
 1008MOL0     C35952   6.670  -0.255  10.250 -1.4574 -0.6586 -0.5217
 1008MOL0     O35953   6.764  -0.291  10.155  0.4657  0.0823  0.4158
 1008MOL0     C35954   6.796  -0.432  10.142  0.1684  0.0388 -0.2742
 1008MOL0     C35955   6.944  -0.434  10.199  0.5271  0.3269 -0.0983
 1008MOL0     C35956   7.029  -0.559  10.157 -0.4221  0.2013 -0.3295
 1008MOL0     C35957   7.157  -0.558  10.240  0.3241 -0.7239  0.4838
 1008MOL0     C35958   7.216  -0.701  10.242 -0.2841 -0.8886 -0.3312
 1008MOL0     C35959   7.365  -0.704  10.281 -0.2166  0.7070 -0.5527
 1008MOL0     C35960   7.427  -0.840  10.246  0.5213  0.4074 -0.8290
 1008MOL0     C35961   7.544  -0.890  10.345  0.2327  0.2319  0.7382
 1008MOL0     N35962   7.654  -0.802  10.342 -0.5047 -0.0550  0.0176
 1008MOL0     C35963   7.675  -0.696  10.424  0.7390 -0.2560  0.0109
 1008MOL0     C35964   7.799  -0.655  10.397 -0.2221 -1.1277  0.5780
 1008MOL0     C35965   7.871  -0.551  10.485 -0.0031  0.3801 -0.0207
 1008MOL0     C35966   7.974  -0.612  10.587  0.1473 -0.6674 -0.8410
 1008MOL0     C35967   8.018  -0.505  10.697 -0.5376  0.6263 -0.1906
 1008MOL0     C35968   8.146  -0.542  10.766 -0.6226 -0.7084 -1.7779
 1008MOL0     O35969   8.139  -0.649  10.856 -0.0318  0.1546 -0.2814
 1008MOL0     C35970   8.236  -0.692  10.940 -0.0281 -0.0896  1.2515
 1008MOL0     C35971   8.366  -0.634  10.953 -0.2437  0.6481  0.1298
 1008MOL0     C35972   8.471  -0.704  11.013 -0.3665 -0.0309  0.6414
 1008MOL0     C35973   8.447  -0.831  11.069 -0.8251 -0.8070 -0.9436
 1008MOL0     C35974   8.558  -0.907  11.146  0.3612  0.1247  0.0228
 1008MOL0     O35975   8.515  -1.005  11.229  0.0949 -0.6746 -0.7622
 1008MOL0     C35976   8.618  -1.088  11.265  0.3836  0.1514  0.5314
 1008MOL0     C35977   8.624  -1.218  11.210  0.5531 -0.7419 -0.2258
 1008MOL0     C35978   8.717  -1.306  11.270  0.8486 -1.2239 -0.0559
 1008MOL0     C35979   8.807  -1.270  11.368 -0.1584 -0.6183  0.9351
 1008MOL0     O35980   8.891  -1.370  11.416 -0.9384  0.3516  0.8327
 1008MOL0     C35981   9.006  -1.331  11.502 -0.2088  0.5200  0.5807
 1008MOL0     C35982   9.081  -1.463  11.521 -0.0128 -0.2721 -0.1125
 1008MOL0     C35983   9.210  -1.433  11.608  0.1360  1.2197  0.0185
 1008MOL0     C35984   9.270  -1.559  11.671 -0.4111  0.6530 -1.4900
 1008MOL0     C35985   9.400  -1.520  11.750 -0.8487  0.1893  0.6745
 1008MOL0     C35986   9.513  -1.519  11.658 -0.5143 -0.8021  0.5461
 1008MOL0     C35987   9.644  -1.495  11.730 -0.1940  0.2393 -0.6776
 1008MOL0     C35988   9.697  -1.347  11.752 -0.1251 -0.4108 -0.1090
 1008MOL0    Cl35989   9.591  -1.286  11.881 -0.0717 -0.1951 -0.4227
 1008MOL0     C35990   8.800  -1.138  11.422  0.2810 -0.2499 -0.1319
 1008MOL0     C35991   8.699  -1.046  11.369 -1.1345 -0.2522  0.1177
 1008MOL0     O35992   8.666  -0.900  11.104 -0.4964  0.3513  0.5603
 1008MOL0     C35993   8.321  -0.884  11.056  0.5136  0.4741  0.7754
 1008MOL0     C35994   8.219  -0.815  10.992  0.3892 -0.2063 -0.3565
 1008MOL0     N35995   7.855  -0.746  10.305  0.0889 -0.4167  0.6384
 1008MOL0     N35996   7.761  -0.817  10.259  0.4134 -0.0010  0.4131
 1008MOL0     C35997   6.704  -0.159  10.338 -0.1577 -0.2067 -0.4530
 1008MOL0     C35998   6.600  -0.117  10.431 -0.0557  0.4602  0.0014
 1008MOL0     C35999   6.155  -0.054  10.572  0.0363  1.1343  0.3640
 1008MOL0     C36000   6.087   0.070  10.594 -0.3582  0.4284  0.7518
 1008MOL0     C36001   5.969   0.076  10.669  0.3173 -0.2485 -0.2280
 1008MOL0     C36002   5.912  -0.039  10.717  1.5357 -0.3275 -0.4975
 1008MOL0     O36003   5.799  -0.041  10.786  0.9514  0.6498  0.4527
 1008MOL0     C36004   5.676  -0.012  10.711 -0.1256  0.8353 -0.6031
 1008MOL0     C36005   5.546   0.024  10.789 -0.1605  0.4117  0.3345
 1008MOL0     C36006   5.527  -0.065  10.910 -0.1625 -0.1194 -0.6640
 1008MOL0     C36007   5.393  -0.027  10.983 -0.8399  0.0219 -1.1456
 1008MOL0     C36008   5.269  -0.068  10.905  0.6892  0.1035 -0.0231
 1008MOL0     C36009   5.177  -0.092  10.824  0.0744  0.4135 -0.7200
 1008MOL0     C36010   5.980  -0.160  10.700  0.7453 -0.3080  0.0490
 1008MOL0     C36011   6.106  -0.170  10.630  0.6256  0.3573 -0.2171
 1008MOL0     C36012   6.177  -0.304  10.621  0.8964 -0.2578 -0.1716
 1008MOL0     H36013   6.339  -0.297  10.293  0.7904 -1.6234 -0.4502
 1008MOL0     H36014   6.511  -0.369  10.154 -1.1486 -0.4290  1.2150
 1008MOL0     H36015   6.721  -0.497  10.188  2.4582 -3.1507 -0.6976
 1008MOL0     H36016   6.806  -0.450  10.034  0.9126  0.6938 -0.3197
 1008MOL0     H36017   6.929  -0.421  10.307  1.3145  3.5894 -0.2734
 1008MOL0     H36018   6.997  -0.345  10.164  0.3390  0.5150  0.0960
 1008MOL0     H36019   7.047  -0.562  10.050 -1.6108 -1.3231 -0.5133
 1008MOL0     H36020   6.974  -0.651  10.179 -0.5700 -0.4214 -3.0552
 1008MOL0     H36021   7.229  -0.499  10.182 -1.4694 -1.5751 -2.8234
 1008MOL0     H36022   7.135  -0.517  10.339 -2.7138  1.8707 -1.1039
 1008MOL0     H36023   7.155  -0.769  10.302 -0.2382 -0.7673 -0.1454
 1008MOL0     H36024   7.218  -0.733  10.138  0.3717  0.3492 -0.7244
 1008MOL0     H36025   7.426  -0.624  10.236  0.8948  0.4873  0.5084
 1008MOL0     H36026   7.383  -0.688  10.388  3.0560  1.7105 -1.1338
 1008MOL0     H36027   7.457  -0.853  10.142 -2.4236 -1.6139 -1.5676
 1008MOL0     H36028   7.345  -0.910  10.266 -0.4129  1.3654 -1.2161
 1008MOL0     H36029   7.518  -0.903  10.451  1.3850  0.2964  1.0440
 1008MOL0     H36030   7.567  -0.989  10.304 -0.1243  0.1436  0.7486
 1008MOL0     H36031   7.600  -0.660  10.493 -1.6077 -0.2278 -2.3982
 1008MOL0     H36032   7.927  -0.483  10.421  2.7299 -1.9645 -0.3262
 1008MOL0     H36033   7.797  -0.483  10.530  1.2582  0.9125  1.3287
 1008MOL0     H36034   7.925  -0.696  10.637  1.5331 -1.5791 -0.9669
 1008MOL0     H36035   8.065  -0.651  10.541  3.2980  2.6612  1.9918
 1008MOL0     H36036   7.944  -0.496  10.778 -0.3186 -1.4205  0.3127
 1008MOL0     H36037   8.029  -0.403  10.661  0.7039  1.0704  1.3315
 1008MOL0     H36038   8.185  -0.459  10.825 -2.5828 -0.5616 -0.5715
 1008MOL0     H36039   8.225  -0.560  10.693 -0.5881  1.7471 -2.4157
 1008MOL0     H36040   8.380  -0.528  10.934 -3.9290  1.9065  3.0754
 1008MOL0     H36041   8.571  -0.665  11.021 -0.0785 -0.2059 -1.5872
 1008MOL0     H36042   8.555  -1.247  11.132 -0.5114  1.0697  0.0028
 1008MOL0     H36043   8.710  -1.409  11.237  2.5021 -1.4201  0.0813
 1008MOL0     H36044   9.057  -1.258  11.438 -2.2334  1.3152 -0.2026
 1008MOL0     H36045   8.977  -1.293  11.600  0.2098  0.4788  0.7236
 1008MOL0     H36046   9.009  -1.539  11.554 -0.5224  0.5396  0.6724
 1008MOL0     H36047   9.105  -1.500  11.421  3.7749 -2.1010  1.2926
 1008MOL0     H36048   9.280  -1.399  11.531 -1.2150 -1.4346 -2.6032
 1008MOL0     H36049   9.207  -1.359  11.689  1.6969  0.9473  0.3579
 1008MOL0     H36050   9.279  -1.644  11.603 -0.4868 -0.0861 -0.5968
 1008MOL0     H36051   9.204  -1.603  11.747  0.9363  0.4963 -0.3664
 1008MOL0     H36052   9.398  -1.604  11.821  2.6630 -1.8347 -1.3555
 1008MOL0     H36053   9.396  -1.423  11.801  0.0551  0.6012 -0.0146
 1008MOL0     H36054   9.519  -1.620  11.617  1.4835 -0.7755  0.6564
 1008MOL0     H36055   9.504  -1.436  11.587 -2.7206  0.5710  2.3047
 1008MOL0     H36056   9.718  -1.549  11.670  1.6345  2.1735 -0.2728
 1008MOL0     H36057   9.646  -1.538  11.830  0.4001  4.9617  1.6439
 1008MOL0     H36058   9.802  -1.338  11.780 -0.1084 -0.9534  0.0126
 1008MOL0     H36059   9.667  -1.275  11.675  0.4678  0.0112  0.0500
 1008MOL0     H36060   8.856  -1.093  11.504 -2.1357  1.7744  0.5626
 1008MOL0     H36061   8.695  -0.944  11.405 -1.8873 -0.0201 -0.5905
 1008MOL0     H36062   8.292  -0.983  11.091 -0.8934  0.5670 -0.0554
 1008MOL0     H36063   8.126  -0.871  10.993  1.1169 -1.4575  1.3760
 1008MOL0     H36064   6.808  -0.126  10.338  0.0387 -0.5992  1.8803
 1008MOL0     H36065   6.619  -0.046  10.511  0.8149 -1.7607  1.8449
 1008MOL0     H36066   6.127   0.158  10.544 -2.8776  0.3546 -1.6665
 1008MOL0     H36067   5.921   0.172  10.685  0.2369 -0.1846 -0.8100
 1008MOL0     H36068   5.649  -0.098  10.648  1.0081 -0.1501  0.2257
 1008MOL0     H36069   5.695   0.076  10.650 -0.6500 -0.1621 -2.2711
 1008MOL0     H36070   5.458   0.038  10.725 -0.5743  1.8971  1.2012
 1008MOL0     H36071   5.544   0.124  10.832 -0.2459  0.2597  0.6826
 1008MOL0     H36072   5.612  -0.047  10.976  0.0902 -0.2975 -0.9374
 1008MOL0     H36073   5.541  -0.170  10.882  1.6508  0.0166 -0.3806
 1008MOL0     H36074   5.383  -0.084  11.075  0.3819  1.5953  0.0172
 1008MOL0     H36075   5.385   0.076  11.021  4.5808  1.6399 -3.4372
 1008MOL0     H36076   5.105  -0.100  10.745 -0.0882  1.8185 -0.7392
 1008MOL0     H36077   5.936  -0.243  10.755 -2.4388  2.6757  2.4884
 1008MOL0     H36078   6.119  -0.382  10.671 -1.3689 -0.2754 -2.6013
 1008MOL0     H36079   6.191  -0.328  10.515 -3.2498 -0.3293 -0.8488
 1008MOL0     H36080   6.272  -0.301  10.674  0.3551  0.2871  0.7889
 1009MOL0     O36081   6.122   2.127   0.493  0.1825 -0.4595  0.1268
 1009MOL0     C36082   6.165   2.015   0.462 -0.8373  0.0791 -0.4992
 1009MOL0     O36083   6.279   1.993   0.397 -0.0453  0.2053  0.0736
 1009MOL0     C36084   6.364   2.103   0.360 -0.9891  0.0022 -0.8053
 1009MOL0     C36085   6.325   2.233   0.311  1.0934  1.0430 -0.3406
 1009MOL0     C36086   6.418   2.335   0.281  0.2438 -0.1772 -0.5531
 1009MOL0     C36087   6.548   2.313   0.312 -0.5775 -0.0762 -0.2761
 1009MOL0     O36088   6.648   2.410   0.284  0.2265  0.0050  0.0135
 1009MOL0     C36089   6.712   2.395   0.160 -0.3780  0.5245 -0.1001
 1009MOL0     C36090   6.861   2.439   0.164 -0.3841  0.4584  0.2935
 1009MOL0     C36091   6.874   2.583   0.192  0.6139 -0.5817 -0.1520
 1009MOL0     C36092   7.016   2.633   0.187  0.4296 -0.5067 -0.1865
 1009MOL0     C36093   7.088   2.624   0.057 -0.3722  0.2965  0.1945
 1009MOL0     C36094   7.232   2.668   0.078  0.3537  0.7209 -0.1172
 1009MOL0     C36095   7.299   2.653  -0.064  0.1122  1.3501  0.6202
 1009MOL0     C36096   7.438   2.699  -0.076 -0.1841  0.4521  0.4812
 1009MOL0     N36097   7.532   2.597  -0.028 -0.8701  0.1254 -0.3534
 1009MOL0     C36098   7.642   2.633   0.059 -0.3963  0.1076 -0.9691
 1009MOL0     C36099   7.709   2.521   0.089  0.7748  0.4646 -0.1065
 1009MOL0     C36100   7.818   2.518   0.196  0.0769  0.5627  0.6950
 1009MOL0     C36101   7.956   2.492   0.139 -0.1187 -0.5277 -0.5630
 1009MOL0     C36102   8.028   2.608   0.076  0.5654 -0.9221  0.1690
 1009MOL0     C36103   8.176   2.589   0.058 -0.1067  0.3854  0.2465
 1009MOL0     O36104   8.193   2.478  -0.022  0.6722 -0.1424 -0.4616
 1009MOL0     C36105   8.320   2.443  -0.065  0.3320  0.7734 -0.1429
 1009MOL0     C36106   8.325   2.326  -0.146 -0.4157 -0.2903 -0.1084
 1009MOL0     C36107   8.445   2.272  -0.195  0.2129 -0.4788  1.2905
 1009MOL0     C36108   8.559   2.351  -0.186 -0.1940 -0.2598  0.3893
 1009MOL0     C36109   8.681   2.312  -0.269  0.6236  0.5955  0.1085
 1009MOL0     O36110   8.760   2.409  -0.333  0.2987 -0.0805  0.7350
 1009MOL0     C36111   8.857   2.365  -0.422 -0.1164 -0.8765  0.2110
 1009MOL0     C36112   8.982   2.404  -0.402 -0.0775 -0.0909  0.1674
 1009MOL0     C36113   9.075   2.380  -0.505 -0.0145 -0.2634 -0.1134
 1009MOL0     C36114   9.037   2.318  -0.627 -0.0290 -0.2315  0.4566
 1009MOL0     O36115   9.121   2.290  -0.734 -0.3212  0.2460  0.5583
 1009MOL0     C36116   9.252   2.356  -0.733 -0.8154 -0.4319  0.5030
 1009MOL0     C36117   9.321   2.346  -0.877  0.1539 -0.8338  0.2249
 1009MOL0     C36118   9.452   2.261  -0.872  0.0142  0.2121  1.0632
 1009MOL0     C36119   9.565   2.302  -0.971  0.1131  0.4915 -0.0669
 1009MOL0     C36120   9.514   2.291  -1.113  0.3122  0.2625 -0.0518
 1009MOL0     C36121   9.605   2.382  -1.200 -0.0046  0.0989  0.6746
 1009MOL0     C36122   9.753   2.375  -1.186 -0.1038 -0.0009 -0.0106
 1009MOL0     C36123   9.822   2.447  -1.304 -0.1008 -0.3246  0.2956
 1009MOL0    Cl36124  10.003   2.487  -1.280  0.1094  0.2374  0.7733
 1009MOL0     C36125   8.906   2.254  -0.633  0.1637 -1.1977  0.2120
 1009MOL0     C36126   8.818   2.279  -0.530 -0.7938 -0.3061  0.2121
 1009MOL0     O36127   8.686   2.193  -0.297 -0.1944  0.0822 -0.5555
 1009MOL0     C36128   8.559   2.460  -0.108  0.6657  0.1158 -0.0117
 1009MOL0     C36129   8.447   2.506  -0.036  0.0405  0.6359  0.1592
 1009MOL0     N36130   7.643   2.417   0.016 -0.1384 -0.2018 -0.0438
 1009MOL0     N36131   7.537   2.466  -0.049  0.0624  0.0100  0.2049
 1009MOL0     C36132   6.590   2.190   0.360 -0.5313 -0.2309  0.5071
 1009MOL0     C36133   6.507   2.079   0.367 -0.1370 -0.7527 -0.4855
 1009MOL0     C36134   6.089   1.892   0.504 -0.6452  0.2213  0.0700
 1009MOL0     C36135   6.143   1.809   0.603  0.6667  0.6832  0.3837
 1009MOL0     C36136   6.066   1.711   0.661 -0.7599 -0.0632 -0.9357
 1009MOL0     C36137   5.930   1.698   0.629 -0.1980 -0.1606  0.6853
 1009MOL0     O36138   5.868   1.601   0.705 -0.5813  0.5142 -0.0893
 1009MOL0     C36139   5.727   1.580   0.673 -0.3958 -0.1684 -0.2970
 1009MOL0     C36140   5.631   1.656   0.774  0.1482 -0.7325  0.1289
 1009MOL0     C36141   5.640   1.809   0.760  0.8154  0.2113  0.4678
 1009MOL0     C36142   5.522   1.872   0.826  0.9227 -0.8685 -0.4917
 1009MOL0     C36143   5.409   1.874   0.732  0.1224  0.4763 -0.2100
 1009MOL0     C36144   5.317   1.853   0.653  0.9806 -0.3851 -0.7954
 1009MOL0     C36145   5.879   1.785   0.528  0.3393 -0.0964 -0.1777
 1009MOL0     C36146   5.956   1.885   0.459 -0.0895  0.4089  0.4695
 1009MOL0     C36147   5.888   1.977   0.353  0.1252  0.3233 -0.3312
 1009MOL0     H36148   6.219   2.247   0.291  0.6524  0.1667  1.2408
 1009MOL0     H36149   6.387   2.433   0.247  0.1867 -0.7519 -2.2554
 1009MOL0     H36150   6.705   2.290   0.130  1.1843  1.1487 -3.0586
 1009MOL0     H36151   6.663   2.453   0.081 -1.3946 -0.3765 -0.1540
 1009MOL0     H36152   6.898   2.419   0.063 -0.4767  0.4754  0.2554
 1009MOL0     H36153   6.906   2.374   0.239  0.5096 -0.1259 -0.7183
 1009MOL0     H36154   6.815   2.603   0.282 -0.7289  1.2195 -1.3369
 1009MOL0     H36155   6.815   2.633   0.114  3.4876 -0.6483 -2.5569
 1009MOL0     H36156   7.023   2.739   0.211 -0.2547  0.2376 -2.9825
 1009MOL0     H36157   7.073   2.569   0.255  2.6941 -3.7834 -4.5985
 1009MOL0     H36158   7.092   2.521   0.021  3.3032  0.1645  0.6157
 1009MOL0     H36159   7.041   2.692  -0.015  1.8311  1.9394  0.1951
 1009MOL0     H36160   7.233   2.772   0.113 -2.2598  0.7240  0.1592
 1009MOL0     H36161   7.277   2.591   0.141  2.0016  1.2093 -0.6424
 1009MOL0     H36162   7.250   2.705  -0.147 -1.7390 -1.6536 -0.3279
 1009MOL0     H36163   7.280   2.547  -0.087 -2.3442  0.9949  3.6632
 1009MOL0     H36164   7.459   2.723  -0.180 -0.5124  1.0617  0.5486
 1009MOL0     H36165   7.450   2.793  -0.022 -1.7885  2.2714 -2.0958
 1009MOL0     H36166   7.672   2.734   0.088  0.6450 -0.0366 -1.4926
 1009MOL0     H36167   7.819   2.619   0.238 -0.4012  0.0822  1.9282
 1009MOL0     H36168   7.791   2.443   0.272 -1.5878  0.2906 -0.1242
 1009MOL0     H36169   8.021   2.457   0.220  2.3888 -1.6767 -2.8790
 1009MOL0     H36170   7.944   2.415   0.062 -1.0366 -0.8672 -0.0986
 1009MOL0     H36171   8.003   2.697   0.135  1.0927 -0.5990 -0.0877
 1009MOL0     H36172   7.991   2.620  -0.026  0.8471 -0.1704  0.1499
 1009MOL0     H36173   8.222   2.566   0.155 -1.2787  0.7580  0.9149
 1009MOL0     H36174   8.217   2.678   0.011  0.3212  0.7233  1.2192
 1009MOL0     H36175   8.232   2.271  -0.158 -0.8017  0.1920  0.6082
 1009MOL0     H36176   8.434   2.186  -0.261 -3.4159  0.3757  0.5703
 1009MOL0     H36177   9.001   2.477  -0.324 -2.7826  0.2712  0.5671
 1009MOL0     H36178   9.177   2.417  -0.498  1.4137 -3.8387 -0.0798
 1009MOL0     H36179   9.222   2.460  -0.720  0.1453 -0.0250 -0.3873
 1009MOL0     H36180   9.326   2.332  -0.657 -0.1345 -3.0014 -0.8375
 1009MOL0     H36181   9.248   2.314  -0.952  0.5804  1.4129 -1.2537
 1009MOL0     H36182   9.347   2.443  -0.921  0.8283 -0.5376  1.2250
 1009MOL0     H36183   9.492   2.260  -0.770 -1.7872 -4.3244  1.9457
 1009MOL0     H36184   9.440   2.156  -0.898 -1.5279  0.7182 -0.4919
 1009MOL0     H36185   9.659   2.251  -0.951 -1.9584 -2.5440  3.0209
 1009MOL0     H36186   9.584   2.409  -0.955  2.8233 -0.1958  1.9192
 1009MOL0     H36187   9.410   2.320  -1.127  0.6683  2.3484  1.2100
 1009MOL0     H36188   9.526   2.183  -1.125  2.1289  0.1350  2.2028
 1009MOL0     H36189   9.580   2.361  -1.305  1.7824  1.4071 -0.0629
 1009MOL0     H36190   9.567   2.483  -1.182  2.9454  1.3024  0.6740
 1009MOL0     H36191   9.787   2.271  -1.193 -0.5985 -0.0701 -5.1738
 1009MOL0     H36192   9.769   2.416  -1.086 -0.8107 -5.8582  2.9395
 1009MOL0     H36193   9.829   2.383  -1.392 -2.9705  1.8814 -1.7034
 1009MOL0     H36194   9.765   2.537  -1.329 -2.7272 -1.8559  0.3123
 1009MOL0     H36195   8.879   2.200  -0.722 -1.0077 -3.7804  2.0170
 1009MOL0     H36196   8.720   2.239  -0.555  0.0990 -3.0593  0.8217
 1009MOL0     H36197   8.650   2.516  -0.093  0.5031  0.1645  0.8465
 1009MOL0     H36198   8.461   2.586   0.035  2.7786 -1.0692  1.7298
 1009MOL0     H36199   6.694   2.169   0.385 -1.6766 -1.7194  4.9216
 1009MOL0     H36200   6.533   1.980   0.402  1.7940  0.1393  0.7652
 1009MOL0     H36201   6.244   1.828   0.638  1.5936  0.4525 -1.9614
 1009MOL0     H36202   6.114   1.661   0.745  1.1211  0.3162 -1.7207
 1009MOL0     H36203   5.709   1.473   0.677 -1.5475 -0.0665 -1.7218
 1009MOL0     H36204   5.706   1.604   0.568  2.9405 -0.0506 -1.0440
 1009MOL0     H36205   5.646   1.627   0.879  0.5545  2.4331  1.0357
 1009MOL0     H36206   5.527   1.630   0.751 -1.0000  1.1816  2.7313
 1009MOL0     H36207   5.639   1.843   0.656 -0.6523  1.1719  0.7657
 1009MOL0     H36208   5.735   1.845   0.800  0.3061  1.2022  0.8092
 1009MOL0     H36209   5.493   1.824   0.920  2.0997  1.1257  0.9520
 1009MOL0     H36210   5.551   1.971   0.860 -0.3277 -1.2635  1.9304
 1009MOL0     H36211   5.236   1.823   0.590 -2.6564  2.5727  1.9667
 1009MOL0     H36212   5.773   1.781   0.504 -0.9359  0.2748  4.4120
 1009MOL0     H36213   5.779   1.964   0.359 -0.4730  4.4483  0.2879
 1009MOL0     H36214   5.918   2.081   0.362 -0.4827  0.5187 -0.4945
 1009MOL0     H36215   5.914   1.937   0.254 -2.3926 -3.9634  0.4526
 1010MOL0     O36216   4.262   9.244   0.223  0.4842  0.4154  0.4785
 1010MOL0     C36217   4.322   9.318   0.144 -0.9141  0.2029  0.5059
 1010MOL0     O36218   4.261   9.403   0.052  0.3939 -0.2749 -0.6920
 1010MOL0     C36219   4.126   9.391   0.029  0.4228 -0.5582 -0.0943
 1010MOL0     C36220   4.023   9.393   0.122  0.5129 -0.6850  0.5180
 1010MOL0     C36221   3.889   9.374   0.086 -0.2864  1.2625  0.8214
 1010MOL0     C36222   3.849   9.356  -0.047  0.0643 -0.6704 -0.2762
 1010MOL0     O36223   3.717   9.337  -0.084  0.4082 -0.9579  0.6449
 1010MOL0     C36224   3.626   9.296   0.016  0.3649  0.2461  0.2791
 1010MOL0     C36225   3.492   9.265  -0.046 -0.5873 -0.3649 -0.2399
 1010MOL0     C36226   3.462   9.122  -0.110 -0.6451  0.5200 -0.1302
 1010MOL0     C36227   3.579   9.090  -0.216  0.4896 -0.5169  0.0548
 1010MOL0     C36228   3.565   8.952  -0.284 -0.5238 -0.4253  0.0354
 1010MOL0     C36229   3.664   8.947  -0.412 -0.2588 -0.4820 -0.2311
 1010MOL0     C36230   3.810   9.002  -0.384  0.3283 -0.3344  1.2643
 1010MOL0     C36231   3.890   8.937  -0.268  0.2459  0.2307  0.2578
 1010MOL0     N36232   4.037   8.963  -0.244 -0.1048  0.5479  0.2437
 1010MOL0     C36233   4.106   8.917  -0.135 -0.3314  0.8166 -0.3791
 1010MOL0     C36234   4.228   8.981  -0.159  0.4543  0.3407  0.0518
 1010MOL0     C36235   4.349   8.983  -0.058  0.9245 -0.3255 -0.0505
 1010MOL0     C36236   4.481   9.024  -0.126  0.6138  0.8445  0.6221
 1010MOL0     C36237   4.539   8.895  -0.169 -0.6137  0.0170  0.1557
 1010MOL0     C36238   4.646   8.910  -0.271  0.2142  0.2676 -0.1680
 1010MOL0     O36239   4.746   8.994  -0.208  1.0309  0.1779  0.5921
 1010MOL0     C36240   4.834   9.068  -0.282 -0.3401  0.6489  0.2379
 1010MOL0     C36241   4.917   9.157  -0.205 -0.1036  0.2691 -0.2108
 1010MOL0     C36242   5.030   9.219  -0.272 -0.2960 -0.7001  0.5508
 1010MOL0     C36243   5.050   9.199  -0.412 -0.4750  0.0764 -0.3728
 1010MOL0     C36244   5.170   9.258  -0.473 -0.5202 -0.0381  0.3243
 1010MOL0     O36245   5.163   9.279  -0.611  0.3675 -1.0706 -0.5204
 1010MOL0     C36246   5.273   9.331  -0.666  0.5485 -0.7334  1.7154
 1010MOL0     C36247   5.404   9.273  -0.668 -0.1318 -0.3146  0.3954
 1010MOL0     C36248   5.504   9.324  -0.757 -0.9796 -1.0580 -0.5337
 1010MOL0     C36249   5.472   9.424  -0.854  0.3202  0.3414 -0.1630
 1010MOL0     O36250   5.546   9.475  -0.956  0.0083  0.3627 -0.3659
 1010MOL0     C36251   5.677   9.433  -0.953 -0.0247 -0.0272  0.0998
 1010MOL0     C36252   5.749   9.468  -1.091  0.1092  0.0276 -0.7214
 1010MOL0     C36253   5.902   9.445  -1.086  0.3840  0.4394  0.2222
 1010MOL0     C36254   5.954   9.318  -1.157 -0.1224  0.7855 -0.0869
 1010MOL0     C36255   5.927   9.328  -1.305  0.2275 -0.3800  0.6131
 1010MOL0     C36256   6.020   9.266  -1.418  1.2662  0.6726 -0.5556
 1010MOL0     C36257   6.168   9.305  -1.401  0.0341  0.2294  0.1427
 1010MOL0     C36258   6.266   9.215  -1.481 -0.6746  0.2563  0.1710
 1010MOL0    Cl36259   6.232   9.244  -1.647 -0.1277  0.0972  0.4284
 1010MOL0     C36260   5.345   9.473  -0.855  0.2509 -0.0547 -0.2106
 1010MOL0     C36261   5.247   9.425  -0.768 -0.4329  0.6665 -0.2482
 1010MOL0     O36262   5.259   9.282  -0.399 -0.2012 -0.0222 -0.2771
 1010MOL0     C36263   4.969   9.117  -0.480 -0.0785  0.3650 -0.8946
 1010MOL0     C36264   4.861   9.050  -0.422 -0.2996 -0.5394 -0.0356
 1010MOL0     N36265   4.226   9.060  -0.272 -0.0494 -0.1626 -0.0422
 1010MOL0     N36266   4.107   9.053  -0.324  0.1234 -0.6525 -0.8130
 1010MOL0     C36267   3.949   9.357  -0.150  1.3438  0.1552 -0.2891
 1010MOL0     C36268   4.082   9.377  -0.110  0.1395 -0.3404  0.4920
 1010MOL0     C36269   4.473   9.301   0.139 -0.0109 -0.0723 -0.6972
 1010MOL0     C36270   4.541   9.238   0.252  0.2027 -0.0076 -0.2738
 1010MOL0     C36271   4.685   9.219   0.255 -0.4274  0.1544  0.4032
 1010MOL0     C36272   4.763   9.262   0.140  0.8274  1.1128 -0.3782
 1010MOL0     O36273   4.898   9.259   0.123 -0.5305 -0.0425  0.2305
 1010MOL0     C36274   4.981   9.225   0.231  0.9484  0.2619 -1.1805
 1010MOL0     C36275   5.133   9.246   0.215 -0.3495 -0.4809  0.8258
 1010MOL0     C36276   5.199   9.122   0.138 -0.3627  0.3854  0.1295
 1010MOL0     C36277   5.346   9.157   0.120  0.8933 -0.0528  1.1626
 1010MOL0     C36278   5.425   9.044   0.074 -0.2506 -1.0392 -0.6383
 1010MOL0     C36279   5.486   8.952   0.024  0.3979 -0.5079  0.2114
 1010MOL0     C36280   4.688   9.325   0.036  0.5561  0.2130  0.0674
 1010MOL0     C36281   4.556   9.345   0.032  0.8300 -0.2116 -0.7780
 1010MOL0     C36282   4.509   9.389  -0.098 -0.2087  0.7226 -0.1085
 1010MOL0     H36283   4.060   9.420   0.221  2.1441 -0.4965 -0.1152
 1010MOL0     H36284   3.812   9.383   0.162 -0.9502 -2.3979  0.7586
 1010MOL0     H36285   3.663   9.209   0.072 -0.0268  0.7127  1.2764
 1010MOL0     H36286   3.615   9.383   0.081  1.1338  2.2383 -2.1261
 1010MOL0     H36287   3.475   9.338  -0.126  0.2379 -0.3179 -0.3894
 1010MOL0     H36288   3.431   9.277   0.043  1.5787  1.9009  1.0669
 1010MOL0     H36289   3.364   9.115  -0.158 -0.9530 -3.0159  0.7791
 1010MOL0     H36290   3.466   9.044  -0.034  4.4871  0.2068 -0.3803
 1010MOL0     H36291   3.580   9.167  -0.295 -0.4918 -0.6656 -0.1076
 1010MOL0     H36292   3.675   9.092  -0.163  0.1033 -0.1875  0.7496
 1010MOL0     H36293   3.588   8.865  -0.222  0.4405 -1.8637 -2.2346
 1010MOL0     H36294   3.466   8.933  -0.327  0.4713 -0.1353 -2.5748
 1010MOL0     H36295   3.656   8.842  -0.442 -2.6310 -0.6013  0.5828
 1010MOL0     H36296   3.620   8.991  -0.502  0.0402  0.3079  0.0007
 1010MOL0     H36297   3.810   9.111  -0.374  3.0993 -0.2533  1.0951
 1010MOL0     H36298   3.878   8.982  -0.467  2.1021  1.7351  2.1330
 1010MOL0     H36299   3.835   8.968  -0.179 -0.2883  0.8737 -0.2799
 1010MOL0     H36300   3.876   8.829  -0.277 -2.1805  0.4557  0.4697
 1010MOL0     H36301   4.071   8.851  -0.056  0.1748  0.4291 -0.4726
 1010MOL0     H36302   4.323   9.056   0.019 -1.8251 -2.4919  1.2770
 1010MOL0     H36303   4.348   8.884  -0.012 -1.4331 -1.1319 -1.6346
 1010MOL0     H36304   4.470   9.093  -0.211  0.4161  0.3224  0.2189
 1010MOL0     H36305   4.552   9.071  -0.058 -0.0173  0.3082  1.6899
 1010MOL0     H36306   4.460   8.833  -0.214 -1.0366 -0.2949  1.2835
 1010MOL0     H36307   4.577   8.842  -0.082 -2.2453  1.6015  1.9178
 1010MOL0     H36308   4.615   8.959  -0.364 -3.5377 -1.3031  0.0547
 1010MOL0     H36309   4.684   8.811  -0.298 -1.9224 -0.5364 -0.4577
 1010MOL0     H36310   4.898   9.174  -0.099 -0.6749 -2.4162  0.1981
 1010MOL0     H36311   5.105   9.262  -0.206 -0.7637 -0.2072  0.7685
 1010MOL0     H36312   5.410   9.190  -0.598  1.5259 -0.9909 -0.4822
 1010MOL0     H36313   5.608   9.292  -0.747 -0.2554  0.3212 -2.7074
 1010MOL0     H36314   5.730   9.493  -0.878  0.8501 -0.9300  0.2196
 1010MOL0     H36315   5.694   9.328  -0.927  1.2891  0.8380  3.2574
 1010MOL0     H36316   5.705   9.414  -1.175  0.5817  0.0988 -1.0232
 1010MOL0     H36317   5.737   9.575  -1.110  3.9920  1.6124  3.6554
 1010MOL0     H36318   5.949   9.536  -1.124 -1.0012 -0.5509 -4.5127
 1010MOL0     H36319   5.935   9.431  -0.983 -3.8993  0.1675  1.7464
 1010MOL0     H36320   5.893   9.238  -1.114 -0.8161  0.9751 -0.6909
 1010MOL0     H36321   6.053   9.298  -1.116 -0.5760  3.0272  2.4228
 1010MOL0     H36322   5.932   9.435  -1.331  0.5594  0.1355  2.6192
 1010MOL0     H36323   5.821   9.312  -1.323  0.6776 -2.0217 -0.8106
 1010MOL0     H36324   6.022   9.156  -1.414  1.4868  0.7040  1.8401
 1010MOL0     H36325   5.983   9.292  -1.517  1.1475 -0.2617 -0.7731
 1010MOL0     H36326   6.192   9.324  -1.296 -0.1118  1.2475  0.0008
 1010MOL0     H36327   6.178   9.403  -1.447 -1.2643 -0.7633 -2.4811
 1010MOL0     H36328   6.371   9.229  -1.455 -0.6550 -0.1802  0.3404
 1010MOL0     H36329   6.247   9.113  -1.446 -3.0240  1.2223  2.0417
 1010MOL0     H36330   5.322   9.546  -0.931  1.9203  2.1884  1.3200
 1010MOL0     H36331   5.148   9.470  -0.771 -0.9396 -0.4731 -1.1195
 1010MOL0     H36332   4.998   9.089  -0.581  0.0921  2.6702 -1.5255
 1010MOL0     H36333   4.805   8.980  -0.483 -0.4030 -0.2913 -0.2288
 1010MOL0     H36334   3.912   9.349  -0.252 -0.6739  0.7568  0.3561
 1010MOL0     H36335   4.152   9.358  -0.191 -1.0158 -0.2098 -0.5503
 1010MOL0     H36336   4.491   9.204   0.343  0.5798 -0.4618 -0.2329
 1010MOL0     H36337   4.739   9.164   0.330  3.7439 -0.2225 -2.5550
 1010MOL0     H36338   4.972   9.117   0.249 -0.5164  0.3517 -1.2386
 1010MOL0     H36339   4.946   9.278   0.320  0.9160 -0.1188 -0.9620
 1010MOL0     H36340   5.171   9.253   0.317 -1.0411 -0.4922  1.0920
 1010MOL0     H36341   5.165   9.341   0.171  2.5731 -1.6519  0.2274
 1010MOL0     H36342   5.149   9.111   0.041 -0.7516  3.1743 -0.0466
 1010MOL0     H36343   5.187   9.034   0.203  0.8315 -0.2930 -0.5257
 1010MOL0     H36344   5.356   9.237   0.047 -1.0665 -2.6698 -2.2791
 1010MOL0     H36345   5.391   9.192   0.213 -0.5114 -0.0030  1.8566
 1010MOL0     H36346   5.544   8.866  -0.003  0.8310 -1.5029  3.7596
 1010MOL0     H36347   4.738   9.357  -0.054  0.4927  1.5401  0.4764
 1010MOL0     H36348   4.459   9.485  -0.079 -1.8127  0.0331 -0.7157
 1010MOL0     H36349   4.579   9.394  -0.182 -0.7962  0.1197 -0.6392
 1010MOL0     H36350   4.431   9.316  -0.119 -0.4887  1.0837 -0.3551
 1011MOL0     O36351  10.749   5.236   4.836 -0.2290  0.1273 -0.2334
 1011MOL0     C36352  10.822   5.333   4.860 -0.0021  0.1634 -0.1253
 1011MOL0     O36353  10.951   5.330   4.877  0.6801 -0.0276 -0.1332
 1011MOL0     C36354  11.014   5.216   4.832  0.2877  0.1274  0.5104
 1011MOL0     C36355  11.096   5.236   4.723 -0.2557  0.7546  0.5357
 1011MOL0     C36356  11.168   5.125   4.668  0.1691  1.1914  0.1923
 1011MOL0     C36357  11.153   4.992   4.726 -0.3689 -0.2742  0.2880
 1011MOL0     O36358  11.211   4.899   4.653  0.4293 -0.3761  0.5999
 1011MOL0     C36359  11.169   4.764   4.677 -0.3927 -1.7867 -0.2491
 1011MOL0     C36360  11.237   4.667   4.577  0.5082  0.6014 -0.8654
 1011MOL0     C36361  11.157   4.660   4.450 -0.0959 -1.0588  0.9453
 1011MOL0     C36362  11.228   4.629   4.310  0.4457  0.5799  0.4609
 1011MOL0     C36363  11.229   4.471   4.292  1.1304 -1.4782  0.1276
 1011MOL0     C36364  11.262   4.455   4.136 -0.7907  1.0521 -0.4081
 1011MOL0     C36365  11.392   4.522   4.080  0.2241  0.2121  0.2570
 1011MOL0     C36366  11.516   4.495   4.172  0.2437  0.0862  0.6770
 1011MOL0     N36367  11.636   4.552   4.115  0.6817 -0.4213  0.2802
 1011MOL0     C36368  11.695   4.496   4.002 -0.6374  0.7044 -0.3328
 1011MOL0     C36369  11.824   4.542   4.007 -0.7937  0.1626 -0.8445
 1011MOL0     C36370  11.931   4.498   3.916 -0.5403  0.2591  0.4750
 1011MOL0     C36371  11.907   4.566   3.781 -0.5625 -0.5003  0.3631
 1011MOL0     C36372  11.944   4.712   3.789 -0.4023 -0.0991  0.0046
 1011MOL0     C36373  12.094   4.727   3.808 -0.3874 -0.2816 -0.6041
 1011MOL0     O36374  12.160   4.662   3.700 -0.8983 -0.0413  0.0364
 1011MOL0     C36375  12.299   4.667   3.686 -0.2555  0.6372  0.0002
 1011MOL0     C36376  12.361   4.582   3.591 -0.1369 -0.1699 -0.4264
 1011MOL0     C36377  12.504   4.579   3.577  0.1926 -0.7763 -0.5934
 1011MOL0     C36378  12.589   4.632   3.678  0.3059  1.0820  0.1289
 1011MOL0     C36379  12.730   4.611   3.682  0.5776  0.6273 -0.3056
 1011MOL0     O36380  12.801   4.672   3.789 -0.6450 -0.2725 -0.1627
 1011MOL0     C36381  12.939   4.645   3.794  0.7696  0.3322 -0.1028
 1011MOL0     C36382  13.027   4.747   3.829 -0.0120  0.4774 -0.1845
 1011MOL0     C36383  13.161   4.716   3.845  0.4273 -0.1627 -0.6316
 1011MOL0     C36384  13.216   4.586   3.816  0.6768 -0.0871  0.3240
 1011MOL0     O36385  13.346   4.569   3.822 -0.4811  0.5031  0.4831
 1011MOL0     C36386  13.416   4.448   3.780 -1.1766  0.1791 -0.4394
 1011MOL0     C36387  13.562   4.501   3.788  0.0920  0.6363 -0.6289
 1011MOL0     C36388  13.658   4.394   3.756  0.4243  0.0538 -0.0915
 1011MOL0     C36389  13.797   4.417   3.817 -0.3681  0.3614 -0.0648
 1011MOL0     C36390  13.883   4.299   3.761 -0.4528  0.8041 -0.0120
 1011MOL0     C36391  14.016   4.344   3.696  0.2182 -0.4673 -0.1506
 1011MOL0     C36392  14.115   4.401   3.802  0.8569  0.0597 -0.2936
 1011MOL0     C36393  14.242   4.454   3.733 -0.3671 -0.5851  0.2045
 1011MOL0    Cl36394  14.214   4.598   3.641 -0.0050  0.3002  0.1149
 1011MOL0     C36395  13.130   4.478   3.787 -0.3909 -0.2314  0.3059
 1011MOL0     C36396  12.992   4.511   3.786  0.0416 -0.1302 -0.0653
 1011MOL0     O36397  12.772   4.558   3.579  0.2045  0.5641  0.1822
 1011MOL0     C36398  12.525   4.706   3.772  0.8792  0.0608 -0.3051
 1011MOL0     C36399  12.384   4.731   3.781  0.6618 -0.1363  0.0875
 1011MOL0     N36400  11.839   4.622   4.115 -0.4178 -0.2468  0.1789
 1011MOL0     N36401  11.733   4.615   4.186  0.1707 -0.1804 -0.3119
 1011MOL0     C36402  11.082   4.982   4.845  0.8710 -0.1625 -0.1605
 1011MOL0     C36403  11.015   5.093   4.903  0.0401 -1.0022 -0.8298
 1011MOL0     C36404  10.770   5.466   4.892  0.8996 -0.2755  0.0797
 1011MOL0     C36405  10.821   5.539   4.996 -0.3464 -0.6907 -0.7992
 1011MOL0     C36406  10.761   5.659   5.040 -0.3350  0.0713 -0.3979
 1011MOL0     C36407  10.653   5.717   4.966 -0.8304 -0.4191  0.6999
 1011MOL0     O36408  10.594   5.838   4.998  0.6330  0.9201 -0.0490
 1011MOL0     C36409  10.675   5.933   5.074  0.1026  0.6729 -0.1353
 1011MOL0     C36410  10.593   6.053   5.093 -0.1310 -0.2369  0.3164
 1011MOL0     C36411  10.674   6.154   5.174  0.2077  0.2734  0.6264
 1011MOL0     C36412  10.754   6.243   5.079 -0.3379 -0.4161  0.2213
 1011MOL0     C36413  10.672   6.321   4.984  0.2865  0.2124 -0.4221
 1011MOL0     C36414  10.595   6.391   4.916 -0.3258  0.2774 -0.2074
 1011MOL0     C36415  10.604   5.647   4.862 -0.4117  0.8216 -0.4304
 1011MOL0     C36416  10.656   5.522   4.827 -1.0308 -0.7439 -0.1811
 1011MOL0     C36417  10.597   5.470   4.700 -0.9152  0.4087 -0.7291
 1011MOL0     H36418  11.105   5.333   4.674  0.1617  1.3164  1.6899
 1011MOL0     H36419  11.225   5.128   4.576 -2.0464  1.5393 -1.2452
 1011MOL0     H36420  11.192   4.724   4.776 -1.9366 -1.6329  0.2084
 1011MOL0     H36421  11.060   4.759   4.666 -1.1388  2.5699  2.6432
 1011MOL0     H36422  11.247   4.567   4.619  1.5023  0.6550 -0.9373
 1011MOL0     H36423  11.344   4.686   4.564 -0.1993  3.8244 -3.3316
 1011MOL0     H36424  11.107   4.757   4.440 -1.4683 -1.7426  1.0022
 1011MOL0     H36425  11.070   4.595   4.464 -2.0512  0.9557 -0.9045
 1011MOL0     H36426  11.182   4.674   4.222  1.7723 -2.5840 -2.0796
 1011MOL0     H36427  11.330   4.669   4.305 -0.4030  3.3614  2.8721
 1011MOL0     H36428  11.298   4.413   4.353 -0.8554 -1.8384  2.1254
 1011MOL0     H36429  11.132   4.428   4.319  1.9398 -3.0025  0.6878
 1011MOL0     H36430  11.261   4.347   4.118 -1.2058  0.1019  4.1106
 1011MOL0     H36431  11.180   4.482   4.069  0.4986  0.4664 -2.3169
 1011MOL0     H36432  11.384   4.631   4.067 -1.9151  0.3238  1.8609
 1011MOL0     H36433  11.408   4.475   3.983  0.0471  0.5383  0.0670
 1011MOL0     H36434  11.499   4.535   4.273  0.4963  0.0806  0.7239
 1011MOL0     H36435  11.543   4.389   4.179  1.8784  0.4182 -0.1648
 1011MOL0     H36436  11.658   4.445   3.914 -1.0557  1.0397 -0.3532
 1011MOL0     H36437  12.018   4.529   3.974  0.7608 -0.9627 -0.7537
 1011MOL0     H36438  11.937   4.389   3.901 -0.0052  0.3931 -0.3611
 1011MOL0     H36439  11.971   4.520   3.706  3.6753  4.8292  0.0738
 1011MOL0     H36440  11.807   4.558   3.737  0.6538 -2.2122 -2.3491
 1011MOL0     H36441  11.881   4.764   3.862 -4.0322  0.4977 -3.2028
 1011MOL0     H36442  11.914   4.770   3.701 -0.2029  1.3806  0.8749
 1011MOL0     H36443  12.127   4.688   3.905  0.7019  0.9376 -0.4424
 1011MOL0     H36444  12.123   4.833   3.807  1.0801 -0.6559 -0.2622
 1011MOL0     H36445  12.303   4.533   3.514 -0.2884  0.6582 -0.8447
 1011MOL0     H36446  12.548   4.533   3.489  1.0510 -0.6113 -0.2568
 1011MOL0     H36447  12.990   4.847   3.850 -1.4634  0.0939 -0.7588
 1011MOL0     H36448  13.219   4.798   3.887 -1.2151  0.7639 -0.0731
 1011MOL0     H36449  13.406   4.367   3.853 -0.1111  0.5638  0.1478
 1011MOL0     H36450  13.383   4.413   3.682 -0.1871  1.2965 -1.1878
 1011MOL0     H36451  13.569   4.585   3.718 -0.3981  0.0539 -1.3977
 1011MOL0     H36452  13.580   4.532   3.891  2.8995 -2.9980  0.1757
 1011MOL0     H36453  13.608   4.306   3.799  0.3502 -0.3070 -0.9031
 1011MOL0     H36454  13.665   4.383   3.648  1.1414  0.6368 -0.1065
 1011MOL0     H36455  13.793   4.412   3.926  1.0319  0.5833  0.0165
 1011MOL0     H36456  13.844   4.508   3.777 -0.7714  0.5007 -0.2248
 1011MOL0     H36457  13.826   4.235   3.693 -1.2418  2.4776 -0.9716
 1011MOL0     H36458  13.910   4.232   3.844 -2.4828 -0.2304 -0.1192
 1011MOL0     H36459  14.069   4.258   3.654  3.2154  1.0453  0.2339
 1011MOL0     H36460  13.997   4.414   3.614  2.8288  1.2716  0.6091
 1011MOL0     H36461  14.141   4.320   3.871  0.9280 -0.4051 -0.8499
 1011MOL0     H36462  14.062   4.477   3.859 -0.6713 -1.1360 -0.0581
 1011MOL0     H36463  14.306   4.493   3.814  0.8356  2.8491 -2.2083
 1011MOL0     H36464  14.288   4.371   3.678  1.8540 -0.5234  1.7945
 1011MOL0     H36465  13.152   4.377   3.752 -0.1365 -0.0235 -0.1468
 1011MOL0     H36466  12.924   4.430   3.762 -1.0631 -0.0298  2.3774
 1011MOL0     H36467  12.575   4.758   3.853  0.5924  0.4315 -0.3610
 1011MOL0     H36468  12.349   4.790   3.864  0.9318  3.0846 -1.9116
 1011MOL0     H36469  11.056   4.885   4.884  1.5345 -0.2501  0.0633
 1011MOL0     H36470  10.954   5.089   4.993 -0.8041 -0.6400 -1.3641
 1011MOL0     H36471  10.915   5.516   5.046 -0.2451  0.9551 -0.1632
 1011MOL0     H36472  10.808   5.722   5.115  1.5279 -0.8160 -0.7548
 1011MOL0     H36473  10.776   5.952   5.036  1.4011 -3.8505  0.4570
 1011MOL0     H36474  10.694   5.885   5.170 -3.9946 -1.0502  0.0423
 1011MOL0     H36475  10.504   6.035   5.155 -1.2657 -0.9580 -1.4492
 1011MOL0     H36476  10.564   6.089   4.994  1.2875 -0.8660 -0.3655
 1011MOL0     H36477  10.750   6.111   5.240  0.2482  0.4648  0.7080
 1011MOL0     H36478  10.606   6.216   5.233 -0.7723 -2.1275  2.1457
 1011MOL0     H36479  10.807   6.312   5.146 -0.8029  0.1842 -0.0226
 1011MOL0     H36480  10.821   6.183   5.016  0.1903  0.1172  0.2678
 1011MOL0     H36481  10.536   6.444   4.844 -0.1597 -0.0931 -0.6209
 1011MOL0     H36482  10.524   5.688   4.801  1.2295 -0.1428 -3.4305
 1011MOL0     H36483  10.552   5.544   4.634 -4.5716  0.2662  1.3294
 1011MOL0     H36484  10.672   5.406   4.653  1.2655  1.3095  1.2762
 1011MOL0     H36485  10.513   5.409   4.735  1.1137 -1.4696  1.2057
 1012MOL0     O36486   0.939   1.076   2.639 -0.3483  0.1371  0.5876
 1012MOL0     C36487   0.816   1.066   2.639  0.1245  0.7635 -0.1256
 1012MOL0     O36488   0.723   1.142   2.579  0.0018 -0.4084  0.4155
 1012MOL0     C36489   0.783   1.261   2.539 -0.9019 -0.0545 -0.4005
 1012MOL0     C36490   0.875   1.275   2.434 -0.1617 -0.4484 -0.5754
 1012MOL0     C36491   0.927   1.402   2.397 -0.0722 -0.6765 -0.4374
 1012MOL0     C36492   0.881   1.519   2.449  0.5528 -0.3767  0.2282
 1012MOL0     O36493   0.940   1.635   2.397  0.1145 -0.6026 -0.3986
 1012MOL0     C36494   0.945   1.749   2.482 -0.5385 -0.3815  0.6202
 1012MOL0     C36495   1.057   1.731   2.590 -0.0622 -0.1927 -0.3522
 1012MOL0     C36496   1.199   1.734   2.527 -0.9625 -0.0728  0.9703
 1012MOL0     C36497   1.303   1.800   2.622 -0.1101  0.5557  0.6431
 1012MOL0     C36498   1.444   1.799   2.581  0.5372 -1.0898 -0.0372
 1012MOL0     C36499   1.530   1.889   2.677 -0.1604 -0.1858  0.1080
 1012MOL0     C36500   1.680   1.872   2.654  0.3086  0.0546  0.6008
 1012MOL0     C36501   1.760   1.942   2.763  1.0196  0.3236 -0.5140
 1012MOL0     N36502   1.910   1.936   2.741  0.5226  0.0254  0.9636
 1012MOL0     C36503   1.989   1.841   2.667  0.0453 -0.3455  0.1656
 1012MOL0     C36504   2.116   1.890   2.678 -0.6203 -0.1992  0.2882
 1012MOL0     C36505   2.244   1.813   2.659  0.8697  0.0476 -0.5049
 1012MOL0     C36506   2.325   1.856   2.538  0.6752  1.4518  0.1128
 1012MOL0     C36507   2.252   1.856   2.403 -0.8538 -0.5747 -0.8964
 1012MOL0     C36508   2.353   1.852   2.281 -0.1838  0.2959 -0.1033
 1012MOL0     O36509   2.384   1.715   2.266  0.6501  0.8552  0.2039
 1012MOL0     C36510   2.472   1.690   2.167 -0.1909 -0.7438 -0.4717
 1012MOL0     C36511   2.447   1.703   2.031  0.5680 -0.0978 -0.8346
 1012MOL0     C36512   2.554   1.667   1.940 -0.2005 -0.7417  0.0202
 1012MOL0     C36513   2.674   1.619   1.987 -0.3018 -0.5910  0.5458
 1012MOL0     C36514   2.789   1.591   1.890 -0.1034 -0.2437  0.4471
 1012MOL0     O36515   2.762   1.610   1.759  0.0324 -0.4290 -1.0389
 1012MOL0     C36516   2.857   1.586   1.667 -0.0214  0.2032  0.3199
 1012MOL0     C36517   2.821   1.645   1.544  0.0233 -0.0708  0.1282
 1012MOL0     C36518   2.899   1.641   1.425 -0.2769  1.3998  0.2255
 1012MOL0     C36519   3.026   1.567   1.427  0.0190  0.7638 -0.4422
 1012MOL0     O36520   3.119   1.546   1.327  0.1129  0.1922  0.7819
 1012MOL0     C36521   3.183   1.669   1.285 -0.2057  0.0047 -0.5241
 1012MOL0     C36522   3.296   1.615   1.207  0.0114  1.3591 -0.0468
 1012MOL0     C36523   3.260   1.563   1.069 -0.0805 -0.4461  1.2910
 1012MOL0     C36524   3.391   1.530   0.985  0.3138 -0.4749 -0.6951
 1012MOL0     C36525   3.467   1.424   1.061 -0.4394  0.7215  0.3810
 1012MOL0     C36526   3.542   1.333   0.974 -0.5856  0.7033  0.5623
 1012MOL0     C36527   3.606   1.214   1.047  1.0006 -0.5098  0.3731
 1012MOL0     C36528   3.736   1.172   0.973  0.1673 -0.6544  0.0611
 1012MOL0    Cl36529   3.801   1.012   1.009  0.0415  0.0338  0.1465
 1012MOL0     C36530   3.060   1.498   1.553 -0.9868  0.4254 -0.5594
 1012MOL0     C36531   2.981   1.510   1.673  0.6874  0.4558  0.0951
 1012MOL0     O36532   2.884   1.538   1.942  0.0288 -0.0477  0.1124
 1012MOL0     C36533   2.700   1.613   2.121  0.8163 -0.3484 -0.0410
 1012MOL0     C36534   2.601   1.651   2.208  0.0368 -0.5120 -0.1773
 1012MOL0     N36535   2.118   2.013   2.748  0.3752 -0.3536 -0.1349
 1012MOL0     N36536   1.995   2.029   2.792 -0.0013 -0.4683  0.5802
 1012MOL0     C36537   0.774   1.503   2.546  0.7915 -0.7602 -0.2212
 1012MOL0     C36538   0.729   1.373   2.593  0.3021  0.6310 -0.2741
 1012MOL0     C36539   0.759   0.946   2.707 -0.1084  0.3506 -0.5200
 1012MOL0     C36540   0.846   0.877   2.799 -1.1175  0.1356  0.0355
 1012MOL0     C36541   0.801   0.760   2.856  0.0227  1.1829  0.3106
 1012MOL0     C36542   0.674   0.714   2.832  0.1105  0.2009 -0.2162
 1012MOL0     O36543   0.633   0.597   2.887 -0.5670  1.2290 -0.0466
 1012MOL0     C36544   0.512   0.592   2.971 -0.1726 -0.5292 -0.4650
 1012MOL0     C36545   0.562   0.607   3.121 -0.0479 -0.3129 -0.3071
 1012MOL0     C36546   0.670   0.503   3.167 -0.7856 -0.4484  0.0504
 1012MOL0     C36547   0.652   0.464   3.319  0.1487  0.4335 -0.2797
 1012MOL0     C36548   0.668   0.573   3.411 -0.2567 -0.5221  0.3899
 1012MOL0     C36549   0.678   0.659   3.499  0.8610  0.7789  0.3703
 1012MOL0     C36550   0.586   0.781   2.754 -0.0630 -0.7178  0.1877
 1012MOL0     C36551   0.629   0.891   2.683  0.3848  0.5273  0.5956
 1012MOL0     C36552   0.536   0.932   2.570 -0.3420 -0.6742 -0.0820
 1012MOL0     H36553   0.917   1.185   2.391 -1.0097 -2.5023  2.5603
 1012MOL0     H36554   1.009   1.422   2.328 -1.3983  1.3870 -1.5306
 1012MOL0     H36555   0.977   1.836   2.424  0.7296  0.3260  2.3088
 1012MOL0     H36556   0.848   1.768   2.530 -1.5195 -1.1780 -0.9430
 1012MOL0     H36557   1.050   1.636   2.645  2.4219  0.8613  2.0166
 1012MOL0     H36558   1.047   1.809   2.665 -1.1622 -0.7809  0.1207
 1012MOL0     H36559   1.199   1.797   2.437 -1.0470  1.8613  2.2665
 1012MOL0     H36560   1.233   1.633   2.504 -1.8533 -1.1976  4.1641
 1012MOL0     H36561   1.266   1.899   2.650 -2.7441 -0.5032  1.1448
 1012MOL0     H36562   1.300   1.740   2.713 -1.3548  1.9371  1.5500
 1012MOL0     H36563   1.472   1.693   2.588  1.1461 -0.8291  2.2996
 1012MOL0     H36564   1.442   1.829   2.476 -2.4529 -0.8515 -0.0068
 1012MOL0     H36565   1.500   1.994   2.679  2.6358  0.6870  1.5261
 1012MOL0     H36566   1.519   1.854   2.780  3.1094  2.0548  1.3868
 1012MOL0     H36567   1.694   1.912   2.553 -0.8314  0.2882  0.5223
 1012MOL0     H36568   1.694   1.764   2.650 -0.2716  0.0111 -1.3963
 1012MOL0     H36569   1.739   2.047   2.786 -1.5812 -0.3279  0.3879
 1012MOL0     H36570   1.762   1.886   2.857  1.5963  1.0170 -0.0987
 1012MOL0     H36571   1.963   1.740   2.637  1.4796 -0.8687  0.5942
 1012MOL0     H36572   2.303   1.808   2.751 -0.8325  1.5510  0.7465
 1012MOL0     H36573   2.211   1.711   2.636 -1.6915  1.0948 -1.9792
 1012MOL0     H36574   2.365   1.956   2.559  0.0778  2.2658 -2.2568
 1012MOL0     H36575   2.397   1.775   2.526  0.9304  1.6987 -0.0499
 1012MOL0     H36576   2.187   1.943   2.390  0.7333  0.9886  1.0741
 1012MOL0     H36577   2.180   1.774   2.407  1.0452 -2.2752  1.4118
 1012MOL0     H36578   2.446   1.908   2.299 -1.2932  1.8323  1.1407
 1012MOL0     H36579   2.298   1.897   2.198 -1.9111  0.3858  1.0247
 1012MOL0     H36580   2.349   1.733   1.996  0.8506  0.0176 -1.5612
 1012MOL0     H36581   2.530   1.676   1.834 -1.6336  0.3387  0.3922
 1012MOL0     H36582   2.723   1.690   1.534  1.0533  2.1408 -1.0533
 1012MOL0     H36583   2.863   1.686   1.334  4.0332  0.5069 -2.1763
 1012MOL0     H36584   3.110   1.729   1.231 -1.3458 -0.6429  0.2544
 1012MOL0     H36585   3.229   1.727   1.367  1.1239 -1.2458 -0.3308
 1012MOL0     H36586   3.365   1.699   1.196  1.3017  0.5862  1.7249
 1012MOL0     H36587   3.345   1.544   1.273 -1.8694  1.4391  1.5160
 1012MOL0     H36588   3.203   1.471   1.082 -1.8296  0.0689 -1.7195
 1012MOL0     H36589   3.205   1.643   1.018 -0.4121  0.6055  3.1959
 1012MOL0     H36590   3.449   1.623   0.975  0.9660 -1.0296 -2.5011
 1012MOL0     H36591   3.358   1.487   0.890 -0.8081  3.1026 -2.1026
 1012MOL0     H36592   3.400   1.372   1.130  0.9817 -0.3535  1.0103
 1012MOL0     H36593   3.542   1.474   1.122  1.6795 -1.9709  0.2084
 1012MOL0     H36594   3.471   1.303   0.897 -2.8748  0.6586  2.5816
 1012MOL0     H36595   3.628   1.388   0.935  1.2112 -1.4160  1.2805
 1012MOL0     H36596   3.539   1.128   1.040 -0.0429  0.3772 -1.1389
 1012MOL0     H36597   3.640   1.238   1.148 -1.2534  0.9318  0.8687
 1012MOL0     H36598   3.738   1.186   0.865  1.8407  2.4626  0.3538
 1012MOL0     H36599   3.805   1.244   1.018 -1.0162  1.4951 -1.4314
 1012MOL0     H36600   3.153   1.445   1.568  0.2198  2.6224  0.2673
 1012MOL0     H36601   3.006   1.448   1.759 -0.0448  3.3503  2.5666
 1012MOL0     H36602   2.802   1.620   2.156  0.2954  1.2127  1.2728
 1012MOL0     H36603   2.650   1.660   2.305  1.3680  2.4412 -0.9973
 1012MOL0     H36604   0.720   1.584   2.594 -0.2955 -1.6938  0.1591
 1012MOL0     H36605   0.655   1.361   2.672  0.5058 -0.5354 -0.2392
 1012MOL0     H36606   0.943   0.912   2.833 -0.8954 -2.1112  1.9191
 1012MOL0     H36607   0.876   0.702   2.909  0.6935  0.7363 -1.0865
 1012MOL0     H36608   0.461   0.495   2.967 -0.1280 -0.6153  0.7882
 1012MOL0     H36609   0.437   0.668   2.950  0.0979 -0.5075 -1.4229
 1012MOL0     H36610   0.474   0.610   3.185 -1.6301  1.4267 -2.4180
 1012MOL0     H36611   0.590   0.713   3.129 -2.7170  0.6169 -2.0162
 1012MOL0     H36612   0.766   0.555   3.155 -1.6335  1.0442 -0.5251
 1012MOL0     H36613   0.670   0.418   3.099  1.0510  1.4978 -2.5850
 1012MOL0     H36614   0.553   0.419   3.326  0.0256  0.8675  1.2756
 1012MOL0     H36615   0.715   0.378   3.345 -0.8869 -0.1198  0.4582
 1012MOL0     H36616   0.690   0.726   3.582 -0.6786  1.6468 -0.0733
 1012MOL0     H36617   0.485   0.744   2.745 -0.1181 -0.5915  0.2822
 1012MOL0     H36618   0.477   1.023   2.583 -1.1515 -1.0343 -1.1101
 1012MOL0     H36619   0.601   0.955   2.486 -1.0822 -1.5085 -0.9056
 1012MOL0     H36620   0.472   0.849   2.540  0.1164 -0.8168 -0.6865
 1013MOL0     O36621   8.445   4.202   3.736 -0.0882  1.1015 -0.1337
 1013MOL0     C36622   8.394   4.192   3.628 -0.2252  0.7096  0.1435
 1013MOL0     O36623   8.372   4.072   3.561 -0.2637 -0.4696  0.5062
 1013MOL0     C36624   8.411   3.957   3.616  0.4300  0.0260 -0.1399
 1013MOL0     C36625   8.305   3.881   3.657  0.1653 -0.2284 -0.9176
 1013MOL0     C36626   8.341   3.778   3.743  0.1860 -0.3074 -0.4076
 1013MOL0     C36627   8.470   3.732   3.762 -0.2992 -0.1262  0.6911
 1013MOL0     O36628   8.496   3.612   3.833  0.9416 -0.1413  0.6528
 1013MOL0     C36629   8.508   3.510   3.734  0.0953  0.5245  0.6196
 1013MOL0     C36630   8.379   3.456   3.676  0.1690  0.0493 -0.1023
 1013MOL0     C36631   8.293   3.388   3.786  0.2164 -0.3915 -0.5362
 1013MOL0     C36632   8.150   3.356   3.749 -0.0726 -0.1566  0.0083
 1013MOL0     C36633   8.066   3.332   3.878 -0.1074 -0.7913 -0.2833
 1013MOL0     C36634   7.919   3.300   3.847 -0.6810 -0.3208 -0.3562
 1013MOL0     C36635   7.824   3.298   3.965  0.2831  0.3281 -0.0530
 1013MOL0     C36636   7.842   3.427   4.048  0.5064  0.8265 -0.4128
 1013MOL0     N36637   7.814   3.540   3.960 -0.2286 -0.1828 -0.3771
 1013MOL0     C36638   7.688   3.563   3.902  0.5240  0.0959  0.9147
 1013MOL0     C36639   7.721   3.672   3.828  1.5170  0.4445  0.2245
 1013MOL0     C36640   7.647   3.736   3.712  0.5127  0.2438  0.0491
 1013MOL0     C36641   7.679   3.660   3.581 -0.3691 -0.0286  0.5214
 1013MOL0     C36642   7.624   3.518   3.583  0.0819  0.2327  0.0858
 1013MOL0     C36643   7.477   3.501   3.620 -0.3671  0.1926 -0.8165
 1013MOL0     O36644   7.391   3.592   3.551 -0.0135  0.1684 -0.3800
 1013MOL0     C36645   7.259   3.560   3.545 -0.5503  0.0347  0.7083
 1013MOL0     C36646   7.185   3.497   3.644  1.0195 -0.0767 -0.5776
 1013MOL0     C36647   7.047   3.472   3.637 -0.0996 -1.5934  1.6097
 1013MOL0     C36648   6.981   3.522   3.518  0.5883  0.0145  0.2504
 1013MOL0     C36649   6.837   3.486   3.503  0.7558  0.2123 -0.2497
 1013MOL0     O36650   6.770   3.446   3.615  0.6331  0.7025 -0.0052
 1013MOL0     C36651   6.631   3.462   3.624 -0.1798 -0.1742  0.1498
 1013MOL0     C36652   6.575   3.418   3.747 -0.0654 -0.3255  0.1030
 1013MOL0     C36653   6.440   3.432   3.773 -1.1125  0.6383 -0.3091
 1013MOL0     C36654   6.361   3.488   3.680  0.7924  0.3817 -0.0503
 1013MOL0     O36655   6.226   3.506   3.696  0.7564  0.0875  0.4824
 1013MOL0     C36656   6.158   3.478   3.822  0.5305 -0.5826  0.3211
 1013MOL0     C36657   6.022   3.540   3.816  0.1389 -0.2020  0.9127
 1013MOL0     C36658   5.913   3.478   3.906  0.2465 -0.3458 -0.2588
 1013MOL0     C36659   5.850   3.349   3.860  0.2446 -0.0322 -0.0848
 1013MOL0     C36660   5.743   3.302   3.952 -0.3555 -0.7140 -0.0916
 1013MOL0     C36661   5.606   3.366   3.937 -0.5577 -0.2298 -0.0339
 1013MOL0     C36662   5.496   3.301   4.014  0.3768 -0.3377  0.2615
 1013MOL0     C36663   5.356   3.359   4.001 -0.3047  0.4564 -0.4360
 1013MOL0    Cl36664   5.272   3.308   3.852 -0.0239 -0.5602  0.0145
 1013MOL0     C36665   6.417   3.546   3.564 -0.4512  0.7763 -0.6811
 1013MOL0     C36666   6.551   3.539   3.542 -0.1397 -0.0587 -0.0215
 1013MOL0     O36667   6.799   3.474   3.388  0.0851 -0.1807 -0.0889
 1013MOL0     C36668   7.064   3.567   3.408 -0.9088  1.1700 -0.3886
 1013MOL0     C36669   7.193   3.605   3.429 -0.6497  0.3298 -0.0417
 1013MOL0     N36670   7.853   3.709   3.842  0.6207 -0.3626  0.0300
 1013MOL0     N36671   7.911   3.618   3.924 -0.2314  0.3257 -0.6827
 1013MOL0     C36672   8.574   3.807   3.712  0.4466 -0.9249 -0.2013
 1013MOL0     C36673   8.540   3.924   3.644 -0.1108 -0.3429  0.2213
 1013MOL0     C36674   8.358   4.313   3.549 -0.0192  0.6147 -0.2628
 1013MOL0     C36675   8.349   4.305   3.406 -0.5835  1.1904 -0.2694
 1013MOL0     C36676   8.323   4.410   3.324 -0.2195  0.1641  0.0165
 1013MOL0     C36677   8.297   4.537   3.374 -0.3029  0.0618  0.0318
 1013MOL0     O36678   8.227   4.629   3.313 -0.9118  0.1432  0.6302
 1013MOL0     C36679   8.294   4.758   3.306 -0.0690  0.2193  0.3072
 1013MOL0     C36680   8.371   4.795   3.176  0.5384  0.4864  0.1843
 1013MOL0     C36681   8.462   4.929   3.204  0.2186  0.3118 -1.1212
 1013MOL0     C36682   8.377   5.057   3.178  0.1168  0.8312 -0.2419
 1013MOL0     C36683   8.326   5.061   3.042  0.8876 -0.0484  0.3217
 1013MOL0     C36684   8.281   5.055   2.936  0.4068  0.2318  0.5515
 1013MOL0     C36685   8.302   4.546   3.513 -0.8213 -0.8120  0.4026
 1013MOL0     C36686   8.335   4.441   3.603 -0.2167  0.3498 -0.3605
 1013MOL0     C36687   8.327   4.470   3.758 -0.7245  0.1420  0.0799
 1013MOL0     H36688   8.201   3.914   3.649 -0.1014 -0.7421  0.3488
 1013MOL0     H36689   8.265   3.718   3.791 -0.7831  2.0779  1.2406
 1013MOL0     H36690   8.571   3.550   3.654  2.6393  0.1159  2.3033
 1013MOL0     H36691   8.564   3.431   3.786 -2.8867 -1.7263  0.6320
 1013MOL0     H36692   8.388   3.374   3.604 -0.0882 -1.8646  1.9437
 1013MOL0     H36693   8.324   3.539   3.630 -1.1177 -0.6156  0.1807
 1013MOL0     H36694   8.297   3.456   3.872  4.7704  1.4097 -1.8705
 1013MOL0     H36695   8.342   3.297   3.821  0.9164  0.2580  0.2231
 1013MOL0     H36696   8.121   3.426   3.670  0.0620 -1.3402 -1.1374
 1013MOL0     H36697   8.157   3.260   3.697 -1.6941  0.7964 -2.1121
 1013MOL0     H36698   8.107   3.254   3.943  0.4983 -0.5890 -0.4082
 1013MOL0     H36699   8.073   3.425   3.935 -2.2458 -0.7495 -0.0158
 1013MOL0     H36700   7.895   3.371   3.767 -1.0071  0.1971  0.1895
 1013MOL0     H36701   7.926   3.197   3.809 -4.1901 -1.5166  1.6892
 1013MOL0     H36702   7.847   3.206   4.020 -2.1297 -0.7253 -0.6463
 1013MOL0     H36703   7.721   3.281   3.932  0.1231 -2.9512  1.7005
 1013MOL0     H36704   7.776   3.431   4.135 -1.4377 -1.5159 -1.6484
 1013MOL0     H36705   7.942   3.436   4.090 -0.8790  3.5039  2.7102
 1013MOL0     H36706   7.599   3.500   3.905  1.6276 -1.5676  0.4967
 1013MOL0     H36707   7.538   3.726   3.718  0.7502 -2.1124  2.2322
 1013MOL0     H36708   7.663   3.844   3.709 -0.2140  0.3857  0.7072
 1013MOL0     H36709   7.625   3.718   3.506 -1.6181 -0.0472  1.3835
 1013MOL0     H36710   7.788   3.654   3.570 -0.1730  0.0002  2.1724
 1013MOL0     H36711   7.672   3.456   3.659 -1.0237 -2.2546 -1.1155
 1013MOL0     H36712   7.653   3.488   3.482  1.1912  1.0235  0.1602
 1013MOL0     H36713   7.463   3.519   3.727  1.7547  1.5491 -0.7019
 1013MOL0     H36714   7.453   3.397   3.600 -0.1305  0.2668 -1.5151
 1013MOL0     H36715   7.243   3.466   3.730  0.5272 -2.2227 -0.9416
 1013MOL0     H36716   6.984   3.421   3.708 -1.3481 -2.8397 -0.2907
 1013MOL0     H36717   6.634   3.360   3.817  0.5503 -1.3508 -1.2259
 1013MOL0     H36718   6.396   3.387   3.861 -1.1123  2.9504  0.9389
 1013MOL0     H36719   6.135   3.371   3.826 -0.2187 -0.4073  0.8868
 1013MOL0     H36720   6.207   3.511   3.914 -2.0580  1.2148  1.1691
 1013MOL0     H36721   6.021   3.647   3.839 -0.6047 -0.1415  0.6362
 1013MOL0     H36722   5.982   3.531   3.714  2.0878 -2.3179  0.2507
 1013MOL0     H36723   5.943   3.476   4.011  2.8420 -1.1953 -0.9451
 1013MOL0     H36724   5.832   3.551   3.902  0.0871 -0.4375  0.9538
 1013MOL0     H36725   5.922   3.268   3.845 -0.9306 -0.9330 -1.2096
 1013MOL0     H36726   5.803   3.364   3.762 -2.8383  0.2007  1.3097
 1013MOL0     H36727   5.773   3.311   4.057  1.3928  0.7534 -0.6635
 1013MOL0     H36728   5.722   3.196   3.938  1.7938 -1.1678 -0.2197
 1013MOL0     H36729   5.607   3.469   3.974 -0.3884  1.0433 -3.2446
 1013MOL0     H36730   5.571   3.361   3.833  0.6128  3.2210 -0.7241
 1013MOL0     H36731   5.531   3.301   4.117  1.0846 -4.2779  0.1816
 1013MOL0     H36732   5.485   3.197   3.981 -1.5046 -0.2307  0.4807
 1013MOL0     H36733   5.297   3.317   4.083 -1.9517  2.0027 -0.7618
 1013MOL0     H36734   5.351   3.468   4.014  0.4441  0.2142  2.5302
 1013MOL0     H36735   6.346   3.580   3.489  0.6807 -1.7540 -3.0841
 1013MOL0     H36736   6.600   3.570   3.450  1.8798 -0.3400  0.9135
 1013MOL0     H36737   7.009   3.604   3.322  0.1304 -2.4208 -2.8171
 1013MOL0     H36738   7.257   3.647   3.352 -1.9102  1.4533 -0.5190
 1013MOL0     H36739   8.676   3.780   3.736  0.8208  0.1309 -0.5191
 1013MOL0     H36740   8.625   3.983   3.612  1.5361 -4.1738 -3.4087
 1013MOL0     H36741   8.363   4.203   3.372  1.7496  0.5903  2.1648
 1013MOL0     H36742   8.308   4.400   3.217 -0.8518  1.5814 -0.0480
 1013MOL0     H36743   8.362   4.770   3.392  2.1068 -2.0114 -0.9729
 1013MOL0     H36744   8.222   4.839   3.322 -0.8887 -0.6245  0.9593
 1013MOL0     H36745   8.308   4.814   3.088  0.5889 -2.8293 -0.7263
 1013MOL0     H36746   8.435   4.712   3.146  2.9857  2.6445 -0.9168
 1013MOL0     H36747   8.548   4.921   3.137  1.9247 -1.8728  1.1541
 1013MOL0     H36748   8.505   4.924   3.304 -4.1377  0.2623  0.9905
 1013MOL0     H36749   8.300   5.060   3.257 -1.5335 -1.5881 -1.6373
 1013MOL0     H36750   8.440   5.142   3.205  1.3337  0.0244 -0.4880
 1013MOL0     H36751   8.234   5.057   2.840 -1.2543  0.4091  1.3431
 1013MOL0     H36752   8.272   4.637   3.563  1.5884  0.3439 -0.0864
 1013MOL0     H36753   8.422   4.446   3.807 -1.3958 -2.6826  0.1601
 1013MOL0     H36754   8.309   4.578   3.764  1.8125  0.9556 -3.6866
 1013MOL0     H36755   8.253   4.408   3.810 -1.3063  0.3142 -0.5185
 1014MOL0     O36756   3.473   8.508   8.243 -0.1117 -0.2047 -0.3271
 1014MOL0     C36757   3.524   8.420   8.174  0.0418 -0.6251  1.1635
 1014MOL0     O36758   3.453   8.334   8.090 -0.5589 -0.3222 -0.0349
 1014MOL0     C36759   3.312   8.322   8.093 -0.0984  0.5380  0.6058
 1014MOL0     C36760   3.271   8.251   7.977  0.4192 -0.7167  0.0088
 1014MOL0     C36761   3.143   8.208   7.970  0.5182 -0.5084 -0.5250
 1014MOL0     C36762   3.044   8.254   8.062  0.1191  1.0180 -0.1201
 1014MOL0     O36763   2.919   8.210   8.052  0.0130 -1.0873 -0.0327
 1014MOL0     C36764   2.845   8.325   8.013  0.4076 -0.1594  0.3637
 1014MOL0     C36765   2.699   8.282   7.962 -0.1874  0.2880  0.7304
 1014MOL0     C36766   2.600   8.221   8.058  0.0330  0.2299 -0.3988
 1014MOL0     C36767   2.457   8.202   8.009  1.1734 -0.3783  0.0794
 1014MOL0     C36768   2.404   8.059   8.045 -0.4958  0.0678  0.0673
 1014MOL0     C36769   2.253   8.063   8.056 -0.1874 -0.8690 -0.1453
 1014MOL0     C36770   2.199   8.133   8.178 -0.2060 -0.1459  0.6952
 1014MOL0     C36771   2.053   8.140   8.160 -0.4612  0.1660 -0.8310
 1014MOL0     N36772   1.973   8.217   8.260 -0.5087 -0.1471  0.1037
 1014MOL0     C36773   1.896   8.326   8.237  0.8603 -0.1500  1.3734
 1014MOL0     C36774   1.844   8.365   8.357  0.9710 -0.1285 -0.3255
 1014MOL0     C36775   1.765   8.502   8.381  0.3839  0.3319 -0.8854
 1014MOL0     C36776   1.869   8.623   8.388  0.2531  0.4734 -0.1419
 1014MOL0     C36777   1.995   8.592   8.473 -0.7677  0.3462 -0.2103
 1014MOL0     C36778   1.957   8.555   8.617 -0.6963 -0.6968  0.2286
 1014MOL0     O36779   2.071   8.553   8.705 -0.0938 -0.9807 -0.4421
 1014MOL0     C36780   2.060   8.538   8.838  0.0454 -0.0101  0.6690
 1014MOL0     C36781   1.942   8.570   8.915 -0.0500 -0.4770 -0.0606
 1014MOL0     C36782   1.946   8.588   9.053 -0.4606 -0.0002  1.0105
 1014MOL0     C36783   2.068   8.549   9.119  0.8447  0.4981 -0.0316
 1014MOL0     C36784   2.078   8.548   9.267  0.2006  0.5468  0.0090
 1014MOL0     O36785   1.980   8.617   9.334  0.1643 -0.3605 -0.0004
 1014MOL0     C36786   2.006   8.670   9.459 -1.0963 -0.9847  0.0576
 1014MOL0     C36787   2.119   8.749   9.483 -0.2577  0.5105  0.5629
 1014MOL0     C36788   2.159   8.791   9.621 -0.2305 -0.1281  2.0465
 1014MOL0     C36789   2.068   8.739   9.722 -0.5972  0.8049  0.3746
 1014MOL0     O36790   2.080   8.747   9.857  0.1579 -0.1015 -0.1472
 1014MOL0     C36791   2.193   8.681   9.928  0.0924 -0.1422 -0.4177
 1014MOL0     C36792   2.313   8.777   9.951  0.0225 -1.1026  0.0386
 1014MOL0     C36793   2.441   8.718  10.004 -0.3372 -0.5513 -0.1045
 1014MOL0     C36794   2.495   8.610   9.915 -0.3958 -1.0172 -0.5465
 1014MOL0     C36795   2.639   8.565   9.940 -0.2432 -0.4738  0.0436
 1014MOL0     C36796   2.677   8.476   9.819 -0.1153 -0.8885 -0.5287
 1014MOL0     C36797   2.786   8.386   9.871 -0.2557  0.1921 -0.0604
 1014MOL0     C36798   2.917   8.463   9.904 -0.1950  0.1771 -0.2992
 1014MOL0    Cl36799   3.038   8.348   9.964  0.2868 -0.1784 -0.4968
 1014MOL0     C36800   1.961   8.655   9.691  0.4184 -0.5985 -0.1699
 1014MOL0     C36801   1.937   8.616   9.561  0.2013  0.4076  0.1612
 1014MOL0     O36802   2.160   8.475   9.317  0.2295  0.3544 -0.1897
 1014MOL0     C36803   2.184   8.514   9.046  0.2884 -0.7536  0.2862
 1014MOL0     C36804   2.173   8.515   8.909 -0.7019 -1.1901 -0.2737
 1014MOL0     N36805   1.871   8.268   8.445 -0.0289  0.0045  0.4897
 1014MOL0     N36806   1.968   8.196   8.392  0.5297 -0.3949 -0.4708
 1014MOL0     C36807   3.091   8.333   8.169  0.3877 -0.3254  0.8743
 1014MOL0     C36808   3.226   8.370   8.186  1.5786 -0.9360 -0.0357
 1014MOL0     C36809   3.671   8.406   8.171 -0.2270 -0.3900 -0.5530
 1014MOL0     C36810   3.715   8.274   8.166 -0.3271 -0.0968 -0.0014
 1014MOL0     C36811   3.845   8.241   8.135  1.2110 -0.7051 -0.5999
 1014MOL0     C36812   3.934   8.349   8.124 -0.3848  0.6509 -0.0659
 1014MOL0     O36813   4.070   8.331   8.094  0.4196  0.4065  0.2623
 1014MOL0     C36814   4.128   8.204   8.091  0.7933  0.9187 -0.3525
 1014MOL0     C36815   4.182   8.179   8.232 -0.6962 -0.3327  0.3425
 1014MOL0     C36816   4.085   8.110   8.334  0.5957  0.1307  0.3123
 1014MOL0     C36817   4.136   8.102   8.487 -0.4129 -0.0283 -0.0663
 1014MOL0     C36818   4.033   8.048   8.584 -0.5071 -0.1213  0.1641
 1014MOL0     C36819   3.942   8.010   8.655  0.6194 -0.9954 -0.2409
 1014MOL0     C36820   3.888   8.484   8.129  0.2251  0.4263  0.4031
 1014MOL0     C36821   3.752   8.512   8.155 -0.1044  0.1651 -0.2452
 1014MOL0     C36822   3.715   8.659   8.140  0.9993  0.0172  0.6245
 1014MOL0     H36823   3.353   8.231   7.909 -0.3922  2.0847 -2.0036
 1014MOL0     H36824   3.126   8.131   7.895 -4.8563 -0.7974  0.6028
 1014MOL0     H36825   2.844   8.395   8.097 -0.6027  1.2761 -0.7695
 1014MOL0     H36826   2.898   8.367   7.927  0.3058 -0.2905  0.2379
 1014MOL0     H36827   2.712   8.198   7.894 -0.9073  1.4863 -0.9636
 1014MOL0     H36828   2.655   8.368   7.910 -3.2375  0.7409  3.6865
 1014MOL0     H36829   2.586   8.287   8.144  0.6235  0.6941 -0.6538
 1014MOL0     H36830   2.637   8.125   8.095 -3.9030 -1.8672 -1.3670
 1014MOL0     H36831   2.407   8.277   8.069  0.1203 -1.3180  0.4187
 1014MOL0     H36832   2.431   8.239   7.909  1.4907  1.7704  0.7575
 1014MOL0     H36833   2.423   7.995   7.959  1.3844  0.6822 -0.0297
 1014MOL0     H36834   2.448   8.017   8.136 -0.2680 -3.3179 -1.4750
 1014MOL0     H36835   2.212   8.113   7.968  3.3357  3.3975  0.2559
 1014MOL0     H36836   2.218   7.960   8.052 -1.6699 -0.4489  0.8541
 1014MOL0     H36837   2.240   8.235   8.184 -0.5770 -0.0981  3.6408
 1014MOL0     H36838   2.218   8.076   8.269  1.3455  0.3832  0.7364
 1014MOL0     H36839   2.037   8.183   8.061  0.5439  1.4533 -0.4706
 1014MOL0     H36840   2.024   8.035   8.163  1.8247 -0.4940  1.2698
 1014MOL0     H36841   1.878   8.392   8.152 -3.6773  0.3119  2.3981
 1014MOL0     H36842   1.681   8.518   8.313 -0.4855 -0.1395  0.0455
 1014MOL0     H36843   1.710   8.506   8.475 -3.6180 -0.3081 -3.0004
 1014MOL0     H36844   1.907   8.646   8.287  0.2813 -2.3215 -0.8570
 1014MOL0     H36845   1.815   8.705   8.436  1.9486  1.0954  0.8021
 1014MOL0     H36846   2.077   8.665   8.476  2.9263 -3.3116 -1.5246
 1014MOL0     H36847   2.041   8.503   8.428 -2.2935  0.2455 -1.6669
 1014MOL0     H36848   1.896   8.464   8.626 -0.5737 -0.6290  2.1676
 1014MOL0     H36849   1.897   8.637   8.658 -1.1327 -0.0897 -1.5211
 1014MOL0     H36850   1.847   8.584   8.864  0.6564  0.4345 -1.1717
 1014MOL0     H36851   1.861   8.612   9.116  1.3520  0.0984  3.5718
 1014MOL0     H36852   2.182   8.779   9.400 -0.6295 -2.5523 -0.9623
 1014MOL0     H36853   2.261   8.826   9.630  0.1815 -0.6241 -0.0392
 1014MOL0     H36854   2.152   8.653  10.026 -2.4965  2.0160 -0.7552
 1014MOL0     H36855   2.222   8.590   9.876 -0.2994 -0.6762  0.2853
 1014MOL0     H36856   2.323   8.822   9.852  0.8622 -2.4674 -0.5206
 1014MOL0     H36857   2.290   8.857  10.022 -0.6038 -1.0277 -0.2465
 1014MOL0     H36858   2.515   8.797   9.989  1.3027 -2.2740 -1.5331
 1014MOL0     H36859   2.425   8.685  10.107 -0.0213 -1.2744 -0.2786
 1014MOL0     H36860   2.469   8.625   9.810 -1.3324 -1.5556 -0.3971
 1014MOL0     H36861   2.435   8.519   9.922 -1.4248 -0.5941 -2.8608
 1014MOL0     H36862   2.636   8.512  10.036 -2.0659  1.1335  0.9465
 1014MOL0     H36863   2.709   8.649   9.946 -0.2614 -0.5266  1.1526
 1014MOL0     H36864   2.591   8.413   9.791 -1.7066  0.8440  0.2715
 1014MOL0     H36865   2.704   8.534   9.731 -3.4297 -0.7434 -1.6133
 1014MOL0     H36866   2.815   8.306   9.803  0.4511 -1.4690  2.0891
 1014MOL0     H36867   2.762   8.338   9.966  4.2145 -0.3794  1.0163
 1014MOL0     H36868   2.959   8.519   9.821  0.9050 -1.1495 -0.6795
 1014MOL0     H36869   2.911   8.538   9.984  1.8376 -1.3263  1.3787
 1014MOL0     H36870   1.900   8.616   9.771 -0.0815 -0.8574 -0.6675
 1014MOL0     H36871   1.853   8.551   9.540  0.8803 -1.0703  1.7669
 1014MOL0     H36872   2.283   8.490   9.081 -0.1405 -0.7620  1.5435
 1014MOL0     H36873   2.262   8.502   8.849  0.8896 -1.6064  2.0271
 1014MOL0     H36874   3.012   8.362   8.237 -0.8814 -0.8745 -0.3347
 1014MOL0     H36875   3.256   8.430   8.272 -2.6534 -2.1877  2.6323
 1014MOL0     H36876   3.639   8.197   8.178  1.3881 -1.8851 -0.1612
 1014MOL0     H36877   3.873   8.136   8.142 -0.9574 -1.2313  1.4045
 1014MOL0     H36878   4.209   8.190   8.019  1.1330  0.2589  0.1500
 1014MOL0     H36879   4.057   8.130   8.053  0.8984  0.1374  0.9081
 1014MOL0     H36880   4.223   8.272   8.272 -0.2349 -0.3877 -0.0009
 1014MOL0     H36881   4.272   8.118   8.221 -0.1551  0.8515 -2.8388
 1014MOL0     H36882   4.067   8.008   8.300 -0.6273  0.2678  0.5244
 1014MOL0     H36883   3.994   8.170   8.346  0.8418  0.9547 -1.5816
 1014MOL0     H36884   4.216   8.028   8.494 -2.0427 -1.7139  2.3395
 1014MOL0     H36885   4.173   8.194   8.534 -1.3014 -0.2582  1.1475
 1014MOL0     H36886   3.850   7.990   8.706  1.6185  0.7053  2.5027
 1014MOL0     H36887   3.956   8.561   8.093 -1.4132  1.8398  0.1698
 1014MOL0     H36888   3.624   8.667   8.080  0.2213 -0.9666  1.6520
 1014MOL0     H36889   3.701   8.709   8.236 -1.6357  2.4703 -0.8844
 1014MOL0     H36890   3.792   8.713   8.084  1.1958  3.6789  3.9502
 1015MOL0     O36891   3.402   3.071   0.851 -0.2218  0.1512  0.5065
 1015MOL0     C36892   3.445   3.093   0.741  0.1969  0.8945  0.4071
 1015MOL0     O36893   3.384   3.055   0.622 -0.2930  0.1162  0.7051
 1015MOL0     C36894   3.255   3.011   0.616 -0.3296  0.7107 -0.5799
 1015MOL0     C36895   3.241   2.873   0.592  0.2983  0.2666 -0.7888
 1015MOL0     C36896   3.109   2.814   0.570 -0.2142  0.1147  0.3284
 1015MOL0     C36897   2.995   2.901   0.556 -0.4944 -0.6272 -0.3143
 1015MOL0     O36898   2.870   2.858   0.514  0.2723  0.2103  0.5893
 1015MOL0     C36899   2.873   2.732   0.454  0.6776 -0.3763 -0.8435
 1015MOL0     C36900   2.732   2.702   0.396  0.4886  0.7830 -0.3915
 1015MOL0     C36901   2.656   2.807   0.323 -0.0839  0.3191 -0.1586
 1015MOL0     C36902   2.563   2.749   0.215  0.1152  0.1847 -0.5644
 1015MOL0     C36903   2.443   2.665   0.279 -0.1175  0.2486 -0.5829
 1015MOL0     C36904   2.319   2.675   0.196  0.2770  0.4741 -0.2487
 1015MOL0     C36905   2.195   2.619   0.274 -0.8594 -0.0085  0.5878
 1015MOL0     C36906   2.080   2.634   0.175  0.3675 -0.1748  0.7528
 1015MOL0     N36907   1.944   2.605   0.232 -0.8217  0.2024  0.1540
 1015MOL0     C36908   1.899   2.479   0.259 -0.0130  0.5895 -0.7285
 1015MOL0     C36909   1.781   2.498   0.318 -0.2233 -0.1183 -0.6234
 1015MOL0     C36910   1.692   2.395   0.372 -0.4144 -0.1554  0.0910
 1015MOL0     C36911   1.591   2.349   0.273  0.1089 -1.2137  0.6315
 1015MOL0     C36912   1.549   2.202   0.297  0.0067 -1.0674  0.6855
 1015MOL0     C36913   1.433   2.162   0.200 -1.1811 -0.7526 -0.4821
 1015MOL0     O36914   1.389   2.032   0.260  0.1457  0.1179  0.0100
 1015MOL0     C36915   1.272   1.967   0.234  0.4463  0.5337 -0.5770
 1015MOL0     C36916   1.235   1.856   0.317  0.4786 -0.4189 -0.1019
 1015MOL0     C36917   1.129   1.783   0.287 -0.1050  0.9402 -0.5175
 1015MOL0     C36918   1.039   1.824   0.192  0.1903  0.6556 -0.0933
 1015MOL0     C36919   0.919   1.742   0.168 -0.4385  0.9186 -0.3087
 1015MOL0     O36920   0.917   1.621   0.231  0.2600  1.0750  0.1883
 1015MOL0     C36921   0.817   1.543   0.207 -0.0497 -0.2833 -0.3791
 1015MOL0     C36922   0.811   1.451   0.097 -0.1419 -0.2980 -0.6528
 1015MOL0     C36923   0.711   1.361   0.077 -0.5437  0.1409  0.0673
 1015MOL0     C36924   0.609   1.348   0.175  0.4573  0.2893  0.3129
 1015MOL0     O36925   0.516   1.250   0.173 -0.4045  0.3907 -0.1265
 1015MOL0     C36926   0.393   1.246   0.244 -0.7498 -0.2862  0.0018
 1015MOL0     C36927   0.294   1.146   0.182  0.0994  0.3049  0.2134
 1015MOL0     C36928   0.160   1.161   0.255  0.4264  0.2222 -0.7159
 1015MOL0     C36929   0.066   1.038   0.246 -0.6755  0.5359  0.8206
 1015MOL0     C36930   0.068   0.972   0.100 -0.4722 -0.0202 -0.1465
 1015MOL0     C36931  -0.005   0.835   0.106  0.5648 -0.4782 -0.4278
 1015MOL0     C36932  -0.007   0.763  -0.026 -0.2351  0.3964  0.7370
 1015MOL0     C36933  -0.040   0.616   0.008 -0.9568  0.0959 -0.3593
 1015MOL0    Cl36934  -0.081   0.543  -0.150 -0.1113 -0.2750  0.4919
 1015MOL0     C36935   0.609   1.446   0.282  1.2007  0.0577 -0.9632
 1015MOL0     C36936   0.715   1.530   0.298  0.4410 -1.1981 -1.1545
 1015MOL0     O36937   0.836   1.779   0.081 -0.1249 -0.4250  0.5684
 1015MOL0     C36938   1.071   1.936   0.109 -0.4199  0.0802  1.1244
 1015MOL0     C36939   1.188   2.005   0.130  0.6584 -0.0385  0.6511
 1015MOL0     N36940   1.754   2.631   0.320  0.1706  0.1138  0.5484
 1015MOL0     N36941   1.855   2.698   0.266  0.3488  0.1000  0.1298
 1015MOL0     C36942   3.013   3.035   0.587  0.5258  0.1142  0.6283
 1015MOL0     C36943   3.138   3.087   0.613 -0.4086 -0.1276  0.7782
 1015MOL0     C36944   3.580   3.152   0.728  0.0266 -0.2687 -0.4022
 1015MOL0     C36945   3.617   3.246   0.829  0.7393  0.4596 -0.7490
 1015MOL0     C36946   3.747   3.303   0.831 -0.3098 -1.3408  0.9741
 1015MOL0     C36947   3.850   3.252   0.747  0.0741  0.4248  0.6805
 1015MOL0     O36948   3.965   3.324   0.747 -0.8502 -0.1734 -0.4240
 1015MOL0     C36949   4.052   3.323   0.633 -0.2170  0.7008 -0.1902
 1015MOL0     C36950   4.104   3.464   0.614  0.0234 -0.7747  0.1465
 1015MOL0     C36951   4.165   3.522   0.747  0.4855 -0.0837  0.2424
 1015MOL0     C36952   4.200   3.665   0.719  0.2534 -0.1840  0.3933
 1015MOL0     C36953   4.273   3.730   0.824  0.4449  0.0926  0.5045
 1015MOL0     C36954   4.339   3.787   0.908  0.7596  0.6395 -0.9990
 1015MOL0     C36955   3.818   3.141   0.659 -1.2320 -0.1226  0.3433
 1015MOL0     C36956   3.687   3.101   0.643 -0.2856 -1.5834  0.1162
 1015MOL0     C36957   3.668   2.992   0.541 -0.4058  0.0552  0.5250
 1015MOL0     H36958   3.332   2.815   0.597 -2.9388 -5.4913  0.3835
 1015MOL0     H36959   3.112   2.707   0.551  3.2314  0.4269 -1.5442
 1015MOL0     H36960   2.942   2.725   0.369  1.9726  0.9492  0.0434
 1015MOL0     H36961   2.901   2.658   0.529 -0.5067  3.2043  3.5470
 1015MOL0     H36962   2.672   2.686   0.485 -0.1195 -0.4784 -1.0024
 1015MOL0     H36963   2.743   2.617   0.328  1.0929  1.2745 -0.9333
 1015MOL0     H36964   2.735   2.875   0.290 -0.8609  0.6647 -1.3879
 1015MOL0     H36965   2.600   2.856   0.404 -0.7285 -1.4630  0.5155
 1015MOL0     H36966   2.519   2.833   0.161  2.0733  1.1275 -0.7925
 1015MOL0     H36967   2.612   2.684   0.142  0.5771 -2.0506  1.5721
 1015MOL0     H36968   2.473   2.564   0.304  0.8959  0.8519  0.7147
 1015MOL0     H36969   2.415   2.717   0.371  2.1676  0.5513 -0.0020
 1015MOL0     H36970   2.285   2.777   0.177  1.4280  1.0777  0.7978
 1015MOL0     H36971   2.329   2.616   0.105  1.0845 -1.6646  1.1534
 1015MOL0     H36972   2.161   2.683   0.356 -2.1520  1.0118 -0.6924
 1015MOL0     H36973   2.207   2.512   0.290 -1.9574  0.2084  3.5028
 1015MOL0     H36974   2.082   2.735   0.131 -1.1778 -1.4913 -2.7581
 1015MOL0     H36975   2.091   2.565   0.091 -0.0579  1.1016 -0.4039
 1015MOL0     H36976   1.947   2.384   0.241 -2.4909 -0.8371 -0.2721
 1015MOL0     H36977   1.755   2.316   0.414 -0.0563 -1.0462 -2.0204
 1015MOL0     H36978   1.627   2.433   0.451 -1.4072 -3.6509  1.1010
 1015MOL0     H36979   1.508   2.419   0.263  2.0990  0.9643 -2.1534
 1015MOL0     H36980   1.631   2.362   0.172 -2.4752 -0.9927 -0.4497
 1015MOL0     H36981   1.512   2.197   0.400  1.8424 -1.4461  1.3609
 1015MOL0     H36982   1.632   2.132   0.286  0.3831 -0.1672 -4.1612
 1015MOL0     H36983   1.459   2.162   0.094  0.6209  1.3193 -0.1054
 1015MOL0     H36984   1.351   2.232   0.218 -0.8050  0.5847 -3.4410
 1015MOL0     H36985   1.294   1.831   0.404 -1.4976  0.3528  1.5347
 1015MOL0     H36986   1.105   1.690   0.337 -1.4279  0.1640 -2.4541
 1015MOL0     H36987   0.881   1.452   0.014  0.4366 -1.1230 -0.1885
 1015MOL0     H36988   0.715   1.274   0.013  1.0760 -0.3302  0.7525
 1015MOL0     H36989   0.412   1.226   0.350 -0.4124  0.8803  0.1753
 1015MOL0     H36990   0.332   1.337   0.240 -2.6948 -1.5151  0.0428
 1015MOL0     H36991   0.291   1.181   0.079 -0.7639  0.6054  0.3285
 1015MOL0     H36992   0.338   1.049   0.208 -0.4740 -0.2478 -0.7885
 1015MOL0     H36993   0.164   1.181   0.363 -0.2728 -2.0399 -0.2322
 1015MOL0     H36994   0.107   1.247   0.212  1.6102  0.6983 -1.2729
 1015MOL0     H36995  -0.039   1.063   0.265 -1.3035 -2.1426  1.3665
 1015MOL0     H36996   0.096   0.963   0.320 -0.6306  0.5453  0.8121
 1015MOL0     H36997   0.170   0.964   0.061 -1.8737 -0.7683 -4.1114
 1015MOL0     H36998  -0.001   1.033   0.041 -1.7980 -1.6357 -0.3514
 1015MOL0     H36999   0.029   0.772   0.188  1.9378 -0.3769 -0.9069
 1015MOL0     H37000  -0.110   0.856   0.131  0.2497 -0.0889 -1.9556
 1015MOL0     H37001   0.089   0.762  -0.079  0.1596 -0.3463  1.4395
 1015MOL0     H37002  -0.083   0.810  -0.089 -1.6570  1.2264  2.9466
 1015MOL0     H37003   0.048   0.576   0.060 -1.2259 -1.4091 -1.0333
 1015MOL0     H37004  -0.122   0.594   0.077  0.9502 -0.8370  1.7598
 1015MOL0     H37005   0.535   1.433   0.360  2.4921  0.4405  0.3700
 1015MOL0     H37006   0.708   1.590   0.388  1.1660 -2.6370 -0.1055
 1015MOL0     H37007   1.001   1.981   0.039  2.6181  1.5335 -1.2106
 1015MOL0     H37008   1.209   2.094   0.070 -0.9326 -0.9807 -1.4473
 1015MOL0     H37009   2.936   3.110   0.574 -1.6770 -2.4141 -2.3578
 1015MOL0     H37010   3.131   3.195   0.628 -2.9643 -0.1052 -0.0615
 1015MOL0     H37011   3.535   3.271   0.895  0.6953  0.5667 -0.8438
 1015MOL0     H37012   3.767   3.385   0.900  0.2856 -1.1641  0.5975
 1015MOL0     H37013   4.001   3.295   0.540  2.2622  0.4465 -1.5453
 1015MOL0     H37014   4.132   3.251   0.654 -1.8033 -1.4407 -1.0362
 1015MOL0     H37015   4.020   3.527   0.584  2.0575  1.3105 -1.5049
 1015MOL0     H37016   4.186   3.466   0.542  1.6781 -1.2882  1.9116
 1015MOL0     H37017   4.257   3.467   0.771  1.9522  2.2087  0.2192
 1015MOL0     H37018   4.097   3.515   0.832 -0.4189  1.6786 -0.2700
 1015MOL0     H37019   4.262   3.664   0.629 -1.7753 -1.7372 -1.1141
 1015MOL0     H37020   4.114   3.728   0.693  0.5769  0.2017  0.2643
 1015MOL0     H37021   4.386   3.850   0.981  0.7042  1.6553 -1.8154
 1015MOL0     H37022   3.893   3.098   0.593 -2.1152 -2.3944  0.7136
 1015MOL0     H37023   3.753   2.992   0.472 -1.5295  1.3654 -0.9130
 1015MOL0     H37024   3.663   2.893   0.588 -0.8585  0.6954  1.8708
 1015MOL0     H37025   3.582   3.015   0.478 -0.1594 -2.8373 -1.0469
 1016MOL0     O37026   9.573   5.310   5.700 -0.1631  0.0740 -0.9605
 1016MOL0     C37027   9.458   5.349   5.724 -0.2755 -0.0624  0.7742
 1016MOL0     O37028   9.413   5.436   5.812  0.8246  0.5625  0.2793
 1016MOL0     C37029   9.495   5.488   5.908  0.9856  0.0967 -0.4903
 1016MOL0     C37030   9.612   5.573   5.869 -0.2992 -0.2518  0.1224
 1016MOL0     C37031   9.701   5.619   5.970 -0.3985 -0.1989  0.3996
 1016MOL0     C37032   9.675   5.591   6.102 -0.5301  0.7895  0.6898
 1016MOL0     O37033   9.754   5.642   6.203  0.5999 -0.7218 -0.4134
 1016MOL0     C37034   9.886   5.714   6.200  1.0547 -0.3727  0.3720
 1016MOL0     C37035   9.991   5.615   6.154  0.0795  0.1710  0.8847
 1016MOL0     C37036  10.133   5.663   6.152  0.4030  0.6976  0.0356
 1016MOL0     C37037  10.222   5.540   6.117  0.5133 -0.5476 -0.1057
 1016MOL0     C37038  10.346   5.554   6.187  0.2766 -0.4565 -0.5539
 1016MOL0     C37039  10.417   5.684   6.130  1.4231  0.4059 -0.7643
 1016MOL0     C37040  10.562   5.664   6.127 -0.1468 -0.1285  0.1968
 1016MOL0     C37041  10.630   5.799   6.160  0.3999 -0.0604 -0.6322
 1016MOL0     N37042  10.772   5.795   6.191  0.0976 -0.5343 -0.6883
 1016MOL0     C37043  10.832   5.710   6.277 -0.8399 -0.4219 -0.5502
 1016MOL0     C37044  10.962   5.751   6.254  0.1499  0.0865 -0.2930
 1016MOL0     C37045  11.084   5.707   6.339 -0.1735 -0.0917  0.2370
 1016MOL0     C37046  11.145   5.822   6.423  0.2444 -0.3165 -0.4187
 1016MOL0     C37047  11.261   5.765   6.510  0.0861 -0.3579  0.1654
 1016MOL0     C37048  11.321   5.877   6.597  0.1632  0.2107  0.0660
 1016MOL0     O37049  11.252   5.892   6.719  0.3739 -0.4216 -0.4321
 1016MOL0     C37050  11.331   5.935   6.828  0.1538  0.1272  0.1257
 1016MOL0     C37051  11.368   5.853   6.928  0.2596 -0.4997 -0.2385
 1016MOL0     C37052  11.442   5.900   7.032 -0.2162 -0.3285  0.4927
 1016MOL0     C37053  11.497   6.026   7.039  0.0444  0.0493  0.0972
 1016MOL0     C37054  11.575   6.074   7.156  0.2339  0.0856 -0.3079
 1016MOL0     O37055  11.636   6.192   7.144  1.3956  0.4896 -0.8285
 1016MOL0     C37056  11.699   6.259   7.252  0.4711 -0.8962  0.4044
 1016MOL0     C37057  11.789   6.203   7.339 -0.3490  0.2031  0.0636
 1016MOL0     C37058  11.845   6.271   7.453  1.1506 -0.5229  0.1091
 1016MOL0     C37059  11.806   6.401   7.476 -0.3067  0.1050 -0.7195
 1016MOL0     O37060  11.854   6.481   7.581  0.6070  0.3694 -0.2509
 1016MOL0     C37061  11.995   6.457   7.618 -0.1893  0.7391  0.1771
 1016MOL0     C37062  12.051   6.585   7.676  0.5090 -0.8602 -0.0577
 1016MOL0     C37063  12.181   6.550   7.751  0.1300  0.1625 -0.0349
 1016MOL0     C37064  12.193   6.631   7.886  0.3068  0.2411 -0.4517
 1016MOL0     C37065  12.122   6.562   8.004  0.6467  0.4491 -0.9358
 1016MOL0     C37066  12.098   6.641   8.134 -0.3775 -0.3823 -0.3677
 1016MOL0     C37067  12.234   6.686   8.186  0.4308  0.9141  0.0272
 1016MOL0     C37068  12.240   6.737   8.328  0.8280  0.4951 -0.5909
 1016MOL0    Cl37069  12.180   6.619   8.444  0.5242  0.1664  0.4083
 1016MOL0     C37070  11.725   6.465   7.379  0.3056 -0.5210  0.5785
 1016MOL0     C37071  11.676   6.395   7.268 -0.4783  0.4266  0.0754
 1016MOL0     O37072  11.570   6.010   7.259  0.3045  0.2665 -0.4539
 1016MOL0     C37073  11.466   6.114   6.926  0.2181  0.3142 -0.4954
 1016MOL0     C37074  11.379   6.065   6.820 -0.1616  0.5809  0.2457
 1016MOL0     N37075  10.972   5.836   6.149 -1.1919  0.0502 -0.4799
 1016MOL0     N37076  10.855   5.856   6.107  0.0341  0.1446 -0.3280
 1016MOL0     C37077   9.554   5.526   6.137 -0.6573 -0.2495 -1.0229
 1016MOL0     C37078   9.466   5.469   6.045 -0.2211  0.0790  0.7186
 1016MOL0     C37079   9.359   5.288   5.635 -0.4173 -1.1379 -0.1004
 1016MOL0     C37080   9.236   5.261   5.691  0.8328  0.4220 -0.3812
 1016MOL0     C37081   9.133   5.194   5.620 -0.7392  0.1983 -0.1506
 1016MOL0     C37082   9.151   5.149   5.493  0.3658  0.3181  0.7229
 1016MOL0     O37083   9.042   5.101   5.438 -0.5538 -0.1967  0.8064
 1016MOL0     C37084   9.036   5.098   5.291  0.3083 -0.0132  0.3653
 1016MOL0     C37085   8.895   5.075   5.248 -0.5369  0.7422  0.4572
 1016MOL0     C37086   8.831   4.952   5.292 -0.0996  0.3142  0.1593
 1016MOL0     C37087   8.686   4.929   5.232 -1.1562 -0.1042 -0.2441
 1016MOL0     C37088   8.627   4.832   5.332 -0.6785 -0.2708  0.5714
 1016MOL0     C37089   8.568   4.764   5.412  0.4680  0.5343  0.2438
 1016MOL0     C37090   9.280   5.171   5.437 -0.2792 -0.1545 -0.8950
 1016MOL0     C37091   9.385   5.240   5.499 -0.2403 -0.9538 -0.0158
 1016MOL0     C37092   9.512   5.261   5.421  0.5010  0.0331 -0.2171
 1016MOL0     H37093   9.634   5.586   5.764  2.0861 -0.9365  0.4671
 1016MOL0     H37094   9.793   5.674   5.957  1.0919 -2.1635  2.0306
 1016MOL0     H37095   9.878   5.805   6.140 -1.3180  0.3752  1.6739
 1016MOL0     H37096   9.911   5.753   6.299  1.0555  0.7983 -0.0698
 1016MOL0     H37097   9.983   5.605   6.045  2.2925  5.7248 -0.1468
 1016MOL0     H37098   9.974   5.520   6.205 -1.9368 -0.0968 -0.1779
 1016MOL0     H37099  10.140   5.691   6.257 -3.5122 -3.2664  1.6675
 1016MOL0     H37100  10.150   5.751   6.089 -3.2034  0.5142 -1.4457
 1016MOL0     H37101  10.166   5.450   6.144  0.1364 -0.4328 -0.4965
 1016MOL0     H37102  10.246   5.535   6.010 -0.3418  2.2139 -0.4998
 1016MOL0     H37103  10.326   5.574   6.292  4.2165 -1.0627  0.4473
 1016MOL0     H37104  10.406   5.464   6.173 -0.8434 -1.1578 -0.9553
 1016MOL0     H37105  10.388   5.699   6.026  1.2262 -0.1282 -0.7850
 1016MOL0     H37106  10.386   5.776   6.181 -0.3931 -0.3503 -0.4597
 1016MOL0     H37107  10.604   5.613   6.040 -1.9214  0.4350 -1.0464
 1016MOL0     H37108  10.586   5.599   6.211  2.0075 -1.8277 -1.6387
 1016MOL0     H37109  10.612   5.874   6.082 -1.3547 -0.2198 -0.4268
 1016MOL0     H37110  10.577   5.834   6.250  2.2981 -0.1406  0.5793
 1016MOL0     H37111  10.782   5.647   6.350 -2.8823  1.0053 -0.6273
 1016MOL0     H37112  11.055   5.620   6.400 -0.0011 -2.3084 -2.6252
 1016MOL0     H37113  11.163   5.675   6.271 -0.4642 -1.0494  0.3288
 1016MOL0     H37114  11.166   5.905   6.356  0.3028  1.2497  1.4490
 1016MOL0     H37115  11.077   5.870   6.495 -1.2130 -1.4991 -0.9379
 1016MOL0     H37116  11.337   5.725   6.443 -1.5663 -5.9172  1.0756
 1016MOL0     H37117  11.230   5.683   6.575  1.0228  0.0331  1.1433
 1016MOL0     H37118  11.312   5.971   6.541  0.3146  0.4502  0.4349
 1016MOL0     H37119  11.426   5.853   6.615 -0.6219 -1.9071  2.3553
 1016MOL0     H37120  11.320   5.756   6.922 -3.4935  1.1951 -0.9727
 1016MOL0     H37121  11.460   5.838   7.119 -1.8125  1.2953  2.0802
 1016MOL0     H37122  11.816   6.100   7.321 -0.4325 -0.0485  1.2884
 1016MOL0     H37123  11.919   6.222   7.516  0.1165 -1.5265  0.5858
 1016MOL0     H37124  11.987   6.378   7.694 -0.0233  0.3380 -0.2176
 1016MOL0     H37125  12.062   6.426   7.537  0.4267  1.0705  0.5541
 1016MOL0     H37126  12.076   6.659   7.600  1.6613  0.9621  1.9803
 1016MOL0     H37127  11.977   6.629   7.743  1.1458  1.2491 -0.6347
 1016MOL0     H37128  12.203   6.444   7.764  0.5024  0.5612  3.7003
 1016MOL0     H37129  12.260   6.585   7.682 -0.5830  2.6673  0.3050
 1016MOL0     H37130  12.172   6.738   7.880  1.9426  0.5175 -2.0746
 1016MOL0     H37131  12.298   6.634   7.916  0.9268  0.2446 -2.4754
 1016MOL0     H37132  12.173   6.468   8.023 -2.3960 -1.6585 -2.3462
 1016MOL0     H37133  12.030   6.532   7.952 -0.3626  1.1960  0.3345
 1016MOL0     H37134  12.035   6.726   8.110 -3.3018 -1.2410  3.2571
 1016MOL0     H37135  12.045   6.584   8.211  1.1566 -2.0151 -0.4262
 1016MOL0     H37136  12.269   6.770   8.125 -1.1626 -0.1213 -2.4693
 1016MOL0     H37137  12.305   6.603   8.175  0.8535  0.8203  2.7008
 1016MOL0     H37138  12.339   6.773   8.357 -0.5534  2.4523  2.1413
 1016MOL0     H37139  12.176   6.825   8.328 -0.0036  0.0546 -4.3570
 1016MOL0     H37140  11.691   6.568   7.388  2.0347  0.2804 -1.3135
 1016MOL0     H37141  11.610   6.440   7.194  2.0976 -2.0418 -4.2172
 1016MOL0     H37142  11.501   6.216   6.915 -1.0117  1.4646  4.0827
 1016MOL0     H37143  11.344   6.125   6.737 -3.3630 -2.9060 -1.2332
 1016MOL0     H37144   9.531   5.507   6.241  0.5806  1.6582 -0.3347
 1016MOL0     H37145   9.384   5.406   6.079 -0.1189 -0.5735 -0.2111
 1016MOL0     H37146   9.210   5.288   5.793 -0.8624  1.3652 -1.0254
 1016MOL0     H37147   9.039   5.176   5.670 -0.2632 -1.0810  0.3443
 1016MOL0     H37148   9.084   5.011   5.245 -2.9408 -1.2952 -0.8949
 1016MOL0     H37149   9.083   5.190   5.252  1.0352 -0.7994 -0.6935
 1016MOL0     H37150   8.897   5.071   5.139 -1.4415 -2.4697  0.4565
 1016MOL0     H37151   8.843   5.167   5.277  3.8992  3.7841 -0.1558
 1016MOL0     H37152   8.813   4.970   5.399 -1.6820  3.0193 -0.4719
 1016MOL0     H37153   8.890   4.860   5.288  3.0435  2.1993  0.5534
 1016MOL0     H37154   8.628   5.021   5.224 -1.5291 -0.4053 -1.1248
 1016MOL0     H37155   8.696   4.887   5.131  0.9784 -0.8401  0.2126
 1016MOL0     H37156   8.523   4.696   5.480  1.8153 -0.5154  0.1138
 1016MOL0     H37157   9.300   5.125   5.341  0.6613 -0.0444 -0.7626
 1016MOL0     H37158   9.509   5.198   5.331  3.2348 -0.4035 -0.0692
 1016MOL0     H37159   9.533   5.367   5.407  2.2798  0.0116  1.8165
 1016MOL0     H37160   9.598   5.235   5.483 -1.4783 -0.0553  2.6688
 1017MOL0     O37161   1.870   5.517   2.303  1.2344 -0.0105 -0.6341
 1017MOL0     C37162   1.942   5.449   2.366 -0.4438 -0.1681 -0.3044
 1017MOL0     O37163   1.903   5.359   2.466  0.1817 -0.1183  0.5501
 1017MOL0     C37164   1.770   5.361   2.497  0.1632 -0.6964  0.6443
 1017MOL0     C37165   1.691   5.273   2.427  0.4959  0.1638  0.4576
 1017MOL0     C37166   1.550   5.274   2.443  0.4301 -0.2686  0.1908
 1017MOL0     C37167   1.486   5.380   2.511 -0.0406  0.8554  0.7831
 1017MOL0     O37168   1.356   5.411   2.522 -0.2863  0.7459 -0.4227
 1017MOL0     C37169   1.293   5.436   2.395  0.1573 -0.2379  0.2166
 1017MOL0     C37170   1.147   5.384   2.421 -0.4689  0.1439  1.1884
 1017MOL0     C37171   1.149   5.237   2.368 -0.3489  0.7652 -0.8102
 1017MOL0     C37172   1.008   5.175   2.354  0.0706 -0.0704 -0.5859
 1017MOL0     C37173   1.010   5.037   2.296  0.2209 -0.7428  0.1775
 1017MOL0     C37174   0.880   4.968   2.314  0.3722  1.2173 -0.4817
 1017MOL0     C37175   0.878   4.823   2.252  0.0519  0.6948 -0.5973
 1017MOL0     C37176   0.759   4.736   2.286  0.3290  0.0383 -0.9199
 1017MOL0     N37177   0.644   4.780   2.209  0.0162  0.7987 -0.0575
 1017MOL0     C37178   0.581   4.905   2.213 -0.5591 -0.5014 -0.5204
 1017MOL0     C37179   0.483   4.886   2.131 -0.3453 -0.1208 -0.8001
 1017MOL0     C37180   0.401   5.001   2.086 -0.1997  0.0787 -0.2194
 1017MOL0     C37181   0.249   4.972   2.116 -0.2751 -1.6069 -0.0906
 1017MOL0     C37182   0.175   5.109   2.107  0.3725  0.1655 -0.1076
 1017MOL0     C37183   0.146   5.139   1.959  0.9251  0.8376 -0.0017
 1017MOL0     O37184   0.060   5.257   1.963  0.6162  0.2929 -0.4773
 1017MOL0     C37185   0.071   5.324   1.847 -0.0190  0.4454  0.6976
 1017MOL0     C37186  -0.017   5.289   1.746 -0.3776  0.3795  0.7116
 1017MOL0     C37187  -0.028   5.350   1.619 -0.4006 -0.7671  0.0721
 1017MOL0     C37188   0.053   5.465   1.602  0.2545  0.0142 -0.2442
 1017MOL0     C37189   0.054   5.533   1.475 -1.2453  0.2949 -0.0804
 1017MOL0     O37190  -0.048   5.504   1.397 -0.7363  0.3207  0.6852
 1017MOL0     C37191  -0.051   5.557   1.276 -0.3167  0.0786 -0.0094
 1017MOL0     C37192  -0.001   5.499   1.162  0.3812  0.3815 -0.3169
 1017MOL0     C37193  -0.014   5.558   1.037  0.9472 -0.0253  0.0683
 1017MOL0     C37194  -0.078   5.685   1.027  0.1619  0.9667  0.6123
 1017MOL0     O37195  -0.089   5.738   0.906  0.8323  0.1515 -0.4686
 1017MOL0     C37196  -0.150   5.659   0.810  0.6438 -0.1315  0.4996
 1017MOL0     C37197  -0.298   5.688   0.809  0.0406  0.4301  0.2977
 1017MOL0     C37198  -0.368   5.554   0.812 -0.6019  0.8638 -0.0875
 1017MOL0     C37199  -0.523   5.562   0.827 -0.9454 -0.3591  0.8034
 1017MOL0     C37200  -0.596   5.531   0.691 -0.4715 -0.7947 -0.0605
 1017MOL0     C37201  -0.544   5.632   0.579  1.1141 -0.5889 -0.0346
 1017MOL0     C37202  -0.626   5.648   0.447 -0.5658  0.3032 -0.1509
 1017MOL0     C37203  -0.774   5.633   0.476  0.1454  0.2414 -0.1851
 1017MOL0    Cl37204  -0.828   5.460   0.477 -0.5623  0.0841 -0.3359
 1017MOL0     C37205  -0.133   5.734   1.143 -0.4176 -0.3002 -0.3115
 1017MOL0     C37206  -0.133   5.663   1.258 -0.2712 -0.0002 -0.4703
 1017MOL0     O37207   0.155   5.596   1.442  0.6329  0.2434  0.9244
 1017MOL0     C37208   0.144   5.498   1.703 -0.8404  0.8475  0.4996
 1017MOL0     C37209   0.151   5.435   1.827  0.2468  0.0290 -0.6800
 1017MOL0     N37210   0.476   4.757   2.084  0.2002 -0.0587  0.3377
 1017MOL0     N37211   0.572   4.693   2.141 -0.2757  0.4480  0.2783
 1017MOL0     C37212   1.565   5.459   2.590 -0.6708  0.8072 -0.1406
 1017MOL0     C37213   1.702   5.447   2.593 -0.2376  0.3531  1.2238
 1017MOL0     C37214   2.083   5.452   2.333 -0.1529 -0.7182  0.2064
 1017MOL0     C37215   2.150   5.334   2.325  0.2176  0.3294 -0.4419
 1017MOL0     C37216   2.280   5.328   2.291 -0.3910 -0.0273  0.3249
 1017MOL0     C37217   2.353   5.436   2.249  0.5296  1.2711 -1.0214
 1017MOL0     O37218   2.478   5.398   2.205  0.2306 -0.3784 -0.7862
 1017MOL0     C37219   2.484   5.418   2.065  0.1862 -0.2711  1.1319
 1017MOL0     C37220   2.619   5.465   2.012 -0.1737  0.4434  0.6036
 1017MOL0     C37221   2.692   5.547   2.111  0.6440 -1.0514 -0.3339
 1017MOL0     C37222   2.825   5.595   2.050 -0.1457  0.6506  0.9621
 1017MOL0     C37223   2.923   5.630   2.147  0.6780 -0.3525 -0.3499
 1017MOL0     C37224   3.012   5.649   2.234 -0.1622  0.8792  0.4338
 1017MOL0     C37225   2.294   5.557   2.249 -0.3570 -0.2705  1.0689
 1017MOL0     C37226   2.163   5.568   2.298  0.3494  0.5908 -0.1887
 1017MOL0     C37227   2.101   5.699   2.321 -0.3810  0.2775 -0.9944
 1017MOL0     H37228   1.730   5.196   2.362  1.0283  1.7995 -1.2811
 1017MOL0     H37229   1.475   5.214   2.392 -1.0116  1.7831 -0.2576
 1017MOL0     H37230   1.284   5.542   2.368 -1.5232 -0.8960 -2.1784
 1017MOL0     H37231   1.351   5.390   2.314 -1.6309 -1.9427 -0.1702
 1017MOL0     H37232   1.070   5.430   2.357  0.6196 -0.5466 -0.7175
 1017MOL0     H37233   1.126   5.403   2.526 -1.7849 -2.8016  1.5656
 1017MOL0     H37234   1.211   5.180   2.438 -1.3982 -1.1428 -1.3554
 1017MOL0     H37235   1.190   5.238   2.266  0.6747  2.1113 -0.4070
 1017MOL0     H37236   0.941   5.169   2.441 -0.4029  2.2571 -0.7340
 1017MOL0     H37237   0.960   5.245   2.285  1.8451  0.1891 -1.6095
 1017MOL0     H37238   1.035   5.039   2.189 -0.4503 -0.2318  0.0240
 1017MOL0     H37239   1.092   4.986   2.348  0.7911  1.0428  1.1066
 1017MOL0     H37240   0.854   4.959   2.420  0.8799 -2.8014 -0.5547
 1017MOL0     H37241   0.807   5.026   2.258  0.2759 -0.8720 -2.6897
 1017MOL0     H37242   0.968   4.772   2.285  0.6358  0.7895 -1.9589
 1017MOL0     H37243   0.902   4.835   2.146  0.1331 -2.0808 -0.9693
 1017MOL0     H37244   0.782   4.630   2.271 -3.7720 -0.9986 -1.2902
 1017MOL0     H37245   0.734   4.745   2.392  0.4575 -3.6964 -0.4376
 1017MOL0     H37246   0.611   4.995   2.266  1.4370 -0.0475 -2.2970
 1017MOL0     H37247   0.429   5.095   2.135 -2.0940  1.0884 -0.9856
 1017MOL0     H37248   0.407   5.020   1.979 -3.6636 -0.1136 -0.5647
 1017MOL0     H37249   0.200   4.902   2.047 -2.0099  2.5092 -3.4880
 1017MOL0     H37250   0.253   4.943   2.221 -0.3148 -0.9963  0.0819
 1017MOL0     H37251   0.241   5.181   2.155  0.3686 -0.5866  1.0607
 1017MOL0     H37252   0.077   5.089   2.153  0.0025 -0.5552 -1.1580
 1017MOL0     H37253   0.080   5.057   1.929 -0.8738  0.9197  3.2717
 1017MOL0     H37254   0.230   5.130   1.889  0.1403 -2.1395 -0.7325
 1017MOL0     H37255  -0.096   5.217   1.768  0.0742  0.0665  1.3290
 1017MOL0     H37256  -0.098   5.318   1.542 -2.3207  2.8170  0.1489
 1017MOL0     H37257   0.063   5.413   1.176 -1.9881 -1.3952  0.1011
 1017MOL0     H37258   0.038   5.524   0.948 -1.2226  4.3902 -3.2564
 1017MOL0     H37259  -0.115   5.694   0.713 -0.1139 -0.2539  0.1733
 1017MOL0     H37260  -0.139   5.550   0.810 -1.8385 -0.4667  1.9144
 1017MOL0     H37261  -0.336   5.746   0.893 -0.0409  1.2590 -0.2989
 1017MOL0     H37262  -0.330   5.730   0.713 -2.0941 -0.0232  0.7593
 1017MOL0     H37263  -0.350   5.506   0.715 -1.1695 -0.3963  0.4105
 1017MOL0     H37264  -0.323   5.494   0.892 -2.0126 -1.2422 -0.7847
 1017MOL0     H37265  -0.543   5.663   0.864  0.2190 -0.0778  0.7156
 1017MOL0     H37266  -0.564   5.487   0.896 -0.3367  0.7200  2.4039
 1017MOL0     H37267  -0.704   5.544   0.704 -0.6639  2.4618 -3.2285
 1017MOL0     H37268  -0.567   5.431   0.659  0.4259 -1.1396  1.7071
 1017MOL0     H37269  -0.522   5.729   0.625  1.0166 -1.6239  2.3369
 1017MOL0     H37270  -0.450   5.585   0.548  0.4071 -1.3417 -1.1341
 1017MOL0     H37271  -0.579   5.573   0.382  1.0756  1.0536  0.0979
 1017MOL0     H37272  -0.610   5.751   0.415 -3.3361  0.8395  0.0170
 1017MOL0     H37273  -0.804   5.687   0.566  0.5237 -1.1618  0.8089
 1017MOL0     H37274  -0.824   5.687   0.395  1.3957  0.1911 -1.0201
 1017MOL0     H37275  -0.192   5.825   1.130 -2.0952 -1.1355  1.0012
 1017MOL0     H37276  -0.177   5.701   1.350  1.5270 -1.5835  1.1496
 1017MOL0     H37277   0.221   5.569   1.676 -0.3028 -0.4829 -1.7716
 1017MOL0     H37278   0.221   5.459   1.906 -0.0926  0.0569 -0.3856
 1017MOL0     H37279   1.513   5.528   2.656 -2.2085 -3.3856  3.5106
 1017MOL0     H37280   1.765   5.512   2.653  1.5625 -2.0358  2.1136
 1017MOL0     H37281   2.088   5.259   2.373  0.2288  0.9112  0.5079
 1017MOL0     H37282   2.331   5.232   2.292  1.0845  0.7247 -0.7397
 1017MOL0     H37283   2.413   5.494   2.033  0.0842 -1.3657 -1.5119
 1017MOL0     H37284   2.462   5.323   2.014 -0.1705  0.6786 -0.5425
 1017MOL0     H37285   2.588   5.521   1.923 -2.7582 -2.9377 -0.8794
 1017MOL0     H37286   2.674   5.372   1.993  0.6371  0.7529  1.3689
 1017MOL0     H37287   2.716   5.480   2.195 -0.2972 -0.2569  0.6060
 1017MOL0     H37288   2.623   5.628   2.136 -1.0505 -2.0700 -1.5135
 1017MOL0     H37289   2.865   5.515   1.988 -0.4920  2.8253 -2.3342
 1017MOL0     H37290   2.810   5.684   1.987  0.2609 -1.0955 -1.7585
 1017MOL0     H37291   3.088   5.657   2.308 -2.9254  0.6511  3.5310
 1017MOL0     H37292   2.344   5.645   2.209  1.5729 -1.9625 -0.4483
 1017MOL0     H37293   2.015   5.717   2.255  0.3011  2.3704 -1.3742
 1017MOL0     H37294   2.060   5.708   2.422  1.3928 -2.2165  0.0363
 1017MOL0     H37295   2.171   5.781   2.306  0.2298  0.0426  0.4037
 1018MOL0     O37296  11.145   2.098   3.071 -0.2963  0.2585  0.0533
 1018MOL0     C37297  11.186   2.065   3.181 -0.2610 -0.4240 -0.2335
 1018MOL0     O37298  11.122   1.975   3.259  0.0345  1.1422 -0.9731
 1018MOL0     C37299  11.001   1.919   3.222 -0.5783 -0.1802 -0.0665
 1018MOL0     C37300  10.905   1.898   3.321 -0.1621 -0.7488  0.1671
 1018MOL0     C37301  10.776   1.837   3.295  0.0727 -0.1211  0.3519
 1018MOL0     C37302  10.739   1.811   3.166  0.7871 -0.5821 -0.9683
 1018MOL0     O37303  10.622   1.733   3.167 -0.0920  0.3964  0.0359
 1018MOL0     C37304  10.582   1.669   3.047 -0.8568 -0.0727 -0.2948
 1018MOL0     C37305  10.436   1.605   3.065  0.2505 -0.3737  0.4201
 1018MOL0     C37306  10.422   1.485   2.972 -0.1818  0.3020 -0.9698
 1018MOL0     C37307  10.293   1.406   3.004 -0.7433  0.2439  0.3148
 1018MOL0     C37308  10.267   1.285   2.917 -0.0752  0.3140  0.3915
 1018MOL0     C37309  10.360   1.175   2.964  0.3336 -0.2444 -0.0339
 1018MOL0     C37310  10.351   1.049   2.867  0.9874  0.5160 -0.3324
 1018MOL0     C37311  10.215   0.984   2.850 -0.3323  0.8441 -0.5917
 1018MOL0     N37312  10.229   0.877   2.742 -1.4371  0.3218  0.8225
 1018MOL0     C37313  10.243   0.748   2.787  0.3213  0.8414  0.3898
 1018MOL0     C37314  10.238   0.677   2.668 -0.1873 -0.2566 -0.6068
 1018MOL0     C37315  10.220   0.522   2.663  0.0076  0.4092 -0.0356
 1018MOL0     C37316  10.094   0.484   2.741 -0.3260 -0.2873 -0.3726
 1018MOL0     C37317  10.072   0.340   2.726  0.7160  0.6411 -0.4327
 1018MOL0     C37318   9.927   0.299   2.764 -0.7130  0.0237  0.0057
 1018MOL0     O37319   9.899   0.314   2.906  0.9176  1.2424  0.3359
 1018MOL0     C37320   9.988   0.250   2.986  0.0173  0.6748  0.1045
 1018MOL0     C37321   9.986   0.112   2.978  0.6937  0.0116 -0.3358
 1018MOL0     C37322  10.077   0.038   3.055  0.1237 -0.4351  0.1611
 1018MOL0     C37323  10.159   0.103   3.145  0.2644  0.2047 -0.3698
 1018MOL0     C37324  10.263   0.031   3.221  0.0933  1.2252 -0.3858
 1018MOL0     O37325  10.367   0.112   3.278  0.2198  0.7062 -0.1984
 1018MOL0     C37326  10.484   0.068   3.336  0.4076 -0.5455 -0.8393
 1018MOL0     C37327  10.566   0.174   3.368  0.1193 -0.5364 -0.1009
 1018MOL0     C37328  10.683   0.150   3.435  0.9273 -0.5276  0.8994
 1018MOL0     C37329  10.735   0.030   3.452 -0.7532  0.8723 -0.3999
 1018MOL0     O37330  10.865  -0.016   3.494  0.6274  0.6112 -0.2131
 1018MOL0     C37331  10.964   0.086   3.481  0.0487 -1.0171 -0.1299
 1018MOL0     C37332  11.104   0.030   3.487  0.3041  0.7006  0.2425
 1018MOL0     C37333  11.134  -0.013   3.632 -0.2596 -0.3932 -1.0530
 1018MOL0     C37334  11.137   0.101   3.738  0.5030 -0.1034 -0.0775
 1018MOL0     C37335  11.212   0.065   3.864  0.1674  0.4139 -0.1491
 1018MOL0     C37336  11.363   0.034   3.843  0.5503 -0.2947 -0.1801
 1018MOL0     C37337  11.435   0.016   3.978 -0.4169 -0.7823  0.3990
 1018MOL0     C37338  11.592  -0.001   3.964 -0.1815 -0.3963  0.3204
 1018MOL0    Cl37339  11.625  -0.168   3.903  0.2448 -0.4383 -0.5212
 1018MOL0     C37340  10.656  -0.077   3.410  0.1736 -0.3765 -0.9157
 1018MOL0     C37341  10.526  -0.059   3.364  0.0680  0.0906 -0.4785
 1018MOL0     O37342  10.253  -0.093   3.229 -0.5528  0.3115  0.1878
 1018MOL0     C37343  10.154   0.242   3.154 -0.6170 -0.0297 -0.1299
 1018MOL0     C37344  10.075   0.323   3.069 -0.2576  0.1115  0.1071
 1018MOL0     N37345  10.229   0.760   2.560 -0.2702  0.1584 -0.0573
 1018MOL0     N37346  10.230   0.884   2.613 -0.1191 -0.0466  1.2500
 1018MOL0     C37347  10.833   1.832   3.063  0.3663 -0.9993  0.1261
 1018MOL0     C37348  10.961   1.885   3.090  0.2609  0.2803 -0.0689
 1018MOL0     C37349  11.306   2.131   3.237  0.0855 -0.5450 -0.0734
 1018MOL0     C37350  11.333   2.096   3.372  0.3319 -0.5083  0.0455
 1018MOL0     C37351  11.449   2.137   3.442  0.8105 -0.9850  0.5584
 1018MOL0     C37352  11.536   2.218   3.379 -0.6158  0.9771 -0.5101
 1018MOL0     O37353  11.645   2.263   3.453  0.8225 -0.2977  0.0239
 1018MOL0     C37354  11.766   2.305   3.394 -0.3542 -0.5345  0.7535
 1018MOL0     C37355  11.842   2.352   3.513 -0.2650 -0.1811 -0.6069
 1018MOL0     C37356  11.779   2.463   3.595 -0.3198 -0.7619 -0.0408
 1018MOL0     C37357  11.701   2.406   3.712 -0.0297  0.0309 -0.4767
 1018MOL0     C37358  11.573   2.477   3.744  0.1041 -0.4607 -0.8011
 1018MOL0     C37359  11.477   2.546   3.773 -0.2068  0.7894 -0.2583
 1018MOL0     C37360  11.518   2.245   3.244 -0.2858  0.8159 -0.4849
 1018MOL0     C37361  11.398   2.210   3.177  0.1517 -0.9894  0.5627
 1018MOL0     C37362  11.408   2.243   3.031 -0.0474  0.0463 -0.0327
 1018MOL0     H37363  10.941   1.913   3.423 -1.3890  0.7945  0.3969
 1018MOL0     H37364  10.706   1.814   3.374  1.2189  1.5529  1.9501
 1018MOL0     H37365  10.588   1.742   2.965  2.3540 -0.2747 -0.3795
 1018MOL0     H37366  10.655   1.589   3.032  0.0972  0.6061  0.5676
 1018MOL0     H37367  10.362   1.676   3.025 -1.5792 -3.3652 -1.8832
 1018MOL0     H37368  10.414   1.576   3.168 -2.2689 -0.1607 -0.0020
 1018MOL0     H37369  10.511   1.422   2.985 -0.6069 -0.2840 -0.8509
 1018MOL0     H37370  10.424   1.514   2.867  1.0743 -1.5305 -1.5016
 1018MOL0     H37371  10.282   1.386   3.112 -2.3289  3.5474  0.9116
 1018MOL0     H37372  10.214   1.475   2.974 -1.8357  0.0439  2.4723
 1018MOL0     H37373  10.163   1.255   2.933  0.0356 -0.5056 -0.3374
 1018MOL0     H37374  10.292   1.305   2.812 -0.1372 -0.2864  0.2546
 1018MOL0     H37375  10.463   1.212   2.961  0.0798  0.5337  0.5745
 1018MOL0     H37376  10.321   1.156   3.065 -0.7195  0.4952 -0.2938
 1018MOL0     H37377  10.427   0.973   2.891 -0.0996 -0.5786 -0.2729
 1018MOL0     H37378  10.386   1.080   2.768  0.9069  0.6470 -0.3196
 1018MOL0     H37379  10.171   0.928   2.933  0.1955 -0.5397 -1.2215
 1018MOL0     H37380  10.146   1.058   2.807  0.1954  1.8453  0.2318
 1018MOL0     H37381  10.246   0.722   2.892  0.9003  1.4511  0.5285
 1018MOL0     H37382  10.208   0.501   2.556 -2.3433 -0.6252  0.3662
 1018MOL0     H37383  10.311   0.475   2.700  0.3616  0.0742 -1.2706
 1018MOL0     H37384  10.111   0.502   2.848 -1.6354 -3.4377  0.4639
 1018MOL0     H37385  10.005   0.534   2.701  0.2776 -1.7757 -3.9318
 1018MOL0     H37386  10.148   0.282   2.780 -0.4537  1.6403  2.5040
 1018MOL0     H37387  10.075   0.319   2.619 -0.6915  0.2956 -0.4192
 1018MOL0     H37388   9.911   0.193   2.738  2.7205 -1.5449  3.3182
 1018MOL0     H37389   9.864   0.363   2.702  0.9482  1.1159 -0.6239
 1018MOL0     H37390   9.923   0.070   2.900 -0.9606  0.2759  0.8221
 1018MOL0     H37391  10.086  -0.069   3.046  1.0161 -0.3276 -0.3036
 1018MOL0     H37392  10.537   0.276   3.350 -0.0976 -0.0293  2.6214
 1018MOL0     H37393  10.732   0.246   3.452 -1.5549  0.8121  0.9496
 1018MOL0     H37394  10.955   0.146   3.389 -0.5499  0.3076  0.7530
 1018MOL0     H37395  10.942   0.152   3.565 -1.2631 -2.4175  0.6734
 1018MOL0     H37396  11.116  -0.052   3.417  1.5470  0.7035  0.4232
 1018MOL0     H37397  11.181   0.107   3.471  0.3584  0.7060  0.5213
 1018MOL0     H37398  11.059  -0.089   3.657 -1.0524  0.3803 -1.0340
 1018MOL0     H37399  11.227  -0.067   3.651 -0.5204 -0.2844  0.7165
 1018MOL0     H37400  11.035   0.138   3.752  0.9803  2.2601 -2.1292
 1018MOL0     H37401  11.198   0.181   3.695 -1.3059  1.6955  0.5263
 1018MOL0     H37402  11.174  -0.031   3.899  4.3697 -1.3310  0.1948
 1018MOL0     H37403  11.195   0.138   3.943 -2.9715  0.7312 -0.9454
 1018MOL0     H37404  11.378  -0.049   3.773 -1.1223 -0.9287  0.1423
 1018MOL0     H37405  11.402   0.123   3.793 -3.2751  1.6289 -0.1740
 1018MOL0     H37406  11.391  -0.074   4.023 -2.9705  0.9021  1.5600
 1018MOL0     H37407  11.407   0.100   4.042  0.1507  0.7462 -1.2759
 1018MOL0     H37408  11.629   0.084   3.906  0.1605  0.4244  1.6959
 1018MOL0     H37409  11.638   0.012   4.063  1.2998  3.3428 -0.7185
 1018MOL0     H37410  10.689  -0.180   3.419  0.6052 -0.1052  0.9859
 1018MOL0     H37411  10.454  -0.138   3.348 -0.2518 -0.2415  2.0993
 1018MOL0     H37412  10.208   0.295   3.231 -0.5884  1.4979 -1.1444
 1018MOL0     H37413  10.059   0.430   3.065 -0.9441  0.0591  1.1341
 1018MOL0     H37414  10.828   1.822   2.955  3.0401  2.0033 -0.4293
 1018MOL0     H37415  11.027   1.906   3.006  0.5039  0.6652  0.2173
 1018MOL0     H37416  11.260   2.049   3.437 -0.9801  0.6288 -0.5579
 1018MOL0     H37417  11.464   2.112   3.546  0.4499  0.4192  0.9711
 1018MOL0     H37418  11.757   2.372   3.308  2.2202 -1.2654 -0.1764
 1018MOL0     H37419  11.819   2.220   3.351 -0.1675  0.4896 -1.1213
 1018MOL0     H37420  11.936   2.385   3.467  0.4995 -2.7827 -1.0589
 1018MOL0     H37421  11.862   2.265   3.576 -0.5315 -2.3696 -3.3273
 1018MOL0     H37422  11.727   2.525   3.522  0.3404 -0.9097 -0.6593
 1018MOL0     H37423  11.863   2.520   3.636 -2.0771  3.2753 -1.6031
 1018MOL0     H37424  11.665   2.305   3.691  2.4854 -1.8091  3.1549
 1018MOL0     H37425  11.768   2.399   3.797  1.9830 -1.8855 -2.1173
 1018MOL0     H37426  11.390   2.599   3.806 -1.5469 -0.4515 -1.6278
 1018MOL0     H37427  11.599   2.303   3.201  0.6507  0.7715  1.1242
 1018MOL0     H37428  11.373   2.154   2.979 -2.1581  0.0144  1.2942
 1018MOL0     H37429  11.348   2.328   2.997 -0.9148 -0.6073 -0.1748
 1018MOL0     H37430  11.508   2.269   2.995 -0.5676  0.0694 -1.5314
 1019MOL0     O37431   1.175   6.885   3.869  0.5591 -0.4975  0.5596
 1019MOL0     C37432   1.217   6.811   3.781  0.0807  0.6981 -0.2210
 1019MOL0     O37433   1.130   6.749   3.694 -0.0725  0.4987  0.2174
 1019MOL0     C37434   1.000   6.800   3.679  0.3577 -0.1133  0.3924
 1019MOL0     C37435   0.960   6.940   3.652  0.0281  0.3326 -0.2624
 1019MOL0     C37436   0.823   6.971   3.617 -1.0915 -0.3961  0.0031
 1019MOL0     C37437   0.721   6.874   3.637 -0.1883 -0.4883 -0.8138
 1019MOL0     O37438   0.588   6.910   3.625 -0.4879  0.4136 -1.0328
 1019MOL0     C37439   0.490   6.820   3.671 -0.4625  0.1811 -0.7456
 1019MOL0     C37440   0.366   6.909   3.674  0.1405  0.2345  0.2291
 1019MOL0     C37441   0.246   6.836   3.728  0.3250  0.4955  0.7272
 1019MOL0     C37442   0.190   6.731   3.623  0.7053 -0.5184 -0.1000
 1019MOL0     C37443   0.093   6.630   3.694 -0.3647  0.3585 -0.0179
 1019MOL0     C37444   0.045   6.512   3.609 -0.1420  0.1422 -0.0095
 1019MOL0     C37445  -0.070   6.562   3.517 -0.4675 -0.6048 -0.3606
 1019MOL0     C37446  -0.091   6.460   3.410  0.5059 -0.1414 -0.0559
 1019MOL0     N37447   0.024   6.446   3.312  0.8134 -0.2839 -0.0957
 1019MOL0     C37448   0.059   6.530   3.203  0.3486  0.7763  0.5835
 1019MOL0     C37449   0.172   6.484   3.158 -1.0382  1.0458 -0.3200
 1019MOL0     C37450   0.266   6.546   3.058  0.3676 -0.3172  0.2594
 1019MOL0     C37451   0.416   6.549   3.102 -0.2956 -1.1364 -0.1387
 1019MOL0     C37452   0.444   6.601   3.244  0.2204  0.0495 -0.7099
 1019MOL0     C37453   0.589   6.629   3.277 -0.0912 -1.4518 -0.9446
 1019MOL0     O37454   0.634   6.728   3.175  0.9683  0.1148  0.1307
 1019MOL0     C37455   0.602   6.864   3.181  0.2837 -0.8863  0.4997
 1019MOL0     C37456   0.526   6.927   3.281 -1.0515 -0.8315 -0.4722
 1019MOL0     C37457   0.493   7.058   3.276 -0.2449 -0.0094 -0.3467
 1019MOL0     C37458   0.537   7.144   3.172  0.9173 -0.0084  0.6133
 1019MOL0     C37459   0.509   7.290   3.178 -0.2998  0.4807  0.8501
 1019MOL0     O37460   0.593   7.369   3.097 -0.6598 -0.5336 -0.3099
 1019MOL0     C37461   0.563   7.498   3.093  0.2082 -0.0047 -0.2815
 1019MOL0     C37462   0.432   7.546   3.076 -0.1100 -0.1801 -0.4427
 1019MOL0     C37463   0.409   7.678   3.052 -0.0084 -0.0002  0.3732
 1019MOL0     C37464   0.508   7.769   3.081 -0.4737  0.1842 -0.3583
 1019MOL0     O37465   0.464   7.894   3.057 -0.6251  0.3138  0.3182
 1019MOL0     C37466   0.553   8.008   3.094  0.6106 -0.7128  0.3544
 1019MOL0     C37467   0.464   8.135   3.091  0.3027  0.0799 -0.7466
 1019MOL0     C37468   0.406   8.154   2.952 -0.9428  0.5095 -1.1365
 1019MOL0     C37469   0.380   8.303   2.921  0.4415  0.1536 -0.1342
 1019MOL0     C37470   0.303   8.331   2.788  0.3944  0.1805 -0.1014
 1019MOL0     C37471   0.336   8.231   2.679  0.4742 -0.4594 -0.6252
 1019MOL0     C37472   0.266   8.266   2.547 -0.0220 -0.2787 -0.0603
 1019MOL0     C37473   0.223   8.129   2.481 -0.4250  0.3843 -0.7466
 1019MOL0    Cl37474   0.365   8.026   2.421  0.0628 -0.0896 -0.0543
 1019MOL0     C37475   0.646   7.731   3.098 -0.9626 -0.3289 -0.8324
 1019MOL0     C37476   0.669   7.593   3.106  0.0687  0.9329  0.8833
 1019MOL0     O37477   0.424   7.326   3.260 -0.2515  0.2489 -0.0427
 1019MOL0     C37478   0.615   7.078   3.074  0.0083 -0.3642 -0.0467
 1019MOL0     C37479   0.645   6.945   3.077 -0.3511 -0.0650 -0.1354
 1019MOL0     N37480   0.200   6.364   3.227  0.0097  0.5456 -0.6665
 1019MOL0     N37481   0.113   6.351   3.312  0.1075  0.0084 -0.1454
 1019MOL0     C37482   0.764   6.742   3.670 -0.8649 -0.1002 -0.2455
 1019MOL0     C37483   0.901   6.708   3.687  0.3298  0.2309  0.5055
 1019MOL0     C37484   1.364   6.798   3.772 -0.4581 -0.7087  1.2789
 1019MOL0     C37485   1.443   6.899   3.837  1.3012 -0.9541  0.0203
 1019MOL0     C37486   1.584   6.893   3.833  0.0957 -0.2098 -0.6229
 1019MOL0     C37487   1.657   6.782   3.799 -0.2448 -0.7834  1.2550
 1019MOL0     O37488   1.794   6.790   3.832  0.0724  0.0500 -0.1091
 1019MOL0     C37489   1.875   6.798   3.715  0.0046  0.4316  0.2293
 1019MOL0     C37490   2.019   6.782   3.763  0.0504 -0.4833 -0.2144
 1019MOL0     C37491   2.065   6.875   3.882  0.2562  0.4753 -0.9781
 1019MOL0     C37492   2.121   7.013   3.833 -0.4041  0.3164  0.4608
 1019MOL0     C37493   2.146   7.102   3.957  0.3327 -0.5098  0.5297
 1019MOL0     C37494   2.169   7.190   4.047  0.4739  0.3254  1.6933
 1019MOL0     C37495   1.584   6.686   3.733  0.0736 -0.6161  0.0378
 1019MOL0     C37496   1.442   6.689   3.718  0.6031 -0.7412 -0.4537
 1019MOL0     C37497   1.360   6.569   3.666  0.7177 -0.5074  1.1806
 1019MOL0     H37498   1.034   7.018   3.665  0.5111 -0.5084  3.1641
 1019MOL0     H37499   0.790   7.070   3.586  3.1653  0.6144 -2.0744
 1019MOL0     H37500   0.473   6.738   3.601 -0.1661 -2.7756  2.3970
 1019MOL0     H37501   0.521   6.787   3.770 -0.8843  3.3682  0.5734
 1019MOL0     H37502   0.330   6.940   3.576 -1.6046  0.6073  0.9331
 1019MOL0     H37503   0.378   7.000   3.734  1.8343 -0.4697  1.0202
 1019MOL0     H37504   0.168   6.912   3.739  1.7989  2.7747 -2.9482
 1019MOL0     H37505   0.261   6.796   3.829 -0.6803  0.8630  1.0354
 1019MOL0     H37506   0.140   6.783   3.541 -1.0853 -0.3449  1.0452
 1019MOL0     H37507   0.273   6.675   3.579  0.0769 -0.6244 -1.1905
 1019MOL0     H37508   0.153   6.585   3.774 -1.4476  0.3192  0.7849
 1019MOL0     H37509   0.006   6.688   3.726  0.5731  1.8379 -0.0518
 1019MOL0     H37510   0.132   6.490   3.547 -0.6977 -2.1606 -0.0326
 1019MOL0     H37511   0.017   6.431   3.677  1.9574  1.3297  2.4818
 1019MOL0     H37512  -0.038   6.645   3.455 -0.1610  0.0940  0.6981
 1019MOL0     H37513  -0.160   6.590   3.572 -0.3003  0.1854 -0.4836
 1019MOL0     H37514  -0.097   6.362   3.459  0.1724  0.5735  1.3604
 1019MOL0     H37515  -0.174   6.480   3.342 -0.1455 -0.5849  0.6043
 1019MOL0     H37516   0.010   6.625   3.182 -0.8286  0.0970  0.1352
 1019MOL0     H37517   0.249   6.489   2.966 -4.2350  0.5251  0.3354
 1019MOL0     H37518   0.242   6.652   3.048  4.1962  0.6351 -0.5005
 1019MOL0     H37519   0.452   6.447   3.087  0.5851 -0.7159 -0.9311
 1019MOL0     H37520   0.461   6.619   3.032 -1.1954 -2.6194 -2.3005
 1019MOL0     H37521   0.403   6.527   3.314 -0.9509  0.6628 -0.7267
 1019MOL0     H37522   0.390   6.696   3.252  1.0105  0.5768 -1.4865
 1019MOL0     H37523   0.650   6.539   3.265  1.4441 -0.5322 -0.3178
 1019MOL0     H37524   0.610   6.666   3.378  3.1324  1.3737 -2.4261
 1019MOL0     H37525   0.480   6.857   3.351  0.1780 -0.2475  0.9800
 1019MOL0     H37526   0.438   7.097   3.362  1.6560 -0.9090  1.3788
 1019MOL0     H37527   0.350   7.477   3.058 -0.3830  0.8527 -4.0186
 1019MOL0     H37528   0.307   7.713   3.036 -0.5981 -2.8805 -3.5865
 1019MOL0     H37529   0.596   7.990   3.193 -0.4819 -2.7694  0.5188
 1019MOL0     H37530   0.637   8.025   3.026  1.4340  0.4988  1.6277
 1019MOL0     H37531   0.376   8.118   3.153 -0.5673  0.4186 -1.8511
 1019MOL0     H37532   0.522   8.219   3.131 -0.6904  1.6382 -2.4063
 1019MOL0     H37533   0.479   8.123   2.876 -2.1656 -1.9924 -1.4171
 1019MOL0     H37534   0.322   8.086   2.931  0.3015 -2.4941  2.4305
 1019MOL0     H37535   0.474   8.359   2.927  1.7442 -2.0036  0.8710
 1019MOL0     H37536   0.319   8.350   2.998  1.0857 -1.5756  1.5267
 1019MOL0     H37537   0.314   8.428   2.738  2.8162  0.7298  1.3178
 1019MOL0     H37538   0.198   8.321   2.814  0.6274  0.4907  1.0272
 1019MOL0     H37539   0.445   8.233   2.668  0.4306 -0.3240 -1.0183
 1019MOL0     H37540   0.299   8.133   2.711 -2.1550  1.1091  1.6058
 1019MOL0     H37541   0.337   8.312   2.477 -1.2726 -1.5626 -2.2672
 1019MOL0     H37542   0.187   8.342   2.550 -1.6178 -1.6981 -2.5316
 1019MOL0     H37543   0.161   8.068   2.548  2.3234 -0.7799  0.9169
 1019MOL0     H37544   0.165   8.156   2.393 -1.0621 -0.3921 -0.5856
 1019MOL0     H37545   0.722   7.805   3.120  0.4097 -2.3715  1.7344
 1019MOL0     H37546   0.774   7.566   3.111  0.5762  2.7960  1.1009
 1019MOL0     H37547   0.656   7.136   2.992  2.4190 -2.0571 -0.1542
 1019MOL0     H37548   0.713   6.926   2.995  0.6691 -0.4830  0.7758
 1019MOL0     H37549   0.699   6.661   3.702  0.4503 -0.3414  2.0654
 1019MOL0     H37550   0.927   6.603   3.678  2.8130  0.9504 -4.6724
 1019MOL0     H37551   1.392   6.982   3.886 -0.3684 -1.6988 -0.3688
 1019MOL0     H37552   1.633   6.983   3.870 -1.0750  0.7050 -1.2188
 1019MOL0     H37553   1.862   6.888   3.655  1.2211 -0.0985 -0.8780
 1019MOL0     H37554   1.838   6.716   3.653 -2.4068  1.8172 -0.2878
 1019MOL0     H37555   2.092   6.802   3.684 -0.2780  3.3934  0.2890
 1019MOL0     H37556   2.030   6.677   3.793  2.2007  0.0658  1.1730
 1019MOL0     H37557   2.149   6.834   3.940 -1.3591  0.4654  1.5278
 1019MOL0     H37558   1.994   6.885   3.965  1.2102  1.2244 -0.2163
 1019MOL0     H37559   2.214   7.005   3.776  0.7485 -2.3584  2.4980
 1019MOL0     H37560   2.038   7.059   3.778 -0.1768  1.4208  1.0163
 1019MOL0     H37561   2.188   7.264   4.122  0.2788  0.6318  1.4422
 1019MOL0     H37562   1.622   6.589   3.700  0.0174 -0.4741 -0.4395
 1019MOL0     H37563   1.431   6.497   3.624 -0.6601 -0.7178 -0.9714
 1019MOL0     H37564   1.290   6.515   3.730 -3.0785  1.0386 -1.2743
 1019MOL0     H37565   1.299   6.616   3.588  1.4471  2.1861  2.1043
 1020MOL0     O37566  10.630   3.320   0.771  0.7599 -0.3047  0.3174
 1020MOL0     C37567  10.563   3.297   0.671  0.1274  0.5015  0.4938
 1020MOL0     O37568  10.603   3.299   0.537 -0.2528  0.3401  0.2936
 1020MOL0     C37569  10.719   3.350   0.490  0.0954 -0.2477 -0.9465
 1020MOL0     C37570  10.792   3.256   0.419 -0.2865 -0.4714  0.0116
 1020MOL0     C37571  10.920   3.291   0.382  0.2525  0.6330 -0.1892
 1020MOL0     C37572  10.985   3.412   0.420  0.6950 -1.0988 -0.2359
 1020MOL0     O37573  11.118   3.427   0.375  0.5526 -0.0797  0.6432
 1020MOL0     C37574  11.182   3.549   0.426 -0.0713 -0.0725 -0.0842
 1020MOL0     C37575  11.325   3.544   0.364 -0.0805  0.8117 -0.6671
 1020MOL0     C37576  11.332   3.534   0.215  0.2783 -1.1294  0.2208
 1020MOL0     C37577  11.476   3.567   0.156  0.2474  0.1790 -0.0972
 1020MOL0     C37578  11.488   3.531   0.008 -0.0712  0.3630  0.1444
 1020MOL0     C37579  11.601   3.625  -0.045  0.7984 -0.8013  1.3872
 1020MOL0     C37580  11.632   3.612  -0.196  0.5220  0.8258 -0.0206
 1020MOL0     C37581  11.712   3.490  -0.234 -0.2175 -0.1174 -0.1214
 1020MOL0     N37582  11.847   3.502  -0.185 -0.0274  0.6172 -0.2730
 1020MOL0     C37583  11.933   3.608  -0.214  0.8237  0.0660  0.7061
 1020MOL0     C37584  12.027   3.606  -0.117 -0.9767  0.2288  0.0384
 1020MOL0     C37585  12.147   3.694  -0.111 -1.3077 -0.1659 -0.0309
 1020MOL0     C37586  12.223   3.714  -0.241 -0.3902 -0.1173 -0.3457
 1020MOL0     C37587  12.356   3.786  -0.202 -0.3622 -0.4606 -0.3874
 1020MOL0     C37588  12.438   3.804  -0.324 -0.4826 -0.2290  0.2023
 1020MOL0     O37589  12.538   3.899  -0.294  0.4088 -0.5243 -0.2113
 1020MOL0     C37590  12.635   3.930  -0.378 -0.8120 -0.4925  0.2852
 1020MOL0     C37591  12.641   3.888  -0.514  0.3948  0.5682 -0.1785
 1020MOL0     C37592  12.750   3.917  -0.591 -0.8062  0.1652  0.3120
 1020MOL0     C37593  12.857   3.992  -0.536  0.2038  0.6058 -0.4484
 1020MOL0     C37594  12.964   4.033  -0.622 -0.9805 -0.7778 -0.4310
 1020MOL0     O37595  13.056   4.115  -0.564  0.0628 -0.7902 -0.5902
 1020MOL0     C37596  13.170   4.141  -0.645  0.0347 -0.0433  0.2519
 1020MOL0     C37597  13.163   4.255  -0.725 -0.6041 -0.0555 -0.0296
 1020MOL0     C37598  13.282   4.293  -0.783  0.3896  0.0094 -0.3533
 1020MOL0     C37599  13.397   4.214  -0.784 -0.0143  0.2047  0.1271
 1020MOL0     O37600  13.511   4.250  -0.844  0.2314  0.2115  0.3731
 1020MOL0     C37601  13.521   4.366  -0.927  0.2688  0.1881 -0.0573
 1020MOL0     C37602  13.565   4.491  -0.848 -0.3516  0.3427  0.2074
 1020MOL0     C37603  13.711   4.539  -0.875  0.1384 -1.0695 -0.3984
 1020MOL0     C37604  13.749   4.617  -0.998 -0.0080 -0.0904  0.6891
 1020MOL0     C37605  13.898   4.664  -0.973 -0.1294  0.1359 -1.0026
 1020MOL0     C37606  13.966   4.698  -1.099 -0.2633 -0.3579  0.6432
 1020MOL0     C37607  13.902   4.821  -1.163 -0.3333 -0.5492 -0.9543
 1020MOL0     C37608  13.996   4.869  -1.268  0.0077 -0.2035  0.5427
 1020MOL0    Cl37609  14.058   4.737  -1.380  0.1540  0.0310 -0.2267
 1020MOL0     C37610  13.403   4.100  -0.702  0.1206 -1.1065  0.1662
 1020MOL0     C37611  13.284   4.065  -0.632  0.0506  0.2147 -0.1397
 1020MOL0     O37612  12.946   4.023  -0.747  0.0947 -0.2796  0.3991
 1020MOL0     C37613  12.855   4.036  -0.406  0.5710  0.5387  0.4570
 1020MOL0     C37614  12.748   3.993  -0.326  0.5388 -0.3383  0.5308
 1020MOL0     N37615  12.000   3.508  -0.025 -0.5295 -0.1764  0.4882
 1020MOL0     N37616  11.897   3.444  -0.066  0.7330  0.2974  0.5564
 1020MOL0     C37617  10.899   3.507   0.486  0.7227 -0.1079 -0.0683
 1020MOL0     C37618  10.774   3.471   0.528  0.6300  0.1857 -0.0030
 1020MOL0     C37619  10.420   3.253   0.703 -0.3228  0.1903 -0.1609
 1020MOL0     C37620  10.344   3.205   0.597 -0.6001  0.9720 -0.6241
 1020MOL0     C37621  10.220   3.147   0.620  0.1474  0.0843 -0.4359
 1020MOL0     C37622  10.156   3.153   0.739 -0.1557  0.0148 -0.0677
 1020MOL0     O37623  10.029   3.125   0.761  0.3732  0.2316 -0.3992
 1020MOL0     C37624   9.924   3.095   0.652  0.1764  0.1125  0.0439
 1020MOL0     C37625   9.795   3.039   0.712 -0.5997  0.8867  0.3408
 1020MOL0     C37626   9.718   3.163   0.767 -0.4842  0.2226  0.0053
 1020MOL0     C37627   9.568   3.138   0.796  0.8717  0.7087  0.4973
 1020MOL0     C37628   9.503   3.253   0.854 -0.2092 -0.8425 -0.5982
 1020MOL0     C37629   9.456   3.359   0.897 -0.0413 -0.8440  0.2638
 1020MOL0     C37630  10.230   3.202   0.845 -0.5820 -0.4270 -0.4492
 1020MOL0     C37631  10.363   3.254   0.833 -0.0811 -0.4226  0.7198
 1020MOL0     C37632  10.417   3.312   0.960 -1.1833 -0.3826  0.4301
 1020MOL0     H37633  10.764   3.155   0.393 -1.0577 -0.5978  1.2263
 1020MOL0     H37634  10.980   3.222   0.324  0.8434  1.3851 -0.4779
 1020MOL0     H37635  11.132   3.628   0.370  2.1107  0.8830 -0.8112
 1020MOL0     H37636  11.179   3.550   0.535  0.2313  0.1756 -0.0785
 1020MOL0     H37637  11.397   3.477   0.411 -0.1943  0.4434 -1.0150
 1020MOL0     H37638  11.376   3.639   0.383  3.5826 -1.0755 -0.2626
 1020MOL0     H37639  11.251   3.581   0.158 -1.3883 -3.9246  0.1040
 1020MOL0     H37640  11.323   3.433   0.174 -2.7450 -0.3213 -1.4501
 1020MOL0     H37641  11.486   3.675   0.173 -0.2069  0.6447 -2.3877
 1020MOL0     H37642  11.556   3.521   0.215  1.0342  2.0441  0.3696
 1020MOL0     H37643  11.525   3.429  -0.004  0.3043  0.7012 -1.8877
 1020MOL0     H37644  11.396   3.526  -0.049 -0.0991  1.7595  0.0226
 1020MOL0     H37645  11.575   3.730  -0.026 -0.9562 -0.2233 -2.9315
 1020MOL0     H37646  11.694   3.603   0.007  2.8119 -1.2460 -2.1214
 1020MOL0     H37647  11.694   3.699  -0.220  2.8366 -0.9602 -0.9366
 1020MOL0     H37648  11.535   3.609  -0.247  0.0508 -1.3705  0.8965
 1020MOL0     H37649  11.660   3.400  -0.199 -0.5962  0.6054  1.2612
 1020MOL0     H37650  11.712   3.479  -0.343 -1.6552 -4.1563  0.1069
 1020MOL0     H37651  11.933   3.675  -0.299 -1.4076 -0.5443  0.1450
 1020MOL0     H37652  12.104   3.784  -0.066 -1.6883 -0.3147 -0.0947
 1020MOL0     H37653  12.225   3.655  -0.045 -1.1000  1.0608  0.4850
 1020MOL0     H37654  12.246   3.617  -0.286 -1.2215  0.4979 -2.1678
 1020MOL0     H37655  12.164   3.774  -0.311 -1.7423  3.7800  3.6903
 1020MOL0     H37656  12.405   3.733  -0.120 -2.2416 -0.8322  0.5784
 1020MOL0     H37657  12.314   3.879  -0.162 -3.0318 -0.2969 -3.2043
 1020MOL0     H37658  12.380   3.837  -0.411  1.2074 -0.6977 -1.1692
 1020MOL0     H37659  12.472   3.704  -0.353 -1.5438 -1.2815  2.3830
 1020MOL0     H37660  12.559   3.829  -0.555  0.1549 -0.0425  1.1440
 1020MOL0     H37661  12.759   3.876  -0.691  1.0814  1.2233  0.0032
 1020MOL0     H37662  13.065   4.301  -0.730  0.6225  2.6547 -0.3360
 1020MOL0     H37663  13.280   4.383  -0.844  0.9605 -1.0190 -1.9673
 1020MOL0     H37664  13.613   4.340  -0.980  1.0962  0.0028  1.4202
 1020MOL0     H37665  13.433   4.384  -0.989  0.5383 -0.4471 -0.6408
 1020MOL0     H37666  13.491   4.566  -0.877 -0.5534  0.0547 -0.0221
 1020MOL0     H37667  13.552   4.472  -0.741  1.3528 -1.7071  0.1135
 1020MOL0     H37668  13.745   4.588  -0.784 -1.8009 -0.6960  0.1578
 1020MOL0     H37669  13.772   4.449  -0.891 -0.4787 -1.3805 -1.0870
 1020MOL0     H37670  13.686   4.705  -1.015 -1.5681 -1.2222  0.4914
 1020MOL0     H37671  13.746   4.565  -1.094  0.1626 -0.4963  0.9047
 1020MOL0     H37672  13.965   4.588  -0.931  1.0742  1.1069 -1.1052
 1020MOL0     H37673  13.890   4.747  -0.903  1.2610  0.3433 -1.0634
 1020MOL0     H37674  14.071   4.717  -1.077 -0.4522  0.7565  0.6217
 1020MOL0     H37675  13.962   4.615  -1.171  1.0838 -1.3818  1.6960
 1020MOL0     H37676  13.903   4.909  -1.098 -1.6125  0.3046 -2.0134
 1020MOL0     H37677  13.799   4.809  -1.199 -1.1733  1.8231  0.4204
 1020MOL0     H37678  13.947   4.949  -1.324  0.1842 -0.5480 -0.1192
 1020MOL0     H37679  14.081   4.909  -1.212  0.2025  0.4046 -0.1565
 1020MOL0     H37680  13.499   4.049  -0.696  0.3896 -0.4675  1.8604
 1020MOL0     H37681  13.279   3.971  -0.577  0.8541 -0.1643 -0.6970
 1020MOL0     H37682  12.941   4.083  -0.358  2.0502 -0.4088 -1.1232
 1020MOL0     H37683  12.757   4.016  -0.220 -1.3336 -0.1447  0.6889
 1020MOL0     H37684  10.934   3.608   0.505 -0.4386  0.6279 -1.6166
 1020MOL0     H37685  10.721   3.552   0.576 -0.0524 -0.0528 -0.3351
 1020MOL0     H37686  10.392   3.182   0.502  0.3933 -1.5042  0.4012
 1020MOL0     H37687  10.170   3.104   0.534 -2.5091  0.6378  0.7404
 1020MOL0     H37688   9.961   3.017   0.586 -0.7935  1.6451 -2.4599
 1020MOL0     H37689   9.907   3.179   0.584  1.5152  0.0543 -0.3895
 1020MOL0     H37690   9.810   2.966   0.793  2.4780 -0.5173 -1.3130
 1020MOL0     H37691   9.752   2.988   0.625  1.5344  0.6544 -0.6568
 1020MOL0     H37692   9.715   3.241   0.690 -1.8433 -0.9325 -1.1741
 1020MOL0     H37693   9.764   3.199   0.860 -0.8829  0.2111  0.2058
 1020MOL0     H37694   9.509   3.095   0.713 -0.8931 -0.4021  2.2411
 1020MOL0     H37695   9.571   3.068   0.880 -1.8593  2.1085  1.9243
 1020MOL0     H37696   9.413   3.448   0.939 -3.0002 -2.5076  1.0964
 1020MOL0     H37697  10.179   3.229   0.937  0.1801 -0.3359 -0.0402
 1020MOL0     H37698  10.510   3.258   0.982  0.0102  1.3965 -0.0808
 1020MOL0     H37699  10.457   3.414   0.961  0.3536 -0.9495  1.8982
 1020MOL0     H37700  10.342   3.296   1.038 -0.4226 -3.1656  0.7211
 1021MOL0     O37701  11.309   6.711  11.300 -0.3107 -1.2114 -0.2023
 1021MOL0     C37702  11.361   6.809  11.244  1.3363  0.6088 -0.9625
 1021MOL0     O37703  11.490   6.850  11.251  0.5034  0.5453 -0.1765
 1021MOL0     C37704  11.586   6.785  11.329  0.6493 -0.1932  0.0777
 1021MOL0     C37705  11.717   6.754  11.277 -1.1120 -0.6787  0.6770
 1021MOL0     C37706  11.816   6.694  11.352 -0.0531 -0.6717 -0.2498
 1021MOL0     C37707  11.793   6.663  11.489 -0.3280  0.6022 -0.2694
 1021MOL0     O37708  11.905   6.614  11.565  0.1903 -1.1556 -0.7348
 1021MOL0     C37709  11.879   6.546  11.690  0.1885  0.0816  0.1302
 1021MOL0     C37710  12.020   6.528  11.760  0.9338 -0.0289  0.1222
 1021MOL0     C37711  12.016   6.456  11.894 -0.1885 -0.0726 -0.6973
 1021MOL0     C37712  12.075   6.317  11.884 -0.7127 -1.1217  0.5052
 1021MOL0     C37713  12.026   6.230  12.005 -0.2871  0.2102 -0.6607
 1021MOL0     C37714  12.051   6.079  11.995 -0.7406  0.8712  0.7629
 1021MOL0     C37715  12.193   6.039  12.008 -1.3543 -0.0326 -0.6406
 1021MOL0     C37716  12.220   5.930  11.903 -0.2727  0.1539  0.2238
 1021MOL0     N37717  12.358   5.876  11.917 -0.1593  0.1618 -0.3515
 1021MOL0     C37718  12.470   5.948  11.881  0.6827 -0.3388 -0.2778
 1021MOL0     C37719  12.571   5.865  11.925  0.6238 -0.4236 -0.8647
 1021MOL0     C37720  12.716   5.893  11.888  0.3279  0.2956 -0.0848
 1021MOL0     C37721  12.771   6.014  11.977 -0.2803  0.9753 -0.3362
 1021MOL0     C37722  12.772   5.977  12.128 -1.0702  0.2137  0.0362
 1021MOL0     C37723  12.844   5.842  12.145 -0.7186 -0.0603 -0.0478
 1021MOL0     O37724  12.872   5.818  12.284  0.0485 -0.7959 -0.0343
 1021MOL0     C37725  12.976   5.884  12.339 -0.7475 -0.2002 -0.1678
 1021MOL0     C37726  12.971   5.917  12.473  0.1677  0.4232 -0.1713
 1021MOL0     C37727  13.071   5.997  12.533 -0.2650  1.3607  0.7502
 1021MOL0     C37728  13.198   6.014  12.471  0.0246 -0.4041  0.6197
 1021MOL0     C37729  13.306   6.091  12.529 -0.3703 -0.3333 -0.3250
 1021MOL0     O37730  13.408   6.122  12.445 -0.6877 -1.0669 -0.1831
 1021MOL0     C37731  13.486   6.238  12.457  0.6611  0.6739 -0.1359
 1021MOL0     C37732  13.433   6.349  12.513  0.4977 -0.0983 -0.8779
 1021MOL0     C37733  13.512   6.463  12.547  0.9141  0.4160 -0.3910
 1021MOL0     C37734  13.641   6.475  12.516 -0.3816  0.4006  0.0086
 1021MOL0     O37735  13.717   6.581  12.548 -0.3420 -0.1412  0.2025
 1021MOL0     C37736  13.672   6.714  12.521 -0.2947 -0.4180  0.1636
 1021MOL0     C37737  13.704   6.772  12.392  0.4990  0.6279 -0.0588
 1021MOL0     C37738  13.855   6.832  12.370  0.4013 -0.2461  0.1742
 1021MOL0     C37739  13.907   6.773  12.241 -0.0099 -0.4369 -0.9046
 1021MOL0     C37740  14.039   6.835  12.199  0.0444  0.6005  1.0663
 1021MOL0     C37741  14.071   6.806  12.052 -0.4787  0.3117  0.7324
 1021MOL0     C37742  13.964   6.840  11.941 -0.8034 -0.3688 -0.2059
 1021MOL0     C37743  14.033   6.842  11.801 -0.1717 -0.6967 -0.0740
 1021MOL0    Cl37744  13.908   6.773  11.680 -0.4053 -0.2190 -0.0184
 1021MOL0     C37745  13.699   6.358  12.462  0.0458  0.2262 -0.6327
 1021MOL0     C37746  13.622   6.243  12.441  0.2861  0.1819  0.0516
 1021MOL0     O37747  13.298   6.113  12.649  0.1844 -0.1298 -0.4072
 1021MOL0     C37748  13.211   5.958  12.343  0.2291 -0.2012  0.2283
 1021MOL0     C37749  13.104   5.909  12.265  0.1595  0.2871 -0.7202
 1021MOL0     N37750  12.521   5.773  12.010  0.4443  0.4889  0.5099
 1021MOL0     N37751  12.393   5.778  12.004  0.4973 -0.1247  0.6472
 1021MOL0     C37752  11.657   6.686  11.532  0.6229  0.2314  0.4190
 1021MOL0     C37753  11.560   6.753  11.460 -0.2095  0.5479 -0.0177
 1021MOL0     C37754  11.269   6.913  11.178  0.8940 -0.0571 -0.5420
 1021MOL0     C37755  11.330   7.043  11.168 -0.0757  0.0230  0.5593
 1021MOL0     C37756  11.252   7.147  11.126 -0.3983  0.1341  0.0731
 1021MOL0     C37757  11.120   7.134  11.094  0.7147  1.0255  0.1656
 1021MOL0     O37758  11.051   7.249  11.047  0.2996 -0.1547 -0.2653
 1021MOL0     C37759  10.919   7.225  10.990  0.2243 -0.5490 -0.3317
 1021MOL0     C37760  10.812   7.219  11.100 -0.5824 -0.0338 -0.1422
 1021MOL0     C37761  10.819   7.344  11.180  0.5128  0.5509  0.5242
 1021MOL0     C37762  10.709   7.342  11.296 -1.1283  0.0180  0.4606
 1021MOL0     C37763  10.582   7.292  11.255 -0.0958 -0.3794 -0.1055
 1021MOL0     C37764  10.470   7.274  11.206 -0.3030  0.7493  0.2457
 1021MOL0     C37765  11.063   7.002  11.093  0.4169  1.2044  0.6890
 1021MOL0     C37766  11.133   6.889  11.139 -0.1121 -0.2235 -0.6357
 1021MOL0     C37767  11.059   6.756  11.144  0.3834 -0.2963 -0.1376
 1021MOL0     H37768  11.723   6.765  11.169  1.2779 -3.7892  0.3463
 1021MOL0     H37769  11.910   6.668  11.305  0.4685 -3.5463  2.0578
 1021MOL0     H37770  11.811   6.611  11.745 -1.1890  0.2986 -1.7251
 1021MOL0     H37771  11.828   6.451  11.671 -2.0136  0.7295  2.3426
 1021MOL0     H37772  12.065   6.627  11.761 -1.6015  1.5005 -4.2398
 1021MOL0     H37773  12.078   6.477  11.683 -1.8567 -1.8942 -0.9409
 1021MOL0     H37774  11.911   6.450  11.923  0.4908  1.2469  2.4271
 1021MOL0     H37775  12.064   6.519  11.970  0.1802 -1.0584 -0.0978
 1021MOL0     H37776  12.046   6.276  11.786 -0.2575 -0.1501 -0.0531
 1021MOL0     H37777  12.184   6.322  11.887 -0.6820  1.1604 -1.5052
 1021MOL0     H37778  12.063   6.260  12.103 -2.1383  2.2886 -0.5259
 1021MOL0     H37779  11.917   6.237  12.011 -0.5077 -2.9929  1.9563
 1021MOL0     H37780  11.999   6.028  12.077  0.1975  0.2139  0.9635
 1021MOL0     H37781  12.000   6.048  11.904  1.6968 -0.2810 -0.3083
 1021MOL0     H37782  12.213   6.007  12.111 -2.4837  3.9935  1.0273
 1021MOL0     H37783  12.263   6.122  11.994 -0.5522 -0.1668  1.9491
 1021MOL0     H37784  12.152   5.844  11.909  0.0254 -0.2805 -1.8393
 1021MOL0     H37785  12.193   5.966  11.803 -0.8997 -0.8194  0.0212
 1021MOL0     H37786  12.466   6.040  11.825 -0.5857 -0.7501 -0.9098
 1021MOL0     H37787  12.779   5.804  11.887  0.5351  0.2053  3.7786
 1021MOL0     H37788  12.707   5.935  11.787  0.4612 -0.2736 -0.3330
 1021MOL0     H37789  12.870   6.037  11.938 -0.0629 -2.8290 -2.4870
 1021MOL0     H37790  12.696   6.094  11.974 -2.7379 -1.0087  2.3887
 1021MOL0     H37791  12.673   5.968  12.173 -0.8188  1.6433  0.8997
 1021MOL0     H37792  12.833   6.054  12.175 -1.7205  1.3493 -0.9245
 1021MOL0     H37793  12.933   5.854  12.083 -1.7439 -1.3053 -1.8511
 1021MOL0     H37794  12.785   5.756  12.113  0.2981 -0.2061 -1.6059
 1021MOL0     H37795  12.878   5.900  12.527  2.1317 -0.6937  3.1523
 1021MOL0     H37796  13.058   6.050  12.627 -3.1916 -0.5344  1.5499
 1021MOL0     H37797  13.326   6.351  12.535  0.7533  0.4740  0.4171
 1021MOL0     H37798  13.461   6.539  12.607 -1.6221 -0.5416 -1.1757
 1021MOL0     H37799  13.563   6.721  12.533 -0.1109  2.3589  0.8557
 1021MOL0     H37800  13.716   6.785  12.591  0.7678  0.4724 -1.3550
 1021MOL0     H37801  13.693   6.697  12.313  2.5119  0.0005  0.1954
 1021MOL0     H37802  13.626   6.845  12.368 -0.8104 -1.3314 -2.1960
 1021MOL0     H37803  13.846   6.941  12.365  2.2420 -0.0821  0.0057
 1021MOL0     H37804  13.922   6.810  12.454  1.3463  1.1826 -0.1766
 1021MOL0     H37805  13.837   6.786  12.159  0.7863  0.6996 -1.4377
 1021MOL0     H37806  13.924   6.669  12.271 -1.8578  0.2139  3.0728
 1021MOL0     H37807  14.119   6.804  12.267  3.5396 -3.3778 -4.0834
 1021MOL0     H37808  14.040   6.944  12.209  0.8861  1.2751 -3.8325
 1021MOL0     H37809  14.161   6.862  12.026 -0.1194 -0.3048  0.6291
 1021MOL0     H37810  14.101   6.701  12.048 -3.3795 -0.5957  0.7404
 1021MOL0     H37811  13.930   6.943  11.957 -3.5498 -0.9420 -1.7638
 1021MOL0     H37812  13.879   6.772  11.937 -0.1795 -1.4433  2.3781
 1021MOL0     H37813  14.056   6.947  11.780 -3.4587  0.0604 -0.4552
 1021MOL0     H37814  14.119   6.776  11.801  0.0043 -0.4921 -1.1393
 1021MOL0     H37815  13.806   6.355  12.443  0.0970 -2.2125 -0.2458
 1021MOL0     H37816  13.672   6.157  12.397 -0.9267 -0.2703 -0.4774
 1021MOL0     H37817  13.308   5.966  12.296  1.2496 -0.8976  2.0863
 1021MOL0     H37818  13.125   5.885  12.161 -1.1550 -0.9740 -0.7451
 1021MOL0     H37819  11.634   6.660  11.635 -1.4547 -0.6869 -0.2103
 1021MOL0     H37820  11.476   6.798  11.512  0.9314  1.6993  0.8858
 1021MOL0     H37821  11.437   7.056  11.184  0.4526 -2.7331 -0.1856
 1021MOL0     H37822  11.301   7.244  11.121 -0.2775  0.1043  0.5880
 1021MOL0     H37823  10.928   7.143  10.917  1.3128 -1.5401  0.8594
 1021MOL0     H37824  10.882   7.311  10.934 -2.2221 -2.5870 -2.0894
 1021MOL0     H37825  10.826   7.125  11.155  2.2522 -0.1154 -0.8482
 1021MOL0     H37826  10.715   7.220  11.048 -1.4120  1.8859  1.3227
 1021MOL0     H37827  10.785   7.424  11.113 -0.0002  0.0929  0.2296
 1021MOL0     H37828  10.918   7.381  11.210  0.8060  0.4910 -0.3565
 1021MOL0     H37829  10.741   7.274  11.376 -2.5044 -2.1955 -0.7644
 1021MOL0     H37830  10.704   7.444  11.335  3.7635  0.8439 -0.4307
 1021MOL0     H37831  10.370   7.256  11.171 -1.1712  0.6468  2.6055
 1021MOL0     H37832  10.969   6.987  11.040  0.5637  3.5213 -0.3695
 1021MOL0     H37833  11.128   6.687  11.095  0.3597 -0.6844  0.3698
 1021MOL0     H37834  11.043   6.729  11.249  0.6180  2.6252  0.7250
 1021MOL0     H37835  10.957   6.766  11.105  0.7581  1.3190 -0.7771
 1022MOL0     O37836   1.770   1.484   7.006  0.6004  0.1625  0.2399
 1022MOL0     C37837   1.793   1.540   7.113 -0.4772 -0.1680  0.2788
 1022MOL0     O37838   1.799   1.676   7.132 -0.7061 -0.3501 -0.3935
 1022MOL0     C37839   1.781   1.743   7.011  0.5282 -0.2190 -0.3128
 1022MOL0     C37840   1.891   1.768   6.923  0.7474  0.3446  0.7121
 1022MOL0     C37841   1.887   1.839   6.803 -0.2807 -0.3007  0.0339
 1022MOL0     C37842   1.758   1.881   6.765  0.4516 -0.5771  0.6311
 1022MOL0     O37843   1.745   1.936   6.638 -0.6693 -0.2128  0.7249
 1022MOL0     C37844   1.639   2.032   6.609  0.3729  0.0986 -0.1356
 1022MOL0     C37845   1.662   2.164   6.668  0.1888 -0.5752  0.0707
 1022MOL0     C37846   1.792   2.237   6.623 -0.2311 -0.1843  0.3733
 1022MOL0     C37847   1.789   2.264   6.466  0.1908 -0.9279  0.0447
 1022MOL0     C37848   1.897   2.348   6.417 -0.6228 -0.6025  0.2019
 1022MOL0     C37849   1.939   2.295   6.276  0.3421 -0.2175  0.1537
 1022MOL0     C37850   1.853   2.360   6.159  0.3464  0.6403 -0.7070
 1022MOL0     C37851   1.924   2.366   6.034 -1.3865  0.7034  0.4566
 1022MOL0     N37852   1.995   2.247   5.975  0.1822  0.7444  0.2301
 1022MOL0     C37853   1.934   2.123   5.972  0.0344  0.5936  0.3551
 1022MOL0     C37854   2.032   2.033   5.939  0.3908  0.6766 -0.8532
 1022MOL0     C37855   2.014   1.886   5.921 -0.1063  1.5100 -0.8762
 1022MOL0     C37856   1.869   1.834   5.914 -0.1628  0.6296 -0.2102
 1022MOL0     C37857   1.870   1.702   5.844 -0.9033  0.2796  0.0630
 1022MOL0     C37858   1.928   1.589   5.927 -0.2731  0.9144 -0.0666
 1022MOL0     O37859   1.883   1.469   5.861  0.5355 -0.5069  0.2442
 1022MOL0     C37860   1.915   1.346   5.910 -0.8840  0.1991  0.1908
 1022MOL0     C37861   1.961   1.250   5.813 -0.2702  0.5548  0.4618
 1022MOL0     C37862   1.994   1.115   5.851  0.7993  1.0732 -0.0302
 1022MOL0     C37863   1.983   1.079   5.986  0.5142 -1.2606  1.0676
 1022MOL0     C37864   2.016   0.941   6.017  0.2932 -0.0931  0.1581
 1022MOL0     O37865   2.047   0.859   5.910 -0.0165 -0.1433  0.1202
 1022MOL0     C37866   2.099   0.732   5.924  0.4209 -0.0629 -0.7398
 1022MOL0     C37867   2.046   0.636   6.007 -0.1456 -0.2899 -0.6751
 1022MOL0     C37868   2.099   0.508   6.017 -0.2818  0.2173  0.8908
 1022MOL0     C37869   2.208   0.472   5.924  0.0540  0.3785 -0.9014
 1022MOL0     O37870   2.270   0.349   5.917  0.4714  0.0955  0.2932
 1022MOL0     C37871   2.214   0.239   5.999 -0.0343 -0.5021  0.3317
 1022MOL0     C37872   2.292   0.110   5.980  0.4129  0.5542 -0.1942
 1022MOL0     C37873   2.433   0.112   6.035  0.1881  0.2027  0.1632
 1022MOL0     C37874   2.517  -0.008   6.005 -0.3435  0.0929 -1.2274
 1022MOL0     C37875   2.649   0.015   6.092  0.1926  0.3926 -0.3512
 1022MOL0     C37876   2.744  -0.103   6.095 -0.4222 -0.4142 -0.6713
 1022MOL0     C37877   2.809  -0.139   5.958 -0.9692 -0.3709 -0.1583
 1022MOL0     C37878   2.919  -0.246   5.971 -0.3844  0.2331  0.3355
 1022MOL0    Cl37879   2.839  -0.406   5.996  0.4485  0.1495 -0.3291
 1022MOL0     C37880   2.251   0.565   5.839  0.3379  0.8659  0.5171
 1022MOL0     C37881   2.203   0.692   5.843 -0.3041  0.3517  0.3320
 1022MOL0     O37882   2.013   0.908   6.137 -0.3127  0.2970  1.2008
 1022MOL0     C37883   1.947   1.177   6.082  0.7477 -0.9407  0.4933
 1022MOL0     C37884   1.899   1.301   6.045  0.9122  0.1828 -0.1429
 1022MOL0     N37885   2.154   2.096   5.942 -0.4620  0.1207 -0.4031
 1022MOL0     N37886   2.127   2.220   5.964 -0.1942  0.8624  0.1722
 1022MOL0     C37887   1.644   1.871   6.859  0.2054  0.5504  0.6254
 1022MOL0     C37888   1.658   1.796   6.978  0.0534 -0.0059  1.0819
 1022MOL0     C37889   1.788   1.454   7.232  0.3536 -0.1171  1.0949
 1022MOL0     C37890   1.817   1.325   7.199  0.9327  1.1784 -1.3836
 1022MOL0     C37891   1.830   1.237   7.311  0.4709 -0.5555 -0.6296
 1022MOL0     C37892   1.835   1.280   7.444 -0.1548  0.0148  0.3944
 1022MOL0     O37893   1.888   1.208   7.543 -0.4306  0.5819 -0.9048
 1022MOL0     C37894   2.030   1.230   7.553  0.4642  0.0620 -0.0801
 1022MOL0     C37895   2.081   1.300   7.681 -0.7504 -0.5868 -0.4481
 1022MOL0     C37896   2.027   1.219   7.800 -0.1407  0.0203  0.1257
 1022MOL0     C37897   2.068   1.265   7.936  0.2344 -1.0112 -0.3735
 1022MOL0     C37898   2.211   1.276   7.954  0.0024 -0.5247  0.3144
 1022MOL0     C37899   2.321   1.322   7.989  0.7301 -0.0387  0.2549
 1022MOL0     C37900   1.788   1.413   7.470 -0.4799 -0.4750 -0.5004
 1022MOL0     C37901   1.778   1.508   7.368  0.3683 -0.9881  0.5893
 1022MOL0     C37902   1.757   1.653   7.414 -0.3842 -0.1340 -0.1568
 1022MOL0     H37903   1.986   1.725   6.955 -0.6837 -0.6198  4.0313
 1022MOL0     H37904   1.973   1.851   6.739  1.1535 -1.5924  1.6207
 1022MOL0     H37905   1.639   2.050   6.501  0.7710  0.4793 -0.0764
 1022MOL0     H37906   1.538   2.004   6.639  0.1140  1.1385 -0.0090
 1022MOL0     H37907   1.675   2.152   6.776 -1.2231  1.2968  0.4901
 1022MOL0     H37908   1.573   2.226   6.657  0.7849  0.9606  2.9029
 1022MOL0     H37909   1.876   2.170   6.646 -0.2668 -0.2694  0.2569
 1022MOL0     H37910   1.811   2.331   6.675  0.8443 -0.2369  0.0990
 1022MOL0     H37911   1.792   2.163   6.426 -1.8738 -1.1850  0.4252
 1022MOL0     H37912   1.695   2.305   6.429  0.2463  0.4055  1.2653
 1022MOL0     H37913   1.857   2.450   6.409  1.3625  0.3289  1.4005
 1022MOL0     H37914   1.978   2.347   6.490 -1.3389 -1.1208  1.0070
 1022MOL0     H37915   2.045   2.320   6.269  0.0371  1.1674  0.1538
 1022MOL0     H37916   1.935   2.185   6.278 -0.0144 -0.2368 -1.0369
 1022MOL0     H37917   1.846   2.464   6.191  3.2668  0.4020  1.1772
 1022MOL0     H37918   1.757   2.309   6.149  0.7757 -0.2234 -0.5755
 1022MOL0     H37919   1.857   2.403   5.956 -0.1594 -0.9680 -1.4794
 1022MOL0     H37920   2.005   2.439   6.039  2.8592 -3.4631 -0.7019
 1022MOL0     H37921   1.828   2.105   5.986  0.2736  0.5810  2.6147
 1022MOL0     H37922   2.059   1.865   5.824  0.5381  5.4249 -1.5548
 1022MOL0     H37923   2.068   1.840   6.004 -1.2543 -0.5118 -1.1727
 1022MOL0     H37924   1.824   1.824   6.012 -1.1087  0.1144 -0.6822
 1022MOL0     H37925   1.807   1.898   5.851 -2.1800 -0.5514  0.4708
 1022MOL0     H37926   1.913   1.697   5.744 -0.5810 -0.2576  0.2212
 1022MOL0     H37927   1.765   1.675   5.831 -1.2534  1.6848 -0.2451
 1022MOL0     H37928   1.881   1.589   6.026 -1.3920  0.8396 -0.5877
 1022MOL0     H37929   2.037   1.586   5.943 -0.3346 -2.4011  0.4868
 1022MOL0     H37930   1.991   1.277   5.712  1.0753 -0.1072  0.6594
 1022MOL0     H37931   2.043   1.058   5.772  1.6269  3.5821 -1.4150
 1022MOL0     H37932   1.958   0.664   6.064  0.4299  2.3214 -0.9490
 1022MOL0     H37933   2.066   0.435   6.090  1.2871  0.8139  2.2613
 1022MOL0     H37934   2.210   0.272   6.103 -1.1013 -1.6364  0.6743
 1022MOL0     H37935   2.110   0.225   5.968  0.5946  1.4565 -3.3040
 1022MOL0     H37936   2.240   0.026   6.028 -0.8986  0.5575 -1.5487
 1022MOL0     H37937   2.294   0.081   5.875  1.8855 -2.7969  0.6250
 1022MOL0     H37938   2.483   0.196   5.988  3.2877 -1.5847 -0.0276
 1022MOL0     H37939   2.428   0.139   6.141 -0.0881 -1.8500  0.7211
 1022MOL0     H37940   2.532  -0.019   5.897  1.4464 -2.4009 -0.8129
 1022MOL0     H37941   2.483  -0.106   6.041  1.0999 -0.1835 -0.5352
 1022MOL0     H37942   2.607   0.042   6.189 -1.0048 -2.8847  0.1955
 1022MOL0     H37943   2.707   0.099   6.053  0.5027  0.0220 -0.7007
 1022MOL0     H37944   2.828  -0.073   6.158 -0.3037  1.1318 -1.5200
 1022MOL0     H37945   2.687  -0.193   6.124 -0.8924 -0.4828 -1.7765
 1022MOL0     H37946   2.850  -0.046   5.916 -1.4791  0.3694  0.9326
 1022MOL0     H37947   2.728  -0.172   5.893 -1.3228  0.4304 -0.1431
 1022MOL0     H37948   2.972  -0.247   5.875  0.4356  1.0983  0.7561
 1022MOL0     H37949   2.987  -0.221   6.054 -2.2597 -0.2351  2.0894
 1022MOL0     H37950   2.322   0.544   5.759  0.1737  1.1746  0.2869
 1022MOL0     H37951   2.237   0.765   5.770  0.0406  0.1951  0.3351
 1022MOL0     H37952   1.936   1.143   6.184  1.3644 -2.3508  0.1134
 1022MOL0     H37953   1.857   1.370   6.118 -3.0276 -1.6393 -0.4093
 1022MOL0     H37954   1.541   1.905   6.860  0.5262  1.5549  0.2763
 1022MOL0     H37955   1.573   1.771   7.041  0.5368  0.6088  1.9891
 1022MOL0     H37956   1.830   1.282   7.100  0.7169  0.0766 -0.9495
 1022MOL0     H37957   1.866   1.138   7.283  1.4788  0.3511 -2.7473
 1022MOL0     H37958   2.076   1.285   7.470  0.7236  2.5018  1.5770
 1022MOL0     H37959   2.070   1.128   7.557  0.3409 -0.0814 -1.7192
 1022MOL0     H37960   2.034   1.398   7.690 -0.2265 -0.1693 -2.0106
 1022MOL0     H37961   2.190   1.308   7.682 -0.8766  1.9882 -0.9485
 1022MOL0     H37962   2.047   1.112   7.786 -1.2666 -0.4995  2.1490
 1022MOL0     H37963   1.920   1.240   7.805 -0.3907 -1.1521 -0.1041
 1022MOL0     H37964   2.020   1.361   7.956 -0.1558 -1.4471  0.8410
 1022MOL0     H37965   2.025   1.194   8.008 -0.9784  0.0634  0.0031
 1022MOL0     H37966   2.421   1.351   8.014  1.2095 -0.9523 -0.5408
 1022MOL0     H37967   1.802   1.422   7.577  0.9832 -2.9504 -0.4082
 1022MOL0     H37968   1.807   1.738   7.366 -1.6993  2.6161  2.9378
 1022MOL0     H37969   1.651   1.677   7.420 -0.2324  0.9011 -1.3311
 1022MOL0     H37970   1.799   1.665   7.514  0.5879 -0.8872 -0.4468
 1023MOL0     O37971   7.637   0.990   1.445  0.2220  0.1477  0.3607
 1023MOL0     C37972   7.636   0.869   1.443 -0.5296 -0.3458  0.0854
 1023MOL0     O37973   7.655   0.798   1.556 -0.5653  0.4699 -0.8610
 1023MOL0     C37974   7.721   0.873   1.660 -0.6154  0.2584  0.5666
 1023MOL0     C37975   7.857   0.865   1.681 -0.6691  0.1445 -0.1688
 1023MOL0     C37976   7.923   0.954   1.763 -0.3069 -0.6357  0.5145
 1023MOL0     C37977   7.850   1.037   1.857  0.4489  1.2825 -1.5249
 1023MOL0     O37978   7.911   1.123   1.945 -0.2800 -0.4027  0.0761
 1023MOL0     C37979   7.965   1.245   1.903  1.1044 -0.0866  0.7085
 1023MOL0     C37980   7.862   1.357   1.891  0.3837 -1.1892 -0.0718
 1023MOL0     C37981   7.927   1.484   1.822  0.7751 -0.1102 -1.0694
 1023MOL0     C37982   7.835   1.612   1.831 -0.3731  0.7482  0.6646
 1023MOL0     C37983   7.831   1.663   1.977 -0.5393 -0.0920  0.7183
 1023MOL0     C37984   7.723   1.774   2.009  0.6949  0.6852 -0.3798
 1023MOL0     C37985   7.718   1.825   2.156  0.8170  0.5255  0.9467
 1023MOL0     C37986   7.842   1.911   2.182  0.0219 -0.4433 -0.2050
 1023MOL0     N37987   7.825   1.970   2.311  0.0233 -1.2012 -0.7968
 1023MOL0     C37988   7.753   2.084   2.336 -0.3698  0.4830 -0.0678
 1023MOL0     C37989   7.717   2.083   2.465  0.5736  0.0619 -0.4095
 1023MOL0     C37990   7.623   2.190   2.519 -0.8290 -0.3297  0.1894
 1023MOL0     C37991   7.512   2.127   2.605 -0.8753  0.3583 -0.1578
 1023MOL0     C37992   7.573   2.089   2.745  0.8005  0.3765 -0.2993
 1023MOL0     C37993   7.491   2.155   2.857 -0.9459  0.4498 -0.5803
 1023MOL0     O37994   7.518   2.290   2.865 -0.2896  0.2798  0.1810
 1023MOL0     C37995   7.413   2.367   2.906  0.2982 -0.6274 -0.8261
 1023MOL0     C37996   7.313   2.335   2.997  0.7252  0.7675 -0.4562
 1023MOL0     C37997   7.195   2.417   3.017 -0.2855 -0.7592  0.2563
 1023MOL0     C37998   7.189   2.550   2.973  0.0795 -0.1233  1.0961
 1023MOL0     C37999   7.083   2.639   3.011 -0.2645  0.0620  0.7160
 1023MOL0     O38000   7.024   2.611   3.131 -0.5843  0.1974 -0.7253
 1023MOL0     C38001   6.934   2.702   3.178 -0.7103  1.1731 -0.5231
 1023MOL0     C38002   6.978   2.815   3.233 -0.1562  0.8623  0.1707
 1023MOL0     C38003   6.885   2.904   3.281 -0.4541  0.5683 -0.5004
 1023MOL0     C38004   6.748   2.882   3.286  0.3312  0.4182 -0.6099
 1023MOL0     O38005   6.661   2.965   3.344 -0.0846 -0.0062  0.0776
 1023MOL0     C38006   6.697   3.097   3.369  0.6934  0.5349  0.3185
 1023MOL0     C38007   6.563   3.177   3.325  0.2310  0.5084 -0.0617
 1023MOL0     C38008   6.466   3.180   3.442  0.3112 -0.3368 -0.2110
 1023MOL0     C38009   6.319   3.166   3.412 -0.0873 -0.6676 -0.1814
 1023MOL0     C38010   6.232   3.158   3.538 -0.7969 -0.0569  0.0866
 1023MOL0     C38011   6.239   3.011   3.603 -0.0380 -0.9206 -0.6169
 1023MOL0     C38012   6.159   3.006   3.728  0.2238 -0.5646  0.3766
 1023MOL0     C38013   6.018   2.944   3.695  0.4071  0.0557  0.2607
 1023MOL0    Cl38014   5.942   2.930   3.850  0.0637 -0.2659  0.2038
 1023MOL0     C38015   6.706   2.765   3.222 -0.0536 -0.0192  0.5060
 1023MOL0     C38016   6.798   2.680   3.165  0.5015 -0.5354 -0.0386
 1023MOL0     O38017   7.043   2.731   2.933 -0.1035  0.4840 -0.3170
 1023MOL0     C38018   7.295   2.585   2.888 -0.7068 -0.2319  0.1051
 1023MOL0     C38019   7.406   2.493   2.857 -0.3939  0.0354 -0.1031
 1023MOL0     N38020   7.769   1.968   2.519  0.2888  0.3582  1.0118
 1023MOL0     N38021   7.841   1.904   2.431 -1.3751  0.1703 -0.5063
 1023MOL0     C38022   7.712   1.032   1.847  0.3668 -0.4075 -0.7964
 1023MOL0     C38023   7.649   0.942   1.765 -0.0744 -0.0603  0.4350
 1023MOL0     C38024   7.553   0.806   1.331 -0.0144 -0.2277 -0.9241
 1023MOL0     C38025   7.513   0.673   1.350  0.0595  0.0457  0.5074
 1023MOL0     C38026   7.438   0.611   1.250  0.2474  0.6635 -1.2711
 1023MOL0     C38027   7.403   0.678   1.130 -0.2412 -0.3511  0.0540
 1023MOL0     O38028   7.336   0.611   1.027 -0.4113  0.0754  0.2753
 1023MOL0     C38029   7.413   0.579   0.906 -0.1187 -0.2786 -0.0715
 1023MOL0     C38030   7.318   0.552   0.794  0.7557 -0.3424  0.3884
 1023MOL0     C38031   7.384   0.524   0.663  0.1578  1.3014 -0.1583
 1023MOL0     C38032   7.299   0.567   0.544 -0.5379 -0.0779  0.0838
 1023MOL0     C38033   7.190   0.466   0.542 -0.0046  0.2184  0.1707
 1023MOL0     C38034   7.081   0.405   0.519  0.2863 -0.0634 -1.0541
 1023MOL0     C38035   7.448   0.806   1.109  0.1027  0.0842 -0.1420
 1023MOL0     C38036   7.523   0.875   1.206  0.1319  0.5689 -0.1490
 1023MOL0     C38037   7.548   1.024   1.186  0.0524 -0.0384 -0.8324
 1023MOL0     H38038   7.914   0.798   1.617 -1.2543 -1.5153  0.9891
 1023MOL0     H38039   8.030   0.965   1.774 -0.1907  0.6256 -1.3966
 1023MOL0     H38040   8.025   1.289   1.984 -1.8723  2.4306  1.7430
 1023MOL0     H38041   8.015   1.231   1.807  1.0194  0.4332  0.5880
 1023MOL0     H38042   7.821   1.381   1.989  0.3778 -2.5514  0.2720
 1023MOL0     H38043   7.782   1.334   1.820  0.0682 -0.7385  0.1311
 1023MOL0     H38044   7.945   1.466   1.716 -2.5812  0.5876 -1.8744
 1023MOL0     H38045   8.024   1.514   1.863 -0.0427  1.2827 -0.0512
 1023MOL0     H38046   7.885   1.683   1.765  4.1126 -1.8229  0.8910
 1023MOL0     H38047   7.733   1.596   1.794  0.4403 -0.0573 -1.4079
 1023MOL0     H38048   7.804   1.582   2.045  1.0769 -2.4955 -1.3205
 1023MOL0     H38049   7.930   1.687   2.018 -0.8247  0.1619  1.2688
 1023MOL0     H38050   7.744   1.858   1.942  0.9828  0.9204  0.0026
 1023MOL0     H38051   7.628   1.730   1.977 -1.1188  1.6306  3.1234
 1023MOL0     H38052   7.715   1.745   2.232 -1.2437 -0.5122 -0.1311
 1023MOL0     H38053   7.622   1.877   2.163  0.0665 -0.6871  0.1611
 1023MOL0     H38054   7.929   1.846   2.194  0.0227 -0.6803 -1.3169
 1023MOL0     H38055   7.855   1.983   2.101  2.4437  0.1264  0.6254
 1023MOL0     H38056   7.723   2.152   2.257 -0.6149 -0.1023 -0.4895
 1023MOL0     H38057   7.685   2.250   2.586  1.2893 -1.1346 -0.9713
 1023MOL0     H38058   7.587   2.265   2.448  2.0324  0.8161 -0.1928
 1023MOL0     H38059   7.426   2.191   2.625 -0.6959  1.0610 -1.5334
 1023MOL0     H38060   7.468   2.032   2.574  0.7739 -0.5198  0.0510
 1023MOL0     H38061   7.678   2.111   2.762 -0.2400  2.8517  4.7523
 1023MOL0     H38062   7.566   1.980   2.758 -0.4309  0.3959 -0.6676
 1023MOL0     H38063   7.520   2.103   2.949 -0.0596  4.7077  1.8211
 1023MOL0     H38064   7.386   2.127   2.842 -0.9866 -3.0235  4.0588
 1023MOL0     H38065   7.313   2.237   3.043  0.3665 -0.7463 -3.4600
 1023MOL0     H38066   7.111   2.371   3.067 -0.2548  0.2100  1.2472
 1023MOL0     H38067   7.085   2.822   3.254  0.6559 -0.6888 -2.8860
 1023MOL0     H38068   6.927   2.990   3.333  0.7519  0.4539 -1.2424
 1023MOL0     H38069   6.728   3.116   3.472 -2.4424  2.8376  1.0223
 1023MOL0     H38070   6.773   3.123   3.295  0.7337  1.7779  0.7646
 1023MOL0     H38071   6.592   3.280   3.301 -0.8734  1.1889  1.3842
 1023MOL0     H38072   6.513   3.143   3.235  0.0149  1.2870 -0.2382
 1023MOL0     H38073   6.492   3.101   3.512 -1.4785 -1.2906 -0.5616
 1023MOL0     H38074   6.475   3.269   3.504 -2.3556  0.0116 -0.2205
 1023MOL0     H38075   6.303   3.078   3.349 -1.3861 -1.1509  0.7878
 1023MOL0     H38076   6.291   3.265   3.376 -2.4694 -1.3823 -0.4730
 1023MOL0     H38077   6.130   3.174   3.502 -1.0274  0.1802  0.8332
 1023MOL0     H38078   6.270   3.236   3.605  1.6699  1.1038 -2.4599
 1023MOL0     H38079   6.206   2.942   3.525 -0.7952  1.4505 -2.5241
 1023MOL0     H38080   6.340   2.991   3.641 -0.6225  1.3125  2.4799
 1023MOL0     H38081   6.148   3.107   3.767  1.1333  0.9063 -2.7594
 1023MOL0     H38082   6.216   2.949   3.802 -0.9229  0.8550  2.4592
 1023MOL0     H38083   5.965   3.009   3.624 -0.6697 -0.0738  0.9220
 1023MOL0     H38084   6.036   2.843   3.656  0.5163  0.2959 -0.3186
 1023MOL0     H38085   6.600   2.745   3.213  0.0454 -1.5627  2.2628
 1023MOL0     H38086   6.764   2.586   3.122  0.3377 -0.4523 -0.0882
 1023MOL0     H38087   7.299   2.686   2.848  1.9560  0.0238  0.8220
 1023MOL0     H38088   7.482   2.523   2.787 -2.2181  1.5004 -1.5704
 1023MOL0     H38089   7.661   1.099   1.915  1.1604 -1.0454  0.4804
 1023MOL0     H38090   7.541   0.940   1.752 -0.0014 -1.1112 -0.1326
 1023MOL0     H38091   7.542   0.627   1.445 -2.6428  0.6840  1.7231
 1023MOL0     H38092   7.409   0.507   1.260  3.8711 -0.2816  0.8738
 1023MOL0     H38093   7.463   0.485   0.929 -2.3093 -0.8662  2.9047
 1023MOL0     H38094   7.477   0.665   0.885  0.6504 -0.4997  1.3112
 1023MOL0     H38095   7.264   0.647   0.788  1.9567  0.3758  0.5723
 1023MOL0     H38096   7.254   0.464   0.812  2.5325 -1.2788  2.6775
 1023MOL0     H38097   7.414   0.419   0.653  0.4446  1.4520 -0.9310
 1023MOL0     H38098   7.480   0.576   0.659 -0.1754  1.9897  0.5830
 1023MOL0     H38099   7.261   0.669   0.552 -0.6333 -0.0279 -0.8661
 1023MOL0     H38100   7.352   0.555   0.449  0.3835  2.0647  0.2655
 1023MOL0     H38101   6.997   0.340   0.512  2.3644 -3.0946 -0.1917
 1023MOL0     H38102   7.434   0.847   1.010  2.2502  2.0983  0.2968
 1023MOL0     H38103   7.655   1.045   1.184  0.0099  0.1247 -1.5740
 1023MOL0     H38104   7.501   1.068   1.097 -3.3266 -2.3639 -0.4040
 1023MOL0     H38105   7.495   1.092   1.253  0.4568 -0.0662 -0.4773
 1024MOL0     O38106  11.174   5.841  11.365 -0.7240 -0.3095 -0.6149
 1024MOL0     C38107  11.219   5.855  11.478  0.3369 -0.3385  0.5855
 1024MOL0     O38108  11.298   5.960  11.514  0.1410 -0.5505  0.1172
 1024MOL0     C38109  11.326   6.059  11.423 -0.6908  0.3767  0.3423
 1024MOL0     C38110  11.236   6.143  11.370  0.2659 -0.0424 -0.1046
 1024MOL0     C38111  11.265   6.215  11.255 -0.0413 -1.0393  0.4731
 1024MOL0     C38112  11.400   6.221  11.218  0.7843  1.3715  0.0790
 1024MOL0     O38113  11.430   6.288  11.112 -0.1742  0.2505  0.5907
 1024MOL0     C38114  11.458   6.422  11.138 -0.1167 -0.5801  0.3751
 1024MOL0     C38115  11.568   6.462  11.035  0.4255 -0.0633  0.5607
 1024MOL0     C38116  11.703   6.406  11.066 -0.0014  0.3447 -0.6359
 1024MOL0     C38117  11.810   6.488  10.995  0.9733  1.5626  0.3153
 1024MOL0     C38118  11.957   6.482  11.030 -0.5604  0.4911 -0.6842
 1024MOL0     C38119  12.007   6.330  11.026  0.5729  0.0635  0.5602
 1024MOL0     C38120  12.154   6.296  11.058  1.1381 -0.1054 -0.2332
 1024MOL0     C38121  12.248   6.321  10.939 -0.3801  0.0913 -0.0551
 1024MOL0     N38122  12.388   6.313  10.988  0.1338 -0.5150 -0.2847
 1024MOL0     C38123  12.442   6.393  11.078 -0.1938 -0.2838 -0.2930
 1024MOL0     C38124  12.573   6.369  11.077 -0.5338 -0.1286  0.4458
 1024MOL0     C38125  12.683   6.429  11.160  0.1410 -0.5207 -0.7831
 1024MOL0     C38126  12.774   6.496  11.072 -0.6922 -0.1912 -0.1153
 1024MOL0     C38127  12.897   6.544  11.147  0.5824 -0.2569 -0.2667
 1024MOL0     C38128  13.016   6.448  11.141 -0.0610 -0.0992  1.0145
 1024MOL0     O38129  13.118   6.511  11.220 -0.3258  0.2526 -0.1811
 1024MOL0     C38130  13.250   6.458  11.217  1.1911 -0.6192 -0.0365
 1024MOL0     C38131  13.341   6.544  11.267 -0.5222 -0.4499  0.7987
 1024MOL0     C38132  13.481   6.513  11.260 -0.2199 -0.2809  1.0131
 1024MOL0     C38133  13.525   6.393  11.205  0.1927  0.6393 -0.0221
 1024MOL0     C38134  13.661   6.369  11.185 -0.1498 -0.7145 -0.7802
 1024MOL0     O38135  13.702   6.270  11.102  0.5116 -0.4031 -0.8968
 1024MOL0     C38136  13.837   6.227  11.095 -0.7251 -1.0690 -0.9828
 1024MOL0     C38137  13.915   6.224  11.209 -0.7922  0.7730  0.5949
 1024MOL0     C38138  14.046   6.172  11.199  0.2955 -0.4134 -0.0246
 1024MOL0     C38139  14.096   6.124  11.078  0.5421  0.0757 -0.7769
 1024MOL0     O38140  14.224   6.081  11.081  0.1982 -0.5203 -0.2158
 1024MOL0     C38141  14.293   6.061  10.964  0.3324  0.4762 -0.0097
 1024MOL0     C38142  14.446   6.033  10.986  0.2363 -0.3973  0.0164
 1024MOL0     C38143  14.526   6.152  11.011  0.5992 -0.5061  0.2644
 1024MOL0     C38144  14.513   6.205  11.151 -0.1514 -0.6265 -0.0173
 1024MOL0     C38145  14.632   6.305  11.170 -0.5352 -0.2325  0.0158
 1024MOL0     C38146  14.636   6.366  11.315  0.2914  0.2741 -0.4711
 1024MOL0     C38147  14.651   6.516  11.320 -0.1982  0.4413 -0.2289
 1024MOL0     C38148  14.517   6.595  11.289 -0.4894  0.6024 -0.3652
 1024MOL0    Cl38149  14.514   6.764  11.343  0.1338 -0.1870  0.0254
 1024MOL0     C38150  14.011   6.118  10.971  0.9583  0.4636 -0.3167
 1024MOL0     C38151  13.889   6.186  10.971  0.9226 -0.4325 -0.6356
 1024MOL0     O38152  13.736   6.456  11.236  0.3520 -0.1828  0.9354
 1024MOL0     C38153  13.425   6.302  11.163  0.0211 -0.2249  0.7601
 1024MOL0     C38154  13.288   6.340  11.165 -0.4000  0.7549  0.2307
 1024MOL0     N38155  12.601   6.261  10.989  0.6820 -0.9769  0.0445
 1024MOL0     N38156  12.483   6.227  10.940 -0.5270 -0.1892 -0.5025
 1024MOL0     C38157  11.493   6.164  11.296 -0.5003  0.2626  0.1010
 1024MOL0     C38158  11.460   6.071  11.396  0.3119  0.5943 -0.5134
 1024MOL0     C38159  11.196   5.749  11.577 -0.1449  0.7425  0.6612
 1024MOL0     C38160  11.288   5.734  11.684  0.5172 -0.0298  0.1181
 1024MOL0     C38161  11.270   5.636  11.780  0.6486  0.4773 -0.4507
 1024MOL0     C38162  11.171   5.541  11.763 -0.5997 -0.3254 -0.1269
 1024MOL0     O38163  11.166   5.456  11.862 -0.1262  0.6141 -0.0900
 1024MOL0     C38164  11.146   5.323  11.817 -0.0337 -0.1237  0.1716
 1024MOL0     C38165  11.117   5.205  11.916 -0.5792 -0.5871 -0.3410
 1024MOL0     C38166  11.249   5.150  11.981 -0.0975 -0.6780  0.2416
 1024MOL0     C38167  11.283   5.243  12.100 -0.0054  0.7876 -0.6807
 1024MOL0     C38168  11.388   5.184  12.184  0.1441  0.5322  0.7968
 1024MOL0     C38169  11.482   5.159  12.261  0.1588  0.7082  0.3567
 1024MOL0     C38170  11.080   5.549  11.652 -0.2781  0.1844 -0.8686
 1024MOL0     C38171  11.090   5.653  11.558 -0.1046 -0.8044 -0.3501
 1024MOL0     C38172  10.975   5.662  11.460 -1.1112  0.1353  0.0625
 1024MOL0     H38173  11.139   6.123  11.415 -0.0978  1.1397 -0.3226
 1024MOL0     H38174  11.187   6.270  11.202 -0.7862 -2.3968  0.1197
 1024MOL0     H38175  11.363   6.472  11.116 -1.0017 -1.2537  2.4171
 1024MOL0     H38176  11.498   6.460  11.232  0.5118  0.1329 -0.1634
 1024MOL0     H38177  11.567   6.571  11.039  0.9818 -0.0692  1.1243
 1024MOL0     H38178  11.536   6.424  10.938  0.2932 -1.2501  1.0534
 1024MOL0     H38179  11.709   6.302  11.032 -3.1161 -0.4941  0.9515
 1024MOL0     H38180  11.726   6.391  11.172  1.1926 -0.9494 -1.0412
 1024MOL0     H38181  11.800   6.469  10.887 -0.9952 -0.8874  0.8433
 1024MOL0     H38182  11.772   6.591  11.003 -2.3227  0.6007 -1.2531
 1024MOL0     H38183  12.012   6.546  10.961  0.1701  0.5308 -0.0661
 1024MOL0     H38184  11.963   6.526  11.130 -5.2289  2.2571 -0.9174
 1024MOL0     H38185  11.943   6.280  11.100 -0.6679  0.0234 -0.4924
 1024MOL0     H38186  11.981   6.284  10.930 -1.5533  0.8749  0.6863
 1024MOL0     H38187  12.167   6.190  11.079 -0.1651 -0.7846 -2.4459
 1024MOL0     H38188  12.191   6.355  11.143 -0.1935  1.7192 -0.8510
 1024MOL0     H38189  12.242   6.236  10.870 -1.0511  1.3263 -1.5972
 1024MOL0     H38190  12.229   6.416  10.888 -2.5360  0.1415  0.7536
 1024MOL0     H38191  12.392   6.465  11.142 -1.6439 -0.1585 -1.5101
 1024MOL0     H38192  12.648   6.507  11.229  2.9231  0.4076 -0.2993
 1024MOL0     H38193  12.735   6.352  11.218  1.5198  0.4356 -0.7014
 1024MOL0     H38194  12.796   6.430  10.987  0.2237 -0.0346 -0.0089
 1024MOL0     H38195  12.730   6.589  11.036  0.1606 -0.4909 -2.0561
 1024MOL0     H38196  12.868   6.534  11.252  1.7053 -1.5886 -0.0534
 1024MOL0     H38197  12.921   6.651  11.140  0.4827 -0.1824  0.4431
 1024MOL0     H38198  13.050   6.423  11.040 -0.1966  2.3294  0.3144
 1024MOL0     H38199  12.990   6.354  11.191  0.3372 -1.5313 -1.3062
 1024MOL0     H38200  13.300   6.638  11.301 -1.5970 -0.8242  0.5777
 1024MOL0     H38201  13.544   6.590  11.304  0.1005  0.1444 -0.1476
 1024MOL0     H38202  13.886   6.253  11.310  1.0059  0.0147  1.3622
 1024MOL0     H38203  14.105   6.163  11.290  1.5573 -0.4945 -0.8286
 1024MOL0     H38204  14.256   5.969  10.917 -2.1412  1.3115  0.1938
 1024MOL0     H38205  14.268   6.140  10.893  0.0483  0.7117  0.3525
 1024MOL0     H38206  14.477   5.967  11.068  1.0389  0.5423  0.4837
 1024MOL0     H38207  14.482   6.016  10.884 -1.0273 -1.6522 -0.2557
 1024MOL0     H38208  14.630   6.124  10.990  0.0183 -1.2677 -1.8826
 1024MOL0     H38209  14.492   6.228  10.939  1.4113 -0.1868  0.2036
 1024MOL0     H38210  14.533   6.120  11.217 -1.1589 -1.1395 -0.3353
 1024MOL0     H38211  14.421   6.260  11.174 -0.2506 -0.7083 -0.2134
 1024MOL0     H38212  14.619   6.384  11.095  1.0127 -1.0045 -1.1128
 1024MOL0     H38213  14.721   6.246  11.146  0.8665  2.2361 -1.2512
 1024MOL0     H38214  14.541   6.338  11.361  1.1562 -1.1981  0.5050
 1024MOL0     H38215  14.713   6.318  11.376 -2.3690 -2.8137  0.7915
 1024MOL0     H38216  14.733   6.545  11.253 -0.9265  1.2107 -0.8062
 1024MOL0     H38217  14.689   6.559  11.413 -0.5766  0.9753 -0.3210
 1024MOL0     H38218  14.483   6.577  11.186 -0.1411 -3.3164  0.0501
 1024MOL0     H38219  14.440   6.547  11.350  1.0910 -1.8707 -0.1556
 1024MOL0     H38220  14.034   6.064  10.879  0.2623 -0.4691  0.0423
 1024MOL0     H38221  13.832   6.182  10.879  0.5241  1.5228 -0.5165
 1024MOL0     H38222  13.453   6.201  11.136  0.1015 -0.3044  1.1328
 1024MOL0     H38223  13.223   6.263  11.125 -0.5411 -0.4442  2.6149
 1024MOL0     H38224  11.599   6.177  11.278 -0.5527 -0.5286 -0.8844
 1024MOL0     H38225  11.531   6.009  11.449 -0.8427  1.1474  1.8004
 1024MOL0     H38226  11.373   5.801  11.693 -0.5566  1.6101 -1.2130
 1024MOL0     H38227  11.340   5.629  11.863  0.2835 -1.0464 -0.2330
 1024MOL0     H38228  11.233   5.297  11.756 -0.1545  0.4208 -0.2453
 1024MOL0     H38229  11.051   5.318  11.764 -1.0611 -2.4172  2.0782
 1024MOL0     H38230  11.074   5.125  11.855 -0.7467 -0.8944  0.1632
 1024MOL0     H38231  11.038   5.236  11.986 -0.9921  1.1566 -1.5334
 1024MOL0     H38232  11.321   5.145  11.898 -2.3340 -4.4521 -1.7687
 1024MOL0     H38233  11.215   5.053  12.017 -0.1730 -1.4281 -1.7062
 1024MOL0     H38234  11.313   5.345  12.076  0.7083  0.9073  0.5971
 1024MOL0     H38235  11.187   5.249  12.152 -0.3513 -2.0408 -0.7933
 1024MOL0     H38236  11.563   5.137  12.328 -1.0386 -1.1003  1.2857
 1024MOL0     H38237  10.993   5.491  11.626  0.3611 -0.9285 -0.5767
 1024MOL0     H38238  10.962   5.768  11.439  2.9129  0.7973  0.1505
 1024MOL0     H38239  10.994   5.604  11.369 -0.5826 -0.1506  0.3510
 1024MOL0     H38240  10.876   5.627  11.492 -2.1631  1.4959 -1.5509
  11.42526  11.42526  11.42526
